<event>
 4    1  0.3712574E-007  0.9030462E+03  0.7818608E-02  0.9521159E-01
          1   -1    0    0  501    0  0.00000000000E+00  0.00000000000E+00  0.20720058505E+04  0.20720058505E+04  0.50400000000E-02 0. -1.
         -1   -1    0    0    0  501 -0.00000000000E+00 -0.00000000000E+00 -0.38001955168E+03  0.38001955171E+03  0.50400000000E-02 0.  1.
    8880023    1    1    2    0    0  0.12070211266E+03  0.60589870167E+03  0.35321174935E+03  0.96966539735E+03  0.65864270000E+03 0.  1.
    8880022    1    1    2    0    0 -0.12070211266E+03 -0.60589870167E+03  0.13387745495E+04  0.14823600049E+04  0.15294330000E+03 0. -1.
<mgrwt>
<rscale>  0 0.82741666E+03</rscale>
<asrwt>0</asrwt>
<pdfrwt beam="1">  1        1 0.31877013E+00 0.90304620E+03</pdfrwt>
<pdfrwt beam="2">  1       -1 0.58464546E-01 0.90304620E+03</pdfrwt>
<totfact> 0.80891985E+00</totfact>
</mgrwt>
</event>
<event>
 4    1  0.3712574E-007  0.6942262E+03  0.7818608E-02  0.1002205E+00
         -1   -1    0    0    0  501 -0.00000000000E+00  0.00000000000E+00  0.31952729412E+03  0.31952729416E+03  0.50400000000E-02 0.  1.
          1   -1    0    0  501    0  0.00000000000E+00 -0.00000000000E+00 -0.84317317152E+03  0.84317317154E+03  0.50400000000E-02 0. -1.
    8880023    1    1    2    0    0 -0.13959200207E+03  0.16927445386E+03 -0.16195805921E+03  0.71286772053E+03  0.65864270000E+03 0.  0.
    8880022    1    1    2    0    0  0.13959200207E+03 -0.16927445386E+03 -0.36168781820E+03  0.44983274516E+03  0.15294330000E+03 0.  0.
<mgrwt>
<rscale>  0 0.54693768E+03</rscale>
<asrwt>0</asrwt>
<pdfrwt beam="1">  1        1 0.12971895E+00 0.69422617E+03</pdfrwt>
<pdfrwt beam="2">  1       -1 0.49158046E-01 0.69422617E+03</pdfrwt>
<totfact> 0.86203410E+01</totfact>
</mgrwt>
</event>
<event>
 4    1  0.3712574E-007  0.1316858E+04  0.7818608E-02  0.9051137E-01
         -1   -1    0    0    0  501 -0.00000000000E+00  0.00000000000E+00  0.60253593421E+03  0.60253593423E+03  0.50400000000E-02 0.  1.
          1   -1    0    0  501    0  0.00000000000E+00 -0.00000000000E+00 -0.25395777940E+04  0.25395777940E+04  0.50400000000E-02 0. -1.
    8880023    1    1    2    0    0  0.11403083924E+04 -0.16929891950E+01 -0.11481896600E+04  0.17471278710E+04  0.65864270000E+03 0.  1.
    8880022    1    1    2    0    0 -0.11403083924E+04  0.16929891950E+01 -0.78885219981E+03  0.13949858573E+04  0.15294330000E+03 0. -1.
<mgrwt>
<rscale>  0 0.12731452E+04</rscale>
<asrwt>0</asrwt>
<pdfrwt beam="1">  1        1 0.39070427E+00 0.13168585E+04</pdfrwt>
<pdfrwt beam="2">  1       -1 0.92697838E-01 0.13168585E+04</pdfrwt>
<totfact> 0.14058084E+00</totfact>
</mgrwt>
</event>
<event>
 4    1  0.3712574E-007  0.8719202E+03  0.7818608E-02  0.9572702E-01
          1   -1    0    0  501    0  0.00000000000E+00  0.00000000000E+00  0.87621448276E+03  0.87621448278E+03  0.50400000000E-02 0. -1.
         -1   -1    0    0    0  501 -0.00000000000E+00 -0.00000000000E+00 -0.63022059050E+03  0.63022059052E+03  0.50400000000E-02 0.  1.
    8880023    1    1    2    0    0 -0.31641226892E+03  0.47572874954E+03  0.16689983381E+02  0.87207988675E+03  0.65864270000E+03 0.  1.
    8880022    1    1    2    0    0  0.31641226892E+03 -0.47572874954E+03  0.22930390888E+03  0.63435518655E+03  0.15294330000E+03 0. -1.
<mgrwt>
<rscale>  0 0.79129621E+03</rscale>
<asrwt>0</asrwt>
<pdfrwt beam="1">  1        1 0.13480223E+00 0.87192016E+03</pdfrwt>
<pdfrwt beam="2">  1       -1 0.96957014E-01 0.87192016E+03</pdfrwt>
<totfact> 0.19752923E+01</totfact>
</mgrwt>
</event>
<event>
 4    1  0.3712574E-007  0.9648787E+03  0.7818608E-02  0.9429022E-01
         -1   -1    0    0    0  501 -0.00000000000E+00  0.00000000000E+00  0.43794435811E+03  0.43794435814E+03  0.50400000000E-02 0.  1.
          1   -1    0    0  501    0  0.00000000000E+00 -0.00000000000E+00 -0.16514620346E+04  0.16514620346E+04  0.50400000000E-02 0. -1.
    8880023    1    1    2    0    0 -0.63417569062E+03 -0.30822389097E+03 -0.55814165770E+03  0.11146807121E+04  0.65864270000E+03 0.  0.
    8880022    1    1    2    0    0  0.63417569062E+03  0.30822389097E+03 -0.65537601878E+03  0.97472568067E+03  0.15294330000E+03 0.  0.
<mgrwt>
<rscale>  0 0.89725254E+03</rscale>
<asrwt>0</asrwt>
<pdfrwt beam="1">  1        1 0.25407108E+00 0.96487874E+03</pdfrwt>
<pdfrwt beam="2">  1       -1 0.67376056E-01 0.96487874E+03</pdfrwt>
<totfact> 0.11607136E+01</totfact>
</mgrwt>
</event>
<event>
 4    1  0.3712574E-007  0.6963057E+03  0.7818608E-02  0.1001289E+00
          1   -1    0    0  501    0  0.00000000000E+00  0.00000000000E+00  0.15008399098E+04  0.15008399098E+04  0.50400000000E-02 0. -1.
         -1   -1    0    0    0  501 -0.00000000000E+00 -0.00000000000E+00 -0.49155616182E+03  0.49155616185E+03  0.50400000000E-02 0.  1.
    8880023    1    1    2    0    0 -0.18001636324E+03  0.13647546130E+03 -0.22232307772E+03  0.73093720642E+03  0.65864270000E+03 0.  1.
    8880022    1    1    2    0    0  0.18001636324E+03 -0.13647546130E+03  0.12316068257E+04  0.12614588653E+04  0.15294330000E+03 0.  0.
<mgrwt>
<rscale>  0 0.55088816E+03</rscale>
<asrwt>0</asrwt>
<pdfrwt beam="1">  1        1 0.23089845E+00 0.69630572E+03</pdfrwt>
<pdfrwt beam="2">  1       -1 0.75624026E-01 0.69630572E+03</pdfrwt>
<totfact> 0.12006606E+01</totfact>
</mgrwt>
</event>
<event>
 4    1  0.3712574E-007  0.6837487E+03  0.7818608E-02  0.1007278E+00
          1   -1    0    0  501    0  0.00000000000E+00  0.00000000000E+00  0.56952724334E+03  0.56952724336E+03  0.50400000000E-02 0. -1.
         -1   -1    0    0    0  501 -0.00000000000E+00 -0.00000000000E+00 -0.37412877023E+03  0.37412877026E+03  0.50400000000E-02 0.  1.
    8880023    1    1    2    0    0  0.24731235274E+02 -0.18190794357E+03  0.15851924500E+03  0.70188367358E+03  0.65864270000E+03 0.  0.
    8880022    1    1    2    0    0 -0.24731235274E+02  0.18190794357E+03  0.36879228111E+02  0.24177234005E+03  0.15294330000E+03 0. -1.
<mgrwt>
<rscale>  0 0.52570972E+03</rscale>
<asrwt>0</asrwt>
<pdfrwt beam="1">  1        1 0.87619576E-01 0.68374874E+03</pdfrwt>
<pdfrwt beam="2">  1       -1 0.57558272E-01 0.68374874E+03</pdfrwt>
<totfact> 0.11530842E+02</totfact>
</mgrwt>
</event>
<event>
 4    1  0.3960788E-007  0.7250701E+03  0.7818608E-02  0.9905789E-01
         -1   -1    0    0    0  501 -0.00000000000E+00  0.00000000000E+00  0.12685768499E+04  0.12685768499E+04  0.50400000000E-02 0.  1.
          1   -1    0    0  501    0  0.00000000000E+00 -0.00000000000E+00 -0.17160643117E+04  0.17160643117E+04  0.50400000000E-02 0. -1.
    8880023    1    1    2    0    0  0.15556856092E+03  0.26022083677E+03  0.11455947777E+04  0.13557706524E+04  0.65864270000E+03 0.  0.
    8880022    1    1    2    0    0 -0.15556856092E+03 -0.26022083677E+03 -0.15930822395E+04  0.16288705092E+04  0.15294330000E+03 0. -1.
<mgrwt>
<rscale>  0 0.59981523E+03</rscale>
<asrwt>0</asrwt>
<pdfrwt beam="1">  1        1 0.26400989E+00 0.72507011E+03</pdfrwt>
<pdfrwt beam="2">  1       -1 0.19516567E+00 0.72507011E+03</pdfrwt>
<totfact> 0.80296942E-01</totfact>
</mgrwt>
</event>
<event>
 4    1  0.3712574E-007  0.9050176E+03  0.7818608E-02  0.9518024E-01
          1   -1    0    0  501    0  0.00000000000E+00  0.00000000000E+00  0.13036201964E+04  0.13036201964E+04  0.50400000000E-02 0. -1.
         -1   -1    0    0    0  501 -0.00000000000E+00 -0.00000000000E+00 -0.73135424801E+03  0.73135424802E+03  0.50400000000E-02 0.  1.
    8880023    1    1    2    0    0  0.45076260697E+02  0.61904344444E+03 -0.30009084219E+03  0.95347332171E+03  0.65864270000E+03 0.  0.
    8880022    1    1    2    0    0 -0.45076260697E+02 -0.61904344444E+03  0.87235679062E+03  0.10815011228E+04  0.15294330000E+03 0.  0.
<mgrwt>
<rscale>  0 0.82967911E+03</rscale>
<asrwt>0</asrwt>
<pdfrwt beam="1">  1        1 0.20055695E+00 0.90501760E+03</pdfrwt>
<pdfrwt beam="2">  1       -1 0.11251604E+00 0.90501760E+03</pdfrwt>
<totfact> 0.66043984E+00</totfact>
</mgrwt>
</event>
<event>
 4    1  0.3712574E-007  0.6984150E+03  0.7818608E-02  0.1000384E+00
          1   -1    0    0  501    0  0.00000000000E+00  0.00000000000E+00  0.74722042832E+03  0.74722042834E+03  0.50400000000E-02 0. -1.
         -1   -1    0    0    0  501 -0.00000000000E+00 -0.00000000000E+00 -0.44334792275E+03  0.44334792278E+03  0.50400000000E-02 0.  1.
    8880023    1    1    2    0    0  0.63855056365E+02 -0.22337379616E+03 -0.94419551112E+02  0.70476845767E+03  0.65864270000E+03 0.  1.
    8880022    1    1    2    0    0 -0.63855056365E+02  0.22337379616E+03  0.39829205669E+03  0.48579989344E+03  0.15294330000E+03 0.  0.
<mgrwt>
<rscale>  0 0.55482142E+03</rscale>
<asrwt>0</asrwt>
<pdfrwt beam="1">  1        1 0.11495699E+00 0.69841501E+03</pdfrwt>
<pdfrwt beam="2">  1       -1 0.68207374E-01 0.69841501E+03</pdfrwt>
<totfact> 0.55049281E+01</totfact>
</mgrwt>
</event>
<event>
 4    1  0.3712574E-007  0.6698799E+03  0.7818608E-02  0.1015749E+00
         -1   -1    0    0    0  501 -0.00000000000E+00  0.00000000000E+00  0.44982491380E+03  0.44982491383E+03  0.50400000000E-02 0.  1.
          1   -1    0    0  501    0  0.00000000000E+00 -0.00000000000E+00 -0.50537922821E+03  0.50537922824E+03  0.50400000000E-02 0. -1.
    8880023    1    1    2    0    0 -0.38728328928E+02  0.11588327238E+03  0.13350885887E+03  0.68305463760E+03  0.65864270000E+03 0.  1.
    8880022    1    1    2    0    0  0.38728328928E+02 -0.11588327238E+03 -0.18906317328E+03  0.27214950448E+03  0.15294330000E+03 0.  0.
<mgrwt>
<rscale>  0 0.49252303E+03</rscale>
<asrwt>0</asrwt>
<pdfrwt beam="1">  1        1 0.77750651E-01 0.66987986E+03</pdfrwt>
<pdfrwt beam="2">  1       -1 0.69203832E-01 0.66987986E+03</pdfrwt>
<totfact> 0.94462926E+01</totfact>
</mgrwt>
</event>
<event>
 4    1  0.3712574E-007  0.7764753E+03  0.7818608E-02  0.9764183E-01
         -1   -1    0    0    0  501 -0.00000000000E+00  0.00000000000E+00  0.34686870468E+03  0.34686870472E+03  0.50400000000E-02 0.  1.
          1   -1    0    0  501    0  0.00000000000E+00 -0.00000000000E+00 -0.20007808978E+04  0.20007808978E+04  0.50400000000E-02 0. -1.
    8880023    1    1    2    0    0 -0.18537701758E+03 -0.36706812683E+03 -0.16283839793E+03  0.79336637091E+03  0.65864270000E+03 0. -1.
    8880022    1    1    2    0    0  0.18537701758E+03  0.36706812683E+03 -0.14910737952E+04  0.15542832316E+04  0.15294330000E+03 0.  0.
<mgrwt>
<rscale>  0 0.67320641E+03</rscale>
<asrwt>0</asrwt>
<pdfrwt beam="1">  1        1 0.30781244E+00 0.77647528E+03</pdfrwt>
<pdfrwt beam="2">  1       -1 0.53364417E-01 0.77647528E+03</pdfrwt>
<totfact> 0.10976229E+01</totfact>
</mgrwt>
</event>
<event>
 4    1  0.3712574E-007  0.8558282E+03  0.7818608E-02  0.9601028E-01
          1   -1    0    0  501    0  0.00000000000E+00  0.00000000000E+00  0.13570823305E+04  0.13570823305E+04  0.50400000000E-02 0. -1.
         -1   -1    0    0    0  501 -0.00000000000E+00 -0.00000000000E+00 -0.48282396960E+03  0.48282396962E+03  0.50400000000E-02 0.  1.
    8880023    1    1    2    0    0 -0.51601690160E+03 -0.17988396650E+03  0.93695013776E+03  0.12689828411E+04  0.65864270000E+03 0. -1.
    8880022    1    1    2    0    0  0.51601690160E+03  0.17988396650E+03 -0.62691776867E+02  0.57092345901E+03  0.15294330000E+03 0.  0.
<mgrwt>
<rscale>  0 0.77228190E+03</rscale>
<asrwt>0</asrwt>
<pdfrwt beam="1">  1        1 0.20878189E+00 0.85582819E+03</pdfrwt>
<pdfrwt beam="2">  1       -1 0.74280612E-01 0.85582819E+03</pdfrwt>
<totfact> 0.15336983E+01</totfact>
</mgrwt>
</event>
<event>
 4    1  0.3712574E-007  0.1009976E+04  0.7818608E-02  0.9368621E-01
          1   -1    0    0  501    0  0.00000000000E+00  0.00000000000E+00  0.24180816166E+04  0.24180816166E+04  0.50400000000E-02 0. -1.
         -1   -1    0    0    0  501 -0.00000000000E+00 -0.00000000000E+00 -0.71442018175E+03  0.71442018177E+03  0.50400000000E-02 0.  1.
    8880023    1    1    2    0    0 -0.25932178183E+03 -0.72041239524E+03 -0.23980739160E+03  0.10380556811E+04  0.65864270000E+03 0.  0.
    8880022    1    1    2    0    0  0.25932178183E+03  0.72041239524E+03  0.19434688265E+04  0.20944461173E+04  0.15294330000E+03 0.  0.
<mgrwt>
<rscale>  0 0.94703705E+03</rscale>
<asrwt>0</asrwt>
<pdfrwt beam="1">  1        1 0.37201255E+00 0.10099762E+04</pdfrwt>
<pdfrwt beam="2">  1       -1 0.10991080E+00 0.10099762E+04</pdfrwt>
<totfact> 0.11987879E+00</totfact>
</mgrwt>
</event>
<event>
 4    1  0.3712574E-007  0.7214998E+03  0.7818608E-02  0.9917543E-01
         -1   -1    0    0    0  501 -0.00000000000E+00  0.00000000000E+00  0.10297265237E+04  0.10297265237E+04  0.50400000000E-02 0.  1.
          1   -1    0    0  501    0  0.00000000000E+00 -0.00000000000E+00 -0.35821645932E+03  0.35821645935E+03  0.50400000000E-02 0. -1.
    8880023    1    1    2    0    0 -0.26816371899E+03 -0.12181960017E+03  0.75645677100E+03  0.10453654135E+04  0.65864270000E+03 0.  1.
    8880022    1    1    2    0    0  0.26816371899E+03  0.12181960017E+03 -0.84946706613E+02  0.34257756953E+03  0.15294330000E+03 0.  0.
<mgrwt>
<rscale>  0 0.59418544E+03</rscale>
<asrwt>0</asrwt>
<pdfrwt beam="1">  1        1 0.55110225E-01 0.72149983E+03</pdfrwt>
<pdfrwt beam="2">  1       -1 0.15841946E+00 0.72149983E+03</pdfrwt>
<totfact> 0.21459792E+01</totfact>
</mgrwt>
</event>
<event>
 4    1  0.3712574E-007  0.1374630E+04  0.7818608E-02  0.9003651E-01
         -1   -1    0    0    0  501 -0.00000000000E+00  0.00000000000E+00  0.12264706666E+04  0.12264706666E+04  0.50400000000E-02 0.  1.
          1   -1    0    0  501    0  0.00000000000E+00 -0.00000000000E+00 -0.19305552924E+04  0.19305552924E+04  0.50400000000E-02 0. -1.
    8880023    1    1    2    0    0  0.37448181154E+03  0.11469789725E+04  0.48347792134E+03  0.14571748341E+04  0.65864270000E+03 0.  1.
    8880022    1    1    2    0    0 -0.37448181154E+03 -0.11469789725E+04 -0.11875625471E+04  0.16998511249E+04  0.15294330000E+03 0.  0.
<mgrwt>
<rscale>  0 0.13331908E+04</rscale>
<asrwt>0</asrwt>
<pdfrwt beam="1">  1        1 0.29700851E+00 0.13746300E+04</pdfrwt>
<pdfrwt beam="2">  1       -1 0.18868779E+00 0.13746300E+04</pdfrwt>
<totfact> 0.57549738E-01</totfact>
</mgrwt>
</event>
<event>
 4    1  0.3712574E-007  0.6833684E+03  0.7818608E-02  0.1007479E+00
          1   -1    0    0  501    0  0.00000000000E+00  0.00000000000E+00  0.15323094339E+04  0.15323094339E+04  0.50400000000E-02 0. -1.
         -1   -1    0    0    0  501 -0.00000000000E+00 -0.00000000000E+00 -0.14641690397E+03  0.14641690405E+03  0.50400000000E-02 0.  1.
    8880023    1    1    2    0    0  0.16585512089E+03 -0.75327682552E+02  0.83715800509E+03  0.10806599431E+04  0.65864270000E+03 0.  1.
    8880022    1    1    2    0    0 -0.16585512089E+03  0.75327682552E+02  0.54873452484E+03  0.59806639485E+03  0.15294330000E+03 0. -1.
<mgrwt>
<rscale>  0 0.52488979E+03</rscale>
<asrwt>0</asrwt>
<pdfrwt beam="1">  1        1 0.23573991E+00 0.68336841E+03</pdfrwt>
<pdfrwt beam="2">  1       -1 0.22525678E-01 0.68336841E+03</pdfrwt>
<totfact> 0.10696578E+02</totfact>
</mgrwt>
</event>
<event>
 4    1  0.3712574E-007  0.7748363E+03  0.7818608E-02  0.9768109E-01
          1   -1    0    0  501    0  0.00000000000E+00  0.00000000000E+00  0.17871655455E+04  0.17871655455E+04  0.50400000000E-02 0. -1.
         -1   -1    0    0    0  501 -0.00000000000E+00 -0.00000000000E+00 -0.29778219343E+03  0.29778219348E+03  0.50400000000E-02 0.  1.
    8880023    1    1    2    0    0 -0.25962981273E+03 -0.31488639994E+03  0.32239941052E+03  0.83923338274E+03  0.65864270000E+03 0.  1.
    8880022    1    1    2    0    0  0.25962981273E+03  0.31488639994E+03  0.11669839416E+04  0.12457143563E+04  0.15294330000E+03 0.  0.
<mgrwt>
<rscale>  0 0.67102417E+03</rscale>
<asrwt>0</asrwt>
<pdfrwt beam="1">  1        1 0.27494855E+00 0.77483630E+03</pdfrwt>
<pdfrwt beam="2">  1       -1 0.45812645E-01 0.77483630E+03</pdfrwt>
<totfact> 0.20366455E+01</totfact>
</mgrwt>
</event>
<event>
 4    1  0.3712574E-007  0.9140614E+03  0.7818608E-02  0.9503825E-01
         -1   -1    0    0    0  501 -0.00000000000E+00  0.00000000000E+00  0.15652538373E+04  0.15652538373E+04  0.50400000000E-02 0.  1.
          1   -1    0    0  501    0  0.00000000000E+00 -0.00000000000E+00 -0.42480704619E+03  0.42480704622E+03  0.50400000000E-02 0. -1.
    8880023    1    1    2    0    0  0.55671340165E+03 -0.30293261221E+03  0.93233474734E+03  0.13056631520E+04  0.65864270000E+03 0.  0.
    8880022    1    1    2    0    0 -0.55671340165E+03  0.30293261221E+03  0.20811204373E+03  0.68439773150E+03  0.15294330000E+03 0.  0.
<mgrwt>
<rscale>  0 0.84002378E+03</rscale>
<asrwt>0</asrwt>
<pdfrwt beam="1">  1        1 0.65354931E-01 0.91406137E+03</pdfrwt>
<pdfrwt beam="2">  1       -1 0.24080828E+00 0.91406137E+03</pdfrwt>
<totfact> 0.45105023E+00</totfact>
</mgrwt>
</event>
<event>
 4    1  0.3712574E-007  0.6900067E+03  0.7818608E-02  0.1004149E+00
         -1   -1    0    0    0  501 -0.00000000000E+00  0.00000000000E+00  0.62498114615E+03  0.62498114617E+03  0.50400000000E-02 0.  1.
          1   -1    0    0  501    0  0.00000000000E+00 -0.00000000000E+00 -0.64801181127E+03  0.64801181129E+03  0.50400000000E-02 0. -1.
    8880023    1    1    2    0    0 -0.52819594803E+02 -0.19876908344E+03  0.38574506070E+03  0.79051155351E+03  0.65864270000E+03 0.  1.
    8880022    1    1    2    0    0  0.52819594803E+02  0.19876908344E+03 -0.40877572582E+03  0.48248140395E+03  0.15294330000E+03 0.  0.
<mgrwt>
<rscale>  0 0.53867644E+03</rscale>
<asrwt>0</asrwt>
<pdfrwt beam="1">  1        1 0.99694125E-01 0.69000671E+03</pdfrwt>
<pdfrwt beam="2">  1       -1 0.96150945E-01 0.69000671E+03</pdfrwt>
<totfact> 0.32857021E+01</totfact>
</mgrwt>
</event>
<event>
 4    1  0.3712574E-007  0.1024050E+04  0.7818608E-02  0.9350748E-01
          1   -1    0    0  501    0  0.00000000000E+00  0.00000000000E+00  0.14078945917E+04  0.14078945917E+04  0.50400000000E-02 0. -1.
         -1   -1    0    0    0  501 -0.00000000000E+00 -0.00000000000E+00 -0.75645742413E+03  0.75645742415E+03  0.50400000000E-02 0.  1.
    8880023    1    1    2    0    0  0.51220918183E+03 -0.59372554092E+03 -0.14736356768E+03  0.10345987102E+04  0.65864270000E+03 0.  0.
    8880022    1    1    2    0    0 -0.51220918183E+03  0.59372554092E+03  0.79880073525E+03  0.11297533056E+04  0.15294330000E+03 0.  0.
<mgrwt>
<rscale>  0 0.96242208E+03</rscale>
<asrwt>0</asrwt>
<pdfrwt beam="1">  1        1 0.21659916E+00 0.10240500E+04</pdfrwt>
<pdfrwt beam="2">  1       -1 0.11637807E+00 0.10240500E+04</pdfrwt>
<totfact> 0.50686093E+00</totfact>
</mgrwt>
</event>
<event>
 4    1  0.3712574E-007  0.1405534E+04  0.7818608E-02  0.8979395E-01
          1   -1    0    0  501    0  0.00000000000E+00  0.00000000000E+00  0.69974967384E+03  0.69974967386E+03  0.50400000000E-02 0. -1.
         -1   -1    0    0    0  501 -0.00000000000E+00 -0.00000000000E+00 -0.31069133239E+04  0.31069133240E+04  0.50400000000E-02 0.  1.
    8880023    1    1    2    0    0 -0.11269771841E+04  0.52118805644E+03 -0.20855132592E+04  0.25149334632E+04  0.65864270000E+03 0.  0.
    8880022    1    1    2    0    0  0.11269771841E+04 -0.52118805644E+03 -0.32165039091E+03  0.12917295346E+04  0.15294330000E+03 0.  0.
<mgrwt>
<rscale>  0 0.13652083E+04</rscale>
<asrwt>0</asrwt>
<pdfrwt beam="1">  1        1 0.10765380E+00 0.14055336E+04</pdfrwt>
<pdfrwt beam="2">  1       -1 0.47798666E+00 0.14055336E+04</pdfrwt>
<totfact> 0.54793475E-02</totfact>
</mgrwt>
</event>
<event>
 4    1  0.3712574E-007  0.7474722E+03  0.7818608E-02  0.9838692E-01
          1   -1    0    0  501    0  0.00000000000E+00  0.00000000000E+00  0.60605703565E+03  0.60605703567E+03  0.50400000000E-02 0. -1.
         -1   -1    0    0    0  501 -0.00000000000E+00 -0.00000000000E+00 -0.10876784141E+04  0.10876784141E+04  0.50400000000E-02 0.  1.
    8880023    1    1    2    0    0  0.14931937492E+03  0.32032505159E+03 -0.86986485711E+03  0.11468999478E+04  0.65864270000E+03 0.  1.
    8880022    1    1    2    0    0 -0.14931937492E+03 -0.32032505159E+03  0.38824347870E+03  0.54683550193E+03  0.15294330000E+03 0.  0.
<mgrwt>
<rscale>  0 0.63326789E+03</rscale>
<asrwt>0</asrwt>
<pdfrwt beam="1">  1        1 0.93239544E-01 0.74747215E+03</pdfrwt>
<pdfrwt beam="2">  1       -1 0.16733514E+00 0.74747215E+03</pdfrwt>
<totfact> 0.89660534E+00</totfact>
</mgrwt>
</event>
<event>
 4    1  0.3712574E-007  0.6928796E+03  0.7818608E-02  0.1002813E+00
         -1   -1    0    0    0  501 -0.00000000000E+00  0.00000000000E+00  0.26024574671E+03  0.26024574676E+03  0.50400000000E-02 0.  1.
          1   -1    0    0  501    0  0.00000000000E+00 -0.00000000000E+00 -0.15398865485E+04  0.15398865485E+04  0.50400000000E-02 0. -1.
    8880023    1    1    2    0    0  0.18180411881E+03 -0.11497494349E+03 -0.24904932893E+03  0.73627966816E+03  0.65864270000E+03 0.  1.
    8880022    1    1    2    0    0 -0.18180411881E+03  0.11497494349E+03 -0.10305914728E+04  0.10638526271E+04  0.15294330000E+03 0.  0.
<mgrwt>
<rscale>  0 0.54433857E+03</rscale>
<asrwt>0</asrwt>
<pdfrwt beam="1">  1        1 0.23690562E+00 0.69287963E+03</pdfrwt>
<pdfrwt beam="2">  1       -1 0.40037808E-01 0.69287963E+03</pdfrwt>
<totfact> 0.38727686E+01</totfact>
</mgrwt>
</event>
<event>
 4    1  0.3712574E-007  0.8494365E+03  0.7818608E-02  0.9612637E-01
          1   -1    0    0  501    0  0.00000000000E+00  0.00000000000E+00  0.54257525804E+03  0.54257525807E+03  0.50400000000E-02 0. -1.
         -1   -1    0    0    0  501 -0.00000000000E+00 -0.00000000000E+00 -0.11501790442E+04  0.11501790442E+04  0.50400000000E-02 0.  1.
    8880023    1    1    2    0    0 -0.23983942099E+03  0.47980121985E+03  0.24431615322E+02  0.84978777852E+03  0.65864270000E+03 0.  0.
    8880022    1    1    2    0    0  0.23983942099E+03 -0.47980121985E+03 -0.63203540146E+03  0.84296652373E+03  0.15294330000E+03 0.  0.
<mgrwt>
<rscale>  0 0.76465379E+03</rscale>
<asrwt>0</asrwt>
<pdfrwt beam="1">  1        1 0.83473117E-01 0.84943650E+03</pdfrwt>
<pdfrwt beam="2">  1       -1 0.17695062E+00 0.84943650E+03</pdfrwt>
<totfact> 0.88230277E+00</totfact>
</mgrwt>
</event>
<event>
 4    1  0.3712574E-007  0.7128799E+03  0.7818608E-02  0.9947458E-01
          1   -1    0    0  501    0  0.00000000000E+00  0.00000000000E+00  0.11299785709E+04  0.11299785709E+04  0.50400000000E-02 0. -1.
         -1   -1    0    0    0  501 -0.00000000000E+00 -0.00000000000E+00 -0.32775023315E+03  0.32775023319E+03  0.50400000000E-02 0.  1.
    8880023    1    1    2    0    0  0.25548045818E+03 -0.95484769880E+02  0.14156365956E+03  0.72679989114E+03  0.65864270000E+03 0.  0.
    8880022    1    1    2    0    0 -0.25548045818E+03  0.95484769880E+02  0.66066467820E+03  0.73092891297E+03  0.15294330000E+03 0.  0.
<mgrwt>
<rscale>  0 0.58015380E+03</rscale>
<asrwt>0</asrwt>
<pdfrwt beam="1">  1        1 0.17384286E+00 0.71287994E+03</pdfrwt>
<pdfrwt beam="2">  1       -1 0.50423112E-01 0.71287994E+03</pdfrwt>
<totfact> 0.48935865E+01</totfact>
</mgrwt>
</event>
<event>
 4    1  0.3712574E-007  0.9108753E+03  0.7818608E-02  0.9508794E-01
          1   -1    0    0  501    0  0.00000000000E+00  0.00000000000E+00  0.19456530488E+04  0.19456530488E+04  0.50400000000E-02 0. -1.
         -1   -1    0    0    0  501 -0.00000000000E+00 -0.00000000000E+00 -0.38883322265E+03  0.38883322268E+03  0.50400000000E-02 0.  1.
    8880023    1    1    2    0    0  0.48596102324E+03 -0.39965673530E+03  0.37127072206E+03  0.98363396520E+03  0.65864270000E+03 0.  1.
    8880022    1    1    2    0    0 -0.48596102324E+03  0.39965673530E+03  0.11855491041E+04  0.13508523063E+04  0.15294330000E+03 0.  0.
<mgrwt>
<rscale>  0 0.83638571E+03</rscale>
<asrwt>0</asrwt>
<pdfrwt beam="1">  1        1 0.29933124E+00 0.91087531E+03</pdfrwt>
<pdfrwt beam="2">  1       -1 0.59820496E-01 0.91087531E+03</pdfrwt>
<totfact> 0.93909074E+00</totfact>
</mgrwt>
</event>
<event>
 4    1  0.3712574E-007  0.7542494E+03  0.7818608E-02  0.9820229E-01
         -1   -1    0    0    0  501 -0.00000000000E+00  0.00000000000E+00  0.61848586642E+03  0.61848586644E+03  0.50400000000E-02 0.  1.
          1   -1    0    0  501    0  0.00000000000E+00 -0.00000000000E+00 -0.88457467458E+03  0.88457467459E+03  0.50400000000E-02 0. -1.
    8880023    1    1    2    0    0 -0.32113091817E+03  0.17876494405E+03  0.29940275359E+03  0.81150119343E+03  0.65864270000E+03 0.  1.
    8880022    1    1    2    0    0  0.32113091817E+03 -0.17876494405E+03 -0.56549156175E+03  0.69155934760E+03  0.15294330000E+03 0.  0.
<mgrwt>
<rscale>  0 0.64288140E+03</rscale>
<asrwt>0</asrwt>
<pdfrwt beam="1">  1        1 0.13608841E+00 0.75424941E+03</pdfrwt>
<pdfrwt beam="2">  1       -1 0.95151671E-01 0.75424941E+03</pdfrwt>
<totfact> 0.20541579E+01</totfact>
</mgrwt>
</event>
<event>
 4    1  0.3712574E-007  0.7571095E+03  0.7818608E-02  0.9812649E-01
          1   -1    0    0  501    0  0.00000000000E+00  0.00000000000E+00  0.54139157352E+03  0.54139157354E+03  0.50400000000E-02 0. -1.
         -1   -1    0    0    0  501 -0.00000000000E+00 -0.00000000000E+00 -0.73661504593E+03  0.73661504595E+03  0.50400000000E-02 0.  1.
    8880023    1    1    2    0    0 -0.13859602689E+03 -0.34669252771E+03 -0.36471078387E+03  0.84037416046E+03  0.65864270000E+03 0.  1.
    8880022    1    1    2    0    0  0.13859602689E+03  0.34669252771E+03  0.16948731146E+03  0.43763245903E+03  0.15294330000E+03 0.  0.
<mgrwt>
<rscale>  0 0.64688124E+03</rscale>
<asrwt>0</asrwt>
<pdfrwt beam="1">  1        1 0.83291011E-01 0.75710949E+03</pdfrwt>
<pdfrwt beam="2">  1       -1 0.11332539E+00 0.75710949E+03</pdfrwt>
<totfact> 0.28864216E+01</totfact>
</mgrwt>
</event>
<event>
 4    1  0.3712574E-007  0.6768809E+03  0.7818608E-02  0.1011146E+00
         -1   -1    0    0    0  501 -0.00000000000E+00  0.00000000000E+00  0.16191761321E+03  0.16191761329E+03  0.50400000000E-02 0.  1.
          1   -1    0    0  501    0  0.00000000000E+00 -0.00000000000E+00 -0.15195786699E+04  0.15195786700E+04  0.50400000000E-02 0. -1.
    8880023    1    1    2    0    0  0.93198436454E+02 -0.12518634991E+03 -0.64087375992E+03  0.93214105863E+03  0.65864270000E+03 0.  1.
    8880022    1    1    2    0    0 -0.93198436454E+02  0.12518634991E+03 -0.71678729682E+03  0.74935522461E+03  0.15294330000E+03 0.  0.
<mgrwt>
<rscale>  0 0.51021708E+03</rscale>
<asrwt>0</asrwt>
<pdfrwt beam="1">  1        1 0.23378132E+00 0.67688092E+03</pdfrwt>
<pdfrwt beam="2">  1       -1 0.24910403E-01 0.67688092E+03</pdfrwt>
<totfact> 0.92098101E+01</totfact>
</mgrwt>
</event>
<event>
 4    1  0.3712574E-007  0.7481088E+03  0.7818608E-02  0.9836926E-01
          1   -1    0    0  501    0  0.00000000000E+00  0.00000000000E+00  0.92723204119E+03  0.92723204120E+03  0.50400000000E-02 0. -1.
         -1   -1    0    0    0  501 -0.00000000000E+00 -0.00000000000E+00 -0.46059036344E+03  0.46059036347E+03  0.50400000000E-02 0.  1.
    8880023    1    1    2    0    0 -0.86183315802E+02 -0.34413519958E+03 -0.41782286878E+02  0.74927469280E+03  0.65864270000E+03 0.  0.
    8880022    1    1    2    0    0  0.86183315802E+02  0.34413519958E+03  0.50842396462E+03  0.63854771187E+03  0.15294330000E+03 0.  0.
<mgrwt>
<rscale>  0 0.63417956E+03</rscale>
<asrwt>0</asrwt>
<pdfrwt beam="1">  1        1 0.14265108E+00 0.74810882E+03</pdfrwt>
<pdfrwt beam="2">  1       -1 0.70860057E-01 0.74810882E+03</pdfrwt>
<totfact> 0.35681122E+01</totfact>
</mgrwt>
</event>
<event>
 4    1  0.3712574E-007  0.8626298E+03  0.7818608E-02  0.9588903E-01
         -1   -1    0    0    0  501 -0.00000000000E+00  0.00000000000E+00  0.61324572925E+03  0.61324572927E+03  0.50400000000E-02 0.  1.
          1   -1    0    0  501    0  0.00000000000E+00 -0.00000000000E+00 -0.13186756764E+04  0.13186756764E+04  0.50400000000E-02 0. -1.
    8880023    1    1    2    0    0  0.50760511899E+03  0.22947100698E+03  0.17373451483E+03  0.87995101442E+03  0.65864270000E+03 0.  1.
    8880022    1    1    2    0    0 -0.50760511899E+03 -0.22947100698E+03 -0.87916446199E+03  0.10519703913E+04  0.15294330000E+03 0.  0.
<mgrwt>
<rscale>  0 0.78035054E+03</rscale>
<asrwt>0</asrwt>
<pdfrwt beam="1">  1        1 0.20287318E+00 0.86262976E+03</pdfrwt>
<pdfrwt beam="2">  1       -1 0.94345497E-01 0.86262976E+03</pdfrwt>
<totfact> 0.97344259E+00</totfact>
</mgrwt>
</event>
<event>
 4    1  0.3712574E-007  0.9908221E+03  0.7818608E-02  0.9393665E-01
          1   -1    0    0  501    0  0.00000000000E+00  0.00000000000E+00  0.16928473402E+04  0.16928473402E+04  0.50400000000E-02 0. -1.
         -1   -1    0    0    0  501 -0.00000000000E+00 -0.00000000000E+00 -0.11648174689E+04  0.11648174689E+04  0.50400000000E-02 0.  1.
    8880023    1    1    2    0    0 -0.34099391309E+02 -0.73942908516E+03 -0.83720065223E+03  0.12971635513E+04  0.65864270000E+03 0.  0.
    8880022    1    1    2    0    0  0.34099391309E+02  0.73942908516E+03  0.13652305235E+04  0.15605012579E+04  0.15294330000E+03 0.  0.
<mgrwt>
<rscale>  0 0.92598874E+03</rscale>
<asrwt>0</asrwt>
<pdfrwt beam="1">  1        1 0.26043805E+00 0.99082206E+03</pdfrwt>
<pdfrwt beam="2">  1       -1 0.17920269E+00 0.99082206E+03</pdfrwt>
<totfact> 0.10261427E+00</totfact>
</mgrwt>
</event>
<event>
 4    1  0.3712574E-007  0.7261119E+03  0.7818608E-02  0.9902423E-01
          1   -1    0    0  501    0  0.00000000000E+00  0.00000000000E+00  0.13994001106E+04  0.13994001106E+04  0.50400000000E-02 0. -1.
         -1   -1    0    0    0  501 -0.00000000000E+00 -0.00000000000E+00 -0.38155284226E+03  0.38155284229E+03  0.50400000000E-02 0.  1.
    8880023    1    1    2    0    0  0.28249683749E+03  0.11672108181E+03  0.20211831403E+02  0.72639314322E+03  0.65864270000E+03 0.  1.
    8880022    1    1    2    0    0 -0.28249683749E+03 -0.11672108181E+03  0.99763543697E+03  0.10545598097E+04  0.15294330000E+03 0. -1.
<mgrwt>
<rscale>  0 0.60143996E+03</rscale>
<asrwt>0</asrwt>
<pdfrwt beam="1">  1        1 0.21529233E+00 0.72611189E+03</pdfrwt>
<pdfrwt beam="2">  1       -1 0.58700437E-01 0.72611189E+03</pdfrwt>
<totfact> 0.23423697E+01</totfact>
</mgrwt>
</event>
<event>
 4    1  0.3712574E-007  0.6635783E+03  0.7818608E-02  0.1020757E+00
         -1   -1    0    0    0  501 -0.00000000000E+00  0.00000000000E+00  0.57399288630E+03  0.57399288632E+03  0.50400000000E-02 0.  1.
          1   -1    0    0  501    0  0.00000000000E+00 -0.00000000000E+00 -0.74889119065E+03  0.74889119067E+03  0.50400000000E-02 0. -1.
    8880023    1    1    2    0    0 -0.60899631987E+02  0.53076878878E+02  0.36403574531E+03  0.75687393295E+03  0.65864270000E+03 0.  1.
    8880022    1    1    2    0    0  0.60899631987E+02 -0.53076878878E+02 -0.53893404967E+03  0.56601014404E+03  0.15294330000E+03 0.  0.
<mgrwt>
<rscale>  0 0.47414362E+03</rscale>
<asrwt>0</asrwt>
<pdfrwt beam="1">  1        1 0.11521403E+00 0.66357827E+03</pdfrwt>
<pdfrwt beam="2">  1       -1 0.88306597E-01 0.66357827E+03</pdfrwt>
<totfact> 0.31993183E+01</totfact>
</mgrwt>
</event>
<event>
 4    1  0.3712574E-007  0.7705948E+03  0.7818608E-02  0.9778412E-01
          1   -1    0    0  501    0  0.00000000000E+00  0.00000000000E+00  0.25165836859E+04  0.25165836859E+04  0.50400000000E-02 0. -1.
         -1   -1    0    0    0  501 -0.00000000000E+00 -0.00000000000E+00 -0.40323252683E+03  0.40323252686E+03  0.50400000000E-02 0.  1.
    8880023    1    1    2    0    0  0.11004323488E+03  0.38457337820E+03  0.72629479597E+01  0.77062906345E+03  0.65864270000E+03 0.  0.
    8880022    1    1    2    0    0 -0.11004323488E+03 -0.38457337820E+03  0.21060882111E+04  0.21491871493E+04  0.15294330000E+03 0. -1.
<mgrwt>
<rscale>  0 0.66534033E+03</rscale>
<asrwt>0</asrwt>
<pdfrwt beam="1">  1        1 0.38716673E+00 0.77059484E+03</pdfrwt>
<pdfrwt beam="2">  1       -1 0.62035773E-01 0.77059484E+03</pdfrwt>
<totfact> 0.36750226E+00</totfact>
</mgrwt>
</event>
<event>
 4    1  0.3712574E-007  0.2328949E+04  0.7818608E-02  0.8475498E-01
          1   -1    0    0  501    0  0.00000000000E+00  0.00000000000E+00  0.33113398273E+04  0.33113398273E+04  0.50400000000E-02 0. -1.
         -1   -1    0    0    0  501 -0.00000000000E+00 -0.00000000000E+00 -0.19171743690E+04  0.19171743690E+04  0.50400000000E-02 0.  1.
    8880023    1    1    2    0    0  0.17431102603E+04 -0.13970535154E+04  0.18119217837E+04  0.29507732311E+04  0.65864270000E+03 0. -1.
    8880022    1    1    2    0    0 -0.17431102603E+04  0.13970535154E+04 -0.41775632540E+03  0.22777409653E+04  0.15294330000E+03 0.  0.
<mgrwt>
<rscale>  0 0.23061549E+04</rscale>
<asrwt>0</asrwt>
<pdfrwt beam="1">  1        1 0.50943690E+00 0.23289487E+04</pdfrwt>
<pdfrwt beam="2">  1       -1 0.29494990E+00 0.23289487E+04</pdfrwt>
<totfact> 0.10656020E-02</totfact>
</mgrwt>
</event>
<event>
 4    1  0.3712574E-007  0.1093091E+04  0.7818608E-02  0.9268788E-01
         -1   -1    0    0    0  501 -0.00000000000E+00  0.00000000000E+00  0.24083221230E+04  0.24083221230E+04  0.50400000000E-02 0.  1.
          1   -1    0    0  501    0  0.00000000000E+00 -0.00000000000E+00 -0.89773700229E+03  0.89773700231E+03  0.50400000000E-02 0. -1.
    8880023    1    1    2    0    0 -0.86890351089E+03  0.77741577387E+02  0.20109322529E+04  0.22888197387E+04  0.65864270000E+03 0.  0.
    8880022    1    1    2    0    0  0.86890351089E+03 -0.77741577387E+02 -0.50034713218E+03  0.10172393867E+04  0.15294330000E+03 0.  0.
<mgrwt>
<rscale>  0 0.10370778E+04</rscale>
<asrwt>0</asrwt>
<pdfrwt beam="1">  1        1 0.13811339E+00 0.10930907E+04</pdfrwt>
<pdfrwt beam="2">  1       -1 0.37051109E+00 0.10930907E+04</pdfrwt>
<totfact> 0.20866652E-01</totfact>
</mgrwt>
</event>
<event>
 4    1  0.3712574E-007  0.6808063E+03  0.7818608E-02  0.1008871E+00
         -1   -1    0    0    0  501 -0.00000000000E+00  0.00000000000E+00  0.77081740061E+03  0.77081740063E+03  0.50400000000E-02 0.  1.
          1   -1    0    0  501    0  0.00000000000E+00 -0.00000000000E+00 -0.51471987802E+03  0.51471987805E+03  0.50400000000E-02 0. -1.
    8880023    1    1    2    0    0 -0.16025030954E+03  0.63299155376E+02  0.57567592608E+03  0.89157160279E+03  0.65864270000E+03 0.  1.
    8880022    1    1    2    0    0  0.16025030954E+03 -0.63299155376E+02 -0.31957840349E+03  0.39396567588E+03  0.15294330000E+03 0.  0.
<mgrwt>
<rscale>  0 0.51925726E+03</rscale>
<asrwt>0</asrwt>
<pdfrwt beam="1">  1        1 0.79187674E-01 0.68080625E+03</pdfrwt>
<pdfrwt beam="2">  1       -1 0.11858729E+00 0.68080625E+03</pdfrwt>
<totfact> 0.27991684E+01</totfact>
</mgrwt>
</event>
<event>
 4    1  0.3712574E-007  0.7008945E+03  0.7818608E-02  0.9993511E-01
         -1   -1    0    0    0  501 -0.00000000000E+00  0.00000000000E+00  0.22163038086E+03  0.22163038091E+03  0.50400000000E-02 0.  1.
          1   -1    0    0  501    0  0.00000000000E+00 -0.00000000000E+00 -0.10969061761E+04  0.10969061762E+04  0.50400000000E-02 0. -1.
    8880023    1    1    2    0    0  0.12004724695E+03  0.20744033614E+03 -0.64801870751E+03  0.95455816277E+03  0.65864270000E+03 0.  0.
    8880022    1    1    2    0    0 -0.12004724695E+03 -0.20744033614E+03 -0.22725708777E+03  0.36397839430E+03  0.15294330000E+03 0.  1.
<mgrwt>
<rscale>  0 0.55935697E+03</rscale>
<asrwt>0</asrwt>
<pdfrwt beam="1">  1        1 0.16875479E+00 0.70089446E+03</pdfrwt>
<pdfrwt beam="2">  1       -1 0.34096982E-01 0.70089446E+03</pdfrwt>
<totfact> 0.10607704E+02</totfact>
</mgrwt>
</event>
<event>
 4    1  0.3712574E-007  0.6895802E+03  0.7818608E-02  0.1004353E+00
          1   -1    0    0  501    0  0.00000000000E+00  0.00000000000E+00  0.20297263371E+04  0.20297263371E+04  0.50400000000E-02 0. -1.
         -1   -1    0    0    0  501 -0.00000000000E+00 -0.00000000000E+00 -0.41897305241E+03  0.41897305244E+03  0.50400000000E-02 0.  1.
    8880023    1    1    2    0    0 -0.20408836350E+03 -0.76540988235E+01 -0.11939347153E+03  0.69983973355E+03  0.65864270000E+03 0.  1.
    8880022    1    1    2    0    0  0.20408836350E+03  0.76540988235E+01  0.17301467562E+04  0.17488596560E+04  0.15294330000E+03 0.  0.
<mgrwt>
<rscale>  0 0.53782146E+03</rscale>
<asrwt>0</asrwt>
<pdfrwt beam="1">  1        1 0.31226559E+00 0.68958020E+03</pdfrwt>
<pdfrwt beam="2">  1       -1 0.64457393E-01 0.68958020E+03</pdfrwt>
<totfact> 0.73547291E+00</totfact>
</mgrwt>
</event>
<event>
 4    1  0.3712574E-007  0.9380781E+03  0.7818608E-02  0.9467479E-01
          1   -1    0    0  501    0  0.00000000000E+00  0.00000000000E+00  0.59621619271E+03  0.59621619274E+03  0.50400000000E-02 0. -1.
         -1   -1    0    0    0  501 -0.00000000000E+00 -0.00000000000E+00 -0.12531423357E+04  0.12531423357E+04  0.50400000000E-02 0.  1.
    8880023    1    1    2    0    0 -0.57905140392E+03  0.33298607109E+03 -0.68811327314E+03  0.11633960353E+04  0.65864270000E+03 0.  0.
    8880022    1    1    2    0    0  0.57905140392E+03 -0.33298607109E+03  0.31187130179E+02  0.68596249316E+03  0.15294330000E+03 0.  0.
<mgrwt>
<rscale>  0 0.86724539E+03</rscale>
<asrwt>0</asrwt>
<pdfrwt beam="1">  1        1 0.91725568E-01 0.93807807E+03</pdfrwt>
<pdfrwt beam="2">  1       -1 0.19279113E+00 0.93807807E+03</pdfrwt>
<totfact> 0.59003080E+00</totfact>
</mgrwt>
</event>
<event>
 4    1  0.3712574E-007  0.7303375E+03  0.7818608E-02  0.9889044E-01
          1   -1    0    0  501    0  0.00000000000E+00  0.00000000000E+00  0.76725700996E+03  0.76725700998E+03  0.50400000000E-02 0. -1.
         -1   -1    0    0    0  501 -0.00000000000E+00 -0.00000000000E+00 -0.99966530877E+03  0.99966530878E+03  0.50400000000E-02 0.  1.
    8880023    1    1    2    0    0 -0.71119416249E+01 -0.31548702535E+03 -0.81035788273E+03  0.10909045546E+04  0.65864270000E+03 0.  1.
    8880022    1    1    2    0    0  0.71119416249E+01  0.31548702535E+03  0.57794958393E+03  0.67601776416E+03  0.15294330000E+03 0.  0.
<mgrwt>
<rscale>  0 0.60795228E+03</rscale>
<asrwt>0</asrwt>
<pdfrwt beam="1">  1        1 0.11803954E+00 0.73033749E+03</pdfrwt>
<pdfrwt beam="2">  1       -1 0.15379466E+00 0.73033749E+03</pdfrwt>
<totfact> 0.79761653E+00</totfact>
</mgrwt>
</event>
<event>
 4    1  0.5066781E-007  0.1124957E+04  0.7818608E-02  0.9233766E-01
          1   -1    0    0  501    0  0.00000000000E+00  0.00000000000E+00  0.30874028136E+04  0.30874028136E+04  0.50400000000E-02 0. -1.
         -1   -1    0    0    0  501 -0.00000000000E+00 -0.00000000000E+00 -0.14344758141E+04  0.14344758141E+04  0.50400000000E-02 0.  1.
    8880023    1    1    2    0    0  0.63844518567E+03 -0.65123382503E+03 -0.11268856587E+04  0.15922937053E+04  0.65864270000E+03 0.  1.
    8880022    1    1    2    0    0 -0.63844518567E+03  0.65123382503E+03  0.27798126582E+04  0.29295849224E+04  0.15294330000E+03 0.  0.
<mgrwt>
<rscale>  0 0.10711607E+04</rscale>
<asrwt>0</asrwt>
<pdfrwt beam="1">  1        1 0.47498504E+00 0.11249569E+04</pdfrwt>
<pdfrwt beam="2">  1       -1 0.22068859E+00 0.11249569E+04</pdfrwt>
<totfact> 0.56532193E-02</totfact>
</mgrwt>
</event>
<event>
 4    1  0.3712574E-007  0.8166149E+03  0.7818608E-02  0.9675960E-01
          1   -1    0    0  501    0  0.00000000000E+00  0.00000000000E+00  0.72739785870E+03  0.72739785872E+03  0.50400000000E-02 0. -1.
         -1   -1    0    0    0  501 -0.00000000000E+00 -0.00000000000E+00 -0.16232125770E+04  0.16232125770E+04  0.50400000000E-02 0.  1.
    8880023    1    1    2    0    0  0.48253341694E+03  0.14532098500E+02 -0.14096968007E+04  0.16291423991E+04  0.65864270000E+03 0.  0.
    8880022    1    1    2    0    0 -0.48253341694E+03 -0.14532098500E+02  0.51388208236E+03  0.72146803667E+03  0.15294330000E+03 0.  0.
<mgrwt>
<rscale>  0 0.72466365E+03</rscale>
<asrwt>0</asrwt>
<pdfrwt beam="1">  1        1 0.11190736E+00 0.81661489E+03</pdfrwt>
<pdfrwt beam="2">  1       -1 0.24972501E+00 0.81661489E+03</pdfrwt>
<totfact> 0.18610752E+00</totfact>
</mgrwt>
</event>
<event>
 4    1  0.3712574E-007  0.6923969E+03  0.7818608E-02  0.1003034E+00
         -1   -1    0    0    0  501 -0.00000000000E+00  0.00000000000E+00  0.67700133317E+03  0.67700133319E+03  0.50400000000E-02 0.  1.
          1   -1    0    0  501    0  0.00000000000E+00 -0.00000000000E+00 -0.58951668398E+03  0.58951668400E+03  0.50400000000E-02 0. -1.
    8880023    1    1    2    0    0  0.24974875507E+02 -0.21208376543E+03  0.44486360909E+03  0.82299277331E+03  0.65864270000E+03 0.  1.
    8880022    1    1    2    0    0 -0.24974875507E+02  0.21208376543E+03 -0.35737895990E+03  0.44352524388E+03  0.15294330000E+03 0.  0.
<mgrwt>
<rscale>  0 0.54339855E+03</rscale>
<asrwt>0</asrwt>
<pdfrwt beam="1">  1        1 0.90694875E-01 0.69239691E+03</pdfrwt>
<pdfrwt beam="2">  1       -1 0.10415405E+00 0.69239691E+03</pdfrwt>
<totfact> 0.31398445E+01</totfact>
</mgrwt>
</event>
<event>
 4    1  0.3712574E-007  0.6676661E+03  0.7818608E-02  0.1017394E+00
          1   -1    0    0  501    0  0.00000000000E+00  0.00000000000E+00  0.75291198384E+03  0.75291198386E+03  0.50400000000E-02 0. -1.
         -1   -1    0    0    0  501 -0.00000000000E+00 -0.00000000000E+00 -0.29717540878E+03  0.29717540882E+03  0.50400000000E-02 0.  1.
    8880023    1    1    2    0    0 -0.10594769670E+03  0.27257363199E+02  0.13937238293E+03  0.68205772899E+03  0.65864270000E+03 0.  1.
    8880022    1    1    2    0    0  0.10594769670E+03 -0.27257363199E+02  0.31636419213E+03  0.36802966369E+03  0.15294330000E+03 0.  0.
<mgrwt>
<rscale>  0 0.48638798E+03</rscale>
<asrwt>0</asrwt>
<pdfrwt beam="1">  1        1 0.11583261E+00 0.66766615E+03</pdfrwt>
<pdfrwt beam="2">  1       -1 0.45719294E-01 0.66766615E+03</pdfrwt>
<totfact> 0.11845417E+02</totfact>
</mgrwt>
</event>
<event>
 4    1  0.3712574E-007  0.7299382E+03  0.7818608E-02  0.9890290E-01
          1   -1    0    0  501    0  0.00000000000E+00  0.00000000000E+00  0.57362937374E+03  0.57362937376E+03  0.50400000000E-02 0. -1.
         -1   -1    0    0    0  501 -0.00000000000E+00 -0.00000000000E+00 -0.53384655250E+03  0.53384655253E+03  0.50400000000E-02 0.  1.
    8880023    1    1    2    0    0 -0.31397923518E+03 -0.20409852872E+02 -0.87570329024E+02  0.73517228661E+03  0.65864270000E+03 0.  1.
    8880022    1    1    2    0    0  0.31397923518E+03  0.20409852872E+02  0.12735315026E+03  0.37230363967E+03  0.15294330000E+03 0.  1.
<mgrwt>
<rscale>  0 0.60734200E+03</rscale>
<asrwt>0</asrwt>
<pdfrwt beam="1">  1        1 0.88250672E-01 0.72993817E+03</pdfrwt>
<pdfrwt beam="2">  1       -1 0.82130239E-01 0.72993817E+03</pdfrwt>
<totfact> 0.55112985E+01</totfact>
</mgrwt>
</event>
<event>
 4    1  0.3712574E-007  0.8171344E+03  0.7818608E-02  0.9674903E-01
          1   -1    0    0  501    0  0.00000000000E+00  0.00000000000E+00  0.19758978622E+04  0.19758978622E+04  0.50400000000E-02 0. -1.
         -1   -1    0    0    0  501 -0.00000000000E+00 -0.00000000000E+00 -0.29996069626E+03  0.29996069631E+03  0.50400000000E-02 0.  1.
    8880023    1    1    2    0    0 -0.40348558386E+03 -0.26664162817E+03  0.41448870146E+03  0.91624749067E+03  0.65864270000E+03 0.  1.
    8880022    1    1    2    0    0  0.40348558386E+03  0.26664162817E+03  0.12614484645E+04  0.13596110679E+04  0.15294330000E+03 0.  0.
<mgrwt>
<rscale>  0 0.72530885E+03</rscale>
<asrwt>0</asrwt>
<pdfrwt beam="1">  1        1 0.30398428E+00 0.81713437E+03</pdfrwt>
<pdfrwt beam="2">  1       -1 0.46147800E-01 0.81713437E+03</pdfrwt>
<totfact> 0.14931862E+01</totfact>
</mgrwt>
</event>
<event>
 4    1  0.3712574E-007  0.7203522E+03  0.7818608E-02  0.9921396E-01
          1   -1    0    0  501    0  0.00000000000E+00  0.00000000000E+00  0.11497400498E+04  0.11497400498E+04  0.50400000000E-02 0. -1.
         -1   -1    0    0    0  501 -0.00000000000E+00 -0.00000000000E+00 -0.30884121650E+03  0.30884121655E+03  0.50400000000E-02 0.  1.
    8880023    1    1    2    0    0 -0.18846806033E+03 -0.22265855237E+03  0.21574635398E+03  0.75196657920E+03  0.65864270000E+03 0.  1.
    8880022    1    1    2    0    0  0.18846806033E+03  0.22265855237E+03  0.62515247933E+03  0.70661468718E+03  0.15294330000E+03 0.  0.
<mgrwt>
<rscale>  0 0.59235453E+03</rscale>
<asrwt>0</asrwt>
<pdfrwt beam="1">  1        1 0.17688308E+00 0.72035217E+03</pdfrwt>
<pdfrwt beam="2">  1       -1 0.47514034E-01 0.72035217E+03</pdfrwt>
<totfact> 0.52891686E+01</totfact>
</mgrwt>
</event>
<event>
 4    1  0.3712574E-007  0.7476861E+03  0.7818608E-02  0.9838098E-01
         -1   -1    0    0    0  501 -0.00000000000E+00  0.00000000000E+00  0.66620026333E+03  0.66620026335E+03  0.50400000000E-02 0.  1.
          1   -1    0    0  501    0  0.00000000000E+00 -0.00000000000E+00 -0.64510922760E+03  0.64510922762E+03  0.50400000000E-02 0. -1.
    8880023    1    1    2    0    0  0.10588048668E+02 -0.35371197201E+03  0.33003127472E+03  0.81728520999E+03  0.65864270000E+03 0.  1.
    8880022    1    1    2    0    0 -0.10588048668E+02  0.35371197201E+03 -0.30894023899E+03  0.49402428098E+03  0.15294330000E+03 0.  1.
<mgrwt>
<rscale>  0 0.63357442E+03</rscale>
<asrwt>0</asrwt>
<pdfrwt beam="1">  1        1 0.99247574E-01 0.74768608E+03</pdfrwt>
<pdfrwt beam="2">  1       -1 0.10249235E+00 0.74768608E+03</pdfrwt>
<totfact> 0.28432756E+01</totfact>
</mgrwt>
</event>
<event>
 4    1  0.3712574E-007  0.7718584E+03  0.7818608E-02  0.9775321E-01
         -1   -1    0    0    0  501 -0.00000000000E+00  0.00000000000E+00  0.14562572571E+04  0.14562572571E+04  0.50400000000E-02 0.  1.
          1   -1    0    0  501    0  0.00000000000E+00 -0.00000000000E+00 -0.35501636833E+03  0.35501636837E+03  0.50400000000E-02 0. -1.
    8880023    1    1    2    0    0  0.37012628011E+03  0.15799280729E+03  0.11424873132E+04  0.13787830350E+04  0.65864270000E+03 0.  1.
    8880022    1    1    2    0    0 -0.37012628011E+03 -0.15799280729E+03 -0.41246424398E+02  0.43249059056E+03  0.15294330000E+03 0.  0.
<mgrwt>
<rscale>  0 0.66703923E+03</rscale>
<asrwt>0</asrwt>
<pdfrwt beam="1">  1        1 0.54617903E-01 0.77185840E+03</pdfrwt>
<pdfrwt beam="2">  1       -1 0.22403958E+00 0.77185840E+03</pdfrwt>
<totfact> 0.74999404E+00</totfact>
</mgrwt>
</event>
<event>
 4    1  0.3712574E-007  0.7180130E+03  0.7818608E-02  0.9929367E-01
         -1   -1    0    0    0  501 -0.00000000000E+00  0.00000000000E+00  0.28198241398E+03  0.28198241403E+03  0.50400000000E-02 0.  1.
          1   -1    0    0  501    0  0.00000000000E+00 -0.00000000000E+00 -0.12197646594E+04  0.12197646594E+04  0.50400000000E-02 0. -1.
    8880023    1    1    2    0    0 -0.21970055445E+03 -0.18293207149E+03 -0.28429526372E+03  0.77224768025E+03  0.65864270000E+03 0.  1.
    8880022    1    1    2    0    0  0.21970055445E+03  0.18293207149E+03 -0.65348698167E+03  0.72949939317E+03  0.15294330000E+03 0. -1.
<mgrwt>
<rscale>  0 0.58858886E+03</rscale>
<asrwt>0</asrwt>
<pdfrwt beam="1">  1        1 0.18765610E+00 0.71801301E+03</pdfrwt>
<pdfrwt beam="2">  1       -1 0.43381911E-01 0.71801301E+03</pdfrwt>
<totfact> 0.55728526E+01</totfact>
</mgrwt>
</event>
<event>
 4    1  0.3712574E-007  0.7506144E+03  0.7818608E-02  0.9830041E-01
         -1   -1    0    0    0  501 -0.00000000000E+00  0.00000000000E+00  0.25291277798E+03  0.25291277803E+03  0.50400000000E-02 0.  1.
          1   -1    0    0  501    0  0.00000000000E+00 -0.00000000000E+00 -0.14021158877E+04  0.14021158877E+04  0.50400000000E-02 0. -1.
    8880023    1    1    2    0    0  0.35963916056E+03 -0.16475972623E+02 -0.51640791333E+03  0.91109775694E+03  0.65864270000E+03 0.  1.
    8880022    1    1    2    0    0 -0.35963916056E+03  0.16475972623E+02 -0.63279519636E+03  0.74393090878E+03  0.15294330000E+03 0.  0.
<mgrwt>
<rscale>  0 0.63774978E+03</rscale>
<asrwt>0</asrwt>
<pdfrwt beam="1">  1        1 0.21571013E+00 0.75061441E+03</pdfrwt>
<pdfrwt beam="2">  1       -1 0.38909659E-01 0.75061441E+03</pdfrwt>
<totfact> 0.50377353E+01</totfact>
</mgrwt>
</event>
<event>
 4    1  0.3712574E-007  0.7905614E+03  0.7818608E-02  0.9731589E-01
          1   -1    0    0  501    0  0.00000000000E+00  0.00000000000E+00  0.18665286347E+04  0.18665286347E+04  0.50400000000E-02 0. -1.
         -1   -1    0    0    0  501 -0.00000000000E+00 -0.00000000000E+00 -0.32884303636E+03  0.32884303640E+03  0.50400000000E-02 0.  1.
    8880023    1    1    2    0    0  0.42928429954E+03 -0.83018523626E+02  0.25352102822E+03  0.83021696147E+03  0.65864270000E+03 0.  1.
    8880022    1    1    2    0    0 -0.42928429954E+03  0.83018523626E+02  0.12841645701E+04  0.13651547096E+04  0.15294330000E+03 0.  0.
<mgrwt>
<rscale>  0 0.69166771E+03</rscale>
<asrwt>0</asrwt>
<pdfrwt beam="1">  1        1 0.28715825E+00 0.79056138E+03</pdfrwt>
<pdfrwt beam="2">  1       -1 0.50591236E-01 0.79056138E+03</pdfrwt>
<totfact> 0.14917602E+01</totfact>
</mgrwt>
</event>
<event>
 4    1  0.3712574E-007  0.7524926E+03  0.7818608E-02  0.9824946E-01
          1   -1    0    0  501    0  0.00000000000E+00  0.00000000000E+00  0.22391837047E+04  0.22391837047E+04  0.50400000000E-02 0. -1.
         -1   -1    0    0    0  501 -0.00000000000E+00 -0.00000000000E+00 -0.25262254644E+03  0.25262254649E+03  0.50400000000E-02 0.  1.
    8880023    1    1    2    0    0  0.35159479885E+03  0.93893971623E+02  0.39075299811E+03  0.84789922295E+03  0.65864270000E+03 0.  1.
    8880022    1    1    2    0    0 -0.35159479885E+03 -0.93893971623E+02  0.15958081601E+04  0.16439070282E+04  0.15294330000E+03 0.  0.
<mgrwt>
<rscale>  0 0.64040823E+03</rscale>
<asrwt>0</asrwt>
<pdfrwt beam="1">  1        1 0.34448980E+00 0.75249265E+03</pdfrwt>
<pdfrwt beam="2">  1       -1 0.38865007E-01 0.75249265E+03</pdfrwt>
<totfact> 0.13764405E+01</totfact>
</mgrwt>
</event>
<event>
 4    1  0.3712574E-007  0.6883614E+03  0.7818608E-02  0.1004941E+00
         -1   -1    0    0    0  501 -0.00000000000E+00  0.00000000000E+00  0.45086126964E+03  0.45086126967E+03  0.50400000000E-02 0.  1.
          1   -1    0    0  501    0  0.00000000000E+00 -0.00000000000E+00 -0.52536075839E+03  0.52536075842E+03  0.50400000000E-02 0. -1.
    8880023    1    1    2    0    0 -0.74748390344E+02 -0.18559048256E+03  0.59544055761E+02  0.69093187068E+03  0.65864270000E+03 0.  1.
    8880022    1    1    2    0    0  0.74748390344E+02  0.18559048256E+03 -0.13404354451E+03  0.28529015741E+03  0.15294330000E+03 0. -1.
<mgrwt>
<rscale>  0 0.53535645E+03</rscale>
<asrwt>0</asrwt>
<pdfrwt beam="1">  1        1 0.80824732E-01 0.68836136E+03</pdfrwt>
<pdfrwt beam="2">  1       -1 0.69363272E-01 0.68836136E+03</pdfrwt>
<totfact> 0.88996538E+01</totfact>
</mgrwt>
</event>
<event>
 4    1  0.3712574E-007  0.6987526E+03  0.7818608E-02  0.1000242E+00
         -1   -1    0    0    0  501 -0.00000000000E+00  0.00000000000E+00  0.90182100813E+03  0.90182100815E+03  0.50400000000E-02 0.  1.
          1   -1    0    0  501    0  0.00000000000E+00 -0.00000000000E+00 -0.51324674032E+03  0.51324674035E+03  0.50400000000E-02 0. -1.
    8880023    1    1    2    0    0  0.64582445604E+02  0.22421880874E+03  0.70541056149E+03  0.99290444303E+03  0.65864270000E+03 0.  1.
    8880022    1    1    2    0    0 -0.64582445604E+02 -0.22421880874E+03 -0.31683629368E+03  0.42216330546E+03  0.15294330000E+03 0.  0.
<mgrwt>
<rscale>  0 0.55544437E+03</rscale>
<asrwt>0</asrwt>
<pdfrwt beam="1">  1        1 0.78961038E-01 0.69875258E+03</pdfrwt>
<pdfrwt beam="2">  1       -1 0.13874169E+00 0.69875258E+03</pdfrwt>
<totfact> 0.18937669E+01</totfact>
</mgrwt>
</event>
<event>
 4    1  0.3712574E-007  0.6901930E+03  0.7818608E-02  0.1004061E+00
          1   -1    0    0  501    0  0.00000000000E+00  0.00000000000E+00  0.21830337350E+04  0.21830337350E+04  0.50400000000E-02 0. -1.
         -1   -1    0    0    0  501 -0.00000000000E+00 -0.00000000000E+00 -0.24146857978E+03  0.24146857984E+03  0.50400000000E-02 0.  1.
    8880023    1    1    2    0    0 -0.34080129729E+02 -0.20345683202E+03  0.28264767203E+03  0.74582575077E+03  0.65864270000E+03 0.  1.
    8880022    1    1    2    0    0  0.34080129729E+02  0.20345683202E+03  0.16589174832E+04  0.16786765641E+04  0.15294330000E+03 0.  0.
<mgrwt>
<rscale>  0 0.53904861E+03</rscale>
<asrwt>0</asrwt>
<pdfrwt beam="1">  1        1 0.33585135E+00 0.69019298E+03</pdfrwt>
<pdfrwt beam="2">  1       -1 0.37149012E-01 0.69019298E+03</pdfrwt>
<totfact> 0.16444102E+01</totfact>
</mgrwt>
</event>
<event>
 4    1  0.3712574E-007  0.7047339E+03  0.7818608E-02  0.9978102E-01
         -1   -1    0    0    0  501 -0.00000000000E+00  0.00000000000E+00  0.53216415856E+03  0.53216415859E+03  0.50400000000E-02 0.  1.
          1   -1    0    0  501    0  0.00000000000E+00 -0.00000000000E+00 -0.58614716332E+03  0.58614716334E+03  0.50400000000E-02 0. -1.
    8880023    1    1    2    0    0 -0.23685770852E+03 -0.82086188897E+02  0.19728903462E+03  0.73182845390E+03  0.65864270000E+03 0.  0.
    8880022    1    1    2    0    0  0.23685770852E+03  0.82086188897E+02 -0.25127203937E+03  0.38648286803E+03  0.15294330000E+03 0.  1.
<mgrwt>
<rscale>  0 0.56620937E+03</rscale>
<asrwt>0</asrwt>
<pdfrwt beam="1">  1        1 0.90176487E-01 0.70473394E+03</pdfrwt>
<pdfrwt beam="2">  1       -1 0.81871409E-01 0.70473394E+03</pdfrwt>
<totfact> 0.53926735E+01</totfact>
</mgrwt>
</event>
<event>
 4    1  0.3712574E-007  0.8555522E+03  0.7818608E-02  0.9601525E-01
          1   -1    0    0  501    0  0.00000000000E+00  0.00000000000E+00  0.14539032354E+04  0.14539032354E+04  0.50400000000E-02 0. -1.
         -1   -1    0    0    0  501 -0.00000000000E+00 -0.00000000000E+00 -0.94799290463E+03  0.94799290464E+03  0.50400000000E-02 0.  1.
    8880023    1    1    2    0    0  0.38608356770E+02 -0.54467307858E+03 -0.67639870644E+03  0.10906350371E+04  0.65864270000E+03 0.  0.
    8880022    1    1    2    0    0 -0.38608356770E+02  0.54467307858E+03  0.11823090372E+04  0.13112611030E+04  0.15294330000E+03 0.  0.
<mgrwt>
<rscale>  0 0.77195347E+03</rscale>
<asrwt>0</asrwt>
<pdfrwt beam="1">  1        1 0.22367742E+00 0.85555220E+03</pdfrwt>
<pdfrwt beam="2">  1       -1 0.14584506E+00 0.85555220E+03</pdfrwt>
<totfact> 0.27191721E+00</totfact>
</mgrwt>
</event>
<event>
 4    1  0.3712574E-007  0.1215792E+04  0.7818608E-02  0.9141922E-01
         -1   -1    0    0    0  501 -0.00000000000E+00  0.00000000000E+00  0.87592407482E+03  0.87592407483E+03  0.50400000000E-02 0.  1.
          1   -1    0    0  501    0  0.00000000000E+00 -0.00000000000E+00 -0.23092913585E+04  0.23092913585E+04  0.50400000000E-02 0. -1.
    8880023    1    1    2    0    0 -0.92337854020E+03  0.43784873405E+03 -0.17260484844E+04  0.21112538974E+04  0.65864270000E+03 0. -1.
    8880022    1    1    2    0    0  0.92337854020E+03 -0.43784873405E+03  0.29268120073E+03  0.10739615359E+04  0.15294330000E+03 0.  0.
<mgrwt>
<rscale>  0 0.11673528E+04</rscale>
<asrwt>0</asrwt>
<pdfrwt beam="1">  1        1 0.35527559E+00 0.12157918E+04</pdfrwt>
<pdfrwt beam="2">  1       -1 0.13475755E+00 0.12157918E+04</pdfrwt>
<totfact> 0.83502750E-01</totfact>
</mgrwt>
</event>
<event>
 4    1  0.3712574E-007  0.6824621E+03  0.7818608E-02  0.1007964E+00
         -1   -1    0    0    0  501 -0.00000000000E+00  0.00000000000E+00  0.67730335890E+03  0.67730335891E+03  0.50400000000E-02 0.  1.
          1   -1    0    0  501    0  0.00000000000E+00 -0.00000000000E+00 -0.95930776419E+03  0.95930776420E+03  0.50400000000E-02 0. -1.
    8880023    1    1    2    0    0 -0.94198763697E+02 -0.15189091333E+03  0.48310969803E+03  0.83615156714E+03  0.65864270000E+03 0.  1.
    8880022    1    1    2    0    0  0.94198763697E+02  0.15189091333E+03 -0.76511410333E+03  0.80045955598E+03  0.15294330000E+03 0.  0.
<mgrwt>
<rscale>  0 0.52291941E+03</rscale>
<asrwt>0</asrwt>
<pdfrwt beam="1">  1        1 0.14758581E+00 0.68246206E+03</pdfrwt>
<pdfrwt beam="2">  1       -1 0.10420052E+00 0.68246206E+03</pdfrwt>
<totfact> 0.14681853E+01</totfact>
</mgrwt>
</event>
<event>
 4    1  0.3712574E-007  0.9311853E+03  0.7818608E-02  0.9477717E-01
         -1   -1    0    0    0  501 -0.00000000000E+00  0.00000000000E+00  0.11663013202E+04  0.11663013202E+04  0.50400000000E-02 0.  1.
          1   -1    0    0  501    0  0.00000000000E+00 -0.00000000000E+00 -0.14098251000E+04  0.14098251000E+04  0.50400000000E-02 0. -1.
    8880023    1    1    2    0    0 -0.63162585601E+03 -0.18532290110E+03  0.86949056846E+03  0.12740172112E+04  0.65864270000E+03 0.  1.
    8880022    1    1    2    0    0  0.63162585601E+03  0.18532290110E+03 -0.11130143482E+04  0.13021092089E+04  0.15294330000E+03 0.  0.
<mgrwt>
<rscale>  0 0.85946750E+03</rscale>
<asrwt>0</asrwt>
<pdfrwt beam="1">  1        1 0.21689617E+00 0.93118527E+03</pdfrwt>
<pdfrwt beam="2">  1       -1 0.17943097E+00 0.93118527E+03</pdfrwt>
<totfact> 0.16136435E+00</totfact>
</mgrwt>
</event>
<event>
 4    1  0.3712574E-007  0.1173733E+04  0.7818608E-02  0.9183088E-01
         -1   -1    0    0    0  501 -0.00000000000E+00  0.00000000000E+00  0.17455403957E+04  0.17455403957E+04  0.50400000000E-02 0.  1.
          1   -1    0    0  501    0  0.00000000000E+00 -0.00000000000E+00 -0.87550920929E+03  0.87550920931E+03  0.50400000000E-02 0. -1.
    8880023    1    1    2    0    0  0.87197207257E+03  0.42837295769E+03  0.11026550969E+04  0.16104338407E+04  0.65864270000E+03 0.  0.
    8880022    1    1    2    0    0 -0.87197207257E+03 -0.42837295769E+03 -0.23262391055E+03  0.10106157643E+04  0.15294330000E+03 0.  0.
<mgrwt>
<rscale>  0 0.11229701E+04</rscale>
<asrwt>0</asrwt>
<pdfrwt beam="1">  1        1 0.13469373E+00 0.11737329E+04</pdfrwt>
<pdfrwt beam="2">  1       -1 0.26854467E+00 0.11737329E+04</pdfrwt>
<totfact> 0.99387465E-01</totfact>
</mgrwt>
</event>
<event>
 4    1  0.3712574E-007  0.8159847E+03  0.7818608E-02  0.9677243E-01
         -1   -1    0    0    0  501 -0.00000000000E+00  0.00000000000E+00  0.69533065059E+03  0.69533065061E+03  0.50400000000E-02 0.  1.
          1   -1    0    0  501    0  0.00000000000E+00 -0.00000000000E+00 -0.19074833241E+04  0.19074833241E+04  0.50400000000E-02 0. -1.
    8880023    1    1    2    0    0 -0.36860682549E+03 -0.31008048616E+03  0.40325958008E+03  0.91019195497E+03  0.65864270000E+03 0.  1.
    8880022    1    1    2    0    0  0.36860682549E+03  0.31008048616E+03 -0.16154122536E+04  0.16926220197E+04  0.15294330000E+03 0.  0.
<mgrwt>
<rscale>  0 0.72388039E+03</rscale>
<asrwt>0</asrwt>
<pdfrwt beam="1">  1        1 0.29345897E+00 0.81598475E+03</pdfrwt>
<pdfrwt beam="2">  1       -1 0.10697395E+00 0.81598475E+03</pdfrwt>
<totfact> 0.29153422E+00</totfact>
</mgrwt>
</event>
<event>
 4    1  0.3712574E-007  0.1202729E+04  0.7818608E-02  0.9154474E-01
          1   -1    0    0  501    0  0.00000000000E+00  0.00000000000E+00  0.29493913402E+04  0.29493913402E+04  0.50400000000E-02 0. -1.
         -1   -1    0    0    0  501 -0.00000000000E+00 -0.00000000000E+00 -0.48325338533E+03  0.48325338536E+03  0.50400000000E-02 0.  1.
    8880023    1    1    2    0    0 -0.90109152868E+03  0.44808526448E+03  0.19506904414E+04  0.22916696428E+04  0.65864270000E+03 0.  0.
    8880022    1    1    2    0    0  0.90109152868E+03 -0.44808526448E+03  0.51544751346E+03  0.11409750828E+04  0.15294330000E+03 0.  0.
<mgrwt>
<rscale>  0 0.11535940E+04</rscale>
<asrwt>0</asrwt>
<pdfrwt beam="1">  1        1 0.45375252E+00 0.12027288E+04</pdfrwt>
<pdfrwt beam="2">  1       -1 0.74346674E-01 0.12027288E+04</pdfrwt>
<totfact> 0.11817837E+00</totfact>
</mgrwt>
</event>
<event>
 4    1  0.3712574E-007  0.6659693E+03  0.7818608E-02  0.1018734E+00
          1   -1    0    0  501    0  0.00000000000E+00  0.00000000000E+00  0.69577657622E+03  0.69577657624E+03  0.50400000000E-02 0. -1.
         -1   -1    0    0    0  501 -0.00000000000E+00 -0.00000000000E+00 -0.52767402556E+03  0.52767402559E+03  0.50400000000E-02 0.  1.
    8880023    1    1    2    0    0  0.23630851802E+02 -0.95637593783E+02 -0.29313712816E+03  0.72762940338E+03  0.65864270000E+03 0.  0.
    8880022    1    1    2    0    0 -0.23630851802E+02  0.95637593783E+02  0.46123967881E+03  0.49582119844E+03  0.15294330000E+03 0.  0.
<mgrwt>
<rscale>  0 0.48146380E+03</rscale>
<asrwt>0</asrwt>
<pdfrwt beam="1">  1        1 0.10704255E+00 0.66596935E+03</pdfrwt>
<pdfrwt beam="2">  1       -1 0.81180620E-01 0.66596935E+03</pdfrwt>
<totfact> 0.42888455E+01</totfact>
</mgrwt>
</event>
<event>
 4    1  0.3712574E-007  0.8258253E+03  0.7818608E-02  0.9657510E-01
         -1   -1    0    0    0  501 -0.00000000000E+00  0.00000000000E+00  0.33356981674E+03  0.33356981678E+03  0.50400000000E-02 0.  1.
          1   -1    0    0  501    0  0.00000000000E+00 -0.00000000000E+00 -0.29313272248E+04  0.29313272248E+04  0.50400000000E-02 0. -1.
    8880023    1    1    2    0    0  0.41129389954E+03  0.28109528489E+03 -0.25414707744E+03  0.86404755322E+03  0.65864270000E+03 0.  0.
    8880022    1    1    2    0    0 -0.41129389954E+03 -0.28109528489E+03 -0.23436103306E+04  0.24008494883E+04  0.15294330000E+03 0.  0.
<mgrwt>
<rscale>  0 0.73603953E+03</rscale>
<asrwt>0</asrwt>
<pdfrwt beam="1">  1        1 0.45097340E+00 0.82582531E+03</pdfrwt>
<pdfrwt beam="2">  1       -1 0.51318435E-01 0.82582531E+03</pdfrwt>
<totfact> 0.27040483E+00</totfact>
</mgrwt>
</event>
<event>
 4    1  0.3712574E-007  0.7481641E+03  0.7818608E-02  0.9836773E-01
          1   -1    0    0  501    0  0.00000000000E+00  0.00000000000E+00  0.65836507393E+03  0.65836507395E+03  0.50400000000E-02 0. -1.
         -1   -1    0    0    0  501 -0.00000000000E+00 -0.00000000000E+00 -0.61872784935E+03  0.61872784937E+03  0.50400000000E-02 0.  1.
    8880023    1    1    2    0    0 -0.23719810256E+03 -0.26396288419E+03  0.30539719707E+03  0.80809467164E+03  0.65864270000E+03 0. -1.
    8880022    1    1    2    0    0  0.23719810256E+03  0.26396288419E+03 -0.26575997249E+03  0.46899825168E+03  0.15294330000E+03 0.  0.
<mgrwt>
<rscale>  0 0.63425866E+03</rscale>
<asrwt>0</asrwt>
<pdfrwt beam="1">  1        1 0.10128693E+00 0.74816412E+03</pdfrwt>
<pdfrwt beam="2">  1       -1 0.95188900E-01 0.74816412E+03</pdfrwt>
<totfact> 0.32632498E+01</totfact>
</mgrwt>
</event>
<event>
 4    1  0.3712574E-007  0.8251668E+03  0.7818608E-02  0.9658811E-01
         -1   -1    0    0    0  501 -0.00000000000E+00  0.00000000000E+00  0.61642335644E+03  0.61642335646E+03  0.50400000000E-02 0.  1.
          1   -1    0    0  501    0  0.00000000000E+00 -0.00000000000E+00 -0.15976524466E+04  0.15976524466E+04  0.50400000000E-02 0. -1.
    8880023    1    1    2    0    0  0.42921404368E+03  0.25072958008E+03  0.26255973777E+03  0.86593177548E+03  0.65864270000E+03 0.  0.
    8880022    1    1    2    0    0 -0.42921404368E+03 -0.25072958008E+03 -0.12437888280E+04  0.13481440276E+04  0.15294330000E+03 0.  0.
<mgrwt>
<rscale>  0 0.73523053E+03</rscale>
<asrwt>0</asrwt>
<pdfrwt beam="1">  1        1 0.24579268E+00 0.82516679E+03</pdfrwt>
<pdfrwt beam="2">  1       -1 0.94834363E-01 0.82516679E+03</pdfrwt>
<totfact> 0.62024851E+00</totfact>
</mgrwt>
</event>
<event>
 4    1  0.3712574E-007  0.6962015E+03  0.7818608E-02  0.1001334E+00
         -1   -1    0    0    0  501 -0.00000000000E+00  0.00000000000E+00  0.46375442967E+03  0.46375442970E+03  0.50400000000E-02 0.  1.
          1   -1    0    0  501    0  0.00000000000E+00 -0.00000000000E+00 -0.11404945523E+04  0.11404945523E+04  0.50400000000E-02 0. -1.
    8880023    1    1    2    0    0 -0.91200342448E+02 -0.20632211324E+03  0.16837700888E+03  0.71627323017E+03  0.65864270000E+03 0.  1.
    8880022    1    1    2    0    0  0.91200342448E+02  0.20632211324E+03 -0.84511713153E+03  0.88797575186E+03  0.15294330000E+03 0.  0.
<mgrwt>
<rscale>  0 0.55069194E+03</rscale>
<asrwt>0</asrwt>
<pdfrwt beam="1">  1        1 0.17546070E+00 0.69620150E+03</pdfrwt>
<pdfrwt beam="2">  1       -1 0.71346836E-01 0.69620150E+03</pdfrwt>
<totfact> 0.24307536E+01</totfact>
</mgrwt>
</event>
<event>
 4    1  0.3712574E-007  0.7189831E+03  0.7818608E-02  0.9926042E-01
         -1   -1    0    0    0  501 -0.00000000000E+00  0.00000000000E+00  0.33896764008E+04  0.33896764008E+04  0.50400000000E-02 0.  1.
          1   -1    0    0  501    0  0.00000000000E+00 -0.00000000000E+00 -0.41570120302E+03  0.41570120305E+03  0.50400000000E-02 0. -1.
    8880023    1    1    2    0    0 -0.23276332697E+03 -0.17014038425E+03  0.32800589413E+04  0.33579343920E+04  0.65864270000E+03 0.  0.
    8880022    1    1    2    0    0  0.23276332697E+03  0.17014038425E+03 -0.30608374351E+03  0.44744321180E+03  0.15294330000E+03 0.  0.
<mgrwt>
<rscale>  0 0.59015621E+03</rscale>
<asrwt>0</asrwt>
<pdfrwt beam="1">  1        1 0.63954032E-01 0.71898312E+03</pdfrwt>
<pdfrwt beam="2">  1       -1 0.52148867E+00 0.71898312E+03</pdfrwt>
<totfact> 0.66346797E-02</totfact>
</mgrwt>
</event>
<event>
 4    1  0.3712574E-007  0.1373990E+04  0.7818608E-02  0.9004161E-01
          1   -1    0    0  501    0  0.00000000000E+00  0.00000000000E+00  0.18445943238E+04  0.18445943238E+04  0.50400000000E-02 0. -1.
         -1   -1    0    0    0  501 -0.00000000000E+00 -0.00000000000E+00 -0.16013346913E+04  0.16013346913E+04  0.50400000000E-02 0.  1.
    8880023    1    1    2    0    0 -0.11478505599E+04 -0.36942880301E+03 -0.10060117569E+04  0.17029117445E+04  0.65864270000E+03 0.  0.
    8880022    1    1    2    0    0  0.11478505599E+04  0.36942880301E+03  0.12492713894E+04  0.17430172706E+04  0.15294330000E+03 0.  0.
<mgrwt>
<rscale>  0 0.13325272E+04</rscale>
<asrwt>0</asrwt>
<pdfrwt beam="1">  1        1 0.28378374E+00 0.13739901E+04</pdfrwt>
<pdfrwt beam="2">  1       -1 0.24635918E+00 0.13739901E+04</pdfrwt>
<totfact> 0.26825643E-01</totfact>
</mgrwt>
</event>
<event>
 4    1  0.3712574E-007  0.7543956E+03  0.7818608E-02  0.9819839E-01
         -1   -1    0    0    0  501 -0.00000000000E+00  0.00000000000E+00  0.77864664229E+03  0.77864664231E+03  0.50400000000E-02 0.  1.
          1   -1    0    0  501    0  0.00000000000E+00 -0.00000000000E+00 -0.57328444259E+03  0.57328444261E+03  0.50400000000E-02 0. -1.
    8880023    1    1    2    0    0  0.11898092925E+03  0.34806034729E+03  0.45578592589E+03  0.88139292225E+03  0.65864270000E+03 0.  0.
    8880022    1    1    2    0    0 -0.11898092925E+03 -0.34806034729E+03 -0.25042372619E+03  0.47053816268E+03  0.15294330000E+03 0.  0.
<mgrwt>
<rscale>  0 0.64308659E+03</rscale>
<asrwt>0</asrwt>
<pdfrwt beam="1">  1        1 0.88197606E-01 0.75439557E+03</pdfrwt>
<pdfrwt beam="2">  1       -1 0.11979179E+00 0.75439557E+03</pdfrwt>
<totfact> 0.23304170E+01</totfact>
</mgrwt>
</event>
<event>
 4    1  0.3712574E-007  0.7660460E+03  0.7818608E-02  0.9789699E-01
          1   -1    0    0  501    0  0.00000000000E+00  0.00000000000E+00  0.18088027965E+04  0.18088027965E+04  0.50400000000E-02 0. -1.
         -1   -1    0    0    0  501 -0.00000000000E+00 -0.00000000000E+00 -0.30356959124E+03  0.30356959128E+03  0.50400000000E-02 0.  1.
    8880023    1    1    2    0    0 -0.15478511121E+03 -0.35924620953E+03  0.27745993681E+03  0.81474566124E+03  0.65864270000E+03 0.  1.
    8880022    1    1    2    0    0  0.15478511121E+03  0.35924620953E+03  0.12277732685E+04  0.12976267265E+04  0.15294330000E+03 0.  0.
<mgrwt>
<rscale>  0 0.65918285E+03</rscale>
<asrwt>0</asrwt>
<pdfrwt beam="1">  1        1 0.27827736E+00 0.76604600E+03</pdfrwt>
<pdfrwt beam="2">  1       -1 0.46703013E-01 0.76604600E+03</pdfrwt>
<totfact> 0.19024083E+01</totfact>
</mgrwt>
</event>
<event>
 4    1  0.3712574E-007  0.6836603E+03  0.7818608E-02  0.1007325E+00
         -1   -1    0    0    0  501 -0.00000000000E+00  0.00000000000E+00  0.16441702650E+03  0.16441702658E+03  0.50400000000E-02 0.  1.
          1   -1    0    0  501    0  0.00000000000E+00 -0.00000000000E+00 -0.15213373969E+04  0.15213373969E+04  0.50400000000E-02 0. -1.
    8880023    1    1    2    0    0  0.10820523548E+03  0.14789462887E+03 -0.66466636232E+03  0.95350551844E+03  0.65864270000E+03 0.  0.
    8880022    1    1    2    0    0 -0.10820523548E+03 -0.14789462887E+03 -0.69225400808E+03  0.73224890506E+03  0.15294330000E+03 0.  0.
<mgrwt>
<rscale>  0 0.52551941E+03</rscale>
<asrwt>0</asrwt>
<pdfrwt beam="1">  1        1 0.23405190E+00 0.68366030E+03</pdfrwt>
<pdfrwt beam="2">  1       -1 0.25294928E-01 0.68366030E+03</pdfrwt>
<totfact> 0.89416204E+01</totfact>
</mgrwt>
</event>
<event>
 4    1  0.3712574E-007  0.7253704E+03  0.7818608E-02  0.9904816E-01
         -1   -1    0    0    0  501 -0.00000000000E+00  0.00000000000E+00  0.90841452112E+02  0.90841452252E+02  0.50400000000E-02 0.  1.
          1   -1    0    0  501    0  0.00000000000E+00 -0.00000000000E+00 -0.53286023846E+04  0.53286023846E+04  0.50400000000E-02 0. -1.
    8880023    1    1    2    0    0  0.26450196419E+03  0.14963508860E+03 -0.14994781300E+04  0.16657121052E+04  0.65864270000E+03 0.  1.
    8880022    1    1    2    0    0 -0.26450196419E+03 -0.14963508860E+03 -0.37382828026E+04  0.37537317317E+04  0.15294330000E+03 0.  0.
<mgrwt>
<rscale>  0 0.60028429E+03</rscale>
<asrwt>0</asrwt>
<pdfrwt beam="1">  1        1 0.81978474E+00 0.72537036E+03</pdfrwt>
<pdfrwt beam="2">  1       -1 0.13975612E-01 0.72537036E+03</pdfrwt>
<totfact> 0.13077622E-01</totfact>
</mgrwt>
</event>
<event>
 4    1  0.3712574E-007  0.1039847E+04  0.7818608E-02  0.9331187E-01
         -1   -1    0    0    0  501 -0.00000000000E+00  0.00000000000E+00  0.10239359125E+04  0.10239359125E+04  0.50400000000E-02 0.  1.
          1   -1    0    0  501    0  0.00000000000E+00 -0.00000000000E+00 -0.11145050749E+04  0.11145050750E+04  0.50400000000E-02 0. -1.
    8880023    1    1    2    0    0  0.11936472326E+03 -0.79575371955E+03  0.47488345383E+03  0.11431519673E+04  0.65864270000E+03 0.  1.
    8880022    1    1    2    0    0 -0.11936472326E+03  0.79575371955E+03 -0.56545261629E+03  0.99528902015E+03  0.15294330000E+03 0.  0.
<mgrwt>
<rscale>  0 0.97961722E+03</rscale>
<asrwt>0</asrwt>
<pdfrwt beam="1">  1        1 0.17146232E+00 0.10398472E+04</pdfrwt>
<pdfrwt beam="2">  1       -1 0.15752860E+00 0.10398472E+04</pdfrwt>
<totfact> 0.37670799E+00</totfact>
</mgrwt>
</event>
<event>
 4    1  0.3712574E-007  0.7052110E+03  0.7818608E-02  0.9976234E-01
          1   -1    0    0  501    0  0.00000000000E+00  0.00000000000E+00  0.11396446148E+04  0.11396446148E+04  0.50400000000E-02 0. -1.
         -1   -1    0    0    0  501 -0.00000000000E+00 -0.00000000000E+00 -0.64605350257E+03  0.64605350259E+03  0.50400000000E-02 0.  1.
    8880023    1    1    2    0    0  0.15490132233E+03  0.19879107194E+03 -0.42335603908E+03  0.82252832902E+03  0.65864270000E+03 0.  1.
    8880022    1    1    2    0    0 -0.15490132233E+03 -0.19879107194E+03  0.91694715135E+03  0.96316978842E+03  0.15294330000E+03 0.  0.
<mgrwt>
<rscale>  0 0.56704724E+03</rscale>
<asrwt>0</asrwt>
<pdfrwt beam="1">  1        1 0.17532994E+00 0.70521097E+03</pdfrwt>
<pdfrwt beam="2">  1       -1 0.99392847E-01 0.70521097E+03</pdfrwt>
<totfact> 0.11897962E+01</totfact>
</mgrwt>
</event>
<event>
 4    1  0.3712574E-007  0.6615345E+03  0.7818608E-02  0.1022637E+00
         -1   -1    0    0    0  501 -0.00000000000E+00  0.00000000000E+00  0.28401469850E+03  0.28401469855E+03  0.50400000000E-02 0.  1.
          1   -1    0    0  501    0  0.00000000000E+00 -0.00000000000E+00 -0.98415119308E+03  0.98415119309E+03  0.50400000000E-02 0. -1.
    8880023    1    1    2    0    0 -0.33576164283E+02  0.51868879568E+02 -0.12940144610E+03  0.67407171725E+03  0.65864270000E+03 0.  1.
    8880022    1    1    2    0    0  0.33576164283E+02 -0.51868879568E+02 -0.57073504848E+03  0.59409417439E+03  0.15294330000E+03 0.  0.
<mgrwt>
<rscale>  0 0.46747054E+03</rscale>
<asrwt>0</asrwt>
<pdfrwt beam="1">  1        1 0.15140787E+00 0.66153454E+03</pdfrwt>
<pdfrwt beam="2">  1       -1 0.43694570E-01 0.66153454E+03</pdfrwt>
<totfact> 0.82882721E+01</totfact>
</mgrwt>
</event>
<event>
 4    1  0.3712574E-007  0.7585378E+03  0.7818608E-02  0.9808908E-01
          1   -1    0    0  501    0  0.00000000000E+00  0.00000000000E+00  0.49355731602E+03  0.49355731605E+03  0.50400000000E-02 0. -1.
         -1   -1    0    0    0  501 -0.00000000000E+00 -0.00000000000E+00 -0.94602664236E+03  0.94602664237E+03  0.50400000000E-02 0.  1.
    8880023    1    1    2    0    0  0.37611699854E+03 -0.10262437434E+02 -0.63977921125E+03  0.99231898079E+03  0.65864270000E+03 0.  1.
    8880022    1    1    2    0    0 -0.37611699854E+03  0.10262437434E+02  0.18730988492E+03  0.44726497763E+03  0.15294330000E+03 0.  0.
<mgrwt>
<rscale>  0 0.64886679E+03</rscale>
<asrwt>0</asrwt>
<pdfrwt beam="1">  1        1 0.75931895E-01 0.75853775E+03</pdfrwt>
<pdfrwt beam="2">  1       -1 0.14554256E+00 0.75853775E+03</pdfrwt>
<totfact> 0.17511811E+01</totfact>
</mgrwt>
</event>
<event>
 4    1  0.3712574E-007  0.1124564E+04  0.7818608E-02  0.9234187E-01
          1   -1    0    0  501    0  0.00000000000E+00  0.00000000000E+00  0.62396500505E+03  0.62396500507E+03  0.50400000000E-02 0. -1.
         -1   -1    0    0    0  501 -0.00000000000E+00 -0.00000000000E+00 -0.29163134211E+04  0.29163134211E+04  0.50400000000E-02 0.  1.
    8880023    1    1    2    0    0  0.87016148096E+03 -0.27139183388E+03 -0.23593062808E+04  0.26136126077E+04  0.65864270000E+03 0.  0.
    8880022    1    1    2    0    0 -0.87016148096E+03  0.27139183388E+03  0.66957864731E+02  0.92666581846E+03  0.15294330000E+03 0.  0.
<mgrwt>
<rscale>  0 0.10707419E+04</rscale>
<asrwt>0</asrwt>
<pdfrwt beam="1">  1        1 0.95994618E-01 0.11245642E+04</pdfrwt>
<pdfrwt beam="2">  1       -1 0.44866359E+00 0.11245642E+04</pdfrwt>
<totfact> 0.10761326E-01</totfact>
</mgrwt>
</event>
<event>
 4    1  0.3712574E-007  0.6901994E+03  0.7818608E-02  0.1004058E+00
          1   -1    0    0  501    0  0.00000000000E+00  0.00000000000E+00  0.62713336099E+03  0.62713336101E+03  0.50400000000E-02 0. -1.
         -1   -1    0    0    0  501 -0.00000000000E+00 -0.00000000000E+00 -0.73839980439E+03  0.73839980440E+03  0.50400000000E-02 0.  1.
    8880023    1    1    2    0    0  0.17153886947E+03 -0.11462753264E+03 -0.53280204999E+03  0.87192504593E+03  0.65864270000E+03 0.  1.
    8880022    1    1    2    0    0 -0.17153886947E+03  0.11462753264E+03  0.42153560660E+03  0.49360811949E+03  0.15294330000E+03 0. -1.
<mgrwt>
<rscale>  0 0.53906151E+03</rscale>
<asrwt>0</asrwt>
<pdfrwt beam="1">  1        1 0.96482055E-01 0.69019944E+03</pdfrwt>
<pdfrwt beam="2">  1       -1 0.11359997E+00 0.69019944E+03</pdfrwt>
<totfact> 0.23437485E+01</totfact>
</mgrwt>
</event>
<event>
 4    1  0.3712574E-007  0.6854228E+03  0.7818608E-02  0.1006409E+00
         -1   -1    0    0    0  501 -0.00000000000E+00  0.00000000000E+00  0.12274893901E+04  0.12274893901E+04  0.50400000000E-02 0.  1.
          1   -1    0    0  501    0  0.00000000000E+00 -0.00000000000E+00 -0.93736600115E+03  0.93736600116E+03  0.50400000000E-02 0. -1.
    8880023    1    1    2    0    0 -0.11348555539E+03 -0.15203685001E+03  0.11127396425E+04  0.13069024039E+04  0.65864270000E+03 0.  1.
    8880022    1    1    2    0    0  0.11348555539E+03  0.15203685001E+03 -0.82261625352E+03  0.85795298741E+03  0.15294330000E+03 0.  0.
<mgrwt>
<rscale>  0 0.52927240E+03</rscale>
<asrwt>0</asrwt>
<pdfrwt beam="1">  1        1 0.14421015E+00 0.68542278E+03</pdfrwt>
<pdfrwt beam="2">  1       -1 0.18884452E+00 0.68542278E+03</pdfrwt>
<totfact> 0.32121794E+00</totfact>
</mgrwt>
</event>
<event>
 4    1  0.3712574E-007  0.7069941E+03  0.7818608E-02  0.9969337E-01
         -1   -1    0    0    0  501 -0.00000000000E+00  0.00000000000E+00  0.42651692066E+03  0.42651692069E+03  0.50400000000E-02 0.  1.
          1   -1    0    0  501    0  0.00000000000E+00 -0.00000000000E+00 -0.18676027630E+04  0.18676027630E+04  0.50400000000E-02 0. -1.
    8880023    1    1    2    0    0  0.18451392754E+03  0.17884373287E+03  0.10909330523E+03  0.71536146510E+03  0.65864270000E+03 0.  1.
    8880022    1    1    2    0    0 -0.18451392754E+03 -0.17884373287E+03 -0.15501791476E+04  0.15787582186E+04  0.15294330000E+03 0.  0.
<mgrwt>
<rscale>  0 0.57015439E+03</rscale>
<asrwt>0</asrwt>
<pdfrwt beam="1">  1        1 0.28732350E+00 0.70699411E+03</pdfrwt>
<pdfrwt beam="2">  1       -1 0.65617989E-01 0.70699411E+03</pdfrwt>
<totfact> 0.90752373E+00</totfact>
</mgrwt>
</event>
<event>
 4    1  0.3712574E-007  0.8279204E+03  0.7818608E-02  0.9653392E-01
         -1   -1    0    0    0  501 -0.00000000000E+00  0.00000000000E+00  0.41456367727E+03  0.41456367730E+03  0.50400000000E-02 0.  1.
          1   -1    0    0  501    0  0.00000000000E+00 -0.00000000000E+00 -0.16661831477E+04  0.16661831477E+04  0.50400000000E-02 0. -1.
    8880023    1    1    2    0    0 -0.46918609267E+03  0.17750022516E+03 -0.13135189551E+04  0.15526700136E+04  0.65864270000E+03 0. -1.
    8880022    1    1    2    0    0  0.46918609267E+03 -0.17750022516E+03  0.61899484693E+02  0.52807681137E+03  0.15294330000E+03 0.  0.
<mgrwt>
<rscale>  0 0.73860907E+03</rscale>
<asrwt>0</asrwt>
<pdfrwt beam="1">  1        1 0.25633587E+00 0.82792036E+03</pdfrwt>
<pdfrwt beam="2">  1       -1 0.63779028E-01 0.82792036E+03</pdfrwt>
<totfact> 0.12885434E+01</totfact>
</mgrwt>
</event>
<event>
 4    1  0.3712574E-007  0.7462384E+03  0.7818608E-02  0.9842134E-01
         -1   -1    0    0    0  501 -0.00000000000E+00  0.00000000000E+00  0.12784391929E+04  0.12784391929E+04  0.50400000000E-02 0.  1.
          1   -1    0    0  501    0  0.00000000000E+00 -0.00000000000E+00 -0.79147044508E+03  0.79147044509E+03  0.50400000000E-02 0. -1.
    8880023    1    1    2    0    0  0.31756161005E+03 -0.14905077588E+03  0.11107176765E+04  0.13381201266E+04  0.65864270000E+03 0.  1.
    8880022    1    1    2    0    0 -0.31756161005E+03  0.14905077588E+03 -0.62374892869E+03  0.73178951142E+03  0.15294330000E+03 0.  0.
<mgrwt>
<rscale>  0 0.63149589E+03</rscale>
<asrwt>0</asrwt>
<pdfrwt beam="1">  1        1 0.12176469E+00 0.74623838E+03</pdfrwt>
<pdfrwt beam="2">  1       -1 0.19668295E+00 0.74623838E+03</pdfrwt>
<totfact> 0.37086389E+00</totfact>
</mgrwt>
</event>
<event>
 4    1  0.3712574E-007  0.6742139E+03  0.7818608E-02  0.1012806E+00
         -1   -1    0    0    0  501 -0.00000000000E+00  0.00000000000E+00  0.34258135366E+03  0.34258135370E+03  0.50400000000E-02 0.  1.
          1   -1    0    0  501    0  0.00000000000E+00 -0.00000000000E+00 -0.25172018343E+04  0.25172018343E+04  0.50400000000E-02 0. -1.
    8880023    1    1    2    0    0 -0.89796875025E+02 -0.11265312500E+03  0.82543979822E+00  0.67421442654E+03  0.65864270000E+03 0.  1.
    8880022    1    1    2    0    0  0.89796875025E+02  0.11265312500E+03 -0.21754459204E+04  0.21855687614E+04  0.15294330000E+03 0.  0.
<mgrwt>
<rscale>  0 0.50374359E+03</rscale>
<asrwt>0</asrwt>
<pdfrwt beam="1">  1        1 0.38726181E+00 0.67421392E+03</pdfrwt>
<pdfrwt beam="2">  1       -1 0.52704825E-01 0.67421392E+03</pdfrwt>
<totfact> 0.51378823E+00</totfact>
</mgrwt>
</event>
<event>
 4    1  0.3712574E-007  0.7263163E+03  0.7818608E-02  0.9901766E-01
          1   -1    0    0  501    0  0.00000000000E+00  0.00000000000E+00  0.23014571348E+04  0.23014571348E+04  0.50400000000E-02 0. -1.
         -1   -1    0    0    0  501 -0.00000000000E+00 -0.00000000000E+00 -0.37671559300E+03  0.37671559304E+03  0.50400000000E-02 0.  1.
    8880023    1    1    2    0    0 -0.23065689271E+03  0.20130214771E+03  0.31275244856E+01  0.72632303041E+03  0.65864270000E+03 0.  1.
    8880022    1    1    2    0    0  0.23065689271E+03 -0.20130214771E+03  0.19216140173E+04  0.19518496974E+04  0.15294330000E+03 0.  0.
<mgrwt>
<rscale>  0 0.60175782E+03</rscale>
<asrwt>0</asrwt>
<pdfrwt beam="1">  1        1 0.35407033E+00 0.72631630E+03</pdfrwt>
<pdfrwt beam="2">  1       -1 0.57956246E-01 0.72631630E+03</pdfrwt>
<totfact> 0.59282822E+00</totfact>
</mgrwt>
</event>
<event>
 4    1  0.3712574E-007  0.7287344E+03  0.7818608E-02  0.9894069E-01
          1   -1    0    0  501    0  0.00000000000E+00  0.00000000000E+00  0.83747099108E+03  0.83747099109E+03  0.50400000000E-02 0. -1.
         -1   -1    0    0    0  501 -0.00000000000E+00 -0.00000000000E+00 -0.70769646696E+03  0.70769646698E+03  0.50400000000E-02 0.  1.
    8880023    1    1    2    0    0  0.28643297459E+03 -0.12328721028E+03 -0.45924423825E+03  0.86137045560E+03  0.65864270000E+03 0.  0.
    8880022    1    1    2    0    0 -0.28643297459E+03  0.12328721028E+03  0.58901876237E+03  0.68379700247E+03  0.15294330000E+03 0.  0.
<mgrwt>
<rscale>  0 0.60549591E+03</rscale>
<asrwt>0</asrwt>
<pdfrwt beam="1">  1        1 0.12884169E+00 0.72873438E+03</pdfrwt>
<pdfrwt beam="2">  1       -1 0.10887638E+00 0.72873438E+03</pdfrwt>
<totfact> 0.16553094E+01</totfact>
</mgrwt>
</event>
<event>
 4    1  0.3712574E-007  0.6628958E+03  0.7818608E-02  0.1021368E+00
         -1   -1    0    0    0  501 -0.00000000000E+00  0.00000000000E+00  0.58613951910E+03  0.58613951912E+03  0.50400000000E-02 0.  1.
          1   -1    0    0  501    0  0.00000000000E+00 -0.00000000000E+00 -0.22157989232E+04  0.22157989232E+04  0.50400000000E-02 0. -1.
    8880023    1    1    2    0    0 -0.68968213847E+02  0.29395258509E+02  0.39398468581E+03  0.77113866111E+03  0.65864270000E+03 0.  1.
    8880022    1    1    2    0    0  0.68968213847E+02 -0.29395258509E+02 -0.20236440899E+04  0.20307997812E+04  0.15294330000E+03 0.  0.
<mgrwt>
<rscale>  0 0.47196178E+03</rscale>
<asrwt>0</asrwt>
<pdfrwt beam="1">  1        1 0.34089214E+00 0.66289585E+03</pdfrwt>
<pdfrwt beam="2">  1       -1 0.90175311E-01 0.66289585E+03</pdfrwt>
<totfact> 0.27505506E+00</totfact>
</mgrwt>
</event>
<event>
 4    1  0.3712574E-007  0.1357532E+04  0.7818608E-02  0.9017404E-01
         -1   -1    0    0    0  501 -0.00000000000E+00  0.00000000000E+00  0.91063494373E+03  0.91063494375E+03  0.50400000000E-02 0.  1.
          1   -1    0    0  501    0  0.00000000000E+00 -0.00000000000E+00 -0.21133035038E+04  0.21133035038E+04  0.50400000000E-02 0. -1.
    8880023    1    1    2    0    0  0.64492447228E+03  0.99657239740E+03 -0.44205969228E+02  0.13582519988E+04  0.65864270000E+03 0.  1.
    8880022    1    1    2    0    0 -0.64492447228E+03 -0.99657239740E+03 -0.11584625908E+04  0.16656864487E+04  0.15294330000E+03 0.  0.
<mgrwt>
<rscale>  0 0.13154477E+04</rscale>
<asrwt>0</asrwt>
<pdfrwt beam="1">  1        1 0.32512361E+00 0.13575324E+04</pdfrwt>
<pdfrwt beam="2">  1       -1 0.14009768E+00 0.13575324E+04</pdfrwt>
<totfact> 0.10083021E+00</totfact>
</mgrwt>
</event>
<event>
 4    1  0.3712574E-007  0.6750729E+03  0.7818608E-02  0.1012260E+00
         -1   -1    0    0    0  501 -0.00000000000E+00  0.00000000000E+00  0.10358288112E+04  0.10358288112E+04  0.50400000000E-02 0.  1.
          1   -1    0    0  501    0  0.00000000000E+00 -0.00000000000E+00 -0.68562006079E+03  0.68562006081E+03  0.50400000000E-02 0. -1.
    8880023    1    1    2    0    0 -0.26061443510E+02  0.14571890537E+03  0.90395134211E+03  0.11282071766E+04  0.65864270000E+03 0.  1.
    8880022    1    1    2    0    0  0.26061443510E+02 -0.14571890537E+03 -0.55374259173E+03  0.59324169537E+03  0.15294330000E+03 0.  0.
<mgrwt>
<rscale>  0 0.50586087E+03</rscale>
<asrwt>0</asrwt>
<pdfrwt beam="1">  1        1 0.10548001E+00 0.67507289E+03</pdfrwt>
<pdfrwt beam="2">  1       -1 0.15935828E+00 0.67507289E+03</pdfrwt>
<totfact> 0.86642271E+00</totfact>
</mgrwt>
</event>
<event>
 4    1  0.3712574E-007  0.7540838E+03  0.7818608E-02  0.9820672E-01
         -1   -1    0    0    0  501 -0.00000000000E+00  0.00000000000E+00  0.11390922526E+04  0.11390922526E+04  0.50400000000E-02 0.  1.
          1   -1    0    0  501    0  0.00000000000E+00 -0.00000000000E+00 -0.73238382993E+03  0.73238382994E+03  0.50400000000E-02 0. -1.
    8880023    1    1    2    0    0 -0.35629165339E+03 -0.88816692092E+02  0.94068663320E+03  0.12056258521E+04  0.65864270000E+03 0.  0.
    8880022    1    1    2    0    0  0.35629165339E+03  0.88816692092E+02 -0.53397821053E+03  0.66585023046E+03  0.15294330000E+03 0.  0.
<mgrwt>
<rscale>  0 0.64264877E+03</rscale>
<asrwt>0</asrwt>
<pdfrwt beam="1">  1        1 0.11267444E+00 0.75408378E+03</pdfrwt>
<pdfrwt beam="2">  1       -1 0.17524496E+00 0.75408378E+03</pdfrwt>
<totfact> 0.59190746E+00</totfact>
</mgrwt>
</event>
<event>
 4    1  0.3712574E-007  0.8854560E+03  0.7818608E-02  0.9549795E-01
         -1   -1    0    0    0  501 -0.00000000000E+00  0.00000000000E+00  0.19817156307E+04  0.19817156307E+04  0.50400000000E-02 0.  1.
          1   -1    0    0  501    0  0.00000000000E+00 -0.00000000000E+00 -0.31520426959E+03  0.31520426963E+03  0.50400000000E-02 0. -1.
    8880023    1    1    2    0    0 -0.57885886863E+03  0.12306291895E+03  0.60633724630E+03  0.10731622125E+04  0.65864270000E+03 0. -1.
    8880022    1    1    2    0    0  0.57885886863E+03 -0.12306291895E+03  0.10601741148E+04  0.12237576878E+04  0.15294330000E+03 0.  1.
<mgrwt>
<rscale>  0 0.80710136E+03</rscale>
<asrwt>0</asrwt>
<pdfrwt beam="1">  1        1 0.48492965E-01 0.88545597E+03</pdfrwt>
<pdfrwt beam="2">  1       -1 0.30487933E+00 0.88545597E+03</pdfrwt>
<totfact> 0.25981991E+00</totfact>
</mgrwt>
</event>
<event>
 4    1  0.3712574E-007  0.7718010E+03  0.7818608E-02  0.9775461E-01
         -1   -1    0    0    0  501 -0.00000000000E+00  0.00000000000E+00  0.42391434981E+03  0.42391434984E+03  0.50400000000E-02 0.  1.
          1   -1    0    0  501    0  0.00000000000E+00 -0.00000000000E+00 -0.89701666317E+03  0.89701666319E+03  0.50400000000E-02 0. -1.
    8880023    1    1    2    0    0 -0.27971670354E+03  0.28918002200E+03 -0.44197117281E+03  0.88939037729E+03  0.65864270000E+03 0.  0.
    8880022    1    1    2    0    0  0.27971670354E+03 -0.28918002200E+03 -0.31131140556E+02  0.43154063573E+03  0.15294330000E+03 0.  0.
<mgrwt>
<rscale>  0 0.66696210E+03</rscale>
<asrwt>0</asrwt>
<pdfrwt beam="1">  1        1 0.13800256E+00 0.77180096E+03</pdfrwt>
<pdfrwt beam="2">  1       -1 0.65217592E-01 0.77180096E+03</pdfrwt>
<totfact> 0.44574384E+01</totfact>
</mgrwt>
</event>
<event>
 4    1  0.3712574E-007  0.7760516E+03  0.7818608E-02  0.9765195E-01
          1   -1    0    0  501    0  0.00000000000E+00  0.00000000000E+00  0.94468609291E+03  0.94468609293E+03  0.50400000000E-02 0. -1.
         -1   -1    0    0    0  501 -0.00000000000E+00 -0.00000000000E+00 -0.46999025644E+03  0.46999025647E+03  0.50400000000E-02 0.  1.
    8880023    1    1    2    0    0  0.33839754129E+03 -0.23223470960E+03  0.10022372747E+02  0.77611629960E+03  0.65864270000E+03 0.  1.
    8880022    1    1    2    0    0 -0.33839754129E+03  0.23223470960E+03  0.46467346372E+03  0.63856004980E+03  0.15294330000E+03 0.  0.
<mgrwt>
<rscale>  0 0.67264301E+03</rscale>
<asrwt>0</asrwt>
<pdfrwt beam="1">  1        1 0.14533632E+00 0.77605158E+03</pdfrwt>
<pdfrwt beam="2">  1       -1 0.72306194E-01 0.77605158E+03</pdfrwt>
<totfact> 0.33049520E+01</totfact>
</mgrwt>
</event>
<event>
 4    1  0.3712574E-007  0.8874472E+03  0.7818608E-02  0.9546491E-01
          1   -1    0    0  501    0  0.00000000000E+00  0.00000000000E+00  0.10550865097E+04  0.10550865097E+04  0.50400000000E-02 0. -1.
         -1   -1    0    0    0  501 -0.00000000000E+00 -0.00000000000E+00 -0.21351942218E+04  0.21351942218E+04  0.50400000000E-02 0.  1.
    8880023    1    1    2    0    0  0.58564633731E+03  0.10378194022E+03 -0.19401520008E+04  0.21334836105E+04  0.65864270000E+03 0.  0.
    8880022    1    1    2    0    0 -0.58564633731E+03 -0.10378194022E+03  0.86004428868E+03  0.10567971210E+04  0.15294330000E+03 0.  0.
<mgrwt>
<rscale>  0 0.80941321E+03</rscale>
<asrwt>0</asrwt>
<pdfrwt beam="1">  1        1 0.16232100E+00 0.88744720E+03</pdfrwt>
<pdfrwt beam="2">  1       -1 0.32849142E+00 0.88744720E+03</pdfrwt>
<totfact> 0.30689210E-01</totfact>
</mgrwt>
</event>
<event>
 4    1  0.3712574E-007  0.8420878E+03  0.7818608E-02  0.9626256E-01
         -1   -1    0    0    0  501 -0.00000000000E+00  0.00000000000E+00  0.42843676431E+03  0.42843676434E+03  0.50400000000E-02 0.  1.
          1   -1    0    0  501    0  0.00000000000E+00 -0.00000000000E+00 -0.12939663916E+04  0.12939663916E+04  0.50400000000E-02 0. -1.
    8880023    1    1    2    0    0  0.35053284641E+03  0.39042078465E+03 -0.20800148369E+03  0.86739638515E+03  0.65864270000E+03 0.  1.
    8880022    1    1    2    0    0 -0.35053284641E+03 -0.39042078465E+03 -0.65752814363E+03  0.85500677084E+03  0.15294330000E+03 0.  0.
<mgrwt>
<rscale>  0 0.75582495E+03</rscale>
<asrwt>0</asrwt>
<pdfrwt beam="1">  1        1 0.19907175E+00 0.84208781E+03</pdfrwt>
<pdfrwt beam="2">  1       -1 0.65913349E-01 0.84208781E+03</pdfrwt>
<totfact> 0.21750098E+01</totfact>
</mgrwt>
</event>
<event>
 4    1  0.3712574E-007  0.8362250E+03  0.7818608E-02  0.9637340E-01
          1   -1    0    0  501    0  0.00000000000E+00  0.00000000000E+00  0.94730297238E+03  0.94730297240E+03  0.50400000000E-02 0. -1.
         -1   -1    0    0    0  501 -0.00000000000E+00 -0.00000000000E+00 -0.94768207959E+03  0.94768207960E+03  0.50400000000E-02 0.  1.
    8880023    1    1    2    0    0 -0.49865747399E+03 -0.12962562125E+03 -0.64473114649E+03  0.10559121817E+04  0.65864270000E+03 0.  0.
    8880022    1    1    2    0    0  0.49865747399E+03  0.12962562125E+03  0.64435203928E+03  0.83907287025E+03  0.15294330000E+03 0.  0.
<mgrwt>
<rscale>  0 0.74873324E+03</rscale>
<asrwt>0</asrwt>
<pdfrwt beam="1">  1        1 0.14573892E+00 0.83622502E+03</pdfrwt>
<pdfrwt beam="2">  1       -1 0.14579724E+00 0.83622502E+03</pdfrwt>
<totfact> 0.64118328E+00</totfact>
</mgrwt>
</event>
<event>
 4    1  0.3712574E-007  0.6661606E+03  0.7818608E-02  0.1018579E+00
         -1   -1    0    0    0  501 -0.00000000000E+00  0.00000000000E+00  0.96971046450E+03  0.96971046451E+03  0.50400000000E-02 0.  1.
          1   -1    0    0  501    0  0.00000000000E+00 -0.00000000000E+00 -0.41270664262E+03  0.41270664265E+03  0.50400000000E-02 0. -1.
    8880023    1    1    2    0    0  0.38530982574E+02  0.92060074507E+02  0.82358921846E+03  0.10592776317E+04  0.65864270000E+03 0.  1.
    8880022    1    1    2    0    0 -0.38530982574E+02 -0.92060074507E+02 -0.26658539658E+03  0.32313947549E+03  0.15294330000E+03 0.  0.
<mgrwt>
<rscale>  0 0.48202922E+03</rscale>
<asrwt>0</asrwt>
<pdfrwt beam="1">  1        1 0.63493329E-01 0.66616057E+03</pdfrwt>
<pdfrwt beam="2">  1       -1 0.14918623E+00 0.66616057E+03</pdfrwt>
<totfact> 0.21086432E+01</totfact>
</mgrwt>
</event>
<event>
 4    1  0.3712574E-007  0.1007693E+04  0.7818608E-02  0.9371562E-01
         -1   -1    0    0    0  501 -0.00000000000E+00  0.00000000000E+00  0.73894321830E+03  0.73894321832E+03  0.50400000000E-02 0.  1.
          1   -1    0    0  501    0  0.00000000000E+00 -0.00000000000E+00 -0.14566520997E+04  0.14566520997E+04  0.50400000000E-02 0. -1.
    8880023    1    1    2    0    0  0.31456014854E+03 -0.69475610796E+03  0.16276233586E+03  0.10207526247E+04  0.65864270000E+03 0.  0.
    8880022    1    1    2    0    0 -0.31456014854E+03  0.69475610796E+03 -0.88047121724E+03  0.11748426933E+04  0.15294330000E+03 0.  0.
<mgrwt>
<rscale>  0 0.94453441E+03</rscale>
<asrwt>0</asrwt>
<pdfrwt beam="1">  1        1 0.22410032E+00 0.10076926E+04</pdfrwt>
<pdfrwt beam="2">  1       -1 0.11368357E+00 0.10076926E+04</pdfrwt>
<totfact> 0.49685995E+00</totfact>
</mgrwt>
</event>
<event>
 4    1  0.3712574E-007  0.6691551E+03  0.7818608E-02  0.1016276E+00
          1   -1    0    0  501    0  0.00000000000E+00  0.00000000000E+00  0.57831705511E+03  0.57831705513E+03  0.50400000000E-02 0. -1.
         -1   -1    0    0    0  501 -0.00000000000E+00 -0.00000000000E+00 -0.54922785220E+03  0.54922785222E+03  0.50400000000E-02 0.  1.
    8880023    1    1    2    0    0 -0.10941444031E+03  0.44573284767E+02 -0.30982458941E+03  0.73740069157E+03  0.65864270000E+03 0.  1.
    8880022    1    1    2    0    0  0.10941444031E+03 -0.44573284767E+02  0.33891379232E+03  0.39014421578E+03  0.15294330000E+03 0.  0.
<mgrwt>
<rscale>  0 0.49054780E+03</rscale>
<asrwt>0</asrwt>
<pdfrwt beam="1">  1        1 0.88971854E-01 0.66915507E+03</pdfrwt>
<pdfrwt beam="2">  1       -1 0.84496593E-01 0.66915507E+03</pdfrwt>
<totfact> 0.51543700E+01</totfact>
</mgrwt>
</event>
<event>
 4    1  0.3712574E-007  0.7231119E+03  0.7818608E-02  0.9912194E-01
          1   -1    0    0  501    0  0.00000000000E+00  0.00000000000E+00  0.17305947811E+04  0.17305947811E+04  0.50400000000E-02 0. -1.
         -1   -1    0    0    0  501 -0.00000000000E+00 -0.00000000000E+00 -0.22350334391E+03  0.22350334396E+03  0.50400000000E-02 0.  1.
    8880023    1    1    2    0    0 -0.20835468015E+03  0.21370280188E+03  0.46584522935E+03  0.86017587983E+03  0.65864270000E+03 0.  1.
    8880022    1    1    2    0    0  0.20835468015E+03 -0.21370280188E+03  0.10412462079E+04  0.10939222453E+04  0.15294330000E+03 0.  0.
<mgrwt>
<rscale>  0 0.59673948E+03</rscale>
<asrwt>0</asrwt>
<pdfrwt beam="1">  1        1 0.26624535E+00 0.72311186E+03</pdfrwt>
<pdfrwt beam="2">  1       -1 0.34385130E-01 0.72311186E+03</pdfrwt>
<totfact> 0.37693185E+01</totfact>
</mgrwt>
</event>
<event>
 4    1  0.3712574E-007  0.7329377E+03  0.7818608E-02  0.9881018E-01
          1   -1    0    0  501    0  0.00000000000E+00  0.00000000000E+00  0.17397984908E+03  0.17397984915E+03  0.50400000000E-02 0. -1.
         -1   -1    0    0    0  501 -0.00000000000E+00 -0.00000000000E+00 -0.26785666128E+04  0.26785666128E+04  0.50400000000E-02 0.  1.
    8880023    1    1    2    0    0 -0.18650010872E+03  0.26192587761E+03 -0.70117004893E+03  0.10143160748E+04  0.65864270000E+03 0. -1.
    8880022    1    1    2    0    0  0.18650010872E+03 -0.26192587761E+03 -0.18034167148E+04  0.18382303871E+04  0.15294330000E+03 0.  0.
<mgrwt>
<rscale>  0 0.61190113E+03</rscale>
<asrwt>0</asrwt>
<pdfrwt beam="1">  1        1 0.26766133E-01 0.73293769E+03</pdfrwt>
<pdfrwt beam="2">  1       -1 0.41208714E+00 0.73293769E+03</pdfrwt>
<totfact> 0.11275034E+00</totfact>
</mgrwt>
</event>
<event>
 4    1  0.3712574E-007  0.7501023E+03  0.7818608E-02  0.9831440E-01
          1   -1    0    0  501    0  0.00000000000E+00  0.00000000000E+00  0.25394270665E+03  0.25394270670E+03  0.50400000000E-02 0. -1.
         -1   -1    0    0    0  501 -0.00000000000E+00 -0.00000000000E+00 -0.13901105122E+04  0.13901105122E+04  0.50400000000E-02 0.  1.
    8880023    1    1    2    0    0 -0.35892458768E+03  0.40550630273E+01 -0.95364639709E+03  0.12132992047E+04  0.65864270000E+03 0.  1.
    8880022    1    1    2    0    0  0.35892458768E+03 -0.40550630273E+01 -0.18252140842E+03  0.43075401417E+03  0.15294330000E+03 0.  0.
<mgrwt>
<rscale>  0 0.63702237E+03</rscale>
<asrwt>0</asrwt>
<pdfrwt beam="1">  1        1 0.39068109E-01 0.75010233E+03</pdfrwt>
<pdfrwt beam="2">  1       -1 0.21386315E+00 0.75010233E+03</pdfrwt>
<totfact> 0.13580918E+01</totfact>
</mgrwt>
</event>
<event>
 4    1  0.3712574E-007  0.7187224E+03  0.7818608E-02  0.9926933E-01
          1   -1    0    0  501    0  0.00000000000E+00  0.00000000000E+00  0.95464797419E+03  0.95464797420E+03  0.50400000000E-02 0. -1.
         -1   -1    0    0    0  501 -0.00000000000E+00 -0.00000000000E+00 -0.12160506401E+04  0.12160506401E+04  0.50400000000E-02 0.  1.
    8880023    1    1    2    0    0  0.26654626094E+03 -0.10818892134E+03 -0.10756613893E+04  0.12936805566E+04  0.65864270000E+03 0.  1.
    8880022    1    1    2    0    0 -0.26654626094E+03  0.10818892134E+03  0.81425872337E+03  0.87701805770E+03  0.15294330000E+03 0.  0.
<mgrwt>
<rscale>  0 0.58973586E+03</rscale>
<asrwt>0</asrwt>
<pdfrwt beam="1">  1        1 0.14686892E+00 0.71872245E+03</pdfrwt>
<pdfrwt beam="2">  1       -1 0.18708471E+00 0.71872245E+03</pdfrwt>
<totfact> 0.31826637E+00</totfact>
</mgrwt>
</event>
<event>
 4    1  0.3712574E-007  0.6871750E+03  0.7818608E-02  0.1005525E+00
          1   -1    0    0  501    0  0.00000000000E+00  0.00000000000E+00  0.21454572986E+04  0.21454572986E+04  0.50400000000E-02 0. -1.
         -1   -1    0    0    0  501 -0.00000000000E+00 -0.00000000000E+00 -0.29174652126E+03  0.29174652131E+03  0.50400000000E-02 0.  1.
    8880023    1    1    2    0    0  0.19266227035E+03 -0.35784922833E+02  0.13462391343E+03  0.70023789918E+03  0.65864270000E+03 0.  1.
    8880022    1    1    2    0    0 -0.19266227035E+03  0.35784922833E+02  0.17190868639E+04  0.17369659207E+04  0.15294330000E+03 0.  0.
<mgrwt>
<rscale>  0 0.53292507E+03</rscale>
<asrwt>0</asrwt>
<pdfrwt beam="1">  1        1 0.33007036E+00 0.68717503E+03</pdfrwt>
<pdfrwt beam="2">  1       -1 0.44884079E-01 0.68717503E+03</pdfrwt>
<totfact> 0.12348625E+01</totfact>
</mgrwt>
</event>
<event>
 4    1  0.3712574E-007  0.8022210E+03  0.7818608E-02  0.9706014E-01
          1   -1    0    0  501    0  0.00000000000E+00  0.00000000000E+00  0.14233535547E+04  0.14233535547E+04  0.50400000000E-02 0. -1.
         -1   -1    0    0    0  501 -0.00000000000E+00 -0.00000000000E+00 -0.86460364715E+03  0.86460364717E+03  0.50400000000E-02 0.  1.
    8880023    1    1    2    0    0  0.45638368441E+03  0.38240171811E+02 -0.62017208766E+03  0.10139881670E+04  0.65864270000E+03 0.  1.
    8880022    1    1    2    0    0 -0.45638368441E+03 -0.38240171811E+02  0.11789219952E+04  0.12739690349E+04  0.15294330000E+03 0.  0.
<mgrwt>
<rscale>  0 0.70659838E+03</rscale>
<asrwt>0</asrwt>
<pdfrwt beam="1">  1        1 0.21897747E+00 0.80222103E+03</pdfrwt>
<pdfrwt beam="2">  1       -1 0.13301595E+00 0.80222103E+03</pdfrwt>
<totfact> 0.36582612E+00</totfact>
</mgrwt>
</event>
<event>
 4    1  0.4740274E-007  0.1383018E+04  0.7818608E-02  0.8996992E-01
          1   -1    0    0  501    0  0.00000000000E+00  0.00000000000E+00  0.28941885813E+04  0.28941885813E+04  0.50400000000E-02 0. -1.
         -1   -1    0    0    0  501 -0.00000000000E+00 -0.00000000000E+00 -0.13575971255E+04  0.13575971255E+04  0.50400000000E-02 0.  1.
    8880023    1    1    2    0    0  0.16561468424E+03 -0.12047823378E+04 -0.81115645720E+03  0.16033445386E+04  0.65864270000E+03 0.  0.
    8880022    1    1    2    0    0 -0.16561468424E+03  0.12047823378E+04  0.23477479130E+04  0.26484411682E+04  0.15294330000E+03 0.  0.
<mgrwt>
<rscale>  0 0.13418878E+04</rscale>
<asrwt>0</asrwt>
<pdfrwt beam="1">  1        1 0.44525977E+00 0.13830180E+04</pdfrwt>
<pdfrwt beam="2">  1       -1 0.20886110E+00 0.13830180E+04</pdfrwt>
<totfact> 0.89821375E-02</totfact>
</mgrwt>
</event>
<event>
 4    1  0.3712574E-007  0.8290070E+03  0.7818608E-02  0.9651268E-01
         -1   -1    0    0    0  501 -0.00000000000E+00  0.00000000000E+00  0.33816353907E+03  0.33816353911E+03  0.50400000000E-02 0.  1.
          1   -1    0    0  501    0  0.00000000000E+00 -0.00000000000E+00 -0.21984792304E+04  0.21984792305E+04  0.50400000000E-02 0. -1.
    8880023    1    1    2    0    0 -0.49913119327E+03  0.65654353084E+02 -0.28635726208E+03  0.87707076680E+03  0.65864270000E+03 0.  1.
    8880022    1    1    2    0    0  0.49913119327E+03 -0.65654353084E+02 -0.15739584293E+04  0.16595720028E+04  0.15294330000E+03 0.  0.
<mgrwt>
<rscale>  0 0.73993932E+03</rscale>
<asrwt>0</asrwt>
<pdfrwt beam="1">  1        1 0.33822757E+00 0.82900703E+03</pdfrwt>
<pdfrwt beam="2">  1       -1 0.52025161E-01 0.82900703E+03</pdfrwt>
<totfact> 0.84260475E+00</totfact>
</mgrwt>
</event>
<event>
 4    1  0.3712574E-007  0.6908307E+03  0.7818608E-02  0.1003760E+00
          1   -1    0    0  501    0  0.00000000000E+00  0.00000000000E+00  0.13420117966E+04  0.13420117966E+04  0.50400000000E-02 0. -1.
         -1   -1    0    0    0  501 -0.00000000000E+00 -0.00000000000E+00 -0.29663645143E+03  0.29663645148E+03  0.50400000000E-02 0.  1.
    8880023    1    1    2    0    0 -0.20722630696E+03  0.22229663193E+02  0.15030316665E+03  0.70699232555E+03  0.65864270000E+03 0.  1.
    8880022    1    1    2    0    0  0.20722630696E+03 -0.22229663193E+02  0.89507217850E+03  0.93165592252E+03  0.15294330000E+03 0.  0.
<mgrwt>
<rscale>  0 0.54031745E+03</rscale>
<asrwt>0</asrwt>
<pdfrwt beam="1">  1        1 0.20646336E+00 0.69083074E+03</pdfrwt>
<pdfrwt beam="2">  1       -1 0.45636376E-01 0.69083074E+03</pdfrwt>
<totfact> 0.41687730E+01</totfact>
</mgrwt>
</event>
<event>
 4    1  0.3712574E-007  0.8168050E+03  0.7818608E-02  0.9675573E-01
          1   -1    0    0  501    0  0.00000000000E+00  0.00000000000E+00  0.14396643306E+04  0.14396643306E+04  0.50400000000E-02 0. -1.
         -1   -1    0    0    0  501 -0.00000000000E+00 -0.00000000000E+00 -0.65993578095E+03  0.65993578097E+03  0.50400000000E-02 0.  1.
    8880023    1    1    2    0    0 -0.20909643152E+03  0.43547538680E+03 -0.32899770452E+03  0.88057357786E+03  0.65864270000E+03 0.  0.
    8880022    1    1    2    0    0  0.20909643152E+03 -0.43547538680E+03  0.11087262541E+04  0.12190265337E+04  0.15294330000E+03 0. -1.
<mgrwt>
<rscale>  0 0.72489976E+03</rscale>
<asrwt>0</asrwt>
<pdfrwt beam="1">  1        1 0.22148682E+00 0.81680496E+03</pdfrwt>
<pdfrwt beam="2">  1       -1 0.10152858E+00 0.81680496E+03</pdfrwt>
<totfact> 0.68259876E+00</totfact>
</mgrwt>
</event>
<event>
 4    1  0.3712574E-007  0.6675183E+03  0.7818608E-02  0.1017508E+00
         -1   -1    0    0    0  501 -0.00000000000E+00  0.00000000000E+00  0.17319485858E+03  0.17319485865E+03  0.50400000000E-02 0.  1.
          1   -1    0    0  501    0  0.00000000000E+00 -0.00000000000E+00 -0.21421526816E+04  0.21421526816E+04  0.50400000000E-02 0. -1.
    8880023    1    1    2    0    0 -0.21780512718E+02 -0.10628272375E+03 -0.49884203952E+03  0.83332106343E+03  0.65864270000E+03 0.  1.
    8880022    1    1    2    0    0  0.21780512718E+02  0.10628272375E+03 -0.14701157835E+04  0.14820264768E+04  0.15294330000E+03 0.  0.
<mgrwt>
<rscale>  0 0.48596685E+03</rscale>
<asrwt>0</asrwt>
<pdfrwt beam="1">  1        1 0.32956193E+00 0.66751825E+03</pdfrwt>
<pdfrwt beam="2">  1       -1 0.26645364E-01 0.66751825E+03</pdfrwt>
<totfact> 0.31462723E+01</totfact>
</mgrwt>
</event>
<event>
 4    1  0.3712574E-007  0.7058668E+03  0.7818608E-02  0.9973682E-01
         -1   -1    0    0    0  501 -0.00000000000E+00  0.00000000000E+00  0.11211017503E+04  0.11211017503E+04  0.50400000000E-02 0.  1.
          1   -1    0    0  501    0  0.00000000000E+00 -0.00000000000E+00 -0.24608674277E+03  0.24608674283E+03  0.50400000000E-02 0. -1.
    8880023    1    1    2    0    0  0.22302258394E+03 -0.12123817864E+03  0.41157949196E+03  0.81709586547E+03  0.65864270000E+03 0.  0.
    8880022    1    1    2    0    0 -0.22302258394E+03  0.12123817864E+03  0.46343551558E+03  0.55009262768E+03  0.15294330000E+03 0.  0.
<mgrwt>
<rscale>  0 0.56819457E+03</rscale>
<asrwt>0</asrwt>
<pdfrwt beam="1">  1        1 0.37859499E-01 0.70586683E+03</pdfrwt>
<pdfrwt beam="2">  1       -1 0.17247719E+00 0.70586683E+03</pdfrwt>
<totfact> 0.27533129E+01</totfact>
</mgrwt>
</event>
<event>
 4    1  0.3712574E-007  0.7354731E+03  0.7818608E-02  0.9873335E-01
         -1   -1    0    0    0  501 -0.00000000000E+00  0.00000000000E+00  0.25451305677E+03  0.25451305682E+03  0.50400000000E-02 0.  1.
          1   -1    0    0  501    0  0.00000000000E+00 -0.00000000000E+00 -0.29941300661E+04  0.29941300661E+04  0.50400000000E-02 0. -1.
    8880023    1    1    2    0    0  0.23611559135E+03  0.22662730570E+03 -0.31977217998E+03  0.80198189601E+03  0.65864270000E+03 0.  1.
    8880022    1    1    2    0    0 -0.23611559135E+03 -0.22662730570E+03 -0.24198448294E+04  0.24466612269E+04  0.15294330000E+03 0.  0.
<mgrwt>
<rscale>  0 0.61571157E+03</rscale>
<asrwt>0</asrwt>
<pdfrwt beam="1">  1        1 0.46063537E+00 0.73547312E+03</pdfrwt>
<pdfrwt beam="2">  1       -1 0.39155857E-01 0.73547312E+03</pdfrwt>
<totfact> 0.40993996E+00</totfact>
</mgrwt>
</event>
<event>
 4    1  0.3712574E-007  0.6927543E+03  0.7818608E-02  0.1002870E+00
         -1   -1    0    0    0  501 -0.00000000000E+00  0.00000000000E+00  0.25193612765E+03  0.25193612770E+03  0.50400000000E-02 0.  1.
          1   -1    0    0  501    0  0.00000000000E+00 -0.00000000000E+00 -0.91164372753E+03  0.91164372754E+03  0.50400000000E-02 0. -1.
    8880023    1    1    2    0    0  0.99397690949E+02  0.19031147230E+03 -0.51184558899E+03  0.86133296157E+03  0.65864270000E+03 0.  0.
    8880022    1    1    2    0    0 -0.99397690949E+02 -0.19031147230E+03 -0.14786201088E+03  0.30224689367E+03  0.15294330000E+03 0. -1.
<mgrwt>
<rscale>  0 0.54409500E+03</rscale>
<asrwt>0</asrwt>
<pdfrwt beam="1">  1        1 0.14025288E+00 0.69275433E+03</pdfrwt>
<pdfrwt beam="2">  1       -1 0.38759405E-01 0.69275433E+03</pdfrwt>
<totfact> 0.11740051E+02</totfact>
</mgrwt>
</event>
<event>
 4    1  0.3712574E-007  0.1071924E+04  0.7818608E-02  0.9292979E-01
          1   -1    0    0  501    0  0.00000000000E+00  0.00000000000E+00  0.18288366227E+04  0.18288366227E+04  0.50400000000E-02 0. -1.
         -1   -1    0    0    0  501 -0.00000000000E+00 -0.00000000000E+00 -0.68453576794E+03  0.68453576796E+03  0.50400000000E-02 0.  1.
    8880023    1    1    2    0    0 -0.74996337193E+03  0.39085164738E+03 -0.12829847374E+02  0.10720004108E+04  0.65864270000E+03 0.  0.
    8880022    1    1    2    0    0  0.74996337193E+03 -0.39085164738E+03  0.11571307021E+04  0.14413719798E+04  0.15294330000E+03 0.  0.
<mgrwt>
<rscale>  0 0.10143181E+04</rscale>
<asrwt>0</asrwt>
<pdfrwt beam="1">  1        1 0.28135947E+00 0.10719236E+04</pdfrwt>
<pdfrwt beam="2">  1       -1 0.10531320E+00 0.10719236E+04</pdfrwt>
<totfact> 0.32912706E+00</totfact>
</mgrwt>
</event>
<event>
 4    1  0.3712574E-007  0.6970934E+03  0.7818608E-02  0.1000948E+00
         -1   -1    0    0    0  501 -0.00000000000E+00  0.00000000000E+00  0.29983812314E+03  0.29983812318E+03  0.50400000000E-02 0.  1.
          1   -1    0    0  501    0  0.00000000000E+00 -0.00000000000E+00 -0.99175660823E+03  0.99175660824E+03  0.50400000000E-02 0. -1.
    8880023    1    1    2    0    0  0.18596056796E+03  0.13246755812E+03 -0.19517269077E+03  0.72390025023E+03  0.65864270000E+03 0.  1.
    8880022    1    1    2    0    0 -0.18596056796E+03 -0.13246755812E+03 -0.49674579432E+03  0.56769448120E+03  0.15294330000E+03 0.  0.
<mgrwt>
<rscale>  0 0.55236535E+03</rscale>
<asrwt>0</asrwt>
<pdfrwt beam="1">  1        1 0.15257794E+00 0.69709339E+03</pdfrwt>
<pdfrwt beam="2">  1       -1 0.46128942E-01 0.69709339E+03</pdfrwt>
<totfact> 0.73696582E+01</totfact>
</mgrwt>
</event>
<event>
 4    1  0.3712574E-007  0.8346055E+03  0.7818608E-02  0.9640437E-01
         -1   -1    0    0    0  501 -0.00000000000E+00  0.00000000000E+00  0.36963376048E+03  0.36963376052E+03  0.50400000000E-02 0.  1.
          1   -1    0    0  501    0  0.00000000000E+00 -0.00000000000E+00 -0.28019233724E+04  0.28019233724E+04  0.50400000000E-02 0. -1.
    8880023    1    1    2    0    0  0.51106557873E+03  0.39600209957E+02 -0.17631015283E+03  0.85302501642E+03  0.65864270000E+03 0.  1.
    8880022    1    1    2    0    0 -0.51106557873E+03 -0.39600209957E+02 -0.22559794591E+04  0.23185321165E+04  0.15294330000E+03 0.  0.
<mgrwt>
<rscale>  0 0.74676638E+03</rscale>
<asrwt>0</asrwt>
<pdfrwt beam="1">  1        1 0.43106512E+00 0.83460554E+03</pdfrwt>
<pdfrwt beam="2">  1       -1 0.56866734E-01 0.83460554E+03</pdfrwt>
<totfact> 0.27348929E+00</totfact>
</mgrwt>
</event>
<event>
 4    1  0.3712574E-007  0.1253365E+04  0.7818608E-02  0.9106916E-01
          1   -1    0    0  501    0  0.00000000000E+00  0.00000000000E+00  0.10771629457E+04  0.10771629457E+04  0.50400000000E-02 0. -1.
         -1   -1    0    0    0  501 -0.00000000000E+00 -0.00000000000E+00 -0.23562217034E+04  0.23562217034E+04  0.50400000000E-02 0.  1.
    8880023    1    1    2    0    0  0.67014147453E+03  0.82947247901E+03 -0.18341659188E+04  0.22215060237E+04  0.65864270000E+03 0.  1.
    8880022    1    1    2    0    0 -0.67014147453E+03 -0.82947247901E+03  0.55510716116E+03  0.12118786254E+04  0.15294330000E+03 0.  0.
<mgrwt>
<rscale>  0 0.12068107E+04</rscale>
<asrwt>0</asrwt>
<pdfrwt beam="1">  1        1 0.16571738E+00 0.12533652E+04</pdfrwt>
<pdfrwt beam="2">  1       -1 0.36249565E+00 0.12533652E+04</pdfrwt>
<totfact> 0.16619489E-01</totfact>
</mgrwt>
</event>
<event>
 4    1  0.3712574E-007  0.8563235E+03  0.7818608E-02  0.9600137E-01
         -1   -1    0    0    0  501 -0.00000000000E+00  0.00000000000E+00  0.41278062124E+03  0.41278062127E+03  0.50400000000E-02 0.  1.
          1   -1    0    0  501    0  0.00000000000E+00 -0.00000000000E+00 -0.12723341922E+04  0.12723341922E+04  0.50400000000E-02 0. -1.
    8880023    1    1    2    0    0 -0.49005964174E+03  0.24355968975E+03 -0.36144283698E+03  0.92947883548E+03  0.65864270000E+03 0.  1.
    8880022    1    1    2    0    0  0.49005964174E+03 -0.24355968975E+03 -0.49811073395E+03  0.75563597798E+03  0.15294330000E+03 0. -1.
<mgrwt>
<rscale>  0 0.77287117E+03</rscale>
<asrwt>0</asrwt>
<pdfrwt beam="1">  1        1 0.19574372E+00 0.85632353E+03</pdfrwt>
<pdfrwt beam="2">  1       -1 0.63504712E-01 0.85632353E+03</pdfrwt>
<totfact> 0.24249705E+01</totfact>
</mgrwt>
</event>
<event>
 4    1  0.3712574E-007  0.7233791E+03  0.7818608E-02  0.9911314E-01
         -1   -1    0    0    0  501 -0.00000000000E+00  0.00000000000E+00  0.49620025824E+03  0.49620025826E+03  0.50400000000E-02 0.  1.
          1   -1    0    0  501    0  0.00000000000E+00 -0.00000000000E+00 -0.13699664524E+04  0.13699664524E+04  0.50400000000E-02 0. -1.
    8880023    1    1    2    0    0  0.28765962602E+03 -0.81969893613E+02  0.19223217328E+03  0.74848549659E+03  0.65864270000E+03 0.  1.
    8880022    1    1    2    0    0 -0.28765962602E+03  0.81969893613E+02 -0.10659983674E+04  0.11176812141E+04  0.15294330000E+03 0.  0.
<mgrwt>
<rscale>  0 0.59716093E+03</rscale>
<asrwt>0</asrwt>
<pdfrwt beam="1">  1        1 0.21076407E+00 0.72337911E+03</pdfrwt>
<pdfrwt beam="2">  1       -1 0.76338502E-01 0.72337911E+03</pdfrwt>
<totfact> 0.14434008E+01</totfact>
</mgrwt>
</event>
<event>
 4    1  0.3712574E-007  0.6752113E+03  0.7818608E-02  0.1012173E+00
         -1   -1    0    0    0  501 -0.00000000000E+00  0.00000000000E+00  0.38555613195E+03  0.38555613199E+03  0.50400000000E-02 0.  1.
          1   -1    0    0  501    0  0.00000000000E+00 -0.00000000000E+00 -0.94407672521E+03  0.94407672523E+03  0.50400000000E-02 0. -1.
    8880023    1    1    2    0    0 -0.14830588888E+03  0.10272241101E+02  0.57575694815E+02  0.67766165784E+03  0.65864270000E+03 0.  1.
    8880022    1    1    2    0    0  0.14830588888E+03 -0.10272241101E+02 -0.61609628808E+03  0.65197119937E+03  0.15294330000E+03 0.  0.
<mgrwt>
<rscale>  0 0.50619919E+03</rscale>
<asrwt>0</asrwt>
<pdfrwt beam="1">  1        1 0.14524257E+00 0.67521135E+03</pdfrwt>
<pdfrwt beam="2">  1       -1 0.59316328E-01 0.67521135E+03</pdfrwt>
<totfact> 0.49807191E+01</totfact>
</mgrwt>
</event>
<event>
 4    1  0.3712574E-007  0.7925644E+03  0.7818608E-02  0.9727110E-01
         -1   -1    0    0    0  501 -0.00000000000E+00  0.00000000000E+00  0.36934276824E+03  0.36934276828E+03  0.50400000000E-02 0.  1.
          1   -1    0    0  501    0  0.00000000000E+00 -0.00000000000E+00 -0.11679287221E+04  0.11679287221E+04  0.50400000000E-02 0. -1.
    8880023    1    1    2    0    0 -0.31246890301E+03  0.31098443819E+03 -0.28224556317E+03  0.84132092589E+03  0.65864270000E+03 0.  0.
    8880022    1    1    2    0    0  0.31246890301E+03 -0.31098443819E+03 -0.51634039065E+03  0.69595056446E+03  0.15294330000E+03 0.  0.
<mgrwt>
<rscale>  0 0.69425361E+03</rscale>
<asrwt>0</asrwt>
<pdfrwt beam="1">  1        1 0.17968134E+00 0.79256441E+03</pdfrwt>
<pdfrwt beam="2">  1       -1 0.56821965E-01 0.79256441E+03</pdfrwt>
<totfact> 0.36177297E+01</totfact>
</mgrwt>
</event>
<event>
 4    1  0.3712574E-007  0.7849681E+03  0.7818608E-02  0.9744294E-01
         -1   -1    0    0    0  501 -0.00000000000E+00  0.00000000000E+00  0.77073049843E+03  0.77073049844E+03  0.50400000000E-02 0.  1.
          1   -1    0    0  501    0  0.00000000000E+00 -0.00000000000E+00 -0.13738744666E+04  0.13738744666E+04  0.50400000000E-02 0. -1.
    8880023    1    1    2    0    0 -0.20183936740E+03 -0.37633175567E+03  0.51440794012E+03  0.93850437169E+03  0.65864270000E+03 0.  1.
    8880022    1    1    2    0    0  0.20183936740E+03  0.37633175567E+03 -0.11175519083E+04  0.12061005933E+04  0.15294330000E+03 0.  0.
<mgrwt>
<rscale>  0 0.68439712E+03</rscale>
<asrwt>0</asrwt>
<pdfrwt beam="1">  1        1 0.21136530E+00 0.78496811E+03</pdfrwt>
<pdfrwt beam="2">  1       -1 0.11857392E+00 0.78496811E+03</pdfrwt>
<totfact> 0.52843881E+00</totfact>
</mgrwt>
</event>
<event>
 4    1  0.3712574E-007  0.7176329E+03  0.7818608E-02  0.9930678E-01
         -1   -1    0    0    0  501 -0.00000000000E+00  0.00000000000E+00  0.13912942795E+03  0.13912942804E+03  0.50400000000E-02 0.  1.
          1   -1    0    0  501    0  0.00000000000E+00 -0.00000000000E+00 -0.19473246776E+04  0.19473246776E+04  0.50400000000E-02 0. -1.
    8880023    1    1    2    0    0 -0.28303043009E+03 -0.32871198182E+02 -0.12456971749E+04  0.14376224810E+04  0.65864270000E+03 0.  1.
    8880022    1    1    2    0    0  0.28303043009E+03  0.32871198182E+02 -0.56249807473E+03  0.64883162463E+03  0.15294330000E+03 0. -1.
<mgrwt>
<rscale>  0 0.58797247E+03</rscale>
<asrwt>0</asrwt>
<pdfrwt beam="1">  1        1 0.29958839E+00 0.71763288E+03</pdfrwt>
<pdfrwt beam="2">  1       -1 0.21404529E-01 0.71763288E+03</pdfrwt>
<totfact> 0.61111599E+01</totfact>
</mgrwt>
</event>
<event>
 4    1  0.3712574E-007  0.1109208E+04  0.7818608E-02  0.9250873E-01
          1   -1    0    0  501    0  0.00000000000E+00  0.00000000000E+00  0.33690615361E+04  0.33690615361E+04  0.50400000000E-02 0. -1.
         -1   -1    0    0    0  501 -0.00000000000E+00 -0.00000000000E+00 -0.37563844776E+03  0.37563844779E+03  0.50400000000E-02 0.  1.
    8880023    1    1    2    0    0  0.81912974104E+03  0.35434189566E+03  0.78798513126E+03  0.13606110704E+04  0.65864270000E+03 0.  1.
    8880022    1    1    2    0    0 -0.81912974104E+03 -0.35434189566E+03  0.22054379571E+04  0.23840889134E+04  0.15294330000E+03 0.  0.
<mgrwt>
<rscale>  0 0.10543416E+04</rscale>
<asrwt>0</asrwt>
<pdfrwt beam="1">  1        1 0.51831714E+00 0.11092078E+04</pdfrwt>
<pdfrwt beam="2">  1       -1 0.57790532E-01 0.11092078E+04</pdfrwt>
<totfact> 0.97695662E-01</totfact>
</mgrwt>
</event>
<event>
 4    1  0.3712574E-007  0.6685393E+03  0.7818608E-02  0.1016732E+00
         -1   -1    0    0    0  501 -0.00000000000E+00  0.00000000000E+00  0.17781005055E+03  0.17781005062E+03  0.50400000000E-02 0.  1.
          1   -1    0    0  501    0  0.00000000000E+00 -0.00000000000E+00 -0.13496696105E+04  0.13496696105E+04  0.50400000000E-02 0. -1.
    8880023    1    1    2    0    0  0.11204437412E+03 -0.24095531289E+02 -0.51648955176E+03  0.84481133973E+03  0.65864270000E+03 0.  1.
    8880022    1    1    2    0    0 -0.11204437412E+03  0.24095531289E+02 -0.65537000818E+03  0.68266832139E+03  0.15294330000E+03 0.  0.
<mgrwt>
<rscale>  0 0.48884450E+03</rscale>
<asrwt>0</asrwt>
<pdfrwt beam="1">  1        1 0.20764147E+00 0.66853926E+03</pdfrwt>
<pdfrwt beam="2">  1       -1 0.27355393E-01 0.66853926E+03</pdfrwt>
<totfact> 0.10283391E+02</totfact>
</mgrwt>
</event>
<event>
 4    1  0.3712574E-007  0.7623949E+03  0.7818608E-02  0.9798946E-01
         -1   -1    0    0    0  501 -0.00000000000E+00  0.00000000000E+00  0.21650704001E+04  0.21650704001E+04  0.50400000000E-02 0.  1.
          1   -1    0    0  501    0  0.00000000000E+00 -0.00000000000E+00 -0.79545434372E+03  0.79545434373E+03  0.50400000000E-02 0. -1.
    8880023    1    1    2    0    0  0.63092088076E+02  0.37875472241E+03  0.20372936426E+04  0.21752727056E+04  0.65864270000E+03 0.  1.
    8880022    1    1    2    0    0 -0.63092088076E+02 -0.37875472241E+03 -0.66767758624E+03  0.78525203821E+03  0.15294330000E+03 0.  0.
<mgrwt>
<rscale>  0 0.65419116E+03</rscale>
<asrwt>0</asrwt>
<pdfrwt beam="1">  1        1 0.12237759E+00 0.76239488E+03</pdfrwt>
<pdfrwt beam="2">  1       -1 0.33308775E+00 0.76239488E+03</pdfrwt>
<totfact> 0.47662152E-01</totfact>
</mgrwt>
</event>
<event>
 4    1  0.3712574E-007  0.7362181E+03  0.7818608E-02  0.9871104E-01
         -1   -1    0    0    0  501 -0.00000000000E+00  0.00000000000E+00  0.36096404185E+03  0.36096404189E+03  0.50400000000E-02 0.  1.
          1   -1    0    0  501    0  0.00000000000E+00 -0.00000000000E+00 -0.17488705298E+04  0.17488705298E+04  0.50400000000E-02 0. -1.
    8880023    1    1    2    0    0 -0.32014262599E+03  0.75601444567E+02 -0.66131491498E+02  0.73918229134E+03  0.65864270000E+03 0.  1.
    8880022    1    1    2    0    0  0.32014262599E+03 -0.75601444567E+02 -0.13217749965E+04  0.13706522804E+04  0.15294330000E+03 0.  0.
<mgrwt>
<rscale>  0 0.61682398E+03</rscale>
<asrwt>0</asrwt>
<pdfrwt beam="1">  1        1 0.26905700E+00 0.73621810E+03</pdfrwt>
<pdfrwt beam="2">  1       -1 0.55532930E-01 0.73621810E+03</pdfrwt>
<totfact> 0.15076043E+01</totfact>
</mgrwt>
</event>
<event>
 4    1  0.3712574E-007  0.8934738E+03  0.7818608E-02  0.9536591E-01
          1   -1    0    0  501    0  0.00000000000E+00  0.00000000000E+00  0.46524066077E+03  0.46524066079E+03  0.50400000000E-02 0. -1.
         -1   -1    0    0    0  501 -0.00000000000E+00 -0.00000000000E+00 -0.14160324469E+04  0.14160324469E+04  0.50400000000E-02 0.  1.
    8880023    1    1    2    0    0  0.60076222952E+03  0.59748862849E+02 -0.88066766919E+03  0.12545401280E+04  0.65864270000E+03 0.  0.
    8880022    1    1    2    0    0 -0.60076222952E+03 -0.59748862849E+02 -0.70124116960E+02  0.62673297969E+03  0.15294330000E+03 0.  0.
<mgrwt>
<rscale>  0 0.81639077E+03</rscale>
<asrwt>0</asrwt>
<pdfrwt beam="1">  1        1 0.71575487E-01 0.89347378E+03</pdfrwt>
<pdfrwt beam="2">  1       -1 0.21785114E+00 0.89347378E+03</pdfrwt>
<totfact> 0.56647011E+00</totfact>
</mgrwt>
</event>
<event>
 4    1  0.3712574E-007  0.6843649E+03  0.7818608E-02  0.1006955E+00
         -1   -1    0    0    0  501 -0.00000000000E+00  0.00000000000E+00  0.18793083473E+03  0.18793083480E+03  0.50400000000E-02 0.  1.
          1   -1    0    0  501    0  0.00000000000E+00 -0.00000000000E+00 -0.23451865114E+04  0.23451865114E+04  0.50400000000E-02 0. -1.
    8880023    1    1    2    0    0  0.15118046647E+03 -0.10811822106E+03 -0.47339632934E+03  0.83214143873E+03  0.65864270000E+03 0.  0.
    8880022    1    1    2    0    0 -0.15118046647E+03  0.10811822106E+03 -0.16838593473E+04  0.17009759074E+04  0.15294330000E+03 0.  0.
<mgrwt>
<rscale>  0 0.52702964E+03</rscale>
<asrwt>0</asrwt>
<pdfrwt beam="1">  1        1 0.36079790E+00 0.68436488E+03</pdfrwt>
<pdfrwt beam="2">  1       -1 0.28912438E-01 0.68436488E+03</pdfrwt>
<totfact> 0.19921459E+01</totfact>
</mgrwt>
</event>
<event>
 4    1  0.3712574E-007  0.8823598E+03  0.7818608E-02  0.9554965E-01
         -1   -1    0    0    0  501 -0.00000000000E+00  0.00000000000E+00  0.48362172449E+03  0.48362172452E+03  0.50400000000E-02 0.  1.
          1   -1    0    0  501    0  0.00000000000E+00 -0.00000000000E+00 -0.11778051299E+04  0.11778051299E+04  0.50400000000E-02 0. -1.
    8880023    1    1    2    0    0 -0.18894540957E+03  0.55592102945E+03 -0.27595937748E+03  0.92450654031E+03  0.65864270000E+03 0.  1.
    8880022    1    1    2    0    0  0.18894540957E+03 -0.55592102945E+03 -0.41822402790E+03  0.73692031409E+03  0.15294330000E+03 0. -1.
<mgrwt>
<rscale>  0 0.80350009E+03</rscale>
<asrwt>0</asrwt>
<pdfrwt beam="1">  1        1 0.18120079E+00 0.88235977E+03</pdfrwt>
<pdfrwt beam="2">  1       -1 0.74403342E-01 0.88235977E+03</pdfrwt>
<totfact> 0.20477825E+01</totfact>
</mgrwt>
</event>
<event>
 4    1  0.3712574E-007  0.6637094E+03  0.7818608E-02  0.1020642E+00
         -1   -1    0    0    0  501 -0.00000000000E+00  0.00000000000E+00  0.26387693696E+03  0.26387693701E+03  0.50400000000E-02 0.  1.
          1   -1    0    0  501    0  0.00000000000E+00 -0.00000000000E+00 -0.78437938792E+03  0.78437938794E+03  0.50400000000E-02 0. -1.
    8880023    1    1    2    0    0 -0.82916883723E+01 -0.81431908486E+02 -0.21629299847E+03  0.69806358970E+03  0.65864270000E+03 0.  1.
    8880022    1    1    2    0    0  0.82916883723E+01  0.81431908486E+02 -0.30420945249E+03  0.35019273524E+03  0.15294330000E+03 0.  0.
<mgrwt>
<rscale>  0 0.47455772E+03</rscale>
<asrwt>0</asrwt>
<pdfrwt beam="1">  1        1 0.12067375E+00 0.66370936E+03</pdfrwt>
<pdfrwt beam="2">  1       -1 0.40596452E-01 0.66370936E+03</pdfrwt>
<totfact> 0.13829238E+02</totfact>
</mgrwt>
</event>
<event>
 4    1  0.3712574E-007  0.7116369E+03  0.7818608E-02  0.9951972E-01
          1   -1    0    0  501    0  0.00000000000E+00  0.00000000000E+00  0.15712641462E+04  0.15712641462E+04  0.50400000000E-02 0. -1.
         -1   -1    0    0    0  501 -0.00000000000E+00 -0.00000000000E+00 -0.38128121579E+03  0.38128121582E+03  0.50400000000E-02 0.  1.
    8880023    1    1    2    0    0  0.18632116128E+03 -0.19468271451E+03 -0.11521814507E+02  0.71173021078E+03  0.65864270000E+03 0.  1.
    8880022    1    1    2    0    0 -0.18632116128E+03  0.19468271451E+03  0.12015047450E+04  0.12408151513E+04  0.15294330000E+03 0.  0.
<mgrwt>
<rscale>  0 0.57807292E+03</rscale>
<asrwt>0</asrwt>
<pdfrwt beam="1">  1        1 0.24173295E+00 0.71163694E+03</pdfrwt>
<pdfrwt beam="2">  1       -1 0.58658648E-01 0.71163694E+03</pdfrwt>
<totfact> 0.17918664E+01</totfact>
</mgrwt>
</event>
<event>
 4    1  0.3712574E-007  0.7699106E+03  0.7818608E-02  0.9780094E-01
          1   -1    0    0  501    0  0.00000000000E+00  0.00000000000E+00  0.69421587593E+03  0.69421587594E+03  0.50400000000E-02 0. -1.
         -1   -1    0    0    0  501 -0.00000000000E+00 -0.00000000000E+00 -0.59945194088E+03  0.59945194090E+03  0.50400000000E-02 0.  1.
    8880023    1    1    2    0    0 -0.14815656452E+03 -0.37013744565E+03 -0.17371175499E+03  0.78926426270E+03  0.65864270000E+03 0.  0.
    8880022    1    1    2    0    0  0.14815656452E+03  0.37013744565E+03  0.26847569004E+03  0.50440355415E+03  0.15294330000E+03 0.  0.
<mgrwt>
<rscale>  0 0.66441829E+03</rscale>
<asrwt>0</asrwt>
<pdfrwt beam="1">  1        1 0.10680244E+00 0.76991058E+03</pdfrwt>
<pdfrwt beam="2">  1       -1 0.92223375E-01 0.76991058E+03</pdfrwt>
<totfact> 0.32280462E+01</totfact>
</mgrwt>
</event>
<event>
 4    1  0.3712574E-007  0.8876246E+03  0.7818608E-02  0.9546197E-01
          1   -1    0    0  501    0  0.00000000000E+00  0.00000000000E+00  0.24470091505E+04  0.24470091505E+04  0.50400000000E-02 0. -1.
         -1   -1    0    0    0  501 -0.00000000000E+00 -0.00000000000E+00 -0.51419659807E+03  0.51419659810E+03  0.50400000000E-02 0.  1.
    8880023    1    1    2    0    0  0.57073977438E+02 -0.59229201911E+03 -0.46393478315E+02  0.88883622558E+03  0.65864270000E+03 0.  1.
    8880022    1    1    2    0    0 -0.57073977438E+02  0.59229201911E+03  0.19792060307E+04  0.20723695230E+04  0.15294330000E+03 0.  0.
<mgrwt>
<rscale>  0 0.80961905E+03</rscale>
<asrwt>0</asrwt>
<pdfrwt beam="1">  1        1 0.37646295E+00 0.88762463E+03</pdfrwt>
<pdfrwt beam="2">  1       -1 0.79107168E-01 0.88762463E+03</pdfrwt>
<totfact> 0.24395893E+00</totfact>
</mgrwt>
</event>
<event>
 4    1  0.3712574E-007  0.6799783E+03  0.7818608E-02  0.1009336E+00
         -1   -1    0    0    0  501 -0.00000000000E+00  0.00000000000E+00  0.47546931325E+03  0.47546931328E+03  0.50400000000E-02 0.  1.
          1   -1    0    0  501    0  0.00000000000E+00 -0.00000000000E+00 -0.23710514351E+04  0.23710514351E+04  0.50400000000E-02 0. -1.
    8880023    1    1    2    0    0 -0.33486979250E+02  0.16564692064E+03  0.22307781395E+03  0.71563551997E+03  0.65864270000E+03 0.  1.
    8880022    1    1    2    0    0  0.33486979250E+02 -0.16564692064E+03 -0.21186599358E+04  0.21308852285E+04  0.15294330000E+03 0.  0.
<mgrwt>
<rscale>  0 0.51739414E+03</rscale>
<asrwt>0</asrwt>
<pdfrwt beam="1">  1        1 0.36477714E+00 0.67997830E+03</pdfrwt>
<pdfrwt beam="2">  1       -1 0.73149127E-01 0.67997830E+03</pdfrwt>
<totfact> 0.33642511E+00</totfact>
</mgrwt>
</event>
<event>
 4    1  0.3712574E-007  0.6715919E+03  0.7818608E-02  0.1014546E+00
         -1   -1    0    0    0  501 -0.00000000000E+00  0.00000000000E+00  0.44685441608E+03  0.44685441611E+03  0.50400000000E-02 0.  1.
          1   -1    0    0  501    0  0.00000000000E+00 -0.00000000000E+00 -0.12345932626E+04  0.12345932626E+04  0.50400000000E-02 0. -1.
    8880023    1    1    2    0    0  0.12872720043E+03 -0.25589191229E+02  0.17810002531E+03  0.69480596149E+03  0.65864270000E+03 0.  1.
    8880022    1    1    2    0    0 -0.12872720043E+03  0.25589191229E+02 -0.96583887180E+03  0.98664171721E+03  0.15294330000E+03 0.  0.
<mgrwt>
<rscale>  0 0.49707026E+03</rscale>
<asrwt>0</asrwt>
<pdfrwt beam="1">  1        1 0.18993742E+00 0.67159192E+03</pdfrwt>
<pdfrwt beam="2">  1       -1 0.68746834E-01 0.67159192E+03</pdfrwt>
<totfact> 0.22486377E+01</totfact>
</mgrwt>
</event>
<event>
 4    1  0.3712574E-007  0.7747811E+03  0.7818608E-02  0.9768242E-01
         -1   -1    0    0    0  501 -0.00000000000E+00  0.00000000000E+00  0.14940222480E+04  0.14940222480E+04  0.50400000000E-02 0.  1.
          1   -1    0    0  501    0  0.00000000000E+00 -0.00000000000E+00 -0.51726534626E+03  0.51726534629E+03  0.50400000000E-02 0. -1.
    8880023    1    1    2    0    0  0.22960940104E+03  0.33727588884E+03  0.12688570575E+04  0.14867023713E+04  0.65864270000E+03 0.  1.
    8880022    1    1    2    0    0 -0.22960940104E+03 -0.33727588884E+03 -0.29210015571E+03  0.52458522303E+03  0.15294330000E+03 0.  0.
<mgrwt>
<rscale>  0 0.67095050E+03</rscale>
<asrwt>0</asrwt>
<pdfrwt beam="1">  1        1 0.79579287E-01 0.77478107E+03</pdfrwt>
<pdfrwt beam="2">  1       -1 0.22984957E+00 0.77478107E+03</pdfrwt>
<totfact> 0.41420262E+00</totfact>
</mgrwt>
</event>
<event>
 4    1  0.3712574E-007  0.9011163E+03  0.7818608E-02  0.9524242E-01
          1   -1    0    0  501    0  0.00000000000E+00  0.00000000000E+00  0.18853892671E+04  0.18853892671E+04  0.50400000000E-02 0. -1.
         -1   -1    0    0    0  501 -0.00000000000E+00 -0.00000000000E+00 -0.52968976216E+03  0.52968976218E+03  0.50400000000E-02 0.  1.
    8880023    1    1    2    0    0  0.57277601821E+03 -0.22389280559E+03 -0.19030583952E+02  0.90131721653E+03  0.65864270000E+03 0.  0.
    8880022    1    1    2    0    0 -0.57277601821E+03  0.22389280559E+03  0.13747300889E+04  0.15137618127E+04  0.15294330000E+03 0.  0.
<mgrwt>
<rscale>  0 0.82519913E+03</rscale>
<asrwt>0</asrwt>
<pdfrwt beam="1">  1        1 0.29005989E+00 0.90111629E+03</pdfrwt>
<pdfrwt beam="2">  1       -1 0.81490732E-01 0.90111629E+03</pdfrwt>
<totfact> 0.54691654E+00</totfact>
</mgrwt>
</event>
<event>
 4    1  0.3712574E-007  0.7124790E+03  0.7818608E-02  0.9948908E-01
         -1   -1    0    0    0  501 -0.00000000000E+00  0.00000000000E+00  0.43536248651E+03  0.43536248654E+03  0.50400000000E-02 0.  1.
          1   -1    0    0  501    0  0.00000000000E+00 -0.00000000000E+00 -0.84598212117E+03  0.84598212118E+03  0.50400000000E-02 0. -1.
    8880023    1    1    2    0    0  0.23349796106E+03 -0.13890557770E+03  0.61976007430E+02  0.71516941286E+03  0.65864270000E+03 0.  1.
    8880022    1    1    2    0    0 -0.23349796106E+03  0.13890557770E+03 -0.47259564209E+03  0.56617519486E+03  0.15294330000E+03 0.  0.
<mgrwt>
<rscale>  0 0.57948423E+03</rscale>
<asrwt>0</asrwt>
<pdfrwt beam="1">  1        1 0.13015110E+00 0.71247896E+03</pdfrwt>
<pdfrwt beam="2">  1       -1 0.66978844E-01 0.71247896E+03</pdfrwt>
<totfact> 0.46824365E+01</totfact>
</mgrwt>
</event>
<event>
 4    1  0.3712574E-007  0.6595298E+03  0.7818608E-02  0.1024643E+00
          1   -1    0    0  501    0  0.00000000000E+00  0.00000000000E+00  0.97900476751E+02  0.97900476881E+02  0.50400000000E-02 0. -1.
         -1   -1    0    0    0  501 -0.00000000000E+00 -0.00000000000E+00 -0.18999302177E+04  0.18999302177E+04  0.50400000000E-02 0.  1.
    8880023    1    1    2    0    0 -0.27291017921E+02  0.20604671143E+02 -0.16604199521E+04  0.17866096316E+04  0.65864270000E+03 0.  1.
    8880022    1    1    2    0    0  0.27291017921E+02 -0.20604671143E+02 -0.14160978881E+03  0.21122106295E+03  0.15294330000E+03 0.  0.
<mgrwt>
<rscale>  0 0.46047556E+03</rscale>
<asrwt>0</asrwt>
<pdfrwt beam="1">  1        1 0.15061613E-01 0.65952980E+03</pdfrwt>
<pdfrwt beam="2">  1       -1 0.29229693E+00 0.65952980E+03</pdfrwt>
<totfact> 0.14935008E+01</totfact>
</mgrwt>
</event>
<event>
 4    1  0.3712574E-007  0.7022363E+03  0.7818608E-02  0.9988047E-01
          1   -1    0    0  501    0  0.00000000000E+00  0.00000000000E+00  0.53025921696E+03  0.53025921698E+03  0.50400000000E-02 0. -1.
         -1   -1    0    0    0  501 -0.00000000000E+00 -0.00000000000E+00 -0.56466422540E+03  0.56466422542E+03  0.50400000000E-02 0.  1.
    8880023    1    1    2    0    0 -0.23231907449E+03  0.73167701574E+02 -0.23919571888E+03  0.74185609327E+03  0.65864270000E+03 0.  0.
    8880022    1    1    2    0    0  0.23231907449E+03 -0.73167701574E+02  0.20479071045E+03  0.35306734913E+03  0.15294330000E+03 0.  0.
<mgrwt>
<rscale>  0 0.56177451E+03</rscale>
<asrwt>0</asrwt>
<pdfrwt beam="1">  1        1 0.81578341E-01 0.70223634E+03</pdfrwt>
<pdfrwt beam="2">  1       -1 0.86871420E-01 0.70223634E+03</pdfrwt>
<totfact> 0.54668303E+01</totfact>
</mgrwt>
</event>
<event>
 4    1  0.3712574E-007  0.8198116E+03  0.7818608E-02  0.9669491E-01
         -1   -1    0    0    0  501 -0.00000000000E+00  0.00000000000E+00  0.47929567659E+03  0.47929567662E+03  0.50400000000E-02 0.  1.
          1   -1    0    0  501    0  0.00000000000E+00 -0.00000000000E+00 -0.92463836382E+03  0.92463836384E+03  0.50400000000E-02 0. -1.
    8880023    1    1    2    0    0  0.43950673176E+02 -0.48615759358E+03 -0.28157304257E+03  0.86681858081E+03  0.65864270000E+03 0.  1.
    8880022    1    1    2    0    0 -0.43950673176E+02  0.48615759358E+03 -0.16376964466E+03  0.53711545965E+03  0.15294330000E+03 0. -1.
<mgrwt>
<rscale>  0 0.72862709E+03</rscale>
<asrwt>0</asrwt>
<pdfrwt beam="1">  1        1 0.14225206E+00 0.81981161E+03</pdfrwt>
<pdfrwt beam="2">  1       -1 0.73737797E-01 0.81981161E+03</pdfrwt>
<totfact> 0.32785307E+01</totfact>
</mgrwt>
</event>
<event>
 4    1  0.3712574E-007  0.1107994E+04  0.7818608E-02  0.9252208E-01
         -1   -1    0    0    0  501 -0.00000000000E+00  0.00000000000E+00  0.87438102047E+03  0.87438102049E+03  0.50400000000E-02 0.  1.
          1   -1    0    0  501    0  0.00000000000E+00 -0.00000000000E+00 -0.14924279107E+04  0.14924279107E+04  0.50400000000E-02 0. -1.
    8880023    1    1    2    0    0  0.25999108785E+03  0.85219992435E+03  0.22510652267E+03  0.11306295722E+04  0.65864270000E+03 0.  0.
    8880022    1    1    2    0    0 -0.25999108785E+03 -0.85219992435E+03 -0.84315341293E+03  0.12361793590E+04  0.15294330000E+03 0.  0.
<mgrwt>
<rscale>  0 0.10530431E+04</rscale>
<asrwt>0</asrwt>
<pdfrwt beam="1">  1        1 0.22960429E+00 0.11079938E+04</pdfrwt>
<pdfrwt beam="2">  1       -1 0.13452016E+00 0.11079938E+04</pdfrwt>
<totfact> 0.30535347E+00</totfact>
</mgrwt>
</event>
<event>
 4    1  0.3712574E-007  0.7640374E+03  0.7818608E-02  0.9794765E-01
          1   -1    0    0  501    0  0.00000000000E+00  0.00000000000E+00  0.86385415519E+03  0.86385415521E+03  0.50400000000E-02 0. -1.
         -1   -1    0    0    0  501 -0.00000000000E+00 -0.00000000000E+00 -0.47646130647E+03  0.47646130650E+03  0.50400000000E-02 0.  1.
    8880023    1    1    2    0    0  0.17760392291E+03  0.34409264359E+03  0.49490784509E+03  0.91032240564E+03  0.65864270000E+03 0.  0.
    8880022    1    1    2    0    0 -0.17760392291E+03 -0.34409264359E+03 -0.10751499637E+03  0.42999305607E+03  0.15294330000E+03 0.  0.
<mgrwt>
<rscale>  0 0.65644236E+03</rscale>
<asrwt>0</asrwt>
<pdfrwt beam="1">  1        1 0.13290064E+00 0.76403737E+03</pdfrwt>
<pdfrwt beam="2">  1       -1 0.73301740E-01 0.76403737E+03</pdfrwt>
<totfact> 0.37422429E+01</totfact>
</mgrwt>
</event>
<event>
 4    1  0.3712574E-007  0.9697170E+03  0.7818608E-02  0.9422296E-01
          1   -1    0    0  501    0  0.00000000000E+00  0.00000000000E+00  0.12727151776E+04  0.12727151776E+04  0.50400000000E-02 0. -1.
         -1   -1    0    0    0  501 -0.00000000000E+00 -0.00000000000E+00 -0.89591859647E+03  0.89591859649E+03  0.50400000000E-02 0.  1.
    8880023    1    1    2    0    0  0.36197933862E+03 -0.61279023229E+03 -0.44828313458E+03  0.10683205911E+04  0.65864270000E+03 0.  0.
    8880022    1    1    2    0    0 -0.36197933862E+03  0.61279023229E+03  0.82507971574E+03  0.11003131830E+04  0.15294330000E+03 0.  0.
<mgrwt>
<rscale>  0 0.90263328E+03</rscale>
<asrwt>0</asrwt>
<pdfrwt beam="1">  1        1 0.19580233E+00 0.96971703E+03</pdfrwt>
<pdfrwt beam="2">  1       -1 0.13783363E+00 0.96971703E+03</pdfrwt>
<totfact> 0.41622969E+00</totfact>
</mgrwt>
</event>
<event>
 4    1  0.3712574E-007  0.6587499E+03  0.7818608E-02  0.1025475E+00
         -1   -1    0    0    0  501 -0.00000000000E+00  0.00000000000E+00  0.48347296828E+03  0.48347296830E+03  0.50400000000E-02 0.  1.
          1   -1    0    0  501    0  0.00000000000E+00 -0.00000000000E+00 -0.12575592002E+04  0.12575592002E+04  0.50400000000E-02 0. -1.
    8880023    1    1    2    0    0  0.65276519632E+01  0.99315426270E+01  0.25068951817E+03  0.70483805698E+03  0.65864270000E+03 0.  1.
    8880022    1    1    2    0    0 -0.65276519632E+01 -0.99315426270E+01 -0.10247757501E+04  0.10361941115E+04  0.15294330000E+03 0.  0.
<mgrwt>
<rscale>  0 0.45761459E+03</rscale>
<asrwt>0</asrwt>
<pdfrwt beam="1">  1        1 0.19347065E+00 0.65874992E+03</pdfrwt>
<pdfrwt beam="2">  1       -1 0.74380457E-01 0.65874992E+03</pdfrwt>
<totfact> 0.18454502E+01</totfact>
</mgrwt>
</event>
<event>
 4    1  0.3712574E-007  0.8413154E+03  0.7818608E-02  0.9627705E-01
         -1   -1    0    0    0  501 -0.00000000000E+00  0.00000000000E+00  0.31047920534E+03  0.31047920538E+03  0.50400000000E-02 0.  1.
          1   -1    0    0  501    0  0.00000000000E+00 -0.00000000000E+00 -0.18492199305E+04  0.18492199305E+04  0.50400000000E-02 0. -1.
    8880023    1    1    2    0    0  0.46607444139E+03 -0.23827733673E+03 -0.47961555043E+03  0.96842281912E+03  0.65864270000E+03 0. -1.
    8880022    1    1    2    0    0 -0.46607444139E+03  0.23827733673E+03 -0.10591251747E+04  0.11912763168E+04  0.15294330000E+03 0.  1.
<mgrwt>
<rscale>  0 0.75489320E+03</rscale>
<asrwt>0</asrwt>
<pdfrwt beam="1">  1        1 0.28449537E+00 0.84131545E+03</pdfrwt>
<pdfrwt beam="2">  1       -1 0.47766033E-01 0.84131545E+03</pdfrwt>
<totfact> 0.16966320E+01</totfact>
</mgrwt>
</event>
<event>
 4    1  0.3712574E-007  0.1125538E+04  0.7818608E-02  0.9233141E-01
         -1   -1    0    0    0  501 -0.00000000000E+00  0.00000000000E+00  0.83680834732E+03  0.83680834733E+03  0.50400000000E-02 0.  1.
          1   -1    0    0  501    0  0.00000000000E+00 -0.00000000000E+00 -0.13308965948E+04  0.13308965948E+04  0.50400000000E-02 0. -1.
    8880023    1    1    2    0    0 -0.86150838521E+03 -0.30137986407E+03 -0.52456409952E+03  0.12417746257E+04  0.65864270000E+03 0.  0.
    8880022    1    1    2    0    0  0.86150838521E+03  0.30137986407E+03  0.30475852081E+02  0.92593031640E+03  0.15294330000E+03 0.  0.
<mgrwt>
<rscale>  0 0.10717808E+04</rscale>
<asrwt>0</asrwt>
<pdfrwt beam="1">  1        1 0.20475332E+00 0.11255384E+04</pdfrwt>
<pdfrwt beam="2">  1       -1 0.12873975E+00 0.11255384E+04</pdfrwt>
<totfact> 0.44235708E+00</totfact>
</mgrwt>
</event>
<event>
 4    1  0.3712574E-007  0.7403979E+03  0.7818608E-02  0.9858790E-01
          1   -1    0    0  501    0  0.00000000000E+00  0.00000000000E+00  0.92078912870E+03  0.92078912872E+03  0.50400000000E-02 0. -1.
         -1   -1    0    0    0  501 -0.00000000000E+00 -0.00000000000E+00 -0.43601632545E+03  0.43601632548E+03  0.50400000000E-02 0.  1.
    8880023    1    1    2    0    0  0.30777676551E+03  0.14018655958E+03 -0.73078621004E+01  0.74043394033E+03  0.65864270000E+03 0.  1.
    8880022    1    1    2    0    0 -0.30777676551E+03 -0.14018655958E+03  0.49208066536E+03  0.61637151387E+03  0.15294330000E+03 0.  0.
<mgrwt>
<rscale>  0 0.62300766E+03</rscale>
<asrwt>0</asrwt>
<pdfrwt beam="1">  1        1 0.14165987E+00 0.74039788E+03</pdfrwt>
<pdfrwt beam="2">  1       -1 0.67079435E-01 0.74039788E+03</pdfrwt>
<totfact> 0.40410812E+01</totfact>
</mgrwt>
</event>
<event>
 4    1  0.3712574E-007  0.7084953E+03  0.7818608E-02  0.9963631E-01
          1   -1    0    0  501    0  0.00000000000E+00  0.00000000000E+00  0.22199131993E+03  0.22199131998E+03  0.50400000000E-02 0. -1.
         -1   -1    0    0    0  501 -0.00000000000E+00 -0.00000000000E+00 -0.12323198857E+04  0.12323198857E+04  0.50400000000E-02 0.  1.
    8880023    1    1    2    0    0 -0.21675912088E+03  0.14550210015E+03 -0.86655273470E+03  0.11193208771E+04  0.65864270000E+03 0.  0.
    8880022    1    1    2    0    0  0.21675912088E+03 -0.14550210015E+03 -0.14377583106E+03  0.33499032858E+03  0.15294330000E+03 0.  0.
<mgrwt>
<rscale>  0 0.57274098E+03</rscale>
<asrwt>0</asrwt>
<pdfrwt beam="1">  1        1 0.34152511E-01 0.70849530E+03</pdfrwt>
<pdfrwt beam="2">  1       -1 0.18958767E+00 0.70849530E+03</pdfrwt>
<totfact> 0.23766954E+01</totfact>
</mgrwt>
</event>
<event>
 4    1  0.3712574E-007  0.7126303E+03  0.7818608E-02  0.9948360E-01
         -1   -1    0    0    0  501 -0.00000000000E+00  0.00000000000E+00  0.15556105672E+03  0.15556105680E+03  0.50400000000E-02 0.  1.
          1   -1    0    0  501    0  0.00000000000E+00 -0.00000000000E+00 -0.19012658642E+04  0.19012658642E+04  0.50400000000E-02 0. -1.
    8880023    1    1    2    0    0  0.24048265118E+03  0.12727829320E+03 -0.85515728982E+03  0.11131647973E+04  0.65864270000E+03 0.  1.
    8880022    1    1    2    0    0 -0.24048265118E+03 -0.12727829320E+03 -0.89054751768E+03  0.94366212369E+03  0.15294330000E+03 0.  0.
<mgrwt>
<rscale>  0 0.57973705E+03</rscale>
<asrwt>0</asrwt>
<pdfrwt beam="1">  1        1 0.29250242E+00 0.71263025E+03</pdfrwt>
<pdfrwt beam="2">  1       -1 0.23932472E-01 0.71263025E+03</pdfrwt>
<totfact> 0.54375876E+01</totfact>
</mgrwt>
</event>
<event>
 4    1  0.3712574E-007  0.8000114E+03  0.7818608E-02  0.9710771E-01
         -1   -1    0    0    0  501 -0.00000000000E+00  0.00000000000E+00  0.26714763473E+03  0.26714763478E+03  0.50400000000E-02 0.  1.
          1   -1    0    0  501    0  0.00000000000E+00 -0.00000000000E+00 -0.16538009871E+04  0.16538009871E+04  0.50400000000E-02 0. -1.
    8880023    1    1    2    0    0 -0.10526716514E+02 -0.45397935421E+03 -0.60062830144E+03  0.10003862397E+04  0.65864270000E+03 0.  0.
    8880022    1    1    2    0    0  0.10526716514E+02  0.45397935421E+03 -0.78602505089E+03  0.92056238216E+03  0.15294330000E+03 0.  0.
<mgrwt>
<rscale>  0 0.70379076E+03</rscale>
<asrwt>0</asrwt>
<pdfrwt beam="1">  1        1 0.25443092E+00 0.80001142E+03</pdfrwt>
<pdfrwt beam="2">  1       -1 0.41099637E-01 0.80001142E+03</pdfrwt>
<totfact> 0.30509635E+01</totfact>
</mgrwt>
</event>
<event>
 4    1  0.3712574E-007  0.8364187E+03  0.7818608E-02  0.9636970E-01
         -1   -1    0    0    0  501 -0.00000000000E+00  0.00000000000E+00  0.31419528354E+03  0.31419528358E+03  0.50400000000E-02 0.  1.
          1   -1    0    0  501    0  0.00000000000E+00 -0.00000000000E+00 -0.21137228644E+04  0.21137228644E+04  0.50400000000E-02 0. -1.
    8880023    1    1    2    0    0 -0.46630343441E+03  0.21987971898E+03 -0.39704208459E+03  0.92587180914E+03  0.65864270000E+03 0.  1.
    8880022    1    1    2    0    0  0.46630343441E+03 -0.21987971898E+03 -0.14024854963E+04  0.15020463388E+04  0.15294330000E+03 0.  0.
<mgrwt>
<rscale>  0 0.74896820E+03</rscale>
<asrwt>0</asrwt>
<pdfrwt beam="1">  1        1 0.32518812E+00 0.83641867E+03</pdfrwt>
<pdfrwt beam="2">  1       -1 0.48337737E-01 0.83641867E+03</pdfrwt>
<totfact> 0.11034746E+01</totfact>
</mgrwt>
</event>
<event>
 4    1  0.3712574E-007  0.9387585E+03  0.7818608E-02  0.9466476E-01
         -1   -1    0    0    0  501 -0.00000000000E+00  0.00000000000E+00  0.88532648225E+03  0.88532648227E+03  0.50400000000E-02 0.  1.
          1   -1    0    0  501    0  0.00000000000E+00 -0.00000000000E+00 -0.10578039747E+04  0.10578039747E+04  0.50400000000E-02 0. -1.
    8880023    1    1    2    0    0 -0.19139311864E+03  0.64095706950E+03  0.42761265174E+03  0.10315619598E+04  0.65864270000E+03 0.  0.
    8880022    1    1    2    0    0  0.19139311864E+03 -0.64095706950E+03 -0.60009014415E+03  0.91156849711E+03  0.15294330000E+03 0.  0.
<mgrwt>
<rscale>  0 0.86801176E+03</rscale>
<asrwt>0</asrwt>
<pdfrwt beam="1">  1        1 0.16273907E+00 0.93875849E+03</pdfrwt>
<pdfrwt beam="2">  1       -1 0.13620407E+00 0.93875849E+03</pdfrwt>
<totfact> 0.62057456E+00</totfact>
</mgrwt>
</event>
<event>
 4    1  0.3712574E-007  0.1187439E+04  0.7818608E-02  0.9169430E-01
         -1   -1    0    0    0  501 -0.00000000000E+00  0.00000000000E+00  0.23197179672E+04  0.23197179672E+04  0.50400000000E-02 0.  1.
          1   -1    0    0  501    0  0.00000000000E+00 -0.00000000000E+00 -0.52083107532E+03  0.52083107534E+03  0.50400000000E-02 0. -1.
    8880023    1    1    2    0    0 -0.11228770270E+03 -0.98162795667E+03  0.11179158100E+04  0.16308733666E+04  0.65864270000E+03 0. -1.
    8880022    1    1    2    0    0  0.11228770270E+03  0.98162795667E+03  0.68097108188E+03  0.12096756759E+04  0.15294330000E+03 0.  1.
<mgrwt>
<rscale>  0 0.11374610E+04</rscale>
<asrwt>0</asrwt>
<pdfrwt beam="1">  1        1 0.80127858E-01 0.11874393E+04</pdfrwt>
<pdfrwt beam="2">  1       -1 0.35687969E+00 0.11874393E+04</pdfrwt>
<totfact> 0.58354939E-01</totfact>
</mgrwt>
</event>
<event>
 4    1  0.3712574E-007  0.6687809E+03  0.7818608E-02  0.1016552E+00
          1   -1    0    0  501    0  0.00000000000E+00  0.00000000000E+00  0.49661927915E+03  0.49661927918E+03  0.50400000000E-02 0. -1.
         -1   -1    0    0    0  501 -0.00000000000E+00 -0.00000000000E+00 -0.45005973621E+03  0.45005973624E+03  0.50400000000E-02 0.  1.
    8880023    1    1    2    0    0 -0.68131905621E+02 -0.93892081672E+02 -0.13521092510E+03  0.68231215737E+03  0.65864270000E+03 0.  1.
    8880022    1    1    2    0    0  0.68131905621E+02  0.93892081672E+02  0.18177046804E+03  0.26436685804E+03  0.15294330000E+03 0.  0.
<mgrwt>
<rscale>  0 0.48951567E+03</rscale>
<asrwt>0</asrwt>
<pdfrwt beam="1">  1        1 0.76402965E-01 0.66878090E+03</pdfrwt>
<pdfrwt beam="2">  1       -1 0.69239960E-01 0.66878090E+03</pdfrwt>
<totfact> 0.96660261E+01</totfact>
</mgrwt>
</event>
<event>
 4    1  0.3712574E-007  0.6613300E+03  0.7818608E-02  0.1022833E+00
          1   -1    0    0  501    0  0.00000000000E+00  0.00000000000E+00  0.31396686797E+03  0.31396686801E+03  0.50400000000E-02 0. -1.
         -1   -1    0    0    0  501 -0.00000000000E+00 -0.00000000000E+00 -0.74093985940E+03  0.74093985942E+03  0.50400000000E-02 0.  1.
    8880023    1    1    2    0    0 -0.16556539679E+02 -0.57210767831E+02 -0.54152409646E+03  0.85475478605E+03  0.65864270000E+03 0.  1.
    8880022    1    1    2    0    0  0.16556539679E+02  0.57210767831E+02  0.11455110502E+03  0.20015194138E+03  0.15294330000E+03 0.  0.
<mgrwt>
<rscale>  0 0.46677872E+03</rscale>
<asrwt>0</asrwt>
<pdfrwt beam="1">  1        1 0.48302595E-01 0.66133002E+03</pdfrwt>
<pdfrwt beam="2">  1       -1 0.11399075E+00 0.66133002E+03</pdfrwt>
<totfact> 0.59447130E+01</totfact>
</mgrwt>
</event>
<event>
 4    1  0.3712574E-007  0.6605659E+03  0.7818608E-02  0.1023584E+00
         -1   -1    0    0    0  501 -0.00000000000E+00  0.00000000000E+00  0.34567923983E+03  0.34567923987E+03  0.50400000000E-02 0.  1.
          1   -1    0    0  501    0  0.00000000000E+00 -0.00000000000E+00 -0.12980117075E+04  0.12980117075E+04  0.50400000000E-02 0. -1.
    8880023    1    1    2    0    0  0.36451167909E+02  0.34762932912E+02  0.17286716356E+02  0.66079208982E+03  0.65864270000E+03 0.  1.
    8880022    1    1    2    0    0 -0.36451167909E+02 -0.34762932912E+02 -0.96961918406E+03  0.98289885760E+03  0.15294330000E+03 0.  0.
<mgrwt>
<rscale>  0 0.46415169E+03</rscale>
<asrwt>0</asrwt>
<pdfrwt beam="1">  1        1 0.19969411E+00 0.66056594E+03</pdfrwt>
<pdfrwt beam="2">  1       -1 0.53181422E-01 0.66056594E+03</pdfrwt>
<totfact> 0.33672663E+01</totfact>
</mgrwt>
</event>
<event>
 4    1  0.3712574E-007  0.7071637E+03  0.7818608E-02  0.9968688E-01
          1   -1    0    0  501    0  0.00000000000E+00  0.00000000000E+00  0.12131995054E+04  0.12131995054E+04  0.50400000000E-02 0. -1.
         -1   -1    0    0    0  501 -0.00000000000E+00 -0.00000000000E+00 -0.37671395998E+03  0.37671396001E+03  0.50400000000E-02 0.  1.
    8880023    1    1    2    0    0 -0.12606392811E+03 -0.22445074325E+03  0.61007922530E+01  0.70718998582E+03  0.65864270000E+03 0.  1.
    8880022    1    1    2    0    0  0.12606392811E+03  0.22445074325E+03  0.83038475315E+03  0.88272347958E+03  0.15294330000E+03 0.  0.
<mgrwt>
<rscale>  0 0.57044785E+03</rscale>
<asrwt>0</asrwt>
<pdfrwt beam="1">  1        1 0.18664608E+00 0.70716367E+03</pdfrwt>
<pdfrwt beam="2">  1       -1 0.57955992E-01 0.70716367E+03</pdfrwt>
<totfact> 0.32581989E+01</totfact>
</mgrwt>
</event>
<event>
 4    1  0.3712574E-007  0.8232302E+03  0.7818608E-02  0.9662651E-01
          1   -1    0    0  501    0  0.00000000000E+00  0.00000000000E+00  0.11989720138E+04  0.11989720138E+04  0.50400000000E-02 0. -1.
         -1   -1    0    0    0  501 -0.00000000000E+00 -0.00000000000E+00 -0.50885912608E+03  0.50885912611E+03  0.50400000000E-02 0.  1.
    8880023    1    1    2    0    0 -0.48187246441E+03 -0.10815155481E+03 -0.27130941677E+02  0.82367719710E+03  0.65864270000E+03 0.  0.
    8880022    1    1    2    0    0  0.48187246441E+03  0.10815155481E+03  0.71724382936E+03  0.88415394278E+03  0.15294330000E+03 0.  0.
<mgrwt>
<rscale>  0 0.73284769E+03</rscale>
<asrwt>0</asrwt>
<pdfrwt beam="1">  1        1 0.18445723E+00 0.82323025E+03</pdfrwt>
<pdfrwt beam="2">  1       -1 0.78286019E-01 0.82323025E+03</pdfrwt>
<totfact> 0.17877785E+01</totfact>
</mgrwt>
</event>
<event>
 4    1  0.3712574E-007  0.7590807E+03  0.7818608E-02  0.9807493E-01
          1   -1    0    0  501    0  0.00000000000E+00  0.00000000000E+00  0.46696543147E+03  0.46696543149E+03  0.50400000000E-02 0. -1.
         -1   -1    0    0    0  501 -0.00000000000E+00 -0.00000000000E+00 -0.16702675739E+04  0.16702675739E+04  0.50400000000E-02 0.  1.
    8880023    1    1    2    0    0 -0.21534437284E+03  0.30987114676E+03 -0.14672647507E+04  0.16519895222E+04  0.65864270000E+03 0.  1.
    8880022    1    1    2    0    0  0.21534437284E+03 -0.30987114676E+03  0.26396260821E+03  0.48524348327E+03  0.15294330000E+03 0.  0.
<mgrwt>
<rscale>  0 0.64961959E+03</rscale>
<asrwt>0</asrwt>
<pdfrwt beam="1">  1        1 0.71840837E-01 0.75908072E+03</pdfrwt>
<pdfrwt beam="2">  1       -1 0.25696424E+00 0.75908072E+03</pdfrwt>
<totfact> 0.31856305E+00</totfact>
</mgrwt>
</event>
<event>
 4    1  0.3712574E-007  0.6902241E+03  0.7818608E-02  0.1004046E+00
          1   -1    0    0  501    0  0.00000000000E+00  0.00000000000E+00  0.11697667848E+04  0.11697667849E+04  0.50400000000E-02 0. -1.
         -1   -1    0    0    0  501 -0.00000000000E+00 -0.00000000000E+00 -0.60127141315E+03  0.60127141317E+03  0.50400000000E-02 0.  1.
    8880023    1    1    2    0    0 -0.20591577085E+03 -0.14064139989E+02 -0.38031551916E+03  0.78806675168E+03  0.65864270000E+03 0.  1.
    8880022    1    1    2    0    0  0.20591577085E+03  0.14064139989E+02  0.94881089085E+03  0.98297144635E+03  0.15294330000E+03 0.  0.
<mgrwt>
<rscale>  0 0.53911073E+03</rscale>
<asrwt>0</asrwt>
<pdfrwt beam="1">  1        1 0.17996412E+00 0.69022410E+03</pdfrwt>
<pdfrwt beam="2">  1       -1 0.92503295E-01 0.69022410E+03</pdfrwt>
<totfact> 0.13315486E+01</totfact>
</mgrwt>
</event>
<event>
 4    1  0.3712574E-007  0.7568514E+03  0.7818608E-02  0.9813328E-01
         -1   -1    0    0    0  501 -0.00000000000E+00  0.00000000000E+00  0.58652517457E+03  0.58652517459E+03  0.50400000000E-02 0.  1.
          1   -1    0    0  501    0  0.00000000000E+00 -0.00000000000E+00 -0.16278374146E+04  0.16278374146E+04  0.50400000000E-02 0. -1.
    8880023    1    1    2    0    0  0.29532846042E+03  0.22758489401E+03  0.29975747087E+03  0.81405069322E+03  0.65864270000E+03 0.  0.
    8880022    1    1    2    0    0 -0.29532846042E+03 -0.22758489401E+03 -0.13410697109E+04  0.14003118960E+04  0.15294330000E+03 0.  0.
<mgrwt>
<rscale>  0 0.64652157E+03</rscale>
<asrwt>0</asrwt>
<pdfrwt beam="1">  1        1 0.25043652E+00 0.75685137E+03</pdfrwt>
<pdfrwt beam="2">  1       -1 0.90234643E-01 0.75685137E+03</pdfrwt>
<totfact> 0.66774699E+00</totfact>
</mgrwt>
</event>
<event>
 4    1  0.3712574E-007  0.7257098E+03  0.7818608E-02  0.9903719E-01
          1   -1    0    0  501    0  0.00000000000E+00  0.00000000000E+00  0.25425358969E+04  0.25425358969E+04  0.50400000000E-02 0. -1.
         -1   -1    0    0    0  501 -0.00000000000E+00 -0.00000000000E+00 -0.11189961054E+03  0.11189961066E+03  0.50400000000E-02 0.  1.
    8880023    1    1    2    0    0  0.12784791773E+03 -0.27658538796E+03  0.16333323521E+04  0.17872966585E+04  0.65864270000E+03 0.  0.
    8880022    1    1    2    0    0 -0.12784791773E+03  0.27658538796E+03  0.79730393420E+03  0.86713884898E+03  0.15294330000E+03 0. -1.
<mgrwt>
<rscale>  0 0.60081386E+03</rscale>
<asrwt>0</asrwt>
<pdfrwt beam="1">  1        1 0.39115934E+00 0.72570984E+03</pdfrwt>
<pdfrwt beam="2">  1       -1 0.17215326E-01 0.72570984E+03</pdfrwt>
<totfact> 0.34825527E+01</totfact>
</mgrwt>
</event>
<event>
 4    1  0.3712574E-007  0.6702450E+03  0.7818608E-02  0.1015488E+00
         -1   -1    0    0    0  501 -0.00000000000E+00  0.00000000000E+00  0.34131347947E+03  0.34131347951E+03  0.50400000000E-02 0.  1.
          1   -1    0    0  501    0  0.00000000000E+00 -0.00000000000E+00 -0.84925998376E+03  0.84925998378E+03  0.50400000000E-02 0. -1.
    8880023    1    1    2    0    0  0.12140089615E+03  0.26077393931E+02 -0.26938217161E+02  0.67078616702E+03  0.65864270000E+03 0.  1.
    8880022    1    1    2    0    0 -0.12140089615E+03 -0.26077393931E+02 -0.48100828713E+03  0.51978729627E+03  0.15294330000E+03 0.  0.
<mgrwt>
<rscale>  0 0.49350660E+03</rscale>
<asrwt>0</asrwt>
<pdfrwt beam="1">  1        1 0.13065538E+00 0.67024504E+03</pdfrwt>
<pdfrwt beam="2">  1       -1 0.52509766E-01 0.67024504E+03</pdfrwt>
<totfact> 0.75340634E+01</totfact>
</mgrwt>
</event>
<event>
 4    1  0.3712574E-007  0.1829103E+04  0.7818608E-02  0.8706606E-01
         -1   -1    0    0    0  501 -0.00000000000E+00  0.00000000000E+00  0.14611528033E+04  0.14611528033E+04  0.50400000000E-02 0.  1.
          1   -1    0    0  501    0  0.00000000000E+00 -0.00000000000E+00 -0.32919779042E+04  0.32919779042E+04  0.50400000000E-02 0. -1.
    8880023    1    1    2    0    0 -0.44423105333E+03  0.16475639277E+04 -0.23360542517E+04  0.29669458704E+04  0.65864270000E+03 0.  0.
    8880022    1    1    2    0    0  0.44423105333E+03 -0.16475639277E+04  0.50522915081E+03  0.17861848372E+04  0.15294330000E+03 0.  0.
<mgrwt>
<rscale>  0 0.17994234E+04</rscale>
<asrwt>0</asrwt>
<pdfrwt beam="1">  1        1 0.50645814E+00 0.18291031E+04</pdfrwt>
<pdfrwt beam="2">  1       -1 0.22479274E+00 0.18291031E+04</pdfrwt>
<totfact> 0.33637601E-02</totfact>
</mgrwt>
</event>
<event>
 4    1  0.3712574E-007  0.7281799E+03  0.7818608E-02  0.9895821E-01
          1   -1    0    0  501    0  0.00000000000E+00  0.00000000000E+00  0.16331745733E+04  0.16331745733E+04  0.50400000000E-02 0. -1.
         -1   -1    0    0    0  501 -0.00000000000E+00 -0.00000000000E+00 -0.26973650713E+03  0.26973650718E+03  0.50400000000E-02 0.  1.
    8880023    1    1    2    0    0 -0.28035701822E+03 -0.13355046450E+03  0.30530174499E+03  0.78959175907E+03  0.65864270000E+03 0.  0.
    8880022    1    1    2    0    0  0.28035701822E+03  0.13355046450E+03  0.10581363211E+04  0.11133193214E+04  0.15294330000E+03 0.  0.
<mgrwt>
<rscale>  0 0.60464234E+03</rscale>
<asrwt>0</asrwt>
<pdfrwt beam="1">  1        1 0.25125763E+00 0.72817992E+03</pdfrwt>
<pdfrwt beam="2">  1       -1 0.41497923E-01 0.72817992E+03</pdfrwt>
<totfact> 0.31223437E+01</totfact>
</mgrwt>
</event>
<event>
 4    1  0.3712574E-007  0.8610148E+03  0.7818608E-02  0.9591761E-01
          1   -1    0    0  501    0  0.00000000000E+00  0.00000000000E+00  0.14756911403E+04  0.14756911403E+04  0.50400000000E-02 0. -1.
         -1   -1    0    0    0  501 -0.00000000000E+00 -0.00000000000E+00 -0.84095512232E+03  0.84095512234E+03  0.50400000000E-02 0.  1.
    8880023    1    1    2    0    0 -0.51736260189E+03  0.19968037450E+03 -0.53459059793E+03  0.10134760123E+04  0.65864270000E+03 0.  0.
    8880022    1    1    2    0    0  0.51736260189E+03 -0.19968037450E+03  0.11693266159E+04  0.13031702504E+04  0.15294330000E+03 0.  0.
<mgrwt>
<rscale>  0 0.77843912E+03</rscale>
<asrwt>0</asrwt>
<pdfrwt beam="1">  1        1 0.22702940E+00 0.86101482E+03</pdfrwt>
<pdfrwt beam="2">  1       -1 0.12937771E+00 0.86101482E+03</pdfrwt>
<totfact> 0.35774922E+00</totfact>
</mgrwt>
</event>
<event>
 4    1  0.3712574E-007  0.7441579E+03  0.7818608E-02  0.9847997E-01
          1   -1    0    0  501    0  0.00000000000E+00  0.00000000000E+00  0.10850543760E+04  0.10850543760E+04  0.50400000000E-02 0. -1.
         -1   -1    0    0    0  501 -0.00000000000E+00 -0.00000000000E+00 -0.20471246357E+04  0.20471246357E+04  0.50400000000E-02 0.  1.
    8880023    1    1    2    0    0 -0.17031324721E+03 -0.30158611618E+03 -0.19430459355E+04  0.20806726079E+04  0.65864270000E+03 0.  1.
    8880022    1    1    2    0    0  0.17031324721E+03  0.30158611618E+03  0.98097567580E+03  0.10515064038E+04  0.15294330000E+03 0.  0.
<mgrwt>
<rscale>  0 0.62849158E+03</rscale>
<asrwt>0</asrwt>
<pdfrwt beam="1">  1        1 0.16693144E+00 0.74415791E+03</pdfrwt>
<pdfrwt beam="2">  1       -1 0.31494225E+00 0.74415791E+03</pdfrwt>
<totfact> 0.36717837E-01</totfact>
</mgrwt>
</event>
<event>
 4    1  0.3712574E-007  0.7175512E+03  0.7818608E-02  0.9930961E-01
          1   -1    0    0  501    0  0.00000000000E+00  0.00000000000E+00  0.95980210632E+03  0.95980210633E+03  0.50400000000E-02 0. -1.
         -1   -1    0    0    0  501 -0.00000000000E+00 -0.00000000000E+00 -0.33982869536E+03  0.33982869540E+03  0.50400000000E-02 0.  1.
    8880023    1    1    2    0    0  0.27427300746E+03 -0.76445072316E+02  0.15621591066E+03  0.73435900533E+03  0.65864270000E+03 0.  1.
    8880022    1    1    2    0    0 -0.27427300746E+03  0.76445072316E+02  0.46375750030E+03  0.56527179640E+03  0.15294330000E+03 0.  0.
<mgrwt>
<rscale>  0 0.58783988E+03</rscale>
<asrwt>0</asrwt>
<pdfrwt beam="1">  1        1 0.14766186E+00 0.71755121E+03</pdfrwt>
<pdfrwt beam="2">  1       -1 0.52281338E-01 0.71755121E+03</pdfrwt>
<totfact> 0.61526166E+01</totfact>
</mgrwt>
</event>
<event>
 4    1  0.3712574E-007  0.8827729E+03  0.7818608E-02  0.9554272E-01
          1   -1    0    0  501    0  0.00000000000E+00  0.00000000000E+00  0.98525593454E+03  0.98525593455E+03  0.50400000000E-02 0. -1.
         -1   -1    0    0    0  501 -0.00000000000E+00 -0.00000000000E+00 -0.75703911028E+03  0.75703911029E+03  0.50400000000E-02 0.  1.
    8880023    1    1    2    0    0  0.32285691443E+03 -0.49116318896E+03 -0.30511810855E+03  0.93401559506E+03  0.65864270000E+03 0. -1.
    8880022    1    1    2    0    0 -0.32285691443E+03  0.49116318896E+03  0.53333493281E+03  0.80827944979E+03  0.15294330000E+03 0.  0.
<mgrwt>
<rscale>  0 0.80398113E+03</rscale>
<asrwt>0</asrwt>
<pdfrwt beam="1">  1        1 0.15157784E+00 0.88277294E+03</pdfrwt>
<pdfrwt beam="2">  1       -1 0.11646756E+00 0.88277294E+03</pdfrwt>
<totfact> 0.10502670E+01</totfact>
</mgrwt>
</event>
<event>
 4    1  0.3712574E-007  0.7217907E+03  0.7818608E-02  0.9916573E-01
          1   -1    0    0  501    0  0.00000000000E+00  0.00000000000E+00  0.11481856654E+04  0.11481856654E+04  0.50400000000E-02 0. -1.
         -1   -1    0    0    0  501 -0.00000000000E+00 -0.00000000000E+00 -0.51235589927E+03  0.51235589929E+03  0.50400000000E-02 0.  1.
    8880023    1    1    2    0    0  0.25161491595E+03 -0.15447182092E+03 -0.20998488790E+03  0.75171501834E+03  0.65864270000E+03 0.  1.
    8880022    1    1    2    0    0 -0.25161491595E+03  0.15447182092E+03  0.84581465407E+03  0.90882654640E+03  0.15294330000E+03 0.  0.
<mgrwt>
<rscale>  0 0.59464780E+03</rscale>
<asrwt>0</asrwt>
<pdfrwt beam="1">  1        1 0.17664395E+00 0.72179070E+03</pdfrwt>
<pdfrwt beam="2">  1       -1 0.78823985E-01 0.72179070E+03</pdfrwt>
<totfact> 0.19431619E+01</totfact>
</mgrwt>
</event>
<event>
 4    1  0.3712574E-007  0.6655668E+03  0.7818608E-02  0.1019063E+00
          1   -1    0    0  501    0  0.00000000000E+00  0.00000000000E+00  0.18745193033E+04  0.18745193033E+04  0.50400000000E-02 0. -1.
         -1   -1    0    0    0  501 -0.00000000000E+00 -0.00000000000E+00 -0.11053836477E+03  0.11053836489E+03  0.50400000000E-02 0.  1.
    8880023    1    1    2    0    0 -0.82004814987E+02 -0.49438736322E+02  0.10084991163E+04  0.12083251434E+04  0.65864270000E+03 0.  1.
    8880022    1    1    2    0    0  0.82004814987E+02  0.49438736322E+02  0.75548182226E+03  0.77673252481E+03  0.15294330000E+03 0.  0.
<mgrwt>
<rscale>  0 0.48026435E+03</rscale>
<asrwt>0</asrwt>
<pdfrwt beam="1">  1        1 0.28838758E+00 0.66556681E+03</pdfrwt>
<pdfrwt beam="2">  1       -1 0.17005903E-01 0.66556681E+03</pdfrwt>
<totfact> 0.10065786E+02</totfact>
</mgrwt>
</event>
<event>
 4    1  0.3712574E-007  0.9864462E+03  0.7818608E-02  0.9399509E-01
         -1   -1    0    0    0  501 -0.00000000000E+00  0.00000000000E+00  0.92767151368E+03  0.92767151369E+03  0.50400000000E-02 0.  1.
          1   -1    0    0  501    0  0.00000000000E+00 -0.00000000000E+00 -0.12359981678E+04  0.12359981679E+04  0.50400000000E-02 0. -1.
    8880023    1    1    2    0    0 -0.14630790957E+03  0.71962489484E+03  0.46129125702E+03  0.10889746663E+04  0.65864270000E+03 0.  0.
    8880022    1    1    2    0    0  0.14630790957E+03 -0.71962489484E+03 -0.76961791118E+03  0.10746950153E+04  0.15294330000E+03 0.  0.
<mgrwt>
<rscale>  0 0.92116112E+03</rscale>
<asrwt>0</asrwt>
<pdfrwt beam="1">  1        1 0.19015356E+00 0.98644625E+03</pdfrwt>
<pdfrwt beam="2">  1       -1 0.14271869E+00 0.98644625E+03</pdfrwt>
<totfact> 0.40293088E+00</totfact>
</mgrwt>
</event>
<event>
 4    1  0.3712574E-007  0.1132323E+04  0.7818608E-02  0.9225894E-01
         -1   -1    0    0    0  501 -0.00000000000E+00  0.00000000000E+00  0.10850860339E+04  0.10850860339E+04  0.50400000000E-02 0.  1.
          1   -1    0    0  501    0  0.00000000000E+00 -0.00000000000E+00 -0.10481564058E+04  0.10481564058E+04  0.50400000000E-02 0. -1.
    8880023    1    1    2    0    0 -0.47366799130E+03 -0.78992688952E+03 -0.24382090980E+03  0.11582766073E+04  0.65864270000E+03 0.  0.
    8880022    1    1    2    0    0  0.47366799130E+03  0.78992688952E+03  0.28075053794E+03  0.97496583239E+03  0.15294330000E+03 0.  0.
<mgrwt>
<rscale>  0 0.10790114E+04</rscale>
<asrwt>0</asrwt>
<pdfrwt beam="1">  1        1 0.16125483E+00 0.11323233E+04</pdfrwt>
<pdfrwt beam="2">  1       -1 0.16693631E+00 0.11323233E+04</pdfrwt>
<totfact> 0.35568123E+00</totfact>
</mgrwt>
</event>
<event>
 4    1  0.3712574E-007  0.6718453E+03  0.7818608E-02  0.1014373E+00
          1   -1    0    0  501    0  0.00000000000E+00  0.00000000000E+00  0.13621099211E+04  0.13621099211E+04  0.50400000000E-02 0. -1.
         -1   -1    0    0    0  501 -0.00000000000E+00 -0.00000000000E+00 -0.33730646026E+03  0.33730646029E+03  0.50400000000E-02 0.  1.
    8880023    1    1    2    0    0 -0.49214689959E+02 -0.12306039828E+03  0.17593773179E+02  0.67207566125E+03  0.65864270000E+03 0.  1.
    8880022    1    1    2    0    0  0.49214689959E+02  0.12306039828E+03  0.10072096876E+04  0.10273407201E+04  0.15294330000E+03 0.  0.
<mgrwt>
<rscale>  0 0.49772997E+03</rscale>
<asrwt>0</asrwt>
<pdfrwt beam="1">  1        1 0.20955537E+00 0.67184533E+03</pdfrwt>
<pdfrwt beam="2">  1       -1 0.51893301E-01 0.67184533E+03</pdfrwt>
<totfact> 0.31772579E+01</totfact>
</mgrwt>
</event>
<event>
 4    1  0.3712574E-007  0.8684400E+03  0.7818608E-02  0.9578723E-01
         -1   -1    0    0    0  501 -0.00000000000E+00  0.00000000000E+00  0.32781757990E+03  0.32781757993E+03  0.50400000000E-02 0.  1.
          1   -1    0    0  501    0  0.00000000000E+00 -0.00000000000E+00 -0.30388377256E+04  0.30388377256E+04  0.50400000000E-02 0. -1.
    8880023    1    1    2    0    0 -0.56095118973E+03  0.75575634506E+02 -0.35402319561E+03  0.93782756575E+03  0.65864270000E+03 0.  1.
    8880022    1    1    2    0    0  0.56095118973E+03 -0.75575634506E+02 -0.23569969500E+04  0.24288277397E+04  0.15294330000E+03 0.  0.
<mgrwt>
<rscale>  0 0.78720585E+03</rscale>
<asrwt>0</asrwt>
<pdfrwt beam="1">  1        1 0.46751348E+00 0.86844005E+03</pdfrwt>
<pdfrwt beam="2">  1       -1 0.50433476E-01 0.86844005E+03</pdfrwt>
<totfact> 0.23223263E+00</totfact>
</mgrwt>
</event>
<event>
 4    1  0.3712574E-007  0.1298542E+04  0.7818608E-02  0.9066820E-01
          1   -1    0    0  501    0  0.00000000000E+00  0.00000000000E+00  0.11182259935E+04  0.11182259936E+04  0.50400000000E-02 0. -1.
         -1   -1    0    0    0  501 -0.00000000000E+00 -0.00000000000E+00 -0.16377296791E+04  0.16377296791E+04  0.50400000000E-02 0.  1.
    8880023    1    1    2    0    0 -0.11051825070E+04  0.17599065148E+03 -0.88193794587E+03  0.15697215772E+04  0.65864270000E+03 0.  1.
    8880022    1    1    2    0    0  0.11051825070E+04 -0.17599065148E+03  0.36243426027E+03  0.11862340955E+04  0.15294330000E+03 0.  0.
<mgrwt>
<rscale>  0 0.12540490E+04</rscale>
<asrwt>0</asrwt>
<pdfrwt beam="1">  1        1 0.17203477E+00 0.12985420E+04</pdfrwt>
<pdfrwt beam="2">  1       -1 0.25195841E+00 0.12985420E+04</pdfrwt>
<totfact> 0.80688521E-01</totfact>
</mgrwt>
</event>
<event>
 4    1  0.3712574E-007  0.6893044E+03  0.7818608E-02  0.1004485E+00
          1   -1    0    0  501    0  0.00000000000E+00  0.00000000000E+00  0.35148560701E+03  0.35148560704E+03  0.50400000000E-02 0. -1.
         -1   -1    0    0    0  501 -0.00000000000E+00 -0.00000000000E+00 -0.10926901325E+04  0.10926901325E+04  0.50400000000E-02 0.  1.
    8880023    1    1    2    0    0 -0.55925771343E+02 -0.19545494925E+03 -0.90797428009E+03  0.11399815036E+04  0.65864270000E+03 0.  1.
    8880022    1    1    2    0    0  0.55925771343E+02  0.19545494925E+03  0.16676975460E+03  0.30419423590E+03  0.15294330000E+03 0.  0.
<mgrwt>
<rscale>  0 0.53726649E+03</rscale>
<asrwt>0</asrwt>
<pdfrwt beam="1">  1        1 0.54074710E-01 0.68930439E+03</pdfrwt>
<pdfrwt beam="2">  1       -1 0.16810617E+00 0.68930439E+03</pdfrwt>
<totfact> 0.18698117E+01</totfact>
</mgrwt>
</event>
<event>
 4    1  0.3712574E-007  0.9848574E+03  0.7818608E-02  0.9401642E-01
         -1   -1    0    0    0  501 -0.00000000000E+00  0.00000000000E+00  0.69238544086E+03  0.69238544088E+03  0.50400000000E-02 0.  1.
          1   -1    0    0  501    0  0.00000000000E+00 -0.00000000000E+00 -0.14367580806E+04  0.14367580806E+04  0.50400000000E-02 0. -1.
    8880023    1    1    2    0    0 -0.90436929869E+02 -0.72660521236E+03  0.11301589505E+03  0.99132072091E+03  0.65864270000E+03 0.  1.
    8880022    1    1    2    0    0  0.90436929869E+02  0.72660521236E+03 -0.85738853479E+03  0.11378228006E+04  0.15294330000E+03 0.  0.
<mgrwt>
<rscale>  0 0.91940641E+03</rscale>
<asrwt>0</asrwt>
<pdfrwt beam="1">  1        1 0.22103970E+00 0.98485744E+03</pdfrwt>
<pdfrwt beam="2">  1       -1 0.10652084E+00 0.98485744E+03</pdfrwt>
<totfact> 0.60009818E+00</totfact>
</mgrwt>
</event>
<event>
 4    1  0.3712574E-007  0.1426661E+04  0.7818608E-02  0.8963239E-01
          1   -1    0    0  501    0  0.00000000000E+00  0.00000000000E+00  0.34367417381E+04  0.34367417381E+04  0.50400000000E-02 0. -1.
         -1   -1    0    0    0  501 -0.00000000000E+00 -0.00000000000E+00 -0.53969434536E+03  0.53969434538E+03  0.50400000000E-02 0.  1.
    8880023    1    1    2    0    0  0.69603926988E+03 -0.10569198670E+04  0.12744724955E+04  0.19130187189E+04  0.65864270000E+03 0. -1.
    8880022    1    1    2    0    0 -0.69603926988E+03  0.10569198670E+04  0.16225748972E+04  0.20634173646E+04  0.15294330000E+03 0.  1.
<mgrwt>
<rscale>  0 0.13870599E+04</rscale>
<asrwt>0</asrwt>
<pdfrwt beam="1">  1        1 0.52872950E+00 0.14266606E+04</pdfrwt>
<pdfrwt beam="2">  1       -1 0.83029900E-01 0.14266606E+04</pdfrwt>
<totfact> 0.39309665E-01</totfact>
</mgrwt>
</event>
<event>
 4    1  0.3712574E-007  0.7414380E+03  0.7818608E-02  0.9855778E-01
         -1   -1    0    0    0  501 -0.00000000000E+00  0.00000000000E+00  0.56757991212E+03  0.56757991214E+03  0.50400000000E-02 0.  1.
          1   -1    0    0  501    0  0.00000000000E+00 -0.00000000000E+00 -0.61000216328E+03  0.61000216331E+03  0.50400000000E-02 0. -1.
    8880023    1    1    2    0    0  0.33849708805E+03  0.36604083014E+02 -0.20680904819E+03  0.76974042780E+03  0.65864270000E+03 0.  0.
    8880022    1    1    2    0    0 -0.33849708805E+03 -0.36604083014E+02  0.16438679702E+03  0.40784164765E+03  0.15294330000E+03 0.  0.
<mgrwt>
<rscale>  0 0.62453190E+03</rscale>
<asrwt>0</asrwt>
<pdfrwt beam="1">  1        1 0.93846486E-01 0.74143802E+03</pdfrwt>
<pdfrwt beam="2">  1       -1 0.87319987E-01 0.74143802E+03</pdfrwt>
<totfact> 0.44172024E+01</totfact>
</mgrwt>
</event>
<event>
 4    1  0.3712574E-007  0.8213629E+03  0.7818608E-02  0.9666377E-01
         -1   -1    0    0    0  501 -0.00000000000E+00  0.00000000000E+00  0.34633548770E+03  0.34633548774E+03  0.50400000000E-02 0.  1.
          1   -1    0    0  501    0  0.00000000000E+00 -0.00000000000E+00 -0.17576262440E+04  0.17576262440E+04  0.50400000000E-02 0. -1.
    8880023    1    1    2    0    0  0.45098385241E+03  0.19349504005E+03 -0.29102335577E+03  0.87139633091E+03  0.65864270000E+03 0.  1.
    8880022    1    1    2    0    0 -0.45098385241E+03 -0.19349504005E+03 -0.11202674005E+04  0.12325654009E+04  0.15294330000E+03 0.  0.
<mgrwt>
<rscale>  0 0.73054452E+03</rscale>
<asrwt>0</asrwt>
<pdfrwt beam="1">  1        1 0.27040403E+00 0.82136287E+03</pdfrwt>
<pdfrwt beam="2">  1       -1 0.53282383E-01 0.82136287E+03</pdfrwt>
<totfact> 0.15921554E+01</totfact>
</mgrwt>
</event>
<event>
 4    1  0.3712574E-007  0.8605514E+03  0.7818608E-02  0.9592583E-01
         -1   -1    0    0    0  501 -0.00000000000E+00  0.00000000000E+00  0.18312214149E+04  0.18312214149E+04  0.50400000000E-02 0.  1.
          1   -1    0    0  501    0  0.00000000000E+00 -0.00000000000E+00 -0.34135852108E+03  0.34135852112E+03  0.50400000000E-02 0. -1.
    8880023    1    1    2    0    0 -0.52619617636E+03 -0.17278922429E+03  0.41860501428E+03  0.95696337249E+03  0.65864270000E+03 0.  0.
    8880022    1    1    2    0    0  0.52619617636E+03  0.17278922429E+03  0.10712578795E+04  0.12156165635E+04  0.15294330000E+03 0.  0.
<mgrwt>
<rscale>  0 0.77789015E+03</rscale>
<asrwt>0</asrwt>
<pdfrwt beam="1">  1        1 0.52516697E-01 0.86055142E+03</pdfrwt>
<pdfrwt beam="2">  1       -1 0.28172637E+00 0.86055142E+03</pdfrwt>
<totfact> 0.33053366E+00</totfact>
</mgrwt>
</event>
<event>
 4    1  0.3712574E-007  0.1173283E+04  0.7818608E-02  0.9183541E-01
          1   -1    0    0  501    0  0.00000000000E+00  0.00000000000E+00  0.22445796745E+04  0.22445796745E+04  0.50400000000E-02 0. -1.
         -1   -1    0    0    0  501 -0.00000000000E+00 -0.00000000000E+00 -0.70404430866E+03  0.70404430868E+03  0.50400000000E-02 0.  1.
    8880023    1    1    2    0    0  0.13522674422E+03 -0.96150768448E+03  0.15763102631E+04  0.19650311833E+04  0.65864270000E+03 0. -1.
    8880022    1    1    2    0    0 -0.13522674422E+03  0.96150768448E+03 -0.35774897224E+02  0.98359279987E+03  0.15294330000E+03 0.  0.
<mgrwt>
<rscale>  0 0.11224942E+04</rscale>
<asrwt>0</asrwt>
<pdfrwt beam="1">  1        1 0.34531995E+00 0.11732832E+04</pdfrwt>
<pdfrwt beam="2">  1       -1 0.10831451E+00 0.11732832E+04</pdfrwt>
<totfact> 0.15924637E+00</totfact>
</mgrwt>
</event>
<event>
 4    1  0.3712574E-007  0.9650149E+03  0.7818608E-02  0.9428832E-01
          1   -1    0    0  501    0  0.00000000000E+00  0.00000000000E+00  0.15346312687E+04  0.15346312687E+04  0.50400000000E-02 0. -1.
         -1   -1    0    0    0  501 -0.00000000000E+00 -0.00000000000E+00 -0.47164804949E+03  0.47164804952E+03  0.50400000000E-02 0.  1.
    8880023    1    1    2    0    0  0.12191431626E+03  0.69468009935E+03  0.47603234900E+03  0.10760392858E+04  0.65864270000E+03 0. -1.
    8880022    1    1    2    0    0 -0.12191431626E+03 -0.69468009935E+03  0.58695087019E+03  0.93024003245E+03  0.15294330000E+03 0.  1.
<mgrwt>
<rscale>  0 0.89740411E+03</rscale>
<asrwt>0</asrwt>
<pdfrwt beam="1">  1        1 0.23609711E+00 0.96501489E+03</pdfrwt>
<pdfrwt beam="2">  1       -1 0.72561240E-01 0.96501489E+03</pdfrwt>
<totfact> 0.11976494E+01</totfact>
</mgrwt>
</event>
<event>
 4    1  0.3712574E-007  0.7942734E+03  0.7818608E-02  0.9723318E-01
         -1   -1    0    0    0  501 -0.00000000000E+00  0.00000000000E+00  0.42910691169E+03  0.42910691172E+03  0.50400000000E-02 0.  1.
          1   -1    0    0  501    0  0.00000000000E+00 -0.00000000000E+00 -0.11328257670E+04  0.11328257670E+04  0.50400000000E-02 0. -1.
    8880023    1    1    2    0    0  0.41966661442E+03  0.14470621433E+03 -0.10517712465E+03  0.80120683318E+03  0.65864270000E+03 0.  1.
    8880022    1    1    2    0    0 -0.41966661442E+03 -0.14470621433E+03 -0.59854173062E+03  0.76072584551E+03  0.15294330000E+03 0.  0.
<mgrwt>
<rscale>  0 0.69645274E+03</rscale>
<asrwt>0</asrwt>
<pdfrwt beam="1">  1        1 0.17428089E+00 0.79427335E+03</pdfrwt>
<pdfrwt beam="2">  1       -1 0.66016448E-01 0.79427335E+03</pdfrwt>
<totfact> 0.28511710E+01</totfact>
</mgrwt>
</event>
<event>
 4    1  0.3712574E-007  0.7089666E+03  0.7818608E-02  0.9961859E-01
          1   -1    0    0  501    0  0.00000000000E+00  0.00000000000E+00  0.15220957439E+04  0.15220957439E+04  0.50400000000E-02 0. -1.
         -1   -1    0    0    0  501 -0.00000000000E+00 -0.00000000000E+00 -0.34947719880E+03  0.34947719884E+03  0.50400000000E-02 0.  1.
    8880023    1    1    2    0    0  0.25973717500E+03 -0.36878212021E+02  0.52372879534E+02  0.71089839455E+03  0.65864270000E+03 0.  1.
    8880022    1    1    2    0    0 -0.25973717500E+03  0.36878212021E+02  0.11202456655E+04  0.11606745481E+04  0.15294330000E+03 0.  0.
<mgrwt>
<rscale>  0 0.57354771E+03</rscale>
<asrwt>0</asrwt>
<pdfrwt beam="1">  1        1 0.23416857E+00 0.70896658E+03</pdfrwt>
<pdfrwt beam="2">  1       -1 0.53765724E-01 0.70896658E+03</pdfrwt>
<totfact> 0.22922374E+01</totfact>
</mgrwt>
</event>
<event>
 4    1  0.5454843E-007  0.7374924E+03  0.7818608E-02  0.9867313E-01
          1   -1    0    0  501    0  0.00000000000E+00  0.00000000000E+00  0.16469252133E+04  0.16469252133E+04  0.50400000000E-02 0. -1.
         -1   -1    0    0    0  501 -0.00000000000E+00 -0.00000000000E+00 -0.86887853147E+03  0.86887853148E+03  0.50400000000E-02 0.  1.
    8880023    1    1    2    0    0 -0.28821333680E+03 -0.16437139746E+03 -0.68578269943E+03  0.10070714974E+04  0.65864270000E+03 0.  1.
    8880022    1    1    2    0    0  0.28821333680E+03  0.16437139746E+03  0.14638293812E+04  0.15087322474E+04  0.15294330000E+03 0.  0.
<mgrwt>
<rscale>  0 0.61871948E+03</rscale>
<asrwt>0</asrwt>
<pdfrwt beam="1">  1        1 0.25337311E+00 0.73749243E+03</pdfrwt>
<pdfrwt beam="2">  1       -1 0.13367362E+00 0.73749243E+03</pdfrwt>
<totfact> 0.25703928E+00</totfact>
</mgrwt>
</event>
<event>
 4    1  0.3712574E-007  0.6816953E+03  0.7818608E-02  0.1008380E+00
          1   -1    0    0  501    0  0.00000000000E+00  0.00000000000E+00  0.18240528267E+04  0.18240528267E+04  0.50400000000E-02 0. -1.
         -1   -1    0    0    0  501 -0.00000000000E+00 -0.00000000000E+00 -0.55270715205E+03  0.55270715208E+03  0.50400000000E-02 0.  1.
    8880023    1    1    2    0    0  0.16932698991E+03  0.47187965361E+02 -0.33082920539E+03  0.75773115482E+03  0.65864270000E+03 0.  1.
    8880022    1    1    2    0    0 -0.16932698991E+03 -0.47187965361E+02  0.16021748800E+04  0.16190288239E+04  0.15294330000E+03 0.  0.
<mgrwt>
<rscale>  0 0.52123397E+03</rscale>
<asrwt>0</asrwt>
<pdfrwt beam="1">  1        1 0.28062351E+00 0.68169534E+03</pdfrwt>
<pdfrwt beam="2">  1       -1 0.85031870E-01 0.68169534E+03</pdfrwt>
<totfact> 0.56845777E+00</totfact>
</mgrwt>
</event>
<event>
 4    1  0.3712574E-007  0.9613607E+03  0.7818608E-02  0.9433954E-01
         -1   -1    0    0    0  501 -0.00000000000E+00  0.00000000000E+00  0.86691996382E+03  0.86691996383E+03  0.50400000000E-02 0.  1.
          1   -1    0    0  501    0  0.00000000000E+00 -0.00000000000E+00 -0.11455763332E+04  0.11455763332E+04  0.50400000000E-02 0. -1.
    8880023    1    1    2    0    0  0.33986973516E+03 -0.61228483651E+03  0.38505706399E+03  0.10356076992E+04  0.65864270000E+03 0.  0.
    8880022    1    1    2    0    0 -0.33986973516E+03  0.61228483651E+03 -0.66371343335E+03  0.97688859780E+03  0.15294330000E+03 0.  0.
<mgrwt>
<rscale>  0 0.89333343E+03</rscale>
<asrwt>0</asrwt>
<pdfrwt beam="1">  1        1 0.17624251E+00 0.96136068E+03</pdfrwt>
<pdfrwt beam="2">  1       -1 0.13337230E+00 0.96136068E+03</pdfrwt>
<totfact> 0.56116261E+00</totfact>
</mgrwt>
</event>
<event>
 4    1  0.3712574E-007  0.8823130E+03  0.7818608E-02  0.9555043E-01
          1   -1    0    0  501    0  0.00000000000E+00  0.00000000000E+00  0.34621322208E+04  0.34621322208E+04  0.50400000000E-02 0. -1.
         -1   -1    0    0    0  501 -0.00000000000E+00 -0.00000000000E+00 -0.25948299150E+03  0.25948299155E+03  0.50400000000E-02 0.  1.
    8880023    1    1    2    0    0 -0.43623841050E+03  0.39288941433E+03  0.64482811429E+03  0.10928309778E+04  0.65864270000E+03 0.  1.
    8880022    1    1    2    0    0  0.43623841050E+03 -0.39288941433E+03  0.25578211150E+04  0.26287842346E+04  0.15294330000E+03 0.  0.
<mgrwt>
<rscale>  0 0.80344564E+03</rscale>
<asrwt>0</asrwt>
<pdfrwt beam="1">  1        1 0.53263572E+00 0.88231301E+03</pdfrwt>
<pdfrwt beam="2">  1       -1 0.39920461E-01 0.88231301E+03</pdfrwt>
<totfact> 0.17314328E+00</totfact>
</mgrwt>
</event>
<event>
 4    1  0.3712574E-007  0.1062403E+04  0.7818608E-02  0.9304118E-01
         -1   -1    0    0    0  501 -0.00000000000E+00  0.00000000000E+00  0.79013062863E+03  0.79013062865E+03  0.50400000000E-02 0.  1.
          1   -1    0    0  501    0  0.00000000000E+00 -0.00000000000E+00 -0.13795012024E+04  0.13795012024E+04  0.50400000000E-02 0. -1.
    8880023    1    1    2    0    0 -0.42914749106E+03 -0.71464831076E+03  0.11368061403E+03  0.10684677185E+04  0.65864270000E+03 0.  1.
    8880022    1    1    2    0    0  0.42914749106E+03  0.71464831076E+03 -0.70305118780E+03  0.11011641126E+04  0.15294330000E+03 0.  0.
<mgrwt>
<rscale>  0 0.10040464E+04</rscale>
<asrwt>0</asrwt>
<pdfrwt beam="1">  1        1 0.21223096E+00 0.10624029E+04</pdfrwt>
<pdfrwt beam="2">  1       -1 0.12155856E+00 0.10624029E+04</pdfrwt>
<totfact> 0.47496930E+00</totfact>
</mgrwt>
</event>
<event>
 4    1  0.3712574E-007  0.7594141E+03  0.7818608E-02  0.9806627E-01
          1   -1    0    0  501    0  0.00000000000E+00  0.00000000000E+00  0.53328753257E+03  0.53328753260E+03  0.50400000000E-02 0. -1.
         -1   -1    0    0    0  501 -0.00000000000E+00 -0.00000000000E+00 -0.82406014109E+03  0.82406014110E+03  0.50400000000E-02 0.  1.
    8880023    1    1    2    0    0  0.37543888793E+03 -0.44103924068E+02 -0.48971371548E+03  0.90362007729E+03  0.65864270000E+03 0.  1.
    8880022    1    1    2    0    0 -0.37543888793E+03  0.44103924068E+02  0.19894110697E+03  0.45372759641E+03  0.15294330000E+03 0.  0.
<mgrwt>
<rscale>  0 0.65008123E+03</rscale>
<asrwt>0</asrwt>
<pdfrwt beam="1">  1        1 0.82044235E-01 0.75941406E+03</pdfrwt>
<pdfrwt beam="2">  1       -1 0.12677848E+00 0.75941406E+03</pdfrwt>
<totfact> 0.22423490E+01</totfact>
</mgrwt>
</event>
<event>
 4    1  0.3712574E-007  0.7697201E+03  0.7818608E-02  0.9780563E-01
          1   -1    0    0  501    0  0.00000000000E+00  0.00000000000E+00  0.18366967145E+04  0.18366967145E+04  0.50400000000E-02 0. -1.
         -1   -1    0    0    0  501 -0.00000000000E+00 -0.00000000000E+00 -0.28579223800E+03  0.28579223804E+03  0.50400000000E-02 0.  1.
    8880023    1    1    2    0    0 -0.25382523529E+03 -0.30697170634E+03  0.34532689827E+03  0.84363484488E+03  0.65864270000E+03 0.  1.
    8880022    1    1    2    0    0  0.25382523529E+03  0.30697170634E+03  0.12055775782E+04  0.12788541077E+04  0.15294330000E+03 0.  0.
<mgrwt>
<rscale>  0 0.66416140E+03</rscale>
<asrwt>0</asrwt>
<pdfrwt beam="1">  1        1 0.28256872E+00 0.76972013E+03</pdfrwt>
<pdfrwt beam="2">  1       -1 0.43968037E-01 0.76972013E+03</pdfrwt>
<totfact> 0.20377656E+01</totfact>
</mgrwt>
</event>
<event>
 4    1  0.3712574E-007  0.8969175E+03  0.7818608E-02  0.9530998E-01
         -1   -1    0    0    0  501 -0.00000000000E+00  0.00000000000E+00  0.81018581571E+03  0.81018581572E+03  0.50400000000E-02 0.  1.
          1   -1    0    0  501    0  0.00000000000E+00 -0.00000000000E+00 -0.11503336612E+04  0.11503336612E+04  0.50400000000E-02 0. -1.
    8880023    1    1    2    0    0 -0.60199637858E+03  0.90835879502E+02  0.40677384148E+03  0.98484819196E+03  0.65864270000E+03 0.  0.
    8880022    1    1    2    0    0  0.60199637858E+03 -0.90835879502E+02 -0.74692168696E+03  0.97567128496E+03  0.15294330000E+03 0.  0.
<mgrwt>
<rscale>  0 0.82036524E+03</rscale>
<asrwt>0</asrwt>
<pdfrwt beam="1">  1        1 0.17697441E+00 0.89691750E+03</pdfrwt>
<pdfrwt beam="2">  1       -1 0.12464397E+00 0.89691750E+03</pdfrwt>
<totfact> 0.66529962E+00</totfact>
</mgrwt>
</event>
<event>
 4    1  0.3712574E-007  0.7864928E+03  0.7818608E-02  0.9740801E-01
         -1   -1    0    0    0  501 -0.00000000000E+00  0.00000000000E+00  0.10193644478E+04  0.10193644478E+04  0.50400000000E-02 0.  1.
          1   -1    0    0  501    0  0.00000000000E+00 -0.00000000000E+00 -0.82147144886E+03  0.82147144888E+03  0.50400000000E-02 0. -1.
    8880023    1    1    2    0    0  0.24781886509E+03 -0.35120715521E+03  0.77567105355E+03  0.11046431303E+04  0.65864270000E+03 0.  1.
    8880022    1    1    2    0    0 -0.24781886509E+03  0.35120715521E+03 -0.57777805465E+03  0.73619276634E+03  0.15294330000E+03 0.  0.
<mgrwt>
<rscale>  0 0.68638645E+03</rscale>
<asrwt>0</asrwt>
<pdfrwt beam="1">  1        1 0.12638022E+00 0.78649276E+03</pdfrwt>
<pdfrwt beam="2">  1       -1 0.15682530E+00 0.78649276E+03</pdfrwt>
<totfact> 0.67310668E+00</totfact>
</mgrwt>
</event>
<event>
 4    1  0.3712574E-007  0.7726629E+03  0.7818608E-02  0.9773363E-01
         -1   -1    0    0    0  501 -0.00000000000E+00  0.00000000000E+00  0.58450912925E+03  0.58450912927E+03  0.50400000000E-02 0.  1.
          1   -1    0    0  501    0  0.00000000000E+00 -0.00000000000E+00 -0.69237844480E+03  0.69237844482E+03  0.50400000000E-02 0. -1.
    8880023    1    1    2    0    0 -0.32756236070E+03 -0.23643329280E+03  0.13037109253E+03  0.78358447542E+03  0.65864270000E+03 0.  1.
    8880022    1    1    2    0    0  0.32756236070E+03  0.23643329280E+03 -0.23824040808E+03  0.49330309867E+03  0.15294330000E+03 0.  0.
<mgrwt>
<rscale>  0 0.66811842E+03</rscale>
<asrwt>0</asrwt>
<pdfrwt beam="1">  1        1 0.10651976E+00 0.77266293E+03</pdfrwt>
<pdfrwt beam="2">  1       -1 0.89924481E-01 0.77266293E+03</pdfrwt>
<totfact> 0.34259419E+01</totfact>
</mgrwt>
</event>
<event>
 4    1  0.3712574E-007  0.7329707E+03  0.7818608E-02  0.9880917E-01
         -1   -1    0    0    0  501 -0.00000000000E+00  0.00000000000E+00  0.73739943543E+03  0.73739943545E+03  0.50400000000E-02 0.  1.
          1   -1    0    0  501    0  0.00000000000E+00 -0.00000000000E+00 -0.69814415804E+03  0.69814415806E+03  0.50400000000E-02 0. -1.
    8880023    1    1    2    0    0  0.31583161778E+03 -0.60714407202E+02  0.47451188783E+03  0.87315954326E+03  0.65864270000E+03 0.  1.
    8880022    1    1    2    0    0 -0.31583161778E+03  0.60714407202E+02 -0.43525661044E+03  0.56238405025E+03  0.15294330000E+03 0.  0.
<mgrwt>
<rscale>  0 0.61195099E+03</rscale>
<asrwt>0</asrwt>
<pdfrwt beam="1">  1        1 0.10740679E+00 0.73297071E+03</pdfrwt>
<pdfrwt beam="2">  1       -1 0.11344607E+00 0.73297071E+03</pdfrwt>
<totfact> 0.19959598E+01</totfact>
</mgrwt>
</event>
<event>
 4    1  0.3712574E-007  0.7132316E+03  0.7818608E-02  0.9946191E-01
          1   -1    0    0  501    0  0.00000000000E+00  0.00000000000E+00  0.92202735059E+03  0.92202735061E+03  0.50400000000E-02 0. -1.
         -1   -1    0    0    0  501 -0.00000000000E+00 -0.00000000000E+00 -0.49558098114E+03  0.49558098117E+03  0.50400000000E-02 0.  1.
    8880023    1    1    2    0    0  0.26162350003E+03 -0.80263298065E+02 -0.17940797694E+03  0.73544984957E+03  0.65864270000E+03 0.  1.
    8880022    1    1    2    0    0 -0.26162350003E+03  0.80263298065E+02  0.60585434639E+03  0.68215848220E+03  0.15294330000E+03 0.  0.
<mgrwt>
<rscale>  0 0.58073961E+03</rscale>
<asrwt>0</asrwt>
<pdfrwt beam="1">  1        1 0.14185036E+00 0.71323156E+03</pdfrwt>
<pdfrwt beam="2">  1       -1 0.76243229E-01 0.71323156E+03</pdfrwt>
<totfact> 0.31072133E+01</totfact>
</mgrwt>
</event>
<event>
 4    1  0.3712574E-007  0.7199424E+03  0.7818608E-02  0.9922781E-01
          1   -1    0    0  501    0  0.00000000000E+00  0.00000000000E+00  0.14148588759E+04  0.14148588759E+04  0.50400000000E-02 0. -1.
         -1   -1    0    0    0  501 -0.00000000000E+00 -0.00000000000E+00 -0.30676199239E+03  0.30676199243E+03  0.50400000000E-02 0.  1.
    8880023    1    1    2    0    0  0.54089218524E+02  0.28562433498E+03  0.11828709389E+04  0.13847385199E+04  0.65864270000E+03 0. -1.
    8880022    1    1    2    0    0 -0.54089218524E+02 -0.28562433498E+03 -0.74774055372E+02  0.33688234840E+03  0.15294330000E+03 0.  0.
<mgrwt>
<rscale>  0 0.59169825E+03</rscale>
<asrwt>0</asrwt>
<pdfrwt beam="1">  1        1 0.21767059E+00 0.71994244E+03</pdfrwt>
<pdfrwt beam="2">  1       -1 0.47194153E-01 0.71994244E+03</pdfrwt>
<totfact> 0.34721615E+01</totfact>
</mgrwt>
</event>
<event>
 4    1  0.3712574E-007  0.7740192E+03  0.7818608E-02  0.9770078E-01
         -1   -1    0    0    0  501 -0.00000000000E+00  0.00000000000E+00  0.12447007274E+04  0.12447007274E+04  0.50400000000E-02 0.  1.
          1   -1    0    0  501    0  0.00000000000E+00 -0.00000000000E+00 -0.53378089409E+03  0.53378089412E+03  0.50400000000E-02 0. -1.
    8880023    1    1    2    0    0 -0.30705678024E+03  0.26648000363E+03 -0.17342842411E+03  0.79321061716E+03  0.65864270000E+03 0. -1.
    8880022    1    1    2    0    0  0.30705678024E+03 -0.26648000363E+03  0.88434825741E+03  0.98527100435E+03  0.15294330000E+03 0.  0.
<mgrwt>
<rscale>  0 0.66993330E+03</rscale>
<asrwt>0</asrwt>
<pdfrwt beam="1">  1        1 0.82120138E-01 0.77401916E+03</pdfrwt>
<pdfrwt beam="2">  1       -1 0.19149242E+00 0.77401916E+03</pdfrwt>
<totfact> 0.71891078E+00</totfact>
</mgrwt>
</event>
<event>
 4    1  0.3712574E-007  0.7606549E+03  0.7818608E-02  0.9803415E-01
         -1   -1    0    0    0  501 -0.00000000000E+00  0.00000000000E+00  0.17278874254E+04  0.17278874254E+04  0.50400000000E-02 0.  1.
          1   -1    0    0  501    0  0.00000000000E+00 -0.00000000000E+00 -0.34954619371E+03  0.34954619374E+03  0.50400000000E-02 0. -1.
    8880023    1    1    2    0    0  0.20104812666E+03  0.32305620916E+03  0.14718752657E+04  0.16568079755E+04  0.65864270000E+03 0.  0.
    8880022    1    1    2    0    0 -0.20104812666E+03 -0.32305620916E+03 -0.93534034096E+02  0.42062564361E+03  0.15294330000E+03 0.  0.
<mgrwt>
<rscale>  0 0.65179598E+03</rscale>
<asrwt>0</asrwt>
<pdfrwt beam="1">  1        1 0.53776339E-01 0.76065490E+03</pdfrwt>
<pdfrwt beam="2">  1       -1 0.26582883E+00 0.76065490E+03</pdfrwt>
<totfact> 0.41067713E+00</totfact>
</mgrwt>
</event>
<event>
 4    1  0.3712574E-007  0.7816468E+03  0.7818608E-02  0.9751983E-01
         -1   -1    0    0    0  501 -0.00000000000E+00  0.00000000000E+00  0.46854940225E+03  0.46854940228E+03  0.50400000000E-02 0.  1.
          1   -1    0    0  501    0  0.00000000000E+00 -0.00000000000E+00 -0.12080343177E+04  0.12080343178E+04  0.50400000000E-02 0. -1.
    8880023    1    1    2    0    0  0.67850714478E+02  0.41540069635E+03  0.34466112973E+02  0.78240627374E+03  0.65864270000E+03 0.  0.
    8880022    1    1    2    0    0 -0.67850714478E+02 -0.41540069635E+03 -0.77395102846E+03  0.89417744629E+03  0.15294330000E+03 0.  0.
<mgrwt>
<rscale>  0 0.68004332E+03</rscale>
<asrwt>0</asrwt>
<pdfrwt beam="1">  1        1 0.18585143E+00 0.78164676E+03</pdfrwt>
<pdfrwt beam="2">  1       -1 0.72084524E-01 0.78164676E+03</pdfrwt>
<totfact> 0.21023950E+01</totfact>
</mgrwt>
</event>
<event>
 4    1  0.3712574E-007  0.7663020E+03  0.7818608E-02  0.9789057E-01
         -1   -1    0    0    0  501 -0.00000000000E+00  0.00000000000E+00  0.52890623464E+03  0.52890623467E+03  0.50400000000E-02 0.  1.
          1   -1    0    0  501    0  0.00000000000E+00 -0.00000000000E+00 -0.68228167698E+03  0.68228167700E+03  0.50400000000E-02 0. -1.
    8880023    1    1    2    0    0  0.38693980709E+03 -0.60714093968E+02 -0.81707195658E+01  0.76634560248E+03  0.65864270000E+03 0.  1.
    8880022    1    1    2    0    0 -0.38693980709E+03  0.60714093968E+02 -0.14520472277E+03  0.44484230919E+03  0.15294330000E+03 0.  1.
<mgrwt>
<rscale>  0 0.65953121E+03</rscale>
<asrwt>0</asrwt>
<pdfrwt beam="1">  1        1 0.10496641E+00 0.76630204E+03</pdfrwt>
<pdfrwt beam="2">  1       -1 0.81370190E-01 0.76630204E+03</pdfrwt>
<totfact> 0.43520167E+01</totfact>
</mgrwt>
</event>
<event>
 4    1  0.3712574E-007  0.6831370E+03  0.7818608E-02  0.1007602E+00
          1   -1    0    0  501    0  0.00000000000E+00  0.00000000000E+00  0.34220035487E+04  0.34220035487E+04  0.50400000000E-02 0. -1.
         -1   -1    0    0    0  501 -0.00000000000E+00 -0.00000000000E+00 -0.81573246224E+02  0.81573246380E+02  0.50400000000E-02 0.  1.
    8880023    1    1    2    0    0 -0.62816037651E+02 -0.17005897172E+03  0.15037857970E+04  0.16516803074E+04  0.65864270000E+03 0.  1.
    8880022    1    1    2    0    0  0.62816037651E+02  0.17005897172E+03  0.18366445055E+04  0.18518964877E+04  0.15294330000E+03 0.  0.
<mgrwt>
<rscale>  0 0.52438886E+03</rscale>
<asrwt>0</asrwt>
<pdfrwt beam="1">  1        1 0.52646204E+00 0.68313697E+03</pdfrwt>
<pdfrwt beam="2">  1       -1 0.12549731E-01 0.68313697E+03</pdfrwt>
<totfact> 0.13700861E+01</totfact>
</mgrwt>
</event>
<event>
 4    1  0.3712574E-007  0.8206812E+03  0.7818608E-02  0.9667743E-01
         -1   -1    0    0    0  501 -0.00000000000E+00  0.00000000000E+00  0.69457269889E+03  0.69457269891E+03  0.50400000000E-02 0.  1.
          1   -1    0    0  501    0  0.00000000000E+00 -0.00000000000E+00 -0.85141867986E+03  0.85141867988E+03  0.50400000000E-02 0. -1.
    8880023    1    1    2    0    0 -0.48941837877E+03  0.13307315507E+02  0.28523817509E+03  0.86883741685E+03  0.65864270000E+03 0.  1.
    8880022    1    1    2    0    0  0.48941837877E+03 -0.13307315507E+02 -0.44208415606E+03  0.67715396194E+03  0.15294330000E+03 0. -1.
<mgrwt>
<rscale>  0 0.72970241E+03</rscale>
<asrwt>0</asrwt>
<pdfrwt beam="1">  1        1 0.13098749E+00 0.82068121E+03</pdfrwt>
<pdfrwt beam="2">  1       -1 0.10685734E+00 0.82068121E+03</pdfrwt>
<totfact> 0.16653675E+01</totfact>
</mgrwt>
</event>
<event>
 4    1  0.3712574E-007  0.7400853E+03  0.7818608E-02  0.9859699E-01
          1   -1    0    0  501    0  0.00000000000E+00  0.00000000000E+00  0.31447437393E+04  0.31447437393E+04  0.50400000000E-02 0. -1.
         -1   -1    0    0    0  501 -0.00000000000E+00 -0.00000000000E+00 -0.10521847187E+03  0.10521847199E+03  0.50400000000E-02 0.  1.
    8880023    1    1    2    0    0  0.25379931000E+03 -0.22249051429E+03  0.15896782344E+04  0.17535116806E+04  0.65864270000E+03 0.  0.
    8880022    1    1    2    0    0 -0.25379931000E+03  0.22249051429E+03  0.14498470330E+04  0.14964505307E+04  0.15294330000E+03 0.  1.
<mgrwt>
<rscale>  0 0.62254858E+03</rscale>
<asrwt>0</asrwt>
<pdfrwt beam="1">  1        1 0.48380675E+00 0.74008535E+03</pdfrwt>
<pdfrwt beam="2">  1       -1 0.16187456E-01 0.74008535E+03</pdfrwt>
<totfact> 0.14461003E+01</totfact>
</mgrwt>
</event>
<event>
 4    1  0.3712574E-007  0.1433664E+04  0.7818608E-02  0.8957956E-01
         -1   -1    0    0    0  501 -0.00000000000E+00  0.00000000000E+00  0.11964328146E+04  0.11964328146E+04  0.50400000000E-02 0.  1.
          1   -1    0    0  501    0  0.00000000000E+00 -0.00000000000E+00 -0.22237928215E+04  0.22237928215E+04  0.50400000000E-02 0. -1.
    8880023    1    1    2    0    0  0.11524089304E+04 -0.54179070806E+03  0.41263847528E+03  0.14918660234E+04  0.65864270000E+03 0.  0.
    8880022    1    1    2    0    0 -0.11524089304E+04  0.54179070806E+03 -0.14399984822E+04  0.19283596127E+04  0.15294330000E+03 0.  0.
<mgrwt>
<rscale>  0 0.13942978E+04</rscale>
<asrwt>0</asrwt>
<pdfrwt beam="1">  1        1 0.34212197E+00 0.14336644E+04</pdfrwt>
<pdfrwt beam="2">  1       -1 0.18406659E+00 0.14336644E+04</pdfrwt>
<totfact> 0.38954195E-01</totfact>
</mgrwt>
</event>
<event>
 4    1  0.3712574E-007  0.7310867E+03  0.7818608E-02  0.9886715E-01
         -1   -1    0    0    0  501 -0.00000000000E+00  0.00000000000E+00  0.55289929147E+03  0.55289929149E+03  0.50400000000E-02 0.  1.
          1   -1    0    0  501    0  0.00000000000E+00 -0.00000000000E+00 -0.95266180537E+03  0.95266180538E+03  0.50400000000E-02 0. -1.
    8880023    1    1    2    0    0 -0.22827425079E+03  0.22038248309E+03  0.24484265566E+03  0.77099656596E+03  0.65864270000E+03 0.  0.
    8880022    1    1    2    0    0  0.22827425079E+03 -0.22038248309E+03 -0.64460516957E+03  0.73456453091E+03  0.15294330000E+03 0.  0.
<mgrwt>
<rscale>  0 0.60909450E+03</rscale>
<asrwt>0</asrwt>
<pdfrwt beam="1">  1        1 0.14656335E+00 0.73108671E+03</pdfrwt>
<pdfrwt beam="2">  1       -1 0.85061429E-01 0.73108671E+03</pdfrwt>
<totfact> 0.23228112E+01</totfact>
</mgrwt>
</event>
<event>
 4    1  0.3712574E-007  0.7235610E+03  0.7818608E-02  0.9910716E-01
          1   -1    0    0  501    0  0.00000000000E+00  0.00000000000E+00  0.37834937907E+04  0.37834937907E+04  0.50400000000E-02 0. -1.
         -1   -1    0    0    0  501 -0.00000000000E+00 -0.00000000000E+00 -0.15010363910E+03  0.15010363919E+03  0.50400000000E-02 0.  1.
    8880023    1    1    2    0    0 -0.12612300616E+03 -0.27170455217E+03  0.79351375642E+03  0.10738736724E+04  0.65864270000E+03 0.  1.
    8880022    1    1    2    0    0  0.12612300616E+03  0.27170455217E+03  0.28398763952E+04  0.28597237575E+04  0.15294330000E+03 0.  0.
<mgrwt>
<rscale>  0 0.59744754E+03</rscale>
<asrwt>0</asrwt>
<pdfrwt beam="1">  1        1 0.58207595E+00 0.72356104E+03</pdfrwt>
<pdfrwt beam="2">  1       -1 0.23092868E-01 0.72356104E+03</pdfrwt>
<totfact> 0.25891387E+00</totfact>
</mgrwt>
</event>
<event>
 4    1  0.3712574E-007  0.8375184E+03  0.7818608E-02  0.9634877E-01
         -1   -1    0    0    0  501 -0.00000000000E+00  0.00000000000E+00  0.17244563099E+03  0.17244563107E+03  0.50400000000E-02 0.  1.
          1   -1    0    0  501    0  0.00000000000E+00 -0.00000000000E+00 -0.28477463385E+04  0.28477463385E+04  0.50400000000E-02 0. -1.
    8880023    1    1    2    0    0  0.38212094811E+02 -0.51591342355E+03 -0.13420861289E+04  0.15819709885E+04  0.65864270000E+03 0.  1.
    8880022    1    1    2    0    0 -0.38212094811E+02  0.51591342355E+03 -0.13332145786E+04  0.14382209811E+04  0.15294330000E+03 0. -1.
<mgrwt>
<rscale>  0 0.75030153E+03</rscale>
<asrwt>0</asrwt>
<pdfrwt beam="1">  1        1 0.43811479E+00 0.83751838E+03</pdfrwt>
<pdfrwt beam="2">  1       -1 0.26530099E-01 0.83751838E+03</pdfrwt>
<totfact> 0.10173005E+01</totfact>
</mgrwt>
</event>
<event>
 4    1  0.3712574E-007  0.6625212E+03  0.7818608E-02  0.1021710E+00
          1   -1    0    0  501    0  0.00000000000E+00  0.00000000000E+00  0.57135082728E+03  0.57135082730E+03  0.50400000000E-02 0. -1.
         -1   -1    0    0    0  501 -0.00000000000E+00 -0.00000000000E+00 -0.10241166822E+04  0.10241166822E+04  0.50400000000E-02 0.  1.
    8880023    1    1    2    0    0  0.47785428527E+02 -0.53298064983E+02 -0.89991827548E+03  0.11174914942E+04  0.65864270000E+03 0.  1.
    8880022    1    1    2    0    0 -0.47785428527E+02  0.53298064983E+02  0.44715242057E+03  0.47797601525E+03  0.15294330000E+03 0.  0.
<mgrwt>
<rscale>  0 0.47074476E+03</rscale>
<asrwt>0</asrwt>
<pdfrwt beam="1">  1        1 0.87900127E-01 0.66252120E+03</pdfrwt>
<pdfrwt beam="2">  1       -1 0.15755641E+00 0.66252120E+03</pdfrwt>
<totfact> 0.11673215E+01</totfact>
</mgrwt>
</event>
<event>
 4    1  0.3712574E-007  0.7564699E+03  0.7818608E-02  0.9814334E-01
          1   -1    0    0  501    0  0.00000000000E+00  0.00000000000E+00  0.19003021973E+04  0.19003021973E+04  0.50400000000E-02 0. -1.
         -1   -1    0    0    0  501 -0.00000000000E+00 -0.00000000000E+00 -0.66454848515E+03  0.66454848516E+03  0.50400000000E-02 0.  1.
    8880023    1    1    2    0    0 -0.10512112787E+02  0.37192197552E+03 -0.41703629172E+03  0.86380896920E+03  0.65864270000E+03 0.  1.
    8880022    1    1    2    0    0  0.10512112787E+02 -0.37192197552E+03  0.16527900038E+04  0.17010417133E+04  0.15294330000E+03 0.  0.
<mgrwt>
<rscale>  0 0.64598952E+03</rscale>
<asrwt>0</asrwt>
<pdfrwt beam="1">  1        1 0.29235418E+00 0.75646987E+03</pdfrwt>
<pdfrwt beam="2">  1       -1 0.10223823E+00 0.75646987E+03</pdfrwt>
<totfact> 0.33088216E+00</totfact>
</mgrwt>
</event>
<event>
 4    1  0.3712574E-007  0.1025179E+04  0.7818608E-02  0.9349332E-01
          1   -1    0    0  501    0  0.00000000000E+00  0.00000000000E+00  0.18186282315E+04  0.18186282315E+04  0.50400000000E-02 0. -1.
         -1   -1    0    0    0  501 -0.00000000000E+00 -0.00000000000E+00 -0.10150571645E+04  0.10150571645E+04  0.50400000000E-02 0.  1.
    8880023    1    1    2    0    0  0.70092489859E+03 -0.35480515019E+03 -0.62177866161E+03  0.11990001328E+04  0.65864270000E+03 0.  0.
    8880022    1    1    2    0    0 -0.70092489859E+03  0.35480515019E+03  0.14253497286E+04  0.16346852632E+04  0.15294330000E+03 0.  0.
<mgrwt>
<rscale>  0 0.96365381E+03</rscale>
<asrwt>0</asrwt>
<pdfrwt beam="1">  1        1 0.27978896E+00 0.10251793E+04</pdfrwt>
<pdfrwt beam="2">  1       -1 0.15616264E+00 0.10251793E+04</pdfrwt>
<totfact> 0.12433222E+00</totfact>
</mgrwt>
</event>
<event>
 4    1  0.3980634E-007  0.7549330E+03  0.7818608E-02  0.9818406E-01
         -1   -1    0    0    0  501 -0.00000000000E+00  0.00000000000E+00  0.15749743781E+04  0.15749743781E+04  0.50400000000E-02 0.  1.
          1   -1    0    0  501    0  0.00000000000E+00 -0.00000000000E+00 -0.11268719194E+04  0.11268719194E+04  0.50400000000E-02 0. -1.
    8880023    1    1    2    0    0 -0.20664864664E+03 -0.30563044851E+03  0.14436783116E+04  0.16291503638E+04  0.65864270000E+03 0.  1.
    8880022    1    1    2    0    0  0.20664864664E+03  0.30563044851E+03 -0.99557585290E+03  0.10726959337E+04  0.15294330000E+03 0.  0.
<mgrwt>
<rscale>  0 0.64384036E+03</rscale>
<asrwt>0</asrwt>
<pdfrwt beam="1">  1        1 0.17336491E+00 0.75493300E+03</pdfrwt>
<pdfrwt beam="2">  1       -1 0.24230375E+00 0.75493300E+03</pdfrwt>
<totfact> 0.99621813E-01</totfact>
</mgrwt>
</event>
<event>
 4    1  0.3712574E-007  0.1130703E+04  0.7818608E-02  0.9227619E-01
          1   -1    0    0  501    0  0.00000000000E+00  0.00000000000E+00  0.11302289040E+04  0.11302289040E+04  0.50400000000E-02 0. -1.
         -1   -1    0    0    0  501 -0.00000000000E+00 -0.00000000000E+00 -0.18724599623E+04  0.18724599623E+04  0.50400000000E-02 0.  1.
    8880023    1    1    2    0    0  0.84926430898E+03 -0.35132338257E+03 -0.14456151627E+04  0.18352905466E+04  0.65864270000E+03 0.  0.
    8880022    1    1    2    0    0 -0.84926430898E+03  0.35132338257E+03  0.70338410434E+03  0.11673983197E+04  0.15294330000E+03 0.  0.
<mgrwt>
<rscale>  0 0.10772849E+04</rscale>
<asrwt>0</asrwt>
<pdfrwt beam="1">  1        1 0.17388137E+00 0.11307025E+04</pdfrwt>
<pdfrwt beam="2">  1       -1 0.28807076E+00 0.11307025E+04</pdfrwt>
<totfact> 0.47161656E-01</totfact>
</mgrwt>
</event>
<event>
 4    1  0.3712574E-007  0.9560598E+03  0.7818608E-02  0.9441448E-01
         -1   -1    0    0    0  501 -0.00000000000E+00  0.00000000000E+00  0.87419409448E+03  0.87419409450E+03  0.50400000000E-02 0.  1.
          1   -1    0    0  501    0  0.00000000000E+00 -0.00000000000E+00 -0.25007422904E+04  0.25007422904E+04  0.50400000000E-02 0. -1.
    8880023    1    1    2    0    0  0.67161657854E+03 -0.17079600769E+03  0.53798725917E+03  0.10970326349E+04  0.65864270000E+03 0.  0.
    8880022    1    1    2    0    0 -0.67161657854E+03  0.17079600769E+03 -0.21645354551E+04  0.22779037499E+04  0.15294330000E+03 0.  0.
<mgrwt>
<rscale>  0 0.88741737E+03</rscale>
<asrwt>0</asrwt>
<pdfrwt beam="1">  1        1 0.38472958E+00 0.95605978E+03</pdfrwt>
<pdfrwt beam="2">  1       -1 0.13449140E+00 0.95605978E+03</pdfrwt>
<totfact> 0.64589152E-01</totfact>
</mgrwt>
</event>
<event>
 4    1  0.3712574E-007  0.8609101E+03  0.7818608E-02  0.9591947E-01
         -1   -1    0    0    0  501 -0.00000000000E+00  0.00000000000E+00  0.40281930100E+03  0.40281930103E+03  0.50400000000E-02 0.  1.
          1   -1    0    0  501    0  0.00000000000E+00 -0.00000000000E+00 -0.27977068407E+04  0.27977068407E+04  0.50400000000E-02 0. -1.
    8880023    1    1    2    0    0  0.31046332518E+03  0.45931304836E+03 -0.13847437187E+03  0.87197552179E+03  0.65864270000E+03 0.  0.
    8880022    1    1    2    0    0 -0.31046332518E+03 -0.45931304836E+03 -0.22564131678E+04  0.23285506200E+04  0.15294330000E+03 0.  0.
<mgrwt>
<rscale>  0 0.77831506E+03</rscale>
<asrwt>0</asrwt>
<pdfrwt beam="1">  1        1 0.43041642E+00 0.86091008E+03</pdfrwt>
<pdfrwt beam="2">  1       -1 0.61972202E-01 0.86091008E+03</pdfrwt>
<totfact> 0.23136111E+00</totfact>
</mgrwt>
</event>
<event>
 4    1  0.3712574E-007  0.7133550E+03  0.7818608E-02  0.9945747E-01
         -1   -1    0    0    0  501 -0.00000000000E+00  0.00000000000E+00  0.32562568740E+03  0.32562568744E+03  0.50400000000E-02 0.  1.
          1   -1    0    0  501    0  0.00000000000E+00 -0.00000000000E+00 -0.15833610896E+04  0.15833610897E+04  0.50400000000E-02 0. -1.
    8880023    1    1    2    0    0 -0.23793708023E+03 -0.13583460053E+03 -0.11327665104E+03  0.72229280682E+03  0.65864270000E+03 0.  0.
    8880022    1    1    2    0    0  0.23793708023E+03  0.13583460053E+03 -0.11444587512E+04  0.11866939703E+04  0.15294330000E+03 0.  0.
<mgrwt>
<rscale>  0 0.58094491E+03</rscale>
<asrwt>0</asrwt>
<pdfrwt beam="1">  1        1 0.24359401E+00 0.71335496E+03</pdfrwt>
<pdfrwt beam="2">  1       -1 0.50096261E-01 0.71335496E+03</pdfrwt>
<totfact> 0.23816403E+01</totfact>
</mgrwt>
</event>
<event>
 4    1  0.3712574E-007  0.7772746E+03  0.7818608E-02  0.9762278E-01
          1   -1    0    0  501    0  0.00000000000E+00  0.00000000000E+00  0.48567770280E+03  0.48567770282E+03  0.50400000000E-02 0. -1.
         -1   -1    0    0    0  501 -0.00000000000E+00 -0.00000000000E+00 -0.13253653737E+04  0.13253653737E+04  0.50400000000E-02 0.  1.
    8880023    1    1    2    0    0 -0.34618811663E+03  0.22472068646E+03 -0.10634897285E+04  0.13172570774E+04  0.65864270000E+03 0.  0.
    8880022    1    1    2    0    0  0.34618811663E+03 -0.22472068646E+03  0.22380205755E+03  0.49378599919E+03  0.15294330000E+03 0.  0.
<mgrwt>
<rscale>  0 0.67426792E+03</rscale>
<asrwt>0</asrwt>
<pdfrwt beam="1">  1        1 0.74719647E-01 0.77727460E+03</pdfrwt>
<pdfrwt beam="2">  1       -1 0.20390236E+00 0.77727460E+03</pdfrwt>
<totfact> 0.67268191E+00</totfact>
</mgrwt>
</event>
<event>
 4    1  0.3712574E-007  0.1306961E+04  0.7818608E-02  0.9059572E-01
         -1   -1    0    0    0  501 -0.00000000000E+00  0.00000000000E+00  0.13705150263E+04  0.13705150263E+04  0.50400000000E-02 0.  1.
          1   -1    0    0  501    0  0.00000000000E+00 -0.00000000000E+00 -0.15866449017E+04  0.15866449017E+04  0.50400000000E-02 0. -1.
    8880023    1    1    2    0    0  0.81562665354E+03 -0.78044221806E+03  0.71149165787E+03  0.14880750919E+04  0.65864270000E+03 0.  0.
    8880022    1    1    2    0    0 -0.81562665354E+03  0.78044221806E+03 -0.92762153328E+03  0.14690848361E+04  0.15294330000E+03 0.  0.
<mgrwt>
<rscale>  0 0.12628302E+04</rscale>
<asrwt>0</asrwt>
<pdfrwt beam="1">  1        1 0.24409922E+00 0.13069610E+04</pdfrwt>
<pdfrwt beam="2">  1       -1 0.21084846E+00 0.13069610E+04</pdfrwt>
<totfact> 0.69921013E-01</totfact>
</mgrwt>
</event>
<event>
 4    1  0.3712574E-007  0.9063087E+03  0.7818608E-02  0.9515979E-01
         -1   -1    0    0    0  501 -0.00000000000E+00  0.00000000000E+00  0.20958046691E+04  0.20958046691E+04  0.50400000000E-02 0.  1.
          1   -1    0    0  501    0  0.00000000000E+00 -0.00000000000E+00 -0.46307157967E+03  0.46307157970E+03  0.50400000000E-02 0. -1.
    8880023    1    1    2    0    0  0.32083641542E+03  0.53352528390E+03  0.16874890942E+04  0.19154672754E+04  0.65864270000E+03 0.  1.
    8880022    1    1    2    0    0 -0.32083641542E+03 -0.53352528390E+03 -0.54756004702E+02  0.64340897342E+03  0.15294330000E+03 0.  0.
<mgrwt>
<rscale>  0 0.83115933E+03</rscale>
<asrwt>0</asrwt>
<pdfrwt beam="1">  1        1 0.71241782E-01 0.90630869E+03</pdfrwt>
<pdfrwt beam="2">  1       -1 0.32243148E+00 0.90630869E+03</pdfrwt>
<totfact> 0.11979938E+00</totfact>
</mgrwt>
</event>
<event>
 4    1  0.3712574E-007  0.1927843E+04  0.7818608E-02  0.8654931E-01
          1   -1    0    0  501    0  0.00000000000E+00  0.00000000000E+00  0.28584156989E+04  0.28584156989E+04  0.50400000000E-02 0. -1.
         -1   -1    0    0    0  501 -0.00000000000E+00 -0.00000000000E+00 -0.13154252492E+04  0.13154252492E+04  0.50400000000E-02 0.  1.
    8880023    1    1    2    0    0  0.15911214377E+04 -0.86666184530E+03  0.13322392597E+04  0.23433825627E+04  0.65864270000E+03 0.  0.
    8880022    1    1    2    0    0 -0.15911214377E+04  0.86666184530E+03  0.21075119005E+03  0.18304583855E+04  0.15294330000E+03 0.  0.
<mgrwt>
<rscale>  0 0.18998501E+04</rscale>
<asrwt>0</asrwt>
<pdfrwt beam="1">  1        1 0.43975626E+00 0.19278435E+04</pdfrwt>
<pdfrwt beam="2">  1       -1 0.20237312E+00 0.19278435E+04</pdfrwt>
<totfact> 0.98895043E-02</totfact>
</mgrwt>
</event>
<event>
 4    1  0.3712574E-007  0.6645076E+03  0.7818608E-02  0.1019950E+00
         -1   -1    0    0    0  501 -0.00000000000E+00  0.00000000000E+00  0.12055182959E+04  0.12055182959E+04  0.50400000000E-02 0.  1.
          1   -1    0    0  501    0  0.00000000000E+00 -0.00000000000E+00 -0.30852227336E+03  0.30852227340E+03  0.50400000000E-02 0. -1.
    8880023    1    1    2    0    0 -0.66974983099E+02 -0.57223432368E+02  0.10747212560E+04  0.12635648594E+04  0.65864270000E+03 0.  1.
    8880022    1    1    2    0    0  0.66974983099E+02  0.57223432368E+02 -0.17772523353E+03  0.25047570984E+03  0.15294330000E+03 0.  0.
<mgrwt>
<rscale>  0 0.47704616E+03</rscale>
<asrwt>0</asrwt>
<pdfrwt beam="1">  1        1 0.47464966E-01 0.66450762E+03</pdfrwt>
<pdfrwt beam="2">  1       -1 0.18546435E+00 0.66450762E+03</pdfrwt>
<totfact> 0.16679056E+01</totfact>
</mgrwt>
</event>
<event>
 4    1  0.3712574E-007  0.8995147E+03  0.7818608E-02  0.9526811E-01
          1   -1    0    0  501    0  0.00000000000E+00  0.00000000000E+00  0.24211924716E+04  0.24211924716E+04  0.50400000000E-02 0. -1.
         -1   -1    0    0    0  501 -0.00000000000E+00 -0.00000000000E+00 -0.57812401314E+03  0.57812401316E+03  0.50400000000E-02 0.  1.
    8880023    1    1    2    0    0  0.34305206585E+03 -0.50757447946E+03 -0.14702534760E+03  0.91145116775E+03  0.65864270000E+03 0.  1.
    8880022    1    1    2    0    0 -0.34305206585E+03  0.50757447946E+03  0.19900938061E+04  0.20878653170E+04  0.15294330000E+03 0.  0.
<mgrwt>
<rscale>  0 0.82335687E+03</rscale>
<asrwt>0</asrwt>
<pdfrwt beam="1">  1        1 0.37249115E+00 0.89951475E+03</pdfrwt>
<pdfrwt beam="2">  1       -1 0.88942155E-01 0.89951475E+03</pdfrwt>
<totfact> 0.19686484E+00</totfact>
</mgrwt>
</event>
<event>
 4    1  0.3712574E-007  0.8922951E+03  0.7818608E-02  0.9538515E-01
         -1   -1    0    0    0  501 -0.00000000000E+00  0.00000000000E+00  0.13454648522E+04  0.13454648523E+04  0.50400000000E-02 0.  1.
          1   -1    0    0  501    0  0.00000000000E+00 -0.00000000000E+00 -0.82175202425E+03  0.82175202427E+03  0.50400000000E-02 0. -1.
    8880023    1    1    2    0    0  0.44395165898E+03 -0.40655532506E+03 -0.45995776596E+03  0.10038683482E+04  0.65864270000E+03 0. -1.
    8880022    1    1    2    0    0 -0.44395165898E+03  0.40655532506E+03  0.98367059396E+03  0.11633485283E+04  0.15294330000E+03 0.  0.
<mgrwt>
<rscale>  0 0.81502833E+03</rscale>
<asrwt>0</asrwt>
<pdfrwt beam="1">  1        1 0.12642339E+00 0.89229508E+03</pdfrwt>
<pdfrwt beam="2">  1       -1 0.20699459E+00 0.89229508E+03</pdfrwt>
<totfact> 0.29056088E+00</totfact>
</mgrwt>
</event>
<event>
 4    1  0.3712574E-007  0.9663052E+03  0.7818608E-02  0.9427033E-01
         -1   -1    0    0    0  501 -0.00000000000E+00  0.00000000000E+00  0.99777149219E+03  0.99777149220E+03  0.50400000000E-02 0.  1.
          1   -1    0    0  501    0  0.00000000000E+00 -0.00000000000E+00 -0.90696368417E+03  0.90696368418E+03  0.50400000000E-02 0. -1.
    8880023    1    1    2    0    0  0.15592535811E+02  0.70688929890E+03  0.48468081691E+03  0.10810463952E+04  0.65864270000E+03 0.  0.
    8880022    1    1    2    0    0 -0.15592535811E+02 -0.70688929890E+03 -0.39387300889E+03  0.82368878117E+03  0.15294330000E+03 0.  0.
<mgrwt>
<rscale>  0 0.89884006E+03</rscale>
<asrwt>0</asrwt>
<pdfrwt beam="1">  1        1 0.13953288E+00 0.96630524E+03</pdfrwt>
<pdfrwt beam="2">  1       -1 0.15350330E+00 0.96630524E+03</pdfrwt>
<totfact> 0.59220523E+00</totfact>
</mgrwt>
</event>
<event>
 4    1  0.3712574E-007  0.8489502E+03  0.7818608E-02  0.9613529E-01
         -1   -1    0    0    0  501 -0.00000000000E+00  0.00000000000E+00  0.37092664956E+03  0.37092664960E+03  0.50400000000E-02 0.  1.
          1   -1    0    0  501    0  0.00000000000E+00 -0.00000000000E+00 -0.28903575910E+04  0.28903575910E+04  0.50400000000E-02 0. -1.
    8880023    1    1    2    0    0  0.50801109852E+03  0.16979686655E+03 -0.19502627602E+03  0.87106354918E+03  0.65864270000E+03 0.  1.
    8880022    1    1    2    0    0 -0.50801109852E+03 -0.16979686655E+03 -0.23244046654E+04  0.23902206914E+04  0.15294330000E+03 0.  0.
<mgrwt>
<rscale>  0 0.76407153E+03</rscale>
<asrwt>0</asrwt>
<pdfrwt beam="1">  1        1 0.44467039E+00 0.84895021E+03</pdfrwt>
<pdfrwt beam="2">  1       -1 0.57065640E-01 0.84895021E+03</pdfrwt>
<totfact> 0.23464342E+00</totfact>
</mgrwt>
</event>
<event>
 4    1  0.3712574E-007  0.7868631E+03  0.7818608E-02  0.9739956E-01
         -1   -1    0    0    0  501 -0.00000000000E+00  0.00000000000E+00  0.88084457387E+03  0.88084457389E+03  0.50400000000E-02 0.  1.
          1   -1    0    0  501    0  0.00000000000E+00 -0.00000000000E+00 -0.11855654601E+04  0.11855654601E+04  0.50400000000E-02 0. -1.
    8880023    1    1    2    0    0 -0.41270873674E+03 -0.12253507872E+03  0.64178784519E+03  0.10154039548E+04  0.65864270000E+03 0.  1.
    8880022    1    1    2    0    0  0.41270873674E+03  0.12253507872E+03 -0.94650873142E+03  0.10510060792E+04  0.15294330000E+03 0.  0.
<mgrwt>
<rscale>  0 0.68686881E+03</rscale>
<asrwt>0</asrwt>
<pdfrwt beam="1">  1        1 0.18239469E+00 0.78686311E+03</pdfrwt>
<pdfrwt beam="2">  1       -1 0.13551455E+00 0.78686311E+03</pdfrwt>
<totfact> 0.51546191E+00</totfact>
</mgrwt>
</event>
<event>
 4    1  0.3712574E-007  0.7947488E+03  0.7818608E-02  0.9722267E-01
          1   -1    0    0  501    0  0.00000000000E+00  0.00000000000E+00  0.19889265848E+04  0.19889265848E+04  0.50400000000E-02 0. -1.
         -1   -1    0    0    0  501 -0.00000000000E+00 -0.00000000000E+00 -0.52122053294E+03  0.52122053297E+03  0.50400000000E-02 0.  1.
    8880023    1    1    2    0    0  0.28644589417E+02  0.44384104139E+03 -0.16444356708E+03  0.81158319077E+03  0.65864270000E+03 0.  1.
    8880022    1    1    2    0    0 -0.28644589417E+02 -0.44384104139E+03  0.16321496189E+04  0.16985639270E+04  0.15294330000E+03 0.  0.
<mgrwt>
<rscale>  0 0.69706337E+03</rscale>
<asrwt>0</asrwt>
<pdfrwt beam="1">  1        1 0.30598870E+00 0.79474876E+03</pdfrwt>
<pdfrwt beam="2">  1       -1 0.80187775E-01 0.79474876E+03</pdfrwt>
<totfact> 0.49029360E+00</totfact>
</mgrwt>
</event>
<event>
 4    1  0.3712574E-007  0.1035955E+04  0.7818608E-02  0.9335959E-01
          1   -1    0    0  501    0  0.00000000000E+00  0.00000000000E+00  0.10346228369E+04  0.10346228369E+04  0.50400000000E-02 0. -1.
         -1   -1    0    0    0  501 -0.00000000000E+00 -0.00000000000E+00 -0.10155700630E+04  0.10155700630E+04  0.50400000000E-02 0.  1.
    8880023    1    1    2    0    0 -0.28293932161E+02  0.79911921873E+03 -0.42860489284E+03  0.11211174928E+04  0.65864270000E+03 0.  0.
    8880022    1    1    2    0    0  0.28293932161E+02 -0.79911921873E+03  0.44765766676E+03  0.92907540704E+03  0.15294330000E+03 0.  0.
<mgrwt>
<rscale>  0 0.97538725E+03</rscale>
<asrwt>0</asrwt>
<pdfrwt beam="1">  1        1 0.15917274E+00 0.10359548E+04</pdfrwt>
<pdfrwt beam="2">  1       -1 0.15624155E+00 0.10359548E+04</pdfrwt>
<totfact> 0.44338079E+00</totfact>
</mgrwt>
</event>
<event>
 4    1  0.3712574E-007  0.1387066E+04  0.7818608E-02  0.8993799E-01
         -1   -1    0    0    0  501 -0.00000000000E+00  0.00000000000E+00  0.53253880396E+03  0.53253880398E+03  0.50400000000E-02 0.  1.
          1   -1    0    0  501    0  0.00000000000E+00 -0.00000000000E+00 -0.33646159520E+04  0.33646159520E+04  0.50400000000E-02 0. -1.
    8880023    1    1    2    0    0  0.90806701920E+03 -0.81581543472E+03 -0.10881717987E+04  0.17629715269E+04  0.65864270000E+03 0.  1.
    8880022    1    1    2    0    0 -0.90806701920E+03  0.81581543472E+03 -0.17439053493E+04  0.21341832290E+04  0.15294330000E+03 0.  0.
<mgrwt>
<rscale>  0 0.13460825E+04</rscale>
<asrwt>0</asrwt>
<pdfrwt beam="1">  1        1 0.51763321E+00 0.13870655E+04</pdfrwt>
<pdfrwt beam="2">  1       -1 0.81929049E-01 0.13870655E+04</pdfrwt>
<totfact> 0.46210342E-01</totfact>
</mgrwt>
</event>
<event>
 4    1  0.3712574E-007  0.8431301E+03  0.7818608E-02  0.9624306E-01
          1   -1    0    0  501    0  0.00000000000E+00  0.00000000000E+00  0.15005567996E+04  0.15005567996E+04  0.50400000000E-02 0. -1.
         -1   -1    0    0    0  501 -0.00000000000E+00 -0.00000000000E+00 -0.42004184039E+03  0.42004184042E+03  0.50400000000E-02 0.  1.
    8880023    1    1    2    0    0 -0.25035606499E+03 -0.46301187662E+03  0.17346060919E+03  0.86078856078E+03  0.65864270000E+03 0.  1.
    8880022    1    1    2    0    0  0.25035606499E+03  0.46301187662E+03  0.90705435002E+03  0.10598100793E+04  0.15294330000E+03 0. -1.
<mgrwt>
<rscale>  0 0.75708116E+03</rscale>
<asrwt>0</asrwt>
<pdfrwt beam="1">  1        1 0.23085490E+00 0.84313010E+03</pdfrwt>
<pdfrwt beam="2">  1       -1 0.64621821E-01 0.84313010E+03</pdfrwt>
<totfact> 0.16241599E+01</totfact>
</mgrwt>
</event>
<event>
 4    1  0.3712574E-007  0.6744092E+03  0.7818608E-02  0.1012681E+00
          1   -1    0    0  501    0  0.00000000000E+00  0.00000000000E+00  0.57071999178E+03  0.57071999181E+03  0.50400000000E-02 0. -1.
         -1   -1    0    0    0  501 -0.00000000000E+00 -0.00000000000E+00 -0.45602510555E+03  0.45602510557E+03  0.50400000000E-02 0.  1.
    8880023    1    1    2    0    0 -0.60249124126E+02  0.13186194901E+03 -0.14750882801E+03  0.69035251224E+03  0.65864270000E+03 0.  0.
    8880022    1    1    2    0    0  0.60249124126E+02 -0.13186194901E+03  0.26220371425E+03  0.33639258514E+03  0.15294330000E+03 0.  0.
<mgrwt>
<rscale>  0 0.50422770E+03</rscale>
<asrwt>0</asrwt>
<pdfrwt beam="1">  1        1 0.87803075E-01 0.67440918E+03</pdfrwt>
<pdfrwt beam="2">  1       -1 0.70157709E-01 0.67440918E+03</pdfrwt>
<totfact> 0.77517622E+01</totfact>
</mgrwt>
</event>
<event>
 4    1  0.3712574E-007  0.6820189E+03  0.7818608E-02  0.1008204E+00
          1   -1    0    0  501    0  0.00000000000E+00  0.00000000000E+00  0.43209317600E+03  0.43209317603E+03  0.50400000000E-02 0. -1.
         -1   -1    0    0    0  501 -0.00000000000E+00 -0.00000000000E+00 -0.79233895447E+03  0.79233895449E+03  0.50400000000E-02 0.  1.
    8880023    1    1    2    0    0  0.17684058850E+03  0.81807539116E+01 -0.58609730832E+03  0.89925512484E+03  0.65864270000E+03 0.  1.
    8880022    1    1    2    0    0 -0.17684058850E+03 -0.81807539116E+01  0.22585152984E+03  0.32517700568E+03  0.15294330000E+03 0.  0.
<mgrwt>
<rscale>  0 0.52194727E+03</rscale>
<asrwt>0</asrwt>
<pdfrwt beam="1">  1        1 0.66475873E-01 0.68201886E+03</pdfrwt>
<pdfrwt beam="2">  1       -1 0.12189830E+00 0.68201886E+03</pdfrwt>
<totfact> 0.33181282E+01</totfact>
</mgrwt>
</event>
<event>
 4    1  0.3712574E-007  0.7272386E+03  0.7818608E-02  0.9898813E-01
         -1   -1    0    0    0  501 -0.00000000000E+00  0.00000000000E+00  0.36432717445E+03  0.36432717448E+03  0.50400000000E-02 0.  1.
          1   -1    0    0  501    0  0.00000000000E+00 -0.00000000000E+00 -0.15692541746E+04  0.15692541746E+04  0.50400000000E-02 0. -1.
    8880023    1    1    2    0    0 -0.30778326564E+03  0.18308502854E+02 -0.50555281737E+02  0.72899367807E+03  0.65864270000E+03 0.  1.
    8880022    1    1    2    0    0  0.30778326564E+03 -0.18308502854E+02 -0.11543717184E+04  0.12045876710E+04  0.15294330000E+03 0.  0.
<mgrwt>
<rscale>  0 0.60318836E+03</rscale>
<asrwt>0</asrwt>
<pdfrwt beam="1">  1        1 0.24142372E+00 0.72723858E+03</pdfrwt>
<pdfrwt beam="2">  1       -1 0.56050335E-01 0.72723858E+03</pdfrwt>
<totfact> 0.19597795E+01</totfact>
</mgrwt>
</event>
<event>
 4    1  0.3712574E-007  0.1126454E+04  0.7818608E-02  0.9232159E-01
         -1   -1    0    0    0  501 -0.00000000000E+00  0.00000000000E+00  0.61950211585E+03  0.61950211587E+03  0.50400000000E-02 0.  1.
          1   -1    0    0  501    0  0.00000000000E+00 -0.00000000000E+00 -0.21117029168E+04  0.21117029168E+04  0.50400000000E-02 0. -1.
    8880023    1    1    2    0    0 -0.89380300384E+03 -0.19027333727E+03 -0.20459026844E+03  0.11448821497E+04  0.65864270000E+03 0.  1.
    8880022    1    1    2    0    0  0.89380300384E+03  0.19027333727E+03 -0.12876105325E+04  0.15863228830E+04  0.15294330000E+03 0.  0.
<mgrwt>
<rscale>  0 0.10727567E+04</rscale>
<asrwt>0</asrwt>
<pdfrwt beam="1">  1        1 0.32487737E+00 0.11264537E+04</pdfrwt>
<pdfrwt beam="2">  1       -1 0.95308019E-01 0.11264537E+04</pdfrwt>
<totfact> 0.26492317E+00</totfact>
</mgrwt>
</event>
<event>
 4    1  0.3712574E-007  0.7157876E+03  0.7818608E-02  0.9937106E-01
         -1   -1    0    0    0  501 -0.00000000000E+00  0.00000000000E+00  0.54556163222E+03  0.54556163224E+03  0.50400000000E-02 0.  1.
          1   -1    0    0  501    0  0.00000000000E+00 -0.00000000000E+00 -0.10469521458E+04  0.10469521458E+04  0.50400000000E-02 0. -1.
    8880023    1    1    2    0    0  0.11247889601E+02  0.28002707169E+03  0.26422268695E+03  0.76299771327E+03  0.65864270000E+03 0.  0.
    8880022    1    1    2    0    0 -0.11247889601E+02 -0.28002707169E+03 -0.76561320052E+03  0.82951606478E+03  0.15294330000E+03 0.  0.
<mgrwt>
<rscale>  0 0.58496200E+03</rscale>
<asrwt>0</asrwt>
<pdfrwt beam="1">  1        1 0.16106956E+00 0.71578760E+03</pdfrwt>
<pdfrwt beam="2">  1       -1 0.83932559E-01 0.71578760E+03</pdfrwt>
<totfact> 0.20242704E+01</totfact>
</mgrwt>
</event>
<event>
 4    1  0.3712574E-007  0.7048785E+03  0.7818608E-02  0.9977535E-01
         -1   -1    0    0    0  501 -0.00000000000E+00  0.00000000000E+00  0.40813058878E+03  0.40813058881E+03  0.50400000000E-02 0.  1.
          1   -1    0    0  501    0  0.00000000000E+00 -0.00000000000E+00 -0.23960021607E+04  0.23960021607E+04  0.50400000000E-02 0. -1.
    8880023    1    1    2    0    0 -0.34817779425E+02  0.24865890247E+03  0.85478156349E+02  0.71004242762E+03  0.65864270000E+03 0.  1.
    8880022    1    1    2    0    0  0.34817779425E+02 -0.24865890247E+03 -0.20733497283E+04  0.20940903219E+04  0.15294330000E+03 0.  0.
<mgrwt>
<rscale>  0 0.56646362E+03</rscale>
<asrwt>0</asrwt>
<pdfrwt beam="1">  1        1 0.36861571E+00 0.70487852E+03</pdfrwt>
<pdfrwt beam="2">  1       -1 0.62789323E-01 0.70487852E+03</pdfrwt>
<totfact> 0.43878097E+00</totfact>
</mgrwt>
</event>
<event>
 4    1  0.3712574E-007  0.6762195E+03  0.7818608E-02  0.1011548E+00
         -1   -1    0    0    0  501 -0.00000000000E+00  0.00000000000E+00  0.32594414892E+03  0.32594414896E+03  0.50400000000E-02 0.  1.
          1   -1    0    0  501    0  0.00000000000E+00 -0.00000000000E+00 -0.21950416901E+04  0.21950416901E+04  0.50400000000E-02 0. -1.
    8880023    1    1    2    0    0  0.10677039503E+03  0.10982997238E+03 -0.38157594827E+02  0.67729517080E+03  0.65864270000E+03 0.  1.
    8880022    1    1    2    0    0 -0.10677039503E+03 -0.10982997238E+03 -0.18309399463E+04  0.18436906682E+04  0.15294330000E+03 0.  0.
<mgrwt>
<rscale>  0 0.50863858E+03</rscale>
<asrwt>0</asrwt>
<pdfrwt beam="1">  1        1 0.33769871E+00 0.67621945E+03</pdfrwt>
<pdfrwt beam="2">  1       -1 0.50145255E-01 0.67621945E+03</pdfrwt>
<totfact> 0.93146250E+00</totfact>
</mgrwt>
</event>
<event>
 4    1  0.3712574E-007  0.6888319E+03  0.7818608E-02  0.1004713E+00
         -1   -1    0    0    0  501 -0.00000000000E+00  0.00000000000E+00  0.71315777937E+03  0.71315777939E+03  0.50400000000E-02 0.  1.
          1   -1    0    0  501    0  0.00000000000E+00 -0.00000000000E+00 -0.50024392029E+03  0.50024392032E+03  0.50400000000E-02 0. -1.
    8880023    1    1    2    0    0 -0.11269748389E+03 -0.16726764935E+03  0.48449197090E+03  0.84215311287E+03  0.65864270000E+03 0.  1.
    8880022    1    1    2    0    0  0.11269748389E+03  0.16726764935E+03 -0.27157811182E+03  0.37124858683E+03  0.15294330000E+03 0.  0.
<mgrwt>
<rscale>  0 0.53631198E+03</rscale>
<asrwt>0</asrwt>
<pdfrwt beam="1">  1        1 0.76960603E-01 0.68883191E+03</pdfrwt>
<pdfrwt beam="2">  1       -1 0.10971658E+00 0.68883191E+03</pdfrwt>
<totfact> 0.35004361E+01</totfact>
</mgrwt>
</event>
<event>
 4    1  0.3712574E-007  0.9176545E+03  0.7818608E-02  0.9498265E-01
         -1   -1    0    0    0  501 -0.00000000000E+00  0.00000000000E+00  0.80028598917E+03  0.80028598919E+03  0.50400000000E-02 0.  1.
          1   -1    0    0  501    0  0.00000000000E+00 -0.00000000000E+00 -0.11174721737E+04  0.11174721737E+04  0.50400000000E-02 0. -1.
    8880023    1    1    2    0    0  0.15079588699E+03  0.62091880954E+03  0.34929074982E+03  0.98188278412E+03  0.65864270000E+03 0.  1.
    8880022    1    1    2    0    0 -0.15079588699E+03 -0.62091880954E+03 -0.66647693437E+03  0.93587537880E+03  0.15294330000E+03 0.  0.
<mgrwt>
<rscale>  0 0.84411873E+03</rscale>
<asrwt>0</asrwt>
<pdfrwt beam="1">  1        1 0.17191880E+00 0.91765450E+03</pdfrwt>
<pdfrwt beam="2">  1       -1 0.12312092E+00 0.91765450E+03</pdfrwt>
<totfact> 0.72368165E+00</totfact>
</mgrwt>
</event>
<event>
 4    1  0.3712574E-007  0.7044277E+03  0.7818608E-02  0.9979306E-01
         -1   -1    0    0    0  501 -0.00000000000E+00  0.00000000000E+00  0.13614136789E+04  0.13614136789E+04  0.50400000000E-02 0.  1.
          1   -1    0    0  501    0  0.00000000000E+00 -0.00000000000E+00 -0.97922487465E+03  0.97922487467E+03  0.50400000000E-02 0. -1.
    8880023    1    1    2    0    0 -0.22070282145E+03 -0.11704035213E+03  0.12444454103E+04  0.14299869807E+04  0.65864270000E+03 0.  1.
    8880022    1    1    2    0    0  0.22070282145E+03  0.11704035213E+03 -0.86225660608E+03  0.91065157287E+03  0.15294330000E+03 0.  0.
<mgrwt>
<rscale>  0 0.56566997E+03</rscale>
<asrwt>0</asrwt>
<pdfrwt beam="1">  1        1 0.15064998E+00 0.70442770E+03</pdfrwt>
<pdfrwt beam="2">  1       -1 0.20944826E+00 0.70442770E+03</pdfrwt>
<totfact> 0.21441472E+00</totfact>
</mgrwt>
</event>
<event>
 4    1  0.3712574E-007  0.7452571E+03  0.7818608E-02  0.9844890E-01
         -1   -1    0    0    0  501 -0.00000000000E+00  0.00000000000E+00  0.44281048012E+03  0.44281048015E+03  0.50400000000E-02 0.  1.
          1   -1    0    0  501    0  0.00000000000E+00 -0.00000000000E+00 -0.15575552718E+04  0.15575552718E+04  0.50400000000E-02 0. -1.
    8880023    1    1    2    0    0  0.93297086620E+02 -0.33599643603E+03  0.77041466369E+02  0.74922863346E+03  0.65864270000E+03 0.  1.
    8880022    1    1    2    0    0 -0.93297086620E+02  0.33599643603E+03 -0.11917862580E+04  0.12511371185E+04  0.15294330000E+03 0.  0.
<mgrwt>
<rscale>  0 0.63008146E+03</rscale>
<asrwt>0</asrwt>
<pdfrwt beam="1">  1        1 0.23962389E+00 0.74525711E+03</pdfrwt>
<pdfrwt beam="2">  1       -1 0.68124690E-01 0.74525711E+03</pdfrwt>
<totfact> 0.13518681E+01</totfact>
</mgrwt>
</event>
<event>
 4    1  0.3712574E-007  0.7320224E+03  0.7818608E-02  0.9883826E-01
          1   -1    0    0  501    0  0.00000000000E+00  0.00000000000E+00  0.47921014424E+04  0.47921014424E+04  0.50400000000E-02 0. -1.
         -1   -1    0    0    0  501 -0.00000000000E+00 -0.00000000000E+00 -0.12295807701E+03  0.12295807711E+03  0.50400000000E-02 0.  1.
    8880023    1    1    2    0    0  0.93022261401E+02  0.30560342367E+03  0.10577937659E+04  0.12863842548E+04  0.65864270000E+03 0.  0.
    8880022    1    1    2    0    0 -0.93022261401E+02 -0.30560342367E+03  0.36113495995E+04  0.36286752646E+04  0.15294330000E+03 0. -1.
<mgrwt>
<rscale>  0 0.61051597E+03</rscale>
<asrwt>0</asrwt>
<pdfrwt beam="1">  1        1 0.73724630E+00 0.73202240E+03</pdfrwt>
<pdfrwt beam="2">  1       -1 0.18916629E-01 0.73202240E+03</pdfrwt>
<totfact> 0.39963435E-01</totfact>
</mgrwt>
</event>
<event>
 4    1  0.3712574E-007  0.1140340E+04  0.7818608E-02  0.9217418E-01
          1   -1    0    0  501    0  0.00000000000E+00  0.00000000000E+00  0.19646452879E+04  0.19646452879E+04  0.50400000000E-02 0. -1.
         -1   -1    0    0    0  501 -0.00000000000E+00 -0.00000000000E+00 -0.56371403306E+03  0.56371403308E+03  0.50400000000E-02 0.  1.
    8880023    1    1    2    0    0 -0.44199239154E+02 -0.92984441178E+03  0.58783861844E+03  0.12829375084E+04  0.65864270000E+03 0. -1.
    8880022    1    1    2    0    0  0.44199239154E+02  0.92984441178E+03  0.81309263638E+03  0.12454218126E+04  0.15294330000E+03 0.  1.
<mgrwt>
<rscale>  0 0.10875437E+04</rscale>
<asrwt>0</asrwt>
<pdfrwt beam="1">  1        1 0.30225312E+00 0.11403396E+04</pdfrwt>
<pdfrwt beam="2">  1       -1 0.86725237E-01 0.11403396E+04</pdfrwt>
<totfact> 0.41010632E+00</totfact>
</mgrwt>
</event>
<event>
 4    1  0.3712574E-007  0.7174351E+03  0.7818608E-02  0.9931362E-01
          1   -1    0    0  501    0  0.00000000000E+00  0.00000000000E+00  0.11796292235E+04  0.11796292235E+04  0.50400000000E-02 0. -1.
         -1   -1    0    0    0  501 -0.00000000000E+00 -0.00000000000E+00 -0.27672799250E+03  0.27672799255E+03  0.50400000000E-02 0.  1.
    8880023    1    1    2    0    0 -0.28222743454E+03  0.35363910174E+02  0.31070129427E+03  0.78182378544E+03  0.65864270000E+03 0.  0.
    8880022    1    1    2    0    0  0.28222743454E+03 -0.35363910174E+02  0.59219993668E+03  0.67453343058E+03  0.15294330000E+03 0.  0.
<mgrwt>
<rscale>  0 0.58765128E+03</rscale>
<asrwt>0</asrwt>
<pdfrwt beam="1">  1        1 0.18148142E+00 0.71743511E+03</pdfrwt>
<pdfrwt beam="2">  1       -1 0.42573537E-01 0.71743511E+03</pdfrwt>
<totfact> 0.61683145E+01</totfact>
</mgrwt>
</event>
<event>
 4    1  0.3712574E-007  0.6853409E+03  0.7818608E-02  0.1006451E+00
          1   -1    0    0  501    0  0.00000000000E+00  0.00000000000E+00  0.21674673649E+04  0.21674673649E+04  0.50400000000E-02 0. -1.
         -1   -1    0    0    0  501 -0.00000000000E+00 -0.00000000000E+00 -0.36466304222E+03  0.36466304226E+03  0.50400000000E-02 0.  1.
    8880023    1    1    2    0    0 -0.50177370022E+02 -0.18265863809E+03 -0.27318070723E+02  0.68588514329E+03  0.65864270000E+03 0.  1.
    8880022    1    1    2    0    0  0.50177370022E+02  0.18265863809E+03  0.18301223934E+04  0.18462452639E+04  0.15294330000E+03 0.  0.
<mgrwt>
<rscale>  0 0.52909987E+03</rscale>
<asrwt>0</asrwt>
<pdfrwt beam="1">  1        1 0.33345652E+00 0.68534090E+03</pdfrwt>
<pdfrwt beam="2">  1       -1 0.56102005E-01 0.68534090E+03</pdfrwt>
<totfact> 0.78272817E+00</totfact>
</mgrwt>
</event>
<event>
 4    1  0.3712574E-007  0.7063250E+03  0.7818608E-02  0.9971910E-01
         -1   -1    0    0    0  501 -0.00000000000E+00  0.00000000000E+00  0.12347183063E+04  0.12347183063E+04  0.50400000000E-02 0.  1.
          1   -1    0    0  501    0  0.00000000000E+00 -0.00000000000E+00 -0.34122262358E+03  0.34122262362E+03  0.50400000000E-02 0. -1.
    8880023    1    1    2    0    0  0.21771849840E+03 -0.13297889629E+03  0.10297962726E+04  0.12487494948E+04  0.65864270000E+03 0.  0.
    8880022    1    1    2    0    0 -0.21771849840E+03  0.13297889629E+03 -0.13630058989E+03  0.32719143513E+03  0.15294330000E+03 0.  0.
<mgrwt>
<rscale>  0 0.56899288E+03</rscale>
<asrwt>0</asrwt>
<pdfrwt beam="1">  1        1 0.52495788E-01 0.70632495E+03</pdfrwt>
<pdfrwt beam="2">  1       -1 0.18995666E+00 0.70632495E+03</pdfrwt>
<totfact> 0.13542356E+01</totfact>
</mgrwt>
</event>
<event>
 4    1  0.3712574E-007  0.7034029E+03  0.7818608E-02  0.9983367E-01
          1   -1    0    0  501    0  0.00000000000E+00  0.00000000000E+00  0.21764695972E+04  0.21764695972E+04  0.50400000000E-02 0. -1.
         -1   -1    0    0    0  501 -0.00000000000E+00 -0.00000000000E+00 -0.14350184776E+03  0.14350184785E+03  0.50400000000E-02 0.  1.
    8880023    1    1    2    0    0 -0.13546895927E+03  0.20643068260E+03  0.85718481117E+03  0.11088469112E+04  0.65864270000E+03 0.  1.
    8880022    1    1    2    0    0  0.13546895927E+03 -0.20643068260E+03  0.11757829383E+04  0.12111245339E+04  0.15294330000E+03 0.  0.
<mgrwt>
<rscale>  0 0.56385618E+03</rscale>
<asrwt>0</asrwt>
<pdfrwt beam="1">  1        1 0.33484150E+00 0.70340292E+03</pdfrwt>
<pdfrwt beam="2">  1       -1 0.22077206E-01 0.70340292E+03</pdfrwt>
<totfact> 0.40853616E+01</totfact>
</mgrwt>
</event>
<event>
 4    1  0.3712574E-007  0.6818709E+03  0.7818608E-02  0.1008285E+00
          1   -1    0    0  501    0  0.00000000000E+00  0.00000000000E+00  0.11492713586E+04  0.11492713586E+04  0.50400000000E-02 0. -1.
         -1   -1    0    0    0  501 -0.00000000000E+00 -0.00000000000E+00 -0.37972551657E+03  0.37972551661E+03  0.50400000000E-02 0.  1.
    8880023    1    1    2    0    0 -0.80066891537E+01 -0.17627717183E+03 -0.43328602104E+02  0.68324616531E+03  0.65864270000E+03 0.  1.
    8880022    1    1    2    0    0  0.80066891537E+01  0.17627717183E+03  0.81287444411E+03  0.84575070989E+03  0.15294330000E+03 0.  0.
<mgrwt>
<rscale>  0 0.52162148E+03</rscale>
<asrwt>0</asrwt>
<pdfrwt beam="1">  1        1 0.17681098E+00 0.68187092E+03</pdfrwt>
<pdfrwt beam="2">  1       -1 0.58419310E-01 0.68187092E+03</pdfrwt>
<totfact> 0.35808413E+01</totfact>
</mgrwt>
</event>
<event>
 4    1  0.3712574E-007  0.9221384E+03  0.7818608E-02  0.9491388E-01
         -1   -1    0    0    0  501 -0.00000000000E+00  0.00000000000E+00  0.32980324312E+04  0.32980324312E+04  0.50400000000E-02 0.  1.
          1   -1    0    0  501    0  0.00000000000E+00 -0.00000000000E+00 -0.69563612405E+03  0.69563612407E+03  0.50400000000E-02 0. -1.
    8880023    1    1    2    0    0 -0.10966971675E+03 -0.63600441574E+03  0.30547067017E+04  0.31908576126E+04  0.65864270000E+03 0.  1.
    8880022    1    1    2    0    0  0.10966971675E+03  0.63600441574E+03 -0.45231039463E+03  0.80281094270E+03  0.15294330000E+03 0.  0.
<mgrwt>
<rscale>  0 0.84921741E+03</rscale>
<asrwt>0</asrwt>
<pdfrwt beam="1">  1        1 0.10702094E+00 0.92213842E+03</pdfrwt>
<pdfrwt beam="2">  1       -1 0.50738960E+00 0.92213842E+03</pdfrwt>
<totfact> 0.37900564E-02</totfact>
</mgrwt>
</event>
<event>
 4    1  0.3712574E-007  0.7426199E+03  0.7818608E-02  0.9852380E-01
         -1   -1    0    0    0  501 -0.00000000000E+00  0.00000000000E+00  0.66970180337E+03  0.66970180339E+03  0.50400000000E-02 0.  1.
          1   -1    0    0  501    0  0.00000000000E+00 -0.00000000000E+00 -0.10168383488E+04  0.10168383488E+04  0.50400000000E-02 0. -1.
    8880023    1    1    2    0    0 -0.32869749549E+03 -0.98142981069E+02  0.40497316187E+03  0.84586497526E+03  0.65864270000E+03 0.  0.
    8880022    1    1    2    0    0  0.32869749549E+03  0.98142981069E+02 -0.75210970727E+03  0.84067517690E+03  0.15294330000E+03 0.  0.
<mgrwt>
<rscale>  0 0.62625705E+03</rscale>
<asrwt>0</asrwt>
<pdfrwt beam="1">  1        1 0.15643667E+00 0.74261989E+03</pdfrwt>
<pdfrwt beam="2">  1       -1 0.10303105E+00 0.74261989E+03</pdfrwt>
<totfact> 0.13481901E+01</totfact>
</mgrwt>
</event>
<event>
 4    1  0.3712574E-007  0.7413720E+03  0.7818608E-02  0.9855969E-01
          1   -1    0    0  501    0  0.00000000000E+00  0.00000000000E+00  0.25145690714E+04  0.25145690714E+04  0.50400000000E-02 0. -1.
         -1   -1    0    0    0  501 -0.00000000000E+00 -0.00000000000E+00 -0.24817089020E+03  0.24817089025E+03  0.50400000000E-02 0.  1.
    8880023    1    1    2    0    0  0.30574998741E+03 -0.14946278741E+03  0.36736354566E+03  0.82739855001E+03  0.65864270000E+03 0.  1.
    8880022    1    1    2    0    0 -0.30574998741E+03  0.14946278741E+03  0.18990346355E+04  0.19353414116E+04  0.15294330000E+03 0.  0.
<mgrwt>
<rscale>  0 0.62443526E+03</rscale>
<asrwt>0</asrwt>
<pdfrwt beam="1">  1        1 0.38685679E+00 0.74137196E+03</pdfrwt>
<pdfrwt beam="2">  1       -1 0.38180136E-01 0.74137196E+03</pdfrwt>
<totfact> 0.92671341E+00</totfact>
</mgrwt>
</event>
<event>
 4    1  0.3712574E-007  0.8090503E+03  0.7818608E-02  0.9691559E-01
         -1   -1    0    0    0  501 -0.00000000000E+00  0.00000000000E+00  0.31328694607E+03  0.31328694611E+03  0.50400000000E-02 0.  1.
          1   -1    0    0  501    0  0.00000000000E+00 -0.00000000000E+00 -0.18699746393E+04  0.18699746393E+04  0.50400000000E-02 0. -1.
    8880023    1    1    2    0    0  0.45953901499E+03  0.97857062139E+02 -0.35414677388E+03  0.88316604023E+03  0.65864270000E+03 0.  0.
    8880022    1    1    2    0    0 -0.45953901499E+03 -0.97857062139E+02 -0.12025409194E+04  0.13000955452E+04  0.15294330000E+03 0.  0.
<mgrwt>
<rscale>  0 0.71521618E+03</rscale>
<asrwt>0</asrwt>
<pdfrwt beam="1">  1        1 0.28768840E+00 0.80905026E+03</pdfrwt>
<pdfrwt beam="2">  1       -1 0.48197993E-01 0.80905026E+03</pdfrwt>
<totfact> 0.16222742E+01</totfact>
</mgrwt>
</event>
<event>
 4    1  0.3712574E-007  0.6885400E+03  0.7818608E-02  0.1004854E+00
          1   -1    0    0  501    0  0.00000000000E+00  0.00000000000E+00  0.12386228181E+04  0.12386228181E+04  0.50400000000E-02 0. -1.
         -1   -1    0    0    0  501 -0.00000000000E+00 -0.00000000000E+00 -0.32243780927E+03  0.32243780931E+03  0.50400000000E-02 0.  1.
    8880023    1    1    2    0    0 -0.19213316818E+03 -0.57981963184E+02  0.86616936555E+02  0.69396668676E+03  0.65864270000E+03 0.  1.
    8880022    1    1    2    0    0  0.19213316818E+03  0.57981963184E+02  0.82956807229E+03  0.86709394067E+03  0.15294330000E+03 0.  0.
<mgrwt>
<rscale>  0 0.53571970E+03</rscale>
<asrwt>0</asrwt>
<pdfrwt beam="1">  1        1 0.19055736E+00 0.68853995E+03</pdfrwt>
<pdfrwt beam="2">  1       -1 0.49605815E-01 0.68853995E+03</pdfrwt>
<totfact> 0.42205897E+01</totfact>
</mgrwt>
</event>
<event>
 4    1  0.3712574E-007  0.7342643E+03  0.7818608E-02  0.9876981E-01
         -1   -1    0    0    0  501 -0.00000000000E+00  0.00000000000E+00  0.63250695460E+03  0.63250695462E+03  0.50400000000E-02 0.  1.
          1   -1    0    0  501    0  0.00000000000E+00 -0.00000000000E+00 -0.10642909791E+04  0.10642909791E+04  0.50400000000E-02 0. -1.
    8880023    1    1    2    0    0 -0.22295155743E+03  0.23585251297E+03  0.36719425754E+03  0.82096019018E+03  0.65864270000E+03 0.  1.
    8880022    1    1    2    0    0  0.22295155743E+03 -0.23585251297E+03 -0.79897828206E+03  0.87583774356E+03  0.15294330000E+03 0.  0.
<mgrwt>
<rscale>  0 0.61389960E+03</rscale>
<asrwt>0</asrwt>
<pdfrwt beam="1">  1        1 0.16373707E+00 0.73426427E+03</pdfrwt>
<pdfrwt beam="2">  1       -1 0.97308762E-01 0.73426427E+03</pdfrwt>
<totfact> 0.14147222E+01</totfact>
</mgrwt>
</event>
<event>
 4    1  0.3712574E-007  0.6679684E+03  0.7818608E-02  0.1017163E+00
         -1   -1    0    0    0  501 -0.00000000000E+00  0.00000000000E+00  0.36144098089E+03  0.36144098093E+03  0.50400000000E-02 0.  1.
          1   -1    0    0  501    0  0.00000000000E+00 -0.00000000000E+00 -0.74746593021E+03  0.74746593022E+03  0.50400000000E-02 0. -1.
    8880023    1    1    2    0    0 -0.10057186557E+03 -0.47506350816E+02  0.12178139376E+02  0.66807938664E+03  0.65864270000E+03 0.  1.
    8880022    1    1    2    0    0  0.10057186557E+03  0.47506350816E+02 -0.39820308869E+03  0.44082752451E+03  0.15294330000E+03 0.  0.
<mgrwt>
<rscale>  0 0.48724398E+03</rscale>
<asrwt>0</asrwt>
<pdfrwt beam="1">  1        1 0.11499476E+00 0.66796838E+03</pdfrwt>
<pdfrwt beam="2">  1       -1 0.55606305E-01 0.66796838E+03</pdfrwt>
<totfact> 0.82678708E+01</totfact>
</mgrwt>
</event>
<event>
 4    1  0.3712574E-007  0.8386587E+03  0.7818608E-02  0.9632715E-01
         -1   -1    0    0    0  501 -0.00000000000E+00  0.00000000000E+00  0.64504753098E+03  0.64504753100E+03  0.50400000000E-02 0.  1.
          1   -1    0    0  501    0  0.00000000000E+00 -0.00000000000E+00 -0.86196189981E+03  0.86196189982E+03  0.50400000000E-02 0. -1.
    8880023    1    1    2    0    0 -0.48978382691E+03  0.17219196465E+03  0.15157566975E+03  0.85224624359E+03  0.65864270000E+03 0.  1.
    8880022    1    1    2    0    0  0.48978382691E+03 -0.17219196465E+03 -0.36849003858E+03  0.65476318723E+03  0.15294330000E+03 0.  0.
<mgrwt>
<rscale>  0 0.75168247E+03</rscale>
<asrwt>0</asrwt>
<pdfrwt beam="1">  1        1 0.13260952E+00 0.83865874E+03</pdfrwt>
<pdfrwt beam="2">  1       -1 0.99238081E-01 0.83865874E+03</pdfrwt>
<totfact> 0.19322501E+01</totfact>
</mgrwt>
</event>
<event>
 4    1  0.3712574E-007  0.7938507E+03  0.7818608E-02  0.9724253E-01
         -1   -1    0    0    0  501 -0.00000000000E+00  0.00000000000E+00  0.40289694221E+03  0.40289694224E+03  0.50400000000E-02 0.  1.
          1   -1    0    0  501    0  0.00000000000E+00 -0.00000000000E+00 -0.11671580288E+04  0.11671580288E+04  0.50400000000E-02 0. -1.
    8880023    1    1    2    0    0 -0.28582741469E+01 -0.44314850198E+03 -0.76324617926E+03  0.11012464306E+04  0.65864270000E+03 0. -1.
    8880022    1    1    2    0    0  0.28582741469E+01  0.44314850198E+03 -0.10149073368E+01  0.46880854044E+03  0.15294330000E+03 0. -1.
<mgrwt>
<rscale>  0 0.69590949E+03</rscale>
<asrwt>0</asrwt>
<pdfrwt beam="1">  1        1 0.17956277E+00 0.79385072E+03</pdfrwt>
<pdfrwt beam="2">  1       -1 0.61984145E-01 0.79385072E+03</pdfrwt>
<totfact> 0.30522215E+01</totfact>
</mgrwt>
</event>
<event>
 4    1  0.3712574E-007  0.6894148E+03  0.7818608E-02  0.1004432E+00
          1   -1    0    0  501    0  0.00000000000E+00  0.00000000000E+00  0.86527752700E+03  0.86527752701E+03  0.50400000000E-02 0. -1.
         -1   -1    0    0    0  501 -0.00000000000E+00 -0.00000000000E+00 -0.26338186977E+03  0.26338186982E+03  0.50400000000E-02 0.  1.
    8880023    1    1    2    0    0  0.12154094360E+03 -0.16343311753E+03  0.36158671111E+03  0.77848425854E+03  0.65864270000E+03 0.  0.
    8880022    1    1    2    0    0 -0.12154094360E+03  0.16343311753E+03  0.24030894612E+03  0.35017513829E+03  0.15294330000E+03 0.  1.
<mgrwt>
<rscale>  0 0.53748889E+03</rscale>
<asrwt>0</asrwt>
<pdfrwt beam="1">  1        1 0.13311962E+00 0.68941482E+03</pdfrwt>
<pdfrwt beam="2">  1       -1 0.40520287E-01 0.68941482E+03</pdfrwt>
<totfact> 0.11821949E+02</totfact>
</mgrwt>
</event>
<event>
 4    1  0.3712574E-007  0.7347682E+03  0.7818608E-02  0.9875458E-01
         -1   -1    0    0    0  501 -0.00000000000E+00  0.00000000000E+00  0.24935700004E+03  0.24935700009E+03  0.50400000000E-02 0.  1.
          1   -1    0    0  501    0  0.00000000000E+00 -0.00000000000E+00 -0.20867919998E+04  0.20867919998E+04  0.50400000000E-02 0. -1.
    8880023    1    1    2    0    0 -0.29725009253E+03 -0.13310305548E+03 -0.36508368948E+03  0.82046958961E+03  0.65864270000E+03 0.  1.
    8880022    1    1    2    0    0  0.29725009253E+03  0.13310305548E+03 -0.14723513103E+04  0.15156794103E+04  0.15294330000E+03 0.  0.
<mgrwt>
<rscale>  0 0.61465594E+03</rscale>
<asrwt>0</asrwt>
<pdfrwt beam="1">  1        1 0.32104491E+00 0.73476816E+03</pdfrwt>
<pdfrwt beam="2">  1       -1 0.38362617E-01 0.73476816E+03</pdfrwt>
<totfact> 0.17876782E+01</totfact>
</mgrwt>
</event>
<event>
 4    1  0.3712574E-007  0.7372821E+03  0.7818608E-02  0.9867936E-01
          1   -1    0    0  501    0  0.00000000000E+00  0.00000000000E+00  0.14771209737E+04  0.14771209737E+04  0.50400000000E-02 0. -1.
         -1   -1    0    0    0  501 -0.00000000000E+00 -0.00000000000E+00 -0.95378526728E+03  0.95378526729E+03  0.50400000000E-02 0.  1.
    8880023    1    1    2    0    0 -0.25948426232E+03  0.20601589524E+03 -0.78245048671E+03  0.10750877182E+04  0.65864270000E+03 0.  1.
    8880022    1    1    2    0    0  0.25948426232E+03 -0.20601589524E+03  0.13057861931E+04  0.13558185227E+04  0.15294330000E+03 0.  0.
<mgrwt>
<rscale>  0 0.61840720E+03</rscale>
<asrwt>0</asrwt>
<pdfrwt beam="1">  1        1 0.22724938E+00 0.73728206E+03</pdfrwt>
<pdfrwt beam="2">  1       -1 0.14673620E+00 0.73728206E+03</pdfrwt>
<totfact> 0.26313026E+00</totfact>
</mgrwt>
</event>
<event>
 4    1  0.3712574E-007  0.6809223E+03  0.7818608E-02  0.1008807E+00
          1   -1    0    0  501    0  0.00000000000E+00  0.00000000000E+00  0.25590635440E+04  0.25590635440E+04  0.50400000000E-02 0. -1.
         -1   -1    0    0    0  501 -0.00000000000E+00 -0.00000000000E+00 -0.14739619082E+03  0.14739619090E+03  0.50400000000E-02 0.  1.
    8880023    1    1    2    0    0  0.98459832100E+02  0.14195270537E+03  0.69003309761E+03  0.96943323193E+03  0.65864270000E+03 0.  0.
    8880022    1    1    2    0    0 -0.98459832100E+02 -0.14195270537E+03  0.17216342555E+04  0.17370265030E+04  0.15294330000E+03 0.  0.
<mgrwt>
<rscale>  0 0.51951656E+03</rscale>
<asrwt>0</asrwt>
<pdfrwt beam="1">  1        1 0.39370204E+00 0.68092225E+03</pdfrwt>
<pdfrwt beam="2">  1       -1 0.22676340E-01 0.68092225E+03</pdfrwt>
<totfact> 0.21601463E+01</totfact>
</mgrwt>
</event>
<event>
 4    1  0.3712574E-007  0.8192928E+03  0.7818608E-02  0.9670536E-01
          1   -1    0    0  501    0  0.00000000000E+00  0.00000000000E+00  0.44086497649E+04  0.44086497649E+04  0.50400000000E-02 0. -1.
         -1   -1    0    0    0  501 -0.00000000000E+00 -0.00000000000E+00 -0.14356664837E+03  0.14356664846E+03  0.50400000000E-02 0.  1.
    8880023    1    1    2    0    0 -0.90698101098E+02 -0.47875288610E+03  0.12525723948E+04  0.14967225133E+04  0.65864270000E+03 0.  1.
    8880022    1    1    2    0    0  0.90698101098E+02  0.47875288610E+03  0.30125107218E+04  0.30554939000E+04  0.15294330000E+03 0.  0.
<mgrwt>
<rscale>  0 0.72798495E+03</rscale>
<asrwt>0</asrwt>
<pdfrwt beam="1">  1        1 0.67825397E+00 0.81929279E+03</pdfrwt>
<pdfrwt beam="2">  1       -1 0.22087172E-01 0.81929279E+03</pdfrwt>
<totfact> 0.76114420E-01</totfact>
</mgrwt>
</event>
<event>
 4    1  0.3712574E-007  0.7217769E+03  0.7818608E-02  0.9916619E-01
          1   -1    0    0  501    0  0.00000000000E+00  0.00000000000E+00  0.18716315608E+04  0.18716315608E+04  0.50400000000E-02 0. -1.
         -1   -1    0    0    0  501 -0.00000000000E+00 -0.00000000000E+00 -0.58377320441E+03  0.58377320443E+03  0.50400000000E-02 0.  1.
    8880023    1    1    2    0    0  0.90520340416E+02 -0.28099424486E+03 -0.33721699983E+03  0.79666630964E+03  0.65864270000E+03 0.  0.
    8880022    1    1    2    0    0 -0.90520340416E+02  0.28099424486E+03  0.16250753562E+04  0.16587384556E+04  0.15294330000E+03 0.  0.
<mgrwt>
<rscale>  0 0.59462589E+03</rscale>
<asrwt>0</asrwt>
<pdfrwt beam="1">  1        1 0.28794331E+00 0.72177691E+03</pdfrwt>
<pdfrwt beam="2">  1       -1 0.89811263E-01 0.72177691E+03</pdfrwt>
<totfact> 0.46555401E+00</totfact>
</mgrwt>
</event>
<event>
 4    1  0.3712574E-007  0.7781310E+03  0.7818608E-02  0.9760246E-01
         -1   -1    0    0    0  501 -0.00000000000E+00  0.00000000000E+00  0.43239938849E+03  0.43239938852E+03  0.50400000000E-02 0.  1.
          1   -1    0    0  501    0  0.00000000000E+00 -0.00000000000E+00 -0.11154456915E+04  0.11154456915E+04  0.50400000000E-02 0. -1.
    8880023    1    1    2    0    0 -0.19817965717E+02 -0.41386576867E+03 -0.55031744216E+02  0.78007456398E+03  0.65864270000E+03 0.  1.
    8880022    1    1    2    0    0  0.19817965717E+02  0.41386576867E+03 -0.62801455880E+03  0.76777051605E+03  0.15294330000E+03 0.  0.
<mgrwt>
<rscale>  0 0.67540324E+03</rscale>
<asrwt>0</asrwt>
<pdfrwt beam="1">  1        1 0.17160703E+00 0.77813099E+03</pdfrwt>
<pdfrwt beam="2">  1       -1 0.66522983E-01 0.77813099E+03</pdfrwt>
<totfact> 0.28971222E+01</totfact>
</mgrwt>
</event>
<event>
 4    1  0.3712574E-007  0.8326175E+03  0.7818608E-02  0.9644261E-01
         -1   -1    0    0    0  501 -0.00000000000E+00  0.00000000000E+00  0.80034890818E+03  0.80034890820E+03  0.50400000000E-02 0.  1.
          1   -1    0    0  501    0  0.00000000000E+00 -0.00000000000E+00 -0.71524659057E+03  0.71524659059E+03  0.50400000000E-02 0. -1.
    8880023    1    1    2    0    0  0.32374656855E+03 -0.39323008392E+03  0.37130102623E+03  0.91165585497E+03  0.65864270000E+03 0.  1.
    8880022    1    1    2    0    0 -0.32374656855E+03  0.39323008392E+03 -0.28619870862E+03  0.60393964382E+03  0.15294330000E+03 0.  0.
<mgrwt>
<rscale>  0 0.74434709E+03</rscale>
<asrwt>0</asrwt>
<pdfrwt beam="1">  1        1 0.11003794E+00 0.83261753E+03</pdfrwt>
<pdfrwt beam="2">  1       -1 0.12313060E+00 0.83261753E+03</pdfrwt>
<totfact> 0.15601519E+01</totfact>
</mgrwt>
</event>
<event>
 4    1  0.3712574E-007  0.8490015E+03  0.7818608E-02  0.9613435E-01
         -1   -1    0    0    0  501 -0.00000000000E+00  0.00000000000E+00  0.34988482256E+03  0.34988482260E+03  0.50400000000E-02 0.  1.
          1   -1    0    0  501    0  0.00000000000E+00 -0.00000000000E+00 -0.14590039091E+04  0.14590039092E+04  0.50400000000E-02 0. -1.
    8880023    1    1    2    0    0 -0.25338230826E+03 -0.47200709749E+03 -0.50836138124E+03  0.98956293101E+03  0.65864270000E+03 0.  1.
    8880022    1    1    2    0    0  0.25338230826E+03  0.47200709749E+03 -0.60075770535E+03  0.81932580075E+03  0.15294330000E+03 0. -1.
<mgrwt>
<rscale>  0 0.76413293E+03</rscale>
<asrwt>0</asrwt>
<pdfrwt beam="1">  1        1 0.22446214E+00 0.84900147E+03</pdfrwt>
<pdfrwt beam="2">  1       -1 0.53828435E-01 0.84900147E+03</pdfrwt>
<totfact> 0.24838710E+01</totfact>
</mgrwt>
</event>
<event>
 4    1  0.3712574E-007  0.7501295E+03  0.7818608E-02  0.9831366E-01
         -1   -1    0    0    0  501 -0.00000000000E+00  0.00000000000E+00  0.13770340635E+03  0.13770340644E+03  0.50400000000E-02 0.  1.
          1   -1    0    0  501    0  0.00000000000E+00 -0.00000000000E+00 -0.31126681130E+04  0.31126681130E+04  0.50400000000E-02 0. -1.
    8880023    1    1    2    0    0  0.23299341363E+03  0.27312669565E+03 -0.10756235239E+04  0.13113581868E+04  0.65864270000E+03 0.  1.
    8880022    1    1    2    0    0 -0.23299341363E+03 -0.27312669565E+03 -0.18993411827E+04  0.19390133326E+04  0.15294330000E+03 0.  0.
<mgrwt>
<rscale>  0 0.63706105E+03</rscale>
<asrwt>0</asrwt>
<pdfrwt beam="1">  1        1 0.47887196E+00 0.75012954E+03</pdfrwt>
<pdfrwt beam="2">  1       -1 0.21185142E-01 0.75012954E+03</pdfrwt>
<totfact> 0.97603148E+00</totfact>
</mgrwt>
</event>
<event>
 4    1  0.3712574E-007  0.1038955E+04  0.7818608E-02  0.9332278E-01
          1   -1    0    0  501    0  0.00000000000E+00  0.00000000000E+00  0.33563227364E+04  0.33563227364E+04  0.50400000000E-02 0. -1.
         -1   -1    0    0    0  501 -0.00000000000E+00 -0.00000000000E+00 -0.37964728762E+03  0.37964728765E+03  0.50400000000E-02 0.  1.
    8880023    1    1    2    0    0  0.71865323184E+03  0.35938213144E+03  0.55082889287E+03  0.11759424559E+04  0.65864270000E+03 0.  0.
    8880022    1    1    2    0    0 -0.71865323184E+03 -0.35938213144E+03  0.24258465559E+04  0.25600275682E+04  0.15294330000E+03 0.  0.
<mgrwt>
<rscale>  0 0.97864843E+03</rscale>
<asrwt>0</asrwt>
<pdfrwt beam="1">  1        1 0.51635734E+00 0.10389553E+04</pdfrwt>
<pdfrwt beam="2">  1       -1 0.58407275E-01 0.10389553E+04</pdfrwt>
<totfact> 0.98886653E-01</totfact>
</mgrwt>
</event>
<event>
 4    1  0.3712574E-007  0.1106216E+04  0.7818608E-02  0.9254167E-01
         -1   -1    0    0    0  501 -0.00000000000E+00  0.00000000000E+00  0.27232903181E+04  0.27232903181E+04  0.50400000000E-02 0.  1.
          1   -1    0    0  501    0  0.00000000000E+00 -0.00000000000E+00 -0.18064261488E+04  0.18064261488E+04  0.50400000000E-02 0. -1.
    8880023    1    1    2    0    0  0.32598170600E+03 -0.82682504902E+03 -0.15493805660E+04  0.19037578835E+04  0.65864270000E+03 0.  0.
    8880022    1    1    2    0    0 -0.32598170600E+03  0.82682504902E+03  0.24662447353E+04  0.26259585834E+04  0.15294330000E+03 0.  0.
<mgrwt>
<rscale>  0 0.10511411E+04</rscale>
<asrwt>0</asrwt>
<pdfrwt beam="1">  1        1 0.27791171E+00 0.11062160E+04</pdfrwt>
<pdfrwt beam="2">  1       -1 0.41896774E+00 0.11062160E+04</pdfrwt>
<totfact> 0.21590395E-02</totfact>
</mgrwt>
</event>
<event>
 4    1  0.3712574E-007  0.7373438E+03  0.7818608E-02  0.9867753E-01
         -1   -1    0    0    0  501 -0.00000000000E+00  0.00000000000E+00  0.10321490174E+04  0.10321490174E+04  0.50400000000E-02 0.  1.
          1   -1    0    0  501    0  0.00000000000E+00 -0.00000000000E+00 -0.50876779344E+03  0.50876779347E+03  0.50400000000E-02 0. -1.
    8880023    1    1    2    0    0 -0.23132595017E+03 -0.23738996046E+03  0.79620892575E+03  0.10851841080E+04  0.65864270000E+03 0.  1.
    8880022    1    1    2    0    0  0.23132595017E+03  0.23738996046E+03 -0.27282770182E+03  0.45573270285E+03  0.15294330000E+03 0.  0.
<mgrwt>
<rscale>  0 0.61849889E+03</rscale>
<asrwt>0</asrwt>
<pdfrwt beam="1">  1        1 0.78271969E-01 0.73734381E+03</pdfrwt>
<pdfrwt beam="2">  1       -1 0.15879216E+00 0.73734381E+03</pdfrwt>
<totfact> 0.13303695E+01</totfact>
</mgrwt>
</event>
<event>
 4    1  0.3712574E-007  0.7360647E+03  0.7818608E-02  0.9871562E-01
          1   -1    0    0  501    0  0.00000000000E+00  0.00000000000E+00  0.23839558734E+03  0.23839558739E+03  0.50400000000E-02 0. -1.
         -1   -1    0    0    0  501 -0.00000000000E+00 -0.00000000000E+00 -0.16270849460E+04  0.16270849460E+04  0.50400000000E-02 0.  1.
    8880023    1    1    2    0    0 -0.32653613548E+03 -0.36813862117E+02 -0.45854391586E+03  0.86721037658E+03  0.65864270000E+03 0.  0.
    8880022    1    1    2    0    0  0.32653613548E+03  0.36813862117E+02 -0.93014544281E+03  0.99827015682E+03  0.15294330000E+03 0.  0.
<mgrwt>
<rscale>  0 0.61659526E+03</rscale>
<asrwt>0</asrwt>
<pdfrwt beam="1">  1        1 0.36676245E-01 0.73606475E+03</pdfrwt>
<pdfrwt beam="2">  1       -1 0.25032075E+00 0.73606475E+03</pdfrwt>
<totfact> 0.85172948E+00</totfact>
</mgrwt>
</event>
<event>
 4    1  0.3712574E-007  0.8848895E+03  0.7818608E-02  0.9550737E-01
          1   -1    0    0  501    0  0.00000000000E+00  0.00000000000E+00  0.50450532873E+03  0.50450532876E+03  0.50400000000E-02 0. -1.
         -1   -1    0    0    0  501 -0.00000000000E+00 -0.00000000000E+00 -0.16437032778E+04  0.16437032778E+04  0.50400000000E-02 0.  1.
    8880023    1    1    2    0    0  0.12725544772E+03 -0.57708347708E+03 -0.33880645098E+02  0.88553791159E+03  0.65864270000E+03 0. -1.
    8880022    1    1    2    0    0 -0.12725544772E+03  0.57708347708E+03 -0.11053173040E+04  0.12626706950E+04  0.15294330000E+03 0.  0.
<mgrwt>
<rscale>  0 0.80644313E+03</rscale>
<asrwt>0</asrwt>
<pdfrwt beam="1">  1        1 0.77616205E-01 0.88488954E+03</pdfrwt>
<pdfrwt beam="2">  1       -1 0.25287742E+00 0.88488954E+03</pdfrwt>
<totfact> 0.29906317E+00</totfact>
</mgrwt>
</event>
<event>
 4    1  0.3712574E-007  0.8003448E+03  0.7818608E-02  0.9710051E-01
          1   -1    0    0  501    0  0.00000000000E+00  0.00000000000E+00  0.30739497873E+03  0.30739497877E+03  0.50400000000E-02 0. -1.
         -1   -1    0    0    0  501 -0.00000000000E+00 -0.00000000000E+00 -0.16650921367E+04  0.16650921367E+04  0.50400000000E-02 0.  1.
    8880023    1    1    2    0    0  0.30812896652E+03 -0.33436234104E+03 -0.12444206917E+04  0.14795724718E+04  0.65864270000E+03 0.  0.
    8880022    1    1    2    0    0 -0.30812896652E+03  0.33436234104E+03 -0.11327646626E+03  0.49291464366E+03  0.15294330000E+03 0.  0.
<mgrwt>
<rscale>  0 0.70421502E+03</rscale>
<asrwt>0</asrwt>
<pdfrwt beam="1">  1        1 0.47291536E-01 0.80034483E+03</pdfrwt>
<pdfrwt beam="2">  1       -1 0.25616802E+00 0.80034483E+03</pdfrwt>
<totfact> 0.55722013E+00</totfact>
</mgrwt>
</event>
<event>
 4    1  0.3712574E-007  0.6671504E+03  0.7818608E-02  0.1017794E+00
         -1   -1    0    0    0  501 -0.00000000000E+00  0.00000000000E+00  0.40709383655E+03  0.40709383658E+03  0.50400000000E-02 0.  1.
          1   -1    0    0  501    0  0.00000000000E+00 -0.00000000000E+00 -0.10689191945E+04  0.10689191945E+04  0.50400000000E-02 0. -1.
    8880023    1    1    2    0    0 -0.10216438057E+03 -0.29014659597E+02  0.11516987290E+03  0.67701825457E+03  0.65864270000E+03 0.  1.
    8880022    1    1    2    0    0  0.10216438057E+03  0.29014659597E+02 -0.77699523088E+03  0.79899477655E+03  0.15294330000E+03 0.  0.
<mgrwt>
<rscale>  0 0.48491285E+03</rscale>
<asrwt>0</asrwt>
<pdfrwt beam="1">  1        1 0.16444911E+00 0.66715037E+03</pdfrwt>
<pdfrwt beam="2">  1       -1 0.62629821E-01 0.66715037E+03</pdfrwt>
<totfact> 0.35876015E+01</totfact>
</mgrwt>
</event>
<event>
 4    1  0.3712574E-007  0.9297229E+03  0.7818608E-02  0.9479909E-01
          1   -1    0    0  501    0  0.00000000000E+00  0.00000000000E+00  0.18787675306E+04  0.18787675307E+04  0.50400000000E-02 0. -1.
         -1   -1    0    0    0  501 -0.00000000000E+00 -0.00000000000E+00 -0.68129827111E+03  0.68129827112E+03  0.50400000000E-02 0.  1.
    8880023    1    1    2    0    0  0.40902758444E+02  0.65490559882E+03 -0.25061444086E+03  0.96290819046E+03  0.65864270000E+03 0.  0.
    8880022    1    1    2    0    0 -0.40902758444E+02 -0.65490559882E+03  0.14480837004E+04  0.15971576113E+04  0.15294330000E+03 0.  0.
<mgrwt>
<rscale>  0 0.85781384E+03</rscale>
<asrwt>0</asrwt>
<pdfrwt beam="1">  1        1 0.28904116E+00 0.92972285E+03</pdfrwt>
<pdfrwt beam="2">  1       -1 0.10481512E+00 0.92972285E+03</pdfrwt>
<totfact> 0.31393435E+00</totfact>
</mgrwt>
</event>
<event>
 4    1  0.6739485E-007  0.7626739E+03  0.7818608E-02  0.9798234E-01
          1   -1    0    0  501    0  0.00000000000E+00  0.00000000000E+00  0.16043415365E+04  0.16043415365E+04  0.50400000000E-02 0. -1.
         -1   -1    0    0    0  501 -0.00000000000E+00 -0.00000000000E+00 -0.12418345597E+04  0.12418345597E+04  0.50400000000E-02 0.  1.
    8880023    1    1    2    0    0 -0.33203934471E+03 -0.19393583530E+03 -0.10931101285E+04  0.13328770363E+04  0.65864270000E+03 0.  1.
    8880022    1    1    2    0    0  0.33203934471E+03  0.19393583530E+03  0.14556171053E+04  0.15132990600E+04  0.15294330000E+03 0.  0.
<mgrwt>
<rscale>  0 0.65457421E+03</rscale>
<asrwt>0</asrwt>
<pdfrwt beam="1">  1        1 0.24682177E+00 0.76267388E+03</pdfrwt>
<pdfrwt beam="2">  1       -1 0.19105147E+00 0.76267388E+03</pdfrwt>
<totfact> 0.10118478E+00</totfact>
</mgrwt>
</event>
<event>
 4    1  0.3712574E-007  0.6794571E+03  0.7818608E-02  0.1009632E+00
          1   -1    0    0  501    0  0.00000000000E+00  0.00000000000E+00  0.14415241377E+04  0.14415241377E+04  0.50400000000E-02 0. -1.
         -1   -1    0    0    0  501 -0.00000000000E+00 -0.00000000000E+00 -0.36155698618E+03  0.36155698621E+03  0.50400000000E-02 0.  1.
    8880023    1    1    2    0    0  0.15841743298E+03 -0.52494285203E+02 -0.20308176923E+02  0.67976051766E+03  0.65864270000E+03 0.  1.
    8880022    1    1    2    0    0 -0.15841743298E+03  0.52494285203E+02  0.11002753284E+04  0.11233206062E+04  0.15294330000E+03 0.  0.
<mgrwt>
<rscale>  0 0.51620981E+03</rscale>
<asrwt>0</asrwt>
<pdfrwt beam="1">  1        1 0.22177294E+00 0.67945709E+03</pdfrwt>
<pdfrwt beam="2">  1       -1 0.55624152E-01 0.67945709E+03</pdfrwt>
<totfact> 0.24479077E+01</totfact>
</mgrwt>
</event>
<event>
 4    1  0.7235304E-007  0.6865198E+03  0.7818608E-02  0.1005853E+00
          1   -1    0    0  501    0  0.00000000000E+00  0.00000000000E+00  0.19984292267E+04  0.19984292267E+04  0.50400000000E-02 0. -1.
         -1   -1    0    0    0  501 -0.00000000000E+00 -0.00000000000E+00 -0.13806764695E+04  0.13806764696E+04  0.50400000000E-02 0.  1.
    8880023    1    1    2    0    0  0.19237103015E+03 -0.22195117155E+02 -0.12868821410E+04  0.14585523945E+04  0.65864270000E+03 0.  1.
    8880022    1    1    2    0    0 -0.19237103015E+03  0.22195117155E+02  0.19046348982E+04  0.19205533017E+04  0.15294330000E+03 0.  0.
<mgrwt>
<rscale>  0 0.53156802E+03</rscale>
<asrwt>0</asrwt>
<pdfrwt beam="1">  1        1 0.30745065E+00 0.68651981E+03</pdfrwt>
<pdfrwt beam="2">  1       -1 0.21241177E+00 0.68651981E+03</pdfrwt>
<totfact> 0.40086243E-01</totfact>
</mgrwt>
</event>
<event>
 4    1  0.3712574E-007  0.8330405E+03  0.7818608E-02  0.9643445E-01
         -1   -1    0    0    0  501 -0.00000000000E+00  0.00000000000E+00  0.17617020293E+04  0.17617020293E+04  0.50400000000E-02 0.  1.
          1   -1    0    0  501    0  0.00000000000E+00 -0.00000000000E+00 -0.44132010515E+03  0.44132010518E+03  0.50400000000E-02 0. -1.
    8880023    1    1    2    0    0 -0.46280739620E+03 -0.21437271022E+03  0.14341359843E+04  0.16585242153E+04  0.65864270000E+03 0.  0.
    8880022    1    1    2    0    0  0.46280739620E+03  0.21437271022E+03 -0.11375406013E+03  0.54449791926E+03  0.15294330000E+03 0.  0.
<mgrwt>
<rscale>  0 0.74486233E+03</rscale>
<asrwt>0</asrwt>
<pdfrwt beam="1">  1        1 0.67895401E-01 0.83304055E+03</pdfrwt>
<pdfrwt beam="2">  1       -1 0.27103108E+00 0.83304055E+03</pdfrwt>
<totfact> 0.27628535E+00</totfact>
</mgrwt>
</event>
<event>
 4    1  0.3712574E-007  0.6685749E+03  0.7818608E-02  0.1016706E+00
          1   -1    0    0  501    0  0.00000000000E+00  0.00000000000E+00  0.19944889609E+04  0.19944889609E+04  0.50400000000E-02 0. -1.
         -1   -1    0    0    0  501 -0.00000000000E+00 -0.00000000000E+00 -0.13587663180E+03  0.13587663190E+03  0.50400000000E-02 0.  1.
    8880023    1    1    2    0    0  0.39385607828E+02  0.10784676564E+03  0.74731262955E+03  0.10027305339E+04  0.65864270000E+03 0.  1.
    8880022    1    1    2    0    0 -0.39385607828E+02 -0.10784676564E+03  0.11112996995E+04  0.11276350589E+04  0.15294330000E+03 0.  0.
<mgrwt>
<rscale>  0 0.48894364E+03</rscale>
<asrwt>0</asrwt>
<pdfrwt beam="1">  1        1 0.30684446E+00 0.66857487E+03</pdfrwt>
<pdfrwt beam="2">  1       -1 0.20904097E-01 0.66857487E+03</pdfrwt>
<totfact> 0.59493950E+01</totfact>
</mgrwt>
</event>
<event>
 4    1  0.3712574E-007  0.1084050E+04  0.7818608E-02  0.9279025E-01
         -1   -1    0    0    0  501 -0.00000000000E+00  0.00000000000E+00  0.63169670850E+03  0.63169670852E+03  0.50400000000E-02 0.  1.
          1   -1    0    0  501    0  0.00000000000E+00 -0.00000000000E+00 -0.15912782646E+04  0.15912782646E+04  0.50400000000E-02 0. -1.
    8880023    1    1    2    0    0  0.24325360671E+03 -0.82594356688E+03 -0.76581561570E+03  0.13272674396E+04  0.65864270000E+03 0.  0.
    8880022    1    1    2    0    0 -0.24325360671E+03  0.82594356688E+03 -0.19376594039E+03  0.89570753347E+03  0.15294330000E+03 0.  0.
<mgrwt>
<rscale>  0 0.10273698E+04</rscale>
<asrwt>0</asrwt>
<pdfrwt beam="1">  1        1 0.24481204E+00 0.10840504E+04</pdfrwt>
<pdfrwt beam="2">  1       -1 0.97184109E-01 0.10840504E+04</pdfrwt>
<totfact> 0.57363688E+00</totfact>
</mgrwt>
</event>
<event>
 4    1  0.3712574E-007  0.6780156E+03  0.7818608E-02  0.1010469E+00
         -1   -1    0    0    0  501 -0.00000000000E+00  0.00000000000E+00  0.29279453883E+03  0.29279453888E+03  0.50400000000E-02 0.  1.
          1   -1    0    0  501    0  0.00000000000E+00 -0.00000000000E+00 -0.26755668668E+04  0.26755668668E+04  0.50400000000E-02 0. -1.
    8880023    1    1    2    0    0  0.64302816361E+02  0.14751296528E+03 -0.11253052953E+03  0.68729051605E+03  0.65864270000E+03 0.  1.
    8880022    1    1    2    0    0 -0.64302816361E+02 -0.14751296528E+03 -0.22702417984E+04  0.22810708896E+04  0.15294330000E+03 0.  0.
<mgrwt>
<rscale>  0 0.51288600E+03</rscale>
<asrwt>0</asrwt>
<pdfrwt beam="1">  1        1 0.41162566E+00 0.67801558E+03</pdfrwt>
<pdfrwt beam="2">  1       -1 0.45045315E-01 0.67801558E+03</pdfrwt>
<totfact> 0.53714179E+00</totfact>
</mgrwt>
</event>
<event>
 4    1  0.3712574E-007  0.9940072E+03  0.7818608E-02  0.9389440E-01
         -1   -1    0    0    0  501 -0.00000000000E+00  0.00000000000E+00  0.17972319108E+04  0.17972319108E+04  0.50400000000E-02 0.  1.
          1   -1    0    0  501    0  0.00000000000E+00 -0.00000000000E+00 -0.91558729937E+03  0.91558729938E+03  0.50400000000E-02 0. -1.
    8880023    1    1    2    0    0  0.59940258496E+03  0.44153890704E+03  0.14540635427E+04  0.17613492152E+04  0.65864270000E+03 0.  0.
    8880022    1    1    2    0    0 -0.59940258496E+03 -0.44153890704E+03 -0.57241893135E+03  0.95146999494E+03  0.15294330000E+03 0.  0.
<mgrwt>
<rscale>  0 0.92949813E+03</rscale>
<asrwt>0</asrwt>
<pdfrwt beam="1">  1        1 0.14085958E+00 0.99400718E+03</pdfrwt>
<pdfrwt beam="2">  1       -1 0.27649722E+00 0.99400718E+03</pdfrwt>
<totfact> 0.83847664E-01</totfact>
</mgrwt>
</event>
<event>
 4    1  0.3712574E-007  0.6721139E+03  0.7818608E-02  0.1014191E+00
         -1   -1    0    0    0  501 -0.00000000000E+00  0.00000000000E+00  0.18201271945E+03  0.18201271952E+03  0.50400000000E-02 0.  1.
          1   -1    0    0  501    0  0.00000000000E+00 -0.00000000000E+00 -0.10589925327E+04  0.10589925327E+04  0.50400000000E-02 0. -1.
    8880023    1    1    2    0    0  0.11954804395E+03  0.60292500118E+02 -0.63092690708E+03  0.92184916810E+03  0.65864270000E+03 0.  0.
    8880022    1    1    2    0    0 -0.11954804395E+03 -0.60292500118E+02 -0.24605290617E+03  0.31915608413E+03  0.15294330000E+03 0.  1.
<mgrwt>
<rscale>  0 0.49842559E+03</rscale>
<asrwt>0</asrwt>
<pdfrwt beam="1">  1        1 0.16292192E+00 0.67211392E+03</pdfrwt>
<pdfrwt beam="2">  1       -1 0.28001957E-01 0.67211392E+03</pdfrwt>
<totfact> 0.16017438E+02</totfact>
</mgrwt>
</event>
<event>
 4    1  0.3712574E-007  0.7074098E+03  0.7818608E-02  0.9967748E-01
         -1   -1    0    0    0  501 -0.00000000000E+00  0.00000000000E+00  0.97679453598E+03  0.97679453599E+03  0.50400000000E-02 0.  1.
          1   -1    0    0  501    0  0.00000000000E+00 -0.00000000000E+00 -0.56789972009E+03  0.56789972011E+03  0.50400000000E-02 0. -1.
    8880023    1    1    2    0    0  0.25616136517E+03  0.31618946446E+02  0.78949640724E+03  0.10600628218E+04  0.65864270000E+03 0.  1.
    8880022    1    1    2    0    0 -0.25616136517E+03 -0.31618946446E+02 -0.38060159136E+03  0.48463143433E+03  0.15294330000E+03 0.  0.
<mgrwt>
<rscale>  0 0.57087323E+03</rscale>
<asrwt>0</asrwt>
<pdfrwt beam="1">  1        1 0.87369188E-01 0.70740979E+03</pdfrwt>
<pdfrwt beam="2">  1       -1 0.15027608E+00 0.70740979E+03</pdfrwt>
<totfact> 0.13306311E+01</totfact>
</mgrwt>
</event>
<event>
 4    1  0.3712574E-007  0.9061522E+03  0.7818608E-02  0.9516227E-01
          1   -1    0    0  501    0  0.00000000000E+00  0.00000000000E+00  0.74223738082E+03  0.74223738084E+03  0.50400000000E-02 0. -1.
         -1   -1    0    0    0  501 -0.00000000000E+00 -0.00000000000E+00 -0.99916700835E+03  0.99916700836E+03  0.50400000000E-02 0.  1.
    8880023    1    1    2    0    0 -0.15078125321E+03 -0.60379356858E+03 -0.52442539024E+03  0.10469641140E+04  0.65864270000E+03 0.  0.
    8880022    1    1    2    0    0  0.15078125321E+03  0.60379356858E+03  0.26749576271E+03  0.69444027522E+03  0.15294330000E+03 0.  0.
<mgrwt>
<rscale>  0 0.83098001E+03</rscale>
<asrwt>0</asrwt>
<pdfrwt beam="1">  1        1 0.11419037E+00 0.90615223E+03</pdfrwt>
<pdfrwt beam="2">  1       -1 0.15371800E+00 0.90615223E+03</pdfrwt>
<totfact> 0.82276132E+00</totfact>
</mgrwt>
</event>
<event>
 4    1  0.3712574E-007  0.7297052E+03  0.7818608E-02  0.9891019E-01
         -1   -1    0    0    0  501 -0.00000000000E+00  0.00000000000E+00  0.32765852827E+03  0.32765852830E+03  0.50400000000E-02 0.  1.
          1   -1    0    0  501    0  0.00000000000E+00 -0.00000000000E+00 -0.14094652841E+04  0.14094652841E+04  0.50400000000E-02 0. -1.
    8880023    1    1    2    0    0 -0.25864140656E+03  0.17822470546E+03 -0.15407676262E+03  0.74579439383E+03  0.65864270000E+03 0.  1.
    8880022    1    1    2    0    0  0.25864140656E+03 -0.17822470546E+03 -0.92772999325E+03  0.99132941861E+03  0.15294330000E+03 0.  0.
<mgrwt>
<rscale>  0 0.60698543E+03</rscale>
<asrwt>0</asrwt>
<pdfrwt beam="1">  1        1 0.21684081E+00 0.72970517E+03</pdfrwt>
<pdfrwt beam="2">  1       -1 0.50409005E-01 0.72970517E+03</pdfrwt>
<totfact> 0.30895877E+01</totfact>
</mgrwt>
</event>
<event>
 4    1  0.3712574E-007  0.1160269E+04  0.7818608E-02  0.9196745E-01
         -1   -1    0    0    0  501 -0.00000000000E+00  0.00000000000E+00  0.12755035623E+04  0.12755035623E+04  0.50400000000E-02 0.  1.
          1   -1    0    0  501    0  0.00000000000E+00 -0.00000000000E+00 -0.17466709275E+04  0.17466709275E+04  0.50400000000E-02 0. -1.
    8880023    1    1    2    0    0  0.86001555450E+03  0.41567760865E+03  0.81129432180E+03  0.14157765753E+04  0.65864270000E+03 0.  1.
    8880022    1    1    2    0    0 -0.86001555450E+03 -0.41567760865E+03 -0.12824616869E+04  0.16063979145E+04  0.15294330000E+03 0.  0.
<mgrwt>
<rscale>  0 0.11087084E+04</rscale>
<asrwt>0</asrwt>
<pdfrwt beam="1">  1        1 0.26871860E+00 0.11602693E+04</pdfrwt>
<pdfrwt beam="2">  1       -1 0.19623132E+00 0.11602693E+04</pdfrwt>
<totfact> 0.69783299E-01</totfact>
</mgrwt>
</event>
<event>
 4    1  0.3712574E-007  0.6767633E+03  0.7818608E-02  0.1011217E+00
          1   -1    0    0  501    0  0.00000000000E+00  0.00000000000E+00  0.34903786425E+04  0.34903786426E+04  0.50400000000E-02 0. -1.
         -1   -1    0    0    0  501 -0.00000000000E+00 -0.00000000000E+00 -0.40779861661E+03  0.40779861664E+03  0.50400000000E-02 0.  1.
    8880023    1    1    2    0    0 -0.13739162583E+03 -0.72951733229E+02 -0.12072987408E+03  0.68744768746E+03  0.65864270000E+03 0.  1.
    8880022    1    1    2    0    0  0.13739162583E+03  0.72951733229E+02  0.32033099000E+04  0.32107295717E+04  0.15294330000E+03 0.  0.
<mgrwt>
<rscale>  0 0.50993775E+03</rscale>
<asrwt>0</asrwt>
<pdfrwt beam="1">  1        1 0.53698130E+00 0.67676334E+03</pdfrwt>
<pdfrwt beam="2">  1       -1 0.62738253E-01 0.67676334E+03</pdfrwt>
<totfact> 0.72971359E-01</totfact>
</mgrwt>
</event>
<event>
 4    1  0.3712574E-007  0.7049232E+03  0.7818608E-02  0.9977360E-01
          1   -1    0    0  501    0  0.00000000000E+00  0.00000000000E+00  0.17111519827E+04  0.17111519827E+04  0.50400000000E-02 0. -1.
         -1   -1    0    0    0  501 -0.00000000000E+00 -0.00000000000E+00 -0.24484895640E+03  0.24484895646E+03  0.50400000000E-02 0.  1.
    8880023    1    1    2    0    0 -0.20364595537E+03 -0.14708803756E+03  0.32286371894E+03  0.77534363556E+03  0.65864270000E+03 0.  1.
    8880022    1    1    2    0    0  0.20364595537E+03  0.14708803756E+03  0.11434393073E+04  0.11806573036E+04  0.15294330000E+03 0.  0.
<mgrwt>
<rscale>  0 0.56654220E+03</rscale>
<asrwt>0</asrwt>
<pdfrwt beam="1">  1        1 0.26325415E+00 0.70492324E+03</pdfrwt>
<pdfrwt beam="2">  1       -1 0.37669070E-01 0.70492324E+03</pdfrwt>
<totfact> 0.33078681E+01</totfact>
</mgrwt>
</event>
<event>
 4    1  0.3712574E-007  0.6618013E+03  0.7818608E-02  0.1022382E+00
         -1   -1    0    0    0  501 -0.00000000000E+00  0.00000000000E+00  0.19663380829E+03  0.19663380835E+03  0.50400000000E-02 0.  1.
          1   -1    0    0  501    0  0.00000000000E+00 -0.00000000000E+00 -0.14971775785E+04  0.14971775785E+04  0.50400000000E-02 0. -1.
    8880023    1    1    2    0    0  0.56930088251E+02 -0.30491896835E+02 -0.38981329477E+03  0.76807252376E+03  0.65864270000E+03 0.  1.
    8880022    1    1    2    0    0 -0.56930088251E+02  0.30491896835E+02 -0.91073047541E+03  0.92573886306E+03  0.15294330000E+03 0.  0.
<mgrwt>
<rscale>  0 0.46836609E+03</rscale>
<asrwt>0</asrwt>
<pdfrwt beam="1">  1        1 0.23033501E+00 0.66180133E+03</pdfrwt>
<pdfrwt beam="2">  1       -1 0.30251356E-01 0.66180133E+03</pdfrwt>
<totfact> 0.68403106E+01</totfact>
</mgrwt>
</event>
<event>
 4    1  0.3712574E-007  0.9061310E+03  0.7818608E-02  0.9516260E-01
          1   -1    0    0  501    0  0.00000000000E+00  0.00000000000E+00  0.10399169713E+04  0.10399169713E+04  0.50400000000E-02 0. -1.
         -1   -1    0    0    0  501 -0.00000000000E+00 -0.00000000000E+00 -0.18128248304E+04  0.18128248304E+04  0.50400000000E-02 0.  1.
    8880023    1    1    2    0    0 -0.47342058401E+03  0.40390123721E+03 -0.15804780532E+04  0.18218079871E+04  0.65864270000E+03 0.  0.
    8880022    1    1    2    0    0  0.47342058401E+03 -0.40390123721E+03  0.80757019411E+03  0.10309338147E+04  0.15294330000E+03 0.  0.
<mgrwt>
<rscale>  0 0.83095572E+03</rscale>
<asrwt>0</asrwt>
<pdfrwt beam="1">  1        1 0.15998723E+00 0.90613104E+03</pdfrwt>
<pdfrwt beam="2">  1       -1 0.27889613E+00 0.90613104E+03</pdfrwt>
<totfact> 0.65478364E-01</totfact>
</mgrwt>
</event>
<event>
 4    1  0.3712574E-007  0.7352589E+03  0.7818608E-02  0.9873979E-01
          1   -1    0    0  501    0  0.00000000000E+00  0.00000000000E+00  0.32447585502E+04  0.32447585502E+04  0.50400000000E-02 0. -1.
         -1   -1    0    0    0  501 -0.00000000000E+00 -0.00000000000E+00 -0.14194080966E+03  0.14194080975E+03  0.50400000000E-02 0.  1.
    8880023    1    1    2    0    0  0.29302879586E+03  0.14467078091E+03  0.93703505235E+03  0.11910669190E+04  0.65864270000E+03 0.  0.
    8880022    1    1    2    0    0 -0.29302879586E+03 -0.14467078091E+03  0.21657826882E+04  0.21956324409E+04  0.15294330000E+03 0.  0.
<mgrwt>
<rscale>  0 0.61539117E+03</rscale>
<asrwt>0</asrwt>
<pdfrwt beam="1">  1        1 0.49919365E+00 0.73525895E+03</pdfrwt>
<pdfrwt beam="2">  1       -1 0.21837047E-01 0.73525895E+03</pdfrwt>
<totfact> 0.74384802E+00</totfact>
</mgrwt>
</event>
<event>
 4    1  0.3712574E-007  0.7424511E+03  0.7818608E-02  0.9852864E-01
         -1   -1    0    0    0  501 -0.00000000000E+00  0.00000000000E+00  0.50926884262E+03  0.50926884265E+03  0.50400000000E-02 0.  1.
          1   -1    0    0  501    0  0.00000000000E+00 -0.00000000000E+00 -0.85045145971E+03  0.85045145972E+03  0.50400000000E-02 0. -1.
    8880023    1    1    2    0    0  0.14458284307E+03 -0.31067541665E+03  0.13377914965E+03  0.75440737017E+03  0.65864270000E+03 0.  1.
    8880022    1    1    2    0    0 -0.14458284307E+03  0.31067541665E+03 -0.47496176673E+03  0.60531293220E+03  0.15294330000E+03 0.  0.
<mgrwt>
<rscale>  0 0.62601109E+03</rscale>
<asrwt>0</asrwt>
<pdfrwt beam="1">  1        1 0.13083869E+00 0.74245109E+03</pdfrwt>
<pdfrwt beam="2">  1       -1 0.78349053E-01 0.74245109E+03</pdfrwt>
<totfact> 0.33482052E+01</totfact>
</mgrwt>
</event>
<event>
 4    1  0.3712574E-007  0.1038443E+04  0.7818608E-02  0.9332905E-01
         -1   -1    0    0    0  501 -0.00000000000E+00  0.00000000000E+00  0.74214487761E+03  0.74214487762E+03  0.50400000000E-02 0.  1.
          1   -1    0    0  501    0  0.00000000000E+00 -0.00000000000E+00 -0.15731692075E+04  0.15731692075E+04  0.50400000000E-02 0. -1.
    8880023    1    1    2    0    0 -0.31459172013E+02  0.80222467490E+03  0.13809444559E+03  0.10475850279E+04  0.65864270000E+03 0.  0.
    8880022    1    1    2    0    0  0.31459172013E+02 -0.80222467490E+03 -0.96911877548E+03  0.12677290572E+04  0.15294330000E+03 0.  0.
<mgrwt>
<rscale>  0 0.97809202E+03</rscale>
<asrwt>0</asrwt>
<pdfrwt beam="1">  1        1 0.24202603E+00 0.10384432E+04</pdfrwt>
<pdfrwt beam="2">  1       -1 0.11417614E+00 0.10384432E+04</pdfrwt>
<totfact> 0.40715205E+00</totfact>
</mgrwt>
</event>
<event>
 4    1  0.3712574E-007  0.7954181E+03  0.7818608E-02  0.9720792E-01
         -1   -1    0    0    0  501 -0.00000000000E+00  0.00000000000E+00  0.11502863384E+03  0.11502863395E+03  0.50400000000E-02 0.  1.
          1   -1    0    0  501    0  0.00000000000E+00 -0.00000000000E+00 -0.46615419855E+04  0.46615419855E+04  0.50400000000E-02 0. -1.
    8880023    1    1    2    0    0  0.14423862718E+03 -0.42198923205E+03 -0.15397181228E+04  0.17330383139E+04  0.65864270000E+03 0.  0.
    8880022    1    1    2    0    0 -0.14423862718E+03  0.42198923205E+03 -0.30067952288E+04  0.30435323055E+04  0.15294330000E+03 0.  0.
<mgrwt>
<rscale>  0 0.69792222E+03</rscale>
<asrwt>0</asrwt>
<pdfrwt beam="1">  1        1 0.71716016E+00 0.79541807E+03</pdfrwt>
<pdfrwt beam="2">  1       -1 0.17696717E-01 0.79541807E+03</pdfrwt>
<totfact> 0.61147792E-01</totfact>
</mgrwt>
</event>
<event>
 4    1  0.3712574E-007  0.8427296E+03  0.7818608E-02  0.9625055E-01
         -1   -1    0    0    0  501 -0.00000000000E+00  0.00000000000E+00  0.23314253241E+03  0.23314253247E+03  0.50400000000E-02 0.  1.
          1   -1    0    0  501    0  0.00000000000E+00 -0.00000000000E+00 -0.20783765709E+04  0.20783765709E+04  0.50400000000E-02 0. -1.
    8880023    1    1    2    0    0  0.41245076152E+03 -0.32598676571E+03 -0.10581053244E+04  0.13526936408E+04  0.65864270000E+03 0.  1.
    8880022    1    1    2    0    0 -0.41245076152E+03  0.32598676571E+03 -0.78712871404E+03  0.95882546252E+03  0.15294330000E+03 0. -1.
<mgrwt>
<rscale>  0 0.75659864E+03</rscale>
<asrwt>0</asrwt>
<pdfrwt beam="1">  1        1 0.31975023E+00 0.84272962E+03</pdfrwt>
<pdfrwt beam="2">  1       -1 0.35868083E-01 0.84272962E+03</pdfrwt>
<totfact> 0.20141901E+01</totfact>
</mgrwt>
</event>
<event>
 4    1  0.3712574E-007  0.7828170E+03  0.7818608E-02  0.9749261E-01
          1   -1    0    0  501    0  0.00000000000E+00  0.00000000000E+00  0.14678499959E+04  0.14678499959E+04  0.50400000000E-02 0. -1.
         -1   -1    0    0    0  501 -0.00000000000E+00 -0.00000000000E+00 -0.30480144930E+03  0.30480144935E+03  0.50400000000E-02 0.  1.
    8880023    1    1    2    0    0 -0.51291032001E+01 -0.42304367968E+03  0.38139645906E+03  0.87078454733E+03  0.65864270000E+03 0.  1.
    8880022    1    1    2    0    0  0.51291032001E+01  0.42304367968E+03  0.78165208753E+03  0.90186689792E+03  0.15294330000E+03 0.  0.
<mgrwt>
<rscale>  0 0.68158055E+03</rscale>
<asrwt>0</asrwt>
<pdfrwt beam="1">  1        1 0.22582307E+00 0.78281701E+03</pdfrwt>
<pdfrwt beam="2">  1       -1 0.46892532E-01 0.78281701E+03</pdfrwt>
<totfact> 0.32066191E+01</totfact>
</mgrwt>
</event>
<event>
 4    1  0.3712574E-007  0.6913800E+03  0.7818608E-02  0.1003503E+00
         -1   -1    0    0    0  501 -0.00000000000E+00  0.00000000000E+00  0.55903460928E+03  0.55903460930E+03  0.50400000000E-02 0.  1.
          1   -1    0    0  501    0  0.00000000000E+00 -0.00000000000E+00 -0.16572188802E+04  0.16572188802E+04  0.50400000000E-02 0. -1.
    8880023    1    1    2    0    0 -0.45388987278E+02  0.20527053249E+03  0.32894044077E+03  0.76564232610E+03  0.65864270000E+03 0.  1.
    8880022    1    1    2    0    0  0.45388987278E+02 -0.20527053249E+03 -0.14271247117E+04  0.14506111634E+04  0.15294330000E+03 0.  0.
<mgrwt>
<rscale>  0 0.54140364E+03</rscale>
<asrwt>0</asrwt>
<pdfrwt beam="1">  1        1 0.25495675E+00 0.69138004E+03</pdfrwt>
<pdfrwt beam="2">  1       -1 0.86005325E-01 0.69138004E+03</pdfrwt>
<totfact> 0.71624782E+00</totfact>
</mgrwt>
</event>
<event>
 4    1  0.3712574E-007  0.7646172E+03  0.7818608E-02  0.9793298E-01
         -1   -1    0    0    0  501 -0.00000000000E+00  0.00000000000E+00  0.21797655426E+03  0.21797655432E+03  0.50400000000E-02 0.  1.
          1   -1    0    0  501    0  0.00000000000E+00 -0.00000000000E+00 -0.16039894420E+04  0.16039894420E+04  0.50400000000E-02 0. -1.
    8880023    1    1    2    0    0 -0.38649799224E+03  0.38059235335E+02 -0.86913166200E+03  0.11575963267E+04  0.65864270000E+03 0. -1.
    8880022    1    1    2    0    0  0.38649799224E+03 -0.38059235335E+02 -0.51688122570E+03  0.66436966961E+03  0.15294330000E+03 0.  1.
<mgrwt>
<rscale>  0 0.65723480E+03</rscale>
<asrwt>0</asrwt>
<pdfrwt beam="1">  1        1 0.24676760E+00 0.76461717E+03</pdfrwt>
<pdfrwt beam="2">  1       -1 0.33534855E-01 0.76461717E+03</pdfrwt>
<totfact> 0.47734281E+01</totfact>
</mgrwt>
</event>
<event>
 4    1  0.3712574E-007  0.8864881E+03  0.7818608E-02  0.9548080E-01
          1   -1    0    0  501    0  0.00000000000E+00  0.00000000000E+00  0.28485341378E+04  0.28485341378E+04  0.50400000000E-02 0. -1.
         -1   -1    0    0    0  501 -0.00000000000E+00 -0.00000000000E+00 -0.29910085649E+03  0.29910085653E+03  0.50400000000E-02 0.  1.
    8880023    1    1    2    0    0  0.59222063085E+03  0.36410048197E+02  0.52005818415E+03  0.10277751157E+04  0.65864270000E+03 0.  1.
    8880022    1    1    2    0    0 -0.59222063085E+03 -0.36410048197E+02  0.20293750972E+04  0.21198598787E+04  0.15294330000E+03 0.  0.
<mgrwt>
<rscale>  0 0.80830010E+03</rscale>
<asrwt>0</asrwt>
<pdfrwt beam="1">  1        1 0.43823600E+00 0.88648811E+03</pdfrwt>
<pdfrwt beam="2">  1       -1 0.46015519E-01 0.88648811E+03</pdfrwt>
<totfact> 0.37651061E+00</totfact>
</mgrwt>
</event>
<event>
 4    1  0.3712574E-007  0.6743420E+03  0.7818608E-02  0.1012724E+00
          1   -1    0    0  501    0  0.00000000000E+00  0.00000000000E+00  0.82215677907E+03  0.82215677908E+03  0.50400000000E-02 0. -1.
         -1   -1    0    0    0  501 -0.00000000000E+00 -0.00000000000E+00 -0.42003610946E+03  0.42003610949E+03  0.50400000000E-02 0.  1.
    8880023    1    1    2    0    0 -0.58251790406E+01  0.14454386878E+03 -0.11480389516E+03  0.68404459162E+03  0.65864270000E+03 0.  1.
    8880022    1    1    2    0    0  0.58251790406E+01 -0.14454386878E+03  0.51692456477E+03  0.55814829695E+03  0.15294330000E+03 0.  0.
<mgrwt>
<rscale>  0 0.50406122E+03</rscale>
<asrwt>0</asrwt>
<pdfrwt beam="1">  1        1 0.12648566E+00 0.67434195E+03</pdfrwt>
<pdfrwt beam="2">  1       -1 0.64620940E-01 0.67434195E+03</pdfrwt>
<totfact> 0.52916991E+01</totfact>
</mgrwt>
</event>
<event>
 4    1  0.3712574E-007  0.9912954E+03  0.7818608E-02  0.9393036E-01
          1   -1    0    0  501    0  0.00000000000E+00  0.00000000000E+00  0.38554321800E+04  0.38554321800E+04  0.50400000000E-02 0. -1.
         -1   -1    0    0    0  501 -0.00000000000E+00 -0.00000000000E+00 -0.50358116885E+03  0.50358116887E+03  0.50400000000E-02 0.  1.
    8880023    1    1    2    0    0  0.44852711065E+03  0.58964375370E+03  0.72943943700E+02  0.99397552809E+03  0.65864270000E+03 0.  0.
    8880022    1    1    2    0    0 -0.44852711065E+03 -0.58964375370E+03  0.32789070674E+04  0.33650378207E+04  0.15294330000E+03 0.  0.
<mgrwt>
<rscale>  0 0.92651050E+03</rscale>
<asrwt>0</asrwt>
<pdfrwt beam="1">  1        1 0.59314341E+00 0.99129538E+03</pdfrwt>
<pdfrwt beam="2">  1       -1 0.77474027E-01 0.99129538E+03</pdfrwt>
<totfact> 0.22475433E-01</totfact>
</mgrwt>
</event>
<event>
 4    1  0.3712574E-007  0.1494562E+04  0.7818608E-02  0.8913485E-01
          1   -1    0    0  501    0  0.00000000000E+00  0.00000000000E+00  0.19269671968E+04  0.19269671968E+04  0.50400000000E-02 0. -1.
         -1   -1    0    0    0  501 -0.00000000000E+00 -0.00000000000E+00 -0.12816645963E+04  0.12816645963E+04  0.50400000000E-02 0.  1.
    8880023    1    1    2    0    0 -0.14508802603E+03  0.13337374527E+04  0.10174215257E+04  0.18079996945E+04  0.65864270000E+03 0.  0.
    8880022    1    1    2    0    0  0.14508802603E+03 -0.13337374527E+04 -0.37211892518E+03  0.14006320986E+04  0.15294330000E+03 0.  0.
<mgrwt>
<rscale>  0 0.14571112E+04</rscale>
<asrwt>0</asrwt>
<pdfrwt beam="1">  1        1 0.29645649E+00 0.14945623E+04</pdfrwt>
<pdfrwt beam="2">  1       -1 0.19717917E+00 0.14945623E+04</pdfrwt>
<totfact> 0.49765098E-01</totfact>
</mgrwt>
</event>
<event>
 4    1  0.3712574E-007  0.9074402E+03  0.7818608E-02  0.9514192E-01
         -1   -1    0    0    0  501 -0.00000000000E+00  0.00000000000E+00  0.44133877077E+03  0.44133877080E+03  0.50400000000E-02 0.  1.
          1   -1    0    0  501    0  0.00000000000E+00 -0.00000000000E+00 -0.32633690447E+04  0.32633690447E+04  0.50400000000E-02 0. -1.
    8880023    1    1    2    0    0 -0.62420930034E+03  0.53477248184E+00 -0.10592145465E+03  0.91360116978E+03  0.65864270000E+03 0.  0.
    8880022    1    1    2    0    0  0.62420930034E+03 -0.53477248184E+00 -0.27161088193E+04  0.27911066457E+04  0.15294330000E+03 0.  0.
<mgrwt>
<rscale>  0 0.83245566E+03</rscale>
<asrwt>0</asrwt>
<pdfrwt beam="1">  1        1 0.50205676E+00 0.90744021E+03</pdfrwt>
<pdfrwt beam="2">  1       -1 0.67898275E-01 0.90744021E+03</pdfrwt>
<totfact> 0.87904007E-01</totfact>
</mgrwt>
</event>
<event>
 4    1  0.3712574E-007  0.6932105E+03  0.7818608E-02  0.1002662E+00
          1   -1    0    0  501    0  0.00000000000E+00  0.00000000000E+00  0.10482549449E+04  0.10482549449E+04  0.50400000000E-02 0. -1.
         -1   -1    0    0    0  501 -0.00000000000E+00 -0.00000000000E+00 -0.28434512355E+03  0.28434512359E+03  0.50400000000E-02 0.  1.
    8880023    1    1    2    0    0 -0.21520116826E+03 -0.20471990086E+02  0.21937960832E+03  0.72709577362E+03  0.65864270000E+03 0.  1.
    8880022    1    1    2    0    0  0.21520116826E+03  0.20471990086E+02  0.54453021299E+03  0.60550429484E+03  0.15294330000E+03 0.  0.
<mgrwt>
<rscale>  0 0.54498040E+03</rscale>
<asrwt>0</asrwt>
<pdfrwt beam="1">  1        1 0.16126999E+00 0.69321054E+03</pdfrwt>
<pdfrwt beam="2">  1       -1 0.43745403E-01 0.69321054E+03</pdfrwt>
<totfact> 0.73616266E+01</totfact>
</mgrwt>
</event>
<event>
 4    1  0.3712574E-007  0.1138463E+04  0.7818608E-02  0.9219394E-01
         -1   -1    0    0    0  501 -0.00000000000E+00  0.00000000000E+00  0.60110993866E+03  0.60110993868E+03  0.50400000000E-02 0.  1.
          1   -1    0    0  501    0  0.00000000000E+00 -0.00000000000E+00 -0.19661537495E+04  0.19661537495E+04  0.50400000000E-02 0. -1.
    8880023    1    1    2    0    0  0.45579754244E+03 -0.80903359737E+03 -0.36858894203E+03  0.11966431280E+04  0.65864270000E+03 0.  0.
    8880022    1    1    2    0    0 -0.45579754244E+03  0.80903359737E+03 -0.99645486878E+03  0.13706205601E+04  0.15294330000E+03 0.  0.
<mgrwt>
<rscale>  0 0.10855468E+04</rscale>
<asrwt>0</asrwt>
<pdfrwt beam="1">  1        1 0.30248519E+00 0.11384625E+04</pdfrwt>
<pdfrwt beam="2">  1       -1 0.92478453E-01 0.11384625E+04</pdfrwt>
<totfact> 0.35500411E+00</totfact>
</mgrwt>
</event>
<event>
 4    1  0.3712574E-007  0.8182859E+03  0.7818608E-02  0.9672569E-01
         -1   -1    0    0    0  501 -0.00000000000E+00  0.00000000000E+00  0.62549182182E+03  0.62549182184E+03  0.50400000000E-02 0.  1.
          1   -1    0    0  501    0  0.00000000000E+00 -0.00000000000E+00 -0.90607390534E+03  0.90607390535E+03  0.50400000000E-02 0. -1.
    8880023    1    1    2    0    0 -0.27683010940E+03  0.39893198618E+03 -0.51943384783E+03  0.96922823298E+03  0.65864270000E+03 0.  0.
    8880022    1    1    2    0    0  0.27683010940E+03 -0.39893198618E+03  0.23885176431E+03  0.56233749421E+03  0.15294330000E+03 0.  0.
<mgrwt>
<rscale>  0 0.72673753E+03</rscale>
<asrwt>0</asrwt>
<pdfrwt beam="1">  1        1 0.13939599E+00 0.81828592E+03</pdfrwt>
<pdfrwt beam="2">  1       -1 0.96229511E-01 0.81828592E+03</pdfrwt>
<totfact> 0.19096207E+01</totfact>
</mgrwt>
</event>
<event>
 4    1  0.3712574E-007  0.7254270E+03  0.7818608E-02  0.9904633E-01
          1   -1    0    0  501    0  0.00000000000E+00  0.00000000000E+00  0.21605297201E+04  0.21605297201E+04  0.50400000000E-02 0. -1.
         -1   -1    0    0    0  501 -0.00000000000E+00 -0.00000000000E+00 -0.56344344262E+03  0.56344344264E+03  0.50400000000E-02 0.  1.
    8880023    1    1    2    0    0  0.73808798908E+02 -0.29493443226E+03 -0.30845244969E+03  0.78828115423E+03  0.65864270000E+03 0.  1.
    8880022    1    1    2    0    0 -0.73808798908E+02  0.29493443226E+03  0.19055387271E+04  0.19356920085E+04  0.15294330000E+03 0.  0.
<mgrwt>
<rscale>  0 0.60037263E+03</rscale>
<asrwt>0</asrwt>
<pdfrwt beam="1">  1        1 0.33238919E+00 0.72542695E+03</pdfrwt>
<pdfrwt beam="2">  1       -1 0.86683607E-01 0.72542695E+03</pdfrwt>
<totfact> 0.32228621E+00</totfact>
</mgrwt>
</event>
<event>
 4    1  0.3712574E-007  0.7370904E+03  0.7818608E-02  0.9868505E-01
          1   -1    0    0  501    0  0.00000000000E+00  0.00000000000E+00  0.14181550744E+04  0.14181550744E+04  0.50400000000E-02 0. -1.
         -1   -1    0    0    0  501 -0.00000000000E+00 -0.00000000000E+00 -0.82451371016E+03  0.82451371017E+03  0.50400000000E-02 0.  1.
    8880023    1    1    2    0    0  0.54721255911E+02 -0.32633979493E+03 -0.62766240981E+03  0.96812312469E+03  0.65864270000E+03 0.  1.
    8880022    1    1    2    0    0 -0.54721255911E+02  0.32633979493E+03  0.12213037741E+04  0.12745456599E+04  0.15294330000E+03 0.  0.
<mgrwt>
<rscale>  0 0.61812250E+03</rscale>
<asrwt>0</asrwt>
<pdfrwt beam="1">  1        1 0.21817770E+00 0.73709042E+03</pdfrwt>
<pdfrwt beam="2">  1       -1 0.12684826E+00 0.73709042E+03</pdfrwt>
<totfact> 0.42020324E+00</totfact>
</mgrwt>
</event>
<event>
 4    1  0.3712574E-007  0.7931348E+03  0.7818608E-02  0.9725841E-01
         -1   -1    0    0    0  501 -0.00000000000E+00  0.00000000000E+00  0.45066482645E+03  0.45066482648E+03  0.50400000000E-02 0.  1.
          1   -1    0    0  501    0  0.00000000000E+00 -0.00000000000E+00 -0.16289839258E+04  0.16289839258E+04  0.50400000000E-02 0. -1.
    8880023    1    1    2    0    0 -0.30878255967E+03 -0.31607908467E+03  0.19941670985E+02  0.79338548854E+03  0.65864270000E+03 0.  1.
    8880022    1    1    2    0    0  0.30878255967E+03  0.31607908467E+03 -0.11982607704E+04  0.12862632638E+04  0.15294330000E+03 0.  0.
<mgrwt>
<rscale>  0 0.69498837E+03</rscale>
<asrwt>0</asrwt>
<pdfrwt beam="1">  1        1 0.25061291E+00 0.79313483E+03</pdfrwt>
<pdfrwt beam="2">  1       -1 0.69333051E-01 0.79313483E+03</pdfrwt>
<totfact> 0.11586694E+01</totfact>
</mgrwt>
</event>
<event>
 4    1  0.3712574E-007  0.7686498E+03  0.7818608E-02  0.9783208E-01
         -1   -1    0    0    0  501 -0.00000000000E+00  0.00000000000E+00  0.53363659223E+03  0.53363659225E+03  0.50400000000E-02 0.  1.
          1   -1    0    0  501    0  0.00000000000E+00 -0.00000000000E+00 -0.11284430967E+04  0.11284430967E+04  0.50400000000E-02 0. -1.
    8880023    1    1    2    0    0  0.31954353638E+03  0.23431640877E+03  0.17002026708E+03  0.78722890479E+03  0.65864270000E+03 0.  1.
    8880022    1    1    2    0    0 -0.31954353638E+03 -0.23431640877E+03 -0.76482677153E+03  0.87485078415E+03  0.15294330000E+03 0.  0.
<mgrwt>
<rscale>  0 0.66271548E+03</rscale>
<asrwt>0</asrwt>
<pdfrwt beam="1">  1        1 0.17360663E+00 0.76864976E+03</pdfrwt>
<pdfrwt beam="2">  1       -1 0.82097937E-01 0.76864976E+03</pdfrwt>
<totfact> 0.18320210E+01</totfact>
</mgrwt>
</event>
<event>
 4    1  0.3712574E-007  0.7310027E+03  0.7818608E-02  0.9886976E-01
          1   -1    0    0  501    0  0.00000000000E+00  0.00000000000E+00  0.19130024486E+04  0.19130024486E+04  0.50400000000E-02 0. -1.
         -1   -1    0    0    0  501 -0.00000000000E+00 -0.00000000000E+00 -0.18735474168E+03  0.18735474174E+03  0.50400000000E-02 0.  1.
    8880023    1    1    2    0    0  0.28797577152E+03  0.13275790397E+03  0.68508895707E+03  0.10018541767E+04  0.65864270000E+03 0.  0.
    8880022    1    1    2    0    0 -0.28797577152E+03 -0.13275790397E+03  0.10405587499E+04  0.10985030136E+04  0.15294330000E+03 0.  0.
<mgrwt>
<rscale>  0 0.60896656E+03</rscale>
<asrwt>0</asrwt>
<pdfrwt beam="1">  1        1 0.29430806E+00 0.73100268E+03</pdfrwt>
<pdfrwt beam="2">  1       -1 0.28823807E-01 0.73100268E+03</pdfrwt>
<totfact> 0.38739906E+01</totfact>
</mgrwt>
</event>
<event>
 4    1  0.3712574E-007  0.6666343E+03  0.7818608E-02  0.1018200E+00
         -1   -1    0    0    0  501 -0.00000000000E+00  0.00000000000E+00  0.34112704447E+03  0.34112704451E+03  0.50400000000E-02 0.  1.
          1   -1    0    0  501    0  0.00000000000E+00 -0.00000000000E+00 -0.24954416580E+04  0.24954416580E+04  0.50400000000E-02 0. -1.
    8880023    1    1    2    0    0  0.32501299385E+02  0.97646018602E+02  0.77302722778E+01  0.66667911530E+03  0.65864270000E+03 0.  0.
    8880022    1    1    2    0    0 -0.32501299385E+02 -0.97646018602E+02 -0.21620448858E+04  0.21698895872E+04  0.15294330000E+03 0. -1.
<mgrwt>
<rscale>  0 0.48341823E+03</rscale>
<asrwt>0</asrwt>
<pdfrwt beam="1">  1        1 0.38391409E+00 0.66663430E+03</pdfrwt>
<pdfrwt beam="2">  1       -1 0.52481085E-01 0.66663430E+03</pdfrwt>
<totfact> 0.53679073E+00</totfact>
</mgrwt>
</event>
<event>
 4    1  0.7719289E-007  0.9400658E+03  0.7818608E-02  0.9464554E-01
         -1   -1    0    0    0  501 -0.00000000000E+00  0.00000000000E+00  0.18940042395E+04  0.18940042395E+04  0.50400000000E-02 0.  1.
          1   -1    0    0  501    0  0.00000000000E+00 -0.00000000000E+00 -0.28407997111E+04  0.28407997111E+04  0.50400000000E-02 0. -1.
    8880023    1    1    2    0    0  0.38061697452E+03 -0.55230800673E+03  0.17311362347E+04  0.19699127607E+04  0.65864270000E+03 0.  0.
    8880022    1    1    2    0    0 -0.38061697452E+03  0.55230800673E+03 -0.26779317063E+04  0.27648911899E+04  0.15294330000E+03 0.  0.
<mgrwt>
<rscale>  0 0.86948345E+03</rscale>
<asrwt>0</asrwt>
<pdfrwt beam="1">  1        1 0.43704611E+00 0.94006575E+03</pdfrwt>
<pdfrwt beam="2">  1       -1 0.29138527E+00 0.94006575E+03</pdfrwt>
<totfact> 0.30735646E-02</totfact>
</mgrwt>
</event>
<event>
 4    1  0.3712574E-007  0.7923574E+03  0.7818608E-02  0.9727571E-01
          1   -1    0    0  501    0  0.00000000000E+00  0.00000000000E+00  0.85684796702E+03  0.85684796703E+03  0.50400000000E-02 0. -1.
         -1   -1    0    0    0  501 -0.00000000000E+00 -0.00000000000E+00 -0.56603036070E+03  0.56603036072E+03  0.50400000000E-02 0.  1.
    8880023    1    1    2    0    0 -0.28049724111E+03 -0.33961929678E+03 -0.12006124167E+03  0.80140181995E+03  0.65864270000E+03 0.  1.
    8880022    1    1    2    0    0  0.28049724111E+03  0.33961929678E+03  0.41087884799E+03  0.62147650780E+03  0.15294330000E+03 0.  0.
<mgrwt>
<rscale>  0 0.69398673E+03</rscale>
<asrwt>0</asrwt>
<pdfrwt beam="1">  1        1 0.13182276E+00 0.79235735E+03</pdfrwt>
<pdfrwt beam="2">  1       -1 0.87081594E-01 0.79235735E+03</pdfrwt>
<totfact> 0.26230971E+01</totfact>
</mgrwt>
</event>
<event>
 4    1  0.3712574E-007  0.7969802E+03  0.7818608E-02  0.9717364E-01
         -1   -1    0    0    0  501 -0.00000000000E+00  0.00000000000E+00  0.10539767822E+04  0.10539767823E+04  0.50400000000E-02 0.  1.
          1   -1    0    0  501    0  0.00000000000E+00 -0.00000000000E+00 -0.95711699504E+03  0.95711699505E+03  0.50400000000E-02 0. -1.
    8880023    1    1    2    0    0 -0.85572075002E+02  0.44050503131E+03  0.82187189311E+03  0.11448366161E+04  0.65864270000E+03 0.  0.
    8880022    1    1    2    0    0  0.85572075002E+02 -0.44050503131E+03 -0.72501210590E+03  0.86625716121E+03  0.15294330000E+03 0.  0.
<mgrwt>
<rscale>  0 0.69992301E+03</rscale>
<asrwt>0</asrwt>
<pdfrwt beam="1">  1        1 0.14724877E+00 0.79698022E+03</pdfrwt>
<pdfrwt beam="2">  1       -1 0.16215027E+00 0.79698022E+03</pdfrwt>
<totfact> 0.47405060E+00</totfact>
</mgrwt>
</event>
<event>
 4    1  0.3712574E-007  0.6899680E+03  0.7818608E-02  0.1004168E+00
          1   -1    0    0  501    0  0.00000000000E+00  0.00000000000E+00  0.11843627770E+04  0.11843627770E+04  0.50400000000E-02 0. -1.
         -1   -1    0    0    0  501 -0.00000000000E+00 -0.00000000000E+00 -0.29893880577E+03  0.29893880582E+03  0.50400000000E-02 0.  1.
    8880023    1    1    2    0    0  0.12863209441E+03  0.16031034430E+03  0.15212948739E+03  0.70654030982E+03  0.65864270000E+03 0.  1.
    8880022    1    1    2    0    0 -0.12863209441E+03 -0.16031034430E+03  0.73329448381E+03  0.77676127298E+03  0.15294330000E+03 0.  0.
<mgrwt>
<rscale>  0 0.53859898E+03</rscale>
<asrwt>0</asrwt>
<pdfrwt beam="1">  1        1 0.18220966E+00 0.68996799E+03</pdfrwt>
<pdfrwt beam="2">  1       -1 0.45990586E-01 0.68996799E+03</pdfrwt>
<totfact> 0.53209473E+01</totfact>
</mgrwt>
</event>
<event>
 4    1  0.3712574E-007  0.6769656E+03  0.7818608E-02  0.1011095E+00
         -1   -1    0    0    0  501 -0.00000000000E+00  0.00000000000E+00  0.20269359204E+03  0.20269359210E+03  0.50400000000E-02 0.  1.
          1   -1    0    0  501    0  0.00000000000E+00 -0.00000000000E+00 -0.10086601322E+04  0.10086601322E+04  0.50400000000E-02 0. -1.
    8880023    1    1    2    0    0  0.97524160707E+02  0.12231594284E+03 -0.53347591401E+03  0.86190423417E+03  0.65864270000E+03 0.  1.
    8880022    1    1    2    0    0 -0.97524160707E+02 -0.12231594284E+03 -0.27249062612E+03  0.34944949010E+03  0.15294330000E+03 0.  0.
<mgrwt>
<rscale>  0 0.51041782E+03</rscale>
<asrwt>0</asrwt>
<pdfrwt beam="1">  1        1 0.15517848E+00 0.67696555E+03</pdfrwt>
<pdfrwt beam="2">  1       -1 0.31183630E-01 0.67696555E+03</pdfrwt>
<totfact> 0.14508214E+02</totfact>
</mgrwt>
</event>
<event>
 4    1  0.3712574E-007  0.6783395E+03  0.7818608E-02  0.1010279E+00
          1   -1    0    0  501    0  0.00000000000E+00  0.00000000000E+00  0.17334947608E+04  0.17334947608E+04  0.50400000000E-02 0. -1.
         -1   -1    0    0    0  501 -0.00000000000E+00 -0.00000000000E+00 -0.13699112706E+03  0.13699112715E+03  0.50400000000E-02 0.  1.
    8880023    1    1    2    0    0 -0.82782555444E+02  0.13957573133E+03  0.82855476158E+03  0.10708162940E+04  0.65864270000E+03 0.  1.
    8880022    1    1    2    0    0  0.82782555444E+02 -0.13957573133E+03  0.76794887217E+03  0.79966959399E+03  0.15294330000E+03 0.  0.
<mgrwt>
<rscale>  0 0.51363934E+03</rscale>
<asrwt>0</asrwt>
<pdfrwt beam="1">  1        1 0.26669150E+00 0.67833955E+03</pdfrwt>
<pdfrwt beam="2">  1       -1 0.21075558E-01 0.67833955E+03</pdfrwt>
<totfact> 0.87546061E+01</totfact>
</mgrwt>
</event>
<event>
 4    1  0.3712574E-007  0.6608628E+03  0.7818608E-02  0.1023289E+00
         -1   -1    0    0    0  501 -0.00000000000E+00  0.00000000000E+00  0.10755380492E+04  0.10755380492E+04  0.50400000000E-02 0.  1.
          1   -1    0    0  501    0  0.00000000000E+00 -0.00000000000E+00 -0.26260667223E+03  0.26260667228E+03  0.50400000000E-02 0. -1.
    8880023    1    1    2    0    0 -0.44551644144E+02  0.30733917771E+02  0.92798461357E+03  0.11392519791E+04  0.65864270000E+03 0.  1.
    8880022    1    1    2    0    0  0.44551644144E+02 -0.30733917771E+02 -0.11505323659E+03  0.19889274236E+03  0.15294330000E+03 0.  0.
<mgrwt>
<rscale>  0 0.46518042E+03</rscale>
<asrwt>0</asrwt>
<pdfrwt beam="1">  1        1 0.40401026E-01 0.66086279E+03</pdfrwt>
<pdfrwt beam="2">  1       -1 0.16546739E+00 0.66086279E+03</pdfrwt>
<totfact> 0.28620769E+01</totfact>
</mgrwt>
</event>
<event>
 4    1  0.3712574E-007  0.8336933E+03  0.7818608E-02  0.9642189E-01
          1   -1    0    0  501    0  0.00000000000E+00  0.00000000000E+00  0.25970447426E+03  0.25970447431E+03  0.50400000000E-02 0. -1.
         -1   -1    0    0    0  501 -0.00000000000E+00 -0.00000000000E+00 -0.22920563524E+04  0.22920563524E+04  0.50400000000E-02 0.  1.
    8880023    1    1    2    0    0  0.11006635708E+03 -0.49911885825E+03 -0.61110341027E+03  0.10336787808E+04  0.65864270000E+03 0.  0.
    8880022    1    1    2    0    0 -0.11006635708E+03  0.49911885825E+03 -0.14212484678E+04  0.15180820459E+04  0.15294330000E+03 0.  0.
<mgrwt>
<rscale>  0 0.74565686E+03</rscale>
<asrwt>0</asrwt>
<pdfrwt beam="1">  1        1 0.39954536E-01 0.83369326E+03</pdfrwt>
<pdfrwt beam="2">  1       -1 0.35262404E+00 0.83369326E+03</pdfrwt>
<totfact> 0.16502752E+00</totfact>
</mgrwt>
</event>
<event>
 4    1  0.3712574E-007  0.7806079E+03  0.7818608E-02  0.9754411E-01
          1   -1    0    0  501    0  0.00000000000E+00  0.00000000000E+00  0.78919916317E+03  0.78919916318E+03  0.50400000000E-02 0. -1.
         -1   -1    0    0    0  501 -0.00000000000E+00 -0.00000000000E+00 -0.71374957738E+03  0.71374957740E+03  0.50400000000E-02 0.  1.
    8880023    1    1    2    0    0  0.62792476766E+02 -0.41424104316E+03 -0.37764765623E+03  0.86716001724E+03  0.65864270000E+03 0.  1.
    8880022    1    1    2    0    0 -0.62792476766E+02  0.41424104316E+03  0.45309724202E+03  0.63578872334E+03  0.15294330000E+03 0.  0.
<mgrwt>
<rscale>  0 0.67867571E+03</rscale>
<asrwt>0</asrwt>
<pdfrwt beam="1">  1        1 0.12141526E+00 0.78060793E+03</pdfrwt>
<pdfrwt beam="2">  1       -1 0.10980763E+00 0.78060793E+03</pdfrwt>
<totfact> 0.17740159E+01</totfact>
</mgrwt>
</event>
<event>
 4    1  0.3712574E-007  0.1187245E+04  0.7818608E-02  0.9169622E-01
         -1   -1    0    0    0  501 -0.00000000000E+00  0.00000000000E+00  0.87298281815E+03  0.87298281816E+03  0.50400000000E-02 0.  1.
          1   -1    0    0  501    0  0.00000000000E+00 -0.00000000000E+00 -0.16929102934E+04  0.16929102934E+04  0.50400000000E-02 0. -1.
    8880023    1    1    2    0    0 -0.27570772281E+03 -0.94853854336E+03  0.12066432874E+03  0.11933608855E+04  0.65864270000E+03 0.  0.
    8880022    1    1    2    0    0  0.27570772281E+03  0.94853854336E+03 -0.94059180395E+03  0.13725322260E+04  0.15294330000E+03 0.  0.
<mgrwt>
<rscale>  0 0.11372556E+04</rscale>
<asrwt>0</asrwt>
<pdfrwt beam="1">  1        1 0.26044774E+00 0.11872448E+04</pdfrwt>
<pdfrwt beam="2">  1       -1 0.13430505E+00 0.11872448E+04</pdfrwt>
<totfact> 0.22129938E+00</totfact>
</mgrwt>
</event>
<event>
 4    1  0.3712574E-007  0.7996679E+03  0.7818608E-02  0.9711515E-01
         -1   -1    0    0    0  501 -0.00000000000E+00  0.00000000000E+00  0.37913910835E+03  0.37913910838E+03  0.50400000000E-02 0.  1.
          1   -1    0    0  501    0  0.00000000000E+00 -0.00000000000E+00 -0.12919216539E+04  0.12919216539E+04  0.50400000000E-02 0. -1.
    8880023    1    1    2    0    0  0.38730391641E+03 -0.23591140637E+03 -0.22060647999E+03  0.82953959556E+03  0.65864270000E+03 0.  1.
    8880022    1    1    2    0    0 -0.38730391641E+03  0.23591140637E+03 -0.69217606557E+03  0.84152116675E+03  0.15294330000E+03 0.  0.
<mgrwt>
<rscale>  0 0.70335336E+03</rscale>
<asrwt>0</asrwt>
<pdfrwt beam="1">  1        1 0.19875718E+00 0.79966788E+03</pdfrwt>
<pdfrwt beam="2">  1       -1 0.58329094E-01 0.79966788E+03</pdfrwt>
<totfact> 0.27964255E+01</totfact>
</mgrwt>
</event>
<event>
 4    1  0.3712574E-007  0.7711762E+03  0.7818608E-02  0.9776988E-01
          1   -1    0    0  501    0  0.00000000000E+00  0.00000000000E+00  0.14730539911E+04  0.14730539911E+04  0.50400000000E-02 0. -1.
         -1   -1    0    0    0  501 -0.00000000000E+00 -0.00000000000E+00 -0.42545593981E+03  0.42545593984E+03  0.50400000000E-02 0.  1.
    8880023    1    1    2    0    0 -0.17095699083E+02 -0.40076217203E+03  0.52223240208E+01  0.77119391879E+03  0.65864270000E+03 0.  1.
    8880022    1    1    2    0    0  0.17095699083E+02  0.40076217203E+03  0.10423757273E+04  0.11273160122E+04  0.15294330000E+03 0.  0.
<mgrwt>
<rscale>  0 0.66612264E+03</rscale>
<asrwt>0</asrwt>
<pdfrwt beam="1">  1        1 0.22662369E+00 0.77117624E+03</pdfrwt>
<pdfrwt beam="2">  1       -1 0.65454759E-01 0.77117624E+03</pdfrwt>
<totfact> 0.16683837E+01</totfact>
</mgrwt>
</event>
<event>
 4    1  0.3712574E-007  0.1015946E+04  0.7818608E-02  0.9360987E-01
          1   -1    0    0  501    0  0.00000000000E+00  0.00000000000E+00  0.52951245864E+03  0.52951245866E+03  0.50400000000E-02 0. -1.
         -1   -1    0    0    0  501 -0.00000000000E+00 -0.00000000000E+00 -0.27007557485E+04  0.27007557485E+04  0.50400000000E-02 0.  1.
    8880023    1    1    2    0    0 -0.16312340525E+02  0.77334926356E+03 -0.22188073196E+04  0.24403383585E+04  0.65864270000E+03 0.  0.
    8880022    1    1    2    0    0  0.16312340525E+02 -0.77334926356E+03  0.47564029780E+02  0.78992984868E+03  0.15294330000E+03 0.  0.
<mgrwt>
<rscale>  0 0.95357044E+03</rscale>
<asrwt>0</asrwt>
<pdfrwt beam="1">  1        1 0.81463457E-01 0.10159456E+04</pdfrwt>
<pdfrwt beam="2">  1       -1 0.41550087E+00 0.10159456E+04</pdfrwt>
<totfact> 0.23469133E-01</totfact>
</mgrwt>
</event>
<event>
 4    1  0.3712574E-007  0.8253830E+03  0.7818608E-02  0.9658383E-01
          1   -1    0    0  501    0  0.00000000000E+00  0.00000000000E+00  0.34494322695E+04  0.34494322695E+04  0.50400000000E-02 0. -1.
         -1   -1    0    0    0  501 -0.00000000000E+00 -0.00000000000E+00 -0.16948734975E+03  0.16948734983E+03  0.50400000000E-02 0.  1.
    8880023    1    1    2    0    0  0.35141725420E+03  0.35206943209E+03  0.10857872258E+04  0.13638882203E+04  0.65864270000E+03 0.  0.
    8880022    1    1    2    0    0 -0.35141725420E+03 -0.35206943209E+03  0.21941576940E+04  0.22550313990E+04  0.15294330000E+03 0.  0.
<mgrwt>
<rscale>  0 0.73549629E+03</rscale>
<asrwt>0</asrwt>
<pdfrwt beam="1">  1        1 0.53068187E+00 0.82538305E+03</pdfrwt>
<pdfrwt beam="2">  1       -1 0.26074978E-01 0.82538305E+03</pdfrwt>
<totfact> 0.37964212E+00</totfact>
</mgrwt>
</event>
<event>
 4    1  0.3712574E-007  0.1009667E+04  0.7818608E-02  0.9369018E-01
          1   -1    0    0  501    0  0.00000000000E+00  0.00000000000E+00  0.14998413179E+04  0.14998413179E+04  0.50400000000E-02 0. -1.
         -1   -1    0    0    0  501 -0.00000000000E+00 -0.00000000000E+00 -0.94775587990E+03  0.94775587991E+03  0.50400000000E-02 0.  1.
    8880023    1    1    2    0    0  0.56638028915E+03 -0.51461702431E+03 -0.50878129110E+03  0.11306130735E+04  0.65864270000E+03 0.  0.
    8880022    1    1    2    0    0 -0.56638028915E+03  0.51461702431E+03  0.10608667291E+04  0.13169841242E+04  0.15294330000E+03 0.  0.
<mgrwt>
<rscale>  0 0.94669829E+03</rscale>
<asrwt>0</asrwt>
<pdfrwt beam="1">  1        1 0.23074482E+00 0.10096670E+04</pdfrwt>
<pdfrwt beam="2">  1       -1 0.14580860E+00 0.10096670E+04</pdfrwt>
<totfact> 0.24736329E+00</totfact>
</mgrwt>
</event>
<event>
 4    1  0.3712574E-007  0.8534074E+03  0.7818608E-02  0.9605400E-01
          1   -1    0    0  501    0  0.00000000000E+00  0.00000000000E+00  0.11965241161E+04  0.11965241161E+04  0.50400000000E-02 0. -1.
         -1   -1    0    0    0  501 -0.00000000000E+00 -0.00000000000E+00 -0.55051933806E+03  0.55051933808E+03  0.50400000000E-02 0.  1.
    8880023    1    1    2    0    0 -0.53872522207E+03 -0.65338604480E+02 -0.45740808618E+02  0.85463233379E+03  0.65864270000E+03 0.  1.
    8880022    1    1    2    0    0  0.53872522207E+03  0.65338604480E+02  0.69174558663E+03  0.89241112037E+03  0.15294330000E+03 0.  0.
<mgrwt>
<rscale>  0 0.76939821E+03</rscale>
<asrwt>0</asrwt>
<pdfrwt beam="1">  1        1 0.18408063E+00 0.85340741E+03</pdfrwt>
<pdfrwt beam="2">  1       -1 0.84695284E-01 0.85340741E+03</pdfrwt>
<totfact> 0.15118098E+01</totfact>
</mgrwt>
</event>
<event>
 4    1  0.3712574E-007  0.7286984E+03  0.7818608E-02  0.9894182E-01
         -1   -1    0    0    0  501 -0.00000000000E+00  0.00000000000E+00  0.18354913159E+03  0.18354913166E+03  0.50400000000E-02 0.  1.
          1   -1    0    0  501    0  0.00000000000E+00 -0.00000000000E+00 -0.19434299290E+04  0.19434299290E+04  0.50400000000E-02 0. -1.
    8880023    1    1    2    0    0 -0.15820502166E+03 -0.26863042494E+03 -0.69530097225E+03  0.10071964964E+04  0.65864270000E+03 0.  0.
    8880022    1    1    2    0    0  0.15820502166E+03  0.26863042494E+03 -0.10645798252E+04  0.11197825643E+04  0.15294330000E+03 0.  0.
<mgrwt>
<rscale>  0 0.60544057E+03</rscale>
<asrwt>0</asrwt>
<pdfrwt beam="1">  1        1 0.29898921E+00 0.72869839E+03</pdfrwt>
<pdfrwt beam="2">  1       -1 0.28238329E-01 0.72869839E+03</pdfrwt>
<totfact> 0.38317214E+01</totfact>
</mgrwt>
</event>
<event>
 4    1  0.4340872E-007  0.8006882E+03  0.7818608E-02  0.9709310E-01
          1   -1    0    0  501    0  0.00000000000E+00  0.00000000000E+00  0.41738978536E+04  0.41738978536E+04  0.50400000000E-02 0. -1.
         -1   -1    0    0    0  501 -0.00000000000E+00 -0.00000000000E+00 -0.81705145599E+03  0.81705145600E+03  0.50400000000E-02 0.  1.
    8880023    1    1    2    0    0  0.45511888769E+03  0.12575993759E+02 -0.60282999745E+03  0.10022502530E+04  0.65864270000E+03 0.  0.
    8880022    1    1    2    0    0 -0.45511888769E+03 -0.12575993759E+02  0.39596763951E+04  0.39886990566E+04  0.15294330000E+03 0. -1.
<mgrwt>
<rscale>  0 0.70465172E+03</rscale>
<asrwt>0</asrwt>
<pdfrwt beam="1">  1        1 0.64213815E+00 0.80068818E+03</pdfrwt>
<pdfrwt beam="2">  1       -1 0.12570022E+00 0.80068818E+03</pdfrwt>
<totfact> 0.41176786E-02</totfact>
</mgrwt>
</event>
<event>
 4    1  0.3712574E-007  0.6666791E+03  0.7818608E-02  0.1018164E+00
         -1   -1    0    0    0  501 -0.00000000000E+00  0.00000000000E+00  0.44049710123E+03  0.44049710126E+03  0.50400000000E-02 0.  1.
          1   -1    0    0  501    0  0.00000000000E+00 -0.00000000000E+00 -0.13676231682E+04  0.13676231682E+04  0.50400000000E-02 0. -1.
    8880023    1    1    2    0    0 -0.88884959637E+02  0.52443497697E+02  0.17612175238E+03  0.68955053073E+03  0.65864270000E+03 0.  1.
    8880022    1    1    2    0    0  0.88884959637E+02 -0.52443497697E+02 -0.11032478193E+04  0.11185697387E+04  0.15294330000E+03 0.  0.
<mgrwt>
<rscale>  0 0.48354883E+03</rscale>
<asrwt>0</asrwt>
<pdfrwt beam="1">  1        1 0.21040356E+00 0.66667913E+03</pdfrwt>
<pdfrwt beam="2">  1       -1 0.67768786E-01 0.66667913E+03</pdfrwt>
<totfact> 0.18666918E+01</totfact>
</mgrwt>
</event>
<event>
 4    1  0.3712574E-007  0.9402704E+03  0.7818608E-02  0.9464253E-01
         -1   -1    0    0    0  501 -0.00000000000E+00  0.00000000000E+00  0.38576169026E+03  0.38576169029E+03  0.50400000000E-02 0.  1.
          1   -1    0    0  501    0  0.00000000000E+00 -0.00000000000E+00 -0.18865421756E+04  0.18865421756E+04  0.50400000000E-02 0. -1.
    8880023    1    1    2    0    0  0.40561419674E+03 -0.53457955626E+03 -0.11913235006E+04  0.15176824661E+04  0.65864270000E+03 0.  1.
    8880022    1    1    2    0    0 -0.40561419674E+03  0.53457955626E+03 -0.30945698470E+03  0.75462139975E+03  0.15294330000E+03 0. -1.
<mgrwt>
<rscale>  0 0.86971373E+03</rscale>
<asrwt>0</asrwt>
<pdfrwt beam="1">  1        1 0.29023725E+00 0.94027038E+03</pdfrwt>
<pdfrwt beam="2">  1       -1 0.59347953E-01 0.94027038E+03</pdfrwt>
<totfact> 0.10414853E+01</totfact>
</mgrwt>
</event>
<event>
 4    1  0.3712574E-007  0.7725740E+03  0.7818608E-02  0.9773579E-01
          1   -1    0    0  501    0  0.00000000000E+00  0.00000000000E+00  0.17297999781E+04  0.17297999781E+04  0.50400000000E-02 0. -1.
         -1   -1    0    0    0  501 -0.00000000000E+00 -0.00000000000E+00 -0.33206503032E+03  0.33206503036E+03  0.50400000000E-02 0.  1.
    8880023    1    1    2    0    0 -0.37350692218E+02 -0.40207627027E+03  0.21374998575E+03  0.80159819361E+03  0.65864270000E+03 0.  1.
    8880022    1    1    2    0    0  0.37350692218E+02  0.40207627027E+03  0.11839849620E+04  0.12602668148E+04  0.15294330000E+03 0.  0.
<mgrwt>
<rscale>  0 0.66799924E+03</rscale>
<asrwt>0</asrwt>
<pdfrwt beam="1">  1        1 0.26612308E+00 0.77257401E+03</pdfrwt>
<pdfrwt beam="2">  1       -1 0.51086927E-01 0.77257401E+03</pdfrwt>
<totfact> 0.18131862E+01</totfact>
</mgrwt>
</event>
<event>
 4    1  0.3712574E-007  0.1466933E+04  0.7818608E-02  0.8933346E-01
         -1   -1    0    0    0  501 -0.00000000000E+00  0.00000000000E+00  0.18745324186E+04  0.18745324186E+04  0.50400000000E-02 0.  1.
          1   -1    0    0  501    0  0.00000000000E+00 -0.00000000000E+00 -0.12900161190E+04  0.12900161190E+04  0.50400000000E-02 0. -1.
    8880023    1    1    2    0    0  0.32493244767E+03 -0.12698424536E+04 -0.39723621219E+03  0.15197656948E+04  0.65864270000E+03 0.  0.
    8880022    1    1    2    0    0 -0.32493244767E+03  0.12698424536E+04  0.98175251177E+03  0.16447828428E+04  0.15294330000E+03 0.  0.
<mgrwt>
<rscale>  0 0.14286380E+04</rscale>
<asrwt>0</asrwt>
<pdfrwt beam="1">  1        1 0.19846402E+00 0.14669326E+04</pdfrwt>
<pdfrwt beam="2">  1       -1 0.28838960E+00 0.14669326E+04</pdfrwt>
<totfact> 0.34346875E-01</totfact>
</mgrwt>
</event>
<event>
 4    1  0.3712574E-007  0.8912727E+03  0.7818608E-02  0.9540190E-01
          1   -1    0    0  501    0  0.00000000000E+00  0.00000000000E+00  0.72366880218E+03  0.72366880219E+03  0.50400000000E-02 0. -1.
         -1   -1    0    0    0  501 -0.00000000000E+00 -0.00000000000E+00 -0.11127001596E+04  0.11127001596E+04  0.50400000000E-02 0.  1.
    8880023    1    1    2    0    0 -0.58181026154E+03 -0.14850445376E+03 -0.70910760969E+03  0.11389471285E+04  0.65864270000E+03 0.  1.
    8880022    1    1    2    0    0  0.58181026154E+03  0.14850445376E+03  0.32007625228E+03  0.69742183326E+03  0.15294330000E+03 0.  0.
<mgrwt>
<rscale>  0 0.81384565E+03</rscale>
<asrwt>0</asrwt>
<pdfrwt beam="1">  1        1 0.11133366E+00 0.89127266E+03</pdfrwt>
<pdfrwt beam="2">  1       -1 0.17118464E+00 0.89127266E+03</pdfrwt>
<totfact> 0.63382599E+00</totfact>
</mgrwt>
</event>
<event>
 4    1  0.3712574E-007  0.7649358E+03  0.7818608E-02  0.9792493E-01
         -1   -1    0    0    0  501 -0.00000000000E+00  0.00000000000E+00  0.38525209685E+03  0.38525209688E+03  0.50400000000E-02 0.  1.
          1   -1    0    0  501    0  0.00000000000E+00 -0.00000000000E+00 -0.10060101932E+04  0.10060101932E+04  0.50400000000E-02 0. -1.
    8880023    1    1    2    0    0  0.50718533087E+02 -0.38567378759E+03 -0.60103595638E+03  0.97281605001E+03  0.65864270000E+03 0.  0.
    8880022    1    1    2    0    0 -0.50718533087E+02  0.38567378759E+03 -0.19722139995E+02  0.41844624010E+03  0.15294330000E+03 0.  0.
<mgrwt>
<rscale>  0 0.65766988E+03</rscale>
<asrwt>0</asrwt>
<pdfrwt beam="1">  1        1 0.15477080E+00 0.76493584E+03</pdfrwt>
<pdfrwt beam="2">  1       -1 0.59269554E-01 0.76493584E+03</pdfrwt>
<totfact> 0.44201805E+01</totfact>
</mgrwt>
</event>
<event>
 4    1  0.3712574E-007  0.7291555E+03  0.7818608E-02  0.9892743E-01
          1   -1    0    0  501    0  0.00000000000E+00  0.00000000000E+00  0.12115754350E+04  0.12115754350E+04  0.50400000000E-02 0. -1.
         -1   -1    0    0    0  501 -0.00000000000E+00 -0.00000000000E+00 -0.42880014409E+03  0.42880014412E+03  0.50400000000E-02 0.  1.
    8880023    1    1    2    0    0 -0.27202270094E+03  0.15447075599E+03 -0.56890787072E+02  0.73137154183E+03  0.65864270000E+03 0.  1.
    8880022    1    1    2    0    0  0.27202270094E+03 -0.15447075599E+03  0.83966607798E+03  0.90900403729E+03  0.15294330000E+03 0.  0.
<mgrwt>
<rscale>  0 0.60614286E+03</rscale>
<asrwt>0</asrwt>
<pdfrwt beam="1">  1        1 0.18639622E+00 0.72915552E+03</pdfrwt>
<pdfrwt beam="2">  1       -1 0.65969253E-01 0.72915552E+03</pdfrwt>
<totfact> 0.25200914E+01</totfact>
</mgrwt>
</event>
<event>
 4    1  0.3712574E-007  0.1000225E+04  0.7818608E-02  0.9381263E-01
          1   -1    0    0  501    0  0.00000000000E+00  0.00000000000E+00  0.91408192600E+03  0.91408192601E+03  0.50400000000E-02 0. -1.
         -1   -1    0    0    0  501 -0.00000000000E+00 -0.00000000000E+00 -0.10975494962E+04  0.10975494962E+04  0.50400000000E-02 0.  1.
    8880023    1    1    2    0    0  0.74190532539E+01 -0.75271867471E+03 -0.57051431347E+03  0.11514934797E+04  0.65864270000E+03 0.  1.
    8880022    1    1    2    0    0 -0.74190532539E+01  0.75271867471E+03  0.38704674331E+03  0.86013794250E+03  0.15294330000E+03 0.  0.
<mgrwt>
<rscale>  0 0.93633839E+03</rscale>
<asrwt>0</asrwt>
<pdfrwt beam="1">  1        1 0.14062799E+00 0.10002253E+04</pdfrwt>
<pdfrwt beam="2">  1       -1 0.16885377E+00 0.10002253E+04</pdfrwt>
<totfact> 0.44583190E+00</totfact>
</mgrwt>
</event>
<event>
 4    1  0.3712574E-007  0.6801809E+03  0.7818608E-02  0.1009221E+00
         -1   -1    0    0    0  501 -0.00000000000E+00  0.00000000000E+00  0.19780968888E+03  0.19780968894E+03  0.50400000000E-02 0.  1.
          1   -1    0    0  501    0  0.00000000000E+00 -0.00000000000E+00 -0.10553306612E+04  0.10553306612E+04  0.50400000000E-02 0. -1.
    8880023    1    1    2    0    0 -0.13656343408E+03 -0.10092728504E+03 -0.58215062994E+03  0.89529070731E+03  0.65864270000E+03 0.  1.
    8880022    1    1    2    0    0  0.13656343408E+03  0.10092728504E+03 -0.27537034234E+03  0.35784964280E+03  0.15294330000E+03 0. -1.
<mgrwt>
<rscale>  0 0.51785215E+03</rscale>
<asrwt>0</asrwt>
<pdfrwt beam="1">  1        1 0.16235856E+00 0.68018093E+03</pdfrwt>
<pdfrwt beam="2">  1       -1 0.30432260E-01 0.68018093E+03</pdfrwt>
<totfact> 0.13944115E+02</totfact>
</mgrwt>
</event>
<event>
 4    1  0.3712574E-007  0.8957262E+03  0.7818608E-02  0.9532928E-01
          1   -1    0    0  501    0  0.00000000000E+00  0.00000000000E+00  0.27960665536E+03  0.27960665541E+03  0.50400000000E-02 0. -1.
         -1   -1    0    0    0  501 -0.00000000000E+00 -0.00000000000E+00 -0.37538502977E+04  0.37538502977E+04  0.50400000000E-02 0.  1.
    8880023    1    1    2    0    0  0.48210735278E+03  0.36890058535E+03 -0.32456822834E+04  0.33670133401E+04  0.65864270000E+03 0.  1.
    8880022    1    1    2    0    0 -0.48210735278E+03 -0.36890058535E+03 -0.22856135893E+03  0.66644361298E+03  0.15294330000E+03 0.  0.
<mgrwt>
<rscale>  0 0.81899131E+03</rscale>
<asrwt>0</asrwt>
<pdfrwt beam="1">  1        1 0.43016411E-01 0.89572616E+03</pdfrwt>
<pdfrwt beam="2">  1       -1 0.57751540E+00 0.89572616E+03</pdfrwt>
<totfact> 0.53143770E-02</totfact>
</mgrwt>
</event>
<event>
 4    1  0.3712574E-007  0.8930891E+03  0.7818608E-02  0.9537218E-01
          1   -1    0    0  501    0  0.00000000000E+00  0.00000000000E+00  0.10493558047E+04  0.10493558047E+04  0.50400000000E-02 0. -1.
         -1   -1    0    0    0  501 -0.00000000000E+00 -0.00000000000E+00 -0.12075483538E+04  0.12075483538E+04  0.50400000000E-02 0.  1.
    8880023    1    1    2    0    0 -0.11586353704E+03 -0.59192358454E+03 -0.91401144368E+03  0.12778986715E+04  0.65864270000E+03 0.  1.
    8880022    1    1    2    0    0  0.11586353704E+03  0.59192358454E+03  0.75581889458E+03  0.97900548700E+03  0.15294330000E+03 0.  0.
<mgrwt>
<rscale>  0 0.81594622E+03</rscale>
<asrwt>0</asrwt>
<pdfrwt beam="1">  1        1 0.16143935E+00 0.89308907E+03</pdfrwt>
<pdfrwt beam="2">  1       -1 0.18577667E+00 0.89308907E+03</pdfrwt>
<totfact> 0.26700837E+00</totfact>
</mgrwt>
</event>
<event>
 4    1  0.3712574E-007  0.9242917E+03  0.7818608E-02  0.9488110E-01
          1   -1    0    0  501    0  0.00000000000E+00  0.00000000000E+00  0.10270367250E+04  0.10270367250E+04  0.50400000000E-02 0. -1.
         -1   -1    0    0    0  501 -0.00000000000E+00 -0.00000000000E+00 -0.11012990498E+04  0.11012990498E+04  0.50400000000E-02 0.  1.
    8880023    1    1    2    0    0  0.59476086809E+03  0.25838803184E+03 -0.74183772772E+03  0.11851743693E+04  0.65864270000E+03 0.  0.
    8880022    1    1    2    0    0 -0.59476086809E+03 -0.25838803184E+03  0.66757540290E+03  0.94316140547E+03  0.15294330000E+03 0.  0.
<mgrwt>
<rscale>  0 0.85166146E+03</rscale>
<asrwt>0</asrwt>
<pdfrwt beam="1">  1        1 0.15800565E+00 0.92429166E+03</pdfrwt>
<pdfrwt beam="2">  1       -1 0.16943062E+00 0.92429166E+03</pdfrwt>
<totfact> 0.36269194E+00</totfact>
</mgrwt>
</event>
<event>
 4    1  0.3712574E-007  0.6718047E+03  0.7818608E-02  0.1014401E+00
         -1   -1    0    0    0  501 -0.00000000000E+00  0.00000000000E+00  0.11098126814E+04  0.11098126814E+04  0.50400000000E-02 0.  1.
          1   -1    0    0  501    0  0.00000000000E+00 -0.00000000000E+00 -0.50511783517E+03  0.50511783519E+03  0.50400000000E-02 0. -1.
    8880023    1    1    2    0    0 -0.80963520354E+02  0.10467223887E+03  0.98025917573E+03  0.11883726802E+04  0.65864270000E+03 0.  1.
    8880022    1    1    2    0    0  0.80963520354E+02 -0.10467223887E+03 -0.37556432947E+03  0.42655783641E+03  0.15294330000E+03 0.  0.
<mgrwt>
<rscale>  0 0.49762445E+03</rscale>
<asrwt>0</asrwt>
<pdfrwt beam="1">  1        1 0.77710436E-01 0.67180472E+03</pdfrwt>
<pdfrwt beam="2">  1       -1 0.17074041E+00 0.67180472E+03</pdfrwt>
<totfact> 0.11049472E+01</totfact>
</mgrwt>
</event>
<event>
 4    1  0.3712574E-007  0.1271684E+04  0.7818608E-02  0.9090407E-01
          1   -1    0    0  501    0  0.00000000000E+00  0.00000000000E+00  0.15610447910E+04  0.15610447910E+04  0.50400000000E-02 0. -1.
         -1   -1    0    0    0  501 -0.00000000000E+00 -0.00000000000E+00 -0.90189471510E+03  0.90189471512E+03  0.50400000000E-02 0.  1.
    8880023    1    1    2    0    0 -0.10874150587E+04  0.29971038397E+02  0.29303266956E+03  0.13050088600E+04  0.65864270000E+03 0.  1.
    8880022    1    1    2    0    0  0.10874150587E+04 -0.29971038397E+02  0.36611740634E+03  0.11579306461E+04  0.15294330000E+03 0. -1.
<mgrwt>
<rscale>  0 0.12259904E+04</rscale>
<asrwt>0</asrwt>
<pdfrwt beam="1">  1        1 0.24016073E+00 0.12716839E+04</pdfrwt>
<pdfrwt beam="2">  1       -1 0.13875303E+00 0.12716839E+04</pdfrwt>
<totfact> 0.24808564E+00</totfact>
</mgrwt>
</event>
<event>
 4    1  0.3712574E-007  0.8398804E+03  0.7818608E-02  0.9630406E-01
         -1   -1    0    0    0  501 -0.00000000000E+00  0.00000000000E+00  0.72454903301E+03  0.72454903303E+03  0.50400000000E-02 0.  1.
          1   -1    0    0  501    0  0.00000000000E+00 -0.00000000000E+00 -0.24899379595E+04  0.24899379595E+04  0.50400000000E-02 0. -1.
    8880023    1    1    2    0    0 -0.27486703464E+03 -0.44276068120E+03  0.43654679871E+03  0.94655809187E+03  0.65864270000E+03 0.  1.
    8880022    1    1    2    0    0  0.27486703464E+03  0.44276068120E+03 -0.22019357252E+04  0.22679289007E+04  0.15294330000E+03 0.  0.
<mgrwt>
<rscale>  0 0.75316003E+03</rscale>
<asrwt>0</asrwt>
<pdfrwt beam="1">  1        1 0.38306737E+00 0.83988042E+03</pdfrwt>
<pdfrwt beam="2">  1       -1 0.11146908E+00 0.83988042E+03</pdfrwt>
<totfact> 0.10664102E+00</totfact>
</mgrwt>
</event>
<event>
 4    1  0.3712574E-007  0.7023100E+03  0.7818608E-02  0.9987750E-01
         -1   -1    0    0    0  501 -0.00000000000E+00  0.00000000000E+00  0.23955259434E+03  0.23955259440E+03  0.50400000000E-02 0.  1.
          1   -1    0    0  501    0  0.00000000000E+00 -0.00000000000E+00 -0.16848060885E+04  0.16848060885E+04  0.50400000000E-02 0. -1.
    8880023    1    1    2    0    0  0.20183507549E+03  0.13671773138E+03 -0.33630886529E+03  0.77868029056E+03  0.65864270000E+03 0.  0.
    8880022    1    1    2    0    0 -0.20183507549E+03 -0.13671773138E+03 -0.11089446288E+04  0.11456783923E+04  0.15294330000E+03 0.  0.
<mgrwt>
<rscale>  0 0.56190651E+03</rscale>
<asrwt>0</asrwt>
<pdfrwt beam="1">  1        1 0.25920093E+00 0.70231000E+03</pdfrwt>
<pdfrwt beam="2">  1       -1 0.36854246E-01 0.70231000E+03</pdfrwt>
<totfact> 0.35847357E+01</totfact>
</mgrwt>
</event>
<event>
 4    1  0.3712574E-007  0.6840783E+03  0.7818608E-02  0.1007105E+00
          1   -1    0    0  501    0  0.00000000000E+00  0.00000000000E+00  0.10425216333E+04  0.10425216333E+04  0.50400000000E-02 0. -1.
         -1   -1    0    0    0  501 -0.00000000000E+00 -0.00000000000E+00 -0.32103326155E+03  0.32103326159E+03  0.50400000000E-02 0.  1.
    8880023    1    1    2    0    0 -0.74207541477E+02 -0.16925191596E+03  0.92410965997E+02  0.69029194054E+03  0.65864270000E+03 0.  1.
    8880022    1    1    2    0    0  0.74207541477E+02  0.16925191596E+03  0.62907740571E+03  0.67326295432E+03  0.15294330000E+03 0.  0.
<mgrwt>
<rscale>  0 0.52641708E+03</rscale>
<asrwt>0</asrwt>
<pdfrwt beam="1">  1        1 0.16038794E+00 0.68407834E+03</pdfrwt>
<pdfrwt beam="2">  1       -1 0.49389734E-01 0.68407834E+03</pdfrwt>
<totfact> 0.59349640E+01</totfact>
</mgrwt>
</event>
<event>
 4    1  0.3712574E-007  0.6845302E+03  0.7818608E-02  0.1006869E+00
         -1   -1    0    0    0  501 -0.00000000000E+00  0.00000000000E+00  0.46905078849E+03  0.46905078852E+03  0.50400000000E-02 0.  1.
          1   -1    0    0  501    0  0.00000000000E+00 -0.00000000000E+00 -0.71548806724E+03  0.71548806725E+03  0.50400000000E-02 0. -1.
    8880023    1    1    2    0    0  0.16911613785E+03  0.78556094991E+02  0.16817545041E+03  0.70488617274E+03  0.65864270000E+03 0.  1.
    8880022    1    1    2    0    0 -0.16911613785E+03 -0.78556094991E+02 -0.41461272915E+03  0.47965268303E+03  0.15294330000E+03 0.  0.
<mgrwt>
<rscale>  0 0.52738196E+03</rscale>
<asrwt>0</asrwt>
<pdfrwt beam="1">  1        1 0.11007509E+00 0.68453016E+03</pdfrwt>
<pdfrwt beam="2">  1       -1 0.72161660E-01 0.68453016E+03</pdfrwt>
<totfact> 0.52503285E+01</totfact>
</mgrwt>
</event>
<event>
 4    1  0.3712574E-007  0.1011922E+04  0.7818608E-02  0.9366123E-01
         -1   -1    0    0    0  501 -0.00000000000E+00  0.00000000000E+00  0.73837349293E+03  0.73837349295E+03  0.50400000000E-02 0.  1.
          1   -1    0    0  501    0  0.00000000000E+00 -0.00000000000E+00 -0.12506563628E+04  0.12506563628E+04  0.50400000000E-02 0. -1.
    8880023    1    1    2    0    0  0.50892427627E+02 -0.76654213901E+03 -0.63719283408E+03  0.11958268287E+04  0.65864270000E+03 0. -1.
    8880022    1    1    2    0    0 -0.50892427627E+02  0.76654213901E+03  0.12490996419E+03  0.79320302712E+03  0.15294330000E+03 0.  1.
<mgrwt>
<rscale>  0 0.94916850E+03</rscale>
<asrwt>0</asrwt>
<pdfrwt beam="1">  1        1 0.19240867E+00 0.10119225E+04</pdfrwt>
<pdfrwt beam="2">  1       -1 0.11359592E+00 0.10119225E+04</pdfrwt>
<totfact> 0.69553180E+00</totfact>
</mgrwt>
</event>
<event>
 4    1  0.6765867E-007  0.7258626E+03  0.7818608E-02  0.9903226E-01
         -1   -1    0    0    0  501 -0.00000000000E+00  0.00000000000E+00  0.24208151882E+04  0.24208151882E+04  0.50400000000E-02 0.  1.
          1   -1    0    0  501    0  0.00000000000E+00 -0.00000000000E+00 -0.11972937388E+04  0.11972937388E+04  0.50400000000E-02 0. -1.
    8880023    1    1    2    0    0 -0.30288190432E+03 -0.36452538214E+02  0.23403376658E+04  0.24503177001E+04  0.65864270000E+03 0.  1.
    8880022    1    1    2    0    0  0.30288190432E+03  0.36452538214E+02 -0.11168162163E+04  0.11677912269E+04  0.15294330000E+03 0.  0.
<mgrwt>
<rscale>  0 0.60105181E+03</rscale>
<asrwt>0</asrwt>
<pdfrwt beam="1">  1        1 0.18419904E+00 0.72586255E+03</pdfrwt>
<pdfrwt beam="2">  1       -1 0.37243310E+00 0.72586255E+03</pdfrwt>
<totfact> 0.12858247E-01</totfact>
</mgrwt>
</event>
<event>
 4    1  0.3712574E-007  0.6618547E+03  0.7818608E-02  0.1022332E+00
          1   -1    0    0  501    0  0.00000000000E+00  0.00000000000E+00  0.72950025895E+03  0.72950025896E+03  0.50400000000E-02 0. -1.
         -1   -1    0    0    0  501 -0.00000000000E+00 -0.00000000000E+00 -0.24388215124E+03  0.24388215129E+03  0.50400000000E-02 0.  1.
    8880023    1    1    2    0    0 -0.64198290582E+02 -0.10953595833E+02  0.30767684354E+03  0.72987440570E+03  0.65864270000E+03 0.  1.
    8880022    1    1    2    0    0  0.64198290582E+02  0.10953595833E+02  0.17794126417E+03  0.24350800456E+03  0.15294330000E+03 0.  0.
<mgrwt>
<rscale>  0 0.46854423E+03</rscale>
<asrwt>0</asrwt>
<pdfrwt beam="1">  1        1 0.11223081E+00 0.66185467E+03</pdfrwt>
<pdfrwt beam="2">  1       -1 0.37520332E-01 0.66185467E+03</pdfrwt>
<totfact> 0.17848598E+02</totfact>
</mgrwt>
</event>
<event>
 4    1  0.3712574E-007  0.9167032E+03  0.7818608E-02  0.9499733E-01
         -1   -1    0    0    0  501 -0.00000000000E+00  0.00000000000E+00  0.12730151601E+04  0.12730151601E+04  0.50400000000E-02 0.  1.
          1   -1    0    0  501    0  0.00000000000E+00 -0.00000000000E+00 -0.10115396477E+04  0.10115396477E+04  0.50400000000E-02 0. -1.
    8880023    1    1    2    0    0 -0.83175644711E+01  0.63754631899E+03  0.95939445295E+03  0.13269447665E+04  0.65864270000E+03 0.  1.
    8880022    1    1    2    0    0  0.83175644711E+01 -0.63754631899E+03 -0.69791894056E+03  0.95761004138E+03  0.15294330000E+03 0.  0.
<mgrwt>
<rscale>  0 0.84303534E+03</rscale>
<asrwt>0</asrwt>
<pdfrwt beam="1">  1        1 0.15562148E+00 0.91670317E+03</pdfrwt>
<pdfrwt beam="2">  1       -1 0.19584849E+00 0.91670317E+03</pdfrwt>
<totfact> 0.24200014E+00</totfact>
</mgrwt>
</event>
<event>
 4    1  0.3712574E-007  0.6969613E+03  0.7818608E-02  0.1001005E+00
         -1   -1    0    0    0  501 -0.00000000000E+00  0.00000000000E+00  0.77326327900E+03  0.77326327901E+03  0.50400000000E-02 0.  1.
          1   -1    0    0  501    0  0.00000000000E+00 -0.00000000000E+00 -0.88955258489E+03  0.88955258490E+03  0.50400000000E-02 0. -1.
    8880023    1    1    2    0    0  0.19025746662E+03 -0.12548659751E+03  0.58486832950E+03  0.90984941550E+03  0.65864270000E+03 0.  0.
    8880022    1    1    2    0    0 -0.19025746662E+03  0.12548659751E+03 -0.70115763539E+03  0.75296644842E+03  0.15294330000E+03 0.  0.
<mgrwt>
<rscale>  0 0.55211827E+03</rscale>
<asrwt>0</asrwt>
<pdfrwt beam="1">  1        1 0.13685424E+00 0.69696126E+03</pdfrwt>
<pdfrwt beam="2">  1       -1 0.11896358E+00 0.69696126E+03</pdfrwt>
<totfact> 0.12184918E+01</totfact>
</mgrwt>
</event>
<event>
 4    1  0.3712574E-007  0.8558825E+03  0.7818608E-02  0.9600930E-01
         -1   -1    0    0    0  501 -0.00000000000E+00  0.00000000000E+00  0.11432694391E+04  0.11432694391E+04  0.50400000000E-02 0.  1.
          1   -1    0    0  501    0  0.00000000000E+00 -0.00000000000E+00 -0.10760472600E+04  0.10760472600E+04  0.50400000000E-02 0. -1.
    8880023    1    1    2    0    0  0.13931941472E+03 -0.52850240574E+03  0.88027296004E+03  0.12277684564E+04  0.65864270000E+03 0.  0.
    8880022    1    1    2    0    0 -0.13931941472E+03  0.52850240574E+03 -0.81305078092E+03  0.99154824268E+03  0.15294330000E+03 0.  0.
<mgrwt>
<rscale>  0 0.77234656E+03</rscale>
<asrwt>0</asrwt>
<pdfrwt beam="1">  1        1 0.16554573E+00 0.85588253E+03</pdfrwt>
<pdfrwt beam="2">  1       -1 0.17588761E+00 0.85588253E+03</pdfrwt>
<totfact> 0.30144990E+00</totfact>
</mgrwt>
</event>
<event>
 4    1  0.3712574E-007  0.7830293E+03  0.7818608E-02  0.9748769E-01
          1   -1    0    0  501    0  0.00000000000E+00  0.00000000000E+00  0.32849807453E+03  0.32849807456E+03  0.50400000000E-02 0. -1.
         -1   -1    0    0    0  501 -0.00000000000E+00 -0.00000000000E+00 -0.14927156948E+04  0.14927156949E+04  0.50400000000E-02 0.  1.
    8880023    1    1    2    0    0  0.29445160860E+03 -0.30434025082E+03 -0.11230728013E+04  0.13690973163E+04  0.65864270000E+03 0.  0.
    8880022    1    1    2    0    0 -0.29445160860E+03  0.30434025082E+03 -0.41144819019E+02  0.45211645317E+03  0.15294330000E+03 0.  0.
<mgrwt>
<rscale>  0 0.68185909E+03</rscale>
<asrwt>0</asrwt>
<pdfrwt beam="1">  1        1 0.50538166E-01 0.78302934E+03</pdfrwt>
<pdfrwt beam="2">  1       -1 0.22964857E+00 0.78302934E+03</pdfrwt>
<totfact> 0.76145954E+00</totfact>
</mgrwt>
</event>
<event>
 4    1  0.3712574E-007  0.8584958E+03  0.7818608E-02  0.9596245E-01
          1   -1    0    0  501    0  0.00000000000E+00  0.00000000000E+00  0.30059891960E+04  0.30059891960E+04  0.50400000000E-02 0. -1.
         -1   -1    0    0    0  501 -0.00000000000E+00 -0.00000000000E+00 -0.23721284738E+03  0.23721284744E+03  0.50400000000E-02 0.  1.
    8880023    1    1    2    0    0 -0.59249631305E+02  0.54744344339E+03  0.24338077319E+04  0.25807818824E+04  0.65864270000E+03 0.  0.
    8880022    1    1    2    0    0  0.59249631305E+02 -0.54744344339E+03  0.33496861672E+03  0.66242016102E+03  0.15294330000E+03 0.  0.
<mgrwt>
<rscale>  0 0.77545227E+03</rscale>
<asrwt>0</asrwt>
<pdfrwt beam="1">  1        1 0.46245984E+00 0.85849581E+03</pdfrwt>
<pdfrwt beam="2">  1       -1 0.36494287E-01 0.85849581E+03</pdfrwt>
<totfact> 0.44657285E+00</totfact>
</mgrwt>
</event>
<event>
 4    1  0.3712574E-007  0.7874333E+03  0.7818608E-02  0.9738657E-01
          1   -1    0    0  501    0  0.00000000000E+00  0.00000000000E+00  0.96323439572E+03  0.96323439574E+03  0.50400000000E-02 0. -1.
         -1   -1    0    0    0  501 -0.00000000000E+00 -0.00000000000E+00 -0.52731555954E+03  0.52731555956E+03  0.50400000000E-02 0.  1.
    8880023    1    1    2    0    0  0.37267442853E+03 -0.21761158975E+03 -0.90797769040E+02  0.79265091610E+03  0.65864270000E+03 0.  1.
    8880022    1    1    2    0    0 -0.37267442853E+03  0.21761158975E+03  0.52671660522E+03  0.69789903919E+03  0.15294330000E+03 0.  0.
<mgrwt>
<rscale>  0 0.68761084E+03</rscale>
<asrwt>0</asrwt>
<pdfrwt beam="1">  1        1 0.14818991E+00 0.78743332E+03</pdfrwt>
<pdfrwt beam="2">  1       -1 0.81125471E-01 0.78743332E+03</pdfrwt>
<totfact> 0.25064360E+01</totfact>
</mgrwt>
</event>
<event>
 4    1  0.3712574E-007  0.7487295E+03  0.7818608E-02  0.9835211E-01
          1   -1    0    0  501    0  0.00000000000E+00  0.00000000000E+00  0.28498061542E+03  0.28498061547E+03  0.50400000000E-02 0. -1.
         -1   -1    0    0    0  501 -0.00000000000E+00 -0.00000000000E+00 -0.12468175637E+04  0.12468175637E+04  0.50400000000E-02 0.  1.
    8880023    1    1    2    0    0  0.78654766089E+01 -0.35598281677E+03 -0.84070632572E+03  0.11257810462E+04  0.65864270000E+03 0.  0.
    8880022    1    1    2    0    0 -0.78654766089E+01  0.35598281677E+03 -0.12113062257E+03  0.40601713301E+03  0.15294330000E+03 0.  0.
<mgrwt>
<rscale>  0 0.63506654E+03</rscale>
<asrwt>0</asrwt>
<pdfrwt beam="1">  1        1 0.43843172E-01 0.74872948E+03</pdfrwt>
<pdfrwt beam="2">  1       -1 0.19181808E+00 0.74872948E+03</pdfrwt>
<totfact> 0.16531996E+01</totfact>
</mgrwt>
</event>
<event>
 4    1  0.3712574E-007  0.7899786E+03  0.7818608E-02  0.9732899E-01
          1   -1    0    0  501    0  0.00000000000E+00  0.00000000000E+00  0.93496959186E+03  0.93496959187E+03  0.50400000000E-02 0. -1.
         -1   -1    0    0    0  501 -0.00000000000E+00 -0.00000000000E+00 -0.98141231192E+03  0.98141231194E+03  0.50400000000E-02 0.  1.
    8880023    1    1    2    0    0  0.43584619051E+03  0.17146602283E+02 -0.74031559922E+03  0.10826510520E+04  0.65864270000E+03 0.  1.
    8880022    1    1    2    0    0 -0.43584619051E+03 -0.17146602283E+02  0.69387287916E+03  0.83373085178E+03  0.15294330000E+03 0.  0.
<mgrwt>
<rscale>  0 0.69091356E+03</rscale>
<asrwt>0</asrwt>
<pdfrwt beam="1">  1        1 0.14384147E+00 0.78997855E+03</pdfrwt>
<pdfrwt beam="2">  1       -1 0.15098651E+00 0.78997855E+03</pdfrwt>
<totfact> 0.60110579E+00</totfact>
</mgrwt>
</event>
<event>
 4    1  0.3712574E-007  0.6792155E+03  0.7818608E-02  0.1009771E+00
          1   -1    0    0  501    0  0.00000000000E+00  0.00000000000E+00  0.18758496101E+04  0.18758496101E+04  0.50400000000E-02 0. -1.
         -1   -1    0    0    0  501 -0.00000000000E+00 -0.00000000000E+00 -0.12308992760E+03  0.12308992770E+03  0.50400000000E-02 0.  1.
    8880023    1    1    2    0    0 -0.91195820952E+02 -0.13858881990E+03  0.96896827188E+03  0.11833145216E+04  0.65864270000E+03 0.  1.
    8880022    1    1    2    0    0  0.91195820952E+02  0.13858881990E+03  0.78379141065E+03  0.81562501629E+03  0.15294330000E+03 0.  0.
<mgrwt>
<rscale>  0 0.51565785E+03</rscale>
<asrwt>0</asrwt>
<pdfrwt beam="1">  1        1 0.28859224E+00 0.67921554E+03</pdfrwt>
<pdfrwt beam="2">  1       -1 0.18936913E-01 0.67921554E+03</pdfrwt>
<totfact> 0.84017035E+01</totfact>
</mgrwt>
</event>
<event>
 4    1  0.3712574E-007  0.6639460E+03  0.7818608E-02  0.1020435E+00
         -1   -1    0    0    0  501 -0.00000000000E+00  0.00000000000E+00  0.75699306126E+03  0.75699306128E+03  0.50400000000E-02 0.  1.
          1   -1    0    0  501    0  0.00000000000E+00 -0.00000000000E+00 -0.23463144310E+03  0.23463144316E+03  0.50400000000E-02 0. -1.
    8880023    1    1    2    0    0  0.82809987569E+02  0.12512512439E+02  0.37009753102E+03  0.76012922963E+03  0.65864270000E+03 0. -1.
    8880022    1    1    2    0    0 -0.82809987569E+02 -0.12512512439E+02  0.15226408714E+03  0.23149527480E+03  0.15294330000E+03 0.  1.
<mgrwt>
<rscale>  0 0.47530125E+03</rscale>
<asrwt>0</asrwt>
<pdfrwt beam="1">  1        1 0.36097144E-01 0.66394598E+03</pdfrwt>
<pdfrwt beam="2">  1       -1 0.11646047E+00 0.66394598E+03</pdfrwt>
<totfact> 0.82264223E+01</totfact>
</mgrwt>
</event>
<event>
 4    1  0.3712574E-007  0.7086958E+03  0.7818608E-02  0.9962876E-01
         -1   -1    0    0    0  501 -0.00000000000E+00  0.00000000000E+00  0.11017861484E+04  0.11017861484E+04  0.50400000000E-02 0.  1.
          1   -1    0    0  501    0  0.00000000000E+00 -0.00000000000E+00 -0.24110144496E+03  0.24110144501E+03  0.50400000000E-02 0. -1.
    8880023    1    1    2    0    0 -0.26155243025E+03 -0.54705564003E+01  0.71476785118E+03  0.10065499928E+04  0.65864270000E+03 0.  0.
    8880022    1    1    2    0    0  0.26155243025E+03  0.54705564003E+01  0.14591685222E+03  0.33633760054E+03  0.15294330000E+03 0.  0.
<mgrwt>
<rscale>  0 0.57308459E+03</rscale>
<asrwt>0</asrwt>
<pdfrwt beam="1">  1        1 0.37092530E-01 0.70869585E+03</pdfrwt>
<pdfrwt beam="2">  1       -1 0.16950556E+00 0.70869585E+03</pdfrwt>
<totfact> 0.29706799E+01</totfact>
</mgrwt>
</event>
<event>
 4    1  0.3712574E-007  0.9659543E+03  0.7818608E-02  0.9427522E-01
          1   -1    0    0  501    0  0.00000000000E+00  0.00000000000E+00  0.11275965711E+04  0.11275965711E+04  0.50400000000E-02 0. -1.
         -1   -1    0    0    0  501 -0.00000000000E+00 -0.00000000000E+00 -0.79350244047E+03  0.79350244049E+03  0.50400000000E-02 0.  1.
    8880023    1    1    2    0    0  0.39290193988E+03  0.58726952237E+03 -0.24301744070E+03  0.99605477209E+03  0.65864270000E+03 0.  1.
    8880022    1    1    2    0    0 -0.39290193988E+03 -0.58726952237E+03  0.57711157132E+03  0.92504423950E+03  0.15294330000E+03 0.  0.
<mgrwt>
<rscale>  0 0.89844955E+03</rscale>
<asrwt>0</asrwt>
<pdfrwt beam="1">  1        1 0.17347640E+00 0.96595426E+03</pdfrwt>
<pdfrwt beam="2">  1       -1 0.12207730E+00 0.96595426E+03</pdfrwt>
<totfact> 0.72225735E+00</totfact>
</mgrwt>
</event>
<event>
 4    1  0.3712574E-007  0.6751028E+03  0.7818608E-02  0.1012242E+00
         -1   -1    0    0    0  501 -0.00000000000E+00  0.00000000000E+00  0.10112234352E+03  0.10112234365E+03  0.50400000000E-02 0.  1.
          1   -1    0    0  501    0  0.00000000000E+00 -0.00000000000E+00 -0.19540665539E+04  0.19540665539E+04  0.50400000000E-02 0. -1.
    8880023    1    1    2    0    0  0.60315697817E+02  0.13533506090E+03 -0.14491092024E+04  0.15986498206E+04  0.65864270000E+03 0.  1.
    8880022    1    1    2    0    0 -0.60315697817E+02 -0.13533506090E+03 -0.40383500792E+03  0.45653907691E+03  0.15294330000E+03 0. -1.
<mgrwt>
<rscale>  0 0.50593399E+03</rscale>
<asrwt>0</asrwt>
<pdfrwt beam="1">  1        1 0.30062559E+00 0.67510278E+03</pdfrwt>
<pdfrwt beam="2">  1       -1 0.15557285E-01 0.67510278E+03</pdfrwt>
<totfact> 0.10292712E+02</totfact>
</mgrwt>
</event>
<event>
 4    1  0.3712574E-007  0.6902904E+03  0.7818608E-02  0.1004015E+00
         -1   -1    0    0    0  501 -0.00000000000E+00  0.00000000000E+00  0.44695765361E+03  0.44695765364E+03  0.50400000000E-02 0.  1.
          1   -1    0    0  501    0  0.00000000000E+00 -0.00000000000E+00 -0.10852106394E+04  0.10852106394E+04  0.50400000000E-02 0. -1.
    8880023    1    1    2    0    0  0.18942149091E+03  0.82523117125E+02  0.14712086031E+03  0.70579410587E+03  0.65864270000E+03 0.  1.
    8880022    1    1    2    0    0 -0.18942149091E+03 -0.82523117125E+02 -0.78537384608E+03  0.82637418715E+03  0.15294330000E+03 0.  0.
<mgrwt>
<rscale>  0 0.53924289E+03</rscale>
<asrwt>0</asrwt>
<pdfrwt beam="1">  1        1 0.16695548E+00 0.69029035E+03</pdfrwt>
<pdfrwt beam="2">  1       -1 0.68762716E-01 0.69029035E+03</pdfrwt>
<totfact> 0.28827114E+01</totfact>
</mgrwt>
</event>
<event>
 4    1  0.3712574E-007  0.1085225E+04  0.7818608E-02  0.9277687E-01
         -1   -1    0    0    0  501 -0.00000000000E+00  0.00000000000E+00  0.10400174289E+04  0.10400174289E+04  0.50400000000E-02 0.  1.
          1   -1    0    0  501    0  0.00000000000E+00 -0.00000000000E+00 -0.17510475867E+04  0.17510475867E+04  0.50400000000E-02 0. -1.
    8880023    1    1    2    0    0  0.70107056347E+03 -0.50239721372E+03  0.58032845641E+03  0.12306478858E+04  0.65864270000E+03 0.  0.
    8880022    1    1    2    0    0 -0.70107056347E+03  0.50239721372E+03 -0.12913586143E+04  0.15604171298E+04  0.15294330000E+03 0.  0.
<mgrwt>
<rscale>  0 0.10286321E+04</rscale>
<asrwt>0</asrwt>
<pdfrwt beam="1">  1        1 0.26939194E+00 0.10852249E+04</pdfrwt>
<pdfrwt beam="2">  1       -1 0.16000268E+00 0.10852249E+04</pdfrwt>
<totfact> 0.12802684E+00</totfact>
</mgrwt>
</event>
<event>
 4    1  0.3712574E-007  0.7788661E+03  0.7818608E-02  0.9758507E-01
         -1   -1    0    0    0  501 -0.00000000000E+00  0.00000000000E+00  0.10270128629E+04  0.10270128629E+04  0.50400000000E-02 0.  1.
          1   -1    0    0  501    0  0.00000000000E+00 -0.00000000000E+00 -0.91846395733E+03  0.91846395734E+03  0.50400000000E-02 0. -1.
    8880023    1    1    2    0    0  0.32052978082E+03 -0.26473159865E+03  0.80498618839E+03  0.11201049636E+04  0.65864270000E+03 0.  1.
    8880022    1    1    2    0    0 -0.32052978082E+03  0.26473159865E+03 -0.69643728286E+03  0.82537185661E+03  0.15294330000E+03 0.  0.
<mgrwt>
<rscale>  0 0.67637616E+03</rscale>
<asrwt>0</asrwt>
<pdfrwt beam="1">  1        1 0.14130215E+00 0.77886608E+03</pdfrwt>
<pdfrwt beam="2">  1       -1 0.15800198E+00 0.77886608E+03</pdfrwt>
<totfact> 0.54845319E+00</totfact>
</mgrwt>
</event>
<event>
 4    1  0.3712574E-007  0.8435504E+03  0.7818608E-02  0.9623522E-01
         -1   -1    0    0    0  501 -0.00000000000E+00  0.00000000000E+00  0.24403901193E+03  0.24403901198E+03  0.50400000000E-02 0.  1.
          1   -1    0    0  501    0  0.00000000000E+00 -0.00000000000E+00 -0.23181105996E+04  0.23181105996E+04  0.50400000000E-02 0. -1.
    8880023    1    1    2    0    0  0.14367113443E+03  0.50707565730E+03 -0.74958438820E+03  0.11284742258E+04  0.65864270000E+03 0.  1.
    8880022    1    1    2    0    0 -0.14367113443E+03 -0.50707565730E+03 -0.13244871994E+04  0.14336753857E+04  0.15294330000E+03 0. -1.
<mgrwt>
<rscale>  0 0.75758737E+03</rscale>
<asrwt>0</asrwt>
<pdfrwt beam="1">  1        1 0.35663238E+00 0.84355043E+03</pdfrwt>
<pdfrwt beam="2">  1       -1 0.37544465E-01 0.84355043E+03</pdfrwt>
<totfact> 0.12791804E+01</totfact>
</mgrwt>
</event>
<event>
 4    1  0.3712574E-007  0.6669762E+03  0.7818608E-02  0.1017930E+00
         -1   -1    0    0    0  501 -0.00000000000E+00  0.00000000000E+00  0.17558904050E+03  0.17558904057E+03  0.50400000000E-02 0.  1.
          1   -1    0    0  501    0  0.00000000000E+00 -0.00000000000E+00 -0.12257979799E+04  0.12257979799E+04  0.50400000000E-02 0. -1.
    8880023    1    1    2    0    0  0.13156070395E+02  0.10427824891E+03 -0.53901722948E+03  0.85755280615E+03  0.65864270000E+03 0.  1.
    8880022    1    1    2    0    0 -0.13156070395E+02 -0.10427824891E+03 -0.51119170994E+03  0.54383421436E+03  0.15294330000E+03 0. -1.
<mgrwt>
<rscale>  0 0.48441053E+03</rscale>
<asrwt>0</asrwt>
<pdfrwt beam="1">  1        1 0.18858430E+00 0.66697619E+03</pdfrwt>
<pdfrwt beam="2">  1       -1 0.27013699E-01 0.66697619E+03</pdfrwt>
<totfact> 0.12857042E+02</totfact>
</mgrwt>
</event>
<event>
 4    1  0.3712574E-007  0.8491906E+03  0.7818608E-02  0.9613088E-01
         -1   -1    0    0    0  501 -0.00000000000E+00  0.00000000000E+00  0.54676027975E+03  0.54676027978E+03  0.50400000000E-02 0.  1.
          1   -1    0    0  501    0  0.00000000000E+00 -0.00000000000E+00 -0.10881293160E+04  0.10881293160E+04  0.50400000000E-02 0. -1.
    8880023    1    1    2    0    0  0.52101837673E+03 -0.12591388947E+03  0.12235793962E+02  0.84927873950E+03  0.65864270000E+03 0.  1.
    8880022    1    1    2    0    0 -0.52101837673E+03  0.12591388947E+03 -0.55360483018E+03  0.78561085626E+03  0.15294330000E+03 0.  0.
<mgrwt>
<rscale>  0 0.76435939E+03</rscale>
<asrwt>0</asrwt>
<pdfrwt beam="1">  1        1 0.16740451E+00 0.84919059E+03</pdfrwt>
<pdfrwt beam="2">  1       -1 0.84116966E-01 0.84919059E+03</pdfrwt>
<totfact> 0.18460967E+01</totfact>
</mgrwt>
</event>
<event>
 4    1  0.3712574E-007  0.1204280E+04  0.7818608E-02  0.9152973E-01
         -1   -1    0    0    0  501 -0.00000000000E+00  0.00000000000E+00  0.80754716126E+03  0.80754716128E+03  0.50400000000E-02 0.  1.
          1   -1    0    0  501    0  0.00000000000E+00 -0.00000000000E+00 -0.24176051474E+04  0.24176051474E+04  0.50400000000E-02 0. -1.
    8880023    1    1    2    0    0  0.39124397166E+03 -0.92919714191E+03  0.12693299798E+03  0.12109506043E+04  0.65864270000E+03 0.  0.
    8880022    1    1    2    0    0 -0.39124397166E+03  0.92919714191E+03 -0.17369909841E+04  0.20142017044E+04  0.15294330000E+03 0.  0.
<mgrwt>
<rscale>  0 0.11552286E+04</rscale>
<asrwt>0</asrwt>
<pdfrwt beam="1">  1        1 0.37193925E+00 0.12042796E+04</pdfrwt>
<pdfrwt beam="2">  1       -1 0.12423803E+00 0.12042796E+04</pdfrwt>
<totfact> 0.86639312E-01</totfact>
</mgrwt>
</event>
<event>
 4    1  0.3712574E-007  0.6837898E+03  0.7818608E-02  0.1007256E+00
         -1   -1    0    0    0  501 -0.00000000000E+00  0.00000000000E+00  0.54047683086E+03  0.54047683089E+03  0.50400000000E-02 0.  1.
          1   -1    0    0  501    0  0.00000000000E+00 -0.00000000000E+00 -0.22448486348E+04  0.22448486349E+04  0.50400000000E-02 0. -1.
    8880023    1    1    2    0    0  0.12393867703E+03 -0.13563743615E+03  0.31428817745E+03  0.75255934949E+03  0.65864270000E+03 0.  1.
    8880022    1    1    2    0    0 -0.12393867703E+03  0.13563743615E+03 -0.20186599814E+04  0.20327661163E+04  0.15294330000E+03 0.  0.
<mgrwt>
<rscale>  0 0.52579804E+03</rscale>
<asrwt>0</asrwt>
<pdfrwt beam="1">  1        1 0.34536132E+00 0.68378982E+03</pdfrwt>
<pdfrwt beam="2">  1       -1 0.83150283E-01 0.68378982E+03</pdfrwt>
<totfact> 0.31217409E+00</totfact>
</mgrwt>
</event>
<event>
 4    1  0.3712574E-007  0.6706442E+03  0.7818608E-02  0.1015205E+00
         -1   -1    0    0    0  501 -0.00000000000E+00  0.00000000000E+00  0.14784833972E+03  0.14784833981E+03  0.50400000000E-02 0.  1.
          1   -1    0    0  501    0  0.00000000000E+00 -0.00000000000E+00 -0.21936478555E+04  0.21936478555E+04  0.50400000000E-02 0. -1.
    8880023    1    1    2    0    0  0.12208514572E+03  0.32383596326E+02 -0.65780290002E+03  0.93939786121E+03  0.65864270000E+03 0.  1.
    8880022    1    1    2    0    0 -0.12208514572E+03 -0.32383596326E+02 -0.13879966157E+04  0.14020983341E+04  0.15294330000E+03 0.  0.
<mgrwt>
<rscale>  0 0.49457314E+03</rscale>
<asrwt>0</asrwt>
<pdfrwt beam="1">  1        1 0.33748426E+00 0.67064423E+03</pdfrwt>
<pdfrwt beam="2">  1       -1 0.22745900E-01 0.67064423E+03</pdfrwt>
<totfact> 0.38009986E+01</totfact>
</mgrwt>
</event>
<event>
 4    1  0.3712574E-007  0.6793853E+03  0.7818608E-02  0.1009674E+00
          1   -1    0    0  501    0  0.00000000000E+00  0.00000000000E+00  0.67620869044E+03  0.67620869046E+03  0.50400000000E-02 0. -1.
         -1   -1    0    0    0  501 -0.00000000000E+00 -0.00000000000E+00 -0.53138066038E+03  0.53138066040E+03  0.50400000000E-02 0.  1.
    8880023    1    1    2    0    0 -0.14053851023E+03  0.89459999793E+02 -0.27323871496E+03  0.73227301332E+03  0.65864270000E+03 0.  0.
    8880022    1    1    2    0    0  0.14053851023E+03 -0.89459999793E+02  0.41806674503E+03  0.47531633754E+03  0.15294330000E+03 0. -1.
<mgrwt>
<rscale>  0 0.51604594E+03</rscale>
<asrwt>0</asrwt>
<pdfrwt beam="1">  1        1 0.10403211E+00 0.67938529E+03</pdfrwt>
<pdfrwt beam="2">  1       -1 0.81750871E-01 0.67938529E+03</pdfrwt>
<totfact> 0.44035677E+01</totfact>
</mgrwt>
</event>
<event>
 4    1  0.3712574E-007  0.8109440E+03  0.7818608E-02  0.9687614E-01
         -1   -1    0    0    0  501 -0.00000000000E+00  0.00000000000E+00  0.68468995009E+03  0.68468995011E+03  0.50400000000E-02 0.  1.
          1   -1    0    0  501    0  0.00000000000E+00 -0.00000000000E+00 -0.71482417194E+03  0.71482417196E+03  0.50400000000E-02 0. -1.
    8880023    1    1    2    0    0 -0.29997536507E+03  0.36583439815E+03 -0.26019506229E+03  0.85166407886E+03  0.65864270000E+03 0.  0.
    8880022    1    1    2    0    0  0.29997536507E+03 -0.36583439815E+03  0.23006084044E+03  0.54785004320E+03  0.15294330000E+03 0.  0.
<mgrwt>
<rscale>  0 0.71759068E+03</rscale>
<asrwt>0</asrwt>
<pdfrwt beam="1">  1        1 0.10997295E+00 0.81094404E+03</pdfrwt>
<pdfrwt beam="2">  1       -1 0.10533692E+00 0.81094404E+03</pdfrwt>
<totfact> 0.22736605E+01</totfact>
</mgrwt>
</event>
<event>
 4    1  0.3712574E-007  0.7684622E+03  0.7818608E-02  0.9783673E-01
         -1   -1    0    0    0  501 -0.00000000000E+00  0.00000000000E+00  0.90819458113E+03  0.90819458114E+03  0.50400000000E-02 0.  1.
          1   -1    0    0  501    0  0.00000000000E+00 -0.00000000000E+00 -0.68307891009E+03  0.68307891011E+03  0.50400000000E-02 0. -1.
    8880023    1    1    2    0    0 -0.27173015127E+03 -0.28790043467E+03  0.63828402452E+03  0.99896978814E+03  0.65864270000E+03 0.  1.
    8880022    1    1    2    0    0  0.27173015127E+03  0.28790043467E+03 -0.41316835348E+03  0.59230370312E+03  0.15294330000E+03 0.  0.
<mgrwt>
<rscale>  0 0.66246173E+03</rscale>
<asrwt>0</asrwt>
<pdfrwt beam="1">  1        1 0.10508906E+00 0.76846219E+03</pdfrwt>
<pdfrwt beam="2">  1       -1 0.13972224E+00 0.76846219E+03</pdfrwt>
<totfact> 0.12236430E+01</totfact>
</mgrwt>
</event>
<event>
 4    1  0.3712574E-007  0.1460390E+04  0.7818608E-02  0.8938125E-01
         -1   -1    0    0    0  501 -0.00000000000E+00  0.00000000000E+00  0.17119949150E+04  0.17119949150E+04  0.50400000000E-02 0.  1.
          1   -1    0    0  501    0  0.00000000000E+00 -0.00000000000E+00 -0.26110138808E+04  0.26110138808E+04  0.50400000000E-02 0. -1.
    8880023    1    1    2    0    0  0.11758060932E+04  0.56250107740E+03  0.11710939775E+04  0.18719505179E+04  0.65864270000E+03 0.  0.
    8880022    1    1    2    0    0 -0.11758060932E+04 -0.56250107740E+03 -0.20701129432E+04  0.24510582779E+04  0.15294330000E+03 0.  0.
<mgrwt>
<rscale>  0 0.14218891E+04</rscale>
<asrwt>0</asrwt>
<pdfrwt beam="1">  1        1 0.40169444E+00 0.14603895E+04</pdfrwt>
<pdfrwt beam="2">  1       -1 0.26338383E+00 0.14603895E+04</pdfrwt>
<totfact> 0.61354000E-02</totfact>
</mgrwt>
</event>
<event>
 4    1  0.3712574E-007  0.6777866E+03  0.7818608E-02  0.1010604E+00
         -1   -1    0    0    0  501 -0.00000000000E+00  0.00000000000E+00  0.32993259356E+03  0.32993259360E+03  0.50400000000E-02 0.  1.
          1   -1    0    0  501    0  0.00000000000E+00 -0.00000000000E+00 -0.72452882245E+03  0.72452882247E+03  0.50400000000E-02 0. -1.
    8880023    1    1    2    0    0  0.12498288105E+03 -0.99818749571E+02 -0.98661270864E+02  0.68492974527E+03  0.65864270000E+03 0.  0.
    8880022    1    1    2    0    0 -0.12498288105E+03  0.99818749571E+02 -0.29593495803E+03  0.36953167080E+03  0.15294330000E+03 0.  0.
<mgrwt>
<rscale>  0 0.51235129E+03</rscale>
<asrwt>0</asrwt>
<pdfrwt beam="1">  1        1 0.11146597E+00 0.67778663E+03</pdfrwt>
<pdfrwt beam="2">  1       -1 0.50758861E-01 0.67778663E+03</pdfrwt>
<totfact> 0.10318757E+02</totfact>
</mgrwt>
</event>
<event>
 4    1  0.3712574E-007  0.6826630E+03  0.7818608E-02  0.1007856E+00
         -1   -1    0    0    0  501 -0.00000000000E+00  0.00000000000E+00  0.53066106991E+03  0.53066106993E+03  0.50400000000E-02 0.  1.
          1   -1    0    0  501    0  0.00000000000E+00 -0.00000000000E+00 -0.51280255878E+03  0.51280255880E+03  0.50400000000E-02 0. -1.
    8880023    1    1    2    0    0 -0.17184233428E+03 -0.51853878863E+02  0.23591758125E+03  0.72227828710E+03  0.65864270000E+03 0.  1.
    8880022    1    1    2    0    0  0.17184233428E+03  0.51853878863E+02 -0.21805907012E+03  0.32118534164E+03  0.15294330000E+03 0.  0.
<mgrwt>
<rscale>  0 0.52335835E+03</rscale>
<asrwt>0</asrwt>
<pdfrwt beam="1">  1        1 0.78892702E-01 0.68266303E+03</pdfrwt>
<pdfrwt beam="2">  1       -1 0.81640164E-01 0.68266303E+03</pdfrwt>
<totfact> 0.65561062E+01</totfact>
</mgrwt>
</event>
<event>
 4    1  0.3712574E-007  0.9254804E+03  0.7818608E-02  0.9486306E-01
         -1   -1    0    0    0  501 -0.00000000000E+00  0.00000000000E+00  0.25079876227E+04  0.25079876227E+04  0.50400000000E-02 0.  1.
          1   -1    0    0  501    0  0.00000000000E+00 -0.00000000000E+00 -0.43291144457E+03  0.43291144460E+03  0.50400000000E-02 0. -1.
    8880023    1    1    2    0    0  0.41114962284E+03 -0.50364649515E+03  0.20760516211E+04  0.22729945764E+04  0.65864270000E+03 0.  1.
    8880022    1    1    2    0    0 -0.41114962284E+03  0.50364649515E+03 -0.97544303051E+00  0.66790449089E+03  0.15294330000E+03 0.  0.
<mgrwt>
<rscale>  0 0.85300957E+03</rscale>
<asrwt>0</asrwt>
<pdfrwt beam="1">  1        1 0.66601761E-01 0.92548042E+03</pdfrwt>
<pdfrwt beam="2">  1       -1 0.38584425E+00 0.92548042E+03</pdfrwt>
<totfact> 0.49971213E-01</totfact>
</mgrwt>
</event>
<event>
 4    1  0.3712574E-007  0.6873816E+03  0.7818608E-02  0.1005423E+00
         -1   -1    0    0    0  501 -0.00000000000E+00  0.00000000000E+00  0.11781644641E+03  0.11781644652E+03  0.50400000000E-02 0.  1.
          1   -1    0    0  501    0  0.00000000000E+00 -0.00000000000E+00 -0.19945594879E+04  0.19945594879E+04  0.50400000000E-02 0. -1.
    8880023    1    1    2    0    0 -0.14537678357E+03 -0.13247183256E+03 -0.11044184474E+04  0.13008587583E+04  0.65864270000E+03 0.  0.
    8880022    1    1    2    0    0  0.14537678357E+03  0.13247183256E+03 -0.77232459406E+03  0.81151717617E+03  0.15294330000E+03 0.  0.
<mgrwt>
<rscale>  0 0.53335069E+03</rscale>
<asrwt>0</asrwt>
<pdfrwt beam="1">  1        1 0.30685528E+00 0.68738155E+03</pdfrwt>
<pdfrwt beam="2">  1       -1 0.18125609E-01 0.68738155E+03</pdfrwt>
<totfact> 0.75199227E+01</totfact>
</mgrwt>
</event>
<event>
 4    1  0.3712574E-007  0.6642574E+03  0.7818608E-02  0.1020165E+00
         -1   -1    0    0    0  501 -0.00000000000E+00  0.00000000000E+00  0.10062393165E+03  0.10062393178E+03  0.50400000000E-02 0.  1.
          1   -1    0    0  501    0  0.00000000000E+00 -0.00000000000E+00 -0.23105263015E+04  0.23105263015E+04  0.50400000000E-02 0. -1.
    8880023    1    1    2    0    0  0.71076904643E+02 -0.48742181504E+02 -0.10817297068E+04  0.12694002881E+04  0.65864270000E+03 0.  1.
    8880022    1    1    2    0    0 -0.71076904643E+02  0.48742181504E+02 -0.11281726630E+04  0.11417499452E+04  0.15294330000E+03 0.  0.
<mgrwt>
<rscale>  0 0.47627228E+03</rscale>
<asrwt>0</asrwt>
<pdfrwt beam="1">  1        1 0.35546554E+00 0.66425743E+03</pdfrwt>
<pdfrwt beam="2">  1       -1 0.15480607E-01 0.66425743E+03</pdfrwt>
<totfact> 0.60019044E+01</totfact>
</mgrwt>
</event>
<event>
 4    1  0.3712574E-007  0.8590898E+03  0.7818608E-02  0.9595185E-01
          1   -1    0    0  501    0  0.00000000000E+00  0.00000000000E+00  0.15666463209E+04  0.15666463209E+04  0.50400000000E-02 0. -1.
         -1   -1    0    0    0  501 -0.00000000000E+00 -0.00000000000E+00 -0.64693098439E+03  0.64693098441E+03  0.50400000000E-02 0.  1.
    8880023    1    1    2    0    0 -0.12750357466E+03 -0.53662646991E+03 -0.26400052638E+03  0.89873890199E+03  0.65864270000E+03 0.  1.
    8880022    1    1    2    0    0  0.12750357466E+03  0.53662646991E+03  0.11837158629E+04  0.13148384033E+04  0.15294330000E+03 0.  0.
<mgrwt>
<rscale>  0 0.77615722E+03</rscale>
<asrwt>0</asrwt>
<pdfrwt beam="1">  1        1 0.24102251E+00 0.85908983E+03</pdfrwt>
<pdfrwt beam="2">  1       -1 0.99527845E-01 0.85908983E+03</pdfrwt>
<totfact> 0.58092778E+00</totfact>
</mgrwt>
</event>
<event>
 4    1  0.3712574E-007  0.7289326E+03  0.7818608E-02  0.9893444E-01
         -1   -1    0    0    0  501 -0.00000000000E+00  0.00000000000E+00  0.25525383627E+03  0.25525383632E+03  0.50400000000E-02 0.  1.
          1   -1    0    0  501    0  0.00000000000E+00 -0.00000000000E+00 -0.12466089575E+04  0.12466089575E+04  0.50400000000E-02 0. -1.
    8880023    1    1    2    0    0 -0.30184835940E+03 -0.80125266351E+02 -0.44438114237E+03  0.85370796900E+03  0.65864270000E+03 0.  1.
    8880022    1    1    2    0    0  0.30184835940E+03  0.80125266351E+02 -0.54697397887E+03  0.64815482484E+03  0.15294330000E+03 0.  0.
<mgrwt>
<rscale>  0 0.60580053E+03</rscale>
<asrwt>0</asrwt>
<pdfrwt beam="1">  1        1 0.19178599E+00 0.72893257E+03</pdfrwt>
<pdfrwt beam="2">  1       -1 0.39269822E-01 0.72893257E+03</pdfrwt>
<totfact> 0.63885773E+01</totfact>
</mgrwt>
</event>
<event>
 4    1  0.3712574E-007  0.1272425E+04  0.7818608E-02  0.9089746E-01
          1   -1    0    0  501    0  0.00000000000E+00  0.00000000000E+00  0.14710660302E+04  0.14710660302E+04  0.50400000000E-02 0. -1.
         -1   -1    0    0    0  501 -0.00000000000E+00 -0.00000000000E+00 -0.16954277284E+04  0.16954277285E+04  0.50400000000E-02 0.  1.
    8880023    1    1    2    0    0  0.10397355918E+04 -0.32280722992E+03  0.92719815869E+03  0.15744082191E+04  0.65864270000E+03 0. -1.
    8880022    1    1    2    0    0 -0.10397355918E+04  0.32280722992E+03 -0.11515598569E+04  0.15920855396E+04  0.15294330000E+03 0.  0.
<mgrwt>
<rscale>  0 0.12267653E+04</rscale>
<asrwt>0</asrwt>
<pdfrwt beam="1">  1        1 0.22631785E+00 0.12724248E+04</pdfrwt>
<pdfrwt beam="2">  1       -1 0.26083503E+00 0.12724248E+04</pdfrwt>
<totfact> 0.39460673E-01</totfact>
</mgrwt>
</event>
<event>
 4    1  0.3712574E-007  0.8873721E+03  0.7818608E-02  0.9546615E-01
          1   -1    0    0  501    0  0.00000000000E+00  0.00000000000E+00  0.11045565016E+04  0.11045565017E+04  0.50400000000E-02 0. -1.
         -1   -1    0    0    0  501 -0.00000000000E+00 -0.00000000000E+00 -0.12828963629E+04  0.12828963629E+04  0.50400000000E-02 0.  1.
    8880023    1    1    2    0    0  0.59464213785E+03  0.44378397006E+01 -0.10159346805E+04  0.13489078723E+04  0.65864270000E+03 0.  0.
    8880022    1    1    2    0    0 -0.59464213785E+03 -0.44378397006E+01  0.83759481932E+03  0.10385449922E+04  0.15294330000E+03 0.  0.
<mgrwt>
<rscale>  0 0.80932603E+03</rscale>
<asrwt>0</asrwt>
<pdfrwt beam="1">  1        1 0.16993177E+00 0.88737206E+03</pdfrwt>
<pdfrwt beam="2">  1       -1 0.19736867E+00 0.88737206E+03</pdfrwt>
<totfact> 0.20150658E+00</totfact>
</mgrwt>
</event>
<event>
 4    1  0.3712574E-007  0.1238487E+04  0.7818608E-02  0.9120589E-01
          1   -1    0    0  501    0  0.00000000000E+00  0.00000000000E+00  0.18884138703E+04  0.18884138703E+04  0.50400000000E-02 0. -1.
         -1   -1    0    0    0  501 -0.00000000000E+00 -0.00000000000E+00 -0.10080509235E+04  0.10080509235E+04  0.50400000000E-02 0.  1.
    8880023    1    1    2    0    0 -0.27834475883E+03  0.10112191674E+04  0.12636531823E+04  0.17693698258E+04  0.65864270000E+03 0.  0.
    8880022    1    1    2    0    0  0.27834475883E+03 -0.10112191674E+04 -0.38329023542E+03  0.11270949680E+04  0.15294330000E+03 0.  0.
<mgrwt>
<rscale>  0 0.11912062E+04</rscale>
<asrwt>0</asrwt>
<pdfrwt beam="1">  1        1 0.29052521E+00 0.12384871E+04</pdfrwt>
<pdfrwt beam="2">  1       -1 0.15508476E+00 0.12384871E+04</pdfrwt>
<totfact> 0.11048327E+00</totfact>
</mgrwt>
</event>
<event>
 4    1  0.3712574E-007  0.6636095E+03  0.7818608E-02  0.1020730E+00
         -1   -1    0    0    0  501 -0.00000000000E+00  0.00000000000E+00  0.24125320858E+03  0.24125320864E+03  0.50400000000E-02 0.  1.
          1   -1    0    0  501    0  0.00000000000E+00 -0.00000000000E+00 -0.14951831184E+04  0.14951831184E+04  0.50400000000E-02 0. -1.
    8880023    1    1    2    0    0 -0.34174711029E+02 -0.73480964510E+02 -0.23666008225E+03  0.70454635320E+03  0.65864270000E+03 0.  1.
    8880022    1    1    2    0    0  0.34174711029E+02  0.73480964510E+02 -0.10172698275E+04  0.10318899738E+04  0.15294330000E+03 0.  0.
<mgrwt>
<rscale>  0 0.47424241E+03</rscale>
<asrwt>0</asrwt>
<pdfrwt beam="1">  1        1 0.23002817E+00 0.66360950E+03</pdfrwt>
<pdfrwt beam="2">  1       -1 0.37115879E-01 0.66360950E+03</pdfrwt>
<totfact> 0.47804942E+01</totfact>
</mgrwt>
</event>
<event>
 4    1  0.3712574E-007  0.8651830E+03  0.7818608E-02  0.9584410E-01
          1   -1    0    0  501    0  0.00000000000E+00  0.00000000000E+00  0.11142085943E+04  0.11142085943E+04  0.50400000000E-02 0. -1.
         -1   -1    0    0    0  501 -0.00000000000E+00 -0.00000000000E+00 -0.11946407680E+04  0.11946407680E+04  0.50400000000E-02 0.  1.
    8880023    1    1    2    0    0 -0.32354178249E+03 -0.45831439943E+03 -0.93585328221E+03  0.12745049807E+04  0.65864270000E+03 0.  0.
    8880022    1    1    2    0    0  0.32354178249E+03  0.45831439943E+03  0.85542110856E+03  0.10343443816E+04  0.15294330000E+03 0.  0.
<mgrwt>
<rscale>  0 0.78336708E+03</rscale>
<asrwt>0</asrwt>
<pdfrwt beam="1">  1        1 0.17141671E+00 0.86518297E+03</pdfrwt>
<pdfrwt beam="2">  1       -1 0.18379089E+00 0.86518297E+03</pdfrwt>
<totfact> 0.24740281E+00</totfact>
</mgrwt>
</event>
<event>
 4    1  0.3712574E-007  0.1602989E+04  0.7818608E-02  0.8840139E-01
         -1   -1    0    0    0  501 -0.00000000000E+00  0.00000000000E+00  0.75968425916E+03  0.75968425918E+03  0.50400000000E-02 0.  1.
          1   -1    0    0  501    0  0.00000000000E+00 -0.00000000000E+00 -0.42232568114E+04  0.42232568114E+04  0.50400000000E-02 0. -1.
    8880023    1    1    2    0    0 -0.14611915822E+04 -0.26125569780E+02 -0.50683521482E+03  0.16812065687E+04  0.65864270000E+03 0.  0.
    8880022    1    1    2    0    0  0.14611915822E+04  0.26125569780E+02 -0.29567373374E+04  0.33017345018E+04  0.15294330000E+03 0.  0.
<mgrwt>
<rscale>  0 0.15684959E+04</rscale>
<asrwt>0</asrwt>
<pdfrwt beam="1">  1        1 0.64973180E+00 0.16029890E+04</pdfrwt>
<pdfrwt beam="2">  1       -1 0.11687450E+00 0.16029890E+04</pdfrwt>
<totfact> 0.37991657E-02</totfact>
</mgrwt>
</event>
<event>
 4    1  0.3712574E-007  0.6746218E+03  0.7818608E-02  0.1012546E+00
          1   -1    0    0  501    0  0.00000000000E+00  0.00000000000E+00  0.67979532397E+03  0.67979532399E+03  0.50400000000E-02 0. -1.
         -1   -1    0    0    0  501 -0.00000000000E+00 -0.00000000000E+00 -0.58091643080E+03  0.58091643082E+03  0.50400000000E-02 0.  1.
    8880023    1    1    2    0    0 -0.38318299198E+02  0.14084076393E+03 -0.35331144109E+03  0.76154027701E+03  0.65864270000E+03 0.  1.
    8880022    1    1    2    0    0  0.38318299198E+02 -0.14084076393E+03  0.45219033426E+03  0.49917147780E+03  0.15294330000E+03 0.  0.
<mgrwt>
<rscale>  0 0.50475306E+03</rscale>
<asrwt>0</asrwt>
<pdfrwt beam="1">  1        1 0.10458390E+00 0.67462183E+03</pdfrwt>
<pdfrwt beam="2">  1       -1 0.89371758E-01 0.67462183E+03</pdfrwt>
<totfact> 0.36053968E+01</totfact>
</mgrwt>
</event>
<event>
 4    1  0.3712574E-007  0.7717733E+03  0.7818608E-02  0.9775529E-01
         -1   -1    0    0    0  501 -0.00000000000E+00  0.00000000000E+00  0.16208235996E+04  0.16208235996E+04  0.50400000000E-02 0.  1.
          1   -1    0    0  501    0  0.00000000000E+00 -0.00000000000E+00 -0.36631110691E+03  0.36631110694E+03  0.50400000000E-02 0. -1.
    8880023    1    1    2    0    0  0.38659872744E+03  0.11119897896E+03  0.13418786435E+04  0.15479897574E+04  0.65864270000E+03 0.  1.
    8880022    1    1    2    0    0 -0.38659872744E+03 -0.11119897896E+03 -0.87366150839E+02  0.43914494909E+03  0.15294330000E+03 0.  0.
<mgrwt>
<rscale>  0 0.66692493E+03</rscale>
<asrwt>0</asrwt>
<pdfrwt beam="1">  1        1 0.56355557E-01 0.77177328E+03</pdfrwt>
<pdfrwt beam="2">  1       -1 0.24935747E+00 0.77177328E+03</pdfrwt>
<totfact> 0.49207419E+00</totfact>
</mgrwt>
</event>
<event>
 4    1  0.3712574E-007  0.7105237E+03  0.7818608E-02  0.9956061E-01
          1   -1    0    0  501    0  0.00000000000E+00  0.00000000000E+00  0.56405849467E+03  0.56405849470E+03  0.50400000000E-02 0. -1.
         -1   -1    0    0    0  501 -0.00000000000E+00 -0.00000000000E+00 -0.53193430656E+03  0.53193430659E+03  0.50400000000E-02 0.  1.
    8880023    1    1    2    0    0  0.12169877785E+03 -0.23711430939E+03 -0.16692680727E+03  0.72986886048E+03  0.65864270000E+03 0.  1.
    8880022    1    1    2    0    0 -0.12169877785E+03  0.23711430939E+03  0.19905099538E+03  0.36612394080E+03  0.15294330000E+03 0.  0.
<mgrwt>
<rscale>  0 0.57619578E+03</rscale>
<asrwt>0</asrwt>
<pdfrwt beam="1">  1        1 0.86778230E-01 0.71052375E+03</pdfrwt>
<pdfrwt beam="2">  1       -1 0.81836047E-01 0.71052375E+03</pdfrwt>
<totfact> 0.56971987E+01</totfact>
</mgrwt>
</event>
<event>
 4    1  0.3712574E-007  0.8265844E+03  0.7818608E-02  0.9656015E-01
         -1   -1    0    0    0  501 -0.00000000000E+00  0.00000000000E+00  0.82023529494E+03  0.82023529496E+03  0.50400000000E-02 0.  1.
          1   -1    0    0  501    0  0.00000000000E+00 -0.00000000000E+00 -0.93039834888E+03  0.93039834890E+03  0.50400000000E-02 0. -1.
    8880023    1    1    2    0    0  0.25920231405E+03  0.42690241529E+03  0.48532353704E+03  0.95853046569E+03  0.65864270000E+03 0.  0.
    8880022    1    1    2    0    0 -0.25920231405E+03 -0.42690241529E+03 -0.59548659098E+03  0.79210317816E+03  0.15294330000E+03 0.  0.
<mgrwt>
<rscale>  0 0.73697125E+03</rscale>
<asrwt>0</asrwt>
<pdfrwt beam="1">  1        1 0.14313821E+00 0.82658437E+03</pdfrwt>
<pdfrwt beam="2">  1       -1 0.12619005E+00 0.82658437E+03</pdfrwt>
<totfact> 0.96001072E+00</totfact>
</mgrwt>
</event>
<event>
 4    1  0.3712574E-007  0.7532215E+03  0.7818608E-02  0.9822983E-01
         -1   -1    0    0    0  501 -0.00000000000E+00  0.00000000000E+00  0.14094614570E+04  0.14094614570E+04  0.50400000000E-02 0.  1.
          1   -1    0    0  501    0  0.00000000000E+00 -0.00000000000E+00 -0.65254570957E+03  0.65254570959E+03  0.50400000000E-02 0. -1.
    8880023    1    1    2    0    0  0.30883589771E+03 -0.19532756842E+03  0.12316460851E+04  0.14437086811E+04  0.65864270000E+03 0.  1.
    8880022    1    1    2    0    0 -0.30883589771E+03  0.19532756842E+03 -0.47473033765E+03  0.61829848552E+03  0.15294330000E+03 0.  0.
<mgrwt>
<rscale>  0 0.64143589E+03</rscale>
<asrwt>0</asrwt>
<pdfrwt beam="1">  1        1 0.10039165E+00 0.75322153E+03</pdfrwt>
<pdfrwt beam="2">  1       -1 0.21684022E+00 0.75322153E+03</pdfrwt>
<totfact> 0.36350337E+00</totfact>
</mgrwt>
</event>
<event>
 4    1  0.3712574E-007  0.1000646E+04  0.7818608E-02  0.9380713E-01
         -1   -1    0    0    0  501 -0.00000000000E+00  0.00000000000E+00  0.82850166789E+03  0.82850166790E+03  0.50400000000E-02 0.  1.
          1   -1    0    0  501    0  0.00000000000E+00 -0.00000000000E+00 -0.14767519991E+04  0.14767519992E+04  0.50400000000E-02 0. -1.
    8880023    1    1    2    0    0 -0.25794779643E+03  0.70777449700E+03 -0.10393857910E+04  0.14427802442E+04  0.65864270000E+03 0.  0.
    8880022    1    1    2    0    0  0.25794779643E+03 -0.70777449700E+03  0.39113545971E+03  0.86247342286E+03  0.15294330000E+03 0.  1.
<mgrwt>
<rscale>  0 0.93680045E+03</rscale>
<asrwt>0</asrwt>
<pdfrwt beam="1">  1        1 0.22719261E+00 0.10006458E+04</pdfrwt>
<pdfrwt beam="2">  1       -1 0.12746180E+00 0.10006458E+04</pdfrwt>
<totfact> 0.36373291E+00</totfact>
</mgrwt>
</event>
<event>
 4    1  0.3712574E-007  0.8236463E+03  0.7818608E-02  0.9661823E-01
          1   -1    0    0  501    0  0.00000000000E+00  0.00000000000E+00  0.49783629259E+03  0.49783629262E+03  0.50400000000E-02 0. -1.
         -1   -1    0    0    0  501 -0.00000000000E+00 -0.00000000000E+00 -0.15956226416E+04  0.15956226416E+04  0.50400000000E-02 0.  1.
    8880023    1    1    2    0    0 -0.18027688571E+03  0.46052506660E+03 -0.12989600531E+04  0.15380801404E+04  0.65864270000E+03 0.  1.
    8880022    1    1    2    0    0  0.18027688571E+03 -0.46052506660E+03  0.20117370402E+03  0.55537879388E+03  0.15294330000E+03 0.  0.
<mgrwt>
<rscale>  0 0.73336016E+03</rscale>
<asrwt>0</asrwt>
<pdfrwt beam="1">  1        1 0.76590200E-01 0.82364634E+03</pdfrwt>
<pdfrwt beam="2">  1       -1 0.24548040E+00 0.82364634E+03</pdfrwt>
<totfact> 0.34296442E+00</totfact>
</mgrwt>
</event>
<event>
 4    1  0.3712574E-007  0.9033450E+03  0.7818608E-02  0.9520683E-01
         -1   -1    0    0    0  501 -0.00000000000E+00  0.00000000000E+00  0.47930716246E+03  0.47930716249E+03  0.50400000000E-02 0.  1.
          1   -1    0    0  501    0  0.00000000000E+00 -0.00000000000E+00 -0.21589780429E+04  0.21589780429E+04  0.50400000000E-02 0. -1.
    8880023    1    1    2    0    0 -0.30223555431E+03  0.53932888047E+03 -0.68655362093E+02  0.90595018440E+03  0.65864270000E+03 0.  0.
    8880022    1    1    2    0    0  0.30223555431E+03 -0.53932888047E+03 -0.16110155183E+04  0.17323350210E+04  0.15294330000E+03 0.  0.
<mgrwt>
<rscale>  0 0.82775974E+03</rscale>
<asrwt>0</asrwt>
<pdfrwt beam="1">  1        1 0.33215046E+00 0.90334499E+03</pdfrwt>
<pdfrwt beam="2">  1       -1 0.73739565E-01 0.90334499E+03</pdfrwt>
<totfact> 0.44214572E+00</totfact>
</mgrwt>
</event>
<event>
 4    1  0.3712574E-007  0.8895054E+03  0.7818608E-02  0.9543093E-01
         -1   -1    0    0    0  501 -0.00000000000E+00  0.00000000000E+00  0.42348103614E+03  0.42348103617E+03  0.50400000000E-02 0.  1.
          1   -1    0    0  501    0  0.00000000000E+00 -0.00000000000E+00 -0.18582908820E+04  0.18582908820E+04  0.50400000000E-02 0. -1.
    8880023    1    1    2    0    0  0.31499679120E+03 -0.50812069479E+03 -0.21555685023E+03  0.91525110264E+03  0.65864270000E+03 0.  0.
    8880022    1    1    2    0    0 -0.31499679120E+03  0.50812069479E+03 -0.12192529956E+04  0.13665208156E+04  0.15294330000E+03 0.  0.
<mgrwt>
<rscale>  0 0.81179942E+03</rscale>
<asrwt>0</asrwt>
<pdfrwt beam="1">  1        1 0.28589090E+00 0.88950538E+03</pdfrwt>
<pdfrwt beam="2">  1       -1 0.65150930E-01 0.88950538E+03</pdfrwt>
<totfact> 0.90904881E+00</totfact>
</mgrwt>
</event>
<event>
 4    1  0.3712574E-007  0.6946107E+03  0.7818608E-02  0.1002034E+00
         -1   -1    0    0    0  501 -0.00000000000E+00  0.00000000000E+00  0.75781463024E+03  0.75781463026E+03  0.50400000000E-02 0.  1.
          1   -1    0    0  501    0  0.00000000000E+00 -0.00000000000E+00 -0.88295778261E+03  0.88295778262E+03  0.50400000000E-02 0. -1.
    8880023    1    1    2    0    0 -0.24496355963E+01  0.22060774739E+03  0.56811639507E+03  0.89735178360E+03  0.65864270000E+03 0.  1.
    8880022    1    1    2    0    0  0.24496355963E+01 -0.22060774739E+03 -0.69325954743E+03  0.74342062928E+03  0.15294330000E+03 0.  0.
<mgrwt>
<rscale>  0 0.54767380E+03</rscale>
<asrwt>0</asrwt>
<pdfrwt beam="1">  1        1 0.13583966E+00 0.69461067E+03</pdfrwt>
<pdfrwt beam="2">  1       -1 0.11658687E+00 0.69461067E+03</pdfrwt>
<totfact> 0.12956794E+01</totfact>
</mgrwt>
</event>
<event>
 4    1  0.4707339E-007  0.8198746E+03  0.7818608E-02  0.9669364E-01
         -1   -1    0    0    0  501 -0.00000000000E+00  0.00000000000E+00  0.86589789550E+03  0.86589789551E+03  0.50400000000E-02 0.  1.
          1   -1    0    0  501    0  0.00000000000E+00 -0.00000000000E+00 -0.19237934417E+04  0.19237934417E+04  0.50400000000E-02 0. -1.
    8880023    1    1    2    0    0 -0.48824605979E+03 -0.32712061151E-01  0.62487694752E+03  0.10308567416E+04  0.65864270000E+03 0.  1.
    8880022    1    1    2    0    0  0.48824605979E+03  0.32712061151E-01 -0.16827724937E+04  0.17588345956E+04  0.15294330000E+03 0.  0.
<mgrwt>
<rscale>  0 0.72870507E+03</rscale>
<asrwt>0</asrwt>
<pdfrwt beam="1">  1        1 0.29596822E+00 0.81987464E+03</pdfrwt>
<pdfrwt beam="2">  1       -1 0.13321506E+00 0.81987464E+03</pdfrwt>
<totfact> 0.16643017E+00</totfact>
</mgrwt>
</event>
<event>
 4    1  0.3712574E-007  0.7359630E+03  0.7818608E-02  0.9871867E-01
         -1   -1    0    0    0  501 -0.00000000000E+00  0.00000000000E+00  0.98568140444E+03  0.98568140445E+03  0.50400000000E-02 0.  1.
          1   -1    0    0  501    0  0.00000000000E+00 -0.00000000000E+00 -0.10519077182E+04  0.10519077182E+04  0.50400000000E-02 0. -1.
    8880023    1    1    2    0    0 -0.23134124656E+03  0.23305047719E+03  0.80700712418E+03  0.10922005320E+04  0.65864270000E+03 0.  1.
    8880022    1    1    2    0    0  0.23134124656E+03 -0.23305047719E+03 -0.87323343794E+03  0.94538859070E+03  0.15294330000E+03 0.  0.
<mgrwt>
<rscale>  0 0.61644339E+03</rscale>
<asrwt>0</asrwt>
<pdfrwt beam="1">  1        1 0.16183196E+00 0.73596298E+03</pdfrwt>
<pdfrwt beam="2">  1       -1 0.15164329E+00 0.73596298E+03</pdfrwt>
<totfact> 0.48568340E+00</totfact>
</mgrwt>
</event>
<event>
 4    1  0.3712574E-007  0.6909143E+03  0.7818608E-02  0.1003721E+00
         -1   -1    0    0    0  501 -0.00000000000E+00  0.00000000000E+00  0.57421353198E+03  0.57421353201E+03  0.50400000000E-02 0.  1.
          1   -1    0    0  501    0  0.00000000000E+00 -0.00000000000E+00 -0.44267561308E+03  0.44267561310E+03  0.50400000000E-02 0. -1.
    8880023    1    1    2    0    0 -0.11039290412E+03  0.17710386917E+03  0.24676025285E+03  0.73365741488E+03  0.65864270000E+03 0.  1.
    8880022    1    1    2    0    0  0.11039290412E+03 -0.17710386917E+03 -0.11522233394E+03  0.28323173023E+03  0.15294330000E+03 0.  0.
<mgrwt>
<rscale>  0 0.54048310E+03</rscale>
<asrwt>0</asrwt>
<pdfrwt beam="1">  1        1 0.68103941E-01 0.69091431E+03</pdfrwt>
<pdfrwt beam="2">  1       -1 0.88340542E-01 0.69091431E+03</pdfrwt>
<totfact> 0.67491883E+01</totfact>
</mgrwt>
</event>
<event>
 4    1  0.3712574E-007  0.7645875E+03  0.7818608E-02  0.9793372E-01
          1   -1    0    0  501    0  0.00000000000E+00  0.00000000000E+00  0.16563760064E+04  0.16563760064E+04  0.50400000000E-02 0. -1.
         -1   -1    0    0    0  501 -0.00000000000E+00 -0.00000000000E+00 -0.51512354578E+03  0.51512354580E+03  0.50400000000E-02 0.  1.
    8880023    1    1    2    0    0 -0.21863163843E+03 -0.32091128383E+03 -0.18034763714E+03  0.78556942525E+03  0.65864270000E+03 0.  1.
    8880022    1    1    2    0    0  0.21863163843E+03  0.32091128383E+03  0.13216000978E+04  0.13859301270E+04  0.15294330000E+03 0.  0.
<mgrwt>
<rscale>  0 0.65719429E+03</rscale>
<asrwt>0</asrwt>
<pdfrwt beam="1">  1        1 0.25482708E+00 0.76458750E+03</pdfrwt>
<pdfrwt beam="2">  1       -1 0.79249775E-01 0.76458750E+03</pdfrwt>
<totfact> 0.84431409E+00</totfact>
</mgrwt>
</event>
<event>
 4    1  0.3712574E-007  0.6765166E+03  0.7818608E-02  0.1011367E+00
          1   -1    0    0  501    0  0.00000000000E+00  0.00000000000E+00  0.45961113352E+03  0.45961113354E+03  0.50400000000E-02 0. -1.
         -1   -1    0    0    0  501 -0.00000000000E+00 -0.00000000000E+00 -0.62018271935E+03  0.62018271937E+03  0.50400000000E-02 0.  1.
    8880023    1    1    2    0    0 -0.13173738322E+03 -0.80683491676E+02 -0.37579970262E+03  0.77388641719E+03  0.65864270000E+03 0.  1.
    8880022    1    1    2    0    0  0.13173738322E+03  0.80683491676E+02  0.21522811678E+03  0.30590743573E+03  0.15294330000E+03 0.  0.
<mgrwt>
<rscale>  0 0.50934991E+03</rscale>
<asrwt>0</asrwt>
<pdfrwt beam="1">  1        1 0.70709405E-01 0.67651664E+03</pdfrwt>
<pdfrwt beam="2">  1       -1 0.95412726E-01 0.67651664E+03</pdfrwt>
<totfact> 0.54190812E+01</totfact>
</mgrwt>
</event>
<event>
 4    1  0.3712574E-007  0.1023254E+04  0.7818608E-02  0.9351747E-01
         -1   -1    0    0    0  501 -0.00000000000E+00  0.00000000000E+00  0.61537165581E+03  0.61537165583E+03  0.50400000000E-02 0.  1.
          1   -1    0    0  501    0  0.00000000000E+00 -0.00000000000E+00 -0.19073594330E+04  0.19073594330E+04  0.50400000000E-02 0. -1.
    8880023    1    1    2    0    0 -0.73805773321E+03 -0.26174311759E+03 -0.22718365150E+02  0.10235062323E+04  0.65864270000E+03 0.  0.
    8880022    1    1    2    0    0  0.73805773321E+03  0.26174311759E+03 -0.12692694121E+04  0.14992248566E+04  0.15294330000E+03 0.  0.
<mgrwt>
<rscale>  0 0.96155366E+03</rscale>
<asrwt>0</asrwt>
<pdfrwt beam="1">  1        1 0.29343991E+00 0.10232541E+04</pdfrwt>
<pdfrwt beam="2">  1       -1 0.94672563E-01 0.10232541E+04</pdfrwt>
<totfact> 0.37425078E+00</totfact>
</mgrwt>
</event>
<event>
 4    1  0.3712574E-007  0.7679010E+03  0.7818608E-02  0.9785066E-01
         -1   -1    0    0    0  501 -0.00000000000E+00  0.00000000000E+00  0.26761059854E+03  0.26761059859E+03  0.50400000000E-02 0.  1.
          1   -1    0    0  501    0  0.00000000000E+00 -0.00000000000E+00 -0.24329072413E+04  0.24329072413E+04  0.50400000000E-02 0. -1.
    8880023    1    1    2    0    0  0.10214263373E+03 -0.38135101759E+03 -0.36339744148E+03  0.84954671618E+03  0.65864270000E+03 0.  0.
    8880022    1    1    2    0    0 -0.10214263373E+03  0.38135101759E+03 -0.18018992013E+04  0.18509711237E+04  0.15294330000E+03 0.  0.
<mgrwt>
<rscale>  0 0.66170183E+03</rscale>
<asrwt>0</asrwt>
<pdfrwt beam="1">  1        1 0.37429341E+00 0.76790098E+03</pdfrwt>
<pdfrwt beam="2">  1       -1 0.41170863E-01 0.76790098E+03</pdfrwt>
<totfact> 0.91457647E+00</totfact>
</mgrwt>
</event>
<event>
 4    1  0.3712574E-007  0.9796831E+03  0.7818608E-02  0.9408635E-01
          1   -1    0    0  501    0  0.00000000000E+00  0.00000000000E+00  0.10719125428E+04  0.10719125428E+04  0.50400000000E-02 0. -1.
         -1   -1    0    0    0  501 -0.00000000000E+00 -0.00000000000E+00 -0.14970609312E+04  0.14970609312E+04  0.50400000000E-02 0.  1.
    8880023    1    1    2    0    0  0.17141355616E+03  0.70468874539E+03 -0.11646933247E+04  0.15219361294E+04  0.65864270000E+03 0.  0.
    8880022    1    1    2    0    0 -0.17141355616E+03 -0.70468874539E+03  0.73954493632E+03  0.10470373446E+04  0.15294330000E+03 0.  0.
<mgrwt>
<rscale>  0 0.91368480E+03</rscale>
<asrwt>0</asrwt>
<pdfrwt beam="1">  1        1 0.16490962E+00 0.97968313E+03</pdfrwt>
<pdfrwt beam="2">  1       -1 0.23031707E+00 0.97968313E+03</pdfrwt>
<totfact> 0.12628311E+00</totfact>
</mgrwt>
</event>
<event>
 4    1  0.3712574E-007  0.7069128E+03  0.7818608E-02  0.9969649E-01
          1   -1    0    0  501    0  0.00000000000E+00  0.00000000000E+00  0.10936393400E+04  0.10936393400E+04  0.50400000000E-02 0. -1.
         -1   -1    0    0    0  501 -0.00000000000E+00 -0.00000000000E+00 -0.36448463518E+03  0.36448463522E+03  0.50400000000E-02 0.  1.
    8880023    1    1    2    0    0  0.25673700299E+03 -0.12422919433E+01  0.41255334518E+02  0.70811555616E+03  0.65864270000E+03 0.  1.
    8880022    1    1    2    0    0 -0.25673700299E+03  0.12422919433E+01  0.68789937029E+03  0.75000841905E+03  0.15294330000E+03 0.  0.
<mgrwt>
<rscale>  0 0.57001345E+03</rscale>
<asrwt>0</asrwt>
<pdfrwt beam="1">  1        1 0.16825221E+00 0.70691275E+03</pdfrwt>
<pdfrwt beam="2">  1       -1 0.56074559E-01 0.70691275E+03</pdfrwt>
<totfact> 0.42508660E+01</totfact>
</mgrwt>
</event>
<event>
 4    1  0.3712574E-007  0.7479349E+03  0.7818608E-02  0.9837408E-01
         -1   -1    0    0    0  501 -0.00000000000E+00  0.00000000000E+00  0.23476825283E+03  0.23476825288E+03  0.50400000000E-02 0.  1.
          1   -1    0    0  501    0  0.00000000000E+00 -0.00000000000E+00 -0.15099720300E+04  0.15099720300E+04  0.50400000000E-02 0. -1.
    8880023    1    1    2    0    0  0.23434975315E+03 -0.26585082412E+03 -0.56839490993E+03  0.93940377228E+03  0.65864270000E+03 0.  1.
    8880022    1    1    2    0    0 -0.23434975315E+03  0.26585082412E+03 -0.70680886727E+03  0.80533651063E+03  0.15294330000E+03 0.  0.
<mgrwt>
<rscale>  0 0.63393075E+03</rscale>
<asrwt>0</asrwt>
<pdfrwt beam="1">  1        1 0.23230338E+00 0.74793494E+03</pdfrwt>
<pdfrwt beam="2">  1       -1 0.36118194E-01 0.74793494E+03</pdfrwt>
<totfact> 0.48558045E+01</totfact>
</mgrwt>
</event>
<event>
 4    1  0.3712574E-007  0.7476251E+03  0.7818608E-02  0.9838267E-01
          1   -1    0    0  501    0  0.00000000000E+00  0.00000000000E+00  0.16067810409E+04  0.16067810410E+04  0.50400000000E-02 0. -1.
         -1   -1    0    0    0  501 -0.00000000000E+00 -0.00000000000E+00 -0.54175067368E+03  0.54175067370E+03  0.50400000000E-02 0.  1.
    8880023    1    1    2    0    0  0.29553147695E+03 -0.19440752340E+03 -0.24204053176E+03  0.78582883906E+03  0.65864270000E+03 0.  1.
    8880022    1    1    2    0    0 -0.29553147695E+03  0.19440752340E+03  0.13070708990E+04  0.13627028756E+04  0.15294330000E+03 0.  0.
<mgrwt>
<rscale>  0 0.63348712E+03</rscale>
<asrwt>0</asrwt>
<pdfrwt beam="1">  1        1 0.24719708E+00 0.74762514E+03</pdfrwt>
<pdfrwt beam="2">  1       -1 0.83346259E-01 0.74762514E+03</pdfrwt>
<totfact> 0.82129553E+00</totfact>
</mgrwt>
</event>
<event>
 4    1  0.3712574E-007  0.7324492E+03  0.7818608E-02  0.9882514E-01
         -1   -1    0    0    0  501 -0.00000000000E+00  0.00000000000E+00  0.60073827528E+03  0.60073827531E+03  0.50400000000E-02 0.  1.
          1   -1    0    0  501    0  0.00000000000E+00 -0.00000000000E+00 -0.76461948814E+03  0.76461948816E+03  0.50400000000E-02 0. -1.
    8880023    1    1    2    0    0 -0.11408937605E+02 -0.32022105926E+03  0.29115070406E+03  0.78819453778E+03  0.65864270000E+03 0.  0.
    8880022    1    1    2    0    0  0.11408937605E+02  0.32022105926E+03 -0.45503191692E+03  0.57716322568E+03  0.15294330000E+03 0.  0.
<mgrwt>
<rscale>  0 0.61116258E+03</rscale>
<asrwt>0</asrwt>
<pdfrwt beam="1">  1        1 0.11763377E+00 0.73244925E+03</pdfrwt>
<pdfrwt beam="2">  1       -1 0.92421273E-01 0.73244925E+03</pdfrwt>
<totfact> 0.27806993E+01</totfact>
</mgrwt>
</event>
<event>
 4    1  0.3712574E-007  0.1328927E+04  0.7818608E-02  0.9040974E-01
          1   -1    0    0  501    0  0.00000000000E+00  0.00000000000E+00  0.20175583209E+04  0.20175583209E+04  0.50400000000E-02 0. -1.
         -1   -1    0    0    0  501 -0.00000000000E+00 -0.00000000000E+00 -0.82728212551E+03  0.82728212553E+03  0.50400000000E-02 0.  1.
    8880023    1    1    2    0    0 -0.10432865468E+04  0.49374969002E+03  0.25906887856E+03  0.13539433021E+04  0.65864270000E+03 0.  0.
    8880022    1    1    2    0    0  0.10432865468E+04 -0.49374969002E+03  0.93120731687E+03  0.14908971444E+04  0.15294330000E+03 0.  0.
<mgrwt>
<rscale>  0 0.12857107E+04</rscale>
<asrwt>0</asrwt>
<pdfrwt beam="1">  1        1 0.31039358E+00 0.13289266E+04</pdfrwt>
<pdfrwt beam="2">  1       -1 0.12727418E+00 0.13289266E+04</pdfrwt>
<totfact> 0.15039015E+00</totfact>
</mgrwt>
</event>
<event>
 4    1  0.3712574E-007  0.6788188E+03  0.7818608E-02  0.1010000E+00
          1   -1    0    0  501    0  0.00000000000E+00  0.00000000000E+00  0.50365433541E+03  0.50365433544E+03  0.50400000000E-02 0. -1.
         -1   -1    0    0    0  501 -0.00000000000E+00 -0.00000000000E+00 -0.59147780352E+03  0.59147780355E+03  0.50400000000E-02 0.  1.
    8880023    1    1    2    0    0 -0.44294980007E+02  0.15818575222E+03 -0.33860181291E+03  0.75858168408E+03  0.65864270000E+03 0.  0.
    8880022    1    1    2    0    0  0.44294980007E+02 -0.15818575222E+03  0.25077834479E+03  0.33655045490E+03  0.15294330000E+03 0.  0.
<mgrwt>
<rscale>  0 0.51474700E+03</rscale>
<asrwt>0</asrwt>
<pdfrwt beam="1">  1        1 0.77485282E-01 0.67881882E+03</pdfrwt>
<pdfrwt beam="2">  1       -1 0.90996585E-01 0.67881882E+03</pdfrwt>
<totfact> 0.53143389E+01</totfact>
</mgrwt>
</event>
<event>
 4    1  0.3712574E-007  0.6796033E+03  0.7818608E-02  0.1009549E+00
          1   -1    0    0  501    0  0.00000000000E+00  0.00000000000E+00  0.12555811913E+04  0.12555811914E+04  0.50400000000E-02 0. -1.
         -1   -1    0    0    0  501 -0.00000000000E+00 -0.00000000000E+00 -0.19973803206E+03  0.19973803212E+03  0.50400000000E-02 0.  1.
    8880023    1    1    2    0    0  0.65557224536E+02  0.15411895843E+03  0.46777797759E+03  0.82503142099E+03  0.65864270000E+03 0.  0.
    8880022    1    1    2    0    0 -0.65557224536E+02 -0.15411895843E+03  0.58806518169E+03  0.63028780249E+03  0.15294330000E+03 0.  0.
<mgrwt>
<rscale>  0 0.51654289E+03</rscale>
<asrwt>0</asrwt>
<pdfrwt beam="1">  1        1 0.19316634E+00 0.67960327E+03</pdfrwt>
<pdfrwt beam="2">  1       -1 0.30728928E-01 0.67960327E+03</pdfrwt>
<totfact> 0.97827372E+01</totfact>
</mgrwt>
</event>
<event>
 4    1  0.3712574E-007  0.7438716E+03  0.7818608E-02  0.9848810E-01
          1   -1    0    0  501    0  0.00000000000E+00  0.00000000000E+00  0.84210334442E+03  0.84210334444E+03  0.50400000000E-02 0. -1.
         -1   -1    0    0    0  501 -0.00000000000E+00 -0.00000000000E+00 -0.39171086135E+03  0.39171086138E+03  0.50400000000E-02 0.  1.
    8880023    1    1    2    0    0  0.34542809330E+03  0.14633794044E+02  0.16979262501E+03  0.76300357623E+03  0.65864270000E+03 0.  1.
    8880022    1    1    2    0    0 -0.34542809330E+03 -0.14633794044E+02  0.28059985807E+03  0.47081062959E+03  0.15294330000E+03 0. -1.
<mgrwt>
<rscale>  0 0.62807646E+03</rscale>
<asrwt>0</asrwt>
<pdfrwt beam="1">  1        1 0.12955436E+00 0.74387158E+03</pdfrwt>
<pdfrwt beam="2">  1       -1 0.60263210E-01 0.74387158E+03</pdfrwt>
<totfact> 0.58083647E+01</totfact>
</mgrwt>
</event>
<event>
 4    1  0.3712574E-007  0.1181707E+04  0.7818608E-02  0.9175113E-01
         -1   -1    0    0    0  501 -0.00000000000E+00  0.00000000000E+00  0.44129987919E+03  0.44129987922E+03  0.50400000000E-02 0.  1.
          1   -1    0    0  501    0  0.00000000000E+00 -0.00000000000E+00 -0.31249053487E+04  0.31249053487E+04  0.50400000000E-02 0. -1.
    8880023    1    1    2    0    0  0.70238422277E+03  0.68503822496E+03 -0.77038009680E+03  0.14106440607E+04  0.65864270000E+03 0.  0.
    8880022    1    1    2    0    0 -0.70238422277E+03 -0.68503822496E+03 -0.19132253727E+04  0.21555611672E+04  0.15294330000E+03 0.  0.
<mgrwt>
<rscale>  0 0.11314038E+04</rscale>
<asrwt>0</asrwt>
<pdfrwt beam="1">  1        1 0.48075466E+00 0.11817069E+04</pdfrwt>
<pdfrwt beam="2">  1       -1 0.67892291E-01 0.11817069E+04</pdfrwt>
<totfact> 0.10660331E+00</totfact>
</mgrwt>
</event>
<event>
 4    1  0.3712574E-007  0.7109105E+03  0.7818608E-02  0.9954635E-01
         -1   -1    0    0    0  501 -0.00000000000E+00  0.00000000000E+00  0.32142137316E+03  0.32142137320E+03  0.50400000000E-02 0.  1.
          1   -1    0    0  501    0  0.00000000000E+00 -0.00000000000E+00 -0.16722406808E+04  0.16722406808E+04  0.50400000000E-02 0. -1.
    8880023    1    1    2    0    0  0.26732654276E+03 -0.10957397260E+02 -0.11519203393E+03  0.72018258516E+03  0.65864270000E+03 0.  1.
    8880022    1    1    2    0    0 -0.26732654276E+03  0.10957397260E+02 -0.12356272737E+04  0.12734794688E+04  0.15294330000E+03 0.  0.
<mgrwt>
<rscale>  0 0.57684944E+03</rscale>
<asrwt>0</asrwt>
<pdfrwt beam="1">  1        1 0.25726779E+00 0.71091051E+03</pdfrwt>
<pdfrwt beam="2">  1       -1 0.49449443E-01 0.71091051E+03</pdfrwt>
<totfact> 0.21264906E+01</totfact>
</mgrwt>
</event>
<event>
 4    1  0.3712574E-007  0.6824073E+03  0.7818608E-02  0.1007993E+00
          1   -1    0    0  501    0  0.00000000000E+00  0.00000000000E+00  0.80683365062E+03  0.80683365064E+03  0.50400000000E-02 0. -1.
         -1   -1    0    0    0  501 -0.00000000000E+00 -0.00000000000E+00 -0.46073532521E+03  0.46073532523E+03  0.50400000000E-02 0.  1.
    8880023    1    1    2    0    0 -0.12567098126E+03  0.12679220743E+03 -0.16755700032E+03  0.70267703393E+03  0.65864270000E+03 0.  1.
    8880022    1    1    2    0    0  0.12567098126E+03 -0.12679220743E+03  0.51365532573E+03  0.56489194194E+03  0.15294330000E+03 0.  0.
<mgrwt>
<rscale>  0 0.52279952E+03</rscale>
<asrwt>0</asrwt>
<pdfrwt beam="1">  1        1 0.12412825E+00 0.68240726E+03</pdfrwt>
<pdfrwt beam="2">  1       -1 0.70882358E-01 0.68240726E+03</pdfrwt>
<totfact> 0.45184306E+01</totfact>
</mgrwt>
</event>
<event>
 4    1  0.3712574E-007  0.8822500E+03  0.7818608E-02  0.9555149E-01
         -1   -1    0    0    0  501 -0.00000000000E+00  0.00000000000E+00  0.24707430766E+03  0.24707430771E+03  0.50400000000E-02 0.  1.
          1   -1    0    0  501    0  0.00000000000E+00 -0.00000000000E+00 -0.37942527192E+04  0.37942527192E+04  0.50400000000E-02 0. -1.
    8880023    1    1    2    0    0  0.54663255360E+03  0.21388724534E+03 -0.68878796115E+03  0.11192827900E+04  0.65864270000E+03 0.  1.
    8880022    1    1    2    0    0 -0.54663255360E+03 -0.21388724534E+03 -0.28583904504E+04  0.29220442368E+04  0.15294330000E+03 0.  0.
<mgrwt>
<rscale>  0 0.80337230E+03</rscale>
<asrwt>0</asrwt>
<pdfrwt beam="1">  1        1 0.58373115E+00 0.88225003E+03</pdfrwt>
<pdfrwt beam="2">  1       -1 0.38011435E-01 0.88225003E+03</pdfrwt>
<totfact> 0.10297741E+00</totfact>
</mgrwt>
</event>
<event>
 4    1  0.3712574E-007  0.7140876E+03  0.7818608E-02  0.9943124E-01
         -1   -1    0    0    0  501 -0.00000000000E+00  0.00000000000E+00  0.53774694645E+03  0.53774694647E+03  0.50400000000E-02 0.  1.
          1   -1    0    0  501    0  0.00000000000E+00 -0.00000000000E+00 -0.14065558365E+04  0.14065558365E+04  0.50400000000E-02 0. -1.
    8880023    1    1    2    0    0 -0.22388786955E+03 -0.16119912550E+03  0.26938254691E+03  0.76320907950E+03  0.65864270000E+03 0.  1.
    8880022    1    1    2    0    0  0.22388786955E+03  0.16119912550E+03 -0.11381914370E+04  0.11810937035E+04  0.15294330000E+03 0.  0.
<mgrwt>
<rscale>  0 0.58216076E+03</rscale>
<asrwt>0</asrwt>
<pdfrwt beam="1">  1        1 0.21639320E+00 0.71408763E+03</pdfrwt>
<pdfrwt beam="2">  1       -1 0.82730300E-01 0.71408763E+03</pdfrwt>
<totfact> 0.11498305E+01</totfact>
</mgrwt>
</event>
<event>
 4    1  0.3712574E-007  0.1066746E+04  0.7818608E-02  0.9299016E-01
         -1   -1    0    0    0  501 -0.00000000000E+00  0.00000000000E+00  0.96241697574E+03  0.96241697576E+03  0.50400000000E-02 0.  1.
          1   -1    0    0  501    0  0.00000000000E+00 -0.00000000000E+00 -0.14096680894E+04  0.14096680894E+04  0.50400000000E-02 0. -1.
    8880023    1    1    2    0    0  0.31310806685E+03 -0.77852496354E+03 -0.90958421517E+03  0.14018885231E+04  0.65864270000E+03 0.  0.
    8880022    1    1    2    0    0 -0.31310806685E+03  0.77852496354E+03  0.46233310156E+03  0.97019654204E+03  0.15294330000E+03 0.  0.
<mgrwt>
<rscale>  0 0.10087353E+04</rscale>
<asrwt>0</asrwt>
<pdfrwt beam="1">  1        1 0.21687201E+00 0.10667464E+04</pdfrwt>
<pdfrwt beam="2">  1       -1 0.14806415E+00 0.10667464E+04</pdfrwt>
<totfact> 0.27226285E+00</totfact>
</mgrwt>
</event>
<event>
 4    1  0.3712574E-007  0.8513406E+03  0.7818608E-02  0.9609156E-01
          1   -1    0    0  501    0  0.00000000000E+00  0.00000000000E+00  0.29704749848E+04  0.29704749849E+04  0.50400000000E-02 0. -1.
         -1   -1    0    0    0  501 -0.00000000000E+00 -0.00000000000E+00 -0.48292616419E+03  0.48292616422E+03  0.50400000000E-02 0.  1.
    8880023    1    1    2    0    0 -0.29936683285E+03 -0.44872055892E+03 -0.51776496603E+02  0.85291362545E+03  0.65864270000E+03 0.  1.
    8880022    1    1    2    0    0  0.29936683285E+03  0.44872055892E+03  0.25393253173E+04  0.26004875236E+04  0.15294330000E+03 0.  0.
<mgrwt>
<rscale>  0 0.76693105E+03</rscale>
<asrwt>0</asrwt>
<pdfrwt beam="1">  1        1 0.45699616E+00 0.85134062E+03</pdfrwt>
<pdfrwt beam="2">  1       -1 0.74296332E-01 0.85134062E+03</pdfrwt>
<totfact> 0.12080719E+00</totfact>
</mgrwt>
</event>
<event>
 4    1  0.3712574E-007  0.9126099E+03  0.7818608E-02  0.9506084E-01
          1   -1    0    0  501    0  0.00000000000E+00  0.00000000000E+00  0.55227741537E+03  0.55227741539E+03  0.50400000000E-02 0. -1.
         -1   -1    0    0    0  501 -0.00000000000E+00 -0.00000000000E+00 -0.16018333643E+04  0.16018333643E+04  0.50400000000E-02 0.  1.
    8880023    1    1    2    0    0 -0.35556714114E+03 -0.52212890440E+03 -0.11794613161E+04  0.14913033853E+04  0.65864270000E+03 0.  0.
    8880022    1    1    2    0    0  0.35556714114E+03  0.52212890440E+03  0.12990536712E+03  0.66280739441E+03  0.15294330000E+03 0.  0.
<mgrwt>
<rscale>  0 0.83836720E+03</rscale>
<asrwt>0</asrwt>
<pdfrwt beam="1">  1        1 0.84965757E-01 0.91260988E+03</pdfrwt>
<pdfrwt beam="2">  1       -1 0.24643590E+00 0.91260988E+03</pdfrwt>
<totfact> 0.28907100E+00</totfact>
</mgrwt>
</event>
<event>
 4    1  0.3712574E-007  0.7171167E+03  0.7818608E-02  0.9932465E-01
          1   -1    0    0  501    0  0.00000000000E+00  0.00000000000E+00  0.32412028097E+03  0.32412028101E+03  0.50400000000E-02 0. -1.
         -1   -1    0    0    0  501 -0.00000000000E+00 -0.00000000000E+00 -0.85131823009E+03  0.85131823010E+03  0.50400000000E-02 0.  1.
    8880023    1    1    2    0    0  0.28173635112E+03 -0.32723591013E+02 -0.28221975225E+03  0.77065193166E+03  0.65864270000E+03 0.  0.
    8880022    1    1    2    0    0 -0.28173635112E+03  0.32723591013E+02 -0.24497819686E+03  0.40478657945E+03  0.15294330000E+03 0. -1.
<mgrwt>
<rscale>  0 0.58713350E+03</rscale>
<asrwt>0</asrwt>
<pdfrwt beam="1">  1        1 0.49864659E-01 0.71711673E+03</pdfrwt>
<pdfrwt beam="2">  1       -1 0.13097203E+00 0.71711673E+03</pdfrwt>
<totfact> 0.40387563E+01</totfact>
</mgrwt>
</event>
<event>
 4    1  0.3712574E-007  0.6675249E+03  0.7818608E-02  0.1017503E+00
         -1   -1    0    0    0  501 -0.00000000000E+00  0.00000000000E+00  0.15940997943E+03  0.15940997951E+03  0.50400000000E-02 0.  1.
          1   -1    0    0  501    0  0.00000000000E+00 -0.00000000000E+00 -0.12886955067E+04  0.12886955067E+04  0.50400000000E-02 0. -1.
    8880023    1    1    2    0    0  0.10810079627E+03 -0.96678991191E+01 -0.64272038872E+03  0.92664931596E+03  0.65864270000E+03 0.  1.
    8880022    1    1    2    0    0 -0.10810079627E+03  0.96678991191E+01 -0.48656513856E+03  0.52145617026E+03  0.15294330000E+03 0.  0.
<mgrwt>
<rscale>  0 0.48598574E+03</rscale>
<asrwt>0</asrwt>
<pdfrwt beam="1">  1        1 0.19826084E+00 0.66752487E+03</pdfrwt>
<pdfrwt beam="2">  1       -1 0.24524613E-01 0.66752487E+03</pdfrwt>
<totfact> 0.13678360E+02</totfact>
</mgrwt>
</event>
<event>
 4    1  0.3712574E-007  0.7390960E+03  0.7818608E-02  0.9862588E-01
         -1   -1    0    0    0  501 -0.00000000000E+00  0.00000000000E+00  0.69907507179E+03  0.69907507180E+03  0.50400000000E-02 0.  1.
          1   -1    0    0  501    0  0.00000000000E+00 -0.00000000000E+00 -0.50310409988E+03  0.50310409990E+03  0.50400000000E-02 0. -1.
    8880023    1    1    2    0    0 -0.22173971245E+03  0.25156360420E+03  0.33076453901E+03  0.80973337190E+03  0.65864270000E+03 0.  1.
    8880022    1    1    2    0    0  0.22173971245E+03 -0.25156360420E+03 -0.13479356710E+03  0.39244579981E+03  0.15294330000E+03 0. -1.
<mgrwt>
<rscale>  0 0.62109191E+03</rscale>
<asrwt>0</asrwt>
<pdfrwt beam="1">  1        1 0.77400631E-01 0.73909604E+03</pdfrwt>
<pdfrwt beam="2">  1       -1 0.10755001E+00 0.73909604E+03</pdfrwt>
<totfact> 0.36216415E+01</totfact>
</mgrwt>
</event>
<event>
 4    1  0.3712574E-007  0.6951115E+03  0.7818608E-02  0.1001812E+00
         -1   -1    0    0    0  501 -0.00000000000E+00  0.00000000000E+00  0.13479348627E+03  0.13479348637E+03  0.50400000000E-02 0.  1.
          1   -1    0    0  501    0  0.00000000000E+00 -0.00000000000E+00 -0.27115853362E+04  0.27115853362E+04  0.50400000000E-02 0. -1.
    8880023    1    1    2    0    0 -0.28225524560E+02  0.22039307961E+03 -0.84715100931E+03  0.10958306569E+04  0.65864270000E+03 0.  1.
    8880022    1    1    2    0    0  0.28225524560E+02 -0.22039307961E+03 -0.17296408407E+04  0.17505481657E+04  0.15294330000E+03 0.  0.
<mgrwt>
<rscale>  0 0.54862869E+03</rscale>
<asrwt>0</asrwt>
<pdfrwt beam="1">  1        1 0.41716694E+00 0.69511150E+03</pdfrwt>
<pdfrwt beam="2">  1       -1 0.20737461E-01 0.69511150E+03</pdfrwt>
<totfact> 0.19657695E+01</totfact>
</mgrwt>
</event>
<event>
 4    1  0.3712574E-007  0.7891307E+03  0.7818608E-02  0.9734810E-01
          1   -1    0    0  501    0  0.00000000000E+00  0.00000000000E+00  0.29273682475E+04  0.29273682475E+04  0.50400000000E-02 0. -1.
         -1   -1    0    0    0  501 -0.00000000000E+00 -0.00000000000E+00 -0.33007212617E+03  0.33007212621E+03  0.50400000000E-02 0.  1.
    8880023    1    1    2    0    0 -0.41435303995E+03  0.13125758578E+03  0.19704045139E+03  0.81335855641E+03  0.65864270000E+03 0.  0.
    8880022    1    1    2    0    0  0.41435303995E+03 -0.13125758578E+03  0.24002556700E+04  0.24440818173E+04  0.15294330000E+03 0.  0.
<mgrwt>
<rscale>  0 0.68981502E+03</rscale>
<asrwt>0</asrwt>
<pdfrwt beam="1">  1        1 0.45036432E+00 0.78913066E+03</pdfrwt>
<pdfrwt beam="2">  1       -1 0.50780330E-01 0.78913066E+03</pdfrwt>
<totfact> 0.27957306E+00</totfact>
</mgrwt>
</event>
<event>
 4    1  0.3712574E-007  0.7162764E+03  0.7818608E-02  0.9935393E-01
         -1   -1    0    0    0  501 -0.00000000000E+00  0.00000000000E+00  0.47712780796E+03  0.47712780798E+03  0.50400000000E-02 0.  1.
          1   -1    0    0  501    0  0.00000000000E+00 -0.00000000000E+00 -0.10163624777E+04  0.10163624777E+04  0.50400000000E-02 0. -1.
    8880023    1    1    2    0    0 -0.25637812279E+03 -0.11624090470E+03  0.15146012701E+03  0.73211479026E+03  0.65864270000E+03 0.  1.
    8880022    1    1    2    0    0  0.25637812279E+03  0.11624090470E+03 -0.69069479674E+03  0.76137549543E+03  0.15294330000E+03 0.  0.
<mgrwt>
<rscale>  0 0.58576247E+03</rscale>
<asrwt>0</asrwt>
<pdfrwt beam="1">  1        1 0.15636346E+00 0.71627641E+03</pdfrwt>
<pdfrwt beam="2">  1       -1 0.73404278E-01 0.71627641E+03</pdfrwt>
<totfact> 0.28341578E+01</totfact>
</mgrwt>
</event>
<event>
 4    1  0.3712574E-007  0.7014121E+03  0.7818608E-02  0.9991393E-01
         -1   -1    0    0    0  501 -0.00000000000E+00  0.00000000000E+00  0.31582750533E+03  0.31582750537E+03  0.50400000000E-02 0.  1.
          1   -1    0    0  501    0  0.00000000000E+00 -0.00000000000E+00 -0.95335895882E+03  0.95335895883E+03  0.50400000000E-02 0. -1.
    8880023    1    1    2    0    0  0.10979796392E+03  0.21473953745E+03 -0.17062973778E+03  0.72186797651E+03  0.65864270000E+03 0.  1.
    8880022    1    1    2    0    0 -0.10979796392E+03 -0.21473953745E+03 -0.46690171571E+03  0.54731848770E+03  0.15294330000E+03 0.  0.
<mgrwt>
<rscale>  0 0.56029246E+03</rscale>
<asrwt>0</asrwt>
<pdfrwt beam="1">  1        1 0.14667061E+00 0.70141205E+03</pdfrwt>
<pdfrwt beam="2">  1       -1 0.48588847E-01 0.70141205E+03</pdfrwt>
<totfact> 0.71631952E+01</totfact>
</mgrwt>
</event>
<event>
 4    1  0.3712574E-007  0.1424068E+04  0.7818608E-02  0.8965204E-01
         -1   -1    0    0    0  501 -0.00000000000E+00  0.00000000000E+00  0.29408244882E+04  0.29408244882E+04  0.50400000000E-02 0.  1.
          1   -1    0    0  501    0  0.00000000000E+00 -0.00000000000E+00 -0.24616321957E+04  0.24616321957E+04  0.50400000000E-02 0. -1.
    8880023    1    1    2    0    0  0.57458477577E+03 -0.11242823866E+04 -0.20938619479E+04  0.25322374716E+04  0.65864270000E+03 0.  0.
    8880022    1    1    2    0    0 -0.57458477577E+03  0.11242823866E+04  0.25730542404E+04  0.28702192123E+04  0.15294330000E+03 0.  0.
<mgrwt>
<rscale>  0 0.13843796E+04</rscale>
<asrwt>0</asrwt>
<pdfrwt beam="1">  1        1 0.37871264E+00 0.14240677E+04</pdfrwt>
<pdfrwt beam="2">  1       -1 0.45243454E+00 0.14240677E+04</pdfrwt>
<totfact> 0.42809533E-03</totfact>
</mgrwt>
</event>
<event>
 4    1  0.3712574E-007  0.7014521E+03  0.7818608E-02  0.9991230E-01
          1   -1    0    0  501    0  0.00000000000E+00  0.00000000000E+00  0.37342047342E+04  0.37342047342E+04  0.50400000000E-02 0. -1.
         -1   -1    0    0    0  501 -0.00000000000E+00 -0.00000000000E+00 -0.19794268326E+03  0.19794268333E+03  0.50400000000E-02 0.  1.
    8880023    1    1    2    0    0 -0.35641528223E+02 -0.23865136487E+03  0.45153063755E+03  0.83421514935E+03  0.65864270000E+03 0.  1.
    8880022    1    1    2    0    0  0.35641528223E+02  0.23865136487E+03  0.30847314134E+04  0.30979322682E+04  0.15294330000E+03 0.  0.
<mgrwt>
<rscale>  0 0.56036462E+03</rscale>
<asrwt>0</asrwt>
<pdfrwt beam="1">  1        1 0.57449300E+00 0.70145206E+03</pdfrwt>
<pdfrwt beam="2">  1       -1 0.30452722E-01 0.70145206E+03</pdfrwt>
<totfact> 0.17751771E+00</totfact>
</mgrwt>
</event>
<event>
 4    1  0.3712574E-007  0.7316223E+03  0.7818608E-02  0.9885059E-01
          1   -1    0    0  501    0  0.00000000000E+00  0.00000000000E+00  0.80362828327E+03  0.80362828329E+03  0.50400000000E-02 0. -1.
         -1   -1    0    0    0  501 -0.00000000000E+00 -0.00000000000E+00 -0.37369201857E+03  0.37369201861E+03  0.50400000000E-02 0.  1.
    8880023    1    1    2    0    0 -0.24696436367E+03 -0.20117041032E+03  0.21018454861E+03  0.76121526630E+03  0.65864270000E+03 0.  0.
    8880022    1    1    2    0    0  0.24696436367E+03  0.20117041032E+03  0.21975171609E+03  0.41610503560E+03  0.15294330000E+03 0. -1.
<mgrwt>
<rscale>  0 0.60990877E+03</rscale>
<asrwt>0</asrwt>
<pdfrwt beam="1">  1        1 0.12363512E+00 0.73162226E+03</pdfrwt>
<pdfrwt beam="2">  1       -1 0.57491080E-01 0.73162226E+03</pdfrwt>
<totfact> 0.68777882E+01</totfact>
</mgrwt>
</event>
<event>
 4    1  0.3712574E-007  0.7405959E+03  0.7818608E-02  0.9858215E-01
         -1   -1    0    0    0  501 -0.00000000000E+00  0.00000000000E+00  0.31171562712E+03  0.31171562716E+03  0.50400000000E-02 0.  1.
          1   -1    0    0  501    0  0.00000000000E+00 -0.00000000000E+00 -0.30834506428E+04  0.30834506428E+04  0.50400000000E-02 0. -1.
    8880023    1    1    2    0    0  0.28581981219E+03  0.18160139621E+03 -0.16070643282E+03  0.75783164091E+03  0.65864270000E+03 0.  1.
    8880022    1    1    2    0    0 -0.28581981219E+03 -0.18160139621E+03 -0.26110285828E+04  0.26373346290E+04  0.15294330000E+03 0.  0.
<mgrwt>
<rscale>  0 0.62329823E+03</rscale>
<asrwt>0</asrwt>
<pdfrwt beam="1">  1        1 0.47437700E+00 0.74059587E+03</pdfrwt>
<pdfrwt beam="2">  1       -1 0.47956252E-01 0.74059587E+03</pdfrwt>
<totfact> 0.24295190E+00</totfact>
</mgrwt>
</event>
<event>
 4    1  0.3712574E-007  0.6989045E+03  0.7818608E-02  0.1000178E+00
          1   -1    0    0  501    0  0.00000000000E+00  0.00000000000E+00  0.54812017127E+03  0.54812017129E+03  0.50400000000E-02 0. -1.
         -1   -1    0    0    0  501 -0.00000000000E+00 -0.00000000000E+00 -0.61855937368E+03  0.61855937370E+03  0.50400000000E-02 0.  1.
    8880023    1    1    2    0    0 -0.23350289905E+03  0.11563922769E+02 -0.34109899240E+03  0.77769920731E+03  0.65864270000E+03 0.  1.
    8880022    1    1    2    0    0  0.23350289905E+03 -0.11563922769E+02  0.27065978999E+03  0.38898033768E+03  0.15294330000E+03 0.  0.
<mgrwt>
<rscale>  0 0.55572418E+03</rscale>
<asrwt>0</asrwt>
<pdfrwt beam="1">  1        1 0.84326180E-01 0.69890452E+03</pdfrwt>
<pdfrwt beam="2">  1       -1 0.95162981E-01 0.69890452E+03</pdfrwt>
<totfact> 0.42708198E+01</totfact>
</mgrwt>
</event>
<event>
 4    1  0.3712574E-007  0.6611634E+03  0.7818608E-02  0.1022995E+00
          1   -1    0    0  501    0  0.00000000000E+00  0.00000000000E+00  0.19086331721E+04  0.19086331721E+04  0.50400000000E-02 0. -1.
         -1   -1    0    0    0  501 -0.00000000000E+00 -0.00000000000E+00 -0.20706115674E+03  0.20706115680E+03  0.50400000000E-02 0.  1.
    8880023    1    1    2    0    0 -0.33065246874E+02 -0.47260502921E+02  0.33835418041E+03  0.74271166906E+03  0.65864270000E+03 0.  1.
    8880022    1    1    2    0    0  0.33065246874E+02  0.47260502921E+02  0.13632178349E+04  0.13729826598E+04  0.15294330000E+03 0.  0.
<mgrwt>
<rscale>  0 0.46621169E+03</rscale>
<asrwt>0</asrwt>
<pdfrwt beam="1">  1        1 0.29363587E+00 0.66116342E+03</pdfrwt>
<pdfrwt beam="2">  1       -1 0.31855563E-01 0.66116342E+03</pdfrwt>
<totfact> 0.33070434E+01</totfact>
</mgrwt>
</event>
<event>
 4    1  0.3712574E-007  0.8980050E+03  0.7818608E-02  0.9529242E-01
          1   -1    0    0  501    0  0.00000000000E+00  0.00000000000E+00  0.31855615827E+04  0.31855615827E+04  0.50400000000E-02 0. -1.
         -1   -1    0    0    0  501 -0.00000000000E+00 -0.00000000000E+00 -0.63639724577E+03  0.63639724579E+03  0.50400000000E-02 0.  1.
    8880023    1    1    2    0    0 -0.13901424471E+03  0.59437175309E+03 -0.26659228999E+03  0.93674137116E+03  0.65864270000E+03 0.  1.
    8880022    1    1    2    0    0  0.13901424471E+03 -0.59437175309E+03  0.28157566269E+04  0.28852174573E+04  0.15294330000E+03 0.  0.
<mgrwt>
<rscale>  0 0.82161846E+03</rscale>
<asrwt>0</asrwt>
<pdfrwt beam="1">  1        1 0.49008639E+00 0.89800498E+03</pdfrwt>
<pdfrwt beam="2">  1       -1 0.97907270E-01 0.89800498E+03</pdfrwt>
<totfact> 0.45866483E-01</totfact>
</mgrwt>
</event>
<event>
 4    1  0.3712574E-007  0.6960394E+03  0.7818608E-02  0.1001405E+00
         -1   -1    0    0    0  501 -0.00000000000E+00  0.00000000000E+00  0.21192052285E+03  0.21192052291E+03  0.50400000000E-02 0.  1.
          1   -1    0    0  501    0  0.00000000000E+00 -0.00000000000E+00 -0.14786456616E+04  0.14786456616E+04  0.50400000000E-02 0. -1.
    8880023    1    1    2    0    0  0.20600276394E+03 -0.90683462455E+02 -0.12336187224E+04  0.14164342510E+04  0.65864270000E+03 0. -1.
    8880022    1    1    2    0    0 -0.20600276394E+03  0.90683462455E+02 -0.33106416372E+02  0.27413193345E+03  0.15294330000E+03 0.  0.
<mgrwt>
<rscale>  0 0.55038637E+03</rscale>
<asrwt>0</asrwt>
<pdfrwt beam="1">  1        1 0.22748394E+00 0.69603939E+03</pdfrwt>
<pdfrwt beam="2">  1       -1 0.32603158E-01 0.69603939E+03</pdfrwt>
<totfact> 0.61535184E+01</totfact>
</mgrwt>
</event>
<event>
 4    1  0.3712574E-007  0.7251780E+03  0.7818608E-02  0.9905439E-01
          1   -1    0    0  501    0  0.00000000000E+00  0.00000000000E+00  0.74818097224E+03  0.74818097226E+03  0.50400000000E-02 0. -1.
         -1   -1    0    0    0  501 -0.00000000000E+00 -0.00000000000E+00 -0.51130475702E+03  0.51130475705E+03  0.50400000000E-02 0.  1.
    8880023    1    1    2    0    0 -0.10519266325E+03  0.28461810742E+03 -0.15421682858E+03  0.74139463173E+03  0.65864270000E+03 0.  1.
    8880022    1    1    2    0    0  0.10519266325E+03 -0.28461810742E+03  0.39109304380E+03  0.51809109758E+03  0.15294330000E+03 0.  0.
<mgrwt>
<rscale>  0 0.59998389E+03</rscale>
<asrwt>0</asrwt>
<pdfrwt beam="1">  1        1 0.11510476E+00 0.72517803E+03</pdfrwt>
<pdfrwt beam="2">  1       -1 0.78662271E-01 0.72517803E+03</pdfrwt>
<totfact> 0.40791730E+01</totfact>
</mgrwt>
</event>
<event>
 4    1  0.3712574E-007  0.1207317E+04  0.7818608E-02  0.9150042E-01
          1   -1    0    0  501    0  0.00000000000E+00  0.00000000000E+00  0.12917760783E+04  0.12917760783E+04  0.50400000000E-02 0. -1.
         -1   -1    0    0    0  501 -0.00000000000E+00 -0.00000000000E+00 -0.11542639938E+04  0.11542639938E+04  0.50400000000E-02 0.  1.
    8880023    1    1    2    0    0 -0.16208060995E+03 -0.99876645999E+03 -0.42298489117E+03  0.12792697097E+04  0.65864270000E+03 0.  0.
    8880022    1    1    2    0    0  0.16208060995E+03  0.99876645999E+03  0.56049697567E+03  0.11667703624E+04  0.15294330000E+03 0.  0.
<mgrwt>
<rscale>  0 0.11584293E+04</rscale>
<asrwt>0</asrwt>
<pdfrwt beam="1">  1        1 0.19873478E+00 0.12073172E+04</pdfrwt>
<pdfrwt beam="2">  1       -1 0.17757908E+00 0.12073172E+04</pdfrwt>
<totfact> 0.19455093E+00</totfact>
</mgrwt>
</event>
<event>
 4    1  0.3712574E-007  0.7584514E+03  0.7818608E-02  0.9809133E-01
          1   -1    0    0  501    0  0.00000000000E+00  0.00000000000E+00  0.58212013291E+03  0.58212013293E+03  0.50400000000E-02 0. -1.
         -1   -1    0    0    0  501 -0.00000000000E+00 -0.00000000000E+00 -0.97707388821E+03  0.97707388822E+03  0.50400000000E-02 0.  1.
    8880023    1    1    2    0    0  0.36607563099E+03 -0.86179728639E+02 -0.71490964023E+03  0.10422784240E+04  0.65864270000E+03 0.  1.
    8880022    1    1    2    0    0 -0.36607563099E+03  0.86179728639E+02  0.31995588493E+03  0.51691559713E+03  0.15294330000E+03 0.  0.
<mgrwt>
<rscale>  0 0.64874696E+03</rscale>
<asrwt>0</asrwt>
<pdfrwt beam="1">  1        1 0.89556943E-01 0.75845140E+03</pdfrwt>
<pdfrwt beam="2">  1       -1 0.15031906E+00 0.75845140E+03</pdfrwt>
<totfact> 0.12756966E+01</totfact>
</mgrwt>
</event>
<event>
 4    1  0.3712574E-007  0.1237822E+04  0.7818608E-02  0.9121206E-01
          1   -1    0    0  501    0  0.00000000000E+00  0.00000000000E+00  0.16727154667E+04  0.16727154667E+04  0.50400000000E-02 0. -1.
         -1   -1    0    0    0  501 -0.00000000000E+00 -0.00000000000E+00 -0.91156427605E+03  0.91156427607E+03  0.50400000000E-02 0.  1.
    8880023    1    1    2    0    0 -0.10410591848E+04  0.12078056607E+03  0.87962243089E+03  0.15185315271E+04  0.65864270000E+03 0.  0.
    8880022    1    1    2    0    0  0.10410591848E+04 -0.12078056607E+03 -0.11847124027E+03  0.10657482157E+04  0.15294330000E+03 0.  0.
<mgrwt>
<rscale>  0 0.11905077E+04</rscale>
<asrwt>0</asrwt>
<pdfrwt beam="1">  1        1 0.25734084E+00 0.12378216E+04</pdfrwt>
<pdfrwt beam="2">  1       -1 0.14024066E+00 0.12378216E+04</pdfrwt>
<totfact> 0.20295653E+00</totfact>
</mgrwt>
</event>
<event>
 4    1  0.3712574E-007  0.6741009E+03  0.7818608E-02  0.1012879E+00
          1   -1    0    0  501    0  0.00000000000E+00  0.00000000000E+00  0.12447260542E+04  0.12447260542E+04  0.50400000000E-02 0. -1.
         -1   -1    0    0    0  501 -0.00000000000E+00 -0.00000000000E+00 -0.15789334942E+03  0.15789334950E+03  0.50400000000E-02 0.  1.
    8880023    1    1    2    0    0 -0.76078566848E+02 -0.12171237575E+03  0.77971080527E+03  0.10307089778E+04  0.65864270000E+03 0.  1.
    8880022    1    1    2    0    0  0.76078566848E+02  0.12171237575E+03  0.30712189950E+03  0.37191042592E+03  0.15294330000E+03 0. -1.
<mgrwt>
<rscale>  0 0.50346265E+03</rscale>
<asrwt>0</asrwt>
<pdfrwt beam="1">  1        1 0.19149631E+00 0.67410092E+03</pdfrwt>
<pdfrwt beam="2">  1       -1 0.24291285E-01 0.67410092E+03</pdfrwt>
<totfact> 0.14929632E+02</totfact>
</mgrwt>
</event>
<event>
 4    1  0.3712574E-007  0.7724755E+03  0.7818608E-02  0.9773819E-01
          1   -1    0    0  501    0  0.00000000000E+00  0.00000000000E+00  0.18537047830E+04  0.18537047830E+04  0.50400000000E-02 0. -1.
         -1   -1    0    0    0  501 -0.00000000000E+00 -0.00000000000E+00 -0.50542792613E+03  0.50542792616E+03  0.50400000000E-02 0.  1.
    8880023    1    1    2    0    0 -0.39210143511E+03 -0.95731814296E+02 -0.16123631000E+03  0.78912322841E+03  0.65864270000E+03 0.  0.
    8880022    1    1    2    0    0  0.39210143511E+03  0.95731814296E+02  0.15095131669E+04  0.15700094807E+04  0.15294330000E+03 0.  0.
<mgrwt>
<rscale>  0 0.66786711E+03</rscale>
<asrwt>0</asrwt>
<pdfrwt beam="1">  1        1 0.28518536E+00 0.77247545E+03</pdfrwt>
<pdfrwt beam="2">  1       -1 0.77758141E-01 0.77247545E+03</pdfrwt>
<totfact> 0.64685779E+00</totfact>
</mgrwt>
</event>
<event>
 4    1  0.3712574E-007  0.9109643E+03  0.7818608E-02  0.9508655E-01
         -1   -1    0    0    0  501 -0.00000000000E+00  0.00000000000E+00  0.58897991581E+03  0.58897991583E+03  0.50400000000E-02 0.  1.
          1   -1    0    0  501    0  0.00000000000E+00 -0.00000000000E+00 -0.21590905135E+04  0.21590905135E+04  0.50400000000E-02 0. -1.
    8880023    1    1    2    0    0 -0.23130284834E+03 -0.58527317152E+03  0.13794965231E+03  0.92135009947E+03  0.65864270000E+03 0.  0.
    8880022    1    1    2    0    0  0.23130284834E+03  0.58527317152E+03 -0.17080602500E+04  0.18267203299E+04  0.15294330000E+03 0.  0.
<mgrwt>
<rscale>  0 0.83648738E+03</rscale>
<asrwt>0</asrwt>
<pdfrwt beam="1">  1        1 0.33216777E+00 0.91096427E+03</pdfrwt>
<pdfrwt beam="2">  1       -1 0.90612296E-01 0.91096427E+03</pdfrwt>
<totfact> 0.28383876E+00</totfact>
</mgrwt>
</event>
<event>
 4    1  0.3712574E-007  0.1405645E+04  0.7818608E-02  0.8979309E-01
          1   -1    0    0  501    0  0.00000000000E+00  0.00000000000E+00  0.28026613438E+04  0.28026613438E+04  0.50400000000E-02 0. -1.
         -1   -1    0    0    0  501 -0.00000000000E+00 -0.00000000000E+00 -0.93471762763E+03  0.93471762765E+03  0.50400000000E-02 0.  1.
    8880023    1    1    2    0    0  0.47901046697E+03  0.11456775022E+04  0.20369230810E+04  0.24748522805E+04  0.65864270000E+03 0.  0.
    8880022    1    1    2    0    0 -0.47901046697E+03 -0.11456775022E+04 -0.16897936481E+03  0.12625266909E+04  0.15294330000E+03 0.  0.
<mgrwt>
<rscale>  0 0.13653236E+04</rscale>
<asrwt>0</asrwt>
<pdfrwt beam="1">  1        1 0.43117866E+00 0.14056451E+04</pdfrwt>
<pdfrwt beam="2">  1       -1 0.14380271E+00 0.14056451E+04</pdfrwt>
<totfact> 0.31204378E-01</totfact>
</mgrwt>
</event>
<event>
 4    1  0.3712574E-007  0.7071341E+03  0.7818608E-02  0.9968801E-01
         -1   -1    0    0    0  501 -0.00000000000E+00  0.00000000000E+00  0.60897162931E+03  0.60897162933E+03  0.50400000000E-02 0.  1.
          1   -1    0    0  501    0  0.00000000000E+00 -0.00000000000E+00 -0.65674679575E+03  0.65674679576E+03  0.50400000000E-02 0. -1.
    8880023    1    1    2    0    0 -0.62964469212E+02  0.24952725733E+03  0.33278097277E+03  0.78152527703E+03  0.65864270000E+03 0.  0.
    8880022    1    1    2    0    0  0.62964469212E+02 -0.24952725733E+03 -0.38055613921E+03  0.48419314807E+03  0.15294330000E+03 0.  0.
<mgrwt>
<rscale>  0 0.57039663E+03</rscale>
<asrwt>0</asrwt>
<pdfrwt beam="1">  1        1 0.10103797E+00 0.70713406E+03</pdfrwt>
<pdfrwt beam="2">  1       -1 0.93687943E-01 0.70713406E+03</pdfrwt>
<totfact> 0.34076642E+01</totfact>
</mgrwt>
</event>
<event>
 4    1  0.3712574E-007  0.7141171E+03  0.7818608E-02  0.9943019E-01
         -1   -1    0    0    0  501 -0.00000000000E+00  0.00000000000E+00  0.51742939812E+03  0.51742939814E+03  0.50400000000E-02 0.  1.
          1   -1    0    0  501    0  0.00000000000E+00 -0.00000000000E+00 -0.23255158847E+04  0.23255158847E+04  0.50400000000E-02 0. -1.
    8880023    1    1    2    0    0  0.18003073177E+03 -0.20914590777E+03  0.25318180306E+03  0.75767031536E+03  0.65864270000E+03 0.  1.
    8880022    1    1    2    0    0 -0.18003073177E+03  0.20914590777E+03 -0.20612682896E+04  0.20852749675E+04  0.15294330000E+03 0.  0.
<mgrwt>
<rscale>  0 0.58220961E+03</rscale>
<asrwt>0</asrwt>
<pdfrwt beam="1">  1        1 0.35777167E+00 0.71411713E+03</pdfrwt>
<pdfrwt beam="2">  1       -1 0.79604524E-01 0.71411713E+03</pdfrwt>
<totfact> 0.30040351E+00</totfact>
</mgrwt>
</event>
<event>
 4    1  0.3712574E-007  0.7085451E+03  0.7818608E-02  0.9963444E-01
          1   -1    0    0  501    0  0.00000000000E+00  0.00000000000E+00  0.44456100714E+03  0.44456100717E+03  0.50400000000E-02 0. -1.
         -1   -1    0    0    0  501 -0.00000000000E+00 -0.00000000000E+00 -0.87058483237E+03  0.87058483238E+03  0.50400000000E-02 0.  1.
    8880023    1    1    2    0    0 -0.12187158858E+03  0.23102640498E+03 -0.63165263414E+03  0.94922133372E+03  0.65864270000E+03 0.  0.
    8880022    1    1    2    0    0  0.12187158858E+03 -0.23102640498E+03  0.20562880892E+03  0.36592450584E+03  0.15294330000E+03 0.  0.
<mgrwt>
<rscale>  0 0.57282627E+03</rscale>
<asrwt>0</asrwt>
<pdfrwt beam="1">  1        1 0.68394001E-01 0.70854505E+03</pdfrwt>
<pdfrwt beam="2">  1       -1 0.13393613E+00 0.70854505E+03</pdfrwt>
<totfact> 0.25178310E+01</totfact>
</mgrwt>
</event>
<event>
 4    1  0.3712574E-007  0.8004000E+03  0.7818608E-02  0.9709932E-01
         -1   -1    0    0    0  501 -0.00000000000E+00  0.00000000000E+00  0.95779279068E+03  0.95779279069E+03  0.50400000000E-02 0.  1.
          1   -1    0    0  501    0  0.00000000000E+00 -0.00000000000E+00 -0.11118758995E+04  0.11118758995E+04  0.50400000000E-02 0. -1.
    8880023    1    1    2    0    0 -0.15510520027E+02  0.45452103827E+03  0.71738679518E+03  0.10748413700E+04  0.65864270000E+03 0.  1.
    8880022    1    1    2    0    0  0.15510520027E+02 -0.45452103827E+03 -0.87146990401E+03  0.99482732023E+03  0.15294330000E+03 0.  0.
<mgrwt>
<rscale>  0 0.70428521E+03</rscale>
<asrwt>0</asrwt>
<pdfrwt beam="1">  1        1 0.17105783E+00 0.80040000E+03</pdfrwt>
<pdfrwt beam="2">  1       -1 0.14735274E+00 0.80040000E+03</pdfrwt>
<totfact> 0.46814894E+00</totfact>
</mgrwt>
</event>
<event>
 4    1  0.3712574E-007  0.7201305E+03  0.7818608E-02  0.9922145E-01
          1   -1    0    0  501    0  0.00000000000E+00  0.00000000000E+00  0.22178540600E+04  0.22178540600E+04  0.50400000000E-02 0. -1.
         -1   -1    0    0    0  501 -0.00000000000E+00 -0.00000000000E+00 -0.31671575172E+03  0.31671575176E+03  0.50400000000E-02 0.  1.
    8880023    1    1    2    0    0  0.22604096058E+03 -0.18353003685E+03  0.12828540270E+03  0.73146779908E+03  0.65864270000E+03 0.  0.
    8880022    1    1    2    0    0 -0.22604096058E+03  0.18353003685E+03  0.17728529055E+04  0.18031020126E+04  0.15294330000E+03 0.  0.
<mgrwt>
<rscale>  0 0.59199971E+03</rscale>
<asrwt>0</asrwt>
<pdfrwt beam="1">  1        1 0.34120832E+00 0.72013054E+03</pdfrwt>
<pdfrwt beam="2">  1       -1 0.48725500E-01 0.72013054E+03</pdfrwt>
<totfact> 0.94199471E+00</totfact>
</mgrwt>
</event>
<event>
 4    1  0.3712574E-007  0.1145910E+04  0.7818608E-02  0.9211584E-01
          1   -1    0    0  501    0  0.00000000000E+00  0.00000000000E+00  0.27736021926E+04  0.27736021926E+04  0.50400000000E-02 0. -1.
         -1   -1    0    0    0  501 -0.00000000000E+00 -0.00000000000E+00 -0.43285596175E+03  0.43285596178E+03  0.50400000000E-02 0.  1.
    8880023    1    1    2    0    0  0.92408623462E+03  0.15926066281E+03  0.80437751110E+03  0.14000473972E+04  0.65864270000E+03 0.  0.
    8880022    1    1    2    0    0 -0.92408623462E+03 -0.15926066281E+03  0.15363687198E+04  0.18064107572E+04  0.15294330000E+03 0.  0.
<mgrwt>
<rscale>  0 0.10934659E+04</rscale>
<asrwt>0</asrwt>
<pdfrwt beam="1">  1        1 0.42670802E+00 0.11459099E+04</pdfrwt>
<pdfrwt beam="2">  1       -1 0.66593227E-01 0.11459099E+04</pdfrwt>
<totfact> 0.19946537E+00</totfact>
</mgrwt>
</event>
<event>
 4    1  0.3712574E-007  0.7512808E+03  0.7818608E-02  0.9828227E-01
         -1   -1    0    0    0  501 -0.00000000000E+00  0.00000000000E+00  0.10577655571E+04  0.10577655571E+04  0.50400000000E-02 0.  1.
          1   -1    0    0  501    0  0.00000000000E+00 -0.00000000000E+00 -0.64147692586E+03  0.64147692588E+03  0.50400000000E-02 0. -1.
    8880023    1    1    2    0    0 -0.12482144833E+03  0.33916402060E+03  0.83645488986E+03  0.11243129528E+04  0.65864270000E+03 0.  1.
    8880022    1    1    2    0    0  0.12482144833E+03 -0.33916402060E+03 -0.42016625858E+03  0.57492953021E+03  0.15294330000E+03 0.  0.
<mgrwt>
<rscale>  0 0.63869470E+03</rscale>
<asrwt>0</asrwt>
<pdfrwt beam="1">  1        1 0.98688757E-01 0.75128080E+03</pdfrwt>
<pdfrwt beam="2">  1       -1 0.16273316E+00 0.75128080E+03</pdfrwt>
<totfact> 0.89253435E+00</totfact>
</mgrwt>
</event>
<event>
 4    1  0.3712574E-007  0.7395814E+03  0.7818608E-02  0.9861168E-01
         -1   -1    0    0    0  501 -0.00000000000E+00  0.00000000000E+00  0.11724156271E+04  0.11724156271E+04  0.50400000000E-02 0.  1.
          1   -1    0    0  501    0  0.00000000000E+00 -0.00000000000E+00 -0.42338025098E+03  0.42338025101E+03  0.50400000000E-02 0. -1.
    8880023    1    1    2    0    0  0.51813163800E+02  0.33239401379E+03  0.92679752794E+03  0.11857209825E+04  0.65864270000E+03 0.  0.
    8880022    1    1    2    0    0 -0.51813163800E+02 -0.33239401379E+03 -0.17776215184E+03  0.41007489558E+03  0.15294330000E+03 0.  0.
<mgrwt>
<rscale>  0 0.62180716E+03</rscale>
<asrwt>0</asrwt>
<pdfrwt beam="1">  1        1 0.65135424E-01 0.73958136E+03</pdfrwt>
<pdfrwt beam="2">  1       -1 0.18037163E+00 0.73958136E+03</pdfrwt>
<totfact> 0.11855415E+01</totfact>
</mgrwt>
</event>
<event>
 4    1  0.3712574E-007  0.7382011E+03  0.7818608E-02  0.9865218E-01
          1   -1    0    0  501    0  0.00000000000E+00  0.00000000000E+00  0.89486485235E+03  0.89486485237E+03  0.50400000000E-02 0. -1.
         -1   -1    0    0    0  501 -0.00000000000E+00 -0.00000000000E+00 -0.39606996183E+03  0.39606996186E+03  0.50400000000E-02 0.  1.
    8880023    1    1    2    0    0 -0.17813123382E+03  0.28177993895E+03  0.93138933928E+02  0.74405358526E+03  0.65864270000E+03 0.  0.
    8880022    1    1    2    0    0  0.17813123382E+03 -0.28177993895E+03  0.40565595660E+03  0.54688122897E+03  0.15294330000E+03 0.  0.
<mgrwt>
<rscale>  0 0.61976966E+03</rscale>
<asrwt>0</asrwt>
<pdfrwt beam="1">  1        1 0.13767152E+00 0.73820111E+03</pdfrwt>
<pdfrwt beam="2">  1       -1 0.60933841E-01 0.73820111E+03</pdfrwt>
<totfact> 0.51413463E+01</totfact>
</mgrwt>
</event>
<event>
 4    1  0.3712574E-007  0.7625914E+03  0.7818608E-02  0.9798444E-01
         -1   -1    0    0    0  501 -0.00000000000E+00  0.00000000000E+00  0.55859724749E+03  0.55859724751E+03  0.50400000000E-02 0.  1.
          1   -1    0    0  501    0  0.00000000000E+00 -0.00000000000E+00 -0.13025342551E+04  0.13025342551E+04  0.50400000000E-02 0. -1.
    8880023    1    1    2    0    0 -0.17623603463E+03 -0.34157904706E+03  0.23532823122E+03  0.79807579086E+03  0.65864270000E+03 0.  0.
    8880022    1    1    2    0    0  0.17623603463E+03  0.34157904706E+03 -0.97926523881E+03  0.10630557117E+04  0.15294330000E+03 0.  0.
<mgrwt>
<rscale>  0 0.65446096E+03</rscale>
<asrwt>0</asrwt>
<pdfrwt beam="1">  1        1 0.20038988E+00 0.76259137E+03</pdfrwt>
<pdfrwt beam="2">  1       -1 0.85938038E-01 0.76259137E+03</pdfrwt>
<totfact> 0.12438614E+01</totfact>
</mgrwt>
</event>
<event>
 4    1  0.3712574E-007  0.8582409E+03  0.7818608E-02  0.9596700E-01
          1   -1    0    0  501    0  0.00000000000E+00  0.00000000000E+00  0.94693387146E+03  0.94693387147E+03  0.50400000000E-02 0. -1.
         -1   -1    0    0    0  501 -0.00000000000E+00 -0.00000000000E+00 -0.13743685394E+04  0.13743685394E+04  0.50400000000E-02 0.  1.
    8880023    1    1    2    0    0 -0.48681987863E+03  0.25646376474E+03 -0.11280450596E+04  0.14174142371E+04  0.65864270000E+03 0.  1.
    8880022    1    1    2    0    0  0.48681987863E+03 -0.25646376474E+03  0.70061039162E+03  0.90388817379E+03  0.15294330000E+03 0.  0.
<mgrwt>
<rscale>  0 0.77514967E+03</rscale>
<asrwt>0</asrwt>
<pdfrwt beam="1">  1        1 0.14568213E+00 0.85824091E+03</pdfrwt>
<pdfrwt beam="2">  1       -1 0.21144131E+00 0.85824091E+03</pdfrwt>
<totfact> 0.21476813E+00</totfact>
</mgrwt>
</event>
<event>
 4    1  0.3712574E-007  0.8107217E+03  0.7818608E-02  0.9688076E-01
         -1   -1    0    0    0  501 -0.00000000000E+00  0.00000000000E+00  0.58096103580E+03  0.58096103583E+03  0.50400000000E-02 0.  1.
          1   -1    0    0  501    0  0.00000000000E+00 -0.00000000000E+00 -0.32279995170E+04  0.32279995170E+04  0.50400000000E-02 0. -1.
    8880023    1    1    2    0    0  0.39659432367E+03  0.25724008622E+03  0.26647120868E+03  0.85339125309E+03  0.65864270000E+03 0.  1.
    8880022    1    1    2    0    0 -0.39659432367E+03 -0.25724008622E+03 -0.29135096899E+04  0.29555692997E+04  0.15294330000E+03 0.  0.
<mgrwt>
<rscale>  0 0.71731227E+03</rscale>
<asrwt>0</asrwt>
<pdfrwt beam="1">  1        1 0.49661530E+00 0.81072173E+03</pdfrwt>
<pdfrwt beam="2">  1       -1 0.89378623E-01 0.81072173E+03</pdfrwt>
<totfact> 0.53277145E-01</totfact>
</mgrwt>
</event>
<event>
 4    1  0.3712574E-007  0.6876987E+03  0.7818608E-02  0.1005266E+00
          1   -1    0    0  501    0  0.00000000000E+00  0.00000000000E+00  0.99214309526E+03  0.99214309527E+03  0.50400000000E-02 0. -1.
         -1   -1    0    0    0  501 -0.00000000000E+00 -0.00000000000E+00 -0.22157090909E+03  0.22157090915E+03  0.50400000000E-02 0.  1.
    8880023    1    1    2    0    0 -0.18470162063E+03 -0.70743498738E+02  0.56494346039E+03  0.88999474772E+03  0.65864270000E+03 0.  0.
    8880022    1    1    2    0    0  0.18470162063E+03  0.70743498738E+02  0.20562872578E+03  0.32371925670E+03  0.15294330000E+03 0.  1.
<mgrwt>
<rscale>  0 0.53400240E+03</rscale>
<asrwt>0</asrwt>
<pdfrwt beam="1">  1        1 0.15263740E+00 0.68769873E+03</pdfrwt>
<pdfrwt beam="2">  1       -1 0.34087831E-01 0.68769873E+03</pdfrwt>
<totfact> 0.12762546E+02</totfact>
</mgrwt>
</event>
<event>
 4    1  0.3712574E-007  0.6656573E+03  0.7818608E-02  0.1018988E+00
         -1   -1    0    0    0  501 -0.00000000000E+00  0.00000000000E+00  0.44563772592E+03  0.44563772595E+03  0.50400000000E-02 0.  1.
          1   -1    0    0  501    0  0.00000000000E+00 -0.00000000000E+00 -0.75004885249E+03  0.75004885251E+03  0.50400000000E-02 0. -1.
    8880023    1    1    2    0    0 -0.73350064126E+02  0.62523226035E+02  0.17082571401E+03  0.68722704875E+03  0.65864270000E+03 0.  1.
    8880022    1    1    2    0    0  0.73350064126E+02 -0.62523226035E+02 -0.47523684058E+03  0.50845952971E+03  0.15294330000E+03 0.  0.
<mgrwt>
<rscale>  0 0.48053496E+03</rscale>
<asrwt>0</asrwt>
<pdfrwt beam="1">  1        1 0.11539213E+00 0.66565726E+03</pdfrwt>
<pdfrwt beam="2">  1       -1 0.68559650E-01 0.66565726E+03</pdfrwt>
<totfact> 0.54333783E+01</totfact>
</mgrwt>
</event>
<event>
 4    1  0.3712574E-007  0.8228036E+03  0.7818608E-02  0.9663500E-01
         -1   -1    0    0    0  501 -0.00000000000E+00  0.00000000000E+00  0.12555255516E+04  0.12555255516E+04  0.50400000000E-02 0.  1.
          1   -1    0    0  501    0  0.00000000000E+00 -0.00000000000E+00 -0.10263182246E+04  0.10263182246E+04  0.50400000000E-02 0. -1.
    8880023    1    1    2    0    0  0.34788491619E+03 -0.34953064417E+03  0.10366096381E+04  0.13234671640E+04  0.65864270000E+03 0.  1.
    8880022    1    1    2    0    0 -0.34788491619E+03  0.34953064417E+03 -0.80740231105E+03  0.95837661231E+03  0.15294330000E+03 0.  0.
<mgrwt>
<rscale>  0 0.73232197E+03</rscale>
<asrwt>0</asrwt>
<pdfrwt beam="1">  1        1 0.15789511E+00 0.82280362E+03</pdfrwt>
<pdfrwt beam="2">  1       -1 0.19315778E+00 0.82280362E+03</pdfrwt>
<totfact> 0.24953499E+00</totfact>
</mgrwt>
</event>
<event>
 4    1  0.3712574E-007  0.7575661E+03  0.7818608E-02  0.9811450E-01
          1   -1    0    0  501    0  0.00000000000E+00  0.00000000000E+00  0.18092004079E+04  0.18092004079E+04  0.50400000000E-02 0. -1.
         -1   -1    0    0    0  501 -0.00000000000E+00 -0.00000000000E+00 -0.13831634432E+04  0.13831634432E+04  0.50400000000E-02 0.  1.
    8880023    1    1    2    0    0 -0.36813390336E+03  0.67628285767E+02 -0.12536107435E+04  0.14647341938E+04  0.65864270000E+03 0.  1.
    8880022    1    1    2    0    0  0.36813390336E+03 -0.67628285767E+02  0.16796477083E+04  0.17276296573E+04  0.15294330000E+03 0.  0.
<mgrwt>
<rscale>  0 0.64751683E+03</rscale>
<asrwt>0</asrwt>
<pdfrwt beam="1">  1        1 0.27833852E+00 0.75756608E+03</pdfrwt>
<pdfrwt beam="2">  1       -1 0.21279438E+00 0.75756608E+03</pdfrwt>
<totfact> 0.52395750E-01</totfact>
</mgrwt>
</event>
<event>
 4    1  0.3712574E-007  0.1013606E+04  0.7818608E-02  0.9363970E-01
          1   -1    0    0  501    0  0.00000000000E+00  0.00000000000E+00  0.74822450939E+03  0.74822450941E+03  0.50400000000E-02 0. -1.
         -1   -1    0    0    0  501 -0.00000000000E+00 -0.00000000000E+00 -0.18645426015E+04  0.18645426015E+04  0.50400000000E-02 0.  1.
    8880023    1    1    2    0    0  0.70645390154E+02 -0.76719988310E+03 -0.14418709437E+04  0.17624949522E+04  0.65864270000E+03 0.  0.
    8880022    1    1    2    0    0 -0.70645390154E+02  0.76719988310E+03  0.32555285160E+03  0.85027215877E+03  0.15294330000E+03 0.  0.
<mgrwt>
<rscale>  0 0.95101096E+03</rscale>
<asrwt>0</asrwt>
<pdfrwt beam="1">  1        1 0.11511146E+00 0.10136058E+04</pdfrwt>
<pdfrwt beam="2">  1       -1 0.28685271E+00 0.10136058E+04</pdfrwt>
<totfact> 0.99797972E-01</totfact>
</mgrwt>
</event>
<event>
 4    1  0.3712574E-007  0.7405623E+03  0.7818608E-02  0.9858312E-01
          1   -1    0    0  501    0  0.00000000000E+00  0.00000000000E+00  0.19064817465E+04  0.19064817465E+04  0.50400000000E-02 0. -1.
         -1   -1    0    0    0  501 -0.00000000000E+00 -0.00000000000E+00 -0.29458695517E+03  0.29458695521E+03  0.50400000000E-02 0.  1.
    8880023    1    1    2    0    0 -0.21599245306E+03 -0.26070965711E+03  0.23805149162E+03  0.77788237158E+03  0.65864270000E+03 0.  1.
    8880022    1    1    2    0    0  0.21599245306E+03  0.26070965711E+03  0.13738432997E+04  0.14231863301E+04  0.15294330000E+03 0.  0.
<mgrwt>
<rscale>  0 0.62324894E+03</rscale>
<asrwt>0</asrwt>
<pdfrwt beam="1">  1        1 0.29330490E+00 0.74056227E+03</pdfrwt>
<pdfrwt beam="2">  1       -1 0.45321068E-01 0.74056227E+03</pdfrwt>
<totfact> 0.17370087E+01</totfact>
</mgrwt>
</event>
<event>
 4    1  0.3712574E-007  0.7046866E+03  0.7818608E-02  0.9978288E-01
         -1   -1    0    0    0  501 -0.00000000000E+00  0.00000000000E+00  0.19229138774E+03  0.19229138781E+03  0.50400000000E-02 0.  1.
          1   -1    0    0  501    0  0.00000000000E+00 -0.00000000000E+00 -0.27601865066E+04  0.27601865066E+04  0.50400000000E-02 0. -1.
    8880023    1    1    2    0    0 -0.12178551104E+03 -0.21895492417E+03 -0.50048067455E+03  0.86432868828E+03  0.65864270000E+03 0.  1.
    8880022    1    1    2    0    0  0.12178551104E+03  0.21895492417E+03 -0.20674144443E+04  0.20881492061E+04  0.15294330000E+03 0.  0.
<mgrwt>
<rscale>  0 0.56612603E+03</rscale>
<asrwt>0</asrwt>
<pdfrwt beam="1">  1        1 0.42464405E+00 0.70468658E+03</pdfrwt>
<pdfrwt beam="2">  1       -1 0.29583292E-01 0.70468658E+03</pdfrwt>
<totfact> 0.99167664E+00</totfact>
</mgrwt>
</event>
<event>
 4    1  0.3712574E-007  0.8801665E+03  0.7818608E-02  0.9558652E-01
         -1   -1    0    0    0  501 -0.00000000000E+00  0.00000000000E+00  0.14072396345E+04  0.14072396345E+04  0.50400000000E-02 0.  1.
          1   -1    0    0  501    0  0.00000000000E+00 -0.00000000000E+00 -0.59866822522E+03  0.59866822524E+03  0.50400000000E-02 0. -1.
    8880023    1    1    2    0    0 -0.14767049410E+03  0.56486833778E+03  0.10373631036E+04  0.13604467019E+04  0.65864270000E+03 0.  1.
    8880022    1    1    2    0    0  0.14767049410E+03 -0.56486833778E+03 -0.22879169430E+03  0.64546115782E+03  0.15294330000E+03 0.  0.
<mgrwt>
<rscale>  0 0.80094410E+03</rscale>
<asrwt>0</asrwt>
<pdfrwt beam="1">  1        1 0.92102806E-01 0.88016647E+03</pdfrwt>
<pdfrwt beam="2">  1       -1 0.21649840E+00 0.88016647E+03</pdfrwt>
<totfact> 0.40706484E+00</totfact>
</mgrwt>
</event>
<event>
 4    1  0.3712574E-007  0.6657881E+03  0.7818608E-02  0.1018881E+00
         -1   -1    0    0    0  501 -0.00000000000E+00  0.00000000000E+00  0.57243374447E+03  0.57243374449E+03  0.50400000000E-02 0.  1.
          1   -1    0    0  501    0  0.00000000000E+00 -0.00000000000E+00 -0.41130257317E+03  0.41130257320E+03  0.50400000000E-02 0. -1.
    8880023    1    1    2    0    0  0.70726465804E+02  0.66793755227E+02  0.32365085459E+03  0.74028624237E+03  0.65864270000E+03 0.  1.
    8880022    1    1    2    0    0 -0.70726465804E+02 -0.66793755227E+02 -0.16251968329E+03  0.24345007532E+03  0.15294330000E+03 0.  0.
<mgrwt>
<rscale>  0 0.48092539E+03</rscale>
<asrwt>0</asrwt>
<pdfrwt beam="1">  1        1 0.63277320E-01 0.66578814E+03</pdfrwt>
<pdfrwt beam="2">  1       -1 0.88066729E-01 0.66578814E+03</pdfrwt>
<totfact> 0.75103451E+01</totfact>
</mgrwt>
</event>
<event>
 4    1  0.3712574E-007  0.8168174E+03  0.7818608E-02  0.9675548E-01
          1   -1    0    0  501    0  0.00000000000E+00  0.00000000000E+00  0.19572661859E+04  0.19572661859E+04  0.50400000000E-02 0. -1.
         -1   -1    0    0    0  501 -0.00000000000E+00 -0.00000000000E+00 -0.78465811488E+03  0.78465811490E+03  0.50400000000E-02 0.  1.
    8880023    1    1    2    0    0 -0.46266841158E+03  0.13899091426E+03 -0.52454299490E+03  0.97073997192E+03  0.65864270000E+03 0.  1.
    8880022    1    1    2    0    0  0.46266841158E+03 -0.13899091426E+03  0.16971510659E+04  0.17711843288E+04  0.15294330000E+03 0.  0.
<mgrwt>
<rscale>  0 0.72491527E+03</rscale>
<asrwt>0</asrwt>
<pdfrwt beam="1">  1        1 0.30111787E+00 0.81681745E+03</pdfrwt>
<pdfrwt beam="2">  1       -1 0.12071663E+00 0.81681745E+03</pdfrwt>
<totfact> 0.20225297E+00</totfact>
</mgrwt>
</event>
<event>
 4    1  0.3712574E-007  0.8088806E+03  0.7818608E-02  0.9691913E-01
          1   -1    0    0  501    0  0.00000000000E+00  0.00000000000E+00  0.16731086085E+04  0.16731086085E+04  0.50400000000E-02 0. -1.
         -1   -1    0    0    0  501 -0.00000000000E+00 -0.00000000000E+00 -0.31807267647E+03  0.31807267651E+03  0.50400000000E-02 0.  1.
    8880023    1    1    2    0    0  0.36090455628E+03 -0.30037572648E+03  0.12458786358E+04  0.14854297214E+04  0.65864270000E+03 0.  0.
    8880022    1    1    2    0    0 -0.36090455628E+03  0.30037572648E+03  0.10915729626E+03  0.50575156366E+03  0.15294330000E+03 0.  0.
<mgrwt>
<rscale>  0 0.71500319E+03</rscale>
<asrwt>0</asrwt>
<pdfrwt beam="1">  1        1 0.25740132E+00 0.80888064E+03</pdfrwt>
<pdfrwt beam="2">  1       -1 0.48934259E-01 0.80888064E+03</pdfrwt>
<totfact> 0.21383475E+01</totfact>
</mgrwt>
</event>
<event>
 4    1  0.3712574E-007  0.7460666E+03  0.7818608E-02  0.9842615E-01
         -1   -1    0    0    0  501 -0.00000000000E+00  0.00000000000E+00  0.81502480540E+03  0.81502480541E+03  0.50400000000E-02 0.  1.
          1   -1    0    0  501    0  0.00000000000E+00 -0.00000000000E+00 -0.66366128736E+03  0.66366128738E+03  0.50400000000E-02 0. -1.
    8880023    1    1    2    0    0 -0.15071677476E+03 -0.31636951842E+03  0.54957067667E+03  0.92663010597E+03  0.65864270000E+03 0.  0.
    8880022    1    1    2    0    0  0.15071677476E+03  0.31636951842E+03 -0.39820715863E+03  0.55205598681E+03  0.15294330000E+03 0.  0.
<mgrwt>
<rscale>  0 0.63124867E+03</rscale>
<asrwt>0</asrwt>
<pdfrwt beam="1">  1        1 0.10210174E+00 0.74606664E+03</pdfrwt>
<pdfrwt beam="2">  1       -1 0.12538843E+00 0.74606664E+03</pdfrwt>
<totfact> 0.16857005E+01</totfact>
</mgrwt>
</event>
<event>
 4    1  0.3712574E-007  0.7145273E+03  0.7818608E-02  0.9941558E-01
         -1   -1    0    0    0  501 -0.00000000000E+00  0.00000000000E+00  0.80967989739E+03  0.80967989741E+03  0.50400000000E-02 0.  1.
          1   -1    0    0  501    0  0.00000000000E+00 -0.00000000000E+00 -0.63146161497E+03  0.63146161499E+03  0.50400000000E-02 0. -1.
    8880023    1    1    2    0    0  0.22143190851E+03  0.16645390410E+03  0.58662781461E+03  0.92448980061E+03  0.65864270000E+03 0.  1.
    8880022    1    1    2    0    0 -0.22143190851E+03 -0.16645390410E+03 -0.40840953219E+03  0.51665171179E+03  0.15294330000E+03 0. -1.
<mgrwt>
<rscale>  0 0.58288781E+03</rscale>
<asrwt>0</asrwt>
<pdfrwt beam="1">  1        1 0.97147941E-01 0.71452726E+03</pdfrwt>
<pdfrwt beam="2">  1       -1 0.12456614E+00 0.71452726E+03</pdfrwt>
<totfact> 0.18503077E+01</totfact>
</mgrwt>
</event>
<event>
 4    1  0.3712574E-007  0.1153795E+04  0.7818608E-02  0.9203401E-01
          1   -1    0    0  501    0  0.00000000000E+00  0.00000000000E+00  0.35302475101E+04  0.35302475101E+04  0.50400000000E-02 0. -1.
         -1   -1    0    0    0  501 -0.00000000000E+00 -0.00000000000E+00 -0.42019170754E+03  0.42019170757E+03  0.50400000000E-02 0.  1.
    8880023    1    1    2    0    0  0.27983589069E+03 -0.90505445412E+03  0.68353759798E+03  0.13410688069E+04  0.65864270000E+03 0.  0.
    8880022    1    1    2    0    0 -0.27983589069E+03  0.90505445412E+03  0.24265182046E+04  0.26093704108E+04  0.15294330000E+03 0. -1.
<mgrwt>
<rscale>  0 0.11018397E+04</rscale>
<asrwt>0</asrwt>
<pdfrwt beam="1">  1        1 0.54311499E+00 0.11537946E+04</pdfrwt>
<pdfrwt beam="2">  1       -1 0.64644879E-01 0.11537946E+04</pdfrwt>
<totfact> 0.58245454E-01</totfact>
</mgrwt>
</event>
<event>
 4    1  0.3712574E-007  0.6644576E+03  0.7818608E-02  0.1019993E+00
         -1   -1    0    0    0  501 -0.00000000000E+00  0.00000000000E+00  0.76696457590E+03  0.76696457592E+03  0.50400000000E-02 0.  1.
          1   -1    0    0  501    0  0.00000000000E+00 -0.00000000000E+00 -0.12925660746E+04  0.12925660746E+04  0.50400000000E-02 0. -1.
    8880023    1    1    2    0    0 -0.48011983387E+02  0.73406440648E+02  0.61499645236E+03  0.90538638092E+03  0.65864270000E+03 0.  1.
    8880022    1    1    2    0    0  0.48011983387E+02 -0.73406440648E+02 -0.11405979510E+04  0.11541442696E+04  0.15294330000E+03 0.  0.
<mgrwt>
<rscale>  0 0.47689178E+03</rscale>
<asrwt>0</asrwt>
<pdfrwt beam="1">  1        1 0.19885632E+00 0.66445757E+03</pdfrwt>
<pdfrwt beam="2">  1       -1 0.11799455E+00 0.66445757E+03</pdfrwt>
<totfact> 0.62214608E+00</totfact>
</mgrwt>
</event>
<event>
 4    1  0.3712574E-007  0.8002335E+03  0.7818608E-02  0.9710291E-01
         -1   -1    0    0    0  501 -0.00000000000E+00  0.00000000000E+00  0.10343290772E+04  0.10343290772E+04  0.50400000000E-02 0.  1.
          1   -1    0    0  501    0  0.00000000000E+00 -0.00000000000E+00 -0.80445443497E+03  0.80445443498E+03  0.50400000000E-02 0. -1.
    8880023    1    1    2    0    0 -0.39949226795E+03  0.21672416460E+03  0.77413853485E+03  0.11134020447E+04  0.65864270000E+03 0.  1.
    8880022    1    1    2    0    0  0.39949226795E+03 -0.21672416460E+03 -0.54426389259E+03  0.72538146755E+03  0.15294330000E+03 0.  0.
<mgrwt>
<rscale>  0 0.70407337E+03</rscale>
<asrwt>0</asrwt>
<pdfrwt beam="1">  1        1 0.12376222E+00 0.80023349E+03</pdfrwt>
<pdfrwt beam="2">  1       -1 0.15912755E+00 0.80023349E+03</pdfrwt>
<totfact> 0.66747674E+00</totfact>
</mgrwt>
</event>
<event>
 4    1  0.3712574E-007  0.6775727E+03  0.7818608E-02  0.1010731E+00
          1   -1    0    0  501    0  0.00000000000E+00  0.00000000000E+00  0.10974773593E+04  0.10974773593E+04  0.50400000000E-02 0. -1.
         -1   -1    0    0    0  501 -0.00000000000E+00 -0.00000000000E+00 -0.10900533620E+04  0.10900533620E+04  0.50400000000E-02 0.  1.
    8880023    1    1    2    0    0 -0.49855210638E+02  0.15102670877E+03 -0.97127700115E+03  0.11842651004E+04  0.65864270000E+03 0.  0.
    8880022    1    1    2    0    0  0.49855210638E+02 -0.15102670877E+03  0.97870099839E+03  0.10032656209E+04  0.15294330000E+03 0. -1.
<mgrwt>
<rscale>  0 0.51185005E+03</rscale>
<asrwt>0</asrwt>
<pdfrwt beam="1">  1        1 0.16884267E+00 0.67757274E+03</pdfrwt>
<pdfrwt beam="2">  1       -1 0.16770052E+00 0.67757274E+03</pdfrwt>
<totfact> 0.34323587E+00</totfact>
</mgrwt>
</event>
<event>
 4    1  0.3712574E-007  0.7850014E+03  0.7818608E-02  0.9744217E-01
         -1   -1    0    0    0  501 -0.00000000000E+00  0.00000000000E+00  0.14892194093E+04  0.14892194093E+04  0.50400000000E-02 0.  1.
          1   -1    0    0  501    0  0.00000000000E+00 -0.00000000000E+00 -0.12299126888E+04  0.12299126888E+04  0.50400000000E-02 0. -1.
    8880023    1    1    2    0    0  0.79945870426E+02 -0.41955404945E+03  0.13366789943E+04  0.15501412461E+04  0.65864270000E+03 0.  0.
    8880022    1    1    2    0    0 -0.79945870426E+02  0.41955404945E+03 -0.10773722739E+04  0.11689908520E+04  0.15294330000E+03 0. -1.
<mgrwt>
<rscale>  0 0.68444058E+03</rscale>
<asrwt>0</asrwt>
<pdfrwt beam="1">  1        1 0.18921734E+00 0.78500137E+03</pdfrwt>
<pdfrwt beam="2">  1       -1 0.22911068E+00 0.78500137E+03</pdfrwt>
<totfact> 0.10157497E+00</totfact>
</mgrwt>
</event>
<event>
 4    1  0.3712574E-007  0.6799356E+03  0.7818608E-02  0.1009360E+00
          1   -1    0    0  501    0  0.00000000000E+00  0.00000000000E+00  0.14735876079E+04  0.14735876079E+04  0.50400000000E-02 0. -1.
         -1   -1    0    0    0  501 -0.00000000000E+00 -0.00000000000E+00 -0.15275875486E+03  0.15275875494E+03  0.50400000000E-02 0.  1.
    8880023    1    1    2    0    0  0.14035105443E+03 -0.93828471067E+02  0.75315180662E+03  0.10146674581E+04  0.65864270000E+03 0.  1.
    8880022    1    1    2    0    0 -0.14035105443E+03  0.93828471067E+02  0.56767704641E+03  0.61167890474E+03  0.15294330000E+03 0. -1.
<mgrwt>
<rscale>  0 0.51729743E+03</rscale>
<asrwt>0</asrwt>
<pdfrwt beam="1">  1        1 0.22670579E+00 0.67993559E+03</pdfrwt>
<pdfrwt beam="2">  1       -1 0.23501347E-01 0.67993559E+03</pdfrwt>
<totfact> 0.10924930E+02</totfact>
</mgrwt>
</event>
<event>
 4    1  0.3712574E-007  0.6897507E+03  0.7818608E-02  0.1004271E+00
          1   -1    0    0  501    0  0.00000000000E+00  0.00000000000E+00  0.48639346471E+03  0.48639346474E+03  0.50400000000E-02 0. -1.
         -1   -1    0    0    0  501 -0.00000000000E+00 -0.00000000000E+00 -0.12871281200E+04  0.12871281200E+04  0.50400000000E-02 0.  1.
    8880023    1    1    2    0    0  0.18310537370E+03 -0.91750790743E+02 -0.11498328630E+04  0.13408473458E+04  0.65864270000E+03 0.  1.
    8880022    1    1    2    0    0 -0.18310537370E+03  0.91750790743E+02  0.34909820770E+03  0.43267423903E+03  0.15294330000E+03 0.  0.
<mgrwt>
<rscale>  0 0.53816365E+03</rscale>
<asrwt>0</asrwt>
<pdfrwt beam="1">  1        1 0.74829764E-01 0.68975067E+03</pdfrwt>
<pdfrwt beam="2">  1       -1 0.19801971E+00 0.68975067E+03</pdfrwt>
<totfact> 0.74522203E+00</totfact>
</mgrwt>
</event>
<event>
 4    1  0.3712574E-007  0.7501090E+03  0.7818608E-02  0.9831422E-01
          1   -1    0    0  501    0  0.00000000000E+00  0.00000000000E+00  0.45680475374E+03  0.45680475377E+03  0.50400000000E-02 0. -1.
         -1   -1    0    0    0  501 -0.00000000000E+00 -0.00000000000E+00 -0.11044459761E+04  0.11044459761E+04  0.50400000000E-02 0.  1.
    8880023    1    1    2    0    0 -0.35233348298E+03 -0.68661897150E+02 -0.84004502193E+03  0.11262056582E+04  0.65864270000E+03 0.  0.
    8880022    1    1    2    0    0  0.35233348298E+03  0.68661897150E+02  0.19240379955E+03  0.43504507174E+03  0.15294330000E+03 0.  0.
<mgrwt>
<rscale>  0 0.63703188E+03</rscale>
<asrwt>0</asrwt>
<pdfrwt beam="1">  1        1 0.70277655E-01 0.75010902E+03</pdfrwt>
<pdfrwt beam="2">  1       -1 0.16991476E+00 0.75010902E+03</pdfrwt>
<totfact> 0.12720969E+01</totfact>
</mgrwt>
</event>
<event>
 4    1  0.3712574E-007  0.6937077E+03  0.7818608E-02  0.1002438E+00
         -1   -1    0    0    0  501 -0.00000000000E+00  0.00000000000E+00  0.30580149074E+03  0.30580149078E+03  0.50400000000E-02 0.  1.
          1   -1    0    0  501    0  0.00000000000E+00 -0.00000000000E+00 -0.17865680869E+04  0.17865680869E+04  0.50400000000E-02 0. -1.
    8880023    1    1    2    0    0  0.60049328602E+02 -0.20931846804E+03 -0.11776277471E+03  0.70363230476E+03  0.65864270000E+03 0. -1.
    8880022    1    1    2    0    0 -0.60049328602E+02  0.20931846804E+03 -0.13630038214E+04  0.13887372729E+04  0.15294330000E+03 0. -1.
<mgrwt>
<rscale>  0 0.54594083E+03</rscale>
<asrwt>0</asrwt>
<pdfrwt beam="1">  1        1 0.27485662E+00 0.69370768E+03</pdfrwt>
<pdfrwt beam="2">  1       -1 0.47046384E-01 0.69370768E+03</pdfrwt>
<totfact> 0.19620196E+01</totfact>
</mgrwt>
</event>
<event>
 4    1  0.3712574E-007  0.7454162E+03  0.7818608E-02  0.9844442E-01
          1   -1    0    0  501    0  0.00000000000E+00  0.00000000000E+00  0.15266085608E+04  0.15266085608E+04  0.50400000000E-02 0. -1.
         -1   -1    0    0    0  501 -0.00000000000E+00 -0.00000000000E+00 -0.35217215201E+03  0.35217215205E+03  0.50400000000E-02 0.  1.
    8880023    1    1    2    0    0 -0.30628989675E+03 -0.16739643589E+03  0.11670952718E+03  0.75449744042E+03  0.65864270000E+03 0.  1.
    8880022    1    1    2    0    0  0.30628989675E+03  0.16739643589E+03  0.10577268816E+04  0.11242832725E+04  0.15294330000E+03 0.  0.
<mgrwt>
<rscale>  0 0.63031106E+03</rscale>
<asrwt>0</asrwt>
<pdfrwt beam="1">  1        1 0.23486286E+00 0.74541617E+03</pdfrwt>
<pdfrwt beam="2">  1       -1 0.54180331E-01 0.74541617E+03</pdfrwt>
<totfact> 0.22318116E+01</totfact>
</mgrwt>
</event>
<event>
 4    1  0.3712574E-007  0.7233634E+03  0.7818608E-02  0.9911365E-01
          1   -1    0    0  501    0  0.00000000000E+00  0.00000000000E+00  0.69327583624E+03  0.69327583626E+03  0.50400000000E-02 0. -1.
         -1   -1    0    0    0  501 -0.00000000000E+00 -0.00000000000E+00 -0.59289674894E+03  0.59289674896E+03  0.50400000000E-02 0.  1.
    8880023    1    1    2    0    0  0.29772757762E+03  0.28331763798E+02  0.40816668691E+03  0.83057489119E+03  0.65864270000E+03 0. -1.
    8880022    1    1    2    0    0 -0.29772757762E+03 -0.28331763798E+02 -0.30778759960E+03  0.45559769403E+03  0.15294330000E+03 0.  0.
<mgrwt>
<rscale>  0 0.59713618E+03</rscale>
<asrwt>0</asrwt>
<pdfrwt beam="1">  1        1 0.10665782E+00 0.72336340E+03</pdfrwt>
<pdfrwt beam="2">  1       -1 0.91214884E-01 0.72336340E+03</pdfrwt>
<totfact> 0.33298245E+01</totfact>
</mgrwt>
</event>
<event>
 4    1  0.3712574E-007  0.8102973E+03  0.7818608E-02  0.9688958E-01
          1   -1    0    0  501    0  0.00000000000E+00  0.00000000000E+00  0.16345390289E+04  0.16345390289E+04  0.50400000000E-02 0. -1.
         -1   -1    0    0    0  501 -0.00000000000E+00 -0.00000000000E+00 -0.38600196374E+03  0.38600196377E+03  0.50400000000E-02 0.  1.
    8880023    1    1    2    0    0  0.21761458707E+03  0.41882615798E+03  0.16234762887E+03  0.82640088213E+03  0.65864270000E+03 0.  1.
    8880022    1    1    2    0    0 -0.21761458707E+03 -0.41882615798E+03  0.10861894363E+04  0.11941401105E+04  0.15294330000E+03 0.  0.
<mgrwt>
<rscale>  0 0.71678045E+03</rscale>
<asrwt>0</asrwt>
<pdfrwt beam="1">  1        1 0.25146754E+00 0.81029727E+03</pdfrwt>
<pdfrwt beam="2">  1       -1 0.59384918E-01 0.81029727E+03</pdfrwt>
<totfact> 0.15634639E+01</totfact>
</mgrwt>
</event>
<event>
 4    1  0.3712574E-007  0.6604093E+03  0.7818608E-02  0.1023741E+00
          1   -1    0    0  501    0  0.00000000000E+00  0.00000000000E+00  0.50070392174E+03  0.50070392176E+03  0.50400000000E-02 0. -1.
         -1   -1    0    0    0  501 -0.00000000000E+00 -0.00000000000E+00 -0.13243176862E+04  0.13243176862E+04  0.50400000000E-02 0.  1.
    8880023    1    1    2    0    0 -0.48272490392E+02  0.14232399829E+00 -0.12256096085E+04  0.13922138386E+04  0.65864270000E+03 0.  1.
    8880022    1    1    2    0    0  0.48272490392E+02 -0.14232399829E+00  0.40199584406E+03  0.43280776939E+03  0.15294330000E+03 0.  0.
<mgrwt>
<rscale>  0 0.46360465E+03</rscale>
<asrwt>0</asrwt>
<pdfrwt beam="1">  1        1 0.77031373E-01 0.66040931E+03</pdfrwt>
<pdfrwt beam="2">  1       -1 0.20374118E+00 0.66040931E+03</pdfrwt>
<totfact> 0.65764349E+00</totfact>
</mgrwt>
</event>
<event>
 4    1  0.3712574E-007  0.1042517E+04  0.7818608E-02  0.9327932E-01
         -1   -1    0    0    0  501 -0.00000000000E+00  0.00000000000E+00  0.16356900382E+04  0.16356900382E+04  0.50400000000E-02 0.  1.
          1   -1    0    0  501    0  0.00000000000E+00 -0.00000000000E+00 -0.12968027666E+04  0.12968027666E+04  0.50400000000E-02 0. -1.
    8880023    1    1    2    0    0 -0.35974779256E+03 -0.72361101023E+03  0.13007352884E+04  0.16669594671E+04  0.65864270000E+03 0.  1.
    8880022    1    1    2    0    0  0.35974779256E+03  0.72361101023E+03 -0.96184801681E+03  0.12655333377E+04  0.15294330000E+03 0.  0.
<mgrwt>
<rscale>  0 0.98251602E+03</rscale>
<asrwt>0</asrwt>
<pdfrwt beam="1">  1        1 0.19950812E+00 0.10425169E+04</pdfrwt>
<pdfrwt beam="2">  1       -1 0.25164462E+00 0.10425169E+04</pdfrwt>
<totfact> 0.62040547E-01</totfact>
</mgrwt>
</event>
<event>
 4    1  0.3712574E-007  0.9776612E+03  0.7818608E-02  0.9411385E-01
         -1   -1    0    0    0  501 -0.00000000000E+00  0.00000000000E+00  0.13467330138E+04  0.13467330138E+04  0.50400000000E-02 0.  1.
          1   -1    0    0  501    0  0.00000000000E+00 -0.00000000000E+00 -0.13418381151E+04  0.13418381151E+04  0.50400000000E-02 0. -1.
    8880023    1    1    2    0    0  0.67223702802E+03 -0.26478015108E+03  0.10332730219E+04  0.14224888380E+04  0.65864270000E+03 0.  1.
    8880022    1    1    2    0    0 -0.67223702802E+03  0.26478015108E+03 -0.10283781232E+04  0.12660822910E+04  0.15294330000E+03 0.  0.
<mgrwt>
<rscale>  0 0.91144600E+03</rscale>
<asrwt>0</asrwt>
<pdfrwt beam="1">  1        1 0.20643663E+00 0.97766117E+03</pdfrwt>
<pdfrwt beam="2">  1       -1 0.20718969E+00 0.97766117E+03</pdfrwt>
<totfact> 0.11456908E+00</totfact>
</mgrwt>
</event>
<event>
 4    1  0.3712574E-007  0.7370558E+03  0.7818608E-02  0.9868608E-01
         -1   -1    0    0    0  501 -0.00000000000E+00  0.00000000000E+00  0.11931781781E+03  0.11931781792E+03  0.50400000000E-02 0.  1.
          1   -1    0    0  501    0  0.00000000000E+00 -0.00000000000E+00 -0.28197566130E+04  0.28197566130E+04  0.50400000000E-02 0. -1.
    8880023    1    1    2    0    0 -0.12448286316E+02  0.33058435786E+03 -0.13254008803E+04  0.15165548711E+04  0.65864270000E+03 0.  1.
    8880022    1    1    2    0    0  0.12448286316E+02 -0.33058435786E+03 -0.13750379149E+04  0.14225195598E+04  0.15294330000E+03 0.  0.
<mgrwt>
<rscale>  0 0.61807098E+03</rscale>
<asrwt>0</asrwt>
<pdfrwt beam="1">  1        1 0.43380866E+00 0.73705575E+03</pdfrwt>
<pdfrwt beam="2">  1       -1 0.18356590E-01 0.73705575E+03</pdfrwt>
<totfact> 0.20100144E+01</totfact>
</mgrwt>
</event>
<event>
 4    1  0.3712574E-007  0.7292096E+03  0.7818608E-02  0.9892573E-01
         -1   -1    0    0    0  501 -0.00000000000E+00  0.00000000000E+00  0.39971062796E+03  0.39971062799E+03  0.50400000000E-02 0.  1.
          1   -1    0    0  501    0  0.00000000000E+00 -0.00000000000E+00 -0.22715983145E+04  0.22715983145E+04  0.50400000000E-02 0. -1.
    8880023    1    1    2    0    0  0.19409015985E+03 -0.24549015546E+03  0.37728584026E+02  0.73018494842E+03  0.65864270000E+03 0.  1.
    8880022    1    1    2    0    0 -0.19409015985E+03  0.24549015546E+03 -0.19096162706E+04  0.19411239941E+04  0.15294330000E+03 0.  0.
<mgrwt>
<rscale>  0 0.60622582E+03</rscale>
<asrwt>0</asrwt>
<pdfrwt beam="1">  1        1 0.34947666E+00 0.72920958E+03</pdfrwt>
<pdfrwt beam="2">  1       -1 0.61493944E-01 0.72920958E+03</pdfrwt>
<totfact> 0.55230399E+00</totfact>
</mgrwt>
</event>
<event>
 4    1  0.3712574E-007  0.9159194E+03  0.7818608E-02  0.9500944E-01
          1   -1    0    0  501    0  0.00000000000E+00  0.00000000000E+00  0.86182030586E+03  0.86182030587E+03  0.50400000000E-02 0. -1.
         -1   -1    0    0    0  501 -0.00000000000E+00 -0.00000000000E+00 -0.12328526257E+04  0.12328526258E+04  0.50400000000E-02 0.  1.
    8880023    1    1    2    0    0 -0.32921348628E+03 -0.54471695533E+03 -0.87642270659E+03  0.12676849166E+04  0.65864270000E+03 0.  0.
    8880022    1    1    2    0    0  0.32921348628E+03  0.54471695533E+03  0.50539038670E+03  0.82698801500E+03  0.15294330000E+03 0.  0.
<mgrwt>
<rscale>  0 0.84214230E+03</rscale>
<asrwt>0</asrwt>
<pdfrwt beam="1">  1        1 0.13258774E+00 0.91591937E+03</pdfrwt>
<pdfrwt beam="2">  1       -1 0.18966963E+00 0.91591937E+03</pdfrwt>
<totfact> 0.35261080E+00</totfact>
</mgrwt>
</event>
<event>
 4    1  0.3712574E-007  0.7558645E+03  0.7818608E-02  0.9815934E-01
         -1   -1    0    0    0  501 -0.00000000000E+00  0.00000000000E+00  0.58567551841E+03  0.58567551843E+03  0.50400000000E-02 0.  1.
          1   -1    0    0  501    0  0.00000000000E+00 -0.00000000000E+00 -0.10941556953E+04  0.10941556953E+04  0.50400000000E-02 0. -1.
    8880023    1    1    2    0    0  0.37029560799E+03 -0.20054269815E+02  0.27117252800E+03  0.80303533997E+03  0.65864270000E+03 0.  0.
    8880022    1    1    2    0    0 -0.37029560799E+03  0.20054269815E+02 -0.77965270489E+03  0.87679587378E+03  0.15294330000E+03 0.  0.
<mgrwt>
<rscale>  0 0.64514415E+03</rscale>
<asrwt>0</asrwt>
<pdfrwt beam="1">  1        1 0.16833165E+00 0.75586455E+03</pdfrwt>
<pdfrwt beam="2">  1       -1 0.90103926E-01 0.75586455E+03</pdfrwt>
<totfact> 0.15901508E+01</totfact>
</mgrwt>
</event>
<event>
 4    1  0.3712574E-007  0.8864619E+03  0.7818608E-02  0.9548124E-01
          1   -1    0    0  501    0  0.00000000000E+00  0.00000000000E+00  0.12110878474E+04  0.12110878474E+04  0.50400000000E-02 0. -1.
         -1   -1    0    0    0  501 -0.00000000000E+00 -0.00000000000E+00 -0.66357239181E+03  0.66357239183E+03  0.50400000000E-02 0.  1.
    8880023    1    1    2    0    0  0.21501457567E+03  0.55296767647E+03 -0.19938490734E+03  0.90860831303E+03  0.65864270000E+03 0.  1.
    8880022    1    1    2    0    0 -0.21501457567E+03 -0.55296767647E+03  0.74690036295E+03  0.96605192622E+03  0.15294330000E+03 0.  0.
<mgrwt>
<rscale>  0 0.80826969E+03</rscale>
<asrwt>0</asrwt>
<pdfrwt beam="1">  1        1 0.18632120E+00 0.88646191E+03</pdfrwt>
<pdfrwt beam="2">  1       -1 0.10208806E+00 0.88646191E+03</pdfrwt>
<totfact> 0.96885884E+00</totfact>
</mgrwt>
</event>
<event>
 4    1  0.3712574E-007  0.1017974E+04  0.7818608E-02  0.9358412E-01
          1   -1    0    0  501    0  0.00000000000E+00  0.00000000000E+00  0.87347609390E+03  0.87347609391E+03  0.50400000000E-02 0. -1.
         -1   -1    0    0    0  501 -0.00000000000E+00 -0.00000000000E+00 -0.11276372383E+04  0.11276372383E+04  0.50400000000E-02 0.  1.
    8880023    1    1    2    0    0  0.11476807018E+03 -0.76765108272E+03 -0.54933018187E+03  0.11567340877E+04  0.65864270000E+03 0.  0.
    8880022    1    1    2    0    0 -0.11476807018E+03  0.76765108272E+03  0.29516903751E+03  0.84437924445E+03  0.15294330000E+03 0.  0.
<mgrwt>
<rscale>  0 0.95578735E+03</rscale>
<asrwt>0</asrwt>
<pdfrwt beam="1">  1        1 0.13438094E+00 0.10179735E+04</pdfrwt>
<pdfrwt beam="2">  1       -1 0.17348265E+00 0.10179735E+04</pdfrwt>
<totfact> 0.44446663E+00</totfact>
</mgrwt>
</event>
<event>
 4    1  0.3712574E-007  0.1163802E+04  0.7818608E-02  0.9193138E-01
          1   -1    0    0  501    0  0.00000000000E+00  0.00000000000E+00  0.15541353060E+04  0.15541353060E+04  0.50400000000E-02 0. -1.
         -1   -1    0    0    0  501 -0.00000000000E+00 -0.00000000000E+00 -0.10009848678E+04  0.10009848678E+04  0.50400000000E-02 0.  1.
    8880023    1    1    2    0    0 -0.85754259565E+03 -0.43040226029E+03  0.95324284071E+03  0.15043628314E+04  0.65864270000E+03 0.  0.
    8880022    1    1    2    0    0  0.85754259565E+03  0.43040226029E+03 -0.40009240246E+03  0.10507573424E+04  0.15294330000E+03 0.  0.
<mgrwt>
<rscale>  0 0.11124535E+04</rscale>
<asrwt>0</asrwt>
<pdfrwt beam="1">  1        1 0.23909774E+00 0.11638022E+04</pdfrwt>
<pdfrwt beam="2">  1       -1 0.15399767E+00 0.11638022E+04</pdfrwt>
<totfact> 0.19203849E+00</totfact>
</mgrwt>
</event>
<event>
 4    1  0.3712574E-007  0.8387027E+03  0.7818608E-02  0.9632631E-01
          1   -1    0    0  501    0  0.00000000000E+00  0.00000000000E+00  0.18016393265E+04  0.18016393265E+04  0.50400000000E-02 0. -1.
         -1   -1    0    0    0  501 -0.00000000000E+00 -0.00000000000E+00 -0.61706103066E+03  0.61706103068E+03  0.50400000000E-02 0.  1.
    8880023    1    1    2    0    0 -0.42477736529E+03 -0.29862384994E+03 -0.25834224857E+03  0.87758927607E+03  0.65864270000E+03 0.  1.
    8880022    1    1    2    0    0  0.42477736529E+03  0.29862384994E+03  0.14429205444E+04  0.15411110811E+04  0.15294330000E+03 0.  0.
<mgrwt>
<rscale>  0 0.75173568E+03</rscale>
<asrwt>0</asrwt>
<pdfrwt beam="1">  1        1 0.27717528E+00 0.83870270E+03</pdfrwt>
<pdfrwt beam="2">  1       -1 0.94932468E-01 0.83870270E+03</pdfrwt>
<totfact> 0.44969908E+00</totfact>
</mgrwt>
</event>
<event>
 4    1  0.3712574E-007  0.7683859E+03  0.7818608E-02  0.9783862E-01
         -1   -1    0    0    0  501 -0.00000000000E+00  0.00000000000E+00  0.56928124471E+03  0.56928124473E+03  0.50400000000E-02 0.  1.
          1   -1    0    0  501    0  0.00000000000E+00 -0.00000000000E+00 -0.83304449375E+03  0.83304449377E+03  0.50400000000E-02 0. -1.
    8880023    1    1    2    0    0  0.27841457539E+03  0.28123307263E+03  0.17915448054E+03  0.78899508940E+03  0.65864270000E+03 0.  1.
    8880022    1    1    2    0    0 -0.27841457539E+03 -0.28123307263E+03 -0.44291772958E+03  0.61333064910E+03  0.15294330000E+03 0.  0.
<mgrwt>
<rscale>  0 0.66235851E+03</rscale>
<asrwt>0</asrwt>
<pdfrwt beam="1">  1        1 0.12816069E+00 0.76838592E+03</pdfrwt>
<pdfrwt beam="2">  1       -1 0.87581730E-01 0.76838592E+03</pdfrwt>
<totfact> 0.27196708E+01</totfact>
</mgrwt>
</event>
<event>
 4    1  0.3712574E-007  0.7456097E+03  0.7818608E-02  0.9843898E-01
         -1   -1    0    0    0  501 -0.00000000000E+00  0.00000000000E+00  0.60480724742E+03  0.60480724744E+03  0.50400000000E-02 0.  1.
          1   -1    0    0  501    0  0.00000000000E+00 -0.00000000000E+00 -0.14588668401E+04  0.14588668402E+04  0.50400000000E-02 0. -1.
    8880023    1    1    2    0    0 -0.32197517246E+03 -0.13585155475E+03  0.33317318874E+03  0.81666286592E+03  0.65864270000E+03 0.  1.
    8880022    1    1    2    0    0  0.32197517246E+03  0.13585155475E+03 -0.11872327815E+04  0.12470112217E+04  0.15294330000E+03 0.  0.
<mgrwt>
<rscale>  0 0.63059026E+03</rscale>
<asrwt>0</asrwt>
<pdfrwt beam="1">  1        1 0.22444105E+00 0.74560973E+03</pdfrwt>
<pdfrwt beam="2">  1       -1 0.93047269E-01 0.74560973E+03</pdfrwt>
<totfact> 0.81486510E+00</totfact>
</mgrwt>
</event>
<event>
 4    1  0.3712574E-007  0.7668874E+03  0.7818608E-02  0.9787592E-01
          1   -1    0    0  501    0  0.00000000000E+00  0.00000000000E+00  0.20192150343E+04  0.20192150343E+04  0.50400000000E-02 0. -1.
         -1   -1    0    0    0  501 -0.00000000000E+00 -0.00000000000E+00 -0.63990151799E+03  0.63990151801E+03  0.50400000000E-02 0.  1.
    8880023    1    1    2    0    0  0.57743422148E+01  0.39277572581E+03 -0.37585288771E+03  0.85403847295E+03  0.65864270000E+03 0.  0.
    8880022    1    1    2    0    0 -0.57743422148E+01 -0.39277572581E+03  0.17551664040E+04  0.18050780794E+04  0.15294330000E+03 0.  0.
<mgrwt>
<rscale>  0 0.66032685E+03</rscale>
<asrwt>0</asrwt>
<pdfrwt beam="1">  1        1 0.31064846E+00 0.76688742E+03</pdfrwt>
<pdfrwt beam="2">  1       -1 0.98446388E-01 0.76688742E+03</pdfrwt>
<totfact> 0.29980474E+00</totfact>
</mgrwt>
</event>
<event>
 4    1  0.3712574E-007  0.9605235E+03  0.7818608E-02  0.9435132E-01
         -1   -1    0    0    0  501 -0.00000000000E+00  0.00000000000E+00  0.49461599256E+03  0.49461599258E+03  0.50400000000E-02 0.  1.
          1   -1    0    0  501    0  0.00000000000E+00 -0.00000000000E+00 -0.36164840039E+04  0.36164840039E+04  0.50400000000E-02 0. -1.
    8880023    1    1    2    0    0 -0.61176663147E+02  0.69645724898E+03 -0.55285142641E+02  0.96211326622E+03  0.65864270000E+03 0.  0.
    8880022    1    1    2    0    0  0.61176663147E+02 -0.69645724898E+03 -0.30665828687E+04  0.31489867302E+04  0.15294330000E+03 0.  0.
<mgrwt>
<rscale>  0 0.89240003E+03</rscale>
<asrwt>0</asrwt>
<pdfrwt beam="1">  1        1 0.55638214E+00 0.96052355E+03</pdfrwt>
<pdfrwt beam="2">  1       -1 0.76094770E-01 0.96052355E+03</pdfrwt>
<totfact> 0.36772247E-01</totfact>
</mgrwt>
</event>
<event>
 4    1  0.3712574E-007  0.6879048E+03  0.7818608E-02  0.1005165E+00
         -1   -1    0    0    0  501 -0.00000000000E+00  0.00000000000E+00  0.23438215066E+03  0.23438215072E+03  0.50400000000E-02 0.  1.
          1   -1    0    0  501    0  0.00000000000E+00 -0.00000000000E+00 -0.10518326866E+04  0.10518326867E+04  0.50400000000E-02 0. -1.
    8880023    1    1    2    0    0 -0.16464788792E+03  0.11087795285E+03 -0.39011003773E+03  0.79082165829E+03  0.65864270000E+03 0.  0.
    8880022    1    1    2    0    0  0.16464788792E+03 -0.11087795285E+03 -0.42734049825E+03  0.49539317908E+03  0.15294330000E+03 0.  0.
<mgrwt>
<rscale>  0 0.53442464E+03</rscale>
<asrwt>0</asrwt>
<pdfrwt beam="1">  1        1 0.16182041E+00 0.68790483E+03</pdfrwt>
<pdfrwt beam="2">  1       -1 0.36058793E-01 0.68790483E+03</pdfrwt>
<totfact> 0.10393476E+02</totfact>
</mgrwt>
</event>
<event>
 4    1  0.3712574E-007  0.1126904E+04  0.7818608E-02  0.9231677E-01
          1   -1    0    0  501    0  0.00000000000E+00  0.00000000000E+00  0.49537033003E+03  0.49537033006E+03  0.50400000000E-02 0. -1.
         -1   -1    0    0    0  501 -0.00000000000E+00 -0.00000000000E+00 -0.39298673571E+04  0.39298673571E+04  0.50400000000E-02 0.  1.
    8880023    1    1    2    0    0  0.16977914146E+03 -0.89848646224E+03 -0.33016629654E+04  0.34886804702E+04  0.65864270000E+03 0.  1.
    8880022    1    1    2    0    0 -0.16977914146E+03  0.89848646224E+03 -0.13283406166E+03  0.93655721697E+03  0.15294330000E+03 0.  0.
<mgrwt>
<rscale>  0 0.10732370E+04</rscale>
<asrwt>0</asrwt>
<pdfrwt beam="1">  1        1 0.76210822E-01 0.11269042E+04</pdfrwt>
<pdfrwt beam="2">  1       -1 0.60459496E+00 0.11269042E+04</pdfrwt>
<totfact> 0.18413421E-02</totfact>
</mgrwt>
</event>
<event>
 4    1  0.3712574E-007  0.9496131E+03  0.7818608E-02  0.9450671E-01
          1   -1    0    0  501    0  0.00000000000E+00  0.00000000000E+00  0.32584201389E+04  0.32584201389E+04  0.50400000000E-02 0. -1.
         -1   -1    0    0    0  501 -0.00000000000E+00 -0.00000000000E+00 -0.42199005857E+03  0.42199005860E+03  0.50400000000E-02 0.  1.
    8880023    1    1    2    0    0  0.62411431303E+03 -0.28006462726E+03  0.22413640347E+03  0.97570600326E+03  0.65864270000E+03 0.  1.
    8880022    1    1    2    0    0 -0.62411431303E+03  0.28006462726E+03  0.26122936769E+04  0.27047041943E+04  0.15294330000E+03 0.  0.
<mgrwt>
<rscale>  0 0.88020436E+03</rscale>
<asrwt>0</asrwt>
<pdfrwt beam="1">  1        1 0.50129541E+00 0.94961312E+03</pdfrwt>
<pdfrwt beam="2">  1       -1 0.64921547E-01 0.94961312E+03</pdfrwt>
<totfact> 0.96355566E-01</totfact>
</mgrwt>
</event>
<event>
 4    1  0.3712574E-007  0.6962724E+03  0.7818608E-02  0.1001303E+00
         -1   -1    0    0    0  501 -0.00000000000E+00  0.00000000000E+00  0.79766436944E+03  0.79766436945E+03  0.50400000000E-02 0.  1.
          1   -1    0    0  501    0  0.00000000000E+00 -0.00000000000E+00 -0.34874341977E+03  0.34874341981E+03  0.50400000000E-02 0. -1.
    8880023    1    1    2    0    0 -0.16011626354E+02  0.22523021899E+03  0.51470907546E+03  0.86586411309E+03  0.65864270000E+03 0.  0.
    8880022    1    1    2    0    0  0.16011626354E+02 -0.22523021899E+03 -0.65788125788E+02  0.28054367616E+03  0.15294330000E+03 0.  0.
<mgrwt>
<rscale>  0 0.55082542E+03</rscale>
<asrwt>0</asrwt>
<pdfrwt beam="1">  1        1 0.53652835E-01 0.69627238E+03</pdfrwt>
<pdfrwt beam="2">  1       -1 0.12271759E+00 0.69627238E+03</pdfrwt>
<totfact> 0.43249982E+01</totfact>
</mgrwt>
</event>
<event>
 4    1  0.3712574E-007  0.6604032E+03  0.7818608E-02  0.1023747E+00
         -1   -1    0    0    0  501 -0.00000000000E+00  0.00000000000E+00  0.38018716653E+03  0.38018716657E+03  0.50400000000E-02 0.  1.
          1   -1    0    0  501    0  0.00000000000E+00 -0.00000000000E+00 -0.48849048225E+03  0.48849048228E+03  0.50400000000E-02 0. -1.
    8880023    1    1    2    0    0 -0.32924307056E+02  0.35188415915E+02  0.23924064427E+02  0.66083644098E+03  0.65864270000E+03 0.  1.
    8880022    1    1    2    0    0  0.32924307056E+02 -0.35188415915E+02 -0.13222738015E+03  0.20784120786E+03  0.15294330000E+03 0.  0.
<mgrwt>
<rscale>  0 0.46358339E+03</rscale>
<asrwt>0</asrwt>
<pdfrwt beam="1">  1        1 0.75152382E-01 0.66040324E+03</pdfrwt>
<pdfrwt beam="2">  1       -1 0.58490333E-01 0.66040324E+03</pdfrwt>
<totfact> 0.13849604E+02</totfact>
</mgrwt>
</event>
<event>
 4    1  0.3712574E-007  0.6848615E+03  0.7818608E-02  0.1006697E+00
          1   -1    0    0  501    0  0.00000000000E+00  0.00000000000E+00  0.26913764758E+04  0.26913764758E+04  0.50400000000E-02 0. -1.
         -1   -1    0    0    0  501 -0.00000000000E+00 -0.00000000000E+00 -0.10309515420E+03  0.10309515433E+03  0.50400000000E-02 0.  1.
    8880023    1    1    2    0    0  0.28842372434E+02  0.18545393724E+03  0.11702502258E+04  0.13559206623E+04  0.65864270000E+03 0.  0.
    8880022    1    1    2    0    0 -0.28842372434E+02 -0.18545393724E+03  0.14180310959E+04  0.14385509679E+04  0.15294330000E+03 0.  0.
<mgrwt>
<rscale>  0 0.52808609E+03</rscale>
<asrwt>0</asrwt>
<pdfrwt beam="1">  1        1 0.41405791E+00 0.68486148E+03</pdfrwt>
<pdfrwt beam="2">  1       -1 0.15860793E-01 0.68486148E+03</pdfrwt>
<totfact> 0.31645633E+01</totfact>
</mgrwt>
</event>
<event>
 4    1  0.3712574E-007  0.7426270E+03  0.7818608E-02  0.9852360E-01
         -1   -1    0    0    0  501 -0.00000000000E+00  0.00000000000E+00  0.30323041662E+03  0.30323041666E+03  0.50400000000E-02 0.  1.
          1   -1    0    0  501    0  0.00000000000E+00 -0.00000000000E+00 -0.12896612995E+04  0.12896612995E+04  0.50400000000E-02 0. -1.
    8880023    1    1    2    0    0 -0.96199268373E+02  0.32928767719E+03 -0.28159343819E+03  0.79422272964E+03  0.65864270000E+03 0.  1.
    8880022    1    1    2    0    0  0.96199268373E+02 -0.32928767719E+03 -0.70483744472E+03  0.79866898656E+03  0.15294330000E+03 0.  0.
<mgrwt>
<rscale>  0 0.62626743E+03</rscale>
<asrwt>0</asrwt>
<pdfrwt beam="1">  1        1 0.19840943E+00 0.74262701E+03</pdfrwt>
<pdfrwt beam="2">  1       -1 0.46650834E-01 0.74262701E+03</pdfrwt>
<totfact> 0.43299631E+01</totfact>
</mgrwt>
</event>
<event>
 4    1  0.3712574E-007  0.7544970E+03  0.7818608E-02  0.9819568E-01
         -1   -1    0    0    0  501 -0.00000000000E+00  0.00000000000E+00  0.26413887251E+03  0.26413887256E+03  0.50400000000E-02 0.  1.
          1   -1    0    0  501    0  0.00000000000E+00 -0.00000000000E+00 -0.24254992189E+04  0.24254992189E+04  0.50400000000E-02 0. -1.
    8880023    1    1    2    0    0 -0.36739741494E+03  0.21786572107E+02 -0.34423015971E+03  0.82931304363E+03  0.65864270000E+03 0.  0.
    8880022    1    1    2    0    0  0.36739741494E+03 -0.21786572107E+02 -0.18171301867E+04  0.18603250478E+04  0.15294330000E+03 0.  0.
<mgrwt>
<rscale>  0 0.64322893E+03</rscale>
<asrwt>0</asrwt>
<pdfrwt beam="1">  1        1 0.37315371E+00 0.75449700E+03</pdfrwt>
<pdfrwt beam="2">  1       -1 0.40636751E-01 0.75449700E+03</pdfrwt>
<totfact> 0.94962266E+00</totfact>
</mgrwt>
</event>
<event>
 4    1  0.3712574E-007  0.1350068E+04  0.7818608E-02  0.9023485E-01
          1   -1    0    0  501    0  0.00000000000E+00  0.00000000000E+00  0.10813000983E+04  0.10813000983E+04  0.50400000000E-02 0. -1.
         -1   -1    0    0    0  501 -0.00000000000E+00 -0.00000000000E+00 -0.15606172720E+04  0.15606172720E+04  0.50400000000E-02 0.  1.
    8880023    1    1    2    0    0  0.92547796455E+03  0.72963366507E+03 -0.53504035181E+03  0.14522235132E+04  0.65864270000E+03 0.  1.
    8880022    1    1    2    0    0 -0.92547796455E+03 -0.72963366507E+03  0.55723178087E+02  0.11896938571E+04  0.15294330000E+03 0. -1.
<mgrwt>
<rscale>  0 0.13076949E+04</rscale>
<asrwt>0</asrwt>
<pdfrwt beam="1">  1        1 0.16635386E+00 0.13500685E+04</pdfrwt>
<pdfrwt beam="2">  1       -1 0.24009497E+00 0.13500685E+04</pdfrwt>
<totfact> 0.10233153E+00</totfact>
</mgrwt>
</event>
<event>
 4    1  0.3712574E-007  0.7354883E+03  0.7818608E-02  0.9873290E-01
         -1   -1    0    0    0  501 -0.00000000000E+00  0.00000000000E+00  0.16062955286E+03  0.16062955294E+03  0.50400000000E-02 0.  1.
          1   -1    0    0  501    0  0.00000000000E+00 -0.00000000000E+00 -0.22114248694E+04  0.22114248694E+04  0.50400000000E-02 0. -1.
    8880023    1    1    2    0    0 -0.21847622258E+03 -0.24372325943E+03 -0.88052894598E+03  0.11472899886E+04  0.65864270000E+03 0.  0.
    8880022    1    1    2    0    0  0.21847622258E+03  0.24372325943E+03 -0.11702663705E+04  0.12247644337E+04  0.15294330000E+03 0.  0.
<mgrwt>
<rscale>  0 0.61573432E+03</rscale>
<asrwt>0</asrwt>
<pdfrwt beam="1">  1        1 0.34021919E+00 0.73548834E+03</pdfrwt>
<pdfrwt beam="2">  1       -1 0.24712241E-01 0.73548834E+03</pdfrwt>
<totfact> 0.31849479E+01</totfact>
</mgrwt>
</event>
<event>
 4    1  0.3712574E-007  0.1222813E+04  0.7818608E-02  0.9135259E-01
         -1   -1    0    0    0  501 -0.00000000000E+00  0.00000000000E+00  0.10676806399E+04  0.10676806399E+04  0.50400000000E-02 0.  1.
          1   -1    0    0  501    0  0.00000000000E+00 -0.00000000000E+00 -0.16961254536E+04  0.16961254536E+04  0.50400000000E-02 0. -1.
    8880023    1    1    2    0    0  0.17853824129E+03 -0.10146852752E+04  0.41321641336E+03  0.12907440187E+04  0.65864270000E+03 0.  0.
    8880022    1    1    2    0    0 -0.17853824129E+03  0.10146852752E+04 -0.10416612271E+04  0.14730620748E+04  0.15294330000E+03 0.  0.
<mgrwt>
<rscale>  0 0.11747393E+04</rscale>
<asrwt>0</asrwt>
<pdfrwt beam="1">  1        1 0.26094238E+00 0.12228133E+04</pdfrwt>
<pdfrwt beam="2">  1       -1 0.16425856E+00 0.12228133E+04</pdfrwt>
<totfact> 0.12731096E+00</totfact>
</mgrwt>
</event>
<event>
 4    1  0.3712574E-007  0.6695100E+03  0.7818608E-02  0.1016017E+00
         -1   -1    0    0    0  501 -0.00000000000E+00  0.00000000000E+00  0.26635881683E+03  0.26635881688E+03  0.50400000000E-02 0.  1.
          1   -1    0    0  501    0  0.00000000000E+00 -0.00000000000E+00 -0.10773206197E+04  0.10773206198E+04  0.50400000000E-02 0. -1.
    8880023    1    1    2    0    0  0.11991339257E+03 -0.73662550527E+01 -0.19438736937E+03  0.69715861830E+03  0.65864270000E+03 0.  1.
    8880022    1    1    2    0    0 -0.11991339257E+03  0.73662550527E+01 -0.61657443355E+03  0.64652081834E+03  0.15294330000E+03 0.  0.
<mgrwt>
<rscale>  0 0.49151908E+03</rscale>
<asrwt>0</asrwt>
<pdfrwt beam="1">  1        1 0.16574163E+00 0.66951004E+03</pdfrwt>
<pdfrwt beam="2">  1       -1 0.40978280E-01 0.66951004E+03</pdfrwt>
<totfact> 0.79088358E+01</totfact>
</mgrwt>
</event>
<event>
 4    1  0.3712574E-007  0.8381101E+03  0.7818608E-02  0.9633754E-01
          1   -1    0    0  501    0  0.00000000000E+00  0.00000000000E+00  0.21516478551E+04  0.21516478551E+04  0.50400000000E-02 0. -1.
         -1   -1    0    0    0  501 -0.00000000000E+00 -0.00000000000E+00 -0.29656256542E+03  0.29656256546E+03  0.50400000000E-02 0.  1.
    8880023    1    1    2    0    0  0.49500692348E+03 -0.15357863322E+03  0.46876922124E+03  0.96029841191E+03  0.65864270000E+03 0.  0.
    8880022    1    1    2    0    0 -0.49500692348E+03  0.15357863322E+03  0.13863160685E+04  0.14879120087E+04  0.15294330000E+03 0.  0.
<mgrwt>
<rscale>  0 0.75101824E+03</rscale>
<asrwt>0</asrwt>
<pdfrwt beam="1">  1        1 0.33102275E+00 0.83811005E+03</pdfrwt>
<pdfrwt beam="2">  1       -1 0.45625009E-01 0.83811005E+03</pdfrwt>
<totfact> 0.11593874E+01</totfact>
</mgrwt>
</event>
<event>
 4    1  0.3712574E-007  0.7044993E+03  0.7818608E-02  0.9979024E-01
          1   -1    0    0  501    0  0.00000000000E+00  0.00000000000E+00  0.95421064828E+03  0.95421064829E+03  0.50400000000E-02 0. -1.
         -1   -1    0    0    0  501 -0.00000000000E+00 -0.00000000000E+00 -0.40337931393E+03  0.40337931396E+03  0.50400000000E-02 0.  1.
    8880023    1    1    2    0    0  0.24977357196E+03 -0.11057572061E+02 -0.31988555791E+02  0.70522519886E+03  0.65864270000E+03 0.  1.
    8880022    1    1    2    0    0 -0.24977357196E+03  0.11057572061E+02  0.58281989014E+03  0.65236476339E+03  0.15294330000E+03 0.  0.
<mgrwt>
<rscale>  0 0.56579625E+03</rscale>
<asrwt>0</asrwt>
<pdfrwt beam="1">  1        1 0.14680164E+00 0.70449934E+03</pdfrwt>
<pdfrwt beam="2">  1       -1 0.62058356E-01 0.70449934E+03</pdfrwt>
<totfact> 0.44584233E+01</totfact>
</mgrwt>
</event>
<event>
 4    1  0.3712574E-007  0.6607313E+03  0.7818608E-02  0.1023419E+00
         -1   -1    0    0    0  501 -0.00000000000E+00  0.00000000000E+00  0.13090904642E+03  0.13090904652E+03  0.50400000000E-02 0.  1.
          1   -1    0    0  501    0  0.00000000000E+00 -0.00000000000E+00 -0.19073438290E+04  0.19073438290E+04  0.50400000000E-02 0. -1.
    8880023    1    1    2    0    0 -0.34349326201E+02 -0.39695841281E+02 -0.75157569822E+03  0.10007156801E+04  0.65864270000E+03 0.  1.
    8880022    1    1    2    0    0  0.34349326201E+02  0.39695841281E+02 -0.10248590843E+04  0.10375371954E+04  0.15294330000E+03 0.  0.
<mgrwt>
<rscale>  0 0.46472602E+03</rscale>
<asrwt>0</asrwt>
<pdfrwt beam="1">  1        1 0.29343749E+00 0.66073129E+03</pdfrwt>
<pdfrwt beam="2">  1       -1 0.20139855E-01 0.66073129E+03</pdfrwt>
<totfact> 0.72431063E+01</totfact>
</mgrwt>
</event>
<event>
 4    1  0.3712574E-007  0.7373321E+03  0.7818608E-02  0.9867788E-01
         -1   -1    0    0    0  501 -0.00000000000E+00  0.00000000000E+00  0.21775618041E+04  0.21775618041E+04  0.50400000000E-02 0.  1.
          1   -1    0    0  501    0  0.00000000000E+00 -0.00000000000E+00 -0.24090213216E+03  0.24090213221E+03  0.50400000000E-02 0. -1.
    8880023    1    1    2    0    0 -0.32188984131E+03  0.78964666733E+02  0.19158653588E+04  0.20528513750E+04  0.65864270000E+03 0.  1.
    8880022    1    1    2    0    0  0.32188984131E+03 -0.78964666733E+02  0.20794313160E+02  0.36561256133E+03  0.15294330000E+03 0.  0.
<mgrwt>
<rscale>  0 0.61848157E+03</rscale>
<asrwt>0</asrwt>
<pdfrwt beam="1">  1        1 0.37061866E-01 0.73733215E+03</pdfrwt>
<pdfrwt beam="2">  1       -1 0.33500951E+00 0.73733215E+03</pdfrwt>
<totfact> 0.24059876E+00</totfact>
</mgrwt>
</event>
<event>
 4    1  0.3712574E-007  0.1038060E+04  0.7818608E-02  0.9333374E-01
          1   -1    0    0  501    0  0.00000000000E+00  0.00000000000E+00  0.25407019891E+04  0.25407019891E+04  0.50400000000E-02 0. -1.
         -1   -1    0    0    0  501 -0.00000000000E+00 -0.00000000000E+00 -0.63642055332E+03  0.63642055334E+03  0.50400000000E-02 0.  1.
    8880023    1    1    2    0    0  0.52475509495E+03 -0.60695251387E+03 -0.70134190008E+02  0.10404269675E+04  0.65864270000E+03 0.  1.
    8880022    1    1    2    0    0 -0.52475509495E+03  0.60695251387E+03  0.19744156257E+04  0.21366955749E+04  0.15294330000E+03 0.  0.
<mgrwt>
<rscale>  0 0.97767608E+03</rscale>
<asrwt>0</asrwt>
<pdfrwt beam="1">  1        1 0.39087722E+00 0.10380604E+04</pdfrwt>
<pdfrwt beam="2">  1       -1 0.97910856E-01 0.10380604E+04</pdfrwt>
<totfact> 0.12863455E+00</totfact>
</mgrwt>
</event>
<event>
 4    1  0.3712574E-007  0.7946675E+03  0.7818608E-02  0.9722447E-01
          1   -1    0    0  501    0  0.00000000000E+00  0.00000000000E+00  0.21138042475E+04  0.21138042475E+04  0.50400000000E-02 0. -1.
         -1   -1    0    0    0  501 -0.00000000000E+00 -0.00000000000E+00 -0.24444454655E+03  0.24444454660E+03  0.50400000000E-02 0.  1.
    8880023    1    1    2    0    0  0.29323087477E+03  0.33421823300E+03  0.57427608258E+03  0.98045366972E+03  0.65864270000E+03 0.  1.
    8880022    1    1    2    0    0 -0.29323087477E+03 -0.33421823300E+03  0.12950836184E+04  0.13777951244E+04  0.15294330000E+03 0.  0.
<mgrwt>
<rscale>  0 0.69695899E+03</rscale>
<asrwt>0</asrwt>
<pdfrwt beam="1">  1        1 0.32520065E+00 0.79466746E+03</pdfrwt>
<pdfrwt beam="2">  1       -1 0.37606854E-01 0.79466746E+03</pdfrwt>
<totfact> 0.17624811E+01</totfact>
</mgrwt>
</event>
<event>
 4    1  0.3712574E-007  0.7081664E+03  0.7818608E-02  0.9964874E-01
          1   -1    0    0  501    0  0.00000000000E+00  0.00000000000E+00  0.79743998935E+03  0.79743998937E+03  0.50400000000E-02 0. -1.
         -1   -1    0    0    0  501 -0.00000000000E+00 -0.00000000000E+00 -0.72718526100E+03  0.72718526102E+03  0.50400000000E-02 0.  1.
    8880023    1    1    2    0    0 -0.31806201640E+02 -0.25822051802E+03 -0.50856001670E+03  0.87185604731E+03  0.65864270000E+03 0.  1.
    8880022    1    1    2    0    0  0.31806201640E+02  0.25822051802E+03  0.57881474505E+03  0.65276920308E+03  0.15294330000E+03 0.  0.
<mgrwt>
<rscale>  0 0.57217654E+03</rscale>
<asrwt>0</asrwt>
<pdfrwt beam="1">  1        1 0.12268307E+00 0.70816642E+03</pdfrwt>
<pdfrwt beam="2">  1       -1 0.11187466E+00 0.70816642E+03</pdfrwt>
<totfact> 0.16842992E+01</totfact>
</mgrwt>
</event>
<event>
 4    1  0.3712574E-007  0.6618725E+03  0.7818608E-02  0.1022315E+00
         -1   -1    0    0    0  501 -0.00000000000E+00  0.00000000000E+00  0.37533942925E+03  0.37533942929E+03  0.50400000000E-02 0.  1.
          1   -1    0    0  501    0  0.00000000000E+00 -0.00000000000E+00 -0.28916439163E+04  0.28916439163E+04  0.50400000000E-02 0. -1.
    8880023    1    1    2    0    0  0.18293667455E+02 -0.62692806540E+02  0.78807926036E+02  0.66654777903E+03  0.65864270000E+03 0.  1.
    8880022    1    1    2    0    0 -0.18293667455E+02  0.62692806540E+02 -0.25951124131E+04  0.26004355665E+04  0.15294330000E+03 0.  0.
<mgrwt>
<rscale>  0 0.46860381E+03</rscale>
<asrwt>0</asrwt>
<pdfrwt beam="1">  1        1 0.44486828E+00 0.66187253E+03</pdfrwt>
<pdfrwt beam="2">  1       -1 0.57744529E-01 0.66187253E+03</pdfrwt>
<totfact> 0.23765787E+00</totfact>
</mgrwt>
</event>
<event>
 4    1  0.3712574E-007  0.9188667E+03  0.7818608E-02  0.9496399E-01
         -1   -1    0    0    0  501 -0.00000000000E+00  0.00000000000E+00  0.11871569916E+04  0.11871569916E+04  0.50400000000E-02 0.  1.
          1   -1    0    0  501    0  0.00000000000E+00 -0.00000000000E+00 -0.12110882400E+04  0.12110882400E+04  0.50400000000E-02 0. -1.
    8880023    1    1    2    0    0  0.45440613022E+03  0.45168677352E+03  0.88498203113E+03  0.12757387171E+04  0.65864270000E+03 0.  0.
    8880022    1    1    2    0    0 -0.45440613022E+03 -0.45168677352E+03 -0.90891327951E+03  0.11225065146E+04  0.15294330000E+03 0.  0.
<mgrwt>
<rscale>  0 0.84549841E+03</rscale>
<asrwt>0</asrwt>
<pdfrwt beam="1">  1        1 0.18632127E+00 0.91886674E+03</pdfrwt>
<pdfrwt beam="2">  1       -1 0.18263954E+00 0.91886674E+03</pdfrwt>
<totfact> 0.21226551E+00</totfact>
</mgrwt>
</event>
<event>
 4    1  0.3712574E-007  0.7825494E+03  0.7818608E-02  0.9749882E-01
         -1   -1    0    0    0  501 -0.00000000000E+00  0.00000000000E+00  0.22679398517E+03  0.22679398522E+03  0.50400000000E-02 0.  1.
          1   -1    0    0  501    0  0.00000000000E+00 -0.00000000000E+00 -0.29151783300E+04  0.29151783300E+04  0.50400000000E-02 0. -1.
    8880023    1    1    2    0    0  0.20788532530E+03 -0.36790898356E+03 -0.54906168342E+03  0.95595620565E+03  0.65864270000E+03 0.  1.
    8880022    1    1    2    0    0 -0.20788532530E+03  0.36790898356E+03 -0.21393226614E+04  0.21860161095E+04  0.15294330000E+03 0.  0.
<mgrwt>
<rscale>  0 0.68122931E+03</rscale>
<asrwt>0</asrwt>
<pdfrwt beam="1">  1        1 0.44848895E+00 0.78254938E+03</pdfrwt>
<pdfrwt beam="2">  1       -1 0.34891384E-01 0.78254938E+03</pdfrwt>
<totfact> 0.56923187E+00</totfact>
</mgrwt>
</event>
<event>
 4    1  0.3712574E-007  0.7896169E+03  0.7818608E-02  0.9733713E-01
         -1   -1    0    0    0  501 -0.00000000000E+00  0.00000000000E+00  0.53660658635E+03  0.53660658637E+03  0.50400000000E-02 0.  1.
          1   -1    0    0  501    0  0.00000000000E+00 -0.00000000000E+00 -0.19932298653E+04  0.19932298653E+04  0.50400000000E-02 0. -1.
    8880023    1    1    2    0    0 -0.42349276445E+03 -0.10167890232E+03  0.19631435845E+03  0.81365487420E+03  0.65864270000E+03 0.  0.
    8880022    1    1    2    0    0  0.42349276445E+03  0.10167890232E+03 -0.16529376374E+04  0.17161815775E+04  0.15294330000E+03 0.  0.
<mgrwt>
<rscale>  0 0.69044527E+03</rscale>
<asrwt>0</asrwt>
<pdfrwt beam="1">  1        1 0.30665074E+00 0.78961695E+03</pdfrwt>
<pdfrwt beam="2">  1       -1 0.82554861E-01 0.78961695E+03</pdfrwt>
<totfact> 0.45811061E+00</totfact>
</mgrwt>
</event>
<event>
 4    1  0.3712574E-007  0.7192035E+03  0.7818608E-02  0.9925290E-01
          1   -1    0    0  501    0  0.00000000000E+00  0.00000000000E+00  0.16905090347E+04  0.16905090347E+04  0.50400000000E-02 0. -1.
         -1   -1    0    0    0  501 -0.00000000000E+00 -0.00000000000E+00 -0.34672363182E+03  0.34672363185E+03  0.50400000000E-02 0.  1.
    8880023    1    1    2    0    0 -0.92350628012E+02  0.27370586398E+03  0.70484756280E+02  0.72264918571E+03  0.65864270000E+03 0.  0.
    8880022    1    1    2    0    0  0.92350628012E+02 -0.27370586398E+03  0.12733006466E+04  0.13145834809E+04  0.15294330000E+03 0.  0.
<mgrwt>
<rscale>  0 0.59051123E+03</rscale>
<asrwt>0</asrwt>
<pdfrwt beam="1">  1        1 0.26007831E+00 0.71920355E+03</pdfrwt>
<pdfrwt beam="2">  1       -1 0.53342098E-01 0.71920355E+03</pdfrwt>
<totfact> 0.17874393E+01</totfact>
</mgrwt>
</event>
<event>
 4    1  0.3712574E-007  0.7235149E+03  0.7818608E-02  0.9910867E-01
          1   -1    0    0  501    0  0.00000000000E+00  0.00000000000E+00  0.58408139109E+03  0.58408139111E+03  0.50400000000E-02 0. -1.
         -1   -1    0    0    0  501 -0.00000000000E+00 -0.00000000000E+00 -0.10494639728E+04  0.10494639728E+04  0.50400000000E-02 0.  1.
    8880023    1    1    2    0    0  0.27675341142E+03 -0.11432895177E+03 -0.85424915304E+03  0.11194710276E+04  0.65864270000E+03 0.  1.
    8880022    1    1    2    0    0 -0.27675341142E+03  0.11432895177E+03  0.38886657133E+03  0.51407433631E+03  0.15294330000E+03 0.  0.
<mgrwt>
<rscale>  0 0.59737483E+03</rscale>
<asrwt>0</asrwt>
<pdfrwt beam="1">  1        1 0.89858676E-01 0.72351487E+03</pdfrwt>
<pdfrwt beam="2">  1       -1 0.16145600E+00 0.72351487E+03</pdfrwt>
<totfact> 0.10486413E+01</totfact>
</mgrwt>
</event>
<event>
 4    1  0.3712574E-007  0.8897098E+03  0.7818608E-02  0.9542757E-01
          1   -1    0    0  501    0  0.00000000000E+00  0.00000000000E+00  0.92473493081E+03  0.92473493082E+03  0.50400000000E-02 0. -1.
         -1   -1    0    0    0  501 -0.00000000000E+00 -0.00000000000E+00 -0.10209533506E+04  0.10209533506E+04  0.50400000000E-02 0.  1.
    8880023    1    1    2    0    0  0.58782276832E+03  0.11062439976E+03 -0.66144305622E+03  0.11086435350E+04  0.65864270000E+03 0.  0.
    8880022    1    1    2    0    0 -0.58782276832E+03 -0.11062439976E+03  0.56522463648E+03  0.83704474640E+03  0.15294330000E+03 0.  0.
<mgrwt>
<rscale>  0 0.81203625E+03</rscale>
<asrwt>0</asrwt>
<pdfrwt beam="1">  1        1 0.14226691E+00 0.88970982E+03</pdfrwt>
<pdfrwt beam="2">  1       -1 0.15706975E+00 0.88970982E+03</pdfrwt>
<totfact> 0.54281115E+00</totfact>
</mgrwt>
</event>
<event>
 4    1  0.4285530E-007  0.6948683E+03  0.7818608E-02  0.1001919E+00
          1   -1    0    0  501    0  0.00000000000E+00  0.00000000000E+00  0.43143619946E+04  0.43143619946E+04  0.50400000000E-02 0. -1.
         -1   -1    0    0    0  501 -0.00000000000E+00 -0.00000000000E+00 -0.91464427305E+03  0.91464427306E+03  0.50400000000E-02 0.  1.
    8880023    1    1    2    0    0 -0.21508752978E+03  0.52621819161E+02 -0.77771151514E+03  0.10429175942E+04  0.65864270000E+03 0.  1.
    8880022    1    1    2    0    0  0.21508752978E+03 -0.52621819161E+02  0.41774292367E+04  0.41860886734E+04  0.15294330000E+03 0.  0.
<mgrwt>
<rscale>  0 0.54816549E+03</rscale>
<asrwt>0</asrwt>
<pdfrwt beam="1">  1        1 0.66374799E+00 0.69486827E+03</pdfrwt>
<pdfrwt beam="2">  1       -1 0.14071451E+00 0.69486827E+03</pdfrwt>
<totfact> 0.23721415E-02</totfact>
</mgrwt>
</event>
<event>
 4    1  0.3712574E-007  0.9720665E+03  0.7818608E-02  0.9419052E-01
         -1   -1    0    0    0  501 -0.00000000000E+00  0.00000000000E+00  0.93502221807E+03  0.93502221808E+03  0.50400000000E-02 0.  1.
          1   -1    0    0  501    0  0.00000000000E+00 -0.00000000000E+00 -0.11998710424E+04  0.11998710424E+04  0.50400000000E-02 0. -1.
    8880023    1    1    2    0    0 -0.68587657683E+03 -0.20168407293E+03 -0.77517517290E+03  0.12433060359E+04  0.65864270000E+03 0. -1.
    8880022    1    1    2    0    0  0.68587657683E+03  0.20168407293E+03  0.51032634861E+03  0.89158722457E+03  0.15294330000E+03 0.  0.
<mgrwt>
<rscale>  0 0.90524249E+03</rscale>
<asrwt>0</asrwt>
<pdfrwt beam="1">  1        1 0.18459555E+00 0.97206654E+03</pdfrwt>
<pdfrwt beam="2">  1       -1 0.14384957E+00 0.97206654E+03</pdfrwt>
<totfact> 0.41993448E+00</totfact>
</mgrwt>
</event>
<event>
 4    1  0.3712574E-007  0.8625041E+03  0.7818608E-02  0.9589124E-01
         -1   -1    0    0    0  501 -0.00000000000E+00  0.00000000000E+00  0.84896701526E+03  0.84896701527E+03  0.50400000000E-02 0.  1.
          1   -1    0    0  501    0  0.00000000000E+00 -0.00000000000E+00 -0.83737216956E+03  0.83737216957E+03  0.50400000000E-02 0. -1.
    8880023    1    1    2    0    0 -0.22962695280E+03 -0.50732103501E+03 -0.42581820749E+03  0.96189111760E+03  0.65864270000E+03 0.  0.
    8880022    1    1    2    0    0  0.22962695280E+03  0.50732103501E+03  0.43741305320E+03  0.72444806725E+03  0.15294330000E+03 0.  0.
<mgrwt>
<rscale>  0 0.78020194E+03</rscale>
<asrwt>0</asrwt>
<pdfrwt beam="1">  1        1 0.12882649E+00 0.86250413E+03</pdfrwt>
<pdfrwt beam="2">  1       -1 0.13061031E+00 0.86250413E+03</pdfrwt>
<totfact> 0.10461537E+01</totfact>
</mgrwt>
</event>
<event>
 4    1  0.3712574E-007  0.7039297E+03  0.7818608E-02  0.9981274E-01
          1   -1    0    0  501    0  0.00000000000E+00  0.00000000000E+00  0.28178990141E+04  0.28178990141E+04  0.50400000000E-02 0. -1.
         -1   -1    0    0    0  501 -0.00000000000E+00 -0.00000000000E+00 -0.22728983915E+03  0.22728983921E+03  0.50400000000E-02 0.  1.
    8880023    1    1    2    0    0  0.21996372773E+03 -0.11542428673E+03  0.35086291837E+03  0.78652514342E+03  0.65864270000E+03 0.  0.
    8880022    1    1    2    0    0 -0.21996372773E+03  0.11542428673E+03  0.22397462566E+04  0.22586637099E+04  0.15294330000E+03 0.  0.
<mgrwt>
<rscale>  0 0.56479023E+03</rscale>
<asrwt>0</asrwt>
<pdfrwt beam="1">  1        1 0.43352292E+00 0.70392969E+03</pdfrwt>
<pdfrwt beam="2">  1       -1 0.34967668E-01 0.70392969E+03</pdfrwt>
<totfact> 0.67359410E+00</totfact>
</mgrwt>
</event>
<event>
 4    1  0.3712574E-007  0.6690751E+03  0.7818608E-02  0.1016335E+00
          1   -1    0    0  501    0  0.00000000000E+00  0.00000000000E+00  0.31528724077E+04  0.31528724077E+04  0.50400000000E-02 0. -1.
         -1   -1    0    0    0  501 -0.00000000000E+00 -0.00000000000E+00 -0.93348810037E+02  0.93348810173E+02  0.50400000000E-02 0.  1.
    8880023    1    1    2    0    0 -0.84858428334E+02 -0.81549811000E+02  0.11773836035E+04  0.13542133069E+04  0.65864270000E+03 0.  1.
    8880022    1    1    2    0    0  0.84858428334E+02  0.81549811000E+02  0.18821399942E+04  0.18920079110E+04  0.15294330000E+03 0.  0.
<mgrwt>
<rscale>  0 0.49032802E+03</rscale>
<asrwt>0</asrwt>
<pdfrwt beam="1">  1        1 0.48505722E+00 0.66907513E+03</pdfrwt>
<pdfrwt beam="2">  1       -1 0.14361358E-01 0.66907513E+03</pdfrwt>
<totfact> 0.17539890E+01</totfact>
</mgrwt>
</event>
<event>
 4    1  0.3712574E-007  0.9644718E+03  0.7818608E-02  0.9429591E-01
          1   -1    0    0  501    0  0.00000000000E+00  0.00000000000E+00  0.12747084293E+04  0.12747084293E+04  0.50400000000E-02 0. -1.
         -1   -1    0    0    0  501 -0.00000000000E+00 -0.00000000000E+00 -0.74823748440E+03  0.74823748442E+03  0.50400000000E-02 0.  1.
    8880023    1    1    2    0    0 -0.70448973249E+03 -0.94801591761E+01  0.79875090770E+03  0.12522814681E+04  0.65864270000E+03 0. -1.
    8880022    1    1    2    0    0  0.70448973249E+03  0.94801591761E+01 -0.27227996278E+03  0.77066444562E+03  0.15294330000E+03 0.  1.
<mgrwt>
<rscale>  0 0.89679951E+03</rscale>
<asrwt>0</asrwt>
<pdfrwt beam="1">  1        1 0.19610899E+00 0.96447181E+03</pdfrwt>
<pdfrwt beam="2">  1       -1 0.11511346E+00 0.96447181E+03</pdfrwt>
<totfact> 0.65099724E+00</totfact>
</mgrwt>
</event>
<event>
 4    1  0.3712574E-007  0.1009614E+04  0.7818608E-02  0.9369087E-01
         -1   -1    0    0    0  501 -0.00000000000E+00  0.00000000000E+00  0.12030159962E+04  0.12030159962E+04  0.50400000000E-02 0.  1.
          1   -1    0    0  501    0  0.00000000000E+00 -0.00000000000E+00 -0.21807307109E+04  0.21807307109E+04  0.50400000000E-02 0. -1.
    8880023    1    1    2    0    0  0.43469950299E+03 -0.62971891483E+03  0.89862996487E+03  0.13516122187E+04  0.65864270000E+03 0.  0.
    8880022    1    1    2    0    0 -0.43469950299E+03  0.62971891483E+03 -0.18763446795E+04  0.20321344884E+04  0.15294330000E+03 0.  0.
<mgrwt>
<rscale>  0 0.94663983E+03</rscale>
<asrwt>0</asrwt>
<pdfrwt beam="1">  1        1 0.33549703E+00 0.10096137E+04</pdfrwt>
<pdfrwt beam="2">  1       -1 0.18507938E+00 0.10096137E+04</pdfrwt>
<totfact> 0.43534453E-01</totfact>
</mgrwt>
</event>
<event>
 4    1  0.3712574E-007  0.6801487E+03  0.7818608E-02  0.1009240E+00
         -1   -1    0    0    0  501 -0.00000000000E+00  0.00000000000E+00  0.11786417215E+04  0.11786417215E+04  0.50400000000E-02 0.  1.
          1   -1    0    0  501    0  0.00000000000E+00 -0.00000000000E+00 -0.24139514530E+03  0.24139514536E+03  0.50400000000E-02 0. -1.
    8880023    1    1    2    0    0 -0.14671145330E+03  0.85251210821E+02  0.97470318847E+03  0.11885489184E+04  0.65864270000E+03 0.  1.
    8880022    1    1    2    0    0  0.14671145330E+03 -0.85251210821E+02 -0.37456612286E+02  0.23148794849E+03  0.15294330000E+03 0.  0.
<mgrwt>
<rscale>  0 0.51777935E+03</rscale>
<asrwt>0</asrwt>
<pdfrwt beam="1">  1        1 0.37137714E-01 0.68014868E+03</pdfrwt>
<pdfrwt beam="2">  1       -1 0.18132950E+00 0.68014868E+03</pdfrwt>
<totfact> 0.24448706E+01</totfact>
</mgrwt>
</event>
<event>
 4    1  0.3712574E-007  0.7639146E+03  0.7818608E-02  0.9795076E-01
          1   -1    0    0  501    0  0.00000000000E+00  0.00000000000E+00  0.91517948711E+03  0.91517948712E+03  0.50400000000E-02 0. -1.
         -1   -1    0    0    0  501 -0.00000000000E+00 -0.00000000000E+00 -0.43011264770E+03  0.43011264773E+03  0.50400000000E-02 0.  1.
    8880023    1    1    2    0    0  0.37681763794E+03  0.88112523607E+02  0.85983944126E+02  0.76873844316E+03  0.65864270000E+03 0.  1.
    8880022    1    1    2    0    0 -0.37681763794E+03 -0.88112523607E+02  0.39908289528E+03  0.57655369169E+03  0.15294330000E+03 0.  0.
<mgrwt>
<rscale>  0 0.65627444E+03</rscale>
<asrwt>0</asrwt>
<pdfrwt beam="1">  1        1 0.14079684E+00 0.76391463E+03</pdfrwt>
<pdfrwt beam="2">  1       -1 0.66171177E-01 0.76391463E+03</pdfrwt>
<totfact> 0.41876040E+01</totfact>
</mgrwt>
</event>
<event>
 4    1  0.3712574E-007  0.6604914E+03  0.7818608E-02  0.1023659E+00
          1   -1    0    0  501    0  0.00000000000E+00  0.00000000000E+00  0.23455950176E+04  0.23455950176E+04  0.50400000000E-02 0. -1.
         -1   -1    0    0    0  501 -0.00000000000E+00 -0.00000000000E+00 -0.11506446360E+03  0.11506446371E+03  0.50400000000E-02 0.  1.
    8880023    1    1    2    0    0  0.47099373213E+02  0.14844159058E+02  0.87842567769E+03  0.10990362039E+04  0.65864270000E+03 0.  1.
    8880022    1    1    2    0    0 -0.47099373213E+02 -0.14844159058E+02  0.13521048763E+04  0.13616232774E+04  0.15294330000E+03 0.  0.
<mgrwt>
<rscale>  0 0.46389178E+03</rscale>
<asrwt>0</asrwt>
<pdfrwt beam="1">  1        1 0.36086076E+00 0.66049141E+03</pdfrwt>
<pdfrwt beam="2">  1       -1 0.17702226E-01 0.66049141E+03</pdfrwt>
<totfact> 0.45672332E+01</totfact>
</mgrwt>
</event>
<event>
 4    1  0.3712574E-007  0.6611933E+03  0.7818608E-02  0.1022966E+00
          1   -1    0    0  501    0  0.00000000000E+00  0.00000000000E+00  0.37410754508E+03  0.37410754511E+03  0.50400000000E-02 0. -1.
         -1   -1    0    0    0  501 -0.00000000000E+00 -0.00000000000E+00 -0.10583946646E+04  0.10583946647E+04  0.50400000000E-02 0.  1.
    8880023    1    1    2    0    0 -0.18987475702E+02  0.54826107955E+02 -0.92771166656E+03  0.11392214749E+04  0.65864270000E+03 0.  1.
    8880022    1    1    2    0    0  0.18987475702E+02 -0.54826107955E+02  0.24342454700E+03  0.29328073486E+03  0.15294330000E+03 0.  0.
<mgrwt>
<rscale>  0 0.46631375E+03</rscale>
<asrwt>0</asrwt>
<pdfrwt beam="1">  1        1 0.57555007E-01 0.66119334E+03</pdfrwt>
<pdfrwt beam="2">  1       -1 0.16282995E+00 0.66119334E+03</pdfrwt>
<totfact> 0.18912019E+01</totfact>
</mgrwt>
</event>
<event>
 4    1  0.3712574E-007  0.6608773E+03  0.7818608E-02  0.1023275E+00
         -1   -1    0    0    0  501 -0.00000000000E+00  0.00000000000E+00  0.11450314954E+03  0.11450314965E+03  0.50400000000E-02 0.  1.
          1   -1    0    0  501    0  0.00000000000E+00 -0.00000000000E+00 -0.19782371428E+04  0.19782371428E+04  0.50400000000E-02 0. -1.
    8880023    1    1    2    0    0 -0.13699701181E+02 -0.52544626363E+02 -0.90641060201E+03  0.11217571062E+04  0.65864270000E+03 0.  1.
    8880022    1    1    2    0    0  0.13699701181E+02  0.52544626363E+02 -0.95732339124E+03  0.97098318626E+03  0.15294330000E+03 0.  0.
<mgrwt>
<rscale>  0 0.46523049E+03</rscale>
<asrwt>0</asrwt>
<pdfrwt beam="1">  1        1 0.30434415E+00 0.66087732E+03</pdfrwt>
<pdfrwt beam="2">  1       -1 0.17615871E-01 0.66087732E+03</pdfrwt>
<totfact> 0.81068679E+01</totfact>
</mgrwt>
</event>
<event>
 4    1  0.3712574E-007  0.6787815E+03  0.7818608E-02  0.1010021E+00
          1   -1    0    0  501    0  0.00000000000E+00  0.00000000000E+00  0.12376765990E+04  0.12376765990E+04  0.50400000000E-02 0. -1.
         -1   -1    0    0    0  501 -0.00000000000E+00 -0.00000000000E+00 -0.19426087247E+03  0.19426087254E+03  0.50400000000E-02 0.  1.
    8880023    1    1    2    0    0 -0.16271964143E+03  0.21363323067E+02  0.49705190049E+03  0.84131139973E+03  0.65864270000E+03 0.  1.
    8880022    1    1    2    0    0  0.16271964143E+03 -0.21363323067E+02  0.54636382600E+03  0.59062607177E+03  0.15294330000E+03 0.  1.
<mgrwt>
<rscale>  0 0.51466097E+03</rscale>
<asrwt>0</asrwt>
<pdfrwt beam="1">  1        1 0.19041178E+00 0.67878147E+03</pdfrwt>
<pdfrwt beam="2">  1       -1 0.29886289E-01 0.67878147E+03</pdfrwt>
<totfact> 0.10575845E+02</totfact>
</mgrwt>
</event>
<event>
 4    1  0.3712574E-007  0.8181175E+03  0.7818608E-02  0.9672910E-01
         -1   -1    0    0    0  501 -0.00000000000E+00  0.00000000000E+00  0.33623204222E+03  0.33623204226E+03  0.50400000000E-02 0.  1.
          1   -1    0    0  501    0  0.00000000000E+00 -0.00000000000E+00 -0.24263365420E+04  0.24263365420E+04  0.50400000000E-02 0. -1.
    8880023    1    1    2    0    0 -0.30053452000E+03 -0.38103153248E+03 -0.25306235969E+03  0.85636253457E+03  0.65864270000E+03 0.  1.
    8880022    1    1    2    0    0  0.30053452000E+03  0.38103153248E+03 -0.18370421400E+04  0.19062060497E+04  0.15294330000E+03 0.  0.
<mgrwt>
<rscale>  0 0.72652871E+03</rscale>
<asrwt>0</asrwt>
<pdfrwt beam="1">  1        1 0.37328253E+00 0.81811749E+03</pdfrwt>
<pdfrwt beam="2">  1       -1 0.51728008E-01 0.81811749E+03</pdfrwt>
<totfact> 0.59838319E+00</totfact>
</mgrwt>
</event>
<event>
 4    1  0.3712574E-007  0.7615448E+03  0.7818608E-02  0.9801124E-01
          1   -1    0    0  501    0  0.00000000000E+00  0.00000000000E+00  0.12521545245E+04  0.12521545246E+04  0.50400000000E-02 0. -1.
         -1   -1    0    0    0  501 -0.00000000000E+00 -0.00000000000E+00 -0.74068076900E+03  0.74068076901E+03  0.50400000000E-02 0.  1.
    8880023    1    1    2    0    0 -0.33185307831E+01  0.38226866987E+03 -0.49303736803E+03  0.90721353669E+03  0.65864270000E+03 0.  1.
    8880022    1    1    2    0    0  0.33185307831E+01 -0.38226866987E+03  0.10045111236E+04  0.10856217569E+04  0.15294330000E+03 0.  0.
<mgrwt>
<rscale>  0 0.65302239E+03</rscale>
<asrwt>0</asrwt>
<pdfrwt beam="1">  1        1 0.19263916E+00 0.76154485E+03</pdfrwt>
<pdfrwt beam="2">  1       -1 0.11395089E+00 0.76154485E+03</pdfrwt>
<totfact> 0.71118811E+00</totfact>
</mgrwt>
</event>
<event>
 4    1  0.3810281E-007  0.8248113E+03  0.7818608E-02  0.9659514E-01
         -1   -1    0    0    0  501 -0.00000000000E+00  0.00000000000E+00  0.14739950283E+04  0.14739950283E+04  0.50400000000E-02 0.  1.
          1   -1    0    0  501    0  0.00000000000E+00 -0.00000000000E+00 -0.12757044092E+04  0.12757044092E+04  0.50400000000E-02 0. -1.
    8880023    1    1    2    0    0 -0.48456934996E+03  0.10814830866E+03  0.12954589699E+04  0.15357498692E+04  0.65864270000E+03 0.  1.
    8880022    1    1    2    0    0  0.48456934996E+03 -0.10814830866E+03 -0.10971683508E+04  0.12139495684E+04  0.15294330000E+03 0.  0.
<mgrwt>
<rscale>  0 0.73479357E+03</rscale>
<asrwt>0</asrwt>
<pdfrwt beam="1">  1        1 0.19626222E+00 0.82481132E+03</pdfrwt>
<pdfrwt beam="2">  1       -1 0.22676846E+00 0.82481132E+03</pdfrwt>
<totfact> 0.96857706E-01</totfact>
</mgrwt>
</event>
<event>
 4    1  0.3712574E-007  0.8960188E+03  0.7818608E-02  0.9532453E-01
          1   -1    0    0  501    0  0.00000000000E+00  0.00000000000E+00  0.17431084205E+04  0.17431084205E+04  0.50400000000E-02 0. -1.
         -1   -1    0    0    0  501 -0.00000000000E+00 -0.00000000000E+00 -0.34102976279E+03  0.34102976282E+03  0.50400000000E-02 0.  1.
    8880023    1    1    2    0    0  0.21053110417E+03  0.56983866166E+03  0.98491199963E+03  0.13315033982E+04  0.65864270000E+03 0.  0.
    8880022    1    1    2    0    0 -0.21053110417E+03 -0.56983866166E+03  0.41716665806E+03  0.75263478511E+03  0.15294330000E+03 0.  0.
<mgrwt>
<rscale>  0 0.81932888E+03</rscale>
<asrwt>0</asrwt>
<pdfrwt beam="1">  1        1 0.26817052E+00 0.89601878E+03</pdfrwt>
<pdfrwt beam="2">  1       -1 0.52466119E-01 0.89601878E+03</pdfrwt>
<totfact> 0.16621218E+01</totfact>
</mgrwt>
</event>
<event>
 4    1  0.3712574E-007  0.6905722E+03  0.7818608E-02  0.1003882E+00
          1   -1    0    0  501    0  0.00000000000E+00  0.00000000000E+00  0.24580223590E+03  0.24580223595E+03  0.50400000000E-02 0. -1.
         -1   -1    0    0    0  501 -0.00000000000E+00 -0.00000000000E+00 -0.11750109695E+04  0.11750109695E+04  0.50400000000E-02 0.  1.
    8880023    1    1    2    0    0  0.12200232502E+03  0.16791429764E+03 -0.93566757420E+03  0.11629117741E+04  0.65864270000E+03 0.  1.
    8880022    1    1    2    0    0 -0.12200232502E+03 -0.16791429764E+03  0.64588406046E+01  0.25790143136E+03  0.15294330000E+03 0.  0.
<mgrwt>
<rscale>  0 0.53980413E+03</rscale>
<asrwt>0</asrwt>
<pdfrwt beam="1">  1        1 0.37815729E-01 0.69057222E+03</pdfrwt>
<pdfrwt beam="2">  1       -1 0.18077092E+00 0.69057222E+03</pdfrwt>
<totfact> 0.24076821E+01</totfact>
</mgrwt>
</event>
<event>
 4    1  0.3712574E-007  0.6792004E+03  0.7818608E-02  0.1009780E+00
          1   -1    0    0  501    0  0.00000000000E+00  0.00000000000E+00  0.15785105856E+03  0.15785105864E+03  0.50400000000E-02 0. -1.
         -1   -1    0    0    0  501 -0.00000000000E+00 -0.00000000000E+00 -0.20915062423E+04  0.20915062423E+04  0.50400000000E-02 0.  1.
    8880023    1    1    2    0    0  0.16094673325E+03 -0.39989397979E+02 -0.19043711986E+04  0.20218661853E+04  0.65864270000E+03 0.  1.
    8880022    1    1    2    0    0 -0.16094673325E+03  0.39989397979E+02 -0.29283985126E+02  0.22749111564E+03  0.15294330000E+03 0.  0.
<mgrwt>
<rscale>  0 0.51562324E+03</rscale>
<asrwt>0</asrwt>
<pdfrwt beam="1">  1        1 0.24284780E-01 0.67920042E+03</pdfrwt>
<pdfrwt beam="2">  1       -1 0.32177017E+00 0.67920042E+03</pdfrwt>
<totfact> 0.51202845E+00</totfact>
</mgrwt>
</event>
<event>
 4    1  0.3712574E-007  0.8228963E+03  0.7818608E-02  0.9663315E-01
         -1   -1    0    0    0  501 -0.00000000000E+00  0.00000000000E+00  0.48396213507E+03  0.48396213510E+03  0.50400000000E-02 0.  1.
          1   -1    0    0  501    0  0.00000000000E+00 -0.00000000000E+00 -0.17361607816E+04  0.17361607816E+04  0.50400000000E-02 0. -1.
    8880023    1    1    2    0    0 -0.21085723314E+03  0.44596795631E+03  0.44761005306E+02  0.82411282279E+03  0.65864270000E+03 0.  1.
    8880022    1    1    2    0    0  0.21085723314E+03 -0.44596795631E+03 -0.12969596518E+04  0.13960100939E+04  0.15294330000E+03 0.  0.
<mgrwt>
<rscale>  0 0.73243626E+03</rscale>
<asrwt>0</asrwt>
<pdfrwt beam="1">  1        1 0.26710166E+00 0.82289635E+03</pdfrwt>
<pdfrwt beam="2">  1       -1 0.74455714E-01 0.82289635E+03</pdfrwt>
<totfact> 0.84311318E+00</totfact>
</mgrwt>
</event>
<event>
 4    1  0.3712574E-007  0.6740367E+03  0.7818608E-02  0.1012920E+00
          1   -1    0    0  501    0  0.00000000000E+00  0.00000000000E+00  0.22632077813E+04  0.22632077813E+04  0.50400000000E-02 0. -1.
         -1   -1    0    0    0  501 -0.00000000000E+00 -0.00000000000E+00 -0.11717631305E+03  0.11717631316E+03  0.50400000000E-02 0.  1.
    8880023    1    1    2    0    0  0.13352506236E+03 -0.51829946230E+02  0.94233672678E+03  0.11585870699E+04  0.65864270000E+03 0.  1.
    8880022    1    1    2    0    0 -0.13352506236E+03  0.51829946230E+02  0.12036947415E+04  0.12217970246E+04  0.15294330000E+03 0. -1.
<mgrwt>
<rscale>  0 0.50330276E+03</rscale>
<asrwt>0</asrwt>
<pdfrwt beam="1">  1        1 0.34818578E+00 0.67403671E+03</pdfrwt>
<pdfrwt beam="2">  1       -1 0.18027127E-01 0.67403671E+03</pdfrwt>
<totfact> 0.50263082E+01</totfact>
</mgrwt>
</event>
<event>
 4    1  0.3712574E-007  0.8879899E+03  0.7818608E-02  0.9545593E-01
         -1   -1    0    0    0  501 -0.00000000000E+00  0.00000000000E+00  0.36268916728E+03  0.36268916732E+03  0.50400000000E-02 0.  1.
          1   -1    0    0  501    0  0.00000000000E+00 -0.00000000000E+00 -0.16782681285E+04  0.16782681285E+04  0.50400000000E-02 0. -1.
    8880023    1    1    2    0    0 -0.12049895460E+03  0.58326311286E+03 -0.10388549622E+04  0.13666549293E+04  0.65864270000E+03 0.  0.
    8880022    1    1    2    0    0  0.12049895460E+03 -0.58326311286E+03 -0.27672399898E+03  0.67430236653E+03  0.15294330000E+03 0.  0.
<mgrwt>
<rscale>  0 0.81004274E+03</rscale>
<asrwt>0</asrwt>
<pdfrwt beam="1">  1        1 0.25819509E+00 0.88798990E+03</pdfrwt>
<pdfrwt beam="2">  1       -1 0.55798334E-01 0.88798990E+03</pdfrwt>
<totfact> 0.16339688E+01</totfact>
</mgrwt>
</event>
<event>
 4    1  0.3712574E-007  0.6915085E+03  0.7818608E-02  0.1003444E+00
         -1   -1    0    0    0  501 -0.00000000000E+00  0.00000000000E+00  0.49106595456E+03  0.49106595458E+03  0.50400000000E-02 0.  1.
          1   -1    0    0  501    0  0.00000000000E+00 -0.00000000000E+00 -0.90999951864E+03  0.90999951865E+03  0.50400000000E-02 0. -1.
    8880023    1    1    2    0    0  0.19271182177E+02  0.20976767700E+03  0.20809994746E+03  0.72214240367E+03  0.65864270000E+03 0.  1.
    8880022    1    1    2    0    0 -0.19271182177E+02 -0.20976767700E+03 -0.62703351155E+03  0.67892306957E+03  0.15294330000E+03 0. -1.
<mgrwt>
<rscale>  0 0.54165686E+03</rscale>
<asrwt>0</asrwt>
<pdfrwt beam="1">  1        1 0.13999993E+00 0.69150854E+03</pdfrwt>
<pdfrwt beam="2">  1       -1 0.75548608E-01 0.69150854E+03</pdfrwt>
<totfact> 0.32467591E+01</totfact>
</mgrwt>
</event>
<event>
 4    1  0.3712574E-007  0.2396808E+04  0.7818608E-02  0.8449035E-01
          1   -1    0    0  501    0  0.00000000000E+00  0.00000000000E+00  0.46153356387E+04  0.46153356387E+04  0.50400000000E-02 0. -1.
         -1   -1    0    0    0  501 -0.00000000000E+00 -0.00000000000E+00 -0.13559945842E+04  0.13559945842E+04  0.50400000000E-02 0.  1.
    8880023    1    1    2    0    0  0.22020585971E+04  0.67957193000E+03  0.64329646816E+03  0.24816366828E+04  0.65864270000E+03 0.  0.
    8880022    1    1    2    0    0 -0.22020585971E+04 -0.67957193000E+03  0.26160445863E+04  0.34896935401E+04  0.15294330000E+03 0.  0.
<mgrwt>
<rscale>  0 0.23747034E+04</rscale>
<asrwt>0</asrwt>
<pdfrwt beam="1">  1        1 0.71005165E+00 0.23968084E+04</pdfrwt>
<pdfrwt beam="2">  1       -1 0.20861455E+00 0.23968084E+04</pdfrwt>
<totfact> 0.27475679E-03</totfact>
</mgrwt>
</event>
<event>
 4    1  0.3712574E-007  0.1436201E+04  0.7818608E-02  0.8956052E-01
          1   -1    0    0  501    0  0.00000000000E+00  0.00000000000E+00  0.16014651375E+04  0.16014651375E+04  0.50400000000E-02 0. -1.
         -1   -1    0    0    0  501 -0.00000000000E+00 -0.00000000000E+00 -0.19875875983E+04  0.19875875983E+04  0.50400000000E-02 0.  1.
    8880023    1    1    2    0    0 -0.10551185638E+04 -0.71804436195E+03 -0.13587916525E+04  0.19771160438E+04  0.65864270000E+03 0.  1.
    8880022    1    1    2    0    0  0.10551185638E+04  0.71804436195E+03  0.97266919173E+03  0.16119366920E+04  0.15294330000E+03 0.  0.
<mgrwt>
<rscale>  0 0.13969183E+04</rscale>
<asrwt>0</asrwt>
<pdfrwt beam="1">  1        1 0.24637925E+00 0.14362009E+04</pdfrwt>
<pdfrwt beam="2">  1       -1 0.30578271E+00 0.14362009E+04</pdfrwt>
<totfact> 0.16064203E-01</totfact>
</mgrwt>
</event>
<event>
 4    1  0.3712574E-007  0.8266028E+03  0.7818608E-02  0.9655979E-01
         -1   -1    0    0    0  501 -0.00000000000E+00  0.00000000000E+00  0.20543973729E+04  0.20543973729E+04  0.50400000000E-02 0.  1.
          1   -1    0    0  501    0  0.00000000000E+00 -0.00000000000E+00 -0.29254016235E+03  0.29254016239E+03  0.50400000000E-02 0. -1.
    8880023    1    1    2    0    0  0.11090297065E+03  0.48699333935E+03  0.15986010311E+04  0.17996659258E+04  0.65864270000E+03 0.  0.
    8880022    1    1    2    0    0 -0.11090297065E+03 -0.48699333935E+03  0.16325617947E+03  0.54727160955E+03  0.15294330000E+03 0.  0.
<mgrwt>
<rscale>  0 0.73699386E+03</rscale>
<asrwt>0</asrwt>
<pdfrwt beam="1">  1        1 0.45006180E-01 0.82660280E+03</pdfrwt>
<pdfrwt beam="2">  1       -1 0.31606113E+00 0.82660280E+03</pdfrwt>
<totfact> 0.24462896E+00</totfact>
</mgrwt>
</event>
<event>
 4    1  0.3712574E-007  0.9358730E+03  0.7818608E-02  0.9470738E-01
         -1   -1    0    0    0  501 -0.00000000000E+00  0.00000000000E+00  0.63207325834E+03  0.63207325836E+03  0.50400000000E-02 0.  1.
          1   -1    0    0  501    0  0.00000000000E+00 -0.00000000000E+00 -0.11692728017E+04  0.11692728017E+04  0.50400000000E-02 0. -1.
    8880023    1    1    2    0    0 -0.41351777839E+03 -0.52062560774E+03 -0.46736082039E+01  0.93588462182E+03  0.65864270000E+03 0.  1.
    8880022    1    1    2    0    0  0.41351777839E+03  0.52062560774E+03 -0.53252593514E+03  0.86546143824E+03  0.15294330000E+03 0.  0.
<mgrwt>
<rscale>  0 0.86476000E+03</rscale>
<asrwt>0</asrwt>
<pdfrwt beam="1">  1        1 0.17988812E+00 0.93587295E+03</pdfrwt>
<pdfrwt beam="2">  1       -1 0.97242040E-01 0.93587295E+03</pdfrwt>
<totfact> 0.11551008E+01</totfact>
</mgrwt>
</event>
<event>
 4    1  0.3712574E-007  0.7003214E+03  0.7818608E-02  0.9995871E-01
          1   -1    0    0  501    0  0.00000000000E+00  0.00000000000E+00  0.15837286537E+04  0.15837286537E+04  0.50400000000E-02 0. -1.
         -1   -1    0    0    0  501 -0.00000000000E+00 -0.00000000000E+00 -0.33163443939E+03  0.33163443943E+03  0.50400000000E-02 0.  1.
    8880023    1    1    2    0    0 -0.26613967653E+02 -0.23649838754E+03  0.74509528369E+02  0.70427385772E+03  0.65864270000E+03 0.  1.
    8880022    1    1    2    0    0  0.26613967653E+02  0.23649838754E+03  0.11775846859E+04  0.12110892354E+04  0.15294330000E+03 0.  0.
<mgrwt>
<rscale>  0 0.55831669E+03</rscale>
<asrwt>0</asrwt>
<pdfrwt beam="1">  1        1 0.24365056E+00 0.70032135E+03</pdfrwt>
<pdfrwt beam="2">  1       -1 0.51020683E-01 0.70032135E+03</pdfrwt>
<totfact> 0.23033315E+01</totfact>
</mgrwt>
</event>
<event>
 4    1  0.3712574E-007  0.8650024E+03  0.7818608E-02  0.9584726E-01
          1   -1    0    0  501    0  0.00000000000E+00  0.00000000000E+00  0.40603763268E+03  0.40603763271E+03  0.50400000000E-02 0. -1.
         -1   -1    0    0    0  501 -0.00000000000E+00 -0.00000000000E+00 -0.13891666536E+04  0.13891666536E+04  0.50400000000E-02 0.  1.
    8880023    1    1    2    0    0 -0.29708650367E+02  0.55994309262E+03 -0.81911101621E+03  0.11912900293E+04  0.65864270000E+03 0.  0.
    8880022    1    1    2    0    0  0.29708650367E+02 -0.55994309262E+03 -0.16401800469E+03  0.60391425696E+03  0.15294330000E+03 0.  0.
<mgrwt>
<rscale>  0 0.78315390E+03</rscale>
<asrwt>0</asrwt>
<pdfrwt beam="1">  1        1 0.62467329E-01 0.86500236E+03</pdfrwt>
<pdfrwt beam="2">  1       -1 0.21371794E+00 0.86500236E+03</pdfrwt>
<totfact> 0.72755304E+00</totfact>
</mgrwt>
</event>
<event>
 4    1  0.3712574E-007  0.8711464E+03  0.7818608E-02  0.9574036E-01
         -1   -1    0    0    0  501 -0.00000000000E+00  0.00000000000E+00  0.77454534852E+03  0.77454534853E+03  0.50400000000E-02 0.  1.
          1   -1    0    0  501    0  0.00000000000E+00 -0.00000000000E+00 -0.69084364656E+03  0.69084364658E+03  0.50400000000E-02 0. -1.
    8880023    1    1    2    0    0  0.31707449745E+03 -0.47386673194E+03  0.16996063286E+02  0.87131222246E+03  0.65864270000E+03 0.  1.
    8880022    1    1    2    0    0 -0.31707449745E+03  0.47386673194E+03  0.66705638667E+02  0.59407677266E+03  0.15294330000E+03 0. -1.
<mgrwt>
<rscale>  0 0.79038780E+03</rscale>
<asrwt>0</asrwt>
<pdfrwt beam="1">  1        1 0.10628364E+00 0.87114644E+03</pdfrwt>
<pdfrwt beam="2">  1       -1 0.11916082E+00 0.87114644E+03</pdfrwt>
<totfact> 0.17754719E+01</totfact>
</mgrwt>
</event>
<event>
 4    1  0.3712574E-007  0.8076771E+03  0.7818608E-02  0.9694436E-01
          1   -1    0    0  501    0  0.00000000000E+00  0.00000000000E+00  0.20091793938E+04  0.20091793938E+04  0.50400000000E-02 0. -1.
         -1   -1    0    0    0  501 -0.00000000000E+00 -0.00000000000E+00 -0.31228572550E+03  0.31228572554E+03  0.50400000000E-02 0.  1.
    8880023    1    1    2    0    0 -0.30338094401E+03  0.35565726356E+03  0.33665543664E+03  0.87503095693E+03  0.65864270000E+03 0.  0.
    8880022    1    1    2    0    0  0.30338094401E+03 -0.35565726356E+03  0.13602382316E+04  0.14464341624E+04  0.15294330000E+03 0.  0.
<mgrwt>
<rscale>  0 0.71349040E+03</rscale>
<asrwt>0</asrwt>
<pdfrwt beam="1">  1        1 0.30910451E+00 0.80767710E+03</pdfrwt>
<pdfrwt beam="2">  1       -1 0.48043959E-01 0.80767710E+03</pdfrwt>
<totfact> 0.13170159E+01</totfact>
</mgrwt>
</event>
<event>
 4    1  0.3712574E-007  0.7730108E+03  0.7818608E-02  0.9772518E-01
         -1   -1    0    0    0  501 -0.00000000000E+00  0.00000000000E+00  0.15048061904E+04  0.15048061904E+04  0.50400000000E-02 0.  1.
          1   -1    0    0  501    0  0.00000000000E+00 -0.00000000000E+00 -0.52206808937E+03  0.52206808939E+03  0.50400000000E-02 0. -1.
    8880023    1    1    2    0    0 -0.40345279139E+03  0.31005995966E+02  0.12846943638E+04  0.14993282967E+04  0.65864270000E+03 0.  1.
    8880022    1    1    2    0    0  0.40345279139E+03 -0.31005995966E+02 -0.30195626275E+03  0.52754598311E+03  0.15294330000E+03 0.  0.
<mgrwt>
<rscale>  0 0.66858448E+03</rscale>
<asrwt>0</asrwt>
<pdfrwt beam="1">  1        1 0.80318170E-01 0.77301082E+03</pdfrwt>
<pdfrwt beam="2">  1       -1 0.23150864E+00 0.77301082E+03</pdfrwt>
<totfact> 0.39890464E+00</totfact>
</mgrwt>
</event>
<event>
 4    1  0.3712574E-007  0.9543131E+03  0.7818608E-02  0.9443935E-01
         -1   -1    0    0    0  501 -0.00000000000E+00  0.00000000000E+00  0.56634860983E+03  0.56634860985E+03  0.50400000000E-02 0.  1.
          1   -1    0    0  501    0  0.00000000000E+00 -0.00000000000E+00 -0.27594434634E+04  0.27594434634E+04  0.50400000000E-02 0. -1.
    8880023    1    1    2    0    0 -0.53954206300E+03  0.43104255785E+03 -0.24049975581E+04  0.25874170103E+04  0.65864270000E+03 0.  1.
    8880022    1    1    2    0    0  0.53954206300E+03 -0.43104255785E+03  0.21190270452E+03  0.73837506297E+03  0.15294330000E+03 0.  0.
<mgrwt>
<rscale>  0 0.88546508E+03</rscale>
<asrwt>0</asrwt>
<pdfrwt beam="1">  1        1 0.42452976E+00 0.95431312E+03</pdfrwt>
<pdfrwt beam="2">  1       -1 0.87130557E-01 0.95431312E+03</pdfrwt>
<totfact> 0.11913048E+00</totfact>
</mgrwt>
</event>
<event>
 4    1  0.4186085E-007  0.6656297E+03  0.7818608E-02  0.1019011E+00
         -1   -1    0    0    0  501 -0.00000000000E+00  0.00000000000E+00  0.73842593206E+03  0.73842593208E+03  0.50400000000E-02 0.  1.
          1   -1    0    0  501    0  0.00000000000E+00 -0.00000000000E+00 -0.18472882088E+04  0.18472882088E+04  0.50400000000E-02 0. -1.
    8880023    1    1    2    0    0 -0.95603757949E+02  0.10613346520E+02  0.58262859916E+03  0.88460104707E+03  0.65864270000E+03 0.  1.
    8880022    1    1    2    0    0  0.95603757949E+02 -0.10613346520E+02 -0.16914908759E+04  0.17011130938E+04  0.15294330000E+03 0.  0.
<mgrwt>
<rscale>  0 0.48045263E+03</rscale>
<asrwt>0</asrwt>
<pdfrwt beam="1">  1        1 0.28419818E+00 0.66562972E+03</pdfrwt>
<pdfrwt beam="2">  1       -1 0.11360399E+00 0.66562972E+03</pdfrwt>
<totfact> 0.28560526E+00</totfact>
</mgrwt>
</event>
<event>
 4    1  0.3712574E-007  0.7762550E+03  0.7818608E-02  0.9764709E-01
          1   -1    0    0  501    0  0.00000000000E+00  0.00000000000E+00  0.31828531963E+03  0.31828531967E+03  0.50400000000E-02 0. -1.
         -1   -1    0    0    0  501 -0.00000000000E+00 -0.00000000000E+00 -0.11840101439E+04  0.11840101439E+04  0.50400000000E-02 0.  1.
    8880023    1    1    2    0    0  0.13888991862E+03  0.38661504466E+03 -0.65616194654E+03  0.10164252597E+04  0.65864270000E+03 0.  1.
    8880022    1    1    2    0    0 -0.13888991862E+03 -0.38661504466E+03 -0.20956287772E+03  0.48587020385E+03  0.15294330000E+03 0. -1.
<mgrwt>
<rscale>  0 0.67291355E+03</rscale>
<asrwt>0</asrwt>
<pdfrwt beam="1">  1        1 0.48966973E-01 0.77625499E+03</pdfrwt>
<pdfrwt beam="2">  1       -1 0.18215540E+00 0.77625499E+03</pdfrwt>
<totfact> 0.16693835E+01</totfact>
</mgrwt>
</event>
<event>
 4    1  0.3712574E-007  0.6838158E+03  0.7818608E-02  0.1007243E+00
         -1   -1    0    0    0  501 -0.00000000000E+00  0.00000000000E+00  0.35510255135E+03  0.35510255138E+03  0.50400000000E-02 0.  1.
          1   -1    0    0  501    0  0.00000000000E+00 -0.00000000000E+00 -0.40430618690E+04  0.40430618690E+04  0.50400000000E-02 0. -1.
    8880023    1    1    2    0    0 -0.10722664064E+03 -0.14931933880E+03  0.18434462014E+02  0.68406421706E+03  0.65864270000E+03 0.  1.
    8880022    1    1    2    0    0  0.10722664064E+03  0.14931933880E+03 -0.37063937797E+04  0.37141002033E+04  0.15294330000E+03 0.  0.
<mgrwt>
<rscale>  0 0.52585384E+03</rscale>
<asrwt>0</asrwt>
<pdfrwt beam="1">  1        1 0.62200949E+00 0.68381578E+03</pdfrwt>
<pdfrwt beam="2">  1       -1 0.54631164E-01 0.68381578E+03</pdfrwt>
<totfact> 0.33791106E-01</totfact>
</mgrwt>
</event>
<event>
 4    1  0.3712574E-007  0.7523720E+03  0.7818608E-02  0.9825271E-01
         -1   -1    0    0    0  501 -0.00000000000E+00  0.00000000000E+00  0.34717781159E+03  0.34717781163E+03  0.50400000000E-02 0.  1.
          1   -1    0    0  501    0  0.00000000000E+00 -0.00000000000E+00 -0.16801280823E+04  0.16801280823E+04  0.50400000000E-02 0. -1.
    8880023    1    1    2    0    0 -0.80403093828E+01  0.36357774327E+03 -0.13283554279E+03  0.76400844869E+03  0.65864270000E+03 0.  1.
    8880022    1    1    2    0    0  0.80403093828E+01 -0.36357774327E+03 -0.12001147279E+04  0.12632974452E+04  0.15294330000E+03 0.  0.
<mgrwt>
<rscale>  0 0.64023792E+03</rscale>
<asrwt>0</asrwt>
<pdfrwt beam="1">  1        1 0.25848124E+00 0.75237200E+03</pdfrwt>
<pdfrwt beam="2">  1       -1 0.53411972E-01 0.75237200E+03</pdfrwt>
<totfact> 0.18035122E+01</totfact>
</mgrwt>
</event>
<event>
 4    1  0.3712574E-007  0.8275142E+03  0.7818608E-02  0.9654189E-01
          1   -1    0    0  501    0  0.00000000000E+00  0.00000000000E+00  0.70004060856E+03  0.70004060857E+03  0.50400000000E-02 0. -1.
         -1   -1    0    0    0  501 -0.00000000000E+00 -0.00000000000E+00 -0.82255259980E+03  0.82255259981E+03  0.50400000000E-02 0.  1.
    8880023    1    1    2    0    0 -0.19076998879E+03  0.46322380376E+03  0.26735670172E+03  0.86963169975E+03  0.65864270000E+03 0. -1.
    8880022    1    1    2    0    0  0.19076998879E+03 -0.46322380376E+03 -0.38986869296E+03  0.65296150863E+03  0.15294330000E+03 0.  1.
<mgrwt>
<rscale>  0 0.73811138E+03</rscale>
<asrwt>0</asrwt>
<pdfrwt beam="1">  1        1 0.10769856E+00 0.82751416E+03</pdfrwt>
<pdfrwt beam="2">  1       -1 0.12654655E+00 0.82751416E+03</pdfrwt>
<totfact> 0.15069820E+01</totfact>
</mgrwt>
</event>
<event>
 4    1  0.3712574E-007  0.7448507E+03  0.7818608E-02  0.9846036E-01
         -1   -1    0    0    0  501 -0.00000000000E+00  0.00000000000E+00  0.53925839591E+03  0.53925839593E+03  0.50400000000E-02 0.  1.
          1   -1    0    0  501    0  0.00000000000E+00 -0.00000000000E+00 -0.72702795930E+03  0.72702795931E+03  0.50400000000E-02 0. -1.
    8880023    1    1    2    0    0 -0.19701184434E+03 -0.28666834176E+03  0.14776556274E+03  0.75936636268E+03  0.65864270000E+03 0.  0.
    8880022    1    1    2    0    0  0.19701184434E+03  0.28666834176E+03 -0.33553512613E+03  0.50691999256E+03  0.15294330000E+03 0.  0.
<mgrwt>
<rscale>  0 0.62949436E+03</rscale>
<asrwt>0</asrwt>
<pdfrwt beam="1">  1        1 0.11185046E+00 0.74485073E+03</pdfrwt>
<pdfrwt beam="2">  1       -1 0.82962830E-01 0.74485073E+03</pdfrwt>
<totfact> 0.37995801E+01</totfact>
</mgrwt>
</event>
<event>
 4    1  0.3712574E-007  0.8268279E+03  0.7818608E-02  0.9655536E-01
         -1   -1    0    0    0  501 -0.00000000000E+00  0.00000000000E+00  0.52557970802E+03  0.52557970804E+03  0.50400000000E-02 0.  1.
          1   -1    0    0  501    0  0.00000000000E+00 -0.00000000000E+00 -0.19812184595E+04  0.19812184596E+04  0.50400000000E-02 0. -1.
    8880023    1    1    2    0    0 -0.49067709147E+03  0.95237362931E+02  0.13021649255E+03  0.83701893920E+03  0.65864270000E+03 0.  1.
    8880022    1    1    2    0    0  0.49067709147E+03 -0.95237362931E+02 -0.15858552441E+04  0.16697792284E+04  0.15294330000E+03 0.  0.
<mgrwt>
<rscale>  0 0.73726999E+03</rscale>
<asrwt>0</asrwt>
<pdfrwt beam="1">  1        1 0.30480284E+00 0.82682790E+03</pdfrwt>
<pdfrwt beam="2">  1       -1 0.80858418E-01 0.82682790E+03</pdfrwt>
<totfact> 0.48491266E+00</totfact>
</mgrwt>
</event>
<event>
 4    1  0.3712574E-007  0.1249855E+04  0.7818608E-02  0.9110120E-01
          1   -1    0    0  501    0  0.00000000000E+00  0.00000000000E+00  0.27337234919E+04  0.27337234919E+04  0.50400000000E-02 0. -1.
         -1   -1    0    0    0  501 -0.00000000000E+00 -0.00000000000E+00 -0.86817844830E+03  0.86817844831E+03  0.50400000000E-02 0.  1.
    8880023    1    1    2    0    0  0.45934275936E+03  0.95777378002E+03 -0.20805176119E+03  0.12670525348E+04  0.65864270000E+03 0.  0.
    8880022    1    1    2    0    0 -0.45934275936E+03 -0.95777378002E+03  0.20735968048E+04  0.23348494055E+04  0.15294330000E+03 0.  0.
<mgrwt>
<rscale>  0 0.12031309E+04</rscale>
<asrwt>0</asrwt>
<pdfrwt beam="1">  1        1 0.42057284E+00 0.12498546E+04</pdfrwt>
<pdfrwt beam="2">  1       -1 0.13356592E+00 0.12498546E+04</pdfrwt>
<totfact> 0.43237300E-01</totfact>
</mgrwt>
</event>
<event>
 4    1  0.3712574E-007  0.1071726E+04  0.7818608E-02  0.9293209E-01
         -1   -1    0    0    0  501 -0.00000000000E+00  0.00000000000E+00  0.89333828016E+03  0.89333828017E+03  0.50400000000E-02 0.  1.
          1   -1    0    0  501    0  0.00000000000E+00 -0.00000000000E+00 -0.11011970605E+04  0.11011970606E+04  0.50400000000E-02 0. -1.
    8880023    1    1    2    0    0  0.83935886409E+03  0.10130507185E+03 -0.34196265024E+03  0.11249598574E+04  0.65864270000E+03 0. -1.
    8880022    1    1    2    0    0 -0.83935886409E+03 -0.10130507185E+03  0.13410386985E+03  0.86957548334E+03  0.15294330000E+03 0.  1.
<mgrwt>
<rscale>  0 0.10141049E+04</rscale>
<asrwt>0</asrwt>
<pdfrwt beam="1">  1        1 0.16941493E+00 0.10717258E+04</pdfrwt>
<pdfrwt beam="2">  1       -1 0.13743666E+00 0.10717258E+04</pdfrwt>
<totfact> 0.55372549E+00</totfact>
</mgrwt>
</event>
<event>
 4    1  0.3712574E-007  0.7523863E+03  0.7818608E-02  0.9825233E-01
          1   -1    0    0  501    0  0.00000000000E+00  0.00000000000E+00  0.97444042567E+03  0.97444042568E+03  0.50400000000E-02 0. -1.
         -1   -1    0    0    0  501 -0.00000000000E+00 -0.00000000000E+00 -0.37111588586E+03  0.37111588589E+03  0.50400000000E-02 0.  1.
    8880023    1    1    2    0    0  0.61621818939E+02  0.35843785267E+03  0.19390867204E+03  0.77697215018E+03  0.65864270000E+03 0.  1.
    8880022    1    1    2    0    0 -0.61621818939E+02 -0.35843785267E+03  0.40941586777E+03  0.56858416140E+03  0.15294330000E+03 0.  0.
<mgrwt>
<rscale>  0 0.64025811E+03</rscale>
<asrwt>0</asrwt>
<pdfrwt beam="1">  1        1 0.14991391E+00 0.75238630E+03</pdfrwt>
<pdfrwt beam="2">  1       -1 0.57094751E-01 0.75238630E+03</pdfrwt>
<totfact> 0.50389852E+01</totfact>
</mgrwt>
</event>
<event>
 4    1  0.3712574E-007  0.7633563E+03  0.7818608E-02  0.9796495E-01
         -1   -1    0    0    0  501 -0.00000000000E+00  0.00000000000E+00  0.78467068200E+03  0.78467068202E+03  0.50400000000E-02 0.  1.
          1   -1    0    0  501    0  0.00000000000E+00 -0.00000000000E+00 -0.15927339878E+04  0.15927339878E+04  0.50400000000E-02 0. -1.
    8880023    1    1    2    0    0 -0.14685429745E+03 -0.35684225895E+03  0.56065822947E+03  0.94712746713E+03  0.65864270000E+03 0.  1.
    8880022    1    1    2    0    0  0.14685429745E+03  0.35684225895E+03 -0.13687215353E+04  0.14302772027E+04  0.15294330000E+03 0.  0.
<mgrwt>
<rscale>  0 0.65550997E+03</rscale>
<asrwt>0</asrwt>
<pdfrwt beam="1">  1        1 0.24503600E+00 0.76335627E+03</pdfrwt>
<pdfrwt beam="2">  1       -1 0.12071857E+00 0.76335627E+03</pdfrwt>
<totfact> 0.35900762E+00</totfact>
</mgrwt>
</event>
<event>
 4    1  0.3712574E-007  0.1300776E+04  0.7818608E-02  0.9064890E-01
          1   -1    0    0  501    0  0.00000000000E+00  0.00000000000E+00  0.26254379279E+04  0.26254379279E+04  0.50400000000E-02 0. -1.
         -1   -1    0    0    0  501 -0.00000000000E+00 -0.00000000000E+00 -0.73173199093E+03  0.73173199095E+03  0.50400000000E-02 0.  1.
    8880023    1    1    2    0    0  0.10535416304E+04 -0.38504300615E+03  0.18005573987E+04  0.22212665837E+04  0.65864270000E+03 0.  0.
    8880022    1    1    2    0    0 -0.10535416304E+04  0.38504300615E+03  0.93148538230E+02  0.11359033351E+04  0.15294330000E+03 0.  0.
<mgrwt>
<rscale>  0 0.12563798E+04</rscale>
<asrwt>0</asrwt>
<pdfrwt beam="1">  1        1 0.40391353E+00 0.13007760E+04</pdfrwt>
<pdfrwt beam="2">  1       -1 0.11257415E+00 0.13007760E+04</pdfrwt>
<totfact> 0.78198786E-01</totfact>
</mgrwt>
</event>
<event>
 4    1  0.3712574E-007  0.6677365E+03  0.7818608E-02  0.1017340E+00
         -1   -1    0    0    0  501 -0.00000000000E+00  0.00000000000E+00  0.30052639912E+03  0.30052639917E+03  0.50400000000E-02 0.  1.
          1   -1    0    0  501    0  0.00000000000E+00 -0.00000000000E+00 -0.10394916736E+04  0.10394916736E+04  0.50400000000E-02 0. -1.
    8880023    1    1    2    0    0 -0.47856294657E+02  0.98851122988E+02 -0.10159966389E+03  0.67542169599E+03  0.65864270000E+03 0.  1.
    8880022    1    1    2    0    0  0.47856294657E+02 -0.98851122988E+02 -0.63736561056E+03  0.66459637676E+03  0.15294330000E+03 0.  0.
<mgrwt>
<rscale>  0 0.48658766E+03</rscale>
<asrwt>0</asrwt>
<pdfrwt beam="1">  1        1 0.15992179E+00 0.66773646E+03</pdfrwt>
<pdfrwt beam="2">  1       -1 0.46234831E-01 0.66773646E+03</pdfrwt>
<totfact> 0.67637057E+01</totfact>
</mgrwt>
</event>
<event>
 4    1  0.3712574E-007  0.7200718E+03  0.7818608E-02  0.9922343E-01
          1   -1    0    0  501    0  0.00000000000E+00  0.00000000000E+00  0.19827344904E+04  0.19827344904E+04  0.50400000000E-02 0. -1.
         -1   -1    0    0    0  501 -0.00000000000E+00 -0.00000000000E+00 -0.14316599801E+03  0.14316599810E+03  0.50400000000E-02 0.  1.
    8880023    1    1    2    0    0 -0.10701032744E+03 -0.27063265589E+03  0.10777111248E+04  0.12961345298E+04  0.65864270000E+03 0.  0.
    8880022    1    1    2    0    0  0.10701032744E+03  0.27063265589E+03  0.76185736759E+03  0.82976595868E+03  0.15294330000E+03 0.  1.
<mgrwt>
<rscale>  0 0.59190566E+03</rscale>
<asrwt>0</asrwt>
<pdfrwt beam="1">  1        1 0.30503605E+00 0.72007184E+03</pdfrwt>
<pdfrwt beam="2">  1       -1 0.22025540E-01 0.72007184E+03</pdfrwt>
<totfact> 0.55144882E+01</totfact>
</mgrwt>
</event>
<event>
 4    1  0.3712574E-007  0.8029392E+03  0.7818608E-02  0.9704477E-01
         -1   -1    0    0    0  501 -0.00000000000E+00  0.00000000000E+00  0.41376574971E+03  0.41376574974E+03  0.50400000000E-02 0.  1.
          1   -1    0    0  501    0  0.00000000000E+00 -0.00000000000E+00 -0.27630991501E+04  0.27630991502E+04  0.50400000000E-02 0. -1.
    8880023    1    1    2    0    0 -0.22463849673E+03 -0.40054802507E+03 -0.25698652593E+02  0.80335036044E+03  0.65864270000E+03 0.  1.
    8880022    1    1    2    0    0  0.22463849673E+03  0.40054802507E+03 -0.23236347478E+04  0.23735145395E+04  0.15294330000E+03 0.  0.
<mgrwt>
<rscale>  0 0.70750885E+03</rscale>
<asrwt>0</asrwt>
<pdfrwt beam="1">  1        1 0.42509216E+00 0.80293921E+03</pdfrwt>
<pdfrwt beam="2">  1       -1 0.63656271E-01 0.80293921E+03</pdfrwt>
<totfact> 0.23437290E+00</totfact>
</mgrwt>
</event>
<event>
 4    1  0.3712574E-007  0.1025693E+04  0.7818608E-02  0.9348689E-01
          1   -1    0    0  501    0  0.00000000000E+00  0.00000000000E+00  0.17496447651E+04  0.17496447651E+04  0.50400000000E-02 0. -1.
         -1   -1    0    0    0  501 -0.00000000000E+00 -0.00000000000E+00 -0.73367643788E+03  0.73367643790E+03  0.50400000000E-02 0.  1.
    8880023    1    1    2    0    0 -0.77019813025E+03 -0.15821407574E+03  0.12796821263E+04  0.16400101842E+04  0.65864270000E+03 0.  0.
    8880022    1    1    2    0    0  0.77019813025E+03  0.15821407574E+03 -0.26371379908E+03  0.84331101881E+03  0.15294330000E+03 0.  0.
<mgrwt>
<rscale>  0 0.96421447E+03</rscale>
<asrwt>0</asrwt>
<pdfrwt beam="1">  1        1 0.26917611E+00 0.10256935E+04</pdfrwt>
<pdfrwt beam="2">  1       -1 0.11287330E+00 0.10256935E+04</pdfrwt>
<totfact> 0.31788565E+00</totfact>
</mgrwt>
</event>
<event>
 4    1  0.3712574E-007  0.6689269E+03  0.7818608E-02  0.1016444E+00
          1   -1    0    0  501    0  0.00000000000E+00  0.00000000000E+00  0.32256206295E+04  0.32256206295E+04  0.50400000000E-02 0. -1.
         -1   -1    0    0    0  501 -0.00000000000E+00 -0.00000000000E+00 -0.79841835163E+02  0.79841835322E+02  0.50400000000E-02 0.  1.
    8880023    1    1    2    0    0  0.97629745941E+02 -0.64198522427E+02  0.14277288957E+04  0.15766651590E+04  0.65864270000E+03 0.  1.
    8880022    1    1    2    0    0 -0.97629745941E+02  0.64198522427E+02  0.17180498986E+04  0.17287973058E+04  0.15294330000E+03 0.  0.
<mgrwt>
<rscale>  0 0.48991950E+03</rscale>
<asrwt>0</asrwt>
<pdfrwt beam="1">  1        1 0.49624936E+00 0.66892692E+03</pdfrwt>
<pdfrwt beam="2">  1       -1 0.12283358E-01 0.66892692E+03</pdfrwt>
<totfact> 0.19947729E+01</totfact>
</mgrwt>
</event>
<event>
 4    1  0.3712574E-007  0.9901448E+03  0.7818608E-02  0.9394566E-01
         -1   -1    0    0    0  501 -0.00000000000E+00  0.00000000000E+00  0.43514999982E+03  0.43514999985E+03  0.50400000000E-02 0.  1.
          1   -1    0    0  501    0  0.00000000000E+00 -0.00000000000E+00 -0.36075356836E+04  0.36075356836E+04  0.50400000000E-02 0. -1.
    8880023    1    1    2    0    0  0.45945230639E+03 -0.57920647056E+03 -0.24567298646E+03  0.10201676234E+04  0.65864270000E+03 0.  0.
    8880022    1    1    2    0    0 -0.45945230639E+03  0.57920647056E+03 -0.29267126973E+04  0.30225180600E+04  0.15294330000E+03 0.  0.
<mgrwt>
<rscale>  0 0.92524206E+03</rscale>
<asrwt>0</asrwt>
<pdfrwt beam="1">  1        1 0.55500547E+00 0.99014482E+03</pdfrwt>
<pdfrwt beam="2">  1       -1 0.66946156E-01 0.99014482E+03</pdfrwt>
<totfact> 0.48439834E-01</totfact>
</mgrwt>
</event>
<event>
 4    1  0.3712574E-007  0.7371196E+03  0.7818608E-02  0.9868418E-01
         -1   -1    0    0    0  501 -0.00000000000E+00  0.00000000000E+00  0.72814543307E+03  0.72814543309E+03  0.50400000000E-02 0.  1.
          1   -1    0    0  501    0  0.00000000000E+00 -0.00000000000E+00 -0.88121306191E+03  0.88121306193E+03  0.50400000000E-02 0. -1.
    8880023    1    1    2    0    0  0.30491445912E+03 -0.12869470421E+03  0.47942051195E+03  0.87931188313E+03  0.65864270000E+03 0.  0.
    8880022    1    1    2    0    0 -0.30491445912E+03  0.12869470421E+03 -0.63248814079E+03  0.73004661189E+03  0.15294330000E+03 0. -1.
<mgrwt>
<rscale>  0 0.61816592E+03</rscale>
<asrwt>0</asrwt>
<pdfrwt beam="1">  1        1 0.13557124E+00 0.73711964E+03</pdfrwt>
<pdfrwt beam="2">  1       -1 0.11202237E+00 0.73711964E+03</pdfrwt>
<totfact> 0.14217241E+01</totfact>
</mgrwt>
</event>
<event>
 4    1  0.3712574E-007  0.8867403E+03  0.7818608E-02  0.9547662E-01
         -1   -1    0    0    0  501 -0.00000000000E+00  0.00000000000E+00  0.14370012312E+04  0.14370012312E+04  0.50400000000E-02 0.  1.
          1   -1    0    0  501    0  0.00000000000E+00 -0.00000000000E+00 -0.91399822678E+03  0.91399822679E+03  0.50400000000E-02 0. -1.
    8880023    1    1    2    0    0 -0.35766035869E+03  0.47389570269E+03  0.11644710616E+04  0.14636601821E+04  0.65864270000E+03 0.  0.
    8880022    1    1    2    0    0  0.35766035869E+03 -0.47389570269E+03 -0.64146805714E+03  0.88733927590E+03  0.15294330000E+03 0.  0.
<mgrwt>
<rscale>  0 0.80859281E+03</rscale>
<asrwt>0</asrwt>
<pdfrwt beam="1">  1        1 0.14061511E+00 0.88674025E+03</pdfrwt>
<pdfrwt beam="2">  1       -1 0.22107711E+00 0.88674025E+03</pdfrwt>
<totfact> 0.19595005E+00</totfact>
</mgrwt>
</event>
<event>
 4    1  0.3712574E-007  0.1189233E+04  0.7818608E-02  0.9167661E-01
         -1   -1    0    0    0  501 -0.00000000000E+00  0.00000000000E+00  0.76700297937E+03  0.76700297938E+03  0.50400000000E-02 0.  1.
          1   -1    0    0  501    0  0.00000000000E+00 -0.00000000000E+00 -0.23115078373E+04  0.23115078373E+04  0.50400000000E-02 0. -1.
    8880023    1    1    2    0    0 -0.97101798828E+03 -0.19387616106E+03 -0.16895709718E+04  0.20661375013E+04  0.65864270000E+03 0.  0.
    8880022    1    1    2    0    0  0.97101798828E+03  0.19387616106E+03  0.14506611380E+03  0.10123733154E+04  0.15294330000E+03 0.  0.
<mgrwt>
<rscale>  0 0.11393548E+04</rscale>
<asrwt>0</asrwt>
<pdfrwt beam="1">  1        1 0.35561659E+00 0.11892326E+04</pdfrwt>
<pdfrwt beam="2">  1       -1 0.11800046E+00 0.11892326E+04</pdfrwt>
<totfact> 0.11652418E+00</totfact>
</mgrwt>
</event>
<event>
 4    1  0.3712574E-007  0.9441022E+03  0.7818608E-02  0.9458651E-01
         -1   -1    0    0    0  501 -0.00000000000E+00  0.00000000000E+00  0.66081618457E+03  0.66081618459E+03  0.50400000000E-02 0.  1.
          1   -1    0    0  501    0  0.00000000000E+00 -0.00000000000E+00 -0.18267900516E+04  0.18267900516E+04  0.50400000000E-02 0. -1.
    8880023    1    1    2    0    0  0.50595349134E+03  0.44892070094E+03 -0.14565099175E+04  0.17357275354E+04  0.65864270000E+03 0.  0.
    8880022    1    1    2    0    0 -0.50595349134E+03 -0.44892070094E+03  0.29053605043E+03  0.75187870082E+03  0.15294330000E+03 0.  0.
<mgrwt>
<rscale>  0 0.87402181E+03</rscale>
<asrwt>0</asrwt>
<pdfrwt beam="1">  1        1 0.28104462E+00 0.94410219E+03</pdfrwt>
<pdfrwt beam="2">  1       -1 0.10166403E+00 0.94410219E+03</pdfrwt>
<totfact> 0.36446530E+00</totfact>
</mgrwt>
</event>
<event>
 4    1  0.3712574E-007  0.8476425E+03  0.7818608E-02  0.9615935E-01
          1   -1    0    0  501    0  0.00000000000E+00  0.00000000000E+00  0.28486320680E+04  0.28486320680E+04  0.50400000000E-02 0. -1.
         -1   -1    0    0    0  501 -0.00000000000E+00 -0.00000000000E+00 -0.17662921275E+03  0.17662921282E+03  0.50400000000E-02 0.  1.
    8880023    1    1    2    0    0  0.45720718364E+03 -0.27504386386E+03  0.18299206933E+04  0.20167070898E+04  0.65864270000E+03 0. -1.
    8880022    1    1    2    0    0 -0.45720718364E+03  0.27504386386E+03  0.84208216190E+03  0.10085541910E+04  0.15294330000E+03 0.  0.
<mgrwt>
<rscale>  0 0.76250435E+03</rscale>
<asrwt>0</asrwt>
<pdfrwt beam="1">  1        1 0.43825106E+00 0.84764246E+03</pdfrwt>
<pdfrwt beam="2">  1       -1 0.27173726E-01 0.84764246E+03</pdfrwt>
<totfact> 0.97327257E+00</totfact>
</mgrwt>
</event>
<event>
 4    1  0.3712574E-007  0.1072103E+04  0.7818608E-02  0.9292770E-01
          1   -1    0    0  501    0  0.00000000000E+00  0.00000000000E+00  0.25927826394E+04  0.25927826395E+04  0.50400000000E-02 0. -1.
         -1   -1    0    0    0  501 -0.00000000000E+00 -0.00000000000E+00 -0.52266015365E+03  0.52266015367E+03  0.50400000000E-02 0.  1.
    8880023    1    1    2    0    0  0.82252946844E+03 -0.19758609558E+03  0.24755162626E+03  0.11003122309E+04  0.65864270000E+03 0.  1.
    8880022    1    1    2    0    0 -0.82252946844E+03  0.19758609558E+03  0.18225708595E+04  0.20151305622E+04  0.15294330000E+03 0. -1.
<mgrwt>
<rscale>  0 0.10145116E+04</rscale>
<asrwt>0</asrwt>
<pdfrwt beam="1">  1        1 0.39888963E+00 0.10721032E+04</pdfrwt>
<pdfrwt beam="2">  1       -1 0.80409256E-01 0.10721032E+04</pdfrwt>
<totfact> 0.18187619E+00</totfact>
</mgrwt>
</event>
<event>
 4    1  0.3712574E-007  0.9143947E+03  0.7818608E-02  0.9503308E-01
         -1   -1    0    0    0  501 -0.00000000000E+00  0.00000000000E+00  0.10611442327E+04  0.10611442328E+04  0.50400000000E-02 0.  1.
          1   -1    0    0  501    0  0.00000000000E+00 -0.00000000000E+00 -0.65954880008E+03  0.65954880010E+03  0.50400000000E-02 0. -1.
    8880023    1    1    2    0    0 -0.50655956878E+03  0.38171318398E+03 -0.67841677398E+02  0.91690798394E+03  0.65864270000E+03 0.  0.
    8880022    1    1    2    0    0  0.50655956878E+03 -0.38171318398E+03  0.46943711006E+03  0.80378504892E+03  0.15294330000E+03 0. -1.
<mgrwt>
<rscale>  0 0.84040407E+03</rscale>
<asrwt>0</asrwt>
<pdfrwt beam="1">  1        1 0.10146905E+00 0.91439475E+03</pdfrwt>
<pdfrwt beam="2">  1       -1 0.16325296E+00 0.91439475E+03</pdfrwt>
<totfact> 0.83266175E+00</totfact>
</mgrwt>
</event>
<event>
 4    1  0.3712574E-007  0.7421241E+03  0.7818608E-02  0.9853802E-01
         -1   -1    0    0    0  501 -0.00000000000E+00  0.00000000000E+00  0.10708657822E+04  0.10708657822E+04  0.50400000000E-02 0.  1.
          1   -1    0    0  501    0  0.00000000000E+00 -0.00000000000E+00 -0.71169641944E+03  0.71169641946E+03  0.50400000000E-02 0. -1.
    8880023    1    1    2    0    0 -0.20170326483E+03 -0.27614089166E+03  0.87355229121E+03  0.11462293884E+04  0.65864270000E+03 0.  0.
    8880022    1    1    2    0    0  0.20170326483E+03  0.27614089166E+03 -0.51438292848E+03  0.63633281325E+03  0.15294330000E+03 0.  0.
<mgrwt>
<rscale>  0 0.62553424E+03</rscale>
<asrwt>0</asrwt>
<pdfrwt beam="1">  1        1 0.10949176E+00 0.74212412E+03</pdfrwt>
<pdfrwt beam="2">  1       -1 0.16474858E+00 0.74212412E+03</pdfrwt>
<totfact> 0.73920074E+00</totfact>
</mgrwt>
</event>
<event>
 4    1  0.3712574E-007  0.7178809E+03  0.7818608E-02  0.9929822E-01
          1   -1    0    0  501    0  0.00000000000E+00  0.00000000000E+00  0.58640587423E+03  0.58640587425E+03  0.50400000000E-02 0. -1.
         -1   -1    0    0    0  501 -0.00000000000E+00 -0.00000000000E+00 -0.60109736758E+03  0.60109736760E+03  0.50400000000E-02 0.  1.
    8880023    1    1    2    0    0 -0.14431790832E+03 -0.24640447390E+03 -0.27822416905E+03  0.76991020121E+03  0.65864270000E+03 0.  1.
    8880022    1    1    2    0    0  0.14431790832E+03  0.24640447390E+03  0.26353267570E+03  0.41759304064E+03  0.15294330000E+03 0.  0.
<mgrwt>
<rscale>  0 0.58837483E+03</rscale>
<asrwt>0</asrwt>
<pdfrwt beam="1">  1        1 0.90216289E-01 0.71788093E+03</pdfrwt>
<pdfrwt beam="2">  1       -1 0.92476518E-01 0.71788093E+03</pdfrwt>
<totfact> 0.41299260E+01</totfact>
</mgrwt>
</event>
<event>
 4    1  0.3712574E-007  0.9191295E+03  0.7818608E-02  0.9495995E-01
         -1   -1    0    0    0  501 -0.00000000000E+00  0.00000000000E+00  0.83654992225E+03  0.83654992227E+03  0.50400000000E-02 0.  1.
          1   -1    0    0  501    0  0.00000000000E+00 -0.00000000000E+00 -0.96381835183E+03  0.96381835184E+03  0.50400000000E-02 0. -1.
    8880023    1    1    2    0    0  0.20689764231E+03  0.60678018484E+03  0.35329998233E+03  0.98469280026E+03  0.65864270000E+03 0.  1.
    8880022    1    1    2    0    0 -0.20689764231E+03 -0.60678018484E+03 -0.48056841190E+03  0.81567547385E+03  0.15294330000E+03 0.  0.
<mgrwt>
<rscale>  0 0.84579734E+03</rscale>
<asrwt>0</asrwt>
<pdfrwt beam="1">  1        1 0.14827975E+00 0.91912950E+03</pdfrwt>
<pdfrwt beam="2">  1       -1 0.12869999E+00 0.91912950E+03</pdfrwt>
<totfact> 0.85001511E+00</totfact>
</mgrwt>
</event>
<event>
 4    1  0.3712574E-007  0.7198832E+03  0.7818608E-02  0.9922981E-01
          1   -1    0    0  501    0  0.00000000000E+00  0.00000000000E+00  0.31208413597E+04  0.31208413597E+04  0.50400000000E-02 0. -1.
         -1   -1    0    0    0  501 -0.00000000000E+00 -0.00000000000E+00 -0.10724080661E+03  0.10724080673E+03  0.50400000000E-02 0.  1.
    8880023    1    1    2    0    0 -0.22643961026E+03  0.18206236491E+03  0.13257518889E+04  0.15085920187E+04  0.65864270000E+03 0.  0.
    8880022    1    1    2    0    0  0.22643961026E+03 -0.18206236491E+03  0.16878486643E+04  0.17194901478E+04  0.15294330000E+03 0. -1.
<mgrwt>
<rscale>  0 0.59160324E+03</rscale>
<asrwt>0</asrwt>
<pdfrwt beam="1">  1        1 0.48012941E+00 0.71988319E+03</pdfrwt>
<pdfrwt beam="2">  1       -1 0.16498587E-01 0.71988319E+03</pdfrwt>
<totfact> 0.14638796E+01</totfact>
</mgrwt>
</event>
<event>
 4    1  0.3712574E-007  0.1218077E+04  0.7818608E-02  0.9139748E-01
         -1   -1    0    0    0  501 -0.00000000000E+00  0.00000000000E+00  0.17939878906E+04  0.17939878906E+04  0.50400000000E-02 0.  1.
          1   -1    0    0  501    0  0.00000000000E+00 -0.00000000000E+00 -0.17165682273E+04  0.17165682273E+04  0.50400000000E-02 0. -1.
    8880023    1    1    2    0    0  0.94549258071E+03 -0.39489740021E+03  0.13836134305E+04  0.18433926625E+04  0.65864270000E+03 0.  0.
    8880022    1    1    2    0    0 -0.94549258071E+03  0.39489740021E+03 -0.13061937672E+04  0.16671634555E+04  0.15294330000E+03 0.  0.
<mgrwt>
<rscale>  0 0.11697570E+04</rscale>
<asrwt>0</asrwt>
<pdfrwt beam="1">  1        1 0.26408742E+00 0.12180765E+04</pdfrwt>
<pdfrwt beam="2">  1       -1 0.27599814E+00 0.12180765E+04</pdfrwt>
<totfact> 0.21504000E-01</totfact>
</mgrwt>
</event>
<event>
 4    1  0.3712574E-007  0.7531960E+03  0.7818608E-02  0.9823052E-01
          1   -1    0    0  501    0  0.00000000000E+00  0.00000000000E+00  0.28537935391E+03  0.28537935395E+03  0.50400000000E-02 0. -1.
         -1   -1    0    0    0  501 -0.00000000000E+00 -0.00000000000E+00 -0.15518649563E+04  0.15518649563E+04  0.50400000000E-02 0.  1.
    8880023    1    1    2    0    0 -0.35813723763E+03  0.72330895550E+02 -0.12262810743E+04  0.14391210925E+04  0.65864270000E+03 0.  1.
    8880022    1    1    2    0    0  0.35813723763E+03 -0.72330895550E+02 -0.40204528106E+02  0.39812321777E+03  0.15294330000E+03 0.  0.
<mgrwt>
<rscale>  0 0.64139996E+03</rscale>
<asrwt>0</asrwt>
<pdfrwt beam="1">  1        1 0.43904517E-01 0.75319602E+03</pdfrwt>
<pdfrwt beam="2">  1       -1 0.23874845E+00 0.75319602E+03</pdfrwt>
<totfact> 0.80019559E+00</totfact>
</mgrwt>
</event>
<event>
 4    1  0.3712574E-007  0.1070601E+04  0.7818608E-02  0.9294517E-01
         -1   -1    0    0    0  501 -0.00000000000E+00  0.00000000000E+00  0.57804644718E+03  0.57804644721E+03  0.50400000000E-02 0.  1.
          1   -1    0    0  501    0  0.00000000000E+00 -0.00000000000E+00 -0.42691605284E+04  0.42691605284E+04  0.50400000000E-02 0. -1.
    8880023    1    1    2    0    0 -0.34889139408E+03  0.76853790436E+03 -0.38312890501E+04  0.39780600432E+04  0.65864270000E+03 0.  0.
    8880022    1    1    2    0    0  0.34889139408E+03 -0.76853790436E+03  0.14017496887E+03  0.86914693246E+03  0.15294330000E+03 0.  0.
<mgrwt>
<rscale>  0 0.10128922E+04</rscale>
<asrwt>0</asrwt>
<pdfrwt beam="1">  1        1 0.65679391E+00 0.10706007E+04</pdfrwt>
<pdfrwt beam="2">  1       -1 0.88930226E-01 0.10706007E+04</pdfrwt>
<totfact> 0.70798620E-02</totfact>
</mgrwt>
</event>
<event>
 4    1  0.3712574E-007  0.6806053E+03  0.7818608E-02  0.1008983E+00
         -1   -1    0    0    0  501 -0.00000000000E+00  0.00000000000E+00  0.14808595195E+04  0.14808595195E+04  0.50400000000E-02 0.  1.
          1   -1    0    0  501    0  0.00000000000E+00 -0.00000000000E+00 -0.30075801877E+03  0.30075801881E+03  0.50400000000E-02 0. -1.
    8880023    1    1    2    0    0  0.17059813622E+03  0.17597853838E+02  0.13391298562E+04  0.15021625699E+04  0.65864270000E+03 0.  1.
    8880022    1    1    2    0    0 -0.17059813622E+03 -0.17597853838E+02 -0.15902835540E+03  0.27945496842E+03  0.15294330000E+03 0.  0.
<mgrwt>
<rscale>  0 0.51880715E+03</rscale>
<asrwt>0</asrwt>
<pdfrwt beam="1">  1        1 0.46270465E-01 0.68060533E+03</pdfrwt>
<pdfrwt beam="2">  1       -1 0.22782454E+00 0.68060533E+03</pdfrwt>
<totfact> 0.88954163E+00</totfact>
</mgrwt>
</event>
<event>
 4    1  0.3712574E-007  0.8862027E+03  0.7818608E-02  0.9548554E-01
          1   -1    0    0  501    0  0.00000000000E+00  0.00000000000E+00  0.33321413988E+04  0.33321413988E+04  0.50400000000E-02 0. -1.
         -1   -1    0    0    0  501 -0.00000000000E+00 -0.00000000000E+00 -0.29463839023E+03  0.29463839027E+03  0.50400000000E-02 0.  1.
    8880023    1    1    2    0    0 -0.18117618963E+02  0.59263541355E+03  0.50225290371E+03  0.10186329894E+04  0.65864270000E+03 0.  0.
    8880022    1    1    2    0    0  0.18117618963E+02 -0.59263541355E+03  0.25352501049E+04  0.26081467997E+04  0.15294330000E+03 0.  0.
<mgrwt>
<rscale>  0 0.80796868E+03</rscale>
<asrwt>0</asrwt>
<pdfrwt beam="1">  1        1 0.51263713E+00 0.88620268E+03</pdfrwt>
<pdfrwt beam="2">  1       -1 0.45328984E-01 0.88620268E+03</pdfrwt>
<totfact> 0.17196492E+00</totfact>
</mgrwt>
</event>
<event>
 4    1  0.3712574E-007  0.1403369E+04  0.7818608E-02  0.8981070E-01
         -1   -1    0    0    0  501 -0.00000000000E+00  0.00000000000E+00  0.16956332543E+04  0.16956332543E+04  0.50400000000E-02 0.  1.
          1   -1    0    0  501    0  0.00000000000E+00 -0.00000000000E+00 -0.20154142351E+04  0.20154142351E+04  0.50400000000E-02 0. -1.
    8880023    1    1    2    0    0  0.23371715980E+03  0.12169673879E+04  0.11270673677E+04  0.17999234405E+04  0.65864270000E+03 0.  0.
    8880022    1    1    2    0    0 -0.23371715980E+03 -0.12169673879E+04 -0.14468483485E+04  0.19111240490E+04  0.15294330000E+03 0.  0.
<mgrwt>
<rscale>  0 0.13629674E+04</rscale>
<asrwt>0</asrwt>
<pdfrwt beam="1">  1        1 0.31006373E+00 0.14033686E+04</pdfrwt>
<pdfrwt beam="2">  1       -1 0.26086665E+00 0.14033686E+04</pdfrwt>
<totfact> 0.16455697E-01</totfact>
</mgrwt>
</event>
<event>
 4    1  0.3712574E-007  0.9253839E+03  0.7818608E-02  0.9486453E-01
          1   -1    0    0  501    0  0.00000000000E+00  0.00000000000E+00  0.21558391992E+04  0.21558391992E+04  0.50400000000E-02 0. -1.
         -1   -1    0    0    0  501 -0.00000000000E+00 -0.00000000000E+00 -0.56443255846E+03  0.56443255849E+03  0.50400000000E-02 0.  1.
    8880023    1    1    2    0    0  0.59787422450E+03  0.25509114191E+03 -0.71653762872E+02  0.92815383800E+03  0.65864270000E+03 0.  0.
    8880022    1    1    2    0    0 -0.59787422450E+03 -0.25509114191E+03  0.16630604036E+04  0.17921179197E+04  0.15294330000E+03 0.  0.
<mgrwt>
<rscale>  0 0.85290009E+03</rscale>
<asrwt>0</asrwt>
<pdfrwt beam="1">  1        1 0.33166757E+00 0.92538386E+03</pdfrwt>
<pdfrwt beam="2">  1       -1 0.86835779E-01 0.92538386E+03</pdfrwt>
<totfact> 0.31257329E+00</totfact>
</mgrwt>
</event>
<event>
 4    1  0.3712574E-007  0.9377825E+03  0.7818608E-02  0.9467915E-01
          1   -1    0    0  501    0  0.00000000000E+00  0.00000000000E+00  0.18110253279E+04  0.18110253279E+04  0.50400000000E-02 0. -1.
         -1   -1    0    0    0  501 -0.00000000000E+00 -0.00000000000E+00 -0.46277172709E+03  0.46277172712E+03  0.50400000000E-02 0.  1.
    8880023    1    1    2    0    0  0.45884423383E+03 -0.48485848389E+03  0.23503390296E+03  0.96678690626E+03  0.65864270000E+03 0.  0.
    8880022    1    1    2    0    0 -0.45884423383E+03  0.48485848389E+03  0.11132196979E+04  0.13070101488E+04  0.15294330000E+03 0.  0.
<mgrwt>
<rscale>  0 0.86691239E+03</rscale>
<asrwt>0</asrwt>
<pdfrwt beam="1">  1        1 0.27861928E+00 0.93778248E+03</pdfrwt>
<pdfrwt beam="2">  1       -1 0.71195651E-01 0.93778248E+03</pdfrwt>
<totfact> 0.81117610E+00</totfact>
</mgrwt>
</event>
<event>
 4    1  0.3712574E-007  0.7798146E+03  0.7818608E-02  0.9756273E-01
          1   -1    0    0  501    0  0.00000000000E+00  0.00000000000E+00  0.22572171028E+04  0.22572171028E+04  0.50400000000E-02 0. -1.
         -1   -1    0    0    0  501 -0.00000000000E+00 -0.00000000000E+00 -0.58727190810E+03  0.58727190813E+03  0.50400000000E-02 0.  1.
    8880023    1    1    2    0    0  0.17330682083E+03  0.37982280792E+03 -0.29207661568E+03  0.83271818477E+03  0.65864270000E+03 0.  1.
    8880022    1    1    2    0    0 -0.17330682083E+03 -0.37982280792E+03  0.19620218104E+04  0.20117708262E+04  0.15294330000E+03 0.  0.
<mgrwt>
<rscale>  0 0.67762940E+03</rscale>
<asrwt>0</asrwt>
<pdfrwt beam="1">  1        1 0.34726417E+00 0.77981461E+03</pdfrwt>
<pdfrwt beam="2">  1       -1 0.90349525E-01 0.77981461E+03</pdfrwt>
<totfact> 0.25087416E+00</totfact>
</mgrwt>
</event>
<event>
 4    1  0.3712574E-007  0.7417760E+03  0.7818608E-02  0.9854804E-01
          1   -1    0    0  501    0  0.00000000000E+00  0.00000000000E+00  0.11123274643E+04  0.11123274643E+04  0.50400000000E-02 0. -1.
         -1   -1    0    0    0  501 -0.00000000000E+00 -0.00000000000E+00 -0.43522396023E+03  0.43522396026E+03  0.50400000000E-02 0.  1.
    8880023    1    1    2    0    0 -0.57934701026E+02  0.33625136234E+03 -0.35692844963E+02  0.74263422605E+03  0.65864270000E+03 0.  1.
    8880022    1    1    2    0    0  0.57934701026E+02 -0.33625136234E+03  0.71279634905E+03  0.80491719853E+03  0.15294330000E+03 0.  0.
<mgrwt>
<rscale>  0 0.62502595E+03</rscale>
<asrwt>0</asrwt>
<pdfrwt beam="1">  1        1 0.17112730E+00 0.74177599E+03</pdfrwt>
<pdfrwt beam="2">  1       -1 0.66957531E-01 0.74177599E+03</pdfrwt>
<totfact> 0.28862884E+01</totfact>
</mgrwt>
</event>
<event>
 4    1  0.3712574E-007  0.6699183E+03  0.7818608E-02  0.1015722E+00
         -1   -1    0    0    0  501 -0.00000000000E+00  0.00000000000E+00  0.19287297399E+03  0.19287297406E+03  0.50400000000E-02 0.  1.
          1   -1    0    0  501    0  0.00000000000E+00 -0.00000000000E+00 -0.21965797022E+04  0.21965797022E+04  0.50400000000E-02 0. -1.
    8880023    1    1    2    0    0 -0.78117691457E+02  0.94222624308E+02 -0.41356455480E+03  0.78729036822E+03  0.65864270000E+03 0.  1.
    8880022    1    1    2    0    0  0.78117691457E+02 -0.94222624308E+02 -0.15901421734E+04  0.16021623080E+04  0.15294330000E+03 0.  0.
<mgrwt>
<rscale>  0 0.49262684E+03</rscale>
<asrwt>0</asrwt>
<pdfrwt beam="1">  1        1 0.33793532E+00 0.66991827E+03</pdfrwt>
<pdfrwt beam="2">  1       -1 0.29672767E-01 0.66991827E+03</pdfrwt>
<totfact> 0.24020557E+01</totfact>
</mgrwt>
</event>
<event>
 4    1  0.3712574E-007  0.8093993E+03  0.7818608E-02  0.9690830E-01
         -1   -1    0    0    0  501 -0.00000000000E+00  0.00000000000E+00  0.32705831026E+03  0.32705831030E+03  0.50400000000E-02 0.  1.
          1   -1    0    0  501    0  0.00000000000E+00 -0.00000000000E+00 -0.18388875964E+04  0.18388875965E+04  0.50400000000E-02 0. -1.
    8880023    1    1    2    0    0  0.43283923890E+03  0.18430197037E+03 -0.31078082337E+03  0.86701323488E+03  0.65864270000E+03 0.  1.
    8880022    1    1    2    0    0 -0.43283923890E+03 -0.18430197037E+03 -0.12010484628E+04  0.12989326719E+04  0.15294330000E+03 0.  0.
<mgrwt>
<rscale>  0 0.71565431E+03</rscale>
<asrwt>0</asrwt>
<pdfrwt beam="1">  1        1 0.28290578E+00 0.80939930E+03</pdfrwt>
<pdfrwt beam="2">  1       -1 0.50316664E-01 0.80939930E+03</pdfrwt>
<totfact> 0.15689487E+01</totfact>
</mgrwt>
</event>
<event>
 4    1  0.3712574E-007  0.7985580E+03  0.7818608E-02  0.9713923E-01
          1   -1    0    0  501    0  0.00000000000E+00  0.00000000000E+00  0.19405212576E+04  0.19405212576E+04  0.50400000000E-02 0. -1.
         -1   -1    0    0    0  501 -0.00000000000E+00 -0.00000000000E+00 -0.42857675212E+03  0.42857675215E+03  0.50400000000E-02 0.  1.
    8880023    1    1    2    0    0 -0.37717676382E+03  0.24823857256E+03  0.16828073215E+04  0.18626688883E+04  0.65864270000E+03 0. -1.
    8880022    1    1    2    0    0  0.37717676382E+03 -0.24823857256E+03 -0.17086281604E+03  0.50642912139E+03  0.15294330000E+03 0.  0.
<mgrwt>
<rscale>  0 0.70193862E+03</rscale>
<asrwt>0</asrwt>
<pdfrwt beam="1">  1        1 0.29854173E+00 0.79855802E+03</pdfrwt>
<pdfrwt beam="2">  1       -1 0.65934885E-01 0.79855802E+03</pdfrwt>
<totfact> 0.79168856E+00</totfact>
</mgrwt>
</event>
<event>
 4    1  0.3712574E-007  0.9904462E+03  0.7818608E-02  0.9394165E-01
          1   -1    0    0  501    0  0.00000000000E+00  0.00000000000E+00  0.17018288450E+04  0.17018288450E+04  0.50400000000E-02 0. -1.
         -1   -1    0    0    0  501 -0.00000000000E+00 -0.00000000000E+00 -0.76881439346E+03  0.76881439348E+03  0.50400000000E-02 0.  1.
    8880023    1    1    2    0    0  0.62192873637E+03 -0.40047233348E+03  0.12971895942E+04  0.16320798058E+04  0.65864270000E+03 0. -1.
    8880022    1    1    2    0    0 -0.62192873637E+03  0.40047233348E+03 -0.36417514269E+03  0.83856343265E+03  0.15294330000E+03 0.  0.
<mgrwt>
<rscale>  0 0.92557436E+03</rscale>
<asrwt>0</asrwt>
<pdfrwt beam="1">  1        1 0.26181982E+00 0.99044619E+03</pdfrwt>
<pdfrwt beam="2">  1       -1 0.11827914E+00 0.99044619E+03</pdfrwt>
<totfact> 0.30744538E+00</totfact>
</mgrwt>
</event>
<event>
 4    1  0.3712574E-007  0.6831228E+03  0.7818608E-02  0.1007610E+00
          1   -1    0    0  501    0  0.00000000000E+00  0.00000000000E+00  0.79078559408E+03  0.79078559410E+03  0.50400000000E-02 0. -1.
         -1   -1    0    0    0  501 -0.00000000000E+00 -0.00000000000E+00 -0.66326848305E+03  0.66326848307E+03  0.50400000000E-02 0.  1.
    8880023    1    1    2    0    0 -0.43415385701E+02 -0.17595936150E+03 -0.45792404874E+03  0.82240575952E+03  0.65864270000E+03 0.  0.
    8880022    1    1    2    0    0  0.43415385701E+02  0.17595936150E+03  0.58544115978E+03  0.63164831765E+03  0.15294330000E+03 0.  0.
<mgrwt>
<rscale>  0 0.52435821E+03</rscale>
<asrwt>0</asrwt>
<pdfrwt beam="1">  1        1 0.12165932E+00 0.68312283E+03</pdfrwt>
<pdfrwt beam="2">  1       -1 0.10204131E+00 0.68312283E+03</pdfrwt>
<totfact> 0.21219068E+01</totfact>
</mgrwt>
</event>
<event>
 4    1  0.3712574E-007  0.6768550E+03  0.7818608E-02  0.1011162E+00
          1   -1    0    0  501    0  0.00000000000E+00  0.00000000000E+00  0.16608466050E+04  0.16608466051E+04  0.50400000000E-02 0. -1.
         -1   -1    0    0    0  501 -0.00000000000E+00 -0.00000000000E+00 -0.19546378388E+03  0.19546378394E+03  0.50400000000E-02 0.  1.
    8880023    1    1    2    0    0 -0.13549870993E+03  0.77217409332E+02  0.43857119942E+03  0.80652174919E+03  0.65864270000E+03 0.  1.
    8880022    1    1    2    0    0  0.13549870993E+03 -0.77217409332E+02  0.10268116217E+04  0.10497886398E+04  0.15294330000E+03 0.  0.
<mgrwt>
<rscale>  0 0.51015545E+03</rscale>
<asrwt>0</asrwt>
<pdfrwt beam="1">  1        1 0.25551486E+00 0.67685496E+03</pdfrwt>
<pdfrwt beam="2">  1       -1 0.30071352E-01 0.67685496E+03</pdfrwt>
<totfact> 0.53452995E+01</totfact>
</mgrwt>
</event>
<event>
 4    1  0.3712574E-007  0.8445594E+03  0.7818608E-02  0.9621642E-01
         -1   -1    0    0    0  501 -0.00000000000E+00  0.00000000000E+00  0.19235589735E+03  0.19235589741E+03  0.50400000000E-02 0.  1.
          1   -1    0    0  501    0  0.00000000000E+00 -0.00000000000E+00 -0.32005465930E+04  0.32005465930E+04  0.50400000000E-02 0. -1.
    8880023    1    1    2    0    0  0.47897691598E+03 -0.22372172178E+03 -0.99135233944E+03  0.13023286690E+04  0.65864270000E+03 0.  0.
    8880022    1    1    2    0    0 -0.47897691598E+03  0.22372172178E+03 -0.20168383562E+04  0.20905738214E+04  0.15294330000E+03 0.  0.
<mgrwt>
<rscale>  0 0.75880157E+03</rscale>
<asrwt>0</asrwt>
<pdfrwt beam="1">  1        1 0.49239175E+00 0.84455935E+03</pdfrwt>
<pdfrwt beam="2">  1       -1 0.29593217E-01 0.84455935E+03</pdfrwt>
<totfact> 0.46794465E+00</totfact>
</mgrwt>
</event>
<event>
 4    1  0.3712574E-007  0.7068123E+03  0.7818608E-02  0.9970034E-01
          1   -1    0    0  501    0  0.00000000000E+00  0.00000000000E+00  0.20131254731E+04  0.20131254731E+04  0.50400000000E-02 0. -1.
         -1   -1    0    0    0  501 -0.00000000000E+00 -0.00000000000E+00 -0.22262227686E+03  0.22262227691E+03  0.50400000000E-02 0.  1.
    8880023    1    1    2    0    0  0.20042097625E+03  0.16001536429E+03  0.39713064922E+03  0.81073820888E+03  0.65864270000E+03 0.  1.
    8880022    1    1    2    0    0 -0.20042097625E+03 -0.16001536429E+03  0.13933725471E+04  0.14250095412E+04  0.15294330000E+03 0.  0.
<mgrwt>
<rscale>  0 0.56983941E+03</rscale>
<asrwt>0</asrwt>
<pdfrwt beam="1">  1        1 0.30971160E+00 0.70681234E+03</pdfrwt>
<pdfrwt beam="2">  1       -1 0.34249582E-01 0.70681234E+03</pdfrwt>
<totfact> 0.24626241E+01</totfact>
</mgrwt>
</event>
<event>
 4    1  0.3712574E-007  0.7408677E+03  0.7818608E-02  0.9857427E-01
         -1   -1    0    0    0  501 -0.00000000000E+00  0.00000000000E+00  0.67196532738E+03  0.67196532740E+03  0.50400000000E-02 0.  1.
          1   -1    0    0  501    0  0.00000000000E+00 -0.00000000000E+00 -0.88660873464E+03  0.88660873465E+03  0.50400000000E-02 0. -1.
    8880023    1    1    2    0    0  0.14172279135E+03  0.30820352401E+03  0.39858121085E+03  0.84127994729E+03  0.65864270000E+03 0.  1.
    8880022    1    1    2    0    0 -0.14172279135E+03 -0.30820352401E+03 -0.61322461811E+03  0.71729411476E+03  0.15294330000E+03 0.  0.
<mgrwt>
<rscale>  0 0.62369686E+03</rscale>
<asrwt>0</asrwt>
<pdfrwt beam="1">  1        1 0.13640134E+00 0.74086771E+03</pdfrwt>
<pdfrwt beam="2">  1       -1 0.10337928E+00 0.74086771E+03</pdfrwt>
<totfact> 0.16973119E+01</totfact>
</mgrwt>
</event>
<event>
 4    1  0.3712574E-007  0.1030005E+04  0.7818608E-02  0.9343314E-01
          1   -1    0    0  501    0  0.00000000000E+00  0.00000000000E+00  0.28330070336E+04  0.28330070336E+04  0.50400000000E-02 0. -1.
         -1   -1    0    0    0  501 -0.00000000000E+00 -0.00000000000E+00 -0.31172930711E+03  0.31172930716E+03  0.50400000000E-02 0.  1.
    8880023    1    1    2    0    0 -0.58502366418E+03  0.53371041530E+03  0.10751907086E+04  0.14889408186E+04  0.65864270000E+03 0. -1.
    8880022    1    1    2    0    0  0.58502366418E+03 -0.53371041530E+03  0.14460870178E+04  0.16557955222E+04  0.15294330000E+03 0.  0.
<mgrwt>
<rscale>  0 0.96891255E+03</rscale>
<asrwt>0</asrwt>
<pdfrwt beam="1">  1        1 0.43584726E+00 0.10300047E+04</pdfrwt>
<pdfrwt beam="2">  1       -1 0.47958352E-01 0.10300047E+04</pdfrwt>
<totfact> 0.34980493E+00</totfact>
</mgrwt>
</event>
<event>
 4    1  0.3712574E-007  0.6612899E+03  0.7818608E-02  0.1022872E+00
          1   -1    0    0  501    0  0.00000000000E+00  0.00000000000E+00  0.16663631919E+04  0.16663631919E+04  0.50400000000E-02 0. -1.
         -1   -1    0    0    0  501 -0.00000000000E+00 -0.00000000000E+00 -0.16119768579E+03  0.16119768587E+03  0.50400000000E-02 0.  1.
    8880023    1    1    2    0    0  0.59061748330E+02 -0.24046823820E+01  0.55492207926E+03  0.86327445979E+03  0.65864270000E+03 0.  1.
    8880022    1    1    2    0    0 -0.59061748330E+02  0.24046823820E+01  0.95024342683E+03  0.96428641796E+03  0.15294330000E+03 0.  0.
<mgrwt>
<rscale>  0 0.46664231E+03</rscale>
<asrwt>0</asrwt>
<pdfrwt beam="1">  1        1 0.25636358E+00 0.66128986E+03</pdfrwt>
<pdfrwt beam="2">  1       -1 0.24799643E-01 0.66128986E+03</pdfrwt>
<totfact> 0.73963739E+01</totfact>
</mgrwt>
</event>
<event>
 4    1  0.3712574E-007  0.6870174E+03  0.7818608E-02  0.1005604E+00
         -1   -1    0    0    0  501 -0.00000000000E+00  0.00000000000E+00  0.40802801908E+03  0.40802801911E+03  0.50400000000E-02 0.  1.
          1   -1    0    0  501    0  0.00000000000E+00 -0.00000000000E+00 -0.59083794977E+03  0.59083794979E+03  0.50400000000E-02 0. -1.
    8880023    1    1    2    0    0 -0.18333470490E+03  0.67609651009E+02  0.60252630745E+01  0.68704380427E+03  0.65864270000E+03 0. -1.
    8880022    1    1    2    0    0  0.18333470490E+03 -0.67609651009E+02 -0.18883519377E+03  0.31182216463E+03  0.15294330000E+03 0. -1.
<mgrwt>
<rscale>  0 0.53259950E+03</rscale>
<asrwt>0</asrwt>
<pdfrwt beam="1">  1        1 0.90898146E-01 0.68701738E+03</pdfrwt>
<pdfrwt beam="2">  1       -1 0.62773541E-01 0.68701738E+03</pdfrwt>
<totfact> 0.92240163E+01</totfact>
</mgrwt>
</event>
<event>
 4    1  0.3712574E-007  0.7471274E+03  0.7818608E-02  0.9839652E-01
          1   -1    0    0  501    0  0.00000000000E+00  0.00000000000E+00  0.40574639781E+03  0.40574639784E+03  0.50400000000E-02 0. -1.
         -1   -1    0    0    0  501 -0.00000000000E+00 -0.00000000000E+00 -0.11608225962E+04  0.11608225962E+04  0.50400000000E-02 0.  1.
    8880023    1    1    2    0    0  0.16895160174E+03 -0.30958761864E+03 -0.88737811344E+03  0.11600169222E+04  0.65864270000E+03 0.  1.
    8880022    1    1    2    0    0 -0.16895160174E+03  0.30958761864E+03  0.13230191507E+03  0.40655207181E+03  0.15294330000E+03 0.  0.
<mgrwt>
<rscale>  0 0.63277344E+03</rscale>
<asrwt>0</asrwt>
<pdfrwt beam="1">  1        1 0.62422523E-01 0.74712739E+03</pdfrwt>
<pdfrwt beam="2">  1       -1 0.17858809E+00 0.74712739E+03</pdfrwt>
<totfact> 0.12908470E+01</totfact>
</mgrwt>
</event>
<event>
 4    1  0.3712574E-007  0.8319278E+03  0.7818608E-02  0.9645593E-01
          1   -1    0    0  501    0  0.00000000000E+00  0.00000000000E+00  0.21169044489E+04  0.21169044489E+04  0.50400000000E-02 0. -1.
         -1   -1    0    0    0  501 -0.00000000000E+00 -0.00000000000E+00 -0.72447221567E+03  0.72447221569E+03  0.50400000000E-02 0.  1.
    8880023    1    1    2    0    0  0.28291762373E+03  0.42219807704E+03 -0.43474856393E+03  0.93867466045E+03  0.65864270000E+03 0.  1.
    8880022    1    1    2    0    0 -0.28291762373E+03 -0.42219807704E+03  0.18271807972E+04  0.19027020042E+04  0.15294330000E+03 0.  0.
<mgrwt>
<rscale>  0 0.74350643E+03</rscale>
<asrwt>0</asrwt>
<pdfrwt beam="1">  1        1 0.32567760E+00 0.83192776E+03</pdfrwt>
<pdfrwt beam="2">  1       -1 0.11145727E+00 0.83192776E+03</pdfrwt>
<totfact> 0.19103359E+00</totfact>
</mgrwt>
</event>
<event>
 4    1  0.3712574E-007  0.6890150E+03  0.7818608E-02  0.1004624E+00
         -1   -1    0    0    0  501 -0.00000000000E+00  0.00000000000E+00  0.92945022728E+03  0.92945022729E+03  0.50400000000E-02 0.  1.
          1   -1    0    0  501    0  0.00000000000E+00 -0.00000000000E+00 -0.34530779398E+03  0.34530779402E+03  0.50400000000E-02 0. -1.
    8880023    1    1    2    0    0 -0.20180949910E+03 -0.14297296248E+02  0.71194148609E+03  0.99075848343E+03  0.65864270000E+03 0.  0.
    8880022    1    1    2    0    0  0.20180949910E+03  0.14297296248E+02 -0.12779905279E+03  0.28399953788E+03  0.15294330000E+03 0.  0.
<mgrwt>
<rscale>  0 0.53668248E+03</rscale>
<asrwt>0</asrwt>
<pdfrwt beam="1">  1        1 0.53124277E-01 0.68901502E+03</pdfrwt>
<pdfrwt beam="2">  1       -1 0.14299234E+00 0.68901502E+03</pdfrwt>
<totfact> 0.29751410E+01</totfact>
</mgrwt>
</event>
<event>
 4    1  0.3712574E-007  0.7217113E+03  0.7818608E-02  0.9916837E-01
          1   -1    0    0  501    0  0.00000000000E+00  0.00000000000E+00  0.11260219547E+04  0.11260219547E+04  0.50400000000E-02 0. -1.
         -1   -1    0    0    0  501 -0.00000000000E+00 -0.00000000000E+00 -0.37190265101E+03  0.37190265104E+03  0.50400000000E-02 0.  1.
    8880023    1    1    2    0    0  0.28590110980E+03 -0.72921959556E+02  0.54963950953E+02  0.72380128415E+03  0.65864270000E+03 0.  1.
    8880022    1    1    2    0    0 -0.28590110980E+03  0.72921959556E+02  0.69915535277E+03  0.77412332163E+03  0.15294330000E+03 0.  0.
<mgrwt>
<rscale>  0 0.59452173E+03</rscale>
<asrwt>0</asrwt>
<pdfrwt beam="1">  1        1 0.17323415E+00 0.72171134E+03</pdfrwt>
<pdfrwt beam="2">  1       -1 0.57215793E-01 0.72171134E+03</pdfrwt>
<totfact> 0.38611157E+01</totfact>
</mgrwt>
</event>
<event>
 4    1  0.3712574E-007  0.6821803E+03  0.7818608E-02  0.1008116E+00
          1   -1    0    0  501    0  0.00000000000E+00  0.00000000000E+00  0.24393328260E+03  0.24393328266E+03  0.50400000000E-02 0. -1.
         -1   -1    0    0    0  501 -0.00000000000E+00 -0.00000000000E+00 -0.20565120706E+04  0.20565120706E+04  0.50400000000E-02 0.  1.
    8880023    1    1    2    0    0  0.60418433206E+02  0.16706102164E+03 -0.19236621145E+04  0.20410403987E+04  0.65864270000E+03 0.  0.
    8880022    1    1    2    0    0 -0.60418433206E+02 -0.16706102164E+03  0.11108332650E+03  0.25940495458E+03  0.15294330000E+03 0.  0.
<mgrwt>
<rscale>  0 0.52230208E+03</rscale>
<asrwt>0</asrwt>
<pdfrwt beam="1">  1        1 0.37528199E-01 0.68218031E+03</pdfrwt>
<pdfrwt beam="2">  1       -1 0.31638646E+00 0.68218031E+03</pdfrwt>
<totfact> 0.31498068E+00</totfact>
</mgrwt>
</event>
<event>
 4    1  0.3712574E-007  0.7646649E+03  0.7818608E-02  0.9793177E-01
         -1   -1    0    0    0  501 -0.00000000000E+00  0.00000000000E+00  0.33788373086E+03  0.33788373089E+03  0.50400000000E-02 0.  1.
          1   -1    0    0  501    0  0.00000000000E+00 -0.00000000000E+00 -0.15548004293E+04  0.15548004293E+04  0.50400000000E-02 0. -1.
    8880023    1    1    2    0    0 -0.27589803728E+03  0.27346379399E+03 -0.19552861633E+03  0.78926790107E+03  0.65864270000E+03 0.  1.
    8880022    1    1    2    0    0  0.27589803728E+03 -0.27346379399E+03 -0.10213880821E+04  0.11034162591E+04  0.15294330000E+03 0.  0.
<mgrwt>
<rscale>  0 0.65729996E+03</rscale>
<asrwt>0</asrwt>
<pdfrwt beam="1">  1        1 0.23920006E+00 0.76466488E+03</pdfrwt>
<pdfrwt beam="2">  1       -1 0.51982113E-01 0.76466488E+03</pdfrwt>
<totfact> 0.23059853E+01</totfact>
</mgrwt>
</event>
<event>
 4    1  0.3712574E-007  0.9186726E+03  0.7818608E-02  0.9496697E-01
         -1   -1    0    0    0  501 -0.00000000000E+00  0.00000000000E+00  0.15106382662E+04  0.15106382662E+04  0.50400000000E-02 0.  1.
          1   -1    0    0  501    0  0.00000000000E+00 -0.00000000000E+00 -0.49397434528E+03  0.49397434531E+03  0.50400000000E-02 0. -1.
    8880023    1    1    2    0    0 -0.63988155443E+03  0.26472208357E+02  0.98279350200E+03  0.13453038524E+04  0.65864270000E+03 0.  0.
    8880022    1    1    2    0    0  0.63988155443E+03 -0.26472208357E+02  0.33870418916E+02  0.65930875908E+03  0.15294330000E+03 0.  0.
<mgrwt>
<rscale>  0 0.84527754E+03</rscale>
<asrwt>0</asrwt>
<pdfrwt beam="1">  1        1 0.75996054E-01 0.91867262E+03</pdfrwt>
<pdfrwt beam="2">  1       -1 0.23240589E+00 0.91867262E+03</pdfrwt>
<totfact> 0.41677079E+00</totfact>
</mgrwt>
</event>
<event>
 4    1  0.3712574E-007  0.1067820E+04  0.7818608E-02  0.9297759E-01
          1   -1    0    0  501    0  0.00000000000E+00  0.00000000000E+00  0.97253190230E+03  0.97253190231E+03  0.50400000000E-02 0. -1.
         -1   -1    0    0    0  501 -0.00000000000E+00 -0.00000000000E+00 -0.17265310787E+04  0.17265310787E+04  0.50400000000E-02 0.  1.
    8880023    1    1    2    0    0 -0.82903627444E+03  0.13830804610E+03 -0.13021778388E+04  0.16840153176E+04  0.65864270000E+03 0.  0.
    8880022    1    1    2    0    0  0.82903627444E+03 -0.13830804610E+03  0.54817866240E+03  0.10150476634E+04  0.15294330000E+03 0.  0.
<mgrwt>
<rscale>  0 0.10098940E+04</rscale>
<asrwt>0</asrwt>
<pdfrwt beam="1">  1        1 0.14962029E+00 0.10678204E+04</pdfrwt>
<pdfrwt beam="2">  1       -1 0.26562017E+00 0.10678204E+04</pdfrwt>
<totfact> 0.87741584E-01</totfact>
</mgrwt>
</event>
<event>
 4    1  0.3712574E-007  0.8326602E+03  0.7818608E-02  0.9644178E-01
          1   -1    0    0  501    0  0.00000000000E+00  0.00000000000E+00  0.25332122877E+04  0.25332122877E+04  0.50400000000E-02 0. -1.
         -1   -1    0    0    0  501 -0.00000000000E+00 -0.00000000000E+00 -0.60440905969E+03  0.60440905971E+03  0.50400000000E-02 0.  1.
    8880023    1    1    2    0    0 -0.41163287441E+03 -0.30011863740E+03 -0.27004647811E+03  0.87535599982E+03  0.65864270000E+03 0.  0.
    8880022    1    1    2    0    0  0.41163287441E+03  0.30011863740E+03  0.21988497061E+04  0.22622653476E+04  0.15294330000E+03 0.  0.
<mgrwt>
<rscale>  0 0.74439909E+03</rscale>
<asrwt>0</asrwt>
<pdfrwt beam="1">  1        1 0.38972496E+00 0.83266021E+03</pdfrwt>
<pdfrwt beam="2">  1       -1 0.92986010E-01 0.83266021E+03</pdfrwt>
<totfact> 0.15134657E+00</totfact>
</mgrwt>
</event>
<event>
 4    1  0.3712574E-007  0.7379451E+03  0.7818608E-02  0.9865974E-01
         -1   -1    0    0    0  501 -0.00000000000E+00  0.00000000000E+00  0.35581387075E+03  0.35581387078E+03  0.50400000000E-02 0.  1.
          1   -1    0    0  501    0  0.00000000000E+00 -0.00000000000E+00 -0.11101557423E+04  0.11101557423E+04  0.50400000000E-02 0. -1.
    8880023    1    1    2    0    0  0.32455606069E+03  0.73593990893E+02 -0.14055441833E+03  0.75121133032E+03  0.65864270000E+03 0.  0.
    8880022    1    1    2    0    0 -0.32455606069E+03 -0.73593990893E+02 -0.61378745319E+03  0.71475828273E+03  0.15294330000E+03 0.  0.
<mgrwt>
<rscale>  0 0.61939056E+03</rscale>
<asrwt>0</asrwt>
<pdfrwt beam="1">  1        1 0.17079319E+00 0.73794506E+03</pdfrwt>
<pdfrwt beam="2">  1       -1 0.54740596E-01 0.73794506E+03</pdfrwt>
<totfact> 0.43144750E+01</totfact>
</mgrwt>
</event>
<event>
 4    1  0.3712574E-007  0.6836657E+03  0.7818608E-02  0.1007322E+00
          1   -1    0    0  501    0  0.00000000000E+00  0.00000000000E+00  0.82889372169E+03  0.82889372171E+03  0.50400000000E-02 0. -1.
         -1   -1    0    0    0  501 -0.00000000000E+00 -0.00000000000E+00 -0.38736008901E+03  0.38736008904E+03  0.50400000000E-02 0.  1.
    8880023    1    1    2    0    0  0.12036326270E+03  0.13820718653E+03 -0.33639594855E+02  0.68449278303E+03  0.65864270000E+03 0.  1.
    8880022    1    1    2    0    0 -0.12036326270E+03 -0.13820718653E+03  0.47517322754E+03  0.53176102772E+03  0.15294330000E+03 0.  0.
<mgrwt>
<rscale>  0 0.52553098E+03</rscale>
<asrwt>0</asrwt>
<pdfrwt beam="1">  1        1 0.12752211E+00 0.68366567E+03</pdfrwt>
<pdfrwt beam="2">  1       -1 0.59593860E-01 0.68366567E+03</pdfrwt>
<totfact> 0.61265395E+01</totfact>
</mgrwt>
</event>
<event>
 4    1  0.3712574E-007  0.6623081E+03  0.7818608E-02  0.1021907E+00
          1   -1    0    0  501    0  0.00000000000E+00  0.00000000000E+00  0.13316060068E+04  0.13316060068E+04  0.50400000000E-02 0. -1.
         -1   -1    0    0    0  501 -0.00000000000E+00 -0.00000000000E+00 -0.15626054365E+03  0.15626054373E+03  0.50400000000E-02 0.  1.
    8880023    1    1    2    0    0 -0.66574790156E+02 -0.20240016594E+02  0.61841168968E+03  0.90613745379E+03  0.65864270000E+03 0.  1.
    8880022    1    1    2    0    0  0.66574790156E+02  0.20240016594E+02  0.55693377349E+03  0.58172909676E+03  0.15294330000E+03 0.  0.
<mgrwt>
<rscale>  0 0.47004635E+03</rscale>
<asrwt>0</asrwt>
<pdfrwt beam="1">  1        1 0.20486246E+00 0.66230814E+03</pdfrwt>
<pdfrwt beam="2">  1       -1 0.24040084E-01 0.66230814E+03</pdfrwt>
<totfact> 0.13205621E+02</totfact>
</mgrwt>
</event>
<event>
 4    1  0.1254783E-006  0.6787913E+03  0.7818608E-02  0.1010016E+00
          1   -1    0    0  501    0  0.00000000000E+00  0.00000000000E+00  0.28640662058E+04  0.28640662058E+04  0.50400000000E-02 0. -1.
         -1   -1    0    0    0  501 -0.00000000000E+00 -0.00000000000E+00 -0.14054245240E+04  0.14054245240E+04  0.50400000000E-02 0.  1.
    8880023    1    1    2    0    0  0.31175134595E+02 -0.16116927110E+03 -0.13186753722E+04  0.14831258768E+04  0.65864270000E+03 0.  1.
    8880022    1    1    2    0    0 -0.31175134595E+02  0.16116927110E+03  0.27773170539E+04  0.27863648530E+04  0.15294330000E+03 0.  0.
<mgrwt>
<rscale>  0 0.51468363E+03</rscale>
<asrwt>0</asrwt>
<pdfrwt beam="1">  1        1 0.44062557E+00 0.67879130E+03</pdfrwt>
<pdfrwt beam="2">  1       -1 0.21621916E+00 0.67879130E+03</pdfrwt>
<totfact> 0.97624692E-02</totfact>
</mgrwt>
</event>
<event>
 4    1  0.3712574E-007  0.9034463E+03  0.7818608E-02  0.9520522E-01
         -1   -1    0    0    0  501 -0.00000000000E+00  0.00000000000E+00  0.10493806567E+04  0.10493806567E+04  0.50400000000E-02 0.  1.
          1   -1    0    0  501    0  0.00000000000E+00 -0.00000000000E+00 -0.71342899938E+03  0.71342899940E+03  0.50400000000E-02 0. -1.
    8880023    1    1    2    0    0  0.10540595229E+03  0.60933942811E+03  0.58777506361E+03  0.10778194121E+04  0.65864270000E+03 0.  1.
    8880022    1    1    2    0    0 -0.10540595229E+03 -0.60933942811E+03 -0.25182340629E+03  0.68499024402E+03  0.15294330000E+03 0. -1.
<mgrwt>
<rscale>  0 0.82787601E+03</rscale>
<asrwt>0</asrwt>
<pdfrwt beam="1">  1        1 0.10975831E+00 0.90344627E+03</pdfrwt>
<pdfrwt beam="2">  1       -1 0.16144318E+00 0.90344627E+03</pdfrwt>
<totfact> 0.76397725E+00</totfact>
</mgrwt>
</event>
<event>
 4    1  0.3712574E-007  0.7940782E+03  0.7818608E-02  0.9723749E-01
          1   -1    0    0  501    0  0.00000000000E+00  0.00000000000E+00  0.10114495389E+04  0.10114495389E+04  0.50400000000E-02 0. -1.
         -1   -1    0    0    0  501 -0.00000000000E+00 -0.00000000000E+00 -0.42851616480E+03  0.42851616483E+03  0.50400000000E-02 0.  1.
    8880023    1    1    2    0    0 -0.44144105103E+03 -0.43356726300E+02  0.55719984174E+03  0.97006797553E+03  0.65864270000E+03 0. -1.
    8880022    1    1    2    0    0  0.44144105103E+03  0.43356726300E+02  0.25733532346E+02  0.46989772819E+03  0.15294330000E+03 0.  1.
<mgrwt>
<rscale>  0 0.69620196E+03</rscale>
<asrwt>0</asrwt>
<pdfrwt beam="1">  1        1 0.15560762E+00 0.79407822E+03</pdfrwt>
<pdfrwt beam="2">  1       -1 0.65925564E-01 0.79407822E+03</pdfrwt>
<totfact> 0.35311375E+01</totfact>
</mgrwt>
</event>
<event>
 4    1  0.3712574E-007  0.8100368E+03  0.7818608E-02  0.9689500E-01
         -1   -1    0    0    0  501 -0.00000000000E+00  0.00000000000E+00  0.11956400417E+04  0.11956400417E+04  0.50400000000E-02 0.  1.
          1   -1    0    0  501    0  0.00000000000E+00 -0.00000000000E+00 -0.42874799592E+03  0.42874799595E+03  0.50400000000E-02 0. -1.
    8880023    1    1    2    0    0  0.69596539112E+02  0.46637517389E+03  0.78545604504E+03  0.11283177239E+04  0.65864270000E+03 0.  1.
    8880022    1    1    2    0    0 -0.69596539112E+02 -0.46637517389E+03 -0.18563999296E+02  0.49607031373E+03  0.15294330000E+03 0. -1.
<mgrwt>
<rscale>  0 0.71645400E+03</rscale>
<asrwt>0</asrwt>
<pdfrwt beam="1">  1        1 0.65961230E-01 0.81003684E+03</pdfrwt>
<pdfrwt beam="2">  1       -1 0.18394462E+00 0.81003684E+03</pdfrwt>
<totfact> 0.10906879E+01</totfact>
</mgrwt>
</event>
<event>
 4    1  0.3712574E-007  0.1071564E+04  0.7818608E-02  0.9293396E-01
         -1   -1    0    0    0  501 -0.00000000000E+00  0.00000000000E+00  0.60953987334E+03  0.60953987336E+03  0.50400000000E-02 0.  1.
          1   -1    0    0  501    0  0.00000000000E+00 -0.00000000000E+00 -0.16637666943E+04  0.16637666943E+04  0.50400000000E-02 0. -1.
    8880023    1    1    2    0    0 -0.75067064844E+03  0.38850131114E+03 -0.25827310375E+03  0.11022499234E+04  0.65864270000E+03 0.  0.
    8880022    1    1    2    0    0  0.75067064844E+03 -0.38850131114E+03 -0.79595371719E+03  0.11710566443E+04  0.15294330000E+03 0.  0.
<mgrwt>
<rscale>  0 0.10139307E+04</rscale>
<asrwt>0</asrwt>
<pdfrwt beam="1">  1        1 0.25596410E+00 0.10715642E+04</pdfrwt>
<pdfrwt beam="2">  1       -1 0.93775366E-01 0.10715642E+04</pdfrwt>
<totfact> 0.55556343E+00</totfact>
</mgrwt>
</event>
<event>
 4    1  0.3712574E-007  0.7176361E+03  0.7818608E-02  0.9930667E-01
         -1   -1    0    0    0  501 -0.00000000000E+00  0.00000000000E+00  0.63823942327E+03  0.63823942329E+03  0.50400000000E-02 0.  1.
          1   -1    0    0  501    0  0.00000000000E+00 -0.00000000000E+00 -0.70109215377E+03  0.70109215379E+03  0.50400000000E-02 0. -1.
    8880023    1    1    2    0    0 -0.19088596232E+03  0.21155106005E+03  0.36330739857E+03  0.80435923177E+03  0.65864270000E+03 0.  1.
    8880022    1    1    2    0    0  0.19088596232E+03 -0.21155106005E+03 -0.42616012907E+03  0.53497234531E+03  0.15294330000E+03 0.  0.
<mgrwt>
<rscale>  0 0.58797763E+03</rscale>
<asrwt>0</asrwt>
<pdfrwt beam="1">  1        1 0.10786033E+00 0.71763606E+03</pdfrwt>
<pdfrwt beam="2">  1       -1 0.98190681E-01 0.71763606E+03</pdfrwt>
<totfact> 0.27786424E+01</totfact>
</mgrwt>
</event>
<event>
 4    1  0.3712574E-007  0.6860454E+03  0.7818608E-02  0.1006092E+00
         -1   -1    0    0    0  501 -0.00000000000E+00  0.00000000000E+00  0.72410379501E+03  0.72410379502E+03  0.50400000000E-02 0.  1.
          1   -1    0    0  501    0  0.00000000000E+00 -0.00000000000E+00 -0.91390089874E+03  0.91390089875E+03  0.50400000000E-02 0. -1.
    8880023    1    1    2    0    0  0.15366925233E+03 -0.11503841840E+03  0.53678419500E+03  0.87108871826E+03  0.65864270000E+03 0.  1.
    8880022    1    1    2    0    0 -0.15366925233E+03  0.11503841840E+03 -0.72658129873E+03  0.76691597551E+03  0.15294330000E+03 0.  0.
<mgrwt>
<rscale>  0 0.53057895E+03</rscale>
<asrwt>0</asrwt>
<pdfrwt beam="1">  1        1 0.14060014E+00 0.68604539E+03</pdfrwt>
<pdfrwt beam="2">  1       -1 0.11140058E+00 0.68604539E+03</pdfrwt>
<totfact> 0.13643250E+01</totfact>
</mgrwt>
</event>
<event>
 4    1  0.3712574E-007  0.9098092E+03  0.7818608E-02  0.9510465E-01
         -1   -1    0    0    0  501 -0.00000000000E+00  0.00000000000E+00  0.15459125975E+04  0.15459125975E+04  0.50400000000E-02 0.  1.
          1   -1    0    0  501    0  0.00000000000E+00 -0.00000000000E+00 -0.64301288878E+03  0.64301288880E+03  0.50400000000E-02 0. -1.
    8880023    1    1    2    0    0 -0.32856990147E+03  0.53477507766E+03  0.11765969659E+04  0.14873241712E+04  0.65864270000E+03 0.  1.
    8880022    1    1    2    0    0  0.32856990147E+03 -0.53477507766E+03 -0.27369725712E+03  0.70160131514E+03  0.15294330000E+03 0.  0.
<mgrwt>
<rscale>  0 0.83516684E+03</rscale>
<asrwt>0</asrwt>
<pdfrwt beam="1">  1        1 0.98925060E-01 0.90980919E+03</pdfrwt>
<pdfrwt beam="2">  1       -1 0.23783271E+00 0.90980919E+03</pdfrwt>
<totfact> 0.26410584E+00</totfact>
</mgrwt>
</event>
<event>
 4    1  0.3712574E-007  0.7674099E+03  0.7818608E-02  0.9786288E-01
         -1   -1    0    0    0  501 -0.00000000000E+00  0.00000000000E+00  0.60056281266E+03  0.60056281268E+03  0.50400000000E-02 0.  1.
          1   -1    0    0  501    0  0.00000000000E+00 -0.00000000000E+00 -0.59498509504E+03  0.59498509506E+03  0.50400000000E-02 0. -1.
    8880023    1    1    2    0    0 -0.60153200688E+02 -0.38921632294E+03 -0.51906251756E+02  0.76916332390E+03  0.65864270000E+03 0. -1.
    8880022    1    1    2    0    0  0.60153200688E+02  0.38921632294E+03  0.57483969372E+02  0.42638458385E+03  0.15294330000E+03 0.  1.
<mgrwt>
<rscale>  0 0.66103605E+03</rscale>
<asrwt>0</asrwt>
<pdfrwt beam="1">  1        1 0.91536169E-01 0.76740990E+03</pdfrwt>
<pdfrwt beam="2">  1       -1 0.92394278E-01 0.76740990E+03</pdfrwt>
<totfact> 0.40344195E+01</totfact>
</mgrwt>
</event>
<event>
 4    1  0.3712574E-007  0.8118976E+03  0.7818608E-02  0.9685638E-01
          1   -1    0    0  501    0  0.00000000000E+00  0.00000000000E+00  0.14640734964E+04  0.14640734964E+04  0.50400000000E-02 0. -1.
         -1   -1    0    0    0  501 -0.00000000000E+00 -0.00000000000E+00 -0.43076228361E+03  0.43076228364E+03  0.50400000000E-02 0.  1.
    8880023    1    1    2    0    0 -0.47451457621E+03 -0.14264047421E+02  0.76072226571E+02  0.81545369948E+03  0.65864270000E+03 0.  1.
    8880022    1    1    2    0    0  0.47451457621E+03  0.14264047421E+02  0.95723898624E+03  0.10793820806E+04  0.15294330000E+03 0.  0.
<mgrwt>
<rscale>  0 0.71878391E+03</rscale>
<asrwt>0</asrwt>
<pdfrwt beam="1">  1        1 0.22524208E+00 0.81189762E+03</pdfrwt>
<pdfrwt beam="2">  1       -1 0.66271121E-01 0.81189762E+03</pdfrwt>
<totfact> 0.16419085E+01</totfact>
</mgrwt>
</event>
<event>
 4    1  0.3712574E-007  0.7244292E+03  0.7818608E-02  0.9907874E-01
         -1   -1    0    0    0  501 -0.00000000000E+00  0.00000000000E+00  0.41056072027E+03  0.41056072030E+03  0.50400000000E-02 0.  1.
          1   -1    0    0  501    0  0.00000000000E+00 -0.00000000000E+00 -0.97542254263E+03  0.97542254264E+03  0.50400000000E-02 0. -1.
    8880023    1    1    2    0    0 -0.28650333856E+03 -0.94357618925E+02  0.36995596371E+01  0.72443869048E+03  0.65864270000E+03 0.  1.
    8880022    1    1    2    0    0  0.28650333856E+03  0.94357618925E+02 -0.56856138200E+03  0.66154457247E+03  0.15294330000E+03 0.  0.
<mgrwt>
<rscale>  0 0.59881180E+03</rscale>
<asrwt>0</asrwt>
<pdfrwt beam="1">  1        1 0.15006501E+00 0.72442924E+03</pdfrwt>
<pdfrwt beam="2">  1       -1 0.63163188E-01 0.72442924E+03</pdfrwt>
<totfact> 0.41336449E+01</totfact>
</mgrwt>
</event>
<event>
 4    1  0.3712574E-007  0.6827457E+03  0.7818608E-02  0.1007811E+00
         -1   -1    0    0    0  501 -0.00000000000E+00  0.00000000000E+00  0.15852374990E+03  0.15852374998E+03  0.50400000000E-02 0.  1.
          1   -1    0    0  501    0  0.00000000000E+00 -0.00000000000E+00 -0.14759607394E+04  0.14759607394E+04  0.50400000000E-02 0. -1.
    8880023    1    1    2    0    0  0.98093193824E+02 -0.15069590407E+03 -0.72067536808E+03  0.99273094169E+03  0.65864270000E+03 0.  1.
    8880022    1    1    2    0    0 -0.98093193824E+02  0.15069590407E+03 -0.59676162144E+03  0.64175354773E+03  0.15294330000E+03 0.  0.
<mgrwt>
<rscale>  0 0.52353863E+03</rscale>
<asrwt>0</asrwt>
<pdfrwt beam="1">  1        1 0.22707087E+00 0.68274573E+03</pdfrwt>
<pdfrwt beam="2">  1       -1 0.24388270E-01 0.68274573E+03</pdfrwt>
<totfact> 0.10219220E+02</totfact>
</mgrwt>
</event>
<event>
 4    1  0.3712574E-007  0.7912414E+03  0.7818608E-02  0.9730064E-01
         -1   -1    0    0    0  501 -0.00000000000E+00  0.00000000000E+00  0.21368817407E+03  0.21368817413E+03  0.50400000000E-02 0.  1.
          1   -1    0    0  501    0  0.00000000000E+00 -0.00000000000E+00 -0.21112835253E+04  0.21112835253E+04  0.50400000000E-02 0. -1.
    8880023    1    1    2    0    0  0.38859508722E+03  0.20309262656E+03 -0.76375018621E+03  0.10997169227E+04  0.65864270000E+03 0.  1.
    8880022    1    1    2    0    0 -0.38859508722E+03 -0.20309262656E+03 -0.11338451650E+04  0.12252547768E+04  0.15294330000E+03 0. -1.
<mgrwt>
<rscale>  0 0.69254665E+03</rscale>
<asrwt>0</asrwt>
<pdfrwt beam="1">  1        1 0.32481284E+00 0.79124141E+03</pdfrwt>
<pdfrwt beam="2">  1       -1 0.32875105E-01 0.79124141E+03</pdfrwt>
<totfact> 0.22501952E+01</totfact>
</mgrwt>
</event>
<event>
 4    1  0.3712574E-007  0.1088192E+04  0.7818608E-02  0.9274318E-01
          1   -1    0    0  501    0  0.00000000000E+00  0.00000000000E+00  0.65970749863E+03  0.65970749865E+03  0.50400000000E-02 0. -1.
         -1   -1    0    0    0  501 -0.00000000000E+00 -0.00000000000E+00 -0.18101416814E+04  0.18101416815E+04  0.50400000000E-02 0.  1.
    8880023    1    1    2    0    0 -0.80187436055E+03  0.32764299833E+03 -0.11595231167E+04  0.15901749869E+04  0.65864270000E+03 0.  1.
    8880022    1    1    2    0    0  0.80187436055E+03 -0.32764299833E+03  0.90889338927E+01  0.87967419321E+03  0.15294330000E+03 0.  0.
<mgrwt>
<rscale>  0 0.10318200E+04</rscale>
<asrwt>0</asrwt>
<pdfrwt beam="1">  1        1 0.10149346E+00 0.10881924E+04</pdfrwt>
<pdfrwt beam="2">  1       -1 0.27848333E+00 0.10881924E+04</pdfrwt>
<totfact> 0.13561671E+00</totfact>
</mgrwt>
</event>
<event>
 4    1  0.3712574E-007  0.6777803E+03  0.7818608E-02  0.1010608E+00
         -1   -1    0    0    0  501 -0.00000000000E+00  0.00000000000E+00  0.27138986539E+03  0.27138986544E+03  0.50400000000E-02 0.  1.
          1   -1    0    0  501    0  0.00000000000E+00 -0.00000000000E+00 -0.21411776123E+04  0.21411776123E+04  0.50400000000E-02 0. -1.
    8880023    1    1    2    0    0  0.15379039030E+03  0.43868420890E+02 -0.17045252965E+03  0.69888496452E+03  0.65864270000E+03 0.  1.
    8880022    1    1    2    0    0 -0.15379039030E+03 -0.43868420890E+02 -0.16993352173E+04  0.17136825132E+04  0.15294330000E+03 0.  0.
<mgrwt>
<rscale>  0 0.51233648E+03</rscale>
<asrwt>0</asrwt>
<pdfrwt beam="1">  1        1 0.32941193E+00 0.67778030E+03</pdfrwt>
<pdfrwt beam="2">  1       -1 0.41752289E-01 0.67778030E+03</pdfrwt>
<totfact> 0.14223435E+01</totfact>
</mgrwt>
</event>
<event>
 4    1  0.3712574E-007  0.6601238E+03  0.7818608E-02  0.1024030E+00
          1   -1    0    0  501    0  0.00000000000E+00  0.00000000000E+00  0.99032990386E+03  0.99032990387E+03  0.50400000000E-02 0. -1.
         -1   -1    0    0    0  501 -0.00000000000E+00 -0.00000000000E+00 -0.10816921927E+04  0.10816921928E+04  0.50400000000E-02 0.  1.
    8880023    1    1    2    0    0  0.24787393941E+02 -0.36588997041E+02 -0.97318304252E+03  0.11759458364E+04  0.65864270000E+03 0.  1.
    8880022    1    1    2    0    0 -0.24787393941E+02  0.36588997041E+02  0.88182075364E+03  0.89607626024E+03  0.15294330000E+03 0.  0.
<mgrwt>
<rscale>  0 0.46259952E+03</rscale>
<asrwt>0</asrwt>
<pdfrwt beam="1">  1        1 0.15235845E+00 0.66012376E+03</pdfrwt>
<pdfrwt beam="2">  1       -1 0.16641418E+00 0.66012376E+03</pdfrwt>
<totfact> 0.42444997E+00</totfact>
</mgrwt>
</event>
<event>
 4    1  0.3712574E-007  0.1012035E+04  0.7818608E-02  0.9365979E-01
         -1   -1    0    0    0  501 -0.00000000000E+00  0.00000000000E+00  0.18809750303E+04  0.18809750303E+04  0.50400000000E-02 0.  1.
          1   -1    0    0  501    0  0.00000000000E+00 -0.00000000000E+00 -0.71429524865E+03  0.71429524867E+03  0.50400000000E-02 0. -1.
    8880023    1    1    2    0    0  0.71495737420E+03 -0.28149637433E+03  0.14447373123E+04  0.17639388775E+04  0.65864270000E+03 0.  0.
    8880022    1    1    2    0    0 -0.71495737420E+03  0.28149637433E+03 -0.27805753068E+03  0.83133140147E+03  0.15294330000E+03 0.  0.
<mgrwt>
<rscale>  0 0.94929149E+03</rscale>
<asrwt>0</asrwt>
<pdfrwt beam="1">  1        1 0.10989158E+00 0.10120348E+04</pdfrwt>
<pdfrwt beam="2">  1       -1 0.28938077E+00 0.10120348E+04</pdfrwt>
<totfact> 0.10332385E+00</totfact>
</mgrwt>
</event>
<event>
 4    1  0.3712574E-007  0.8430477E+03  0.7818608E-02  0.9624460E-01
          1   -1    0    0  501    0  0.00000000000E+00  0.00000000000E+00  0.29123340175E+04  0.29123340175E+04  0.50400000000E-02 0. -1.
         -1   -1    0    0    0  501 -0.00000000000E+00 -0.00000000000E+00 -0.58646993136E+03  0.58646993138E+03  0.50400000000E-02 0.  1.
    8880023    1    1    2    0    0 -0.11599392370E+03 -0.51328809239E+03 -0.23882340289E+03  0.87622262020E+03  0.65864270000E+03 0.  0.
    8880022    1    1    2    0    0  0.11599392370E+03  0.51328809239E+03  0.25646874891E+04  0.26225813287E+04  0.15294330000E+03 0.  0.
<mgrwt>
<rscale>  0 0.75698192E+03</rscale>
<asrwt>0</asrwt>
<pdfrwt beam="1">  1        1 0.44805139E+00 0.84304772E+03</pdfrwt>
<pdfrwt beam="2">  1       -1 0.90226142E-01 0.84304772E+03</pdfrwt>
<totfact> 0.87807599E-01</totfact>
</mgrwt>
</event>
<event>
 4    1  0.3712574E-007  0.7033387E+03  0.7818608E-02  0.9983623E-01
          1   -1    0    0  501    0  0.00000000000E+00  0.00000000000E+00  0.31480272695E+04  0.31480272695E+04  0.50400000000E-02 0. -1.
         -1   -1    0    0    0  501 -0.00000000000E+00 -0.00000000000E+00 -0.16906164404E+03  0.16906164411E+03  0.50400000000E-02 0.  1.
    8880023    1    1    2    0    0 -0.24653942602E+03 -0.96655140999E+01  0.61180829705E+03  0.93219885719E+03  0.65864270000E+03 0.  1.
    8880022    1    1    2    0    0  0.24653942602E+03  0.96655140999E+01  0.23671573285E+04  0.23848900565E+04  0.15294330000E+03 0.  0.
<mgrwt>
<rscale>  0 0.56374204E+03</rscale>
<asrwt>0</asrwt>
<pdfrwt beam="1">  1        1 0.48431183E+00 0.70333869E+03</pdfrwt>
<pdfrwt beam="2">  1       -1 0.26009487E-01 0.70333869E+03</pdfrwt>
<totfact> 0.65538784E+00</totfact>
</mgrwt>
</event>
<event>
 4    1  0.3712574E-007  0.8089342E+03  0.7818608E-02  0.9691801E-01
          1   -1    0    0  501    0  0.00000000000E+00  0.00000000000E+00  0.57210531408E+03  0.57210531411E+03  0.50400000000E-02 0. -1.
         -1   -1    0    0    0  501 -0.00000000000E+00 -0.00000000000E+00 -0.10927286359E+04  0.10927286360E+04  0.50400000000E-02 0.  1.
    8880023    1    1    2    0    0  0.43401217754E+03  0.17943736642E+03  0.15927601380E+03  0.82446551993E+03  0.65864270000E+03 0.  0.
    8880022    1    1    2    0    0 -0.43401217754E+03 -0.17943736642E+03 -0.67989933566E+03  0.84036843013E+03  0.15294330000E+03 0.  0.
<mgrwt>
<rscale>  0 0.71507046E+03</rscale>
<asrwt>0</asrwt>
<pdfrwt beam="1">  1        1 0.88016203E-01 0.80893420E+03</pdfrwt>
<pdfrwt beam="2">  1       -1 0.16811210E+00 0.80893420E+03</pdfrwt>
<totfact> 0.95375693E+00</totfact>
</mgrwt>
</event>
<event>
 4    1  0.3712574E-007  0.8888359E+03  0.7818608E-02  0.9544197E-01
          1   -1    0    0  501    0  0.00000000000E+00  0.00000000000E+00  0.36601657011E+04  0.36601657011E+04  0.50400000000E-02 0. -1.
         -1   -1    0    0    0  501 -0.00000000000E+00 -0.00000000000E+00 -0.30965397462E+03  0.30965397466E+03  0.50400000000E-02 0.  1.
    8880023    1    1    2    0    0  0.53194915465E+03  0.27064588000E+03  0.43436129241E+03  0.98929218844E+03  0.65864270000E+03 0.  1.
    8880022    1    1    2    0    0 -0.53194915465E+03 -0.27064588000E+03  0.29161504340E+04  0.29805274873E+04  0.15294330000E+03 0.  0.
<mgrwt>
<rscale>  0 0.81102364E+03</rscale>
<asrwt>0</asrwt>
<pdfrwt beam="1">  1        1 0.56310236E+00 0.88883593E+03</pdfrwt>
<pdfrwt beam="2">  1       -1 0.47639077E-01 0.88883593E+03</pdfrwt>
<totfact> 0.87124825E-01</totfact>
</mgrwt>
</event>
<event>
 4    1  0.3712574E-007  0.1033500E+04  0.7818608E-02  0.9338985E-01
          1   -1    0    0  501    0  0.00000000000E+00  0.00000000000E+00  0.13502847728E+04  0.13502847728E+04  0.50400000000E-02 0. -1.
         -1   -1    0    0    0  501 -0.00000000000E+00 -0.00000000000E+00 -0.98138738633E+03  0.98138738635E+03  0.50400000000E-02 0.  1.
    8880023    1    1    2    0    0 -0.55560963529E+03  0.57062238682E+03 -0.49571578204E+03  0.11462357166E+04  0.65864270000E+03 0.  0.
    8880022    1    1    2    0    0  0.55560963529E+03 -0.57062238682E+03  0.86461316848E+03  0.11854364425E+04  0.15294330000E+03 0.  0.
<mgrwt>
<rscale>  0 0.97271728E+03</rscale>
<asrwt>0</asrwt>
<pdfrwt beam="1">  1        1 0.20773612E+00 0.10335000E+04</pdfrwt>
<pdfrwt beam="2">  1       -1 0.15098267E+00 0.10335000E+04</pdfrwt>
<totfact> 0.28554661E+00</totfact>
</mgrwt>
</event>
<event>
 4    1  0.3806432E-007  0.1294452E+04  0.7818608E-02  0.9070366E-01
          1   -1    0    0  501    0  0.00000000000E+00  0.00000000000E+00  0.24491735966E+04  0.24491735966E+04  0.50400000000E-02 0. -1.
         -1   -1    0    0    0  501 -0.00000000000E+00 -0.00000000000E+00 -0.13581193476E+04  0.13581193476E+04  0.50400000000E-02 0.  1.
    8880023    1    1    2    0    0 -0.11120510851E+04 -0.71674359342E+02 -0.86079891872E+03  0.15545352406E+04  0.65864270000E+03 0.  0.
    8880022    1    1    2    0    0  0.11120510851E+04  0.71674359342E+02  0.19518531677E+04  0.22527577036E+04  0.15294330000E+03 0.  0.
<mgrwt>
<rscale>  0 0.12497803E+04</rscale>
<asrwt>0</asrwt>
<pdfrwt beam="1">  1        1 0.37679594E+00 0.12944516E+04</pdfrwt>
<pdfrwt beam="2">  1       -1 0.20894144E+00 0.12944516E+04</pdfrwt>
<totfact> 0.18650882E-01</totfact>
</mgrwt>
</event>
<event>
 4    1  0.3712574E-007  0.1144653E+04  0.7818608E-02  0.9212896E-01
          1   -1    0    0  501    0  0.00000000000E+00  0.00000000000E+00  0.61144212035E+03  0.61144212037E+03  0.50400000000E-02 0. -1.
         -1   -1    0    0    0  501 -0.00000000000E+00 -0.00000000000E+00 -0.20973680177E+04  0.20973680178E+04  0.50400000000E-02 0.  1.
    8880023    1    1    2    0    0 -0.40466447277E+03  0.84419656489E+03 -0.13176705760E+04  0.17454188978E+04  0.65864270000E+03 0. -1.
    8880022    1    1    2    0    0  0.40466447277E+03 -0.84419656489E+03 -0.16825532137E+03  0.96339124030E+03  0.15294330000E+03 0.  1.
<mgrwt>
<rscale>  0 0.10921305E+04</rscale>
<asrwt>0</asrwt>
<pdfrwt beam="1">  1        1 0.94068020E-01 0.11446534E+04</pdfrwt>
<pdfrwt beam="2">  1       -1 0.32267200E+00 0.11446534E+04</pdfrwt>
<totfact> 0.78155109E-01</totfact>
</mgrwt>
</event>
<event>
 4    1  0.3712574E-007  0.7117158E+03  0.7818608E-02  0.9951684E-01
          1   -1    0    0  501    0  0.00000000000E+00  0.00000000000E+00  0.52521639239E+03  0.52521639242E+03  0.50400000000E-02 0. -1.
         -1   -1    0    0    0  501 -0.00000000000E+00 -0.00000000000E+00 -0.60524042200E+03  0.60524042202E+03  0.50400000000E-02 0.  1.
    8880023    1    1    2    0    0 -0.22175879006E+03 -0.15346746266E+03 -0.27635582560E+03  0.76348672003E+03  0.65864270000E+03 0.  1.
    8880022    1    1    2    0    0  0.22175879006E+03  0.15346746266E+03  0.19633179598E+03  0.36697009441E+03  0.15294330000E+03 0.  0.
<mgrwt>
<rscale>  0 0.57820546E+03</rscale>
<asrwt>0</asrwt>
<pdfrwt beam="1">  1        1 0.80802522E-01 0.71171583E+03</pdfrwt>
<pdfrwt beam="2">  1       -1 0.93113911E-01 0.71171583E+03</pdfrwt>
<totfact> 0.47524241E+01</totfact>
</mgrwt>
</event>
<event>
 4    1  0.3712574E-007  0.6925062E+03  0.7818608E-02  0.1002983E+00
          1   -1    0    0  501    0  0.00000000000E+00  0.00000000000E+00  0.62751599812E+03  0.62751599814E+03  0.50400000000E-02 0. -1.
         -1   -1    0    0    0  501 -0.00000000000E+00 -0.00000000000E+00 -0.10053919260E+04  0.10053919260E+04  0.50400000000E-02 0.  1.
    8880023    1    1    2    0    0  0.20800935207E+03  0.49867534396E+02 -0.84763742958E+03  0.10945565677E+04  0.65864270000E+03 0.  1.
    8880022    1    1    2    0    0 -0.20800935207E+03 -0.49867534396E+02  0.46976150170E+03  0.53835135649E+03  0.15294330000E+03 0.  0.
<mgrwt>
<rscale>  0 0.54361182E+03</rscale>
<asrwt>0</asrwt>
<pdfrwt beam="1">  1        1 0.96540923E-01 0.69250622E+03</pdfrwt>
<pdfrwt beam="2">  1       -1 0.15467568E+00 0.69250622E+03</pdfrwt>
<totfact> 0.10688481E+01</totfact>
</mgrwt>
</event>
<event>
 4    1  0.3712574E-007  0.7463282E+03  0.7818608E-02  0.9841883E-01
          1   -1    0    0  501    0  0.00000000000E+00  0.00000000000E+00  0.12436626023E+04  0.12436626024E+04  0.50400000000E-02 0. -1.
         -1   -1    0    0    0  501 -0.00000000000E+00 -0.00000000000E+00 -0.58035190144E+03  0.58035190146E+03  0.50400000000E-02 0.  1.
    8880023    1    1    2    0    0  0.23630182743E+03 -0.25953228685E+03 -0.28689707743E+03  0.79957219866E+03  0.65864270000E+03 0.  1.
    8880022    1    1    2    0    0 -0.23630182743E+03  0.25953228685E+03  0.95020777834E+03  0.10244423052E+04  0.15294330000E+03 0.  0.
<mgrwt>
<rscale>  0 0.63162512E+03</rscale>
<asrwt>0</asrwt>
<pdfrwt beam="1">  1        1 0.19133271E+00 0.74632819E+03</pdfrwt>
<pdfrwt beam="2">  1       -1 0.89284909E-01 0.74632819E+03</pdfrwt>
<totfact> 0.12630710E+01</totfact>
</mgrwt>
</event>
<event>
 4    1  0.3712574E-007  0.1166340E+04  0.7818608E-02  0.9190558E-01
         -1   -1    0    0    0  501 -0.00000000000E+00  0.00000000000E+00  0.77809569112E+03  0.77809569114E+03  0.50400000000E-02 0.  1.
          1   -1    0    0  501    0  0.00000000000E+00 -0.00000000000E+00 -0.34749766522E+04  0.34749766522E+04  0.50400000000E-02 0. -1.
    8880023    1    1    2    0    0  0.58093338253E+03 -0.76749858681E+03  0.21182479952E+03  0.11854187562E+04  0.65864270000E+03 0.  0.
    8880022    1    1    2    0    0 -0.58093338253E+03  0.76749858681E+03 -0.29087057606E+04  0.30676535871E+04  0.15294330000E+03 0.  0.
<mgrwt>
<rscale>  0 0.11151420E+04</rscale>
<asrwt>0</asrwt>
<pdfrwt beam="1">  1        1 0.53461179E+00 0.11663395E+04</pdfrwt>
<pdfrwt beam="2">  1       -1 0.11970703E+00 0.11663395E+04</pdfrwt>
<totfact> 0.16413644E-01</totfact>
</mgrwt>
</event>
<event>
 4    1  0.3712574E-007  0.6627875E+03  0.7818608E-02  0.1021466E+00
         -1   -1    0    0    0  501 -0.00000000000E+00  0.00000000000E+00  0.15920792795E+03  0.15920792802E+03  0.50400000000E-02 0.  1.
          1   -1    0    0  501    0  0.00000000000E+00 -0.00000000000E+00 -0.32184005425E+04  0.32184005425E+04  0.50400000000E-02 0. -1.
    8880023    1    1    2    0    0  0.92932046047E+01 -0.73421631411E+02 -0.54611866941E+03  0.85879736082E+03  0.65864270000E+03 0.  1.
    8880022    1    1    2    0    0 -0.92932046047E+01  0.73421631411E+02 -0.25130739451E+04  0.25188111097E+04  0.15294330000E+03 0.  0.
<mgrwt>
<rscale>  0 0.47161135E+03</rscale>
<asrwt>0</asrwt>
<pdfrwt beam="1">  1        1 0.49513850E+00 0.66278753E+03</pdfrwt>
<pdfrwt beam="2">  1       -1 0.24493530E-01 0.66278753E+03</pdfrwt>
<totfact> 0.64989994E+00</totfact>
</mgrwt>
</event>
<event>
 4    1  0.3712574E-007  0.1082692E+04  0.7818608E-02  0.9280575E-01
         -1   -1    0    0    0  501 -0.00000000000E+00  0.00000000000E+00  0.72266441326E+03  0.72266441328E+03  0.50400000000E-02 0.  1.
          1   -1    0    0  501    0  0.00000000000E+00 -0.00000000000E+00 -0.13901081103E+04  0.13901081103E+04  0.50400000000E-02 0. -1.
    8880023    1    1    2    0    0  0.20119866146E+03  0.83542253259E+03 -0.13677567799E+03  0.10912971647E+04  0.65864270000E+03 0.  0.
    8880022    1    1    2    0    0 -0.20119866146E+03 -0.83542253259E+03 -0.53066801903E+03  0.10214753589E+04  0.15294330000E+03 0.  0.
<mgrwt>
<rscale>  0 0.10259095E+04</rscale>
<asrwt>0</asrwt>
<pdfrwt beam="1">  1        1 0.21386279E+00 0.10826920E+04</pdfrwt>
<pdfrwt beam="2">  1       -1 0.11117914E+00 0.10826920E+04</pdfrwt>
<totfact> 0.57820221E+00</totfact>
</mgrwt>
</event>
<event>
 4    1  0.3712574E-007  0.9056186E+03  0.7818608E-02  0.9517071E-01
          1   -1    0    0  501    0  0.00000000000E+00  0.00000000000E+00  0.66357061179E+03  0.66357061181E+03  0.50400000000E-02 0. -1.
         -1   -1    0    0    0  501 -0.00000000000E+00 -0.00000000000E+00 -0.16858217972E+04  0.16858217972E+04  0.50400000000E-02 0.  1.
    8880023    1    1    2    0    0 -0.19785731168E+03  0.58922608243E+03 -0.13536028849E+04  0.16286147084E+04  0.65864270000E+03 0.  1.
    8880022    1    1    2    0    0  0.19785731168E+03 -0.58922608243E+03  0.33135169949E+03  0.72077770066E+03  0.15294330000E+03 0.  0.
<mgrwt>
<rscale>  0 0.83036832E+03</rscale>
<asrwt>0</asrwt>
<pdfrwt beam="1">  1        1 0.10208779E+00 0.90561863E+03</pdfrwt>
<pdfrwt beam="2">  1       -1 0.25935720E+00 0.90561863E+03</pdfrwt>
<totfact> 0.18286519E+00</totfact>
</mgrwt>
</event>
<event>
 4    1  0.3712574E-007  0.6630571E+03  0.7818608E-02  0.1021222E+00
         -1   -1    0    0    0  501 -0.00000000000E+00  0.00000000000E+00  0.16682838905E+03  0.16682838913E+03  0.50400000000E-02 0.  1.
          1   -1    0    0  501    0  0.00000000000E+00 -0.00000000000E+00 -0.12898219043E+04  0.12898219043E+04  0.50400000000E-02 0. -1.
    8880023    1    1    2    0    0  0.40991319185E+02  0.64452794598E+02 -0.55879419666E+03  0.86711914491E+03  0.65864270000E+03 0.  1.
    8880022    1    1    2    0    0 -0.40991319185E+02 -0.64452794598E+02 -0.56419931859E+03  0.58953114853E+03  0.15294330000E+03 0.  0.
<mgrwt>
<rscale>  0 0.47248121E+03</rscale>
<asrwt>0</asrwt>
<pdfrwt beam="1">  1        1 0.19843413E+00 0.66305705E+03</pdfrwt>
<pdfrwt beam="2">  1       -1 0.25665907E-01 0.66305705E+03</pdfrwt>
<totfact> 0.12641352E+02</totfact>
</mgrwt>
</event>
<event>
 4    1  0.3712574E-007  0.7291244E+03  0.7818608E-02  0.9892841E-01
          1   -1    0    0  501    0  0.00000000000E+00  0.00000000000E+00  0.14251968167E+04  0.14251968167E+04  0.50400000000E-02 0. -1.
         -1   -1    0    0    0  501 -0.00000000000E+00 -0.00000000000E+00 -0.31719196520E+03  0.31719196524E+03  0.50400000000E-02 0.  1.
    8880023    1    1    2    0    0  0.30822893847E+03 -0.52981846107E+02  0.17969112040E+03  0.75094025031E+03  0.65864270000E+03 0.  1.
    8880022    1    1    2    0    0 -0.30822893847E+03  0.52981846107E+02  0.92831373106E+03  0.99144853160E+03  0.15294330000E+03 0.  0.
<mgrwt>
<rscale>  0 0.60609506E+03</rscale>
<asrwt>0</asrwt>
<pdfrwt beam="1">  1        1 0.21926104E+00 0.72912438E+03</pdfrwt>
<pdfrwt beam="2">  1       -1 0.48798765E-01 0.72912438E+03</pdfrwt>
<totfact> 0.32040408E+01</totfact>
</mgrwt>
</event>
<event>
 4    1  0.3712574E-007  0.6980269E+03  0.7818608E-02  0.1000549E+00
          1   -1    0    0  501    0  0.00000000000E+00  0.00000000000E+00  0.24936482711E+04  0.24936482711E+04  0.50400000000E-02 0. -1.
         -1   -1    0    0    0  501 -0.00000000000E+00 -0.00000000000E+00 -0.39652449821E+03  0.39652449824E+03  0.50400000000E-02 0.  1.
    8880023    1    1    2    0    0 -0.77335982005E+02  0.21783136284E+03 -0.73535181510E+02  0.70188958244E+03  0.65864270000E+03 0.  1.
    8880022    1    1    2    0    0  0.77335982005E+02 -0.21783136284E+03  0.21706589544E+04  0.21882831869E+04  0.15294330000E+03 0.  0.
<mgrwt>
<rscale>  0 0.55410305E+03</rscale>
<asrwt>0</asrwt>
<pdfrwt beam="1">  1        1 0.38363820E+00 0.69802691E+03</pdfrwt>
<pdfrwt beam="2">  1       -1 0.61003768E-01 0.69802691E+03</pdfrwt>
<totfact> 0.39937945E+00</totfact>
</mgrwt>
</event>
<event>
 4    1  0.3712574E-007  0.7323820E+03  0.7818608E-02  0.9882721E-01
         -1   -1    0    0    0  501 -0.00000000000E+00  0.00000000000E+00  0.71085396075E+03  0.71085396077E+03  0.50400000000E-02 0.  1.
          1   -1    0    0  501    0  0.00000000000E+00 -0.00000000000E+00 -0.50464295808E+03  0.50464295810E+03  0.50400000000E-02 0. -1.
    8880023    1    1    2    0    0  0.13587230376E+02  0.31998205352E+03  0.37464366615E+03  0.82264282058E+03  0.65864270000E+03 0.  0.
    8880022    1    1    2    0    0 -0.13587230376E+02 -0.31998205352E+03 -0.16843266348E+03  0.39285409829E+03  0.15294330000E+03 0.  0.
<mgrwt>
<rscale>  0 0.61106072E+03</rscale>
<asrwt>0</asrwt>
<pdfrwt beam="1">  1        1 0.77637379E-01 0.73238196E+03</pdfrwt>
<pdfrwt beam="2">  1       -1 0.10936215E+00 0.73238196E+03</pdfrwt>
<totfact> 0.34700634E+01</totfact>
</mgrwt>
</event>
<event>
 4    1  0.3712574E-007  0.6641473E+03  0.7818608E-02  0.1020260E+00
         -1   -1    0    0    0  501 -0.00000000000E+00  0.00000000000E+00  0.19034849570E+03  0.19034849576E+03  0.50400000000E-02 0.  1.
          1   -1    0    0  501    0  0.00000000000E+00 -0.00000000000E+00 -0.17427509003E+04  0.17427509003E+04  0.50400000000E-02 0. -1.
    8880023    1    1    2    0    0 -0.24029630399E+01  0.85297780313E+02 -0.41686478128E+03  0.78413515270E+03  0.65864270000E+03 0.  1.
    8880022    1    1    2    0    0  0.24029630399E+01 -0.85297780313E+02 -0.11355376234E+04  0.11489642434E+04  0.15294330000E+03 0.  0.
<mgrwt>
<rscale>  0 0.47593003E+03</rscale>
<asrwt>0</asrwt>
<pdfrwt beam="1">  1        1 0.26811551E+00 0.66414734E+03</pdfrwt>
<pdfrwt beam="2">  1       -1 0.29284385E-01 0.66414734E+03</pdfrwt>
<totfact> 0.49399552E+01</totfact>
</mgrwt>
</event>
<event>
 4    1  0.3712574E-007  0.1035787E+04  0.7818608E-02  0.9336166E-01
          1   -1    0    0  501    0  0.00000000000E+00  0.00000000000E+00  0.20442866770E+04  0.20442866770E+04  0.50400000000E-02 0. -1.
         -1   -1    0    0    0  501 -0.00000000000E+00 -0.00000000000E+00 -0.78346983569E+03  0.78346983570E+03  0.50400000000E-02 0.  1.
    8880023    1    1    2    0    0 -0.17259244884E+02 -0.79921585994E+03 -0.29062277784E+03  0.10757860743E+04  0.65864270000E+03 0.  0.
    8880022    1    1    2    0    0  0.17259244884E+02  0.79921585994E+03  0.15514396192E+04  0.17519704385E+04  0.15294330000E+03 0.  0.
<mgrwt>
<rscale>  0 0.97520450E+03</rscale>
<asrwt>0</asrwt>
<pdfrwt beam="1">  1        1 0.31450564E+00 0.10357867E+04</pdfrwt>
<pdfrwt beam="2">  1       -1 0.12053382E+00 0.10357867E+04</pdfrwt>
<totfact> 0.17134457E+00</totfact>
</mgrwt>
</event>
<event>
 4    1  0.3712574E-007  0.7751893E+03  0.7818608E-02  0.9767261E-01
         -1   -1    0    0    0  501 -0.00000000000E+00  0.00000000000E+00  0.51865315257E+03  0.51865315259E+03  0.50400000000E-02 0.  1.
          1   -1    0    0  501    0  0.00000000000E+00 -0.00000000000E+00 -0.12352733166E+04  0.12352733166E+04  0.50400000000E-02 0. -1.
    8880023    1    1    2    0    0  0.34445617001E+03  0.22013220991E+03  0.14447065463E+03  0.78853675831E+03  0.65864270000E+03 0.  0.
    8880022    1    1    2    0    0 -0.34445617001E+03 -0.22013220991E+03 -0.86109081864E+03  0.96538971087E+03  0.15294330000E+03 0.  0.
<mgrwt>
<rscale>  0 0.67149482E+03</rscale>
<asrwt>0</asrwt>
<pdfrwt beam="1">  1        1 0.19004205E+00 0.77518930E+03</pdfrwt>
<pdfrwt beam="2">  1       -1 0.79792793E-01 0.77518930E+03</pdfrwt>
<totfact> 0.16259315E+01</totfact>
</mgrwt>
</event>
<event>
 4    1  0.3712574E-007  0.7439703E+03  0.7818608E-02  0.9848529E-01
         -1   -1    0    0    0  501 -0.00000000000E+00  0.00000000000E+00  0.69180906129E+03  0.69180906131E+03  0.50400000000E-02 0.  1.
          1   -1    0    0  501    0  0.00000000000E+00 -0.00000000000E+00 -0.10819575001E+04  0.10819575001E+04  0.50400000000E-02 0. -1.
    8880023    1    1    2    0    0 -0.90321989756E+02  0.33395145119E+03  0.43799791231E+03  0.86332729080E+03  0.65864270000E+03 0.  1.
    8880022    1    1    2    0    0  0.90321989756E+02 -0.33395145119E+03 -0.82814635108E+03  0.91043927058E+03  0.15294330000E+03 0.  0.
<mgrwt>
<rscale>  0 0.62821967E+03</rscale>
<asrwt>0</asrwt>
<pdfrwt beam="1">  1        1 0.16645500E+00 0.74397032E+03</pdfrwt>
<pdfrwt beam="2">  1       -1 0.10643216E+00 0.74397032E+03</pdfrwt>
<totfact> 0.11155151E+01</totfact>
</mgrwt>
</event>
<event>
 4    1  0.3712574E-007  0.7038920E+03  0.7818608E-02  0.9981423E-01
         -1   -1    0    0    0  501 -0.00000000000E+00  0.00000000000E+00  0.13655131319E+04  0.13655131319E+04  0.50400000000E-02 0.  1.
          1   -1    0    0  501    0  0.00000000000E+00 -0.00000000000E+00 -0.42186462331E+03  0.42186462334E+03  0.50400000000E-02 0. -1.
    8880023    1    1    2    0    0  0.22292679129E+03 -0.10934999810E+03  0.12051657763E+04  0.13956677724E+04  0.65864270000E+03 0.  1.
    8880022    1    1    2    0    0 -0.22292679129E+03  0.10934999810E+03 -0.26151726767E+03  0.39170998285E+03  0.15294330000E+03 0.  0.
<mgrwt>
<rscale>  0 0.56472356E+03</rscale>
<asrwt>0</asrwt>
<pdfrwt beam="1">  1        1 0.64902250E-01 0.70389202E+03</pdfrwt>
<pdfrwt beam="2">  1       -1 0.21007894E+00 0.70389202E+03</pdfrwt>
<totfact> 0.74633927E+00</totfact>
</mgrwt>
</event>
<event>
 4    1  0.3712574E-007  0.6672561E+03  0.7818608E-02  0.1017711E+00
          1   -1    0    0  501    0  0.00000000000E+00  0.00000000000E+00  0.29650294062E+04  0.29650294062E+04  0.50400000000E-02 0. -1.
         -1   -1    0    0    0  501 -0.00000000000E+00 -0.00000000000E+00 -0.13735569996E+03  0.13735570005E+03  0.50400000000E-02 0.  1.
    8880023    1    1    2    0    0 -0.54554743053E+02  0.91892483146E+02  0.70193833867E+03  0.96847719953E+03  0.65864270000E+03 0.  1.
    8880022    1    1    2    0    0  0.54554743053E+02 -0.91892483146E+02  0.21257353676E+04  0.21339079067E+04  0.15294330000E+03 0.  0.
<mgrwt>
<rscale>  0 0.48521663E+03</rscale>
<asrwt>0</asrwt>
<pdfrwt beam="1">  1        1 0.45615839E+00 0.66725606E+03</pdfrwt>
<pdfrwt beam="2">  1       -1 0.21131645E-01 0.66725606E+03</pdfrwt>
<totfact> 0.12702885E+01</totfact>
</mgrwt>
</event>
<event>
 4    1  0.3712574E-007  0.8916249E+03  0.7818608E-02  0.9539612E-01
         -1   -1    0    0    0  501 -0.00000000000E+00  0.00000000000E+00  0.11625063876E+04  0.11625063876E+04  0.50400000000E-02 0.  1.
          1   -1    0    0  501    0  0.00000000000E+00 -0.00000000000E+00 -0.68927809411E+03  0.68927809413E+03  0.50400000000E-02 0. -1.
    8880023    1    1    2    0    0  0.26873247450E+03  0.53755712997E+03  0.75715595885E+03  0.11697350824E+04  0.65864270000E+03 0.  0.
    8880022    1    1    2    0    0 -0.26873247450E+03 -0.53755712997E+03 -0.28392766540E+03  0.68204939925E+03  0.15294330000E+03 0.  0.
<mgrwt>
<rscale>  0 0.81425323E+03</rscale>
<asrwt>0</asrwt>
<pdfrwt beam="1">  1        1 0.10604279E+00 0.89162493E+03</pdfrwt>
<pdfrwt beam="2">  1       -1 0.17884713E+00 0.89162493E+03</pdfrwt>
<totfact> 0.60072318E+00</totfact>
</mgrwt>
</event>
<event>
 4    1  0.3712574E-007  0.6874781E+03  0.7818608E-02  0.1005375E+00
         -1   -1    0    0    0  501 -0.00000000000E+00  0.00000000000E+00  0.20936182980E+03  0.20936182986E+03  0.50400000000E-02 0.  1.
          1   -1    0    0  501    0  0.00000000000E+00 -0.00000000000E+00 -0.11998009289E+04  0.11998009289E+04  0.50400000000E-02 0. -1.
    8880023    1    1    2    0    0  0.27745081624E+02 -0.19505431487E+03 -0.47219185310E+03  0.83402117941E+03  0.65864270000E+03 0.  1.
    8880022    1    1    2    0    0 -0.27745081624E+02  0.19505431487E+03 -0.51824724596E+03  0.57514157932E+03  0.15294330000E+03 0. -1.
<mgrwt>
<rscale>  0 0.53354938E+03</rscale>
<asrwt>0</asrwt>
<pdfrwt beam="1">  1        1 0.18458475E+00 0.68747813E+03</pdfrwt>
<pdfrwt beam="2">  1       -1 0.32209513E-01 0.68747813E+03</pdfrwt>
<totfact> 0.98703643E+01</totfact>
</mgrwt>
</event>
<event>
 4    1  0.3712574E-007  0.8156595E+03  0.7818608E-02  0.9677907E-01
          1   -1    0    0  501    0  0.00000000000E+00  0.00000000000E+00  0.40215335944E+03  0.40215335947E+03  0.50400000000E-02 0. -1.
         -1   -1    0    0    0  501 -0.00000000000E+00 -0.00000000000E+00 -0.23880690043E+04  0.23880690043E+04  0.50400000000E-02 0.  1.
    8880023    1    1    2    0    0  0.33834171060E+03  0.34207478097E+03 -0.21169375894E+04  0.22686395114E+04  0.65864270000E+03 0.  1.
    8880022    1    1    2    0    0 -0.33834171060E+03 -0.34207478097E+03  0.13102194458E+03  0.52158285237E+03  0.15294330000E+03 0.  0.
<mgrwt>
<rscale>  0 0.72347590E+03</rscale>
<asrwt>0</asrwt>
<pdfrwt beam="1">  1        1 0.61869749E-01 0.81565953E+03</pdfrwt>
<pdfrwt beam="2">  1       -1 0.36739522E+00 0.81565953E+03</pdfrwt>
<totfact> 0.74629552E-01</totfact>
</mgrwt>
</event>
<event>
 4    1  0.3712574E-007  0.7672991E+03  0.7818608E-02  0.9786565E-01
          1   -1    0    0  501    0  0.00000000000E+00  0.00000000000E+00  0.23067373604E+04  0.23067373604E+04  0.50400000000E-02 0. -1.
         -1   -1    0    0    0  501 -0.00000000000E+00 -0.00000000000E+00 -0.19777675222E+03  0.19777675229E+03  0.50400000000E-02 0.  1.
    8880023    1    1    2    0    0 -0.14664918345E+03 -0.36528315385E+03  0.71792766895E+03  0.10507940377E+04  0.65864270000E+03 0.  1.
    8880022    1    1    2    0    0  0.14664918345E+03  0.36528315385E+03  0.13910329392E+04  0.14537200750E+04  0.15294330000E+03 0.  0.
<mgrwt>
<rscale>  0 0.66088578E+03</rscale>
<asrwt>0</asrwt>
<pdfrwt beam="1">  1        1 0.35488266E+00 0.76729914E+03</pdfrwt>
<pdfrwt beam="2">  1       -1 0.30427194E-01 0.76729914E+03</pdfrwt>
<totfact> 0.19110277E+01</totfact>
</mgrwt>
</event>
<event>
 4    1  0.3712574E-007  0.6609498E+03  0.7818608E-02  0.1023204E+00
          1   -1    0    0  501    0  0.00000000000E+00  0.00000000000E+00  0.49785611398E+03  0.49785611401E+03  0.50400000000E-02 0. -1.
         -1   -1    0    0    0  501 -0.00000000000E+00 -0.00000000000E+00 -0.42668076259E+03  0.42668076262E+03  0.50400000000E-02 0.  1.
    8880023    1    1    2    0    0  0.21053807364E+02  0.51001278570E+02 -0.12192473409E+03  0.67210136160E+03  0.65864270000E+03 0.  1.
    8880022    1    1    2    0    0 -0.21053807364E+02 -0.51001278570E+02  0.19310008548E+03  0.25243551503E+03  0.15294330000E+03 0.  0.
<mgrwt>
<rscale>  0 0.46547987E+03</rscale>
<asrwt>0</asrwt>
<pdfrwt beam="1">  1        1 0.76593249E-01 0.66094977E+03</pdfrwt>
<pdfrwt beam="2">  1       -1 0.65643194E-01 0.66094977E+03</pdfrwt>
<totfact> 0.10736848E+02</totfact>
</mgrwt>
</event>
<event>
 4    1  0.3712574E-007  0.8350316E+03  0.7818608E-02  0.9639621E-01
          1   -1    0    0  501    0  0.00000000000E+00  0.00000000000E+00  0.60869855046E+03  0.60869855048E+03  0.50400000000E-02 0. -1.
         -1   -1    0    0    0  501 -0.00000000000E+00 -0.00000000000E+00 -0.23185293988E+04  0.23185293988E+04  0.50400000000E-02 0.  1.
    8880023    1    1    2    0    0  0.20666500658E+03 -0.46984807886E+03 -0.21030662498E+04  0.22627782701E+04  0.65864270000E+03 0.  0.
    8880022    1    1    2    0    0 -0.20666500658E+03  0.46984807886E+03  0.39323540151E+03  0.66444967918E+03  0.15294330000E+03 0.  0.
<mgrwt>
<rscale>  0 0.74728423E+03</rscale>
<asrwt>0</asrwt>
<pdfrwt beam="1">  1        1 0.93645932E-01 0.83503165E+03</pdfrwt>
<pdfrwt beam="2">  1       -1 0.35669683E+00 0.83503165E+03</pdfrwt>
<totfact> 0.49398286E-01</totfact>
</mgrwt>
</event>
<event>
 4    1  0.3807059E-007  0.7278455E+03  0.7818608E-02  0.9896882E-01
         -1   -1    0    0    0  501 -0.00000000000E+00  0.00000000000E+00  0.62534428047E+03  0.62534428049E+03  0.50400000000E-02 0.  1.
          1   -1    0    0  501    0  0.00000000000E+00 -0.00000000000E+00 -0.21897054254E+04  0.21897054254E+04  0.50400000000E-02 0. -1.
    8880023    1    1    2    0    0 -0.26548877403E+03  0.15957636077E+03  0.39318393043E+03  0.82725613534E+03  0.65864270000E+03 0.  0.
    8880022    1    1    2    0    0  0.26548877403E+03 -0.15957636077E+03 -0.19575450754E+04  0.19877935706E+04  0.15294330000E+03 0.  0.
<mgrwt>
<rscale>  0 0.60412655E+03</rscale>
<asrwt>0</asrwt>
<pdfrwt beam="1">  1        1 0.33687775E+00 0.72784553E+03</pdfrwt>
<pdfrwt beam="2">  1       -1 0.96206814E-01 0.72784553E+03</pdfrwt>
<totfact> 0.24461123E+00</totfact>
</mgrwt>
</event>
<event>
 4    1  0.3712574E-007  0.6827343E+03  0.7818608E-02  0.1007817E+00
          1   -1    0    0  501    0  0.00000000000E+00  0.00000000000E+00  0.62203633586E+03  0.62203633588E+03  0.50400000000E-02 0. -1.
         -1   -1    0    0    0  501 -0.00000000000E+00 -0.00000000000E+00 -0.52461501188E+03  0.52461501190E+03  0.50400000000E-02 0.  1.
    8880023    1    1    2    0    0 -0.20791016226E+02  0.17855979838E+03 -0.24963589596E+03  0.72694164468E+03  0.65864270000E+03 0.  1.
    8880022    1    1    2    0    0  0.20791016226E+02 -0.17855979838E+03  0.34705721994E+03  0.41970970310E+03  0.15294330000E+03 0.  0.
<mgrwt>
<rscale>  0 0.52351364E+03</rscale>
<asrwt>0</asrwt>
<pdfrwt beam="1">  1        1 0.95697898E-01 0.68273426E+03</pdfrwt>
<pdfrwt beam="2">  1       -1 0.80710002E-01 0.68273426E+03</pdfrwt>
<totfact> 0.51143664E+01</totfact>
</mgrwt>
</event>
<event>
 4    1  0.3712574E-007  0.7790073E+03  0.7818608E-02  0.9758174E-01
          1   -1    0    0  501    0  0.00000000000E+00  0.00000000000E+00  0.14059334385E+04  0.14059334385E+04  0.50400000000E-02 0. -1.
         -1   -1    0    0    0  501 -0.00000000000E+00 -0.00000000000E+00 -0.26791889669E+03  0.26791889674E+03  0.50400000000E-02 0.  1.
    8880023    1    1    2    0    0 -0.38401798873E+03  0.15991338279E+03  0.64953517178E+03  0.10142722767E+04  0.65864270000E+03 0.  1.
    8880022    1    1    2    0    0  0.38401798873E+03 -0.15991338279E+03  0.48847937007E+03  0.65958005857E+03  0.15294330000E+03 0.  0.
<mgrwt>
<rscale>  0 0.67656285E+03</rscale>
<asrwt>0</asrwt>
<pdfrwt beam="1">  1        1 0.21629745E+00 0.77900726E+03</pdfrwt>
<pdfrwt beam="2">  1       -1 0.41218292E-01 0.77900726E+03</pdfrwt>
<totfact> 0.44948057E+01</totfact>
</mgrwt>
</event>
<event>
 4    1  0.3712574E-007  0.6618247E+03  0.7818608E-02  0.1022360E+00
         -1   -1    0    0    0  501 -0.00000000000E+00  0.00000000000E+00  0.99976244014E+02  0.99976244141E+02  0.50400000000E-02 0.  1.
          1   -1    0    0  501    0  0.00000000000E+00 -0.00000000000E+00 -0.27854889782E+04  0.27854889782E+04  0.50400000000E-02 0. -1.
    8880023    1    1    2    0    0  0.59697758767E+02 -0.25256124722E+02 -0.10475545890E+04  0.12391055312E+04  0.65864270000E+03 0.  1.
    8880022    1    1    2    0    0 -0.59697758767E+02  0.25256124722E+02 -0.16379581452E+04  0.16463596912E+04  0.15294330000E+03 0.  0.
<mgrwt>
<rscale>  0 0.46844409E+03</rscale>
<asrwt>0</asrwt>
<pdfrwt beam="1">  1        1 0.42853671E+00 0.66182468E+03</pdfrwt>
<pdfrwt beam="2">  1       -1 0.15380963E-01 0.66182468E+03</pdfrwt>
<totfact> 0.28720077E+01</totfact>
</mgrwt>
</event>
<event>
 4    1  0.3712574E-007  0.9457008E+03  0.7818608E-02  0.9456327E-01
         -1   -1    0    0    0  501 -0.00000000000E+00  0.00000000000E+00  0.11888369592E+04  0.11888369592E+04  0.50400000000E-02 0.  1.
          1   -1    0    0  501    0  0.00000000000E+00 -0.00000000000E+00 -0.12188888783E+04  0.12188888783E+04  0.50400000000E-02 0. -1.
    8880023    1    1    2    0    0 -0.58137840938E+03 -0.35005570238E+03  0.85986904916E+03  0.12781724600E+04  0.65864270000E+03 0.  0.
    8880022    1    1    2    0    0  0.58137840938E+03  0.35005570238E+03 -0.88992096829E+03  0.11295533774E+04  0.15294330000E+03 0.  0.
<mgrwt>
<rscale>  0 0.87581688E+03</rscale>
<asrwt>0</asrwt>
<pdfrwt beam="1">  1        1 0.18752137E+00 0.94570083E+03</pdfrwt>
<pdfrwt beam="2">  1       -1 0.18289799E+00 0.94570083E+03</pdfrwt>
<totfact> 0.20782686E+00</totfact>
</mgrwt>
</event>
<event>
 4    1  0.3712574E-007  0.6981673E+03  0.7818608E-02  0.1000489E+00
          1   -1    0    0  501    0  0.00000000000E+00  0.00000000000E+00  0.56811531834E+03  0.56811531836E+03  0.50400000000E-02 0. -1.
         -1   -1    0    0    0  501 -0.00000000000E+00 -0.00000000000E+00 -0.15041070733E+04  0.15041070733E+04  0.50400000000E-02 0.  1.
    8880023    1    1    2    0    0  0.40160538980E+02  0.22806698485E+03 -0.13811837333E+04  0.15476130427E+04  0.65864270000E+03 0.  1.
    8880022    1    1    2    0    0 -0.40160538980E+02 -0.22806698485E+03  0.44519197834E+03  0.52460934900E+03  0.15294330000E+03 0.  0.
<mgrwt>
<rscale>  0 0.55436324E+03</rscale>
<asrwt>0</asrwt>
<pdfrwt beam="1">  1        1 0.87402357E-01 0.69816733E+03</pdfrwt>
<pdfrwt beam="2">  1       -1 0.23140109E+00 0.69816733E+03</pdfrwt>
<totfact> 0.35906260E+00</totfact>
</mgrwt>
</event>
<event>
 4    1  0.3712574E-007  0.6866445E+03  0.7818608E-02  0.1005790E+00
         -1   -1    0    0    0  501 -0.00000000000E+00  0.00000000000E+00  0.25342006545E+03  0.25342006550E+03  0.50400000000E-02 0.  1.
          1   -1    0    0  501    0  0.00000000000E+00 -0.00000000000E+00 -0.11257042830E+04  0.11257042830E+04  0.50400000000E-02 0. -1.
    8880023    1    1    2    0    0  0.18850747647E+03  0.46211002927E+02 -0.28774238067E+03  0.74449742066E+03  0.65864270000E+03 0.  1.
    8880022    1    1    2    0    0 -0.18850747647E+03 -0.46211002927E+02 -0.58454183692E+03  0.63462692789E+03  0.15294330000E+03 0.  0.
<mgrwt>
<rscale>  0 0.53182717E+03</rscale>
<asrwt>0</asrwt>
<pdfrwt beam="1">  1        1 0.17318527E+00 0.68664455E+03</pdfrwt>
<pdfrwt beam="2">  1       -1 0.38987703E-01 0.68664455E+03</pdfrwt>
<totfact> 0.79554055E+01</totfact>
</mgrwt>
</event>
<event>
 4    1  0.3712574E-007  0.7028114E+03  0.7818608E-02  0.9985732E-01
         -1   -1    0    0    0  501 -0.00000000000E+00  0.00000000000E+00  0.49684712377E+03  0.49684712379E+03  0.50400000000E-02 0.  1.
          1   -1    0    0  501    0  0.00000000000E+00 -0.00000000000E+00 -0.74651757824E+03  0.74651757825E+03  0.50400000000E-02 0. -1.
    8880023    1    1    2    0    0  0.22003696676E+03  0.10824695378E+03  0.18004154249E+03  0.72550591523E+03  0.65864270000E+03 0.  0.
    8880022    1    1    2    0    0 -0.22003696676E+03 -0.10824695378E+03 -0.42971199696E+03  0.51785878682E+03  0.15294330000E+03 0.  0.
<mgrwt>
<rscale>  0 0.56280296E+03</rscale>
<asrwt>0</asrwt>
<pdfrwt beam="1">  1        1 0.11484886E+00 0.70281141E+03</pdfrwt>
<pdfrwt beam="2">  1       -1 0.76438020E-01 0.70281141E+03</pdfrwt>
<totfact> 0.43574025E+01</totfact>
</mgrwt>
</event>
<event>
 4    1  0.3712574E-007  0.9137910E+03  0.7818608E-02  0.9504246E-01
         -1   -1    0    0    0  501 -0.00000000000E+00  0.00000000000E+00  0.15748640645E+03  0.15748640653E+03  0.50400000000E-02 0.  1.
          1   -1    0    0  501    0  0.00000000000E+00 -0.00000000000E+00 -0.39785650883E+04  0.39785650883E+04  0.50400000000E-02 0. -1.
    8880023    1    1    2    0    0  0.32121727693E+03 -0.54591499857E+03 -0.19190895185E+04  0.21255395811E+04  0.65864270000E+03 0. -1.
    8880022    1    1    2    0    0 -0.32121727693E+03  0.54591499857E+03 -0.19019891634E+04  0.20105119138E+04  0.15294330000E+03 0.  0.
<mgrwt>
<rscale>  0 0.83971527E+03</rscale>
<asrwt>0</asrwt>
<pdfrwt beam="1">  1        1 0.61208686E+00 0.91379097E+03</pdfrwt>
<pdfrwt beam="2">  1       -1 0.24228681E-01 0.91379097E+03</pdfrwt>
<totfact> 0.15782417E+00</totfact>
</mgrwt>
</event>
<event>
 4    1  0.3712574E-007  0.7735479E+03  0.7818608E-02  0.9771217E-01
         -1   -1    0    0    0  501 -0.00000000000E+00  0.00000000000E+00  0.15913508424E+04  0.15913508424E+04  0.50400000000E-02 0.  1.
          1   -1    0    0  501    0  0.00000000000E+00 -0.00000000000E+00 -0.31790265807E+03  0.31790265811E+03  0.50400000000E-02 0. -1.
    8880023    1    1    2    0    0  0.36921403993E+03  0.16806899060E+03  0.12563253333E+04  0.14753744414E+04  0.65864270000E+03 0.  1.
    8880022    1    1    2    0    0 -0.36921403993E+03 -0.16806899060E+03  0.17122850961E+02  0.43387905910E+03  0.15294330000E+03 0.  0.
<mgrwt>
<rscale>  0 0.66930332E+03</rscale>
<asrwt>0</asrwt>
<pdfrwt beam="1">  1        1 0.48908101E-01 0.77354793E+03</pdfrwt>
<pdfrwt beam="2">  1       -1 0.24482321E+00 0.77354793E+03</pdfrwt>
<totfact> 0.63355838E+00</totfact>
</mgrwt>
</event>
<event>
 4    1  0.3712574E-007  0.6720692E+03  0.7818608E-02  0.1014221E+00
         -1   -1    0    0    0  501 -0.00000000000E+00  0.00000000000E+00  0.13131992497E+03  0.13131992507E+03  0.50400000000E-02 0.  1.
          1   -1    0    0  501    0  0.00000000000E+00 -0.00000000000E+00 -0.15138447429E+04  0.15138447429E+04  0.50400000000E-02 0. -1.
    8880023    1    1    2    0    0 -0.12700822376E+03 -0.41662547407E+02 -0.91389388607E+03  0.11344069367E+04  0.65864270000E+03 0.  1.
    8880022    1    1    2    0    0  0.12700822376E+03  0.41662547407E+02 -0.46863093189E+03  0.51075773132E+03  0.15294330000E+03 0. -1.
<mgrwt>
<rscale>  0 0.49831012E+03</rscale>
<asrwt>0</asrwt>
<pdfrwt beam="1">  1        1 0.23289918E+00 0.67206924E+03</pdfrwt>
<pdfrwt beam="2">  1       -1 0.20203067E-01 0.67206924E+03</pdfrwt>
<totfact> 0.13225570E+02</totfact>
</mgrwt>
</event>
<event>
 4    1  0.3712574E-007  0.6743730E+03  0.7818608E-02  0.1012704E+00
          1   -1    0    0  501    0  0.00000000000E+00  0.00000000000E+00  0.44172570397E+03  0.44172570400E+03  0.50400000000E-02 0. -1.
         -1   -1    0    0    0  501 -0.00000000000E+00 -0.00000000000E+00 -0.10378319592E+04  0.10378319593E+04  0.50400000000E-02 0.  1.
    8880023    1    1    2    0    0 -0.24433382883E+02  0.14272945836E+03 -0.89083765578E+03  0.11173050719E+04  0.65864270000E+03 0.  1.
    8880022    1    1    2    0    0  0.24433382883E+02 -0.14272945836E+03  0.29473140051E+03  0.36225259135E+03  0.15294330000E+03 0.  0.
<mgrwt>
<rscale>  0 0.50413805E+03</rscale>
<asrwt>0</asrwt>
<pdfrwt beam="1">  1        1 0.67957801E-01 0.67437296E+03</pdfrwt>
<pdfrwt beam="2">  1       -1 0.15966645E+00 0.67437296E+03</pdfrwt>
<totfact> 0.15999273E+01</totfact>
</mgrwt>
</event>
<event>
 4    1  0.3712574E-007  0.7988620E+03  0.7818608E-02  0.9713262E-01
          1   -1    0    0  501    0  0.00000000000E+00  0.00000000000E+00  0.16767057572E+04  0.16767057572E+04  0.50400000000E-02 0. -1.
         -1   -1    0    0    0  501 -0.00000000000E+00 -0.00000000000E+00 -0.54621987855E+03  0.54621987857E+03  0.50400000000E-02 0.  1.
    8880023    1    1    2    0    0 -0.11050140133E+03 -0.43836031066E+03 -0.18803375158E+03  0.82069313367E+03  0.65864270000E+03 0.  1.
    8880022    1    1    2    0    0  0.11050140133E+03  0.43836031066E+03  0.13185196302E+04  0.14022325021E+04  0.15294330000E+03 0.  0.
<mgrwt>
<rscale>  0 0.70232638E+03</rscale>
<asrwt>0</asrwt>
<pdfrwt beam="1">  1        1 0.25795473E+00 0.79886202E+03</pdfrwt>
<pdfrwt beam="2">  1       -1 0.84033829E-01 0.79886202E+03</pdfrwt>
<totfact> 0.71801802E+00</totfact>
</mgrwt>
</event>
<event>
 4    1  0.3712574E-007  0.7299313E+03  0.7818608E-02  0.9890311E-01
          1   -1    0    0  501    0  0.00000000000E+00  0.00000000000E+00  0.11025130536E+04  0.11025130536E+04  0.50400000000E-02 0. -1.
         -1   -1    0    0    0  501 -0.00000000000E+00 -0.00000000000E+00 -0.27596598855E+03  0.27596598859E+03  0.50400000000E-02 0.  1.
    8880023    1    1    2    0    0 -0.30766158626E+03  0.65831945630E+02  0.42000736709E+03  0.84214362872E+03  0.65864270000E+03 0.  1.
    8880022    1    1    2    0    0  0.30766158626E+03 -0.65831945630E+02  0.40653969800E+03  0.53633541352E+03  0.15294330000E+03 0. -1.
<mgrwt>
<rscale>  0 0.60733150E+03</rscale>
<asrwt>0</asrwt>
<pdfrwt beam="1">  1        1 0.16961739E+00 0.72993130E+03</pdfrwt>
<pdfrwt beam="2">  1       -1 0.42456307E-01 0.72993130E+03</pdfrwt>
<totfact> 0.70563476E+01</totfact>
</mgrwt>
</event>
<event>
 4    1  0.3712574E-007  0.8006115E+03  0.7818608E-02  0.9709476E-01
          1   -1    0    0  501    0  0.00000000000E+00  0.00000000000E+00  0.64877755429E+03  0.64877755430E+03  0.50400000000E-02 0. -1.
         -1   -1    0    0    0  501 -0.00000000000E+00 -0.00000000000E+00 -0.13219425365E+04  0.13219425365E+04  0.50400000000E-02 0.  1.
    8880023    1    1    2    0    0  0.26430493434E+03 -0.37055555434E+03 -0.10779202618E+04  0.13427176971E+04  0.65864270000E+03 0.  0.
    8880022    1    1    2    0    0 -0.26430493434E+03  0.37055555434E+03  0.40475527954E+03  0.62800239371E+03  0.15294330000E+03 0.  0.
<mgrwt>
<rscale>  0 0.70455417E+03</rscale>
<asrwt>0</asrwt>
<pdfrwt beam="1">  1        1 0.99811931E-01 0.80061147E+03</pdfrwt>
<pdfrwt beam="2">  1       -1 0.20337577E+00 0.80061147E+03</pdfrwt>
<totfact> 0.44858646E+00</totfact>
</mgrwt>
</event>
<event>
 4    1  0.3712574E-007  0.8469397E+03  0.7818608E-02  0.9617231E-01
         -1   -1    0    0    0  501 -0.00000000000E+00  0.00000000000E+00  0.38311209704E+03  0.38311209708E+03  0.50400000000E-02 0.  1.
          1   -1    0    0  501    0  0.00000000000E+00 -0.00000000000E+00 -0.12809222271E+04  0.12809222271E+04  0.50400000000E-02 0. -1.
    8880023    1    1    2    0    0  0.34056738061E+03 -0.40928056125E+03 -0.55415671957E+03  0.10121247920E+04  0.65864270000E+03 0.  0.
    8880022    1    1    2    0    0 -0.34056738061E+03  0.40928056125E+03 -0.34365341049E+03  0.65190953215E+03  0.15294330000E+03 0. -1.
<mgrwt>
<rscale>  0 0.76166138E+03</rscale>
<asrwt>0</asrwt>
<pdfrwt beam="1">  1        1 0.19706496E+00 0.84693974E+03</pdfrwt>
<pdfrwt beam="2">  1       -1 0.58940323E-01 0.84693974E+03</pdfrwt>
<totfact> 0.27752749E+01</totfact>
</mgrwt>
</event>
<event>
 4    1  0.3712574E-007  0.1209613E+04  0.7818608E-02  0.9147834E-01
         -1   -1    0    0    0  501 -0.00000000000E+00  0.00000000000E+00  0.72855199215E+03  0.72855199217E+03  0.50400000000E-02 0.  1.
          1   -1    0    0  501    0  0.00000000000E+00 -0.00000000000E+00 -0.17703898231E+04  0.17703898231E+04  0.50400000000E-02 0. -1.
    8880023    1    1    2    0    0 -0.16228254157E+03  0.10015073065E+04 -0.78247437872E+03  0.14406348836E+04  0.65864270000E+03 0.  0.
    8880022    1    1    2    0    0  0.16228254157E+03 -0.10015073065E+04 -0.25936345226E+03  0.10583069317E+04  0.15294330000E+03 0.  0.
<mgrwt>
<rscale>  0 0.11608473E+04</rscale>
<asrwt>0</asrwt>
<pdfrwt beam="1">  1        1 0.27236766E+00 0.12096126E+04</pdfrwt>
<pdfrwt beam="2">  1       -1 0.11208492E+00 0.12096126E+04</pdfrwt>
<totfact> 0.30619410E+00</totfact>
</mgrwt>
</event>
<event>
 4    1  0.3712574E-007  0.6601680E+03  0.7818608E-02  0.1023985E+00
          1   -1    0    0  501    0  0.00000000000E+00  0.00000000000E+00  0.62776315809E+03  0.62776315811E+03  0.50400000000E-02 0. -1.
         -1   -1    0    0    0  501 -0.00000000000E+00 -0.00000000000E+00 -0.32370246297E+03  0.32370246301E+03  0.50400000000E-02 0.  1.
    8880023    1    1    2    0    0 -0.43553989313E+02 -0.10707279721E+02  0.63933191204E+02  0.66325655295E+03  0.65864270000E+03 0.  1.
    8880022    1    1    2    0    0  0.43553989313E+02  0.10707279721E+02  0.24012750392E+03  0.28820906817E+03  0.15294330000E+03 0.  0.
<mgrwt>
<rscale>  0 0.46275595E+03</rscale>
<asrwt>0</asrwt>
<pdfrwt beam="1">  1        1 0.96578947E-01 0.66016801E+03</pdfrwt>
<pdfrwt beam="2">  1       -1 0.49800379E-01 0.66016801E+03</pdfrwt>
<totfact> 0.13260049E+02</totfact>
</mgrwt>
</event>
<event>
 4    1  0.3712574E-007  0.8048685E+03  0.7818608E-02  0.9700367E-01
          1   -1    0    0  501    0  0.00000000000E+00  0.00000000000E+00  0.26453237208E+04  0.26453237208E+04  0.50400000000E-02 0. -1.
         -1   -1    0    0    0  501 -0.00000000000E+00 -0.00000000000E+00 -0.21925170529E+03  0.21925170534E+03  0.50400000000E-02 0.  1.
    8880023    1    1    2    0    0 -0.44969184385E+03 -0.10853715461E+03  0.68591178230E+03  0.10574914882E+04  0.65864270000E+03 0.  1.
    8880022    1    1    2    0    0  0.44969184385E+03  0.10853715461E+03  0.17401602333E+04  0.18070839379E+04  0.15294330000E+03 0.  0.
<mgrwt>
<rscale>  0 0.70994969E+03</rscale>
<asrwt>0</asrwt>
<pdfrwt beam="1">  1        1 0.40697289E+00 0.80486848E+03</pdfrwt>
<pdfrwt beam="2">  1       -1 0.33731031E-01 0.80486848E+03</pdfrwt>
<totfact> 0.93090841E+00</totfact>
</mgrwt>
</event>
<event>
 4    1  0.3712574E-007  0.8256411E+03  0.7818608E-02  0.9657874E-01
         -1   -1    0    0    0  501 -0.00000000000E+00  0.00000000000E+00  0.20082501665E+03  0.20082501671E+03  0.50400000000E-02 0.  1.
          1   -1    0    0  501    0  0.00000000000E+00 -0.00000000000E+00 -0.35470062503E+04  0.35470062503E+04  0.50400000000E-02 0. -1.
    8880023    1    1    2    0    0 -0.18414248186E+03  0.46256300382E+03 -0.80253420094E+03  0.11514097169E+04  0.65864270000E+03 0.  0.
    8880022    1    1    2    0    0  0.18414248186E+03 -0.46256300382E+03 -0.25436470327E+04  0.25964215502E+04  0.15294330000E+03 0.  0.
<mgrwt>
<rscale>  0 0.73581327E+03</rscale>
<asrwt>0</asrwt>
<pdfrwt beam="1">  1        1 0.54569323E+00 0.82564108E+03</pdfrwt>
<pdfrwt beam="2">  1       -1 0.30896159E-01 0.82564108E+03</pdfrwt>
<totfact> 0.23764527E+00</totfact>
</mgrwt>
</event>
<event>
 4    1  0.3712574E-007  0.1319002E+04  0.7818608E-02  0.9049322E-01
          1   -1    0    0  501    0  0.00000000000E+00  0.00000000000E+00  0.16477931470E+04  0.16477931470E+04  0.50400000000E-02 0. -1.
         -1   -1    0    0    0  501 -0.00000000000E+00 -0.00000000000E+00 -0.13916289946E+04  0.13916289947E+04  0.50400000000E-02 0.  1.
    8880023    1    1    2    0    0  0.28139894328E+03 -0.11075969148E+04 -0.74289105460E+03  0.15138208666E+04  0.65864270000E+03 0.  1.
    8880022    1    1    2    0    0 -0.28139894328E+03  0.11075969148E+04  0.99905520694E+03  0.15256012751E+04  0.15294330000E+03 0.  0.
<mgrwt>
<rscale>  0 0.12753781E+04</rscale>
<asrwt>0</asrwt>
<pdfrwt beam="1">  1        1 0.25350664E+00 0.13190021E+04</pdfrwt>
<pdfrwt beam="2">  1       -1 0.21409677E+00 0.13190021E+04</pdfrwt>
<totfact> 0.60248791E-01</totfact>
</mgrwt>
</event>
<event>
 4    1  0.3712574E-007  0.7035422E+03  0.7818608E-02  0.9982812E-01
          1   -1    0    0  501    0  0.00000000000E+00  0.00000000000E+00  0.65688116494E+03  0.65688116496E+03  0.50400000000E-02 0. -1.
         -1   -1    0    0    0  501 -0.00000000000E+00 -0.00000000000E+00 -0.20286737191E+04  0.20286737191E+04  0.50400000000E-02 0.  1.
    8880023    1    1    2    0    0 -0.12152277424E+03 -0.21539195420E+03 -0.19310504799E+04  0.20552196089E+04  0.65864270000E+03 0.  1.
    8880022    1    1    2    0    0  0.12152277424E+03  0.21539195420E+03  0.55925792575E+03  0.63033527517E+03  0.15294330000E+03 0.  0.
<mgrwt>
<rscale>  0 0.56410357E+03</rscale>
<asrwt>0</asrwt>
<pdfrwt beam="1">  1        1 0.10105864E+00 0.70354224E+03</pdfrwt>
<pdfrwt beam="2">  1       -1 0.31210365E+00 0.70354224E+03</pdfrwt>
<totfact> 0.88300362E-01</totfact>
</mgrwt>
</event>
<event>
 4    1  0.3712574E-007  0.6737836E+03  0.7818608E-02  0.1013084E+00
          1   -1    0    0  501    0  0.00000000000E+00  0.00000000000E+00  0.13752949001E+04  0.13752949001E+04  0.50400000000E-02 0. -1.
         -1   -1    0    0    0  501 -0.00000000000E+00 -0.00000000000E+00 -0.14748855601E+03  0.14748855609E+03  0.50400000000E-02 0.  1.
    8880023    1    1    2    0    0  0.20389854606E+02  0.14056444361E+03  0.10550263044E+04  0.12518245957E+04  0.65864270000E+03 0.  0.
    8880022    1    1    2    0    0 -0.20389854606E+02 -0.14056444361E+03  0.17278003961E+03  0.27095886050E+03  0.15294330000E+03 0. -1.
<mgrwt>
<rscale>  0 0.50267060E+03</rscale>
<asrwt>0</asrwt>
<pdfrwt beam="1">  1        1 0.21158383E+00 0.67378358E+03</pdfrwt>
<pdfrwt beam="2">  1       -1 0.22690547E-01 0.67378358E+03</pdfrwt>
<totfact> 0.13558307E+02</totfact>
</mgrwt>
</event>
<event>
 4    1  0.3712574E-007  0.1072796E+04  0.7818608E-02  0.9291967E-01
          1   -1    0    0  501    0  0.00000000000E+00  0.00000000000E+00  0.26845805704E+04  0.26845805704E+04  0.50400000000E-02 0. -1.
         -1   -1    0    0    0  501 -0.00000000000E+00 -0.00000000000E+00 -0.39704860864E+03  0.39704860867E+03  0.50400000000E-02 0.  1.
    8880023    1    1    2    0    0  0.71621765207E+03 -0.45178800610E+03  0.71554980400E+03  0.12895355194E+04  0.65864270000E+03 0.  0.
    8880022    1    1    2    0    0 -0.71621765207E+03  0.45178800610E+03  0.15719821578E+04  0.17920936596E+04  0.15294330000E+03 0.  0.
<mgrwt>
<rscale>  0 0.10152577E+04</rscale>
<asrwt>0</asrwt>
<pdfrwt beam="1">  1        1 0.41301238E+00 0.10727956E+04</pdfrwt>
<pdfrwt beam="2">  1       -1 0.61084404E-01 0.10727956E+04</pdfrwt>
<totfact> 0.27672324E+00</totfact>
</mgrwt>
</event>
<event>
 4    1  0.3712574E-007  0.1137406E+04  0.7818608E-02  0.9220509E-01
          1   -1    0    0  501    0  0.00000000000E+00  0.00000000000E+00  0.22499753493E+04  0.22499753493E+04  0.50400000000E-02 0. -1.
         -1   -1    0    0    0  501 -0.00000000000E+00 -0.00000000000E+00 -0.88705166348E+03  0.88705166349E+03  0.50400000000E-02 0.  1.
    8880023    1    1    2    0    0 -0.92657781178E+03 -0.36562477902E+02  0.17771486052E+04  0.21099646034E+04  0.65864270000E+03 0.  0.
    8880022    1    1    2    0    0  0.92657781178E+03  0.36562477902E+02 -0.41422491939E+03  0.10270624095E+04  0.15294330000E+03 0.  0.
<mgrwt>
<rscale>  0 0.10844231E+04</rscale>
<asrwt>0</asrwt>
<pdfrwt beam="1">  1        1 0.34615005E+00 0.11374065E+04</pdfrwt>
<pdfrwt beam="2">  1       -1 0.13646949E+00 0.11374065E+04</pdfrwt>
<totfact> 0.89656471E-01</totfact>
</mgrwt>
</event>
<event>
 4    1  0.3712574E-007  0.7767755E+03  0.7818608E-02  0.9763467E-01
         -1   -1    0    0    0  501 -0.00000000000E+00  0.00000000000E+00  0.31629508884E+03  0.31629508888E+03  0.50400000000E-02 0.  1.
          1   -1    0    0  501    0  0.00000000000E+00 -0.00000000000E+00 -0.12384399595E+04  0.12384399595E+04  0.50400000000E-02 0. -1.
    8880023    1    1    2    0    0  0.14522487962E+03  0.38533058292E+03 -0.40436629194E+03  0.87572383096E+03  0.65864270000E+03 0.  0.
    8880022    1    1    2    0    0 -0.14522487962E+03 -0.38533058292E+03 -0.51777857870E+03  0.67901121742E+03  0.15294330000E+03 0.  1.
<mgrwt>
<rscale>  0 0.67360528E+03</rscale>
<asrwt>0</asrwt>
<pdfrwt beam="1">  1        1 0.19052922E+00 0.77677547E+03</pdfrwt>
<pdfrwt beam="2">  1       -1 0.48660784E-01 0.77677547E+03</pdfrwt>
<totfact> 0.43355659E+01</totfact>
</mgrwt>
</event>
<event>
 4    1  0.3712574E-007  0.7488412E+03  0.7818608E-02  0.9834903E-01
          1   -1    0    0  501    0  0.00000000000E+00  0.00000000000E+00  0.13143778043E+04  0.13143778043E+04  0.50400000000E-02 0. -1.
         -1   -1    0    0    0  501 -0.00000000000E+00 -0.00000000000E+00 -0.28382023640E+03  0.28382023644E+03  0.50400000000E-02 0.  1.
    8880023    1    1    2    0    0 -0.26475889149E+03 -0.23844420718E+03  0.37727055519E+03  0.83850831161E+03  0.65864270000E+03 0.  0.
    8880022    1    1    2    0    0  0.26475889149E+03  0.23844420718E+03  0.65328701269E+03  0.75968972912E+03  0.15294330000E+03 0.  0.
<mgrwt>
<rscale>  0 0.63522599E+03</rscale>
<asrwt>0</asrwt>
<pdfrwt beam="1">  1        1 0.20221197E+00 0.74884118E+03</pdfrwt>
<pdfrwt beam="2">  1       -1 0.43664652E-01 0.74884118E+03</pdfrwt>
<totfact> 0.47000516E+01</totfact>
</mgrwt>
</event>
<event>
 4    1  0.3712574E-007  0.8696426E+03  0.7818608E-02  0.9576636E-01
          1   -1    0    0  501    0  0.00000000000E+00  0.00000000000E+00  0.22815080227E+04  0.22815080227E+04  0.50400000000E-02 0. -1.
         -1   -1    0    0    0  501 -0.00000000000E+00 -0.00000000000E+00 -0.52374854281E+03  0.52374854284E+03  0.50400000000E-02 0.  1.
    8880023    1    1    2    0    0 -0.34407445221E+03 -0.45175309814E+03 -0.82274206366E+02  0.87352581052E+03  0.65864270000E+03 0.  1.
    8880022    1    1    2    0    0  0.34407445221E+03  0.45175309814E+03  0.18400336862E+04  0.19317307550E+04  0.15294330000E+03 0.  0.
<mgrwt>
<rscale>  0 0.78862060E+03</rscale>
<asrwt>0</asrwt>
<pdfrwt beam="1">  1        1 0.35100122E+00 0.86964263E+03</pdfrwt>
<pdfrwt beam="2">  1       -1 0.80576701E-01 0.86964263E+03</pdfrwt>
<totfact> 0.30478664E+00</totfact>
</mgrwt>
</event>
<event>
 4    1  0.3712574E-007  0.1356732E+04  0.7818608E-02  0.9018054E-01
          1   -1    0    0  501    0  0.00000000000E+00  0.00000000000E+00  0.38657246809E+04  0.38657246809E+04  0.50400000000E-02 0. -1.
         -1   -1    0    0    0  501 -0.00000000000E+00 -0.00000000000E+00 -0.45612964066E+03  0.45612964069E+03  0.50400000000E-02 0.  1.
    8880023    1    1    2    0    0 -0.91280107549E+02  0.11826151184E+04  0.23991078649E+04  0.27561638794E+04  0.65864270000E+03 0.  0.
    8880022    1    1    2    0    0  0.91280107549E+02 -0.11826151184E+04  0.10104871753E+04  0.15656904422E+04  0.15294330000E+03 0.  0.
<mgrwt>
<rscale>  0 0.13146161E+04</rscale>
<asrwt>0</asrwt>
<pdfrwt beam="1">  1        1 0.59472686E+00 0.13567317E+04</pdfrwt>
<pdfrwt beam="2">  1       -1 0.70173792E-01 0.13567317E+04</pdfrwt>
<totfact> 0.25525030E-01</totfact>
</mgrwt>
</event>
<event>
 4    1  0.3712574E-007  0.8981323E+03  0.7818608E-02  0.9529037E-01
          1   -1    0    0  501    0  0.00000000000E+00  0.00000000000E+00  0.34112257214E+04  0.34112257214E+04  0.50400000000E-02 0. -1.
         -1   -1    0    0    0  501 -0.00000000000E+00 -0.00000000000E+00 -0.26197500590E+03  0.26197500595E+03  0.50400000000E-02 0.  1.
    8880023    1    1    2    0    0  0.12710015470E+03 -0.59722437319E+03  0.68421854491E+03  0.11290689194E+04  0.65864270000E+03 0.  1.
    8880022    1    1    2    0    0 -0.12710015470E+03  0.59722437319E+03  0.24650321706E+04  0.25441318080E+04  0.15294330000E+03 0.  0.
<mgrwt>
<rscale>  0 0.82176511E+03</rscale>
<asrwt>0</asrwt>
<pdfrwt beam="1">  1        1 0.52480397E+00 0.89813229E+03</pdfrwt>
<pdfrwt beam="2">  1       -1 0.40303846E-01 0.89813229E+03</pdfrwt>
<totfact> 0.18565622E+00</totfact>
</mgrwt>
</event>
<event>
 4    1  0.3712574E-007  0.7137264E+03  0.7818608E-02  0.9944415E-01
          1   -1    0    0  501    0  0.00000000000E+00  0.00000000000E+00  0.47199552268E+03  0.47199552270E+03  0.50400000000E-02 0. -1.
         -1   -1    0    0    0  501 -0.00000000000E+00 -0.00000000000E+00 -0.78797061582E+03  0.78797061584E+03  0.50400000000E-02 0.  1.
    8880023    1    1    2    0    0  0.26975415824E+03 -0.53177737210E+02 -0.52168809867E+03  0.88406100252E+03  0.65864270000E+03 0.  1.
    8880022    1    1    2    0    0 -0.26975415824E+03  0.53177737210E+02  0.20571300553E+03  0.37590513602E+03  0.15294330000E+03 0.  0.
<mgrwt>
<rscale>  0 0.58156197E+03</rscale>
<asrwt>0</asrwt>
<pdfrwt beam="1">  1        1 0.72614696E-01 0.71372641E+03</pdfrwt>
<pdfrwt beam="2">  1       -1 0.12122625E+00 0.71372641E+03</pdfrwt>
<totfact> 0.29765634E+01</totfact>
</mgrwt>
</event>
<event>
 4    1  0.3712574E-007  0.7530200E+03  0.7818608E-02  0.9823525E-01
          1   -1    0    0  501    0  0.00000000000E+00  0.00000000000E+00  0.12658505227E+04  0.12658505227E+04  0.50400000000E-02 0. -1.
         -1   -1    0    0    0  501 -0.00000000000E+00 -0.00000000000E+00 -0.26199739618E+03  0.26199739623E+03  0.50400000000E-02 0.  1.
    8880023    1    1    2    0    0  0.96861644974E+02  0.35191869582E+03  0.60476516695E+03  0.96580539455E+03  0.65864270000E+03 0. -1.
    8880022    1    1    2    0    0 -0.96861644974E+02 -0.35191869582E+03  0.39908795959E+03  0.56204252440E+03  0.15294330000E+03 0.  1.
<mgrwt>
<rscale>  0 0.64115200E+03</rscale>
<asrwt>0</asrwt>
<pdfrwt beam="1">  1        1 0.19474623E+00 0.75302002E+03</pdfrwt>
<pdfrwt beam="2">  1       -1 0.40307292E-01 0.75302002E+03</pdfrwt>
<totfact> 0.58890844E+01</totfact>
</mgrwt>
</event>
<event>
 4    1  0.3712574E-007  0.6944638E+03  0.7818608E-02  0.1002099E+00
         -1   -1    0    0    0  501 -0.00000000000E+00  0.00000000000E+00  0.16073194151E+03  0.16073194159E+03  0.50400000000E-02 0.  1.
          1   -1    0    0  501    0  0.00000000000E+00 -0.00000000000E+00 -0.28838619147E+04  0.28838619147E+04  0.50400000000E-02 0. -1.
    8880023    1    1    2    0    0  0.20589798596E+02 -0.21919360510E+03 -0.64034293949E+03  0.94462641437E+03  0.65864270000E+03 0.  1.
    8880022    1    1    2    0    0 -0.20589798596E+02  0.21919360510E+03 -0.20827870337E+04  0.20999674420E+04  0.15294330000E+03 0. -1.
<mgrwt>
<rscale>  0 0.54739294E+03</rscale>
<asrwt>0</asrwt>
<pdfrwt beam="1">  1        1 0.44367103E+00 0.69446381E+03</pdfrwt>
<pdfrwt beam="2">  1       -1 0.24727993E-01 0.69446381E+03</pdfrwt>
<totfact> 0.11072372E+01</totfact>
</mgrwt>
</event>
<event>
 4    1  0.3712574E-007  0.7586182E+03  0.7818608E-02  0.9808698E-01
          1   -1    0    0  501    0  0.00000000000E+00  0.00000000000E+00  0.16422818537E+04  0.16422818537E+04  0.50400000000E-02 0. -1.
         -1   -1    0    0    0  501 -0.00000000000E+00 -0.00000000000E+00 -0.68514777044E+03  0.68514777046E+03  0.50400000000E-02 0.  1.
    8880023    1    1    2    0    0  0.28431094297E+03 -0.24669561697E+03 -0.43687157395E+03  0.87541899574E+03  0.65864270000E+03 0.  1.
    8880022    1    1    2    0    0 -0.28431094297E+03  0.24669561697E+03  0.13940056572E+04  0.14520106284E+04  0.15294330000E+03 0.  0.
<mgrwt>
<rscale>  0 0.64897847E+03</rscale>
<asrwt>0</asrwt>
<pdfrwt beam="1">  1        1 0.25265874E+00 0.75861825E+03</pdfrwt>
<pdfrwt beam="2">  1       -1 0.10540735E+00 0.75861825E+03</pdfrwt>
<totfact> 0.45927399E+00</totfact>
</mgrwt>
</event>
<event>
 4    1  0.3712574E-007  0.7083963E+03  0.7818608E-02  0.9964005E-01
         -1   -1    0    0    0  501 -0.00000000000E+00  0.00000000000E+00  0.98896424880E+03  0.98896424881E+03  0.50400000000E-02 0.  1.
          1   -1    0    0  501    0  0.00000000000E+00 -0.00000000000E+00 -0.59087105269E+03  0.59087105271E+03  0.50400000000E-02 0. -1.
    8880023    1    1    2    0    0 -0.24690741855E+03  0.83974821702E+02  0.80538156317E+03  0.10725971809E+04  0.65864270000E+03 0.  1.
    8880022    1    1    2    0    0  0.24690741855E+03 -0.83974821702E+02 -0.40728836705E+03  0.50723812058E+03  0.15294330000E+03 0.  0.
<mgrwt>
<rscale>  0 0.57257113E+03</rscale>
<asrwt>0</asrwt>
<pdfrwt beam="1">  1        1 0.90903239E-01 0.70839625E+03</pdfrwt>
<pdfrwt beam="2">  1       -1 0.15214835E+00 0.70839625E+03</pdfrwt>
<totfact> 0.12163032E+01</totfact>
</mgrwt>
</event>
<event>
 4    1  0.3712574E-007  0.6651230E+03  0.7818608E-02  0.1019430E+00
          1   -1    0    0  501    0  0.00000000000E+00  0.00000000000E+00  0.75970530493E+03  0.75970530495E+03  0.50400000000E-02 0. -1.
         -1   -1    0    0    0  501 -0.00000000000E+00 -0.00000000000E+00 -0.40258581548E+03  0.40258581551E+03  0.50400000000E-02 0.  1.
    8880023    1    1    2    0    0  0.82452047435E+02  0.42191025898E+02 -0.98932600795E+02  0.67244054648E+03  0.65864270000E+03 0.  1.
    8880022    1    1    2    0    0 -0.82452047435E+02 -0.42191025898E+02  0.45605209025E+03  0.48985057398E+03  0.15294330000E+03 0.  0.
<mgrwt>
<rscale>  0 0.47892713E+03</rscale>
<asrwt>0</asrwt>
<pdfrwt beam="1">  1        1 0.11687774E+00 0.66512302E+03</pdfrwt>
<pdfrwt beam="2">  1       -1 0.61936280E-01 0.66512302E+03</pdfrwt>
<totfact> 0.65309403E+01</totfact>
</mgrwt>
</event>
<event>
 4    1  0.3712574E-007  0.8315889E+03  0.7818608E-02  0.9646249E-01
         -1   -1    0    0    0  501 -0.00000000000E+00  0.00000000000E+00  0.88540501559E+03  0.88540501561E+03  0.50400000000E-02 0.  1.
          1   -1    0    0  501    0  0.00000000000E+00 -0.00000000000E+00 -0.16318993095E+04  0.16318993095E+04  0.50400000000E-02 0. -1.
    8880023    1    1    2    0    0  0.50499264791E+03 -0.52080312261E+02  0.62931152254E+03  0.10428677443E+04  0.65864270000E+03 0.  0.
    8880022    1    1    2    0    0 -0.50499264791E+03  0.52080312261E+02 -0.13758058164E+04  0.14744365808E+04  0.15294330000E+03 0.  0.
<mgrwt>
<rscale>  0 0.74309322E+03</rscale>
<asrwt>0</asrwt>
<pdfrwt beam="1">  1        1 0.25106143E+00 0.83158892E+03</pdfrwt>
<pdfrwt beam="2">  1       -1 0.13621616E+00 0.83158892E+03</pdfrwt>
<totfact> 0.24660850E+00</totfact>
</mgrwt>
</event>
<event>
 4    1  0.3712574E-007  0.9404386E+03  0.7818608E-02  0.9464006E-01
         -1   -1    0    0    0  501 -0.00000000000E+00  0.00000000000E+00  0.74920007379E+03  0.74920007380E+03  0.50400000000E-02 0.  1.
          1   -1    0    0  501    0  0.00000000000E+00 -0.00000000000E+00 -0.15133916024E+04  0.15133916024E+04  0.50400000000E-02 0. -1.
    8880023    1    1    2    0    0  0.37694561211E+03  0.55545170852E+03  0.30695448495E+03  0.98926531177E+03  0.65864270000E+03 0.  1.
    8880022    1    1    2    0    0 -0.37694561211E+03 -0.55545170852E+03 -0.10711460135E+04  0.12733263644E+04  0.15294330000E+03 0.  0.
<mgrwt>
<rscale>  0 0.86990304E+03</rscale>
<asrwt>0</asrwt>
<pdfrwt beam="1">  1        1 0.23282948E+00 0.94043862E+03</pdfrwt>
<pdfrwt beam="2">  1       -1 0.11526155E+00 0.94043862E+03</pdfrwt>
<totfact> 0.44296325E+00</totfact>
</mgrwt>
</event>
<event>
 4    1  0.3712574E-007  0.9804902E+03  0.7818608E-02  0.9407540E-01
         -1   -1    0    0    0  501 -0.00000000000E+00  0.00000000000E+00  0.39406101950E+03  0.39406101953E+03  0.50400000000E-02 0.  1.
          1   -1    0    0  501    0  0.00000000000E+00 -0.00000000000E+00 -0.31094375040E+04  0.31094375040E+04  0.50400000000E-02 0. -1.
    8880023    1    1    2    0    0 -0.41904283329E+02  0.72511708509E+03 -0.25652056894E+04  0.27462048706E+04  0.65864270000E+03 0. -1.
    8880022    1    1    2    0    0  0.41904283329E+02 -0.72511708509E+03 -0.15017079510E+03  0.75729365293E+03  0.15294330000E+03 0.  0.
<mgrwt>
<rscale>  0 0.91457791E+03</rscale>
<asrwt>0</asrwt>
<pdfrwt beam="1">  1        1 0.47837498E+00 0.98049016E+03</pdfrwt>
<pdfrwt beam="2">  1       -1 0.60624774E-01 0.98049016E+03</pdfrwt>
<totfact> 0.14164755E+00</totfact>
</mgrwt>
</event>
<event>
 4    1  0.3712574E-007  0.7237990E+03  0.7818608E-02  0.9909935E-01
         -1   -1    0    0    0  501 -0.00000000000E+00  0.00000000000E+00  0.24779646753E+03  0.24779646759E+03  0.50400000000E-02 0.  1.
          1   -1    0    0  501    0  0.00000000000E+00 -0.00000000000E+00 -0.18130665045E+04  0.18130665045E+04  0.50400000000E-02 0. -1.
    8880023    1    1    2    0    0 -0.29991400616E+03 -0.11243123367E+02 -0.35802874631E+03  0.80750827139E+03  0.65864270000E+03 0.  1.
    8880022    1    1    2    0    0  0.29991400616E+03  0.11243123367E+02 -0.12072412907E+04  0.12533547007E+04  0.15294330000E+03 0.  0.
<mgrwt>
<rscale>  0 0.59782206E+03</rscale>
<asrwt>0</asrwt>
<pdfrwt beam="1">  1        1 0.27893330E+00 0.72379902E+03</pdfrwt>
<pdfrwt beam="2">  1       -1 0.38122535E-01 0.72379902E+03</pdfrwt>
<totfact> 0.27592355E+01</totfact>
</mgrwt>
</event>
<event>
 4    1  0.3712574E-007  0.7240254E+03  0.7818608E-02  0.9909194E-01
          1   -1    0    0  501    0  0.00000000000E+00  0.00000000000E+00  0.12994412580E+04  0.12994412580E+04  0.50400000000E-02 0. -1.
         -1   -1    0    0    0  501 -0.00000000000E+00 -0.00000000000E+00 -0.97235143551E+03  0.97235143552E+03  0.50400000000E-02 0.  1.
    8880023    1    1    2    0    0  0.16881250249E+03 -0.24880698054E+03 -0.80958829740E+03  0.10861150916E+04  0.65864270000E+03 0.  1.
    8880022    1    1    2    0    0 -0.16881250249E+03  0.24880698054E+03  0.11366781199E+04  0.11856776020E+04  0.15294330000E+03 0.  0.
<mgrwt>
<rscale>  0 0.59817792E+03</rscale>
<asrwt>0</asrwt>
<pdfrwt beam="1">  1        1 0.19991404E+00 0.72402540E+03</pdfrwt>
<pdfrwt beam="2">  1       -1 0.14959253E+00 0.72402540E+03</pdfrwt>
<totfact> 0.33301767E+00</totfact>
</mgrwt>
</event>
<event>
 4    1  0.3712574E-007  0.6756618E+03  0.7818608E-02  0.1011892E+00
         -1   -1    0    0    0  501 -0.00000000000E+00  0.00000000000E+00  0.40107311067E+03  0.40107311070E+03  0.50400000000E-02 0.  1.
          1   -1    0    0  501    0  0.00000000000E+00 -0.00000000000E+00 -0.57178752232E+03  0.57178752234E+03  0.50400000000E-02 0. -1.
    8880023    1    1    2    0    0  0.29023141512E+02 -0.14787272721E+03  0.33569940730E+02  0.67649525747E+03  0.65864270000E+03 0. -1.
    8880022    1    1    2    0    0 -0.29023141512E+02  0.14787272721E+03 -0.20428435238E+03  0.29636537557E+03  0.15294330000E+03 0.  0.
<mgrwt>
<rscale>  0 0.50729438E+03</rscale>
<asrwt>0</asrwt>
<pdfrwt beam="1">  1        1 0.87967311E-01 0.67566182E+03</pdfrwt>
<pdfrwt beam="2">  1       -1 0.61703556E-01 0.67566182E+03</pdfrwt>
<totfact> 0.10008225E+02</totfact>
</mgrwt>
</event>
<event>
 4    1  0.3712574E-007  0.6970539E+03  0.7818608E-02  0.1000965E+00
         -1   -1    0    0    0  501 -0.00000000000E+00  0.00000000000E+00  0.99401217783E+03  0.99401217785E+03  0.50400000000E-02 0.  1.
          1   -1    0    0  501    0  0.00000000000E+00 -0.00000000000E+00 -0.10532457309E+04  0.10532457309E+04  0.50400000000E-02 0. -1.
    8880023    1    1    2    0    0 -0.20133994666E+03 -0.10740626057E+03  0.84893989478E+03  0.10984457338E+04  0.65864270000E+03 0.  1.
    8880022    1    1    2    0    0  0.20133994666E+03  0.10740626057E+03 -0.90817344786E+03  0.94881217496E+03  0.15294330000E+03 0.  0.
<mgrwt>
<rscale>  0 0.55229147E+03</rscale>
<asrwt>0</asrwt>
<pdfrwt beam="1">  1        1 0.16203780E+00 0.69705386E+03</pdfrwt>
<pdfrwt beam="2">  1       -1 0.15292495E+00 0.69705386E+03</pdfrwt>
<totfact> 0.47673435E+00</totfact>
</mgrwt>
</event>
<event>
 4    1  0.3712574E-007  0.8996650E+03  0.7818608E-02  0.9526570E-01
          1   -1    0    0  501    0  0.00000000000E+00  0.00000000000E+00  0.38684341086E+04  0.38684341086E+04  0.50400000000E-02 0. -1.
         -1   -1    0    0    0  501 -0.00000000000E+00 -0.00000000000E+00 -0.27062279686E+03  0.27062279691E+03  0.50400000000E-02 0.  1.
    8880023    1    1    2    0    0 -0.50774556313E+03  0.34319278116E+03  0.61423065845E+03  0.10893467538E+04  0.65864270000E+03 0.  0.
    8880022    1    1    2    0    0  0.50774556313E+03 -0.34319278116E+03  0.29835806533E+04  0.30497101518E+04  0.15294330000E+03 0.  0.
<mgrwt>
<rscale>  0 0.82352975E+03</rscale>
<asrwt>0</asrwt>
<pdfrwt beam="1">  1        1 0.59514373E+00 0.89966496E+03</pdfrwt>
<pdfrwt beam="2">  1       -1 0.41634275E-01 0.89966496E+03</pdfrwt>
<totfact> 0.75440978E-01</totfact>
</mgrwt>
</event>
<event>
 4    1  0.3712574E-007  0.8746573E+03  0.7818608E-02  0.9568005E-01
         -1   -1    0    0    0  501 -0.00000000000E+00  0.00000000000E+00  0.15065840142E+04  0.15065840142E+04  0.50400000000E-02 0.  1.
          1   -1    0    0  501    0  0.00000000000E+00 -0.00000000000E+00 -0.64227880204E+03  0.64227880206E+03  0.50400000000E-02 0. -1.
    8880023    1    1    2    0    0  0.38651701203E+03 -0.42640322245E+03  0.11847445534E+04  0.14726319879E+04  0.65864270000E+03 0.  0.
    8880022    1    1    2    0    0 -0.38651701203E+03  0.42640322245E+03 -0.32043934130E+03  0.67623082832E+03  0.15294330000E+03 0.  0.
<mgrwt>
<rscale>  0 0.79450531E+03</rscale>
<asrwt>0</asrwt>
<pdfrwt beam="1">  1        1 0.98812124E-01 0.87465726E+03</pdfrwt>
<pdfrwt beam="2">  1       -1 0.23178216E+00 0.87465726E+03</pdfrwt>
<totfact> 0.29120836E+00</totfact>
</mgrwt>
</event>
<event>
 4    1  0.3712574E-007  0.1048282E+04  0.7818608E-02  0.9320950E-01
          1   -1    0    0  501    0  0.00000000000E+00  0.00000000000E+00  0.67884475667E+03  0.67884475669E+03  0.50400000000E-02 0. -1.
         -1   -1    0    0    0  501 -0.00000000000E+00 -0.00000000000E+00 -0.15650194512E+04  0.15650194512E+04  0.50400000000E-02 0.  1.
    8880023    1    1    2    0    0  0.40544394910E+03 -0.70760151522E+03 -0.94592158663E+03  0.14119711592E+04  0.65864270000E+03 0.  0.
    8880022    1    1    2    0    0 -0.40544394910E+03  0.70760151522E+03  0.59746892140E+02  0.83189304862E+03  0.15294330000E+03 0.  0.
<mgrwt>
<rscale>  0 0.98876865E+03</rscale>
<asrwt>0</asrwt>
<pdfrwt beam="1">  1        1 0.10443766E+00 0.10482819E+04</pdfrwt>
<pdfrwt beam="2">  1       -1 0.24077222E+00 0.10482819E+04</pdfrwt>
<totfact> 0.22900067E+00</totfact>
</mgrwt>
</event>
<event>
 4    1  0.3712574E-007  0.6645876E+03  0.7818608E-02  0.1019882E+00
         -1   -1    0    0    0  501 -0.00000000000E+00  0.00000000000E+00  0.26251857581E+03  0.26251857585E+03  0.50400000000E-02 0.  1.
          1   -1    0    0  501    0  0.00000000000E+00 -0.00000000000E+00 -0.13303919758E+04  0.13303919758E+04  0.50400000000E-02 0. -1.
    8880023    1    1    2    0    0  0.81279027750E+02 -0.35498385547E+02 -0.18128995127E+03  0.68887057451E+03  0.65864270000E+03 0.  1.
    8880022    1    1    2    0    0 -0.81279027750E+02  0.35498385547E+02 -0.88658344871E+03  0.90403997715E+03  0.15294330000E+03 0.  0.
<mgrwt>
<rscale>  0 0.47729229E+03</rscale>
<asrwt>0</asrwt>
<pdfrwt beam="1">  1        1 0.20467568E+00 0.66458756E+03</pdfrwt>
<pdfrwt beam="2">  1       -1 0.40387474E-01 0.66458756E+03</pdfrwt>
<totfact> 0.53339871E+01</totfact>
</mgrwt>
</event>
<event>
 4    1  0.3712574E-007  0.9856300E+03  0.7818608E-02  0.9400604E-01
          1   -1    0    0  501    0  0.00000000000E+00  0.00000000000E+00  0.18507452149E+04  0.18507452149E+04  0.50400000000E-02 0. -1.
         -1   -1    0    0    0  501 -0.00000000000E+00 -0.00000000000E+00 -0.48099429713E+03  0.48099429716E+03  0.50400000000E-02 0.  1.
    8880023    1    1    2    0    0  0.73232809280E+03 -0.36768564071E+02  0.12191208184E+04  0.15677123903E+04  0.65864270000E+03 0.  0.
    8880022    1    1    2    0    0 -0.73232809280E+03  0.36768564071E+02  0.15063009935E+03  0.76402712167E+03  0.15294330000E+03 0.  0.
<mgrwt>
<rscale>  0 0.92025980E+03</rscale>
<asrwt>0</asrwt>
<pdfrwt beam="1">  1        1 0.28473004E+00 0.98563004E+03</pdfrwt>
<pdfrwt beam="2">  1       -1 0.73999121E-01 0.98563004E+03</pdfrwt>
<totfact> 0.69977949E+00</totfact>
</mgrwt>
</event>
<event>
 4    1  0.3712574E-007  0.8156291E+03  0.7818608E-02  0.9677969E-01
          1   -1    0    0  501    0  0.00000000000E+00  0.00000000000E+00  0.53444968302E+03  0.53444968304E+03  0.50400000000E-02 0. -1.
         -1   -1    0    0    0  501 -0.00000000000E+00 -0.00000000000E+00 -0.12354606089E+04  0.12354606089E+04  0.50400000000E-02 0.  1.
    8880023    1    1    2    0    0 -0.44309733209E+03 -0.18736413172E+03 -0.91135006997E+03  0.12230330003E+04  0.65864270000E+03 0.  1.
    8880022    1    1    2    0    0  0.44309733209E+03  0.18736413172E+03  0.21033914409E+03  0.54687729164E+03  0.15294330000E+03 0.  0.
<mgrwt>
<rscale>  0 0.72343799E+03</rscale>
<asrwt>0</asrwt>
<pdfrwt beam="1">  1        1 0.82223028E-01 0.81562906E+03</pdfrwt>
<pdfrwt beam="2">  1       -1 0.19007086E+00 0.81562906E+03</pdfrwt>
<totfact> 0.73035764E+00</totfact>
</mgrwt>
</event>
<event>
 4    1  0.3712574E-007  0.8070028E+03  0.7818608E-02  0.9695854E-01
         -1   -1    0    0    0  501 -0.00000000000E+00  0.00000000000E+00  0.15687771520E+04  0.15687771520E+04  0.50400000000E-02 0.  1.
          1   -1    0    0  501    0  0.00000000000E+00 -0.00000000000E+00 -0.30251939004E+03  0.30251939009E+03  0.50400000000E-02 0. -1.
    8880023    1    1    2    0    0  0.13346705876E+03  0.44679948337E+03  0.46412164667E+03  0.93094701422E+03  0.65864270000E+03 0. -1.
    8880022    1    1    2    0    0 -0.13346705876E+03 -0.44679948337E+03  0.80213611527E+03  0.94034952786E+03  0.15294330000E+03 0.  0.
<mgrwt>
<rscale>  0 0.71264163E+03</rscale>
<asrwt>0</asrwt>
<pdfrwt beam="1">  1        1 0.46541445E-01 0.80700275E+03</pdfrwt>
<pdfrwt beam="2">  1       -1 0.24135033E+00 0.80700275E+03</pdfrwt>
<totfact> 0.70882145E+00</totfact>
</mgrwt>
</event>
<event>
 4    1  0.3712574E-007  0.6735971E+03  0.7818608E-02  0.1013206E+00
         -1   -1    0    0    0  501 -0.00000000000E+00  0.00000000000E+00  0.69020606653E+03  0.69020606655E+03  0.50400000000E-02 0.  1.
          1   -1    0    0  501    0  0.00000000000E+00 -0.00000000000E+00 -0.94718629796E+03  0.94718629797E+03  0.50400000000E-02 0. -1.
    8880023    1    1    2    0    0  0.11631307390E+03 -0.79963021257E+02  0.50859081793E+03  0.84403651715E+03  0.65864270000E+03 0.  1.
    8880022    1    1    2    0    0 -0.11631307390E+03  0.79963021257E+02 -0.76557104936E+03  0.79335584737E+03  0.15294330000E+03 0.  0.
<mgrwt>
<rscale>  0 0.50220296E+03</rscale>
<asrwt>0</asrwt>
<pdfrwt beam="1">  1        1 0.14572097E+00 0.67359708E+03</pdfrwt>
<pdfrwt beam="2">  1       -1 0.10618555E+00 0.67359708E+03</pdfrwt>
<totfact> 0.14384720E+01</totfact>
</mgrwt>
</event>
<event>
 4    1  0.3712574E-007  0.6695845E+03  0.7818608E-02  0.1015963E+00
         -1   -1    0    0    0  501 -0.00000000000E+00  0.00000000000E+00  0.30176164063E+03  0.30176164067E+03  0.50400000000E-02 0.  1.
          1   -1    0    0  501    0  0.00000000000E+00 -0.00000000000E+00 -0.11032825751E+04  0.11032825751E+04  0.50400000000E-02 0. -1.
    8880023    1    1    2    0    0  0.96058961879E+02 -0.72841185053E+02 -0.10001978956E+03  0.67701353529E+03  0.65864270000E+03 0.  1.
    8880022    1    1    2    0    0 -0.96058961879E+02  0.72841185053E+02 -0.70150114487E+03  0.72803068044E+03  0.15294330000E+03 0.  0.
<mgrwt>
<rscale>  0 0.49172180E+03</rscale>
<asrwt>0</asrwt>
<pdfrwt beam="1">  1        1 0.16973578E+00 0.66958447E+03</pdfrwt>
<pdfrwt beam="2">  1       -1 0.46424868E-01 0.66958447E+03</pdfrwt>
<totfact> 0.60096831E+01</totfact>
</mgrwt>
</event>
<event>
 4    1  0.3712574E-007  0.6732526E+03  0.7818608E-02  0.1013431E+00
         -1   -1    0    0    0  501 -0.00000000000E+00  0.00000000000E+00  0.53450415461E+03  0.53450415463E+03  0.50400000000E-02 0.  1.
          1   -1    0    0  501    0  0.00000000000E+00 -0.00000000000E+00 -0.37414384399E+03  0.37414384402E+03  0.50400000000E-02 0. -1.
    8880023    1    1    2    0    0 -0.25711860760E+02 -0.13710506714E+03  0.18996086896E+03  0.69953858880E+03  0.65864270000E+03 0.  0.
    8880022    1    1    2    0    0  0.25711860760E+02  0.13710506714E+03 -0.29600558343E+02  0.20910940985E+03  0.15294330000E+03 0. -1.
<mgrwt>
<rscale>  0 0.50133508E+03</rscale>
<asrwt>0</asrwt>
<pdfrwt beam="1">  1        1 0.57560592E-01 0.67325263E+03</pdfrwt>
<pdfrwt beam="2">  1       -1 0.82231408E-01 0.67325263E+03</pdfrwt>
<totfact> 0.98606878E+01</totfact>
</mgrwt>
</event>
<event>
 4    1  0.3712574E-007  0.7013307E+03  0.7818608E-02  0.9991725E-01
          1   -1    0    0  501    0  0.00000000000E+00  0.00000000000E+00  0.41464694007E+03  0.41464694010E+03  0.50400000000E-02 0. -1.
         -1   -1    0    0    0  501 -0.00000000000E+00 -0.00000000000E+00 -0.91205099210E+03  0.91205099212E+03  0.50400000000E-02 0.  1.
    8880023    1    1    2    0    0 -0.11050715987E+03 -0.21410895336E+03 -0.68884898394E+03  0.98304506775E+03  0.65864270000E+03 0.  1.
    8880022    1    1    2    0    0  0.11050715987E+03  0.21410895336E+03  0.19144493190E+03  0.34365286447E+03  0.15294330000E+03 0.  0.
<mgrwt>
<rscale>  0 0.56014559E+03</rscale>
<asrwt>0</asrwt>
<pdfrwt beam="1">  1        1 0.63791837E-01 0.70133065E+03</pdfrwt>
<pdfrwt beam="2">  1       -1 0.14031554E+00 0.70133065E+03</pdfrwt>
<totfact> 0.24535283E+01</totfact>
</mgrwt>
</event>
<event>
 4    1  0.3712574E-007  0.1074063E+04  0.7818608E-02  0.9290498E-01
          1   -1    0    0  501    0  0.00000000000E+00  0.00000000000E+00  0.96176699071E+03  0.96176699073E+03  0.50400000000E-02 0. -1.
         -1   -1    0    0    0  501 -0.00000000000E+00 -0.00000000000E+00 -0.13613248497E+04  0.13613248497E+04  0.50400000000E-02 0.  1.
    8880023    1    1    2    0    0  0.51418956986E+03 -0.67484116682E+03 -0.83200757112E+03  0.13586200053E+04  0.65864270000E+03 0.  1.
    8880022    1    1    2    0    0 -0.51418956986E+03  0.67484116682E+03  0.43244971214E+03  0.96447183511E+03  0.15294330000E+03 0.  0.
<mgrwt>
<rscale>  0 0.10166234E+04</rscale>
<asrwt>0</asrwt>
<pdfrwt beam="1">  1        1 0.14796415E+00 0.10740632E+04</pdfrwt>
<pdfrwt beam="2">  1       -1 0.20943459E+00 0.10740632E+04</pdfrwt>
<totfact> 0.20942494E+00</totfact>
</mgrwt>
</event>
<event>
 4    1  0.3712574E-007  0.6703387E+03  0.7818608E-02  0.1015421E+00
          1   -1    0    0  501    0  0.00000000000E+00  0.00000000000E+00  0.54282549185E+03  0.54282549187E+03  0.50400000000E-02 0. -1.
         -1   -1    0    0    0  501 -0.00000000000E+00 -0.00000000000E+00 -0.65579796418E+03  0.65579796420E+03  0.50400000000E-02 0.  1.
    8880023    1    1    2    0    0 -0.61689936905E+02 -0.10834256454E+03 -0.45049751867E+03  0.80765214059E+03  0.65864270000E+03 0.  1.
    8880022    1    1    2    0    0  0.61689936905E+02  0.10834256454E+03  0.33752504634E+03  0.39097131548E+03  0.15294330000E+03 0.  0.
<mgrwt>
<rscale>  0 0.49375762E+03</rscale>
<asrwt>0</asrwt>
<pdfrwt beam="1">  1        1 0.83511614E-01 0.67033869E+03</pdfrwt>
<pdfrwt beam="2">  1       -1 0.10089199E+00 0.67033869E+03</pdfrwt>
<totfact> 0.38044458E+01</totfact>
</mgrwt>
</event>
<event>
 4    1  0.3712574E-007  0.8647174E+03  0.7818608E-02  0.9585227E-01
          1   -1    0    0  501    0  0.00000000000E+00  0.00000000000E+00  0.14543089726E+04  0.14543089726E+04  0.50400000000E-02 0. -1.
         -1   -1    0    0    0  501 -0.00000000000E+00 -0.00000000000E+00 -0.85797973802E+03  0.85797973804E+03  0.50400000000E-02 0.  1.
    8880023    1    1    2    0    0 -0.76346771996E+02  0.55506493059E+03 -0.55168939575E+03  0.10257179449E+04  0.65864270000E+03 0.  0.
    8880022    1    1    2    0    0  0.76346771996E+02 -0.55506493059E+03  0.11480186303E+04  0.12865707658E+04  0.15294330000E+03 0.  0.
<mgrwt>
<rscale>  0 0.78281746E+03</rscale>
<asrwt>0</asrwt>
<pdfrwt beam="1">  1        1 0.22373984E+00 0.86471736E+03</pdfrwt>
<pdfrwt beam="2">  1       -1 0.13199688E+00 0.86471736E+03</pdfrwt>
<totfact> 0.35163728E+00</totfact>
</mgrwt>
</event>
<event>
 4    1  0.3712574E-007  0.8063497E+03  0.7818608E-02  0.9697231E-01
         -1   -1    0    0    0  501 -0.00000000000E+00  0.00000000000E+00  0.95409503754E+03  0.95409503756E+03  0.50400000000E-02 0.  1.
          1   -1    0    0  501    0  0.00000000000E+00 -0.00000000000E+00 -0.48940113627E+03  0.48940113630E+03  0.50400000000E-02 0. -1.
    8880023    1    1    2    0    0  0.44894937186E+03 -0.12179529474E+03  0.60614078381E+02  0.80862469977E+03  0.65864270000E+03 0.  0.
    8880022    1    1    2    0    0 -0.44894937186E+03  0.12179529474E+03  0.40407982289E+03  0.63487147408E+03  0.15294330000E+03 0.  0.
<mgrwt>
<rscale>  0 0.71181885E+03</rscale>
<asrwt>0</asrwt>
<pdfrwt beam="1">  1        1 0.75292484E-01 0.80634970E+03</pdfrwt>
<pdfrwt beam="2">  1       -1 0.14678385E+00 0.80634970E+03</pdfrwt>
<totfact> 0.17234077E+01</totfact>
</mgrwt>
</event>
<event>
 4    1  0.3712574E-007  0.7198739E+03  0.7818608E-02  0.9923013E-01
          1   -1    0    0  501    0  0.00000000000E+00  0.00000000000E+00  0.36900857131E+03  0.36900857135E+03  0.50400000000E-02 0. -1.
         -1   -1    0    0    0  501 -0.00000000000E+00 -0.00000000000E+00 -0.12477362198E+04  0.12477362198E+04  0.50400000000E-02 0.  1.
    8880023    1    1    2    0    0 -0.21143307439E+03  0.19925930929E+03 -0.10288790136E+04  0.12557111324E+04  0.65864270000E+03 0.  1.
    8880022    1    1    2    0    0  0.21143307439E+03 -0.19925930929E+03  0.15015136508E+03  0.36103365873E+03  0.15294330000E+03 0.  0.
<mgrwt>
<rscale>  0 0.59158833E+03</rscale>
<asrwt>0</asrwt>
<pdfrwt beam="1">  1        1 0.56770550E-01 0.71987389E+03</pdfrwt>
<pdfrwt beam="2">  1       -1 0.19195942E+00 0.71987389E+03</pdfrwt>
<totfact> 0.11818008E+01</totfact>
</mgrwt>
</event>
<event>
 4    1  0.3712574E-007  0.7799253E+03  0.7818608E-02  0.9756012E-01
          1   -1    0    0  501    0  0.00000000000E+00  0.00000000000E+00  0.80248440934E+03  0.80248440936E+03  0.50400000000E-02 0. -1.
         -1   -1    0    0    0  501 -0.00000000000E+00 -0.00000000000E+00 -0.12189154360E+04  0.12189154360E+04  0.50400000000E-02 0.  1.
    8880023    1    1    2    0    0 -0.34389516764E+03 -0.23708523764E+03 -0.10122424064E+04  0.12778568745E+04  0.65864270000E+03 0.  0.
    8880022    1    1    2    0    0  0.34389516764E+03  0.23708523764E+03  0.59581137974E+03  0.74354297083E+03  0.15294330000E+03 0.  0.
<mgrwt>
<rscale>  0 0.67777551E+03</rscale>
<asrwt>0</asrwt>
<pdfrwt beam="1">  1        1 0.12345914E+00 0.77992532E+03</pdfrwt>
<pdfrwt beam="2">  1       -1 0.18752545E+00 0.77992532E+03</pdfrwt>
<totfact> 0.41784704E+00</totfact>
</mgrwt>
</event>
<event>
 4    1  0.3712574E-007  0.7538955E+03  0.7818608E-02  0.9821176E-01
          1   -1    0    0  501    0  0.00000000000E+00  0.00000000000E+00  0.24871392942E+04  0.24871392942E+04  0.50400000000E-02 0. -1.
         -1   -1    0    0    0  501 -0.00000000000E+00 -0.00000000000E+00 -0.21728402642E+03  0.21728402648E+03  0.50400000000E-02 0.  1.
    8880023    1    1    2    0    0  0.55198673385E+02  0.36263106237E+03  0.53451120185E+03  0.92415399805E+03  0.65864270000E+03 0.  1.
    8880022    1    1    2    0    0 -0.55198673385E+02 -0.36263106237E+03  0.17353440659E+04  0.17802693226E+04  0.15294330000E+03 0.  0.
<mgrwt>
<rscale>  0 0.64238414E+03</rscale>
<asrwt>0</asrwt>
<pdfrwt beam="1">  1        1 0.38263683E+00 0.75389547E+03</pdfrwt>
<pdfrwt beam="2">  1       -1 0.33428310E-01 0.75389547E+03</pdfrwt>
<totfact> 0.12244042E+01</totfact>
</mgrwt>
</event>
<event>
 4    1  0.3712574E-007  0.6614746E+03  0.7818608E-02  0.1022694E+00
          1   -1    0    0  501    0  0.00000000000E+00  0.00000000000E+00  0.17516309469E+04  0.17516309469E+04  0.50400000000E-02 0. -1.
         -1   -1    0    0    0  501 -0.00000000000E+00 -0.00000000000E+00 -0.20839956111E+03  0.20839956117E+03  0.50400000000E-02 0.  1.
    8880023    1    1    2    0    0 -0.38671236593E+02  0.47360029310E+02  0.33656753224E+03  0.74217676259E+03  0.65864270000E+03 0.  1.
    8880022    1    1    2    0    0  0.38671236593E+02 -0.47360029310E+02  0.12066638535E+04  0.12178537454E+04  0.15294330000E+03 0.  0.
<mgrwt>
<rscale>  0 0.46726826E+03</rscale>
<asrwt>0</asrwt>
<pdfrwt beam="1">  1        1 0.26948169E+00 0.66147460E+03</pdfrwt>
<pdfrwt beam="2">  1       -1 0.32061471E-01 0.66147460E+03</pdfrwt>
<totfact> 0.41618862E+01</totfact>
</mgrwt>
</event>
<event>
 4    1  0.3712574E-007  0.6871374E+03  0.7818608E-02  0.1005544E+00
          1   -1    0    0  501    0  0.00000000000E+00  0.00000000000E+00  0.26230705811E+04  0.26230705811E+04  0.50400000000E-02 0. -1.
         -1   -1    0    0    0  501 -0.00000000000E+00 -0.00000000000E+00 -0.10251883487E+03  0.10251883500E+03  0.50400000000E-02 0.  1.
    8880023    1    1    2    0    0 -0.48008025804E+02 -0.18984937494E+03  0.12082655986E+04  0.13899868772E+04  0.65864270000E+03 0.  1.
    8880022    1    1    2    0    0  0.48008025804E+02  0.18984937494E+03  0.13122861476E+04  0.13356025389E+04  0.15294330000E+03 0.  0.
<mgrwt>
<rscale>  0 0.53284735E+03</rscale>
<asrwt>0</asrwt>
<pdfrwt beam="1">  1        1 0.40354932E+00 0.68713737E+03</pdfrwt>
<pdfrwt beam="2">  1       -1 0.15772128E-01 0.68713737E+03</pdfrwt>
<totfact> 0.35585177E+01</totfact>
</mgrwt>
</event>
<event>
 4    1  0.3712574E-007  0.6875165E+03  0.7818608E-02  0.1005356E+00
          1   -1    0    0  501    0  0.00000000000E+00  0.00000000000E+00  0.43871821524E+03  0.43871821527E+03  0.50400000000E-02 0. -1.
         -1   -1    0    0    0  501 -0.00000000000E+00 -0.00000000000E+00 -0.54599914597E+03  0.54599914599E+03  0.50400000000E-02 0.  1.
    8880023    1    1    2    0    0  0.19193486035E+03 -0.45052963216E+02 -0.20394420524E+03  0.71712774680E+03  0.65864270000E+03 0.  0.
    8880022    1    1    2    0    0 -0.19193486035E+03  0.45052963216E+02  0.96663274508E+02  0.26758961446E+03  0.15294330000E+03 0.  0.
<mgrwt>
<rscale>  0 0.53362830E+03</rscale>
<asrwt>0</asrwt>
<pdfrwt beam="1">  1        1 0.67495110E-01 0.68751652E+03</pdfrwt>
<pdfrwt beam="2">  1       -1 0.83999869E-01 0.68751652E+03</pdfrwt>
<totfact> 0.76209423E+01</totfact>
</mgrwt>
</event>
<event>
 4    1  0.3712574E-007  0.7332232E+03  0.7818608E-02  0.9880146E-01
          1   -1    0    0  501    0  0.00000000000E+00  0.00000000000E+00  0.15976826237E+04  0.15976826237E+04  0.50400000000E-02 0. -1.
         -1   -1    0    0    0  501 -0.00000000000E+00 -0.00000000000E+00 -0.58194251657E+03  0.58194251659E+03  0.50400000000E-02 0.  1.
    8880023    1    1    2    0    0 -0.12410080036E+03 -0.29732990545E+03 -0.31786170444E+03  0.79915727535E+03  0.65864270000E+03 0.  1.
    8880022    1    1    2    0    0  0.12410080036E+03  0.29732990545E+03  0.13336018116E+04  0.13804678650E+04  0.15294330000E+03 0.  0.
<mgrwt>
<rscale>  0 0.61233217E+03</rscale>
<asrwt>0</asrwt>
<pdfrwt beam="1">  1        1 0.24579733E+00 0.73322322E+03</pdfrwt>
<pdfrwt beam="2">  1       -1 0.89529617E-01 0.73322322E+03</pdfrwt>
<totfact> 0.71476431E+00</totfact>
</mgrwt>
</event>
<event>
 4    1  0.3712574E-007  0.1006569E+04  0.7818608E-02  0.9373013E-01
         -1   -1    0    0    0  501 -0.00000000000E+00  0.00000000000E+00  0.55490936865E+03  0.55490936867E+03  0.50400000000E-02 0.  1.
          1   -1    0    0  501    0  0.00000000000E+00 -0.00000000000E+00 -0.17008018010E+04  0.17008018011E+04  0.50400000000E-02 0. -1.
    8880023    1    1    2    0    0  0.72289415312E+03  0.23831691745E+03 -0.19015700128E+03  0.10243733700E+04  0.65864270000E+03 0.  1.
    8880022    1    1    2    0    0 -0.72289415312E+03 -0.23831691745E+03 -0.95573543111E+03  0.12313377997E+04  0.15294330000E+03 0. -1.
<mgrwt>
<rscale>  0 0.94330240E+03</rscale>
<asrwt>0</asrwt>
<pdfrwt beam="1">  1        1 0.26166181E+00 0.10065690E+04</pdfrwt>
<pdfrwt beam="2">  1       -1 0.85370673E-01 0.10065690E+04</pdfrwt>
<totfact> 0.65003925E+00</totfact>
</mgrwt>
</event>
<event>
 4    1  0.3712574E-007  0.1163268E+04  0.7818608E-02  0.9193683E-01
         -1   -1    0    0    0  501 -0.00000000000E+00  0.00000000000E+00  0.48597569939E+03  0.48597569941E+03  0.50400000000E-02 0.  1.
          1   -1    0    0  501    0  0.00000000000E+00 -0.00000000000E+00 -0.30980949499E+04  0.30980949499E+04  0.50400000000E-02 0. -1.
    8880023    1    1    2    0    0  0.24505141023E+03 -0.92700104819E+03 -0.51319358160E+03  0.12714397333E+04  0.65864270000E+03 0.  0.
    8880022    1    1    2    0    0 -0.24505141023E+03  0.92700104819E+03 -0.20989256689E+04  0.23126309160E+04  0.15294330000E+03 0.  0.
<mgrwt>
<rscale>  0 0.11118868E+04</rscale>
<asrwt>0</asrwt>
<pdfrwt beam="1">  1        1 0.47662998E+00 0.11632675E+04</pdfrwt>
<pdfrwt beam="2">  1       -1 0.74765494E-01 0.11632675E+04</pdfrwt>
<totfact> 0.91571721E-01</totfact>
</mgrwt>
</event>
<event>
 4    1  0.3712574E-007  0.1589377E+04  0.7818608E-02  0.8848973E-01
          1   -1    0    0  501    0  0.00000000000E+00  0.00000000000E+00  0.14067624156E+04  0.14067624156E+04  0.50400000000E-02 0. -1.
         -1   -1    0    0    0  501 -0.00000000000E+00 -0.00000000000E+00 -0.17600117322E+04  0.17600117322E+04  0.50400000000E-02 0.  1.
    8880023    1    1    2    0    0  0.11916476148E+04 -0.81993022135E+03  0.21763585921E+03  0.16042085835E+04  0.65864270000E+03 0.  0.
    8880022    1    1    2    0    0 -0.11916476148E+04  0.81993022135E+03 -0.57088517581E+03  0.15625655643E+04  0.15294330000E+03 0.  0.
<mgrwt>
<rscale>  0 0.15545404E+04</rscale>
<asrwt>0</asrwt>
<pdfrwt beam="1">  1        1 0.21642499E+00 0.15893772E+04</pdfrwt>
<pdfrwt beam="2">  1       -1 0.27077104E+00 0.15893772E+04</pdfrwt>
<totfact> 0.36385775E-01</totfact>
</mgrwt>
</event>
<event>
 4    1  0.3712574E-007  0.7852747E+03  0.7818608E-02  0.9743589E-01
          1   -1    0    0  501    0  0.00000000000E+00  0.00000000000E+00  0.12325492076E+04  0.12325492076E+04  0.50400000000E-02 0. -1.
         -1   -1    0    0    0  501 -0.00000000000E+00 -0.00000000000E+00 -0.91628325552E+03  0.91628325553E+03  0.50400000000E-02 0.  1.
    8880023    1    1    2    0    0  0.42693139754E+03  0.23993873904E+02 -0.68967278089E+03  0.10451339030E+04  0.65864270000E+03 0.  1.
    8880022    1    1    2    0    0 -0.42693139754E+03 -0.23993873904E+02  0.10059387330E+04  0.11036985601E+04  0.15294330000E+03 0.  0.
<mgrwt>
<rscale>  0 0.68479759E+03</rscale>
<asrwt>0</asrwt>
<pdfrwt beam="1">  1        1 0.18962296E+00 0.78527468E+03</pdfrwt>
<pdfrwt beam="2">  1       -1 0.14096665E+00 0.78527468E+03</pdfrwt>
<totfact> 0.43047930E+00</totfact>
</mgrwt>
</event>
<event>
 4    1  0.3712574E-007  0.6960599E+03  0.7818608E-02  0.1001396E+00
         -1   -1    0    0    0  501 -0.00000000000E+00  0.00000000000E+00  0.67764703003E+03  0.67764703005E+03  0.50400000000E-02 0.  1.
          1   -1    0    0  501    0  0.00000000000E+00 -0.00000000000E+00 -0.94623731047E+03  0.94623731049E+03  0.50400000000E-02 0. -1.
    8880023    1    1    2    0    0 -0.82752891847E+02 -0.20938268711E+03  0.46790187535E+03  0.83870824605E+03  0.65864270000E+03 0.  0.
    8880022    1    1    2    0    0  0.82752891847E+02  0.20938268711E+03 -0.73649215580E+03  0.78517609448E+03  0.15294330000E+03 0.  0.
<mgrwt>
<rscale>  0 0.55042501E+03</rscale>
<asrwt>0</asrwt>
<pdfrwt beam="1">  1        1 0.14557497E+00 0.69605988E+03</pdfrwt>
<pdfrwt beam="2">  1       -1 0.10425339E+00 0.69605988E+03</pdfrwt>
<totfact> 0.14989128E+01</totfact>
</mgrwt>
</event>
<event>
 4    1  0.3712574E-007  0.6641458E+03  0.7818608E-02  0.1020261E+00
         -1   -1    0    0    0  501 -0.00000000000E+00  0.00000000000E+00  0.10719638064E+03  0.10719638076E+03  0.50400000000E-02 0.  1.
          1   -1    0    0  501    0  0.00000000000E+00 -0.00000000000E+00 -0.16456806044E+04  0.16456806044E+04  0.50400000000E-02 0. -1.
    8880023    1    1    2    0    0  0.66958816909E+02  0.52877387820E+02 -0.11865736505E+04  0.13597965787E+04  0.65864270000E+03 0.  0.
    8880022    1    1    2    0    0 -0.66958816909E+02 -0.52877387820E+02 -0.35191057326E+03  0.39308040640E+03  0.15294330000E+03 0. -1.
<mgrwt>
<rscale>  0 0.47592538E+03</rscale>
<asrwt>0</asrwt>
<pdfrwt beam="1">  1        1 0.25318161E+00 0.66414585E+03</pdfrwt>
<pdfrwt beam="2">  1       -1 0.16491752E-01 0.66414585E+03</pdfrwt>
<totfact> 0.15062052E+02</totfact>
</mgrwt>
</event>
<event>
 4    1  0.3712574E-007  0.6776843E+03  0.7818608E-02  0.1010665E+00
          1   -1    0    0  501    0  0.00000000000E+00  0.00000000000E+00  0.78559624495E+03  0.78559624497E+03  0.50400000000E-02 0. -1.
         -1   -1    0    0    0  501 -0.00000000000E+00 -0.00000000000E+00 -0.50274540387E+03  0.50274540389E+03  0.50400000000E-02 0.  1.
    8880023    1    1    2    0    0  0.15257125284E+03  0.46559416323E+02 -0.24141630297E+03  0.71940100364E+03  0.65864270000E+03 0.  0.
    8880022    1    1    2    0    0 -0.15257125284E+03 -0.46559416323E+02  0.52426714405E+03  0.56894064522E+03  0.15294330000E+03 0.  0.
<mgrwt>
<rscale>  0 0.51211164E+03</rscale>
<asrwt>0</asrwt>
<pdfrwt beam="1">  1        1 0.12086096E+00 0.67768427E+03</pdfrwt>
<pdfrwt beam="2">  1       -1 0.77345447E-01 0.67768427E+03</pdfrwt>
<totfact> 0.39357382E+01</totfact>
</mgrwt>
</event>
<event>
 4    1  0.3712574E-007  0.7091140E+03  0.7818608E-02  0.9961306E-01
          1   -1    0    0  501    0  0.00000000000E+00  0.00000000000E+00  0.68622002096E+03  0.68622002098E+03  0.50400000000E-02 0. -1.
         -1   -1    0    0    0  501 -0.00000000000E+00 -0.00000000000E+00 -0.55330418185E+03  0.55330418187E+03  0.50400000000E-02 0.  1.
    8880023    1    1    2    0    0  0.15230495625E+03 -0.21409248703E+03 -0.24883858452E+03  0.75150731208E+03  0.65864270000E+03 0.  1.
    8880022    1    1    2    0    0 -0.15230495625E+03  0.21409248703E+03  0.38175442363E+03  0.48801689077E+03  0.15294330000E+03 0.  0.
<mgrwt>
<rscale>  0 0.57379947E+03</rscale>
<asrwt>0</asrwt>
<pdfrwt beam="1">  1        1 0.10557231E+00 0.70911395E+03</pdfrwt>
<pdfrwt beam="2">  1       -1 0.85123721E-01 0.70911395E+03</pdfrwt>
<totfact> 0.39379510E+01</totfact>
</mgrwt>
</event>
<event>
 4    1  0.3712574E-007  0.7480437E+03  0.7818608E-02  0.9837107E-01
         -1   -1    0    0    0  501 -0.00000000000E+00  0.00000000000E+00  0.61518153610E+03  0.61518153612E+03  0.50400000000E-02 0.  1.
          1   -1    0    0  501    0  0.00000000000E+00 -0.00000000000E+00 -0.25968819151E+04  0.25968819151E+04  0.50400000000E-02 0. -1.
    8880023    1    1    2    0    0 -0.31936584753E+03 -0.15415766286E+03  0.36601972476E+03  0.83279035463E+03  0.65864270000E+03 0.  1.
    8880022    1    1    2    0    0  0.31936584753E+03  0.15415766286E+03 -0.23477201038E+04  0.23792730966E+04  0.15294330000E+03 0.  0.
<mgrwt>
<rscale>  0 0.63408635E+03</rscale>
<asrwt>0</asrwt>
<pdfrwt beam="1">  1        1 0.39952029E+00 0.74804367E+03</pdfrwt>
<pdfrwt beam="2">  1       -1 0.94643315E-01 0.74804367E+03</pdfrwt>
<totfact> 0.13381489E+00</totfact>
</mgrwt>
</event>
<event>
 4    1  0.3712574E-007  0.7446902E+03  0.7818608E-02  0.9846490E-01
         -1   -1    0    0    0  501 -0.00000000000E+00  0.00000000000E+00  0.49562188606E+03  0.49562188609E+03  0.50400000000E-02 0.  1.
          1   -1    0    0  501    0  0.00000000000E+00 -0.00000000000E+00 -0.16641629254E+04  0.16641629254E+04  0.50400000000E-02 0. -1.
    8880023    1    1    2    0    0  0.21081126861E+03  0.27624603666E+03  0.17386938200E+03  0.76471826969E+03  0.65864270000E+03 0.  1.
    8880022    1    1    2    0    0 -0.21081126861E+03 -0.27624603666E+03 -0.13424104214E+04  0.13950665418E+04  0.15294330000E+03 0.  0.
<mgrwt>
<rscale>  0 0.62926219E+03</rscale>
<asrwt>0</asrwt>
<pdfrwt beam="1">  1        1 0.25602506E+00 0.74469018E+03</pdfrwt>
<pdfrwt beam="2">  1       -1 0.76249522E-01 0.74469018E+03</pdfrwt>
<totfact> 0.90753794E+00</totfact>
</mgrwt>
</event>
<event>
 4    1  0.3712574E-007  0.8682410E+03  0.7818608E-02  0.9579069E-01
          1   -1    0    0  501    0  0.00000000000E+00  0.00000000000E+00  0.99700251126E+03  0.99700251127E+03  0.50400000000E-02 0. -1.
         -1   -1    0    0    0  501 -0.00000000000E+00 -0.00000000000E+00 -0.64709426527E+03  0.64709426529E+03  0.50400000000E-02 0.  1.
    8880023    1    1    2    0    0 -0.55966585241E+02 -0.56293871231E+03 -0.14101367956E+03  0.87961771047E+03  0.65864270000E+03 0. -1.
    8880022    1    1    2    0    0  0.55966585241E+02  0.56293871231E+03  0.49092192555E+03  0.76447906609E+03  0.15294330000E+03 0.  0.
<mgrwt>
<rscale>  0 0.78697156E+03</rscale>
<asrwt>0</asrwt>
<pdfrwt beam="1">  1        1 0.15338500E+00 0.86824101E+03</pdfrwt>
<pdfrwt beam="2">  1       -1 0.99552965E-01 0.86824101E+03</pdfrwt>
<totfact> 0.14886309E+01</totfact>
</mgrwt>
</event>
<event>
 4    1  0.3712574E-007  0.9283899E+03  0.7818608E-02  0.9481913E-01
          1   -1    0    0  501    0  0.00000000000E+00  0.00000000000E+00  0.89524656594E+03  0.89524656596E+03  0.50400000000E-02 0. -1.
         -1   -1    0    0    0  501 -0.00000000000E+00 -0.00000000000E+00 -0.10449487329E+04  0.10449487329E+04  0.50400000000E-02 0.  1.
    8880023    1    1    2    0    0  0.62163328080E+03 -0.20413157769E+03 -0.62322650375E+03  0.11181766936E+04  0.65864270000E+03 0.  1.
    8880022    1    1    2    0    0 -0.62163328080E+03  0.20413157769E+03  0.47352433683E+03  0.82201860526E+03  0.15294330000E+03 0.  0.
<mgrwt>
<rscale>  0 0.85630552E+03</rscale>
<asrwt>0</asrwt>
<pdfrwt beam="1">  1        1 0.13773024E+00 0.92838992E+03</pdfrwt>
<pdfrwt beam="2">  1       -1 0.16076134E+00 0.92838992E+03</pdfrwt>
<totfact> 0.53529481E+00</totfact>
</mgrwt>
</event>
<event>
 4    1  0.3712574E-007  0.6800253E+03  0.7818608E-02  0.1009309E+00
          1   -1    0    0  501    0  0.00000000000E+00  0.00000000000E+00  0.13757021455E+04  0.13757021455E+04  0.50400000000E-02 0. -1.
         -1   -1    0    0    0  501 -0.00000000000E+00 -0.00000000000E+00 -0.32743773912E+03  0.32743773916E+03  0.50400000000E-02 0.  1.
    8880023    1    1    2    0    0 -0.16376160100E+03 -0.42501170551E+02  0.53010492684E+02  0.68208835942E+03  0.65864270000E+03 0.  1.
    8880022    1    1    2    0    0  0.16376160100E+03  0.42501170551E+02  0.99525391369E+03  0.10210515252E+04  0.15294330000E+03 0.  0.
<mgrwt>
<rscale>  0 0.51750051E+03</rscale>
<asrwt>0</asrwt>
<pdfrwt beam="1">  1        1 0.21164648E+00 0.68002531E+03</pdfrwt>
<pdfrwt beam="2">  1       -1 0.50375037E-01 0.68002531E+03</pdfrwt>
<totfact> 0.32856126E+01</totfact>
</mgrwt>
</event>
<event>
 4    1  0.3712574E-007  0.7514567E+03  0.7818608E-02  0.9827749E-01
         -1   -1    0    0    0  501 -0.00000000000E+00  0.00000000000E+00  0.48297130115E+03  0.48297130118E+03  0.50400000000E-02 0.  1.
          1   -1    0    0  501    0  0.00000000000E+00 -0.00000000000E+00 -0.82115669251E+03  0.82115669252E+03  0.50400000000E-02 0. -1.
    8880023    1    1    2    0    0  0.22373988301E+03  0.28428413428E+03  0.48411778577E+02  0.75301454888E+03  0.65864270000E+03 0.  0.
    8880022    1    1    2    0    0 -0.22373988301E+03 -0.28428413428E+03 -0.38659716993E+03  0.55111344483E+03  0.15294330000E+03 0.  0.
<mgrwt>
<rscale>  0 0.63894385E+03</rscale>
<asrwt>0</asrwt>
<pdfrwt beam="1">  1        1 0.12633180E+00 0.75145673E+03</pdfrwt>
<pdfrwt beam="2">  1       -1 0.74303277E-01 0.75145673E+03</pdfrwt>
<totfact> 0.39573480E+01</totfact>
</mgrwt>
</event>
<event>
 4    1  0.3712574E-007  0.6593597E+03  0.7818608E-02  0.1024822E+00
          1   -1    0    0  501    0  0.00000000000E+00  0.00000000000E+00  0.10819658330E+04  0.10819658330E+04  0.50400000000E-02 0. -1.
         -1   -1    0    0    0  501 -0.00000000000E+00 -0.00000000000E+00 -0.46074160148E+03  0.46074160151E+03  0.50400000000E-02 0.  1.
    8880023    1    1    2    0    0  0.29897926461E+02  0.71489482244E+01 -0.21386154114E+03  0.69317527258E+03  0.65864270000E+03 0.  1.
    8880022    1    1    2    0    0 -0.29897926461E+02 -0.71489482244E+01  0.83508577267E+03  0.84953216196E+03  0.15294330000E+03 0.  0.
<mgrwt>
<rscale>  0 0.45985868E+03</rscale>
<asrwt>0</asrwt>
<pdfrwt beam="1">  1        1 0.16645628E+00 0.65935969E+03</pdfrwt>
<pdfrwt beam="2">  1       -1 0.70883323E-01 0.65935969E+03</pdfrwt>
<totfact> 0.27354415E+01</totfact>
</mgrwt>
</event>
<event>
 4    1  0.3712574E-007  0.9432513E+03  0.7818608E-02  0.9459891E-01
         -1   -1    0    0    0  501 -0.00000000000E+00  0.00000000000E+00  0.10085584591E+04  0.10085584591E+04  0.50400000000E-02 0.  1.
          1   -1    0    0  501    0  0.00000000000E+00 -0.00000000000E+00 -0.10771014810E+04  0.10771014810E+04  0.50400000000E-02 0. -1.
    8880023    1    1    2    0    0 -0.71505368028E+02  0.67141622796E+03  0.60431872313E+03  0.11202339462E+04  0.65864270000E+03 0.  0.
    8880022    1    1    2    0    0  0.71505368028E+02 -0.67141622796E+03 -0.67286174500E+03  0.96542599391E+03  0.15294330000E+03 0.  0.
<mgrwt>
<rscale>  0 0.87306581E+03</rscale>
<asrwt>0</asrwt>
<pdfrwt beam="1">  1        1 0.16570792E+00 0.94325128E+03</pdfrwt>
<pdfrwt beam="2">  1       -1 0.15516284E+00 0.94325128E+03</pdfrwt>
<totfact> 0.42404625E+00</totfact>
</mgrwt>
</event>
<event>
 4    1  0.3712574E-007  0.9317434E+03  0.7818608E-02  0.9476883E-01
          1   -1    0    0  501    0  0.00000000000E+00  0.00000000000E+00  0.27697764529E+04  0.27697764530E+04  0.50400000000E-02 0. -1.
         -1   -1    0    0    0  501 -0.00000000000E+00 -0.00000000000E+00 -0.52828751466E+03  0.52828751468E+03  0.50400000000E-02 0.  1.
    8880023    1    1    2    0    0 -0.65821861395E+03  0.32920170154E+02 -0.25683584042E+02  0.93209727717E+03  0.65864270000E+03 0.  1.
    8880022    1    1    2    0    0  0.65821861395E+03 -0.32920170154E+02  0.22671725223E+04  0.23659666905E+04  0.15294330000E+03 0.  0.
<mgrwt>
<rscale>  0 0.86009825E+03</rscale>
<asrwt>0</asrwt>
<pdfrwt beam="1">  1        1 0.42611945E+00 0.93174336E+03</pdfrwt>
<pdfrwt beam="2">  1       -1 0.81275003E-01 0.93174336E+03</pdfrwt>
<totfact> 0.13670957E+00</totfact>
</mgrwt>
</event>
<event>
 4    1  0.3712574E-007  0.8004367E+03  0.7818608E-02  0.9709853E-01
         -1   -1    0    0    0  501 -0.00000000000E+00  0.00000000000E+00  0.72964725645E+03  0.72964725647E+03  0.50400000000E-02 0.  1.
          1   -1    0    0  501    0  0.00000000000E+00 -0.00000000000E+00 -0.78676427849E+03  0.78676427851E+03  0.50400000000E-02 0. -1.
    8880023    1    1    2    0    0  0.37384438650E+03  0.25909281103E+03  0.36273677901E+03  0.87879285793E+03  0.65864270000E+03 0.  1.
    8880022    1    1    2    0    0 -0.37384438650E+03 -0.25909281103E+03 -0.41985380105E+03  0.63761867704E+03  0.15294330000E+03 0.  0.
<mgrwt>
<rscale>  0 0.70433190E+03</rscale>
<asrwt>0</asrwt>
<pdfrwt beam="1">  1        1 0.12104066E+00 0.80043670E+03</pdfrwt>
<pdfrwt beam="2">  1       -1 0.11225342E+00 0.80043670E+03</pdfrwt>
<totfact> 0.16884360E+01</totfact>
</mgrwt>
</event>
<event>
 4    1  0.3712574E-007  0.7830746E+03  0.7818608E-02  0.9748664E-01
          1   -1    0    0  501    0  0.00000000000E+00  0.00000000000E+00  0.62292001798E+03  0.62292001800E+03  0.50400000000E-02 0. -1.
         -1   -1    0    0    0  501 -0.00000000000E+00 -0.00000000000E+00 -0.95673737055E+03  0.95673737056E+03  0.50400000000E-02 0.  1.
    8880023    1    1    2    0    0 -0.41965139261E+03 -0.57344387226E+02 -0.65959648674E+03  0.10238522362E+04  0.65864270000E+03 0.  1.
    8880022    1    1    2    0    0  0.41965139261E+03  0.57344387226E+02  0.32577913418E+03  0.55580515232E+03  0.15294330000E+03 0.  0.
<mgrwt>
<rscale>  0 0.68191849E+03</rscale>
<asrwt>0</asrwt>
<pdfrwt beam="1">  1        1 0.95833849E-01 0.78307463E+03</pdfrwt>
<pdfrwt beam="2">  1       -1 0.14719036E+00 0.78307463E+03</pdfrwt>
<totfact> 0.12204548E+01</totfact>
</mgrwt>
</event>
<event>
 4    1  0.3712574E-007  0.7123309E+03  0.7818608E-02  0.9949445E-01
         -1   -1    0    0    0  501 -0.00000000000E+00  0.00000000000E+00  0.98088732736E+03  0.98088732738E+03  0.50400000000E-02 0.  1.
          1   -1    0    0  501    0  0.00000000000E+00 -0.00000000000E+00 -0.63103535023E+03  0.63103535025E+03  0.50400000000E-02 0. -1.
    8880023    1    1    2    0    0 -0.20253394496E+03 -0.18051327077E+03  0.79576492006E+03  0.10680154746E+04  0.65864270000E+03 0. -1.
    8880022    1    1    2    0    0  0.20253394496E+03  0.18051327077E+03 -0.44591294293E+03  0.54390720300E+03  0.15294330000E+03 0.  0.
<mgrwt>
<rscale>  0 0.57923652E+03</rscale>
<asrwt>0</asrwt>
<pdfrwt beam="1">  1        1 0.97082362E-01 0.71233085E+03</pdfrwt>
<pdfrwt beam="2">  1       -1 0.15090574E+00 0.71233085E+03</pdfrwt>
<totfact> 0.11302485E+01</totfact>
</mgrwt>
</event>
<event>
 4    1  0.3712574E-007  0.1181309E+04  0.7818608E-02  0.9175509E-01
         -1   -1    0    0    0  501 -0.00000000000E+00  0.00000000000E+00  0.85039809613E+03  0.85039809615E+03  0.50400000000E-02 0.  1.
          1   -1    0    0  501    0  0.00000000000E+00 -0.00000000000E+00 -0.17107244974E+04  0.17107244974E+04  0.50400000000E-02 0. -1.
    8880023    1    1    2    0    0  0.68543384089E+03 -0.70132819948E+03  0.92956859218E+02  0.11849607494E+04  0.65864270000E+03 0.  0.
    8880022    1    1    2    0    0 -0.68543384089E+03  0.70132819948E+03 -0.95328326048E+03  0.13761618442E+04  0.15294330000E+03 0.  0.
<mgrwt>
<rscale>  0 0.11309832E+04</rscale>
<asrwt>0</asrwt>
<pdfrwt beam="1">  1        1 0.26318838E+00 0.11813090E+04</pdfrwt>
<pdfrwt beam="2">  1       -1 0.13083048E+00 0.11813090E+04</pdfrwt>
<totfact> 0.23027668E+00</totfact>
</mgrwt>
</event>
<event>
 4    1  0.3712574E-007  0.1131704E+04  0.7818608E-02  0.9226553E-01
         -1   -1    0    0    0  501 -0.00000000000E+00  0.00000000000E+00  0.85697081953E+03  0.85697081954E+03  0.50400000000E-02 0.  1.
          1   -1    0    0  501    0  0.00000000000E+00 -0.00000000000E+00 -0.18171397361E+04  0.18171397361E+04  0.50400000000E-02 0. -1.
    8880023    1    1    2    0    0  0.71478676161E+02  0.91751512579E+03  0.23711317483E+03  0.11562768142E+04  0.65864270000E+03 0.  1.
    8880022    1    1    2    0    0 -0.71478676161E+02 -0.91751512579E+03 -0.11972820914E+04  0.15178337415E+04  0.15294330000E+03 0.  0.
<mgrwt>
<rscale>  0 0.10783516E+04</rscale>
<asrwt>0</asrwt>
<pdfrwt beam="1">  1        1 0.27955996E+00 0.11317038E+04</pdfrwt>
<pdfrwt beam="2">  1       -1 0.13184167E+00 0.11317038E+04</pdfrwt>
<totfact> 0.19236125E+00</totfact>
</mgrwt>
</event>
<event>
 4    1  0.3712574E-007  0.8396026E+03  0.7818608E-02  0.9630930E-01
         -1   -1    0    0    0  501 -0.00000000000E+00  0.00000000000E+00  0.55104752516E+03  0.55104752518E+03  0.50400000000E-02 0.  1.
          1   -1    0    0  501    0  0.00000000000E+00 -0.00000000000E+00 -0.13070178292E+04  0.13070178292E+04  0.50400000000E-02 0. -1.
    8880023    1    1    2    0    0 -0.40709086951E+03 -0.32465258791E+03  0.98981637660E+02  0.84541696797E+03  0.65864270000E+03 0.  1.
    8880022    1    1    2    0    0  0.40709086951E+03  0.32465258791E+03 -0.85495194171E+03  0.10126483864E+04  0.15294330000E+03 0.  0.
<mgrwt>
<rscale>  0 0.75282417E+03</rscale>
<asrwt>0</asrwt>
<pdfrwt beam="1">  1        1 0.20107967E+00 0.83960258E+03</pdfrwt>
<pdfrwt beam="2">  1       -1 0.84776543E-01 0.83960258E+03</pdfrwt>
<totfact> 0.12590513E+01</totfact>
</mgrwt>
</event>
<event>
 4    1  0.3712574E-007  0.1100062E+04  0.7818608E-02  0.9260987E-01
         -1   -1    0    0    0  501 -0.00000000000E+00  0.00000000000E+00  0.83870782289E+03  0.83870782291E+03  0.50400000000E-02 0.  1.
          1   -1    0    0  501    0  0.00000000000E+00 -0.00000000000E+00 -0.14964830366E+04  0.14964830366E+04  0.50400000000E-02 0. -1.
    8880023    1    1    2    0    0  0.87899546232E+03 -0.60769041661E+02  0.17418565762E+03  0.11137669185E+04  0.65864270000E+03 0.  0.
    8880022    1    1    2    0    0 -0.87899546232E+03  0.60769041661E+02 -0.83196087135E+03  0.12214239410E+04  0.15294330000E+03 0.  0.
<mgrwt>
<rscale>  0 0.10445516E+04</rscale>
<asrwt>0</asrwt>
<pdfrwt beam="1">  1        1 0.23022816E+00 0.11000619E+04</pdfrwt>
<pdfrwt beam="2">  1       -1 0.12903197E+00 0.11000619E+04</pdfrwt>
<totfact> 0.33765903E+00</totfact>
</mgrwt>
</event>
<event>
 4    1  0.3712574E-007  0.7411139E+03  0.7818608E-02  0.9856714E-01
         -1   -1    0    0    0  501 -0.00000000000E+00  0.00000000000E+00  0.22881479581E+03  0.22881479587E+03  0.50400000000E-02 0.  1.
          1   -1    0    0  501    0  0.00000000000E+00 -0.00000000000E+00 -0.27722712365E+04  0.27722712365E+04  0.50400000000E-02 0. -1.
    8880023    1    1    2    0    0 -0.18865183387E+03 -0.28257763173E+03 -0.43371718031E+03  0.85869693789E+03  0.65864270000E+03 0.  1.
    8880022    1    1    2    0    0  0.18865183387E+03  0.28257763173E+03 -0.21097392604E+04  0.21423890945E+04  0.15294330000E+03 0.  0.
<mgrwt>
<rscale>  0 0.62405755E+03</rscale>
<asrwt>0</asrwt>
<pdfrwt beam="1">  1        1 0.42650324E+00 0.74111392E+03</pdfrwt>
<pdfrwt beam="2">  1       -1 0.35202278E-01 0.74111392E+03</pdfrwt>
<totfact> 0.71159134E+00</totfact>
</mgrwt>
</event>
<event>
 4    1  0.3712574E-007  0.1064841E+04  0.7818608E-02  0.9301249E-01
         -1   -1    0    0    0  501 -0.00000000000E+00  0.00000000000E+00  0.21309307641E+04  0.21309307641E+04  0.50400000000E-02 0.  1.
          1   -1    0    0  501    0  0.00000000000E+00 -0.00000000000E+00 -0.59506980566E+03  0.59506980568E+03  0.50400000000E-02 0. -1.
    8880023    1    1    2    0    0  0.37878170096E+03 -0.74605712697E+03  0.15437671055E+04  0.18753943308E+04  0.65864270000E+03 0.  0.
    8880022    1    1    2    0    0 -0.37878170096E+03  0.74605712697E+03 -0.79061470280E+01  0.85060623902E+03  0.15294330000E+03 0.  0.
<mgrwt>
<rscale>  0 0.10066793E+04</rscale>
<asrwt>0</asrwt>
<pdfrwt beam="1">  1        1 0.91549200E-01 0.10648413E+04</pdfrwt>
<pdfrwt beam="2">  1       -1 0.32783551E+00 0.10648413E+04</pdfrwt>
<totfact> 0.76034201E-01</totfact>
</mgrwt>
</event>
<event>
 4    1  0.3712574E-007  0.6628771E+03  0.7818608E-02  0.1021385E+00
         -1   -1    0    0    0  501 -0.00000000000E+00  0.00000000000E+00  0.64394945632E+03  0.64394945634E+03  0.50400000000E-02 0.  1.
          1   -1    0    0  501    0  0.00000000000E+00 -0.00000000000E+00 -0.33105064100E+03  0.33105064103E+03  0.50400000000E-02 0. -1.
    8880023    1    1    2    0    0  0.20054477146E+02  0.72067204648E+02  0.40958149339E+03  0.77920669275E+03  0.65864270000E+03 0.  1.
    8880022    1    1    2    0    0 -0.20054477146E+02 -0.72067204648E+02 -0.96682678069E+02  0.19579340462E+03  0.15294330000E+03 0.  0.
<mgrwt>
<rscale>  0 0.47190127E+03</rscale>
<asrwt>0</asrwt>
<pdfrwt beam="1">  1        1 0.50930868E-01 0.66287712E+03</pdfrwt>
<pdfrwt beam="2">  1       -1 0.99069146E-01 0.66287712E+03</pdfrwt>
<totfact> 0.76885425E+01</totfact>
</mgrwt>
</event>
<event>
 4    1  0.3712574E-007  0.6858302E+03  0.7818608E-02  0.1006201E+00
          1   -1    0    0  501    0  0.00000000000E+00  0.00000000000E+00  0.40251741434E+03  0.40251741438E+03  0.50400000000E-02 0. -1.
         -1   -1    0    0    0  501 -0.00000000000E+00 -0.00000000000E+00 -0.74055720427E+03  0.74055720429E+03  0.50400000000E-02 0.  1.
    8880023    1    1    2    0    0 -0.13868989353E+03  0.13159796255E+03 -0.50067923147E+03  0.84914239642E+03  0.65864270000E+03 0.  1.
    8880022    1    1    2    0    0  0.13868989353E+03 -0.13159796255E+03  0.16263944154E+03  0.29393222225E+03  0.15294330000E+03 0.  0.
<mgrwt>
<rscale>  0 0.53012855E+03</rscale>
<asrwt>0</asrwt>
<pdfrwt beam="1">  1        1 0.61925756E-01 0.68583024E+03</pdfrwt>
<pdfrwt beam="2">  1       -1 0.11393188E+00 0.68583024E+03</pdfrwt>
<totfact> 0.42908855E+01</totfact>
</mgrwt>
</event>
<event>
 4    1  0.3712574E-007  0.6602469E+03  0.7818608E-02  0.1023905E+00
          1   -1    0    0  501    0  0.00000000000E+00  0.00000000000E+00  0.10277546645E+04  0.10277546645E+04  0.50400000000E-02 0. -1.
         -1   -1    0    0    0  501 -0.00000000000E+00 -0.00000000000E+00 -0.26271178796E+03  0.26271178801E+03  0.50400000000E-02 0.  1.
    8880023    1    1    2    0    0  0.40308201881E+02 -0.22157425445E+02  0.18046728526E+03  0.68446647102E+03  0.65864270000E+03 0.  1.
    8880022    1    1    2    0    0 -0.40308201881E+02  0.22157425445E+02  0.58457559130E+03  0.60599998152E+03  0.15294330000E+03 0.  0.
<mgrwt>
<rscale>  0 0.46303406E+03</rscale>
<asrwt>0</asrwt>
<pdfrwt beam="1">  1        1 0.15811610E+00 0.66024685E+03</pdfrwt>
<pdfrwt beam="2">  1       -1 0.40417198E-01 0.66024685E+03</pdfrwt>
<totfact> 0.88491750E+01</totfact>
</mgrwt>
</event>
<event>
 4    1  0.3712574E-007  0.1118646E+04  0.7818608E-02  0.9240575E-01
          1   -1    0    0  501    0  0.00000000000E+00  0.00000000000E+00  0.11926548970E+04  0.11926548970E+04  0.50400000000E-02 0. -1.
         -1   -1    0    0    0  501 -0.00000000000E+00 -0.00000000000E+00 -0.17333251708E+04  0.17333251709E+04  0.50400000000E-02 0.  1.
    8880023    1    1    2    0    0 -0.90373914027E+03  0.28529034682E+02  0.74700897814E+03  0.13451360374E+04  0.65864270000E+03 0.  0.
    8880022    1    1    2    0    0  0.90373914027E+03 -0.28529034682E+02 -0.12876792520E+04  0.15808440304E+04  0.15294330000E+03 0.  0.
<mgrwt>
<rscale>  0 0.10644266E+04</rscale>
<asrwt>0</asrwt>
<pdfrwt beam="1">  1        1 0.18348537E+00 0.11186459E+04</pdfrwt>
<pdfrwt beam="2">  1       -1 0.26666541E+00 0.11186459E+04</pdfrwt>
<totfact> 0.58350325E-01</totfact>
</mgrwt>
</event>
<event>
 4    1  0.3712574E-007  0.7838951E+03  0.7818608E-02  0.9746766E-01
         -1   -1    0    0    0  501 -0.00000000000E+00  0.00000000000E+00  0.98841782374E+03  0.98841782375E+03  0.50400000000E-02 0.  1.
          1   -1    0    0  501    0  0.00000000000E+00 -0.00000000000E+00 -0.57931321980E+03  0.57931321983E+03  0.50400000000E-02 0. -1.
    8880023    1    1    2    0    0 -0.25329740312E+03 -0.34135275304E+03  0.68277680208E+03  0.10395555032E+04  0.65864270000E+03 0.  0.
    8880022    1    1    2    0    0  0.25329740312E+03  0.34135275304E+03 -0.27367219815E+03  0.52817554041E+03  0.15294330000E+03 0.  0.
<mgrwt>
<rscale>  0 0.68299359E+03</rscale>
<asrwt>0</asrwt>
<pdfrwt beam="1">  1        1 0.89125112E-01 0.78389507E+03</pdfrwt>
<pdfrwt beam="2">  1       -1 0.15206428E+00 0.78389507E+03</pdfrwt>
<totfact> 0.12414795E+01</totfact>
</mgrwt>
</event>
<event>
 4    1  0.3712574E-007  0.9606979E+03  0.7818608E-02  0.9434886E-01
         -1   -1    0    0    0  501 -0.00000000000E+00  0.00000000000E+00  0.11229543342E+04  0.11229543342E+04  0.50400000000E-02 0.  1.
          1   -1    0    0  501    0  0.00000000000E+00 -0.00000000000E+00 -0.13402037412E+04  0.13402037412E+04  0.50400000000E-02 0. -1.
    8880023    1    1    2    0    0  0.38938403090E+03  0.58095640640E+03  0.77866438864E+03  0.12366320011E+04  0.65864270000E+03 0.  1.
    8880022    1    1    2    0    0 -0.38938403090E+03 -0.58095640640E+03 -0.99591379563E+03  0.12265260743E+04  0.15294330000E+03 0.  0.
<mgrwt>
<rscale>  0 0.89259447E+03</rscale>
<asrwt>0</asrwt>
<pdfrwt beam="1">  1        1 0.20618519E+00 0.96069791E+03</pdfrwt>
<pdfrwt beam="2">  1       -1 0.17276221E+00 0.96069791E+03</pdfrwt>
<totfact> 0.20092466E+00</totfact>
</mgrwt>
</event>
<event>
 4    1  0.3712574E-007  0.9541320E+03  0.7818608E-02  0.9444194E-01
          1   -1    0    0  501    0  0.00000000000E+00  0.00000000000E+00  0.28331929698E+03  0.28331929702E+03  0.50400000000E-02 0. -1.
         -1   -1    0    0    0  501 -0.00000000000E+00 -0.00000000000E+00 -0.25999769505E+04  0.25999769505E+04  0.50400000000E-02 0.  1.
    8880023    1    1    2    0    0 -0.60703498015E+02  0.68765750214E+03 -0.96036712399E+03  0.13537625250E+04  0.65864270000E+03 0.  0.
    8880022    1    1    2    0    0  0.60703498015E+02 -0.68765750214E+03 -0.13562905295E+04  0.15295337225E+04  0.15294330000E+03 0.  0.
<mgrwt>
<rscale>  0 0.88526260E+03</rscale>
<asrwt>0</asrwt>
<pdfrwt beam="1">  1        1 0.43587586E-01 0.95413205E+03</pdfrwt>
<pdfrwt beam="2">  1       -1 0.39999644E+00 0.95413205E+03</pdfrwt>
<totfact> 0.69810232E-01</totfact>
</mgrwt>
</event>
<event>
 4    1  0.3712574E-007  0.7233845E+03  0.7818608E-02  0.9911296E-01
          1   -1    0    0  501    0  0.00000000000E+00  0.00000000000E+00  0.76332188548E+03  0.76332188550E+03  0.50400000000E-02 0. -1.
         -1   -1    0    0    0  501 -0.00000000000E+00 -0.00000000000E+00 -0.15768295875E+04  0.15768295875E+04  0.50400000000E-02 0.  1.
    8880023    1    1    2    0    0  0.29420029153E+03  0.54046726473E+02 -0.14500053630E+04  0.16204322322E+04  0.65864270000E+03 0.  1.
    8880022    1    1    2    0    0 -0.29420029153E+03 -0.54046726473E+02  0.63649766096E+03  0.71971924082E+03  0.15294330000E+03 0.  0.
<mgrwt>
<rscale>  0 0.59716936E+03</rscale>
<asrwt>0</asrwt>
<pdfrwt beam="1">  1        1 0.11743414E+00 0.72338445E+03</pdfrwt>
<pdfrwt beam="2">  1       -1 0.24258917E+00 0.72338445E+03</pdfrwt>
<totfact> 0.19516518E+00</totfact>
</mgrwt>
</event>
<event>
 4    1  0.3712574E-007  0.7207005E+03  0.7818608E-02  0.9920223E-01
          1   -1    0    0  501    0  0.00000000000E+00  0.00000000000E+00  0.10607356346E+04  0.10607356346E+04  0.50400000000E-02 0. -1.
         -1   -1    0    0    0  501 -0.00000000000E+00 -0.00000000000E+00 -0.94248886755E+03  0.94248886757E+03  0.50400000000E-02 0.  1.
    8880023    1    1    2    0    0  0.29255077887E+03 -0.36217910214E+01 -0.77056929617E+03  0.10550764532E+04  0.65864270000E+03 0.  1.
    8880022    1    1    2    0    0 -0.29255077887E+03  0.36217910214E+01  0.88881606325E+03  0.94814804904E+03  0.15294330000E+03 0.  0.
<mgrwt>
<rscale>  0 0.59291145E+03</rscale>
<asrwt>0</asrwt>
<pdfrwt beam="1">  1        1 0.16319010E+00 0.72070055E+03</pdfrwt>
<pdfrwt beam="2">  1       -1 0.14499829E+00 0.72070055E+03</pdfrwt>
<totfact> 0.54032739E+00</totfact>
</mgrwt>
</event>
<event>
 4    1  0.3712574E-007  0.8634303E+03  0.7818608E-02  0.9587491E-01
         -1   -1    0    0    0  501 -0.00000000000E+00  0.00000000000E+00  0.28443304611E+03  0.28443304615E+03  0.50400000000E-02 0.  1.
          1   -1    0    0  501    0  0.00000000000E+00 -0.00000000000E+00 -0.27253705959E+04  0.27253705959E+04  0.50400000000E-02 0. -1.
    8880023    1    1    2    0    0 -0.54094030776E+03 -0.13814920242E+03 -0.53001697554E+03  0.10131287279E+04  0.65864270000E+03 0.  1.
    8880022    1    1    2    0    0  0.54094030776E+03  0.13814920242E+03 -0.19109205743E+04  0.19966749142E+04  0.15294330000E+03 0.  0.
<mgrwt>
<rscale>  0 0.78129701E+03</rscale>
<asrwt>0</asrwt>
<pdfrwt beam="1">  1        1 0.41928777E+00 0.86343027E+03</pdfrwt>
<pdfrwt beam="2">  1       -1 0.43758932E-01 0.86343027E+03</pdfrwt>
<totfact> 0.50643220E+00</totfact>
</mgrwt>
</event>
<event>
 4    1  0.3712574E-007  0.6641931E+03  0.7818608E-02  0.1020220E+00
         -1   -1    0    0    0  501 -0.00000000000E+00  0.00000000000E+00  0.55078117996E+03  0.55078117999E+03  0.50400000000E-02 0.  1.
          1   -1    0    0  501    0  0.00000000000E+00 -0.00000000000E+00 -0.11451523950E+04  0.11451523950E+04  0.50400000000E-02 0. -1.
    8880023    1    1    2    0    0  0.47573987546E+02 -0.71266855671E+02  0.33937409469E+03  0.74587346877E+03  0.65864270000E+03 0.  1.
    8880022    1    1    2    0    0 -0.47573987546E+02  0.71266855671E+02 -0.93374530972E+03  0.95006010623E+03  0.15294330000E+03 0.  0.
<mgrwt>
<rscale>  0 0.47607237E+03</rscale>
<asrwt>0</asrwt>
<pdfrwt beam="1">  1        1 0.17617729E+00 0.66419309E+03</pdfrwt>
<pdfrwt beam="2">  1       -1 0.84735566E-01 0.66419309E+03</pdfrwt>
<totfact> 0.16874021E+01</totfact>
</mgrwt>
</event>
<event>
 4    1  0.3712574E-007  0.6996947E+03  0.7818608E-02  0.9998470E-01
          1   -1    0    0  501    0  0.00000000000E+00  0.00000000000E+00  0.16299592080E+04  0.16299592080E+04  0.50400000000E-02 0. -1.
         -1   -1    0    0    0  501 -0.00000000000E+00 -0.00000000000E+00 -0.23138329201E+03  0.23138329206E+03  0.50400000000E-02 0.  1.
    8880023    1    1    2    0    0  0.40554239713E+02 -0.23263241651E+03  0.36304530071E+03  0.78827316597E+03  0.65864270000E+03 0.  1.
    8880022    1    1    2    0    0 -0.40554239713E+02  0.23263241651E+03  0.10355306153E+04  0.10730693341E+04  0.15294330000E+03 0.  0.
<mgrwt>
<rscale>  0 0.55717375E+03</rscale>
<asrwt>0</asrwt>
<pdfrwt beam="1">  1        1 0.25076295E+00 0.69969471E+03</pdfrwt>
<pdfrwt beam="2">  1       -1 0.35597430E-01 0.69969471E+03</pdfrwt>
<totfact> 0.41542457E+01</totfact>
</mgrwt>
</event>
<event>
 4    1  0.3712574E-007  0.8488551E+03  0.7818608E-02  0.9613704E-01
          1   -1    0    0  501    0  0.00000000000E+00  0.00000000000E+00  0.14609442996E+04  0.14609442996E+04  0.50400000000E-02 0. -1.
         -1   -1    0    0    0  501 -0.00000000000E+00 -0.00000000000E+00 -0.35555084884E+03  0.35555084888E+03  0.50400000000E-02 0.  1.
    8880023    1    1    2    0    0  0.50541711963E+03 -0.17691308841E+03  0.85856451325E+03  0.12073474791E+04  0.65864270000E+03 0.  0.
    8880022    1    1    2    0    0 -0.50541711963E+03  0.17691308841E+03  0.24682893749E+03  0.60914766934E+03  0.15294330000E+03 0.  0.
<mgrwt>
<rscale>  0 0.76395758E+03</rscale>
<asrwt>0</asrwt>
<pdfrwt beam="1">  1        1 0.22476066E+00 0.84885506E+03</pdfrwt>
<pdfrwt beam="2">  1       -1 0.54700131E-01 0.84885506E+03</pdfrwt>
<totfact> 0.24006438E+01</totfact>
</mgrwt>
</event>
<event>
 4    1  0.3712574E-007  0.8203423E+03  0.7818608E-02  0.9668424E-01
         -1   -1    0    0    0  501 -0.00000000000E+00  0.00000000000E+00  0.53842358350E+03  0.53842358352E+03  0.50400000000E-02 0.  1.
          1   -1    0    0  501    0  0.00000000000E+00 -0.00000000000E+00 -0.14181888436E+04  0.14181888436E+04  0.50400000000E-02 0. -1.
    8880023    1    1    2    0    0  0.45217063684E+03 -0.18626037987E+03  0.12397094831E+03  0.82965668575E+03  0.65864270000E+03 0.  1.
    8880022    1    1    2    0    0 -0.45217063684E+03  0.18626037987E+03 -0.10037362084E+04  0.11269557414E+04  0.15294330000E+03 0.  0.
<mgrwt>
<rscale>  0 0.72928342E+03</rscale>
<asrwt>0</asrwt>
<pdfrwt beam="1">  1        1 0.21818290E+00 0.82034226E+03</pdfrwt>
<pdfrwt beam="2">  1       -1 0.82834398E-01 0.82034226E+03</pdfrwt>
<totfact> 0.11089157E+01</totfact>
</mgrwt>
</event>
<event>
 4    1  0.3712574E-007  0.6868469E+03  0.7818608E-02  0.1005689E+00
         -1   -1    0    0    0  501 -0.00000000000E+00  0.00000000000E+00  0.13039285399E+03  0.13039285409E+03  0.50400000000E-02 0.  1.
          1   -1    0    0  501    0  0.00000000000E+00 -0.00000000000E+00 -0.20042443329E+04  0.20042443329E+04  0.50400000000E-02 0. -1.
    8880023    1    1    2    0    0  0.12585160571E+03  0.14869380381E+03 -0.91376924277E+03  0.11431241880E+04  0.65864270000E+03 0.  1.
    8880022    1    1    2    0    0 -0.12585160571E+03 -0.14869380381E+03 -0.96008223612E+03  0.99151299895E+03  0.15294330000E+03 0.  0.
<mgrwt>
<rscale>  0 0.53224678E+03</rscale>
<asrwt>0</asrwt>
<pdfrwt beam="1">  1        1 0.30834526E+00 0.68684691E+03</pdfrwt>
<pdfrwt beam="2">  1       -1 0.20060440E-01 0.68684691E+03</pdfrwt>
<totfact> 0.62633518E+01</totfact>
</mgrwt>
</event>
<event>
 4    1  0.3712574E-007  0.8396145E+03  0.7818608E-02  0.9630908E-01
         -1   -1    0    0    0  501 -0.00000000000E+00  0.00000000000E+00  0.11312061479E+04  0.11312061479E+04  0.50400000000E-02 0.  1.
          1   -1    0    0  501    0  0.00000000000E+00 -0.00000000000E+00 -0.14632314863E+04  0.14632314863E+04  0.50400000000E-02 0. -1.
    8880023    1    1    2    0    0  0.45613839393E+03 -0.25115735800E+03  0.91051689330E+03  0.12385449011E+04  0.65864270000E+03 0.  1.
    8880022    1    1    2    0    0 -0.45613839393E+03  0.25115735800E+03 -0.12425422318E+04  0.13558927331E+04  0.15294330000E+03 0.  0.
<mgrwt>
<rscale>  0 0.75283855E+03</rscale>
<asrwt>0</asrwt>
<pdfrwt beam="1">  1        1 0.22511254E+00 0.83961447E+03</pdfrwt>
<pdfrwt beam="2">  1       -1 0.17403172E+00 0.83961447E+03</pdfrwt>
<totfact> 0.16449385E+00</totfact>
</mgrwt>
</event>
<event>
 4    1  0.3712574E-007  0.7533756E+03  0.7818608E-02  0.9822569E-01
         -1   -1    0    0    0  501 -0.00000000000E+00  0.00000000000E+00  0.40962890655E+03  0.40962890658E+03  0.50400000000E-02 0.  1.
          1   -1    0    0  501    0  0.00000000000E+00 -0.00000000000E+00 -0.14095419084E+04  0.14095419084E+04  0.50400000000E-02 0. -1.
    8880023    1    1    2    0    0 -0.27527921753E+03  0.24080268957E+03 -0.10669770072E+02  0.75345114849E+03  0.65864270000E+03 0.  1.
    8880022    1    1    2    0    0  0.27527921753E+03 -0.24080268957E+03 -0.98924323177E+03  0.10657196665E+04  0.15294330000E+03 0.  0.
<mgrwt>
<rscale>  0 0.64165283E+03</rscale>
<asrwt>0</asrwt>
<pdfrwt beam="1">  1        1 0.21685260E+00 0.75337560E+03</pdfrwt>
<pdfrwt beam="2">  1       -1 0.63019832E-01 0.75337560E+03</pdfrwt>
<totfact> 0.19958934E+01</totfact>
</mgrwt>
</event>
<event>
 4    1  0.3712574E-007  0.7829777E+03  0.7818608E-02  0.9748888E-01
         -1   -1    0    0    0  501 -0.00000000000E+00  0.00000000000E+00  0.93882761390E+03  0.93882761392E+03  0.50400000000E-02 0.  1.
          1   -1    0    0  501    0  0.00000000000E+00 -0.00000000000E+00 -0.59386389374E+03  0.59386389376E+03  0.50400000000E-02 0. -1.
    8880023    1    1    2    0    0 -0.38074606136E+03 -0.18513865840E+03  0.62561303686E+03  0.10022204170E+04  0.65864270000E+03 0.  1.
    8880022    1    1    2    0    0  0.38074606136E+03  0.18513865840E+03 -0.28064931670E+03  0.53047109069E+03  0.15294330000E+03 0.  0.
<mgrwt>
<rscale>  0 0.68179137E+03</rscale>
<asrwt>0</asrwt>
<pdfrwt beam="1">  1        1 0.91363675E-01 0.78297771E+03</pdfrwt>
<pdfrwt beam="2">  1       -1 0.14443502E+00 0.78297771E+03</pdfrwt>
<totfact> 0.13749618E+01</totfact>
</mgrwt>
</event>
<event>
 4    1  0.3712574E-007  0.8382840E+03  0.7818608E-02  0.9633424E-01
          1   -1    0    0  501    0  0.00000000000E+00  0.00000000000E+00  0.21566737820E+04  0.21566737820E+04  0.50400000000E-02 0. -1.
         -1   -1    0    0    0  501 -0.00000000000E+00 -0.00000000000E+00 -0.55169624388E+03  0.55169624390E+03  0.50400000000E-02 0.  1.
    8880023    1    1    2    0    0 -0.11854577006E+03  0.50483335673E+03 -0.16786082353E+03  0.85492530668E+03  0.65864270000E+03 0.  0.
    8880022    1    1    2    0    0  0.11854577006E+03 -0.50483335673E+03  0.17728383616E+04  0.18534447192E+04  0.15294330000E+03 0.  0.
<mgrwt>
<rscale>  0 0.75122883E+03</rscale>
<asrwt>0</asrwt>
<pdfrwt beam="1">  1        1 0.33179597E+00 0.83828398E+03</pdfrwt>
<pdfrwt beam="2">  1       -1 0.84876345E-01 0.83828398E+03</pdfrwt>
<totfact> 0.33257817E+00</totfact>
</mgrwt>
</event>
<event>
 4    1  0.3712574E-007  0.7719218E+03  0.7818608E-02  0.9775167E-01
         -1   -1    0    0    0  501 -0.00000000000E+00  0.00000000000E+00  0.18438077622E+04  0.18438077622E+04  0.50400000000E-02 0.  1.
          1   -1    0    0  501    0  0.00000000000E+00 -0.00000000000E+00 -0.38010420566E+03  0.38010420570E+03  0.50400000000E-02 0. -1.
    8880023    1    1    2    0    0  0.19123512244E+03  0.35423460167E+03  0.15964541142E+04  0.17732819770E+04  0.65864270000E+03 0.  1.
    8880022    1    1    2    0    0 -0.19123512244E+03 -0.35423460167E+03 -0.13275055768E+03  0.45062999085E+03  0.15294330000E+03 0.  0.
<mgrwt>
<rscale>  0 0.66712431E+03</rscale>
<asrwt>0</asrwt>
<pdfrwt beam="1">  1        1 0.58477570E-01 0.77192178E+03</pdfrwt>
<pdfrwt beam="2">  1       -1 0.28366274E+00 0.77192178E+03</pdfrwt>
<totfact> 0.28240581E+00</totfact>
</mgrwt>
</event>
<event>
 4    1  0.3712574E-007  0.1317057E+04  0.7818608E-02  0.9050969E-01
         -1   -1    0    0    0  501 -0.00000000000E+00  0.00000000000E+00  0.85880701079E+03  0.85880701081E+03  0.50400000000E-02 0.  1.
          1   -1    0    0  501    0  0.00000000000E+00 -0.00000000000E+00 -0.27802407439E+04  0.27802407439E+04  0.50400000000E-02 0. -1.
    8880023    1    1    2    0    0  0.10618066410E+04  0.41640705924E+03  0.91681192493E+02  0.13202438522E+04  0.65864270000E+03 0.  0.
    8880022    1    1    2    0    0 -0.10618066410E+04 -0.41640705924E+03 -0.20131149256E+04  0.23188039025E+04  0.15294330000E+03 0.  0.
<mgrwt>
<rscale>  0 0.12733517E+04</rscale>
<asrwt>0</asrwt>
<pdfrwt beam="1">  1        1 0.42772934E+00 0.13170567E+04</pdfrwt>
<pdfrwt beam="2">  1       -1 0.13212416E+00 0.13170567E+04</pdfrwt>
<totfact> 0.40845976E-01</totfact>
</mgrwt>
</event>
<event>
 4    1  0.3712574E-007  0.1047082E+04  0.7818608E-02  0.9322397E-01
         -1   -1    0    0    0  501 -0.00000000000E+00  0.00000000000E+00  0.15367384898E+04  0.15367384899E+04  0.50400000000E-02 0.  1.
          1   -1    0    0  501    0  0.00000000000E+00 -0.00000000000E+00 -0.73878683885E+03  0.73878683887E+03  0.50400000000E-02 0. -1.
    8880023    1    1    2    0    0  0.70546612036E+03 -0.40606498724E+03  0.97257850817E+03  0.14290872547E+04  0.65864270000E+03 0.  0.
    8880022    1    1    2    0    0 -0.70546612036E+03  0.40606498724E+03 -0.17462685717E+03  0.84643807398E+03  0.15294330000E+03 0.  0.
<mgrwt>
<rscale>  0 0.98746839E+03</rscale>
<asrwt>0</asrwt>
<pdfrwt beam="1">  1        1 0.11365951E+00 0.10470823E+04</pdfrwt>
<pdfrwt beam="2">  1       -1 0.23642131E+00 0.10470823E+04</pdfrwt>
<totfact> 0.21481239E+00</totfact>
</mgrwt>
</event>
<event>
 4    1  0.3712574E-007  0.7876561E+03  0.7818608E-02  0.9738150E-01
         -1   -1    0    0    0  501 -0.00000000000E+00  0.00000000000E+00  0.11806053786E+04  0.11806053787E+04  0.50400000000E-02 0.  1.
          1   -1    0    0  501    0  0.00000000000E+00 -0.00000000000E+00 -0.13055705786E+04  0.13055705786E+04  0.50400000000E-02 0. -1.
    8880023    1    1    2    0    0  0.39955480644E+03 -0.16415832766E+03  0.99913039110E+03  0.12722671671E+04  0.65864270000E+03 0.  1.
    8880022    1    1    2    0    0 -0.39955480644E+03  0.16415832766E+03 -0.11240955911E+04  0.12139087902E+04  0.15294330000E+03 0.  0.
<mgrwt>
<rscale>  0 0.68790060E+03</rscale>
<asrwt>0</asrwt>
<pdfrwt beam="1">  1        1 0.20085701E+00 0.78765615E+03</pdfrwt>
<pdfrwt beam="2">  1       -1 0.18163160E+00 0.78765615E+03</pdfrwt>
<totfact> 0.18860586E+00</totfact>
</mgrwt>
</event>
<event>
 4    1  0.3712574E-007  0.8290348E+03  0.7818608E-02  0.9651213E-01
         -1   -1    0    0    0  501 -0.00000000000E+00  0.00000000000E+00  0.25953844833E+03  0.25953844838E+03  0.50400000000E-02 0.  1.
          1   -1    0    0  501    0  0.00000000000E+00 -0.00000000000E+00 -0.23804605923E+04  0.23804605923E+04  0.50400000000E-02 0. -1.
    8880023    1    1    2    0    0 -0.34954672729E+03 -0.36236100575E+03 -0.58018409578E+03  0.10118854700E+04  0.65864270000E+03 0.  0.
    8880022    1    1    2    0    0  0.34954672729E+03  0.36236100575E+03 -0.15407380481E+04  0.16281135707E+04  0.15294330000E+03 0.  0.
<mgrwt>
<rscale>  0 0.73997324E+03</rscale>
<asrwt>0</asrwt>
<pdfrwt beam="1">  1        1 0.36622469E+00 0.82903475E+03</pdfrwt>
<pdfrwt beam="2">  1       -1 0.39928994E-01 0.82903475E+03</pdfrwt>
<totfact> 0.10401236E+01</totfact>
</mgrwt>
</event>
<event>
 4    1  0.3712574E-007  0.1195977E+04  0.7818608E-02  0.9161043E-01
         -1   -1    0    0    0  501 -0.00000000000E+00  0.00000000000E+00  0.64868388557E+03  0.64868388559E+03  0.50400000000E-02 0.  1.
          1   -1    0    0  501    0  0.00000000000E+00 -0.00000000000E+00 -0.33409517368E+04  0.33409517368E+04  0.50400000000E-02 0. -1.
    8880023    1    1    2    0    0 -0.88888898917E+03 -0.45434285174E+03 -0.91274758622E+02  0.11994550220E+04  0.65864270000E+03 0.  0.
    8880022    1    1    2    0    0  0.88888898917E+03  0.45434285174E+03 -0.26009930926E+04  0.27901806004E+04  0.15294330000E+03 0.  0.
<mgrwt>
<rscale>  0 0.11464738E+04</rscale>
<asrwt>0</asrwt>
<pdfrwt beam="1">  1        1 0.51399257E+00 0.11959771E+04</pdfrwt>
<pdfrwt beam="2">  1       -1 0.99797522E-01 0.11959771E+04</pdfrwt>
<totfact> 0.31882728E-01</totfact>
</mgrwt>
</event>
<event>
 4    1  0.3712574E-007  0.9000231E+03  0.7818608E-02  0.9525994E-01
          1   -1    0    0  501    0  0.00000000000E+00  0.00000000000E+00  0.20158028157E+04  0.20158028157E+04  0.50400000000E-02 0. -1.
         -1   -1    0    0    0  501 -0.00000000000E+00 -0.00000000000E+00 -0.68534687512E+03  0.68534687514E+03  0.50400000000E-02 0.  1.
    8880023    1    1    2    0    0  0.53880869869E+03 -0.29311536755E+03 -0.30298201733E+03  0.94965243198E+03  0.65864270000E+03 0.  0.
    8880022    1    1    2    0    0 -0.53880869869E+03  0.29311536755E+03  0.16334379579E+04  0.17514972589E+04  0.15294330000E+03 0.  0.
<mgrwt>
<rscale>  0 0.82394187E+03</rscale>
<asrwt>0</asrwt>
<pdfrwt beam="1">  1        1 0.31012351E+00 0.90002313E+03</pdfrwt>
<pdfrwt beam="2">  1       -1 0.10543798E+00 0.90002313E+03</pdfrwt>
<totfact> 0.25160681E+00</totfact>
</mgrwt>
</event>
<event>
 4    1  0.3712574E-007  0.6698704E+03  0.7818608E-02  0.1015756E+00
         -1   -1    0    0    0  501 -0.00000000000E+00  0.00000000000E+00  0.47667393623E+03  0.47667393625E+03  0.50400000000E-02 0.  1.
          1   -1    0    0  501    0  0.00000000000E+00 -0.00000000000E+00 -0.72057896328E+03  0.72057896330E+03  0.50400000000E-02 0. -1.
    8880023    1    1    2    0    0  0.21038878577E+02 -0.12030572203E+03  0.21076510390E+03  0.70224513985E+03  0.65864270000E+03 0.  1.
    8880022    1    1    2    0    0 -0.21038878577E+02  0.12030572203E+03 -0.45467013096E+03  0.49500775970E+03  0.15294330000E+03 0.  0.
<mgrwt>
<rscale>  0 0.49249736E+03</rscale>
<asrwt>0</asrwt>
<pdfrwt beam="1">  1        1 0.11085830E+00 0.66987037E+03</pdfrwt>
<pdfrwt beam="2">  1       -1 0.73334452E-01 0.66987037E+03</pdfrwt>
<totfact> 0.50314122E+01</totfact>
</mgrwt>
</event>
<event>
 4    1  0.3712574E-007  0.6649136E+03  0.7818608E-02  0.1019606E+00
          1   -1    0    0  501    0  0.00000000000E+00  0.00000000000E+00  0.82063336981E+03  0.82063336983E+03  0.50400000000E-02 0. -1.
         -1   -1    0    0    0  501 -0.00000000000E+00 -0.00000000000E+00 -0.66354909737E+03  0.66354909738E+03  0.50400000000E-02 0.  1.
    8880023    1    1    2    0    0 -0.23146739458E+02  0.88113984019E+02 -0.48169522530E+03  0.82106049842E+03  0.65864270000E+03 0.  1.
    8880022    1    1    2    0    0  0.23146739458E+02 -0.88113984019E+02  0.63877949775E+03  0.66312196879E+03  0.15294330000E+03 0.  0.
<mgrwt>
<rscale>  0 0.47829049E+03</rscale>
<asrwt>0</asrwt>
<pdfrwt beam="1">  1        1 0.12625129E+00 0.66491357E+03</pdfrwt>
<pdfrwt beam="2">  1       -1 0.10208448E+00 0.66491357E+03</pdfrwt>
<totfact> 0.20028490E+01</totfact>
</mgrwt>
</event>
<event>
 4    1  0.3712574E-007  0.8761509E+03  0.7818608E-02  0.9565456E-01
         -1   -1    0    0    0  501 -0.00000000000E+00  0.00000000000E+00  0.10963050157E+04  0.10963050157E+04  0.50400000000E-02 0.  1.
          1   -1    0    0  501    0  0.00000000000E+00 -0.00000000000E+00 -0.10332274157E+04  0.10332274157E+04  0.50400000000E-02 0. -1.
    8880023    1    1    2    0    0 -0.10767944346E+03  0.56765778974E+03  0.79604141032E+03  0.11837746247E+04  0.65864270000E+03 0.  0.
    8880022    1    1    2    0    0  0.10767944346E+03 -0.56765778974E+03 -0.73296381035E+03  0.94575780678E+03  0.15294330000E+03 0.  0.
<mgrwt>
<rscale>  0 0.79625367E+03</rscale>
<asrwt>0</asrwt>
<pdfrwt beam="1">  1        1 0.15895806E+00 0.87615092E+03</pdfrwt>
<pdfrwt beam="2">  1       -1 0.16866231E+00 0.87615092E+03</pdfrwt>
<totfact> 0.36578435E+00</totfact>
</mgrwt>
</event>
<event>
 4    1  0.3712574E-007  0.7399780E+03  0.7818608E-02  0.9860011E-01
          1   -1    0    0  501    0  0.00000000000E+00  0.00000000000E+00  0.19919755520E+04  0.19919755520E+04  0.50400000000E-02 0. -1.
         -1   -1    0    0    0  501 -0.00000000000E+00 -0.00000000000E+00 -0.37050838919E+03  0.37050838922E+03  0.50400000000E-02 0.  1.
    8880023    1    1    2    0    0 -0.20221428719E+03  0.26993822598E+03  0.43077900505E+02  0.74123085174E+03  0.65864270000E+03 0.  0.
    8880022    1    1    2    0    0  0.20221428719E+03 -0.26993822598E+03  0.15783892623E+04  0.16212530894E+04  0.15294330000E+03 0.  0.
<mgrwt>
<rscale>  0 0.62239080E+03</rscale>
<asrwt>0</asrwt>
<pdfrwt beam="1">  1        1 0.30645778E+00 0.73997802E+03</pdfrwt>
<pdfrwt beam="2">  1       -1 0.57001291E-01 0.73997802E+03</pdfrwt>
<totfact> 0.98497490E+00</totfact>
</mgrwt>
</event>
<event>
 4    1  0.3712574E-007  0.6593538E+03  0.7818608E-02  0.1024828E+00
         -1   -1    0    0    0  501 -0.00000000000E+00  0.00000000000E+00  0.61133718234E+03  0.61133718236E+03  0.50400000000E-02 0.  1.
          1   -1    0    0  501    0  0.00000000000E+00 -0.00000000000E+00 -0.12220141372E+04  0.12220141373E+04  0.50400000000E-02 0. -1.
    8880023    1    1    2    0    0 -0.25317695055E+02  0.17212039864E+02  0.42600453491E+03  0.78500147135E+03  0.65864270000E+03 0.  1.
    8880022    1    1    2    0    0  0.25317695055E+02 -0.17212039864E+02 -0.10366814898E+04  0.10483498483E+04  0.15294330000E+03 0.  0.
<mgrwt>
<rscale>  0 0.45983729E+03</rscale>
<asrwt>0</asrwt>
<pdfrwt beam="1">  1        1 0.18800217E+00 0.65935381E+03</pdfrwt>
<pdfrwt beam="2">  1       -1 0.94051874E-01 0.65935381E+03</pdfrwt>
<totfact> 0.11820907E+01</totfact>
</mgrwt>
</event>
<event>
 4    1  0.3712574E-007  0.6614517E+03  0.7818608E-02  0.1022716E+00
         -1   -1    0    0    0  501 -0.00000000000E+00  0.00000000000E+00  0.55176474937E+03  0.55176474940E+03  0.50400000000E-02 0.  1.
          1   -1    0    0  501    0  0.00000000000E+00 -0.00000000000E+00 -0.37347950771E+03  0.37347950774E+03  0.50400000000E-02 0. -1.
    8880023    1    1    2    0    0  0.52508121490E+02  0.30838366367E+02  0.29418024097E+03  0.72392011169E+03  0.65864270000E+03 0.  1.
    8880022    1    1    2    0    0 -0.52508121490E+02 -0.30838366367E+02 -0.11589499931E+03  0.20132414545E+03  0.15294330000E+03 0.  0.
<mgrwt>
<rscale>  0 0.46719079E+03</rscale>
<asrwt>0</asrwt>
<pdfrwt beam="1">  1        1 0.57458385E-01 0.66145167E+03</pdfrwt>
<pdfrwt beam="2">  1       -1 0.84886885E-01 0.66145167E+03</pdfrwt>
<totfact> 0.92401209E+01</totfact>
</mgrwt>
</event>
<event>
 4    1  0.3712574E-007  0.7345424E+03  0.7818608E-02  0.9876140E-01
          1   -1    0    0  501    0  0.00000000000E+00  0.00000000000E+00  0.56250885307E+03  0.56250885309E+03  0.50400000000E-02 0. -1.
         -1   -1    0    0    0  501 -0.00000000000E+00 -0.00000000000E+00 -0.13348201167E+04  0.13348201167E+04  0.50400000000E-02 0.  1.
    8880023    1    1    2    0    0 -0.45382434004E+02 -0.32199811918E+03 -0.11572746963E+04  0.13707068552E+04  0.65864270000E+03 0.  1.
    8880022    1    1    2    0    0  0.45382434004E+02  0.32199811918E+03  0.38496343264E+03  0.52662211458E+03  0.15294330000E+03 0.  0.
<mgrwt>
<rscale>  0 0.61431729E+03</rscale>
<asrwt>0</asrwt>
<pdfrwt beam="1">  1        1 0.86539824E-01 0.73454242E+03</pdfrwt>
<pdfrwt beam="2">  1       -1 0.20535694E+00 0.73454242E+03</pdfrwt>
<totfact> 0.53936734E+00</totfact>
</mgrwt>
</event>
<event>
 4    1  0.3712574E-007  0.7268850E+03  0.7818608E-02  0.9899943E-01
          1   -1    0    0  501    0  0.00000000000E+00  0.00000000000E+00  0.57672792608E+03  0.57672792611E+03  0.50400000000E-02 0. -1.
         -1   -1    0    0    0  501 -0.00000000000E+00 -0.00000000000E+00 -0.70347527645E+03  0.70347527647E+03  0.50400000000E-02 0.  1.
    8880023    1    1    2    0    0 -0.24676561204E+03  0.18346219219E+03 -0.41043560959E+03  0.83475699406E+03  0.65864270000E+03 0.  1.
    8880022    1    1    2    0    0  0.24676561204E+03 -0.18346219219E+03  0.28368825922E+03  0.44544620852E+03  0.15294330000E+03 0.  0.
<mgrwt>
<rscale>  0 0.60264069E+03</rscale>
<asrwt>0</asrwt>
<pdfrwt beam="1">  1        1 0.88727373E-01 0.72688503E+03</pdfrwt>
<pdfrwt beam="2">  1       -1 0.10822697E+00 0.72688503E+03</pdfrwt>
<totfact> 0.29521353E+01</totfact>
</mgrwt>
</event>
<event>
 4    1  0.3712574E-007  0.6898830E+03  0.7818608E-02  0.1004208E+00
          1   -1    0    0  501    0  0.00000000000E+00  0.00000000000E+00  0.97837682877E+03  0.97837682878E+03  0.50400000000E-02 0. -1.
         -1   -1    0    0    0  501 -0.00000000000E+00 -0.00000000000E+00 -0.40444726358E+03  0.40444726361E+03  0.50400000000E-02 0.  1.
    8880023    1    1    2    0    0 -0.18806824594E+03 -0.82211279064E+02 -0.66553736791E+02  0.69308582851E+03  0.65864270000E+03 0.  0.
    8880022    1    1    2    0    0  0.18806824594E+03  0.82211279064E+02  0.64048330198E+03  0.68973826388E+03  0.15294330000E+03 0.  0.
<mgrwt>
<rscale>  0 0.53842886E+03</rscale>
<asrwt>0</asrwt>
<pdfrwt beam="1">  1        1 0.15051951E+00 0.68988301E+03</pdfrwt>
<pdfrwt beam="2">  1       -1 0.62222656E-01 0.68988301E+03</pdfrwt>
<totfact> 0.42521838E+01</totfact>
</mgrwt>
</event>
<event>
 4    1  0.3712574E-007  0.6876065E+03  0.7818608E-02  0.1005312E+00
          1   -1    0    0  501    0  0.00000000000E+00  0.00000000000E+00  0.30802766373E+03  0.30802766377E+03  0.50400000000E-02 0. -1.
         -1   -1    0    0    0  501 -0.00000000000E+00 -0.00000000000E+00 -0.14130673433E+04  0.14130673433E+04  0.50400000000E-02 0.  1.
    8880023    1    1    2    0    0 -0.74293252642E+02  0.18295616772E+03 -0.12540963034E+04  0.14302308174E+04  0.65864270000E+03 0.  0.
    8880022    1    1    2    0    0  0.74293252642E+02 -0.18295616772E+03  0.14905662383E+03  0.29086418964E+03  0.15294330000E+03 0.  0.
<mgrwt>
<rscale>  0 0.53381307E+03</rscale>
<asrwt>0</asrwt>
<pdfrwt beam="1">  1        1 0.47388872E-01 0.68760647E+03</pdfrwt>
<pdfrwt beam="2">  1       -1 0.21739497E+00 0.68760647E+03</pdfrwt>
<totfact> 0.10095741E+01</totfact>
</mgrwt>
</event>
<event>
 4    1  0.3712574E-007  0.7035005E+03  0.7818608E-02  0.9982978E-01
          1   -1    0    0  501    0  0.00000000000E+00  0.00000000000E+00  0.15133110985E+04  0.15133110985E+04  0.50400000000E-02 0. -1.
         -1   -1    0    0    0  501 -0.00000000000E+00 -0.00000000000E+00 -0.18373816396E+03  0.18373816403E+03  0.50400000000E-02 0.  1.
    8880023    1    1    2    0    0 -0.72061502122E+01  0.24708473872E+03  0.64957660029E+03  0.95752951005E+03  0.65864270000E+03 0.  1.
    8880022    1    1    2    0    0  0.72061502122E+01 -0.24708473872E+03  0.67999633424E+03  0.73951975248E+03  0.15294330000E+03 0. -1.
<mgrwt>
<rscale>  0 0.56402954E+03</rscale>
<asrwt>0</asrwt>
<pdfrwt beam="1">  1        1 0.23281710E+00 0.70350054E+03</pdfrwt>
<pdfrwt beam="2">  1       -1 0.28267409E-01 0.70350054E+03</pdfrwt>
<totfact> 0.74673956E+01</totfact>
</mgrwt>
</event>
<event>
 4    1  0.3712574E-007  0.9915695E+03  0.7818608E-02  0.9392671E-01
          1   -1    0    0  501    0  0.00000000000E+00  0.00000000000E+00  0.28968521510E+04  0.28968521510E+04  0.50400000000E-02 0. -1.
         -1   -1    0    0    0  501 -0.00000000000E+00 -0.00000000000E+00 -0.42781075521E+03  0.42781075524E+03  0.50400000000E-02 0.  1.
    8880023    1    1    2    0    0 -0.28413757504E+03 -0.68459165423E+03  0.31323730890E+03  0.10398690843E+04  0.65864270000E+03 0.  1.
    8880022    1    1    2    0    0  0.28413757504E+03  0.68459165423E+03  0.21558040869E+04  0.22847938219E+04  0.15294330000E+03 0.  0.
<mgrwt>
<rscale>  0 0.92681264E+03</rscale>
<asrwt>0</asrwt>
<pdfrwt beam="1">  1        1 0.44566957E+00 0.99156951E+03</pdfrwt>
<pdfrwt beam="2">  1       -1 0.65817039E-01 0.99156951E+03</pdfrwt>
<totfact> 0.17073557E+00</totfact>
</mgrwt>
</event>
<event>
 4    1  0.3712574E-007  0.7646196E+03  0.7818608E-02  0.9793291E-01
          1   -1    0    0  501    0  0.00000000000E+00  0.00000000000E+00  0.16043499311E+04  0.16043499311E+04  0.50400000000E-02 0. -1.
         -1   -1    0    0    0  501 -0.00000000000E+00 -0.00000000000E+00 -0.30744056521E+03  0.30744056525E+03  0.50400000000E-02 0.  1.
    8880023    1    1    2    0    0  0.26240837955E+03  0.28631233537E+03  0.28297600193E+03  0.81530272597E+03  0.65864270000E+03 0.  1.
    8880022    1    1    2    0    0 -0.26240837955E+03 -0.28631233537E+03  0.10139333640E+04  0.10964877704E+04  0.15294330000E+03 0.  0.
<mgrwt>
<rscale>  0 0.65723811E+03</rscale>
<asrwt>0</asrwt>
<pdfrwt beam="1">  1        1 0.24682306E+00 0.76461959E+03</pdfrwt>
<pdfrwt beam="2">  1       -1 0.47298549E-01 0.76461959E+03</pdfrwt>
<totfact> 0.25513790E+01</totfact>
</mgrwt>
</event>
<event>
 4    1  0.3712574E-007  0.7832762E+03  0.7818608E-02  0.9748197E-01
          1   -1    0    0  501    0  0.00000000000E+00  0.00000000000E+00  0.58547844734E+03  0.58547844736E+03  0.50400000000E-02 0. -1.
         -1   -1    0    0    0  501 -0.00000000000E+00 -0.00000000000E+00 -0.11792098057E+04  0.11792098057E+04  0.50400000000E-02 0.  1.
    8880023    1    1    2    0    0 -0.42030556436E+03 -0.55269104294E+02 -0.92002969005E+03  0.12082947811E+04  0.65864270000E+03 0.  0.
    8880022    1    1    2    0    0  0.42030556436E+03  0.55269104294E+02  0.32629833169E+03  0.55639347192E+03  0.15294330000E+03 0.  0.
<mgrwt>
<rscale>  0 0.68218282E+03</rscale>
<asrwt>0</asrwt>
<pdfrwt beam="1">  1        1 0.90073607E-01 0.78327623E+03</pdfrwt>
<pdfrwt beam="2">  1       -1 0.18141689E+00 0.78327623E+03</pdfrwt>
<totfact> 0.74174484E+00</totfact>
</mgrwt>
</event>
<event>
 4    1  0.3712574E-007  0.6985622E+03  0.7818608E-02  0.1000322E+00
          1   -1    0    0  501    0  0.00000000000E+00  0.00000000000E+00  0.14544466833E+04  0.14544466833E+04  0.50400000000E-02 0. -1.
         -1   -1    0    0    0  501 -0.00000000000E+00 -0.00000000000E+00 -0.53451083425E+03  0.53451083428E+03  0.50400000000E-02 0.  1.
    8880023    1    1    2    0    0  0.10451437210E+03 -0.20797985813E+03 -0.28336360253E+03  0.75384614668E+03  0.65864270000E+03 0.  1.
    8880022    1    1    2    0    0 -0.10451437210E+03  0.20797985813E+03  0.12032994516E+04  0.12351113709E+04  0.15294330000E+03 0.  0.
<mgrwt>
<rscale>  0 0.55509317E+03</rscale>
<asrwt>0</asrwt>
<pdfrwt beam="1">  1        1 0.22376103E+00 0.69856215E+03</pdfrwt>
<pdfrwt beam="2">  1       -1 0.82232436E-01 0.69856215E+03</pdfrwt>
<totfact> 0.10820583E+01</totfact>
</mgrwt>
</event>
<event>
 4    1  0.3712574E-007  0.6604388E+03  0.7818608E-02  0.1023711E+00
         -1   -1    0    0    0  501 -0.00000000000E+00  0.00000000000E+00  0.22742905131E+03  0.22742905136E+03  0.50400000000E-02 0.  1.
          1   -1    0    0  501    0  0.00000000000E+00 -0.00000000000E+00 -0.75880083894E+03  0.75880083896E+03  0.50400000000E-02 0. -1.
    8880023    1    1    2    0    0  0.21283048731E+02 -0.43775227607E+02 -0.36303762840E+03  0.75364166858E+03  0.65864270000E+03 0.  1.
    8880022    1    1    2    0    0 -0.21283048731E+02  0.43775227607E+02 -0.16833415923E+03  0.23258822175E+03  0.15294330000E+03 0. -1.
<mgrwt>
<rscale>  0 0.46370797E+03</rscale>
<asrwt>0</asrwt>
<pdfrwt beam="1">  1        1 0.11673859E+00 0.66043883E+03</pdfrwt>
<pdfrwt beam="2">  1       -1 0.34989085E-01 0.66043883E+03</pdfrwt>
<totfact> 0.19031043E+02</totfact>
</mgrwt>
</event>
<event>
 4    1  0.3712574E-007  0.1066703E+04  0.7818608E-02  0.9299066E-01
          1   -1    0    0  501    0  0.00000000000E+00  0.00000000000E+00  0.99492988309E+03  0.99492988311E+03  0.50400000000E-02 0. -1.
         -1   -1    0    0    0  501 -0.00000000000E+00 -0.00000000000E+00 -0.14486567488E+04  0.14486567488E+04  0.50400000000E-02 0.  1.
    8880023    1    1    2    0    0 -0.52748052880E+03  0.65254129617E+03 -0.97403592708E+03  0.14445075441E+04  0.65864270000E+03 0.  1.
    8880022    1    1    2    0    0  0.52748052880E+03 -0.65254129617E+03  0.52030906133E+03  0.99907908785E+03  0.15294330000E+03 0.  0.
<mgrwt>
<rscale>  0 0.10086888E+04</rscale>
<asrwt>0</asrwt>
<pdfrwt beam="1">  1        1 0.15306614E+00 0.10667034E+04</pdfrwt>
<pdfrwt beam="2">  1       -1 0.22287027E+00 0.10667034E+04</pdfrwt>
<totfact> 0.16029732E+00</totfact>
</mgrwt>
</event>
<event>
 4    1  0.3712574E-007  0.7326989E+03  0.7818608E-02  0.9881749E-01
         -1   -1    0    0    0  501 -0.00000000000E+00  0.00000000000E+00  0.72275997842E+03  0.72275997844E+03  0.50400000000E-02 0.  1.
          1   -1    0    0  501    0  0.00000000000E+00 -0.00000000000E+00 -0.55060760690E+03  0.55060760693E+03  0.50400000000E-02 0. -1.
    8880023    1    1    2    0    0 -0.99874800439E+02 -0.30506149589E+03  0.41567814846E+03  0.84239896807E+03  0.65864270000E+03 0.  0.
    8880022    1    1    2    0    0  0.99874800439E+02  0.30506149589E+03 -0.24352577694E+03  0.43096861729E+03  0.15294330000E+03 0.  0.
<mgrwt>
<rscale>  0 0.61154027E+03</rscale>
<asrwt>0</asrwt>
<pdfrwt beam="1">  1        1 0.84708862E-01 0.73269891E+03</pdfrwt>
<pdfrwt beam="2">  1       -1 0.11119384E+00 0.73269891E+03</pdfrwt>
<totfact> 0.29558780E+01</totfact>
</mgrwt>
</event>
<event>
 4    1  0.3712574E-007  0.8268063E+03  0.7818608E-02  0.9655579E-01
          1   -1    0    0  501    0  0.00000000000E+00  0.00000000000E+00  0.10348260887E+04  0.10348260887E+04  0.50400000000E-02 0. -1.
         -1   -1    0    0    0  501 -0.00000000000E+00 -0.00000000000E+00 -0.68656419990E+03  0.68656419992E+03  0.50400000000E-02 0.  1.
    8880023    1    1    2    0    0  0.19089146319E+03  0.46190793729E+03 -0.30809704509E+03  0.88234488082E+03  0.65864270000E+03 0.  1.
    8880022    1    1    2    0    0 -0.19089146319E+03 -0.46190793729E+03  0.65635893390E+03  0.83904540782E+03  0.15294330000E+03 0.  0.
<mgrwt>
<rscale>  0 0.73724353E+03</rscale>
<asrwt>0</asrwt>
<pdfrwt beam="1">  1        1 0.15920401E+00 0.82680633E+03</pdfrwt>
<pdfrwt beam="2">  1       -1 0.10562526E+00 0.82680633E+03</pdfrwt>
<totfact> 0.12197786E+01</totfact>
</mgrwt>
</event>
<event>
 4    1  0.3712574E-007  0.7547944E+03  0.7818608E-02  0.9818775E-01
          1   -1    0    0  501    0  0.00000000000E+00  0.00000000000E+00  0.96686062101E+03  0.96686062102E+03  0.50400000000E-02 0. -1.
         -1   -1    0    0    0  501 -0.00000000000E+00 -0.00000000000E+00 -0.39890122246E+03  0.39890122249E+03  0.50400000000E-02 0.  1.
    8880023    1    1    2    0    0 -0.64495781086E+02  0.36296647657E+03  0.11743626776E+03  0.76387554754E+03  0.65864270000E+03 0.  0.
    8880022    1    1    2    0    0  0.64495781086E+02 -0.36296647657E+03  0.45052313079E+03  0.60188629597E+03  0.15294330000E+03 0.  0.
<mgrwt>
<rscale>  0 0.64364606E+03</rscale>
<asrwt>0</asrwt>
<pdfrwt beam="1">  1        1 0.14874779E+00 0.75479439E+03</pdfrwt>
<pdfrwt beam="2">  1       -1 0.61369418E-01 0.75479439E+03</pdfrwt>
<totfact> 0.44317723E+01</totfact>
</mgrwt>
</event>
<event>
 4    1  0.3712574E-007  0.1040753E+04  0.7818608E-02  0.9330080E-01
          1   -1    0    0  501    0  0.00000000000E+00  0.00000000000E+00  0.13055526733E+04  0.13055526733E+04  0.50400000000E-02 0. -1.
         -1   -1    0    0    0  501 -0.00000000000E+00 -0.00000000000E+00 -0.19503575047E+04  0.19503575047E+04  0.50400000000E-02 0.  1.
    8880023    1    1    2    0    0  0.48690845083E+03 -0.64208857139E+03 -0.16547660620E+04  0.19548448786E+04  0.65864270000E+03 0.  0.
    8880022    1    1    2    0    0 -0.48690845083E+03  0.64208857139E+03  0.10099612306E+04  0.13010652994E+04  0.15294330000E+03 0.  0.
<mgrwt>
<rscale>  0 0.98060149E+03</rscale>
<asrwt>0</asrwt>
<pdfrwt beam="1">  1        1 0.20085426E+00 0.10407535E+04</pdfrwt>
<pdfrwt beam="2">  1       -1 0.30005500E+00 0.10407535E+04</pdfrwt>
<totfact> 0.29827957E-01</totfact>
</mgrwt>
</event>
<event>
 4    1  0.3712574E-007  0.8076719E+03  0.7818608E-02  0.9694447E-01
         -1   -1    0    0    0  501 -0.00000000000E+00  0.00000000000E+00  0.52532479385E+03  0.52532479387E+03  0.50400000000E-02 0.  1.
          1   -1    0    0  501    0  0.00000000000E+00 -0.00000000000E+00 -0.24886681397E+04  0.24886681397E+04  0.50400000000E-02 0. -1.
    8880023    1    1    2    0    0 -0.39399000562E+03  0.25158616864E+03  0.16942040182E+03  0.82524978255E+03  0.65864270000E+03 0.  1.
    8880022    1    1    2    0    0  0.39399000562E+03 -0.25158616864E+03 -0.21327637477E+04  0.21887431510E+04  0.15294330000E+03 0.  0.
<mgrwt>
<rscale>  0 0.71348389E+03</rscale>
<asrwt>0</asrwt>
<pdfrwt beam="1">  1        1 0.38287201E+00 0.80767192E+03</pdfrwt>
<pdfrwt beam="2">  1       -1 0.80819200E-01 0.80767192E+03</pdfrwt>
<totfact> 0.22140052E+00</totfact>
</mgrwt>
</event>
<event>
 4    1  0.3712574E-007  0.7054391E+03  0.7818608E-02  0.9975344E-01
         -1   -1    0    0    0  501 -0.00000000000E+00  0.00000000000E+00  0.21458893651E+03  0.21458893657E+03  0.50400000000E-02 0.  1.
          1   -1    0    0  501    0  0.00000000000E+00 -0.00000000000E+00 -0.18984053950E+04  0.18984053950E+04  0.50400000000E-02 0. -1.
    8880023    1    1    2    0    0 -0.14189138165E+03 -0.20904775045E+03 -0.43287691338E+03  0.82766343072E+03  0.65864270000E+03 0.  1.
    8880022    1    1    2    0    0  0.14189138165E+03  0.20904775045E+03 -0.12509395451E+04  0.12853309008E+04  0.15294330000E+03 0.  0.
<mgrwt>
<rscale>  0 0.56744694E+03</rscale>
<asrwt>0</asrwt>
<pdfrwt beam="1">  1        1 0.29206236E+00 0.70543911E+03</pdfrwt>
<pdfrwt beam="2">  1       -1 0.33013684E-01 0.70543911E+03</pdfrwt>
<totfact> 0.31352783E+01</totfact>
</mgrwt>
</event>
<event>
 4    1  0.3712574E-007  0.7899361E+03  0.7818608E-02  0.9732994E-01
         -1   -1    0    0    0  501 -0.00000000000E+00  0.00000000000E+00  0.33252751919E+03  0.33252751923E+03  0.50400000000E-02 0.  1.
          1   -1    0    0  501    0  0.00000000000E+00 -0.00000000000E+00 -0.34234237660E+04  0.34234237660E+04  0.50400000000E-02 0. -1.
    8880023    1    1    2    0    0 -0.36804318466E+03 -0.23395099499E+03 -0.18207739975E+03  0.81064865361E+03  0.65864270000E+03 0.  1.
    8880022    1    1    2    0    0  0.36804318466E+03  0.23395099499E+03 -0.29088188471E+04  0.29453026316E+04  0.15294330000E+03 0.  0.
<mgrwt>
<rscale>  0 0.69085861E+03</rscale>
<asrwt>0</asrwt>
<pdfrwt beam="1">  1        1 0.52668055E+00 0.78993611E+03</pdfrwt>
<pdfrwt beam="2">  1       -1 0.51158082E-01 0.78993611E+03</pdfrwt>
<totfact> 0.11892442E+00</totfact>
</mgrwt>
</event>
<event>
 4    1  0.3712574E-007  0.7081363E+03  0.7818608E-02  0.9964988E-01
          1   -1    0    0  501    0  0.00000000000E+00  0.00000000000E+00  0.10146541621E+04  0.10146541622E+04  0.50400000000E-02 0. -1.
         -1   -1    0    0    0  501 -0.00000000000E+00 -0.00000000000E+00 -0.27766121077E+03  0.27766121082E+03  0.50400000000E-02 0.  1.
    8880023    1    1    2    0    0  0.23511383518E+03  0.11121291981E+03  0.31867929909E+03  0.77653945873E+03  0.65864270000E+03 0.  0.
    8880022    1    1    2    0    0 -0.23511383518E+03 -0.11121291981E+03  0.41831365228E+03  0.51577591425E+03  0.15294330000E+03 0.  0.
<mgrwt>
<rscale>  0 0.57212480E+03</rscale>
<asrwt>0</asrwt>
<pdfrwt beam="1">  1        1 0.15610064E+00 0.70813631E+03</pdfrwt>
<pdfrwt beam="2">  1       -1 0.42717110E-01 0.70813631E+03</pdfrwt>
<totfact> 0.81480351E+01</totfact>
</mgrwt>
</event>
<event>
 4    1  0.3712574E-007  0.6707887E+03  0.7818608E-02  0.1015104E+00
          1   -1    0    0  501    0  0.00000000000E+00  0.00000000000E+00  0.12532320053E+04  0.12532320053E+04  0.50400000000E-02 0. -1.
         -1   -1    0    0    0  501 -0.00000000000E+00 -0.00000000000E+00 -0.21387164320E+03  0.21387164326E+03  0.50400000000E-02 0.  1.
    8880023    1    1    2    0    0  0.12365236719E+03  0.29280128587E+02  0.10730146463E+04  0.12654318912E+04  0.65864270000E+03 0. -1.
    8880022    1    1    2    0    0 -0.12365236719E+03 -0.29280128587E+02 -0.33654284241E+02  0.20167175733E+03  0.15294330000E+03 0.  0.
<mgrwt>
<rscale>  0 0.49495686E+03</rscale>
<asrwt>0</asrwt>
<pdfrwt beam="1">  1        1 0.19280492E+00 0.67078867E+03</pdfrwt>
<pdfrwt beam="2">  1       -1 0.32903330E-01 0.67078867E+03</pdfrwt>
<totfact> 0.87184075E+01</totfact>
</mgrwt>
</event>
<event>
 4    1  0.3712574E-007  0.9174848E+03  0.7818608E-02  0.9498526E-01
          1   -1    0    0  501    0  0.00000000000E+00  0.00000000000E+00  0.90212399678E+03  0.90212399679E+03  0.50400000000E-02 0. -1.
         -1   -1    0    0    0  501 -0.00000000000E+00 -0.00000000000E+00 -0.10852933124E+04  0.10852933124E+04  0.50400000000E-02 0.  1.
    8880023    1    1    2    0    0  0.62844972657E+03 -0.11410145595E+03 -0.69807377911E+03  0.11528596655E+04  0.65864270000E+03 0.  1.
    8880022    1    1    2    0    0 -0.62844972657E+03  0.11410145595E+03  0.51490446348E+03  0.83455764367E+03  0.15294330000E+03 0. -1.
<mgrwt>
<rscale>  0 0.84392555E+03</rscale>
<asrwt>0</asrwt>
<pdfrwt beam="1">  1        1 0.13878831E+00 0.91748483E+03</pdfrwt>
<pdfrwt beam="2">  1       -1 0.16696820E+00 0.91748483E+03</pdfrwt>
<totfact> 0.47550240E+00</totfact>
</mgrwt>
</event>
<event>
 4    1  0.3712574E-007  0.6616871E+03  0.7818608E-02  0.1022491E+00
          1   -1    0    0  501    0  0.00000000000E+00  0.00000000000E+00  0.43379073882E+03  0.43379073885E+03  0.50400000000E-02 0. -1.
         -1   -1    0    0    0  501 -0.00000000000E+00 -0.00000000000E+00 -0.11448532690E+04  0.11448532690E+04  0.50400000000E-02 0.  1.
    8880023    1    1    2    0    0  0.31494389372E+02  0.55024321667E+02 -0.10271452952E+04  0.12218253706E+04  0.65864270000E+03 0.  1.
    8880022    1    1    2    0    0 -0.31494389372E+02 -0.55024321667E+02  0.31608276502E+03  0.35681863726E+03  0.15294330000E+03 0.  0.
<mgrwt>
<rscale>  0 0.46798350E+03</rscale>
<asrwt>0</asrwt>
<pdfrwt beam="1">  1        1 0.66737037E-01 0.66168707E+03</pdfrwt>
<pdfrwt beam="2">  1       -1 0.17613127E+00 0.66168707E+03</pdfrwt>
<totfact> 0.12429656E+01</totfact>
</mgrwt>
</event>
<event>
 4    1  0.3712574E-007  0.6732284E+03  0.7818608E-02  0.1013447E+00
         -1   -1    0    0    0  501 -0.00000000000E+00  0.00000000000E+00  0.72629210980E+03  0.72629210982E+03  0.50400000000E-02 0.  1.
          1   -1    0    0  501    0  0.00000000000E+00 -0.00000000000E+00 -0.37431513804E+03  0.37431513807E+03  0.50400000000E-02 0. -1.
    8880023    1    1    2    0    0  0.66581272426E+02 -0.12244668335E+03  0.50639103053E+03  0.84241814924E+03  0.65864270000E+03 0.  1.
    8880022    1    1    2    0    0 -0.66581272426E+02  0.12244668335E+03 -0.15441405877E+03  0.25818909865E+03  0.15294330000E+03 0.  0.
<mgrwt>
<rscale>  0 0.50127379E+03</rscale>
<asrwt>0</asrwt>
<pdfrwt beam="1">  1        1 0.57586945E-01 0.67322839E+03</pdfrwt>
<pdfrwt beam="2">  1       -1 0.11173725E+00 0.67322839E+03</pdfrwt>
<totfact> 0.49507460E+01</totfact>
</mgrwt>
</event>
<event>
 4    1  0.3712574E-007  0.7382554E+03  0.7818608E-02  0.9865058E-01
         -1   -1    0    0    0  501 -0.00000000000E+00  0.00000000000E+00  0.41853819392E+03  0.41853819395E+03  0.50400000000E-02 0.  1.
          1   -1    0    0  501    0  0.00000000000E+00 -0.00000000000E+00 -0.13296788625E+04  0.13296788625E+04  0.50400000000E-02 0. -1.
    8880023    1    1    2    0    0  0.29812050091E+03  0.14944918767E+03  0.29206981472E+02  0.73883296271E+03  0.65864270000E+03 0.  0.
    8880022    1    1    2    0    0 -0.29812050091E+03 -0.14944918767E+03 -0.94034765005E+03  0.10093840938E+04  0.15294330000E+03 0.  0.
<mgrwt>
<rscale>  0 0.61985007E+03</rscale>
<asrwt>0</asrwt>
<pdfrwt beam="1">  1        1 0.20456598E+00 0.73825544E+03</pdfrwt>
<pdfrwt beam="2">  1       -1 0.64390492E-01 0.73825544E+03</pdfrwt>
<totfact> 0.21778738E+01</totfact>
</mgrwt>
</event>
<event>
 4    1  0.3712574E-007  0.7186311E+03  0.7818608E-02  0.9927245E-01
          1   -1    0    0  501    0  0.00000000000E+00  0.00000000000E+00  0.15676659636E+04  0.15676659636E+04  0.50400000000E-02 0. -1.
         -1   -1    0    0    0  501 -0.00000000000E+00 -0.00000000000E+00 -0.30257641050E+03  0.30257641054E+03  0.50400000000E-02 0.  1.
    8880023    1    1    2    0    0 -0.13662025337E+03  0.25289405560E+03  0.18488370395E+03  0.74203280739E+03  0.65864270000E+03 0.  1.
    8880022    1    1    2    0    0  0.13662025337E+03 -0.25289405560E+03  0.10802058491E+04  0.11282095667E+04  0.15294330000E+03 0.  0.
<mgrwt>
<rscale>  0 0.58958846E+03</rscale>
<asrwt>0</asrwt>
<pdfrwt beam="1">  1        1 0.24117938E+00 0.71863113E+03</pdfrwt>
<pdfrwt beam="2">  1       -1 0.46550217E-01 0.71863113E+03</pdfrwt>
<totfact> 0.27999978E+01</totfact>
</mgrwt>
</event>
<event>
 4    1  0.3712574E-007  0.7457344E+03  0.7818608E-02  0.9843547E-01
          1   -1    0    0  501    0  0.00000000000E+00  0.00000000000E+00  0.16189803209E+04  0.16189803209E+04  0.50400000000E-02 0. -1.
         -1   -1    0    0    0  501 -0.00000000000E+00 -0.00000000000E+00 -0.27584651308E+03  0.27584651313E+03  0.50400000000E-02 0.  1.
    8880023    1    1    2    0    0 -0.34426843839E+02  0.34802930046E+03  0.33628459297E+03  0.81805081461E+03  0.65864270000E+03 0.  1.
    8880022    1    1    2    0    0  0.34426843839E+02 -0.34802930046E+03  0.10068492148E+04  0.10767760194E+04  0.15294330000E+03 0.  0.
<mgrwt>
<rscale>  0 0.63077003E+03</rscale>
<asrwt>0</asrwt>
<pdfrwt beam="1">  1        1 0.24907389E+00 0.74573441E+03</pdfrwt>
<pdfrwt beam="2">  1       -1 0.42437925E-01 0.74573441E+03</pdfrwt>
<totfact> 0.30569499E+01</totfact>
</mgrwt>
</event>
<event>
 4    1  0.3712574E-007  0.1230926E+04  0.7818608E-02  0.9127631E-01
         -1   -1    0    0    0  501 -0.00000000000E+00  0.00000000000E+00  0.10431401318E+04  0.10431401318E+04  0.50400000000E-02 0.  1.
          1   -1    0    0  501    0  0.00000000000E+00 -0.00000000000E+00 -0.15965731115E+04  0.15965731115E+04  0.50400000000E-02 0. -1.
    8880023    1    1    2    0    0  0.93906104563E+03  0.44669064143E+03  0.32140722434E+03  0.12721953414E+04  0.65864270000E+03 0.  1.
    8880022    1    1    2    0    0 -0.93906104563E+03 -0.44669064143E+03 -0.87484020402E+03  0.13675179019E+04  0.15294330000E+03 0.  0.
<mgrwt>
<rscale>  0 0.11832660E+04</rscale>
<asrwt>0</asrwt>
<pdfrwt beam="1">  1        1 0.24562663E+00 0.12309258E+04</pdfrwt>
<pdfrwt beam="2">  1       -1 0.16048310E+00 0.12309258E+04</pdfrwt>
<totfact> 0.15887770E+00</totfact>
</mgrwt>
</event>
<event>
 4    1  0.3712574E-007  0.8317821E+03  0.7818608E-02  0.9645875E-01
          1   -1    0    0  501    0  0.00000000000E+00  0.00000000000E+00  0.27257491200E+04  0.27257491200E+04  0.50400000000E-02 0. -1.
         -1   -1    0    0    0  501 -0.00000000000E+00 -0.00000000000E+00 -0.28020062429E+03  0.28020062434E+03  0.50400000000E-02 0.  1.
    8880023    1    1    2    0    0 -0.73676863540E+02 -0.50261617567E+03  0.45949389582E+03  0.95026109403E+03  0.65864270000E+03 0.  0.
    8880022    1    1    2    0    0  0.73676863540E+02  0.50261617567E+03  0.19860545999E+04  0.20556886503E+04  0.15294330000E+03 0.  0.
<mgrwt>
<rscale>  0 0.74332884E+03</rscale>
<asrwt>0</asrwt>
<pdfrwt beam="1">  1        1 0.41934602E+00 0.83178213E+03</pdfrwt>
<pdfrwt beam="2">  1       -1 0.43107788E-01 0.83178213E+03</pdfrwt>
<totfact> 0.52302042E+00</totfact>
</mgrwt>
</event>
<event>
 4    1  0.3712574E-007  0.7231585E+03  0.7818608E-02  0.9912040E-01
         -1   -1    0    0    0  501 -0.00000000000E+00  0.00000000000E+00  0.54091699846E+03  0.54091699848E+03  0.50400000000E-02 0.  1.
          1   -1    0    0  501    0  0.00000000000E+00 -0.00000000000E+00 -0.13538610898E+04  0.13538610898E+04  0.50400000000E-02 0. -1.
    8880023    1    1    2    0    0 -0.23726852293E+03  0.18125019263E+03  0.26164980353E+03  0.76903758702E+03  0.65864270000E+03 0.  1.
    8880022    1    1    2    0    0  0.23726852293E+03 -0.18125019263E+03 -0.10745938949E+04  0.11257405013E+04  0.15294330000E+03 0.  0.
<mgrwt>
<rscale>  0 0.59681304E+03</rscale>
<asrwt>0</asrwt>
<pdfrwt beam="1">  1        1 0.20828632E+00 0.72315848E+03</pdfrwt>
<pdfrwt beam="2">  1       -1 0.83218000E-01 0.72315848E+03</pdfrwt>
<totfact> 0.12337785E+01</totfact>
</mgrwt>
</event>
<event>
 4    1  0.3712574E-007  0.9344439E+03  0.7818608E-02  0.9472858E-01
          1   -1    0    0  501    0  0.00000000000E+00  0.00000000000E+00  0.21135768517E+04  0.21135768517E+04  0.50400000000E-02 0. -1.
         -1   -1    0    0    0  501 -0.00000000000E+00 -0.00000000000E+00 -0.44903970527E+03  0.44903970529E+03  0.50400000000E-02 0.  1.
    8880023    1    1    2    0    0 -0.35719641156E+03 -0.55837793135E+03  0.16331957239E+04  0.18816252734E+04  0.65864270000E+03 0. -1.
    8880022    1    1    2    0    0  0.35719641156E+03  0.55837793135E+03  0.31341422600E+02  0.68099128367E+03  0.15294330000E+03 0.  0.
<mgrwt>
<rscale>  0 0.86314787E+03</rscale>
<asrwt>0</asrwt>
<pdfrwt beam="1">  1        1 0.32516567E+00 0.93444390E+03</pdfrwt>
<pdfrwt beam="2">  1       -1 0.69083031E-01 0.93444390E+03</pdfrwt>
<totfact> 0.54040338E+00</totfact>
</mgrwt>
</event>
<event>
 4    1  0.3712574E-007  0.7263299E+03  0.7818608E-02  0.9901722E-01
          1   -1    0    0  501    0  0.00000000000E+00  0.00000000000E+00  0.19323269472E+04  0.19323269472E+04  0.50400000000E-02 0. -1.
         -1   -1    0    0    0  501 -0.00000000000E+00 -0.00000000000E+00 -0.46079872313E+03  0.46079872316E+03  0.50400000000E-02 0.  1.
    8880023    1    1    2    0    0  0.87392693126E+02 -0.29344062616E+03 -0.14508669019E+03  0.74067890332E+03  0.65864270000E+03 0.  1.
    8880022    1    1    2    0    0 -0.87392693126E+02  0.29344062616E+03  0.16166149142E+04  0.16524467670E+04  0.15294330000E+03 0.  0.
<mgrwt>
<rscale>  0 0.60177893E+03</rscale>
<asrwt>0</asrwt>
<pdfrwt beam="1">  1        1 0.29728106E+00 0.72632988E+03</pdfrwt>
<pdfrwt beam="2">  1       -1 0.70892113E-01 0.72632988E+03</pdfrwt>
<totfact> 0.69984239E+00</totfact>
</mgrwt>
</event>
<event>
 4    1  0.3712574E-007  0.7875151E+03  0.7818608E-02  0.9738471E-01
          1   -1    0    0  501    0  0.00000000000E+00  0.00000000000E+00  0.28029060035E+04  0.28029060035E+04  0.50400000000E-02 0. -1.
         -1   -1    0    0    0  501 -0.00000000000E+00 -0.00000000000E+00 -0.21874268849E+03  0.21874268855E+03  0.50400000000E-02 0.  1.
    8880023    1    1    2    0    0 -0.32505080008E+03 -0.28409810021E+03  0.61298666708E+03  0.99796423456E+03  0.65864270000E+03 0.  0.
    8880022    1    1    2    0    0  0.32505080008E+03  0.28409810021E+03  0.19711766480E+04  0.20236844575E+04  0.15294330000E+03 0.  0.
<mgrwt>
<rscale>  0 0.68771714E+03</rscale>
<asrwt>0</asrwt>
<pdfrwt beam="1">  1        1 0.43121629E+00 0.78751505E+03</pdfrwt>
<pdfrwt beam="2">  1       -1 0.33652723E-01 0.78751505E+03</pdfrwt>
<totfact> 0.72796195E+00</totfact>
</mgrwt>
</event>
<event>
 4    1  0.3712574E-007  0.9300591E+03  0.7818608E-02  0.9479405E-01
         -1   -1    0    0    0  501 -0.00000000000E+00  0.00000000000E+00  0.15145553058E+04  0.15145553058E+04  0.50400000000E-02 0.  1.
          1   -1    0    0  501    0  0.00000000000E+00 -0.00000000000E+00 -0.95579258278E+03  0.95579258279E+03  0.50400000000E-02 0. -1.
    8880023    1    1    2    0    0  0.43839711879E+03 -0.48888405277E+03  0.12145757157E+04  0.15297725407E+04  0.65864270000E+03 0.  1.
    8880022    1    1    2    0    0 -0.43839711879E+03  0.48888405277E+03 -0.65581299265E+03  0.94057534794E+03  0.15294330000E+03 0.  0.
<mgrwt>
<rscale>  0 0.85819412E+03</rscale>
<asrwt>0</asrwt>
<pdfrwt beam="1">  1        1 0.14704501E+00 0.93005906E+03</pdfrwt>
<pdfrwt beam="2">  1       -1 0.23300851E+00 0.93005906E+03</pdfrwt>
<totfact> 0.15030504E+00</totfact>
</mgrwt>
</event>
<event>
 4    1  0.3712574E-007  0.7176530E+03  0.7818608E-02  0.9930609E-01
         -1   -1    0    0    0  501 -0.00000000000E+00  0.00000000000E+00  0.74736474904E+03  0.74736474906E+03  0.50400000000E-02 0.  1.
          1   -1    0    0  501    0  0.00000000000E+00 -0.00000000000E+00 -0.58088465243E+03  0.58088465245E+03  0.50400000000E-02 0. -1.
    8880023    1    1    2    0    0  0.26468729702E+03 -0.10562335819E+03  0.49141979633E+03  0.86978116873E+03  0.65864270000E+03 0.  0.
    8880022    1    1    2    0    0 -0.26468729702E+03  0.10562335819E+03 -0.32493969972E+03  0.45846823278E+03  0.15294330000E+03 0.  0.
<mgrwt>
<rscale>  0 0.58800517E+03</rscale>
<asrwt>0</asrwt>
<pdfrwt beam="1">  1        1 0.89366870E-01 0.71765303E+03</pdfrwt>
<pdfrwt beam="2">  1       -1 0.11497919E+00 0.71765303E+03</pdfrwt>
<totfact> 0.25347413E+01</totfact>
</mgrwt>
</event>
<event>
 4    1  0.3712574E-007  0.6652642E+03  0.7818608E-02  0.1019313E+00
         -1   -1    0    0    0  501 -0.00000000000E+00  0.00000000000E+00  0.23296412028E+03  0.23296412034E+03  0.50400000000E-02 0.  1.
          1   -1    0    0  501    0  0.00000000000E+00 -0.00000000000E+00 -0.11737577854E+04  0.11737577854E+04  0.50400000000E-02 0. -1.
    8880023    1    1    2    0    0 -0.58005619903E+02 -0.73495424045E+02 -0.27958310336E+03  0.72162535103E+03  0.65864270000E+03 0.  0.
    8880022    1    1    2    0    0  0.58005619903E+02  0.73495424045E+02 -0.66121056173E+03  0.68509655469E+03  0.15294330000E+03 0.  0.
<mgrwt>
<rscale>  0 0.47935420E+03</rscale>
<asrwt>0</asrwt>
<pdfrwt beam="1">  1        1 0.18057812E+00 0.66526418E+03</pdfrwt>
<pdfrwt beam="2">  1       -1 0.35840634E-01 0.66526418E+03</pdfrwt>
<totfact> 0.85510229E+01</totfact>
</mgrwt>
</event>
<event>
 4    1  0.3712574E-007  0.8568822E+03  0.7818608E-02  0.9599134E-01
         -1   -1    0    0    0  501 -0.00000000000E+00  0.00000000000E+00  0.35556201369E+03  0.35556201373E+03  0.50400000000E-02 0.  1.
          1   -1    0    0  501    0  0.00000000000E+00 -0.00000000000E+00 -0.18078533658E+04  0.18078533658E+04  0.50400000000E-02 0. -1.
    8880023    1    1    2    0    0 -0.53843980500E+02  0.54547017956E+03 -0.35532948400E+03  0.92763470153E+03  0.65864270000E+03 0.  0.
    8880022    1    1    2    0    0  0.53843980500E+02 -0.54547017956E+03 -0.10969618681E+04  0.12357806780E+04  0.15294330000E+03 0.  0.
<mgrwt>
<rscale>  0 0.77353547E+03</rscale>
<asrwt>0</asrwt>
<pdfrwt beam="1">  1        1 0.27813128E+00 0.85688220E+03</pdfrwt>
<pdfrwt beam="2">  1       -1 0.54701849E-01 0.85688220E+03</pdfrwt>
<totfact> 0.13938169E+01</totfact>
</mgrwt>
</event>
<event>
 4    1  0.3712574E-007  0.7914722E+03  0.7818608E-02  0.9729548E-01
         -1   -1    0    0    0  501 -0.00000000000E+00  0.00000000000E+00  0.37290498162E+03  0.37290498166E+03  0.50400000000E-02 0.  1.
          1   -1    0    0  501    0  0.00000000000E+00 -0.00000000000E+00 -0.23097517846E+04  0.23097517846E+04  0.50400000000E-02 0. -1.
    8880023    1    1    2    0    0  0.15251167841E+03  0.41153155040E+03 -0.11176270477E+03  0.79932417546E+03  0.65864270000E+03 0.  1.
    8880022    1    1    2    0    0 -0.15251167841E+03 -0.41153155040E+03 -0.18250840982E+04  0.18833325908E+04  0.15294330000E+03 0.  0.
<mgrwt>
<rscale>  0 0.69284470E+03</rscale>
<asrwt>0</asrwt>
<pdfrwt beam="1">  1        1 0.35534642E+00 0.79147219E+03</pdfrwt>
<pdfrwt beam="2">  1       -1 0.57369999E-01 0.79147219E+03</pdfrwt>
<totfact> 0.59035622E+00</totfact>
</mgrwt>
</event>
<event>
 4    1  0.3712574E-007  0.1030349E+04  0.7818608E-02  0.9342887E-01
          1   -1    0    0  501    0  0.00000000000E+00  0.00000000000E+00  0.15342601762E+04  0.15342601762E+04  0.50400000000E-02 0. -1.
         -1   -1    0    0    0  501 -0.00000000000E+00 -0.00000000000E+00 -0.82138042853E+03  0.82138042854E+03  0.50400000000E-02 0.  1.
    8880023    1    1    2    0    0 -0.72336183206E+03 -0.32335045330E+03 -0.28811805985E+03  0.10698738610E+04  0.65864270000E+03 0.  1.
    8880022    1    1    2    0    0  0.72336183206E+03  0.32335045330E+03  0.10009978075E+04  0.12857667438E+04  0.15294330000E+03 0.  0.
<mgrwt>
<rscale>  0 0.96928696E+03</rscale>
<asrwt>0</asrwt>
<pdfrwt beam="1">  1        1 0.23604002E+00 0.10303485E+04</pdfrwt>
<pdfrwt beam="2">  1       -1 0.12636622E+00 0.10303485E+04</pdfrwt>
<totfact> 0.33795337E+00</totfact>
</mgrwt>
</event>
<event>
 4    1  0.3712574E-007  0.6666971E+03  0.7818608E-02  0.1018150E+00
         -1   -1    0    0    0  501 -0.00000000000E+00  0.00000000000E+00  0.15506233610E+04  0.15506233610E+04  0.50400000000E-02 0.  1.
          1   -1    0    0  501    0  0.00000000000E+00 -0.00000000000E+00 -0.13207940568E+03  0.13207940577E+03  0.50400000000E-02 0. -1.
    8880023    1    1    2    0    0 -0.50804342157E+02  0.89965526158E+02  0.13065289761E+04  0.14668002757E+04  0.65864270000E+03 0.  1.
    8880022    1    1    2    0    0  0.50804342157E+02 -0.89965526158E+02  0.11201497921E+03  0.21590249110E+03  0.15294330000E+03 0.  0.
<mgrwt>
<rscale>  0 0.48360127E+03</rscale>
<asrwt>0</asrwt>
<pdfrwt beam="1">  1        1 0.20319909E-01 0.66669715E+03</pdfrwt>
<pdfrwt beam="2">  1       -1 0.23855743E+00 0.66669715E+03</pdfrwt>
<totfact> 0.22104536E+01</totfact>
</mgrwt>
</event>
<event>
 4    1  0.3712574E-007  0.7112705E+03  0.7818608E-02  0.9953313E-01
         -1   -1    0    0    0  501 -0.00000000000E+00  0.00000000000E+00  0.56215440064E+03  0.56215440067E+03  0.50400000000E-02 0.  1.
          1   -1    0    0  501    0  0.00000000000E+00 -0.00000000000E+00 -0.58806315570E+03  0.58806315572E+03  0.50400000000E-02 0. -1.
    8880023    1    1    2    0    0 -0.17670280767E+03  0.20216744969E+03  0.23154673699E+03  0.74801046626E+03  0.65864270000E+03 0.  0.
    8880022    1    1    2    0    0  0.17670280767E+03 -0.20216744969E+03 -0.25745549205E+03  0.40220709013E+03  0.15294330000E+03 0.  0.
<mgrwt>
<rscale>  0 0.57745649E+03</rscale>
<asrwt>0</asrwt>
<pdfrwt beam="1">  1        1 0.90471255E-01 0.71127053E+03</pdfrwt>
<pdfrwt beam="2">  1       -1 0.86485292E-01 0.71127053E+03</pdfrwt>
<totfact> 0.47673035E+01</totfact>
</mgrwt>
</event>
<event>
 4    1  0.3712574E-007  0.6912316E+03  0.7818608E-02  0.1003573E+00
         -1   -1    0    0    0  501 -0.00000000000E+00  0.00000000000E+00  0.50230843169E+03  0.50230843171E+03  0.50400000000E-02 0.  1.
          1   -1    0    0  501    0  0.00000000000E+00 -0.00000000000E+00 -0.67232666443E+03  0.67232666445E+03  0.50400000000E-02 0. -1.
    8880023    1    1    2    0    0  0.20687608539E+03  0.34541978266E+02  0.20278338981E+03  0.72036252846E+03  0.65864270000E+03 0.  1.
    8880022    1    1    2    0    0 -0.20687608539E+03 -0.34541978266E+02 -0.37280162255E+03  0.45427256770E+03  0.15294330000E+03 0.  0.
<mgrwt>
<rscale>  0 0.54111064E+03</rscale>
<asrwt>0</asrwt>
<pdfrwt beam="1">  1        1 0.10343487E+00 0.69123156E+03</pdfrwt>
<pdfrwt beam="2">  1       -1 0.77278220E-01 0.69123156E+03</pdfrwt>
<totfact> 0.49968334E+01</totfact>
</mgrwt>
</event>
<event>
 4    1  0.3712574E-007  0.8240612E+03  0.7818608E-02  0.9661000E-01
          1   -1    0    0  501    0  0.00000000000E+00  0.00000000000E+00  0.21163676089E+04  0.21163676089E+04  0.50400000000E-02 0. -1.
         -1   -1    0    0    0  501 -0.00000000000E+00 -0.00000000000E+00 -0.38955615028E+03  0.38955615031E+03  0.50400000000E-02 0.  1.
    8880023    1    1    2    0    0 -0.46857910539E+03 -0.16031297020E+03  0.13906213460E+03  0.83571233685E+03  0.65864270000E+03 0.  1.
    8880022    1    1    2    0    0  0.46857910539E+03  0.16031297020E+03  0.15877493240E+04  0.16702114224E+04  0.15294330000E+03 0.  0.
<mgrwt>
<rscale>  0 0.73387082E+03</rscale>
<asrwt>0</asrwt>
<pdfrwt beam="1">  1        1 0.32559502E+00 0.82406118E+03</pdfrwt>
<pdfrwt beam="2">  1       -1 0.59931715E-01 0.82406118E+03</pdfrwt>
<totfact> 0.72742264E+00</totfact>
</mgrwt>
</event>
<event>
 4    1  0.3712574E-007  0.6723376E+03  0.7818608E-02  0.1014040E+00
          1   -1    0    0  501    0  0.00000000000E+00  0.00000000000E+00  0.30954317373E+03  0.30954317377E+03  0.50400000000E-02 0. -1.
         -1   -1    0    0    0  501 -0.00000000000E+00 -0.00000000000E+00 -0.14089717626E+04  0.14089717626E+04  0.50400000000E-02 0.  1.
    8880023    1    1    2    0    0  0.10816229640E+03  0.80799223901E+02 -0.12801531534E+04  0.14459702277E+04  0.65864270000E+03 0.  1.
    8880022    1    1    2    0    0 -0.10816229640E+03 -0.80799223901E+02  0.18072456458E+03  0.27254470863E+03  0.15294330000E+03 0.  0.
<mgrwt>
<rscale>  0 0.49900203E+03</rscale>
<asrwt>0</asrwt>
<pdfrwt beam="1">  1        1 0.47622027E-01 0.67233757E+03</pdfrwt>
<pdfrwt beam="2">  1       -1 0.21676488E+00 0.67233757E+03</pdfrwt>
<totfact> 0.10149606E+01</totfact>
</mgrwt>
</event>
<event>
 4    1  0.3712574E-007  0.1427253E+04  0.7818608E-02  0.8962791E-01
          1   -1    0    0  501    0  0.00000000000E+00  0.00000000000E+00  0.16823301185E+04  0.16823301185E+04  0.50400000000E-02 0. -1.
         -1   -1    0    0    0  501 -0.00000000000E+00 -0.00000000000E+00 -0.23532738326E+04  0.23532738326E+04  0.50400000000E-02 0.  1.
    8880023    1    1    2    0    0  0.64582826633E+03  0.10891036963E+04 -0.18241473988E+04  0.23161530497E+04  0.65864270000E+03 0.  0.
    8880022    1    1    2    0    0 -0.64582826633E+03 -0.10891036963E+04  0.11532036847E+04  0.17194509014E+04  0.15294330000E+03 0.  0.
<mgrwt>
<rscale>  0 0.13876723E+04</rscale>
<asrwt>0</asrwt>
<pdfrwt beam="1">  1        1 0.25882002E+00 0.14272530E+04</pdfrwt>
<pdfrwt beam="2">  1       -1 0.36204213E+00 0.14272530E+04</pdfrwt>
<totfact> 0.60460251E-02</totfact>
</mgrwt>
</event>
<event>
 4    1  0.3712574E-007  0.7191212E+03  0.7818608E-02  0.9925571E-01
         -1   -1    0    0    0  501 -0.00000000000E+00  0.00000000000E+00  0.18913026413E+04  0.18913026413E+04  0.50400000000E-02 0.  1.
          1   -1    0    0  501    0  0.00000000000E+00 -0.00000000000E+00 -0.42894407122E+03  0.42894407125E+03  0.50400000000E-02 0. -1.
    8880023    1    1    2    0    0  0.83406568934E+02 -0.27634831697E+03  0.17455715012E+04  0.18878970099E+04  0.65864270000E+03 0.  1.
    8880022    1    1    2    0    0 -0.83406568934E+02  0.27634831697E+03 -0.28321293109E+03  0.43234970265E+03  0.15294330000E+03 0.  0.
<mgrwt>
<rscale>  0 0.59037860E+03</rscale>
<asrwt>0</asrwt>
<pdfrwt beam="1">  1        1 0.65991396E-01 0.71912117E+03</pdfrwt>
<pdfrwt beam="2">  1       -1 0.29096964E+00 0.71912117E+03</pdfrwt>
<totfact> 0.21786687E+00</totfact>
</mgrwt>
</event>
<event>
 4    1  0.3712574E-007  0.7298238E+03  0.7818608E-02  0.9890647E-01
         -1   -1    0    0    0  501 -0.00000000000E+00  0.00000000000E+00  0.43563458092E+03  0.43563458095E+03  0.50400000000E-02 0.  1.
          1   -1    0    0  501    0  0.00000000000E+00 -0.00000000000E+00 -0.83214541418E+03  0.83214541419E+03  0.50400000000E-02 0. -1.
    8880023    1    1    2    0    0 -0.28545938250E+03  0.13170223742E+03  0.12222101009E+02  0.72992610887E+03  0.65864270000E+03 0.  0.
    8880022    1    1    2    0    0  0.28545938250E+03 -0.13170223742E+03 -0.40873293427E+03  0.53785388626E+03  0.15294330000E+03 0.  0.
<mgrwt>
<rscale>  0 0.60716699E+03</rscale>
<asrwt>0</asrwt>
<pdfrwt beam="1">  1        1 0.12802237E+00 0.72982378E+03</pdfrwt>
<pdfrwt beam="2">  1       -1 0.67020705E-01 0.72982378E+03</pdfrwt>
<totfact> 0.47955729E+01</totfact>
</mgrwt>
</event>
<event>
 4    1  0.3712574E-007  0.9547703E+03  0.7818608E-02  0.9443284E-01
          1   -1    0    0  501    0  0.00000000000E+00  0.00000000000E+00  0.13795178643E+04  0.13795178644E+04  0.50400000000E-02 0. -1.
         -1   -1    0    0    0  501 -0.00000000000E+00 -0.00000000000E+00 -0.66817070281E+03  0.66817070283E+03  0.50400000000E-02 0.  1.
    8880023    1    1    2    0    0  0.11830690680E+03  0.68101359282E+03 -0.11259707389E+03  0.96138667825E+03  0.65864270000E+03 0.  1.
    8880022    1    1    2    0    0 -0.11830690680E+03 -0.68101359282E+03  0.82394423542E+03  0.10863018889E+04  0.15294330000E+03 0.  0.
<mgrwt>
<rscale>  0 0.88597618E+03</rscale>
<asrwt>0</asrwt>
<pdfrwt beam="1">  1        1 0.21223352E+00 0.95477026E+03</pdfrwt>
<pdfrwt beam="2">  1       -1 0.10279549E+00 0.95477026E+03</pdfrwt>
<totfact> 0.71744519E+00</totfact>
</mgrwt>
</event>
<event>
 4    1  0.3712574E-007  0.9971585E+03  0.7818608E-02  0.9385285E-01
         -1   -1    0    0    0  501 -0.00000000000E+00  0.00000000000E+00  0.10999324444E+04  0.10999324444E+04  0.50400000000E-02 0.  1.
          1   -1    0    0  501    0  0.00000000000E+00 -0.00000000000E+00 -0.90643333641E+03  0.90643333642E+03  0.50400000000E-02 0. -1.
    8880023    1    1    2    0    0 -0.49223177520E+03  0.56411239076E+03  0.57629095726E+03  0.11517101995E+04  0.65864270000E+03 0.  0.
    8880022    1    1    2    0    0  0.49223177520E+03 -0.56411239076E+03 -0.38279184923E+03  0.85465558138E+03  0.15294330000E+03 0.  0.
<mgrwt>
<rscale>  0 0.93296655E+03</rscale>
<asrwt>0</asrwt>
<pdfrwt beam="1">  1        1 0.13945128E+00 0.99715852E+03</pdfrwt>
<pdfrwt beam="2">  1       -1 0.16922038E+00 0.99715852E+03</pdfrwt>
<totfact> 0.44964245E+00</totfact>
</mgrwt>
</event>
<event>
 4    1  0.3712574E-007  0.6836790E+03  0.7818608E-02  0.1007315E+00
          1   -1    0    0  501    0  0.00000000000E+00  0.00000000000E+00  0.55203793724E+03  0.55203793726E+03  0.50400000000E-02 0. -1.
         -1   -1    0    0    0  501 -0.00000000000E+00 -0.00000000000E+00 -0.80265728205E+03  0.80265728207E+03  0.50400000000E-02 0.  1.
    8880023    1    1    2    0    0  0.13802379485E+03 -0.12064911107E+03 -0.61465405450E+03  0.91935661684E+03  0.65864270000E+03 0.  0.
    8880022    1    1    2    0    0 -0.13802379485E+03  0.12064911107E+03  0.36403470969E+03  0.43533860249E+03  0.15294330000E+03 0. -1.
<mgrwt>
<rscale>  0 0.52555968E+03</rscale>
<asrwt>0</asrwt>
<pdfrwt beam="1">  1        1 0.84928913E-01 0.68367901E+03</pdfrwt>
<pdfrwt beam="2">  1       -1 0.12348574E+00 0.68367901E+03</pdfrwt>
<totfact> 0.22994499E+01</totfact>
</mgrwt>
</event>
<event>
 4    1  0.3712574E-007  0.9530424E+03  0.7818608E-02  0.9445750E-01
         -1   -1    0    0    0  501 -0.00000000000E+00  0.00000000000E+00  0.12462088636E+04  0.12462088636E+04  0.50400000000E-02 0.  1.
          1   -1    0    0  501    0  0.00000000000E+00 -0.00000000000E+00 -0.85015860298E+03  0.85015860300E+03  0.50400000000E-02 0. -1.
    8880023    1    1    2    0    0 -0.62702576145E+03 -0.28516377621E+03  0.83355514503E+03  0.12661374613E+04  0.65864270000E+03 0.  0.
    8880022    1    1    2    0    0  0.62702576145E+03  0.28516377621E+03 -0.43750488444E+03  0.83023000530E+03  0.15294330000E+03 0.  0.
<mgrwt>
<rscale>  0 0.88404388E+03</rscale>
<asrwt>0</asrwt>
<pdfrwt beam="1">  1        1 0.13079363E+00 0.95304244E+03</pdfrwt>
<pdfrwt beam="2">  1       -1 0.19172444E+00 0.95304244E+03</pdfrwt>
<totfact> 0.34728685E+00</totfact>
</mgrwt>
</event>
<event>
 4    1  0.3712575E-007  0.8686160E+03  0.7818608E-02  0.9578417E-01
          1   -1    0    0  501    0  0.00000000000E+00  0.00000000000E+00  0.18566521542E+04  0.18566521542E+04  0.50400000000E-02 0. -1.
         -1   -1    0    0    0  501 -0.00000000000E+00 -0.00000000000E+00 -0.83043841226E+03  0.83043841227E+03  0.50400000000E-02 0.  1.
    8880023    1    1    2    0    0 -0.40104498611E+03  0.39980805600E+03 -0.53442634397E+03  0.10198555221E+04  0.65864270000E+03 0.  1.
    8880022    1    1    2    0    0  0.40104498611E+03 -0.39980805600E+03  0.15606400859E+04  0.16672350444E+04  0.15294330000E+03 0.  0.
<mgrwt>
<rscale>  0 0.78741294E+03</rscale>
<asrwt>0</asrwt>
<pdfrwt beam="1">  1        1 0.28563879E+00 0.86861601E+03</pdfrwt>
<pdfrwt beam="2">  1       -1 0.12775976E+00 0.86861601E+03</pdfrwt>
<totfact> 0.20342408E+00</totfact>
</mgrwt>
</event>
<event>
 4    1  0.3712574E-007  0.1329794E+04  0.7818608E-02  0.9040248E-01
         -1   -1    0    0    0  501 -0.00000000000E+00  0.00000000000E+00  0.17371220663E+04  0.17371220663E+04  0.50400000000E-02 0.  1.
          1   -1    0    0  501    0  0.00000000000E+00 -0.00000000000E+00 -0.14042424239E+04  0.14042424239E+04  0.50400000000E-02 0. -1.
    8880023    1    1    2    0    0  0.10830528259E+04 -0.40191990301E+03 -0.77022865237E+03  0.15367515789E+04  0.65864270000E+03 0.  0.
    8880022    1    1    2    0    0 -0.10830528259E+04  0.40191990301E+03  0.11031082947E+04  0.16046129113E+04  0.15294330000E+03 0.  0.
<mgrwt>
<rscale>  0 0.12866139E+04</rscale>
<asrwt>0</asrwt>
<pdfrwt beam="1">  1        1 0.21603730E+00 0.13297944E+04</pdfrwt>
<pdfrwt beam="2">  1       -1 0.26724955E+00 0.13297944E+04</pdfrwt>
<totfact> 0.39654430E-01</totfact>
</mgrwt>
</event>
<event>
 4    1  0.3712574E-007  0.7547704E+03  0.7818608E-02  0.9818839E-01
          1   -1    0    0  501    0  0.00000000000E+00  0.00000000000E+00  0.10589310471E+04  0.10589310471E+04  0.50400000000E-02 0. -1.
         -1   -1    0    0    0  501 -0.00000000000E+00 -0.00000000000E+00 -0.50061657891E+03  0.50061657893E+03  0.50400000000E-02 0.  1.
    8880023    1    1    2    0    0 -0.36820913780E+03 -0.17033210904E+02 -0.12809130815E+03  0.76556233510E+03  0.65864270000E+03 0.  1.
    8880022    1    1    2    0    0  0.36820913780E+03  0.17033210904E+02  0.68640577630E+03  0.79398529092E+03  0.15294330000E+03 0.  0.
<mgrwt>
<rscale>  0 0.64361237E+03</rscale>
<asrwt>0</asrwt>
<pdfrwt beam="1">  1        1 0.16291247E+00 0.75477037E+03</pdfrwt>
<pdfrwt beam="2">  1       -1 0.77017936E-01 0.75477037E+03</pdfrwt>
<totfact> 0.23684512E+01</totfact>
</mgrwt>
</event>
<event>
 4    1  0.3712574E-007  0.7040001E+03  0.7818608E-02  0.9980995E-01
          1   -1    0    0  501    0  0.00000000000E+00  0.00000000000E+00  0.41299512263E+03  0.41299512266E+03  0.50400000000E-02 0. -1.
         -1   -1    0    0    0  501 -0.00000000000E+00 -0.00000000000E+00 -0.92927073669E+03  0.92927073671E+03  0.50400000000E-02 0.  1.
    8880023    1    1    2    0    0  0.24854364941E+03 -0.56528073670E+01 -0.70369356405E+03  0.99538974188E+03  0.65864270000E+03 0.  1.
    8880022    1    1    2    0    0 -0.24854364941E+03  0.56528073670E+01  0.18741794999E+03  0.34687611749E+03  0.15294330000E+03 0.  0.
<mgrwt>
<rscale>  0 0.56491476E+03</rscale>
<asrwt>0</asrwt>
<pdfrwt beam="1">  1        1 0.63537711E-01 0.70400008E+03</pdfrwt>
<pdfrwt beam="2">  1       -1 0.14296473E+00 0.70400008E+03</pdfrwt>
<totfact> 0.23482151E+01</totfact>
</mgrwt>
</event>
<event>
 4    1  0.3712574E-007  0.9863952E+03  0.7818608E-02  0.9399577E-01
         -1   -1    0    0    0  501 -0.00000000000E+00  0.00000000000E+00  0.13251706746E+04  0.13251706746E+04  0.50400000000E-02 0.  1.
          1   -1    0    0  501    0  0.00000000000E+00 -0.00000000000E+00 -0.10633101373E+04  0.10633101373E+04  0.50400000000E-02 0. -1.
    8880023    1    1    2    0    0  0.34880356786E+02  0.73344984612E+03  0.95081329944E+03  0.13700443251E+04  0.65864270000E+03 0.  1.
    8880022    1    1    2    0    0 -0.34880356786E+02 -0.73344984612E+03 -0.68895276219E+03  0.10184364868E+04  0.15294330000E+03 0.  0.
<mgrwt>
<rscale>  0 0.92110477E+03</rscale>
<asrwt>0</asrwt>
<pdfrwt beam="1">  1        1 0.16358618E+00 0.98639522E+03</pdfrwt>
<pdfrwt beam="2">  1       -1 0.20387241E+00 0.98639522E+03</pdfrwt>
<totfact> 0.19260390E+00</totfact>
</mgrwt>
</event>
<event>
 4    1  0.3712574E-007  0.7514395E+03  0.7818608E-02  0.9827796E-01
         -1   -1    0    0    0  501 -0.00000000000E+00  0.00000000000E+00  0.15422170326E+04  0.15422170326E+04  0.50400000000E-02 0.  1.
          1   -1    0    0  501    0  0.00000000000E+00 -0.00000000000E+00 -0.48197465773E+03  0.48197465776E+03  0.50400000000E-02 0. -1.
    8880023    1    1    2    0    0  0.28448151625E+03  0.22343091180E+03  0.13439079921E+04  0.15397240022E+04  0.65864270000E+03 0.  1.
    8880022    1    1    2    0    0 -0.28448151625E+03 -0.22343091180E+03 -0.28366561726E+03  0.48446768816E+03  0.15294330000E+03 0.  0.
<mgrwt>
<rscale>  0 0.63891945E+03</rscale>
<asrwt>0</asrwt>
<pdfrwt beam="1">  1        1 0.74149947E-01 0.75143949E+03</pdfrwt>
<pdfrwt beam="2">  1       -1 0.23726416E+00 0.75143949E+03</pdfrwt>
<totfact> 0.40963250E+00</totfact>
</mgrwt>
</event>
<event>
 4    1  0.3712574E-007  0.6929856E+03  0.7818608E-02  0.1002765E+00
          1   -1    0    0  501    0  0.00000000000E+00  0.00000000000E+00  0.16839383035E+04  0.16839383035E+04  0.50400000000E-02 0. -1.
         -1   -1    0    0    0  501 -0.00000000000E+00 -0.00000000000E+00 -0.49677340624E+03  0.49677340627E+03  0.50400000000E-02 0.  1.
    8880023    1    1    2    0    0  0.13850516339E+02 -0.21500468366E+03 -0.23688740687E+03  0.73235558344E+03  0.65864270000E+03 0.  1.
    8880022    1    1    2    0    0 -0.13850516339E+02  0.21500468366E+03  0.14240523041E+04  0.14483561263E+04  0.15294330000E+03 0.  0.
<mgrwt>
<rscale>  0 0.54454435E+03</rscale>
<asrwt>0</asrwt>
<pdfrwt beam="1">  1        1 0.25906743E+00 0.69298561E+03</pdfrwt>
<pdfrwt beam="2">  1       -1 0.76426678E-01 0.69298561E+03</pdfrwt>
<totfact> 0.88326343E+00</totfact>
</mgrwt>
</event>
<event>
 4    1  0.3712574E-007  0.7920589E+03  0.7818608E-02  0.9728237E-01
         -1   -1    0    0    0  501 -0.00000000000E+00  0.00000000000E+00  0.20697049787E+03  0.20697049793E+03  0.50400000000E-02 0.  1.
          1   -1    0    0  501    0  0.00000000000E+00 -0.00000000000E+00 -0.19803864351E+04  0.19803864351E+04  0.50400000000E-02 0. -1.
    8880023    1    1    2    0    0  0.37772785028E+03 -0.22554115029E+03 -0.13065584385E+04  0.15278914552E+04  0.65864270000E+03 0.  0.
    8880022    1    1    2    0    0 -0.37772785028E+03  0.22554115029E+03 -0.46685749875E+03  0.65946547787E+03  0.15294330000E+03 0.  0.
<mgrwt>
<rscale>  0 0.69360190E+03</rscale>
<asrwt>0</asrwt>
<pdfrwt beam="1">  1        1 0.30467482E+00 0.79205893E+03</pdfrwt>
<pdfrwt beam="2">  1       -1 0.31841617E-01 0.79205893E+03</pdfrwt>
<totfact> 0.29127029E+01</totfact>
</mgrwt>
</event>
<event>
 4    1  0.3712574E-007  0.6626213E+03  0.7818608E-02  0.1021618E+00
          1   -1    0    0  501    0  0.00000000000E+00  0.00000000000E+00  0.62617086175E+03  0.62617086177E+03  0.50400000000E-02 0. -1.
         -1   -1    0    0    0  501 -0.00000000000E+00 -0.00000000000E+00 -0.58978435257E+03  0.58978435259E+03  0.50400000000E-02 0.  1.
    8880023    1    1    2    0    0 -0.14702785260E+02 -0.70997312660E+02 -0.38184685306E+03  0.76477056413E+03  0.65864270000E+03 0.  1.
    8880022    1    1    2    0    0  0.14702785260E+02  0.70997312660E+02  0.41823336224E+03  0.45118465023E+03  0.15294330000E+03 0.  0.
<mgrwt>
<rscale>  0 0.47107133E+03</rscale>
<asrwt>0</asrwt>
<pdfrwt beam="1">  1        1 0.96333979E-01 0.66262131E+03</pdfrwt>
<pdfrwt beam="2">  1       -1 0.90736054E-01 0.66262131E+03</pdfrwt>
<totfact> 0.39407727E+01</totfact>
</mgrwt>
</event>
<event>
 4    1  0.3712574E-007  0.8335199E+03  0.7818608E-02  0.9642522E-01
          1   -1    0    0  501    0  0.00000000000E+00  0.00000000000E+00  0.30780071233E+04  0.30780071233E+04  0.50400000000E-02 0. -1.
         -1   -1    0    0    0  501 -0.00000000000E+00 -0.00000000000E+00 -0.65327667028E+03  0.65327667030E+03  0.50400000000E-02 0.  1.
    8880023    1    1    2    0    0  0.18186606907E+03  0.47735721453E+03 -0.35128430208E+03  0.90451978668E+03  0.65864270000E+03 0.  0.
    8880022    1    1    2    0    0 -0.18186606907E+03 -0.47735721453E+03  0.27760147551E+04  0.28267640069E+04  0.15294330000E+03 0.  0.
<mgrwt>
<rscale>  0 0.74544586E+03</rscale>
<asrwt>0</asrwt>
<pdfrwt beam="1">  1        1 0.47353956E+00 0.83351988E+03</pdfrwt>
<pdfrwt beam="2">  1       -1 0.10050410E+00 0.83351988E+03</pdfrwt>
<totfact> 0.52497934E-01</totfact>
</mgrwt>
</event>
<event>
 4    1  0.3712574E-007  0.6976708E+03  0.7818608E-02  0.1000700E+00
          1   -1    0    0  501    0  0.00000000000E+00  0.00000000000E+00  0.98815640695E+03  0.98815640697E+03  0.50400000000E-02 0. -1.
         -1   -1    0    0    0  501 -0.00000000000E+00 -0.00000000000E+00 -0.24370223136E+03  0.24370223141E+03  0.50400000000E-02 0.  1.
    8880023    1    1    2    0    0  0.87556440365E+02 -0.21276313299E+03  0.59954038757E+03  0.91988758205E+03  0.65864270000E+03 0.  0.
    8880022    1    1    2    0    0 -0.87556440365E+02  0.21276313299E+03  0.14491378803E+03  0.31197105633E+03  0.15294330000E+03 0. -1.
<mgrwt>
<rscale>  0 0.55344174E+03</rscale>
<asrwt>0</asrwt>
<pdfrwt beam="1">  1        1 0.15202406E+00 0.69767076E+03</pdfrwt>
<pdfrwt beam="2">  1       -1 0.37492651E-01 0.69767076E+03</pdfrwt>
<totfact> 0.10836996E+02</totfact>
</mgrwt>
</event>
<event>
 4    1  0.3712574E-007  0.7493626E+03  0.7818608E-02  0.9833468E-01
          1   -1    0    0  501    0  0.00000000000E+00  0.00000000000E+00  0.14906916558E+04  0.14906916558E+04  0.50400000000E-02 0. -1.
         -1   -1    0    0    0  501 -0.00000000000E+00 -0.00000000000E+00 -0.30949523637E+03  0.30949523641E+03  0.50400000000E-02 0.  1.
    8880023    1    1    2    0    0 -0.97951458777E+02 -0.34371448062E+03  0.24812835591E+03  0.78937444837E+03  0.65864270000E+03 0.  1.
    8880022    1    1    2    0    0  0.97951458777E+02  0.34371448062E+03  0.93306806351E+03  0.10108124438E+04  0.15294330000E+03 0.  0.
<mgrwt>
<rscale>  0 0.63596958E+03</rscale>
<asrwt>0</asrwt>
<pdfrwt beam="1">  1        1 0.22933718E+00 0.74936262E+03</pdfrwt>
<pdfrwt beam="2">  1       -1 0.47614651E-01 0.74936262E+03</pdfrwt>
<totfact> 0.30173102E+01</totfact>
</mgrwt>
</event>
<event>
 4    1  0.3712574E-007  0.7345957E+03  0.7818608E-02  0.9875979E-01
          1   -1    0    0  501    0  0.00000000000E+00  0.00000000000E+00  0.12395578640E+04  0.12395578641E+04  0.50400000000E-02 0. -1.
         -1   -1    0    0    0  501 -0.00000000000E+00 -0.00000000000E+00 -0.52973855860E+03  0.52973855863E+03  0.50400000000E-02 0.  1.
    8880023    1    1    2    0    0 -0.24845139041E+03  0.20998213628E+03 -0.22456512551E+03  0.76815382106E+03  0.65864270000E+03 0.  1.
    8880022    1    1    2    0    0  0.24845139041E+03 -0.20998213628E+03  0.93438443095E+03  0.10011426016E+04  0.15294330000E+03 0.  0.
<mgrwt>
<rscale>  0 0.61439720E+03</rscale>
<asrwt>0</asrwt>
<pdfrwt beam="1">  1        1 0.19070121E+00 0.73459567E+03</pdfrwt>
<pdfrwt beam="2">  1       -1 0.81498241E-01 0.73459567E+03</pdfrwt>
<totfact> 0.15516387E+01</totfact>
</mgrwt>
</event>
<event>
 4    1  0.3712574E-007  0.6799130E+03  0.7818608E-02  0.1009373E+00
         -1   -1    0    0    0  501 -0.00000000000E+00  0.00000000000E+00  0.24270970544E+03  0.24270970549E+03  0.50400000000E-02 0.  1.
          1   -1    0    0  501    0  0.00000000000E+00 -0.00000000000E+00 -0.13901852715E+04  0.13901852715E+04  0.50400000000E-02 0. -1.
    8880023    1    1    2    0    0  0.16464565526E+03  0.36921904487E+02 -0.27878439871E+03  0.73484853273E+03  0.65864270000E+03 0.  1.
    8880022    1    1    2    0    0 -0.16464565526E+03 -0.36921904487E+02 -0.86869116738E+03  0.89804644430E+03  0.15294330000E+03 0.  0.
<mgrwt>
<rscale>  0 0.51724615E+03</rscale>
<asrwt>0</asrwt>
<pdfrwt beam="1">  1        1 0.21387465E+00 0.67991295E+03</pdfrwt>
<pdfrwt beam="2">  1       -1 0.37339955E-01 0.67991295E+03</pdfrwt>
<totfact> 0.55738653E+01</totfact>
</mgrwt>
</event>
<event>
 4    1  0.3712574E-007  0.6678658E+03  0.7818608E-02  0.1017241E+00
         -1   -1    0    0    0  501 -0.00000000000E+00  0.00000000000E+00  0.97656181730E+02  0.97656181860E+02  0.50400000000E-02 0.  1.
          1   -1    0    0  501    0  0.00000000000E+00 -0.00000000000E+00 -0.36460787137E+04  0.36460787137E+04  0.50400000000E-02 0. -1.
    8880023    1    1    2    0    0  0.55620398141E+02  0.95607895478E+02 -0.10917990046E+04  0.12798709979E+04  0.65864270000E+03 0.  1.
    8880022    1    1    2    0    0 -0.55620398141E+02 -0.95607895478E+02 -0.24566235273E+04  0.24638638977E+04  0.15294330000E+03 0.  0.
<mgrwt>
<rscale>  0 0.48695408E+03</rscale>
<asrwt>0</asrwt>
<pdfrwt beam="1">  1        1 0.56093508E+00 0.66786578E+03</pdfrwt>
<pdfrwt beam="2">  1       -1 0.15024031E-01 0.66786578E+03</pdfrwt>
<totfact> 0.68841185E+00</totfact>
</mgrwt>
</event>
<event>
 4    1  0.3712574E-007  0.9656641E+03  0.7818608E-02  0.9427926E-01
          1   -1    0    0  501    0  0.00000000000E+00  0.00000000000E+00  0.38922153624E+03  0.38922153627E+03  0.50400000000E-02 0. -1.
         -1   -1    0    0    0  501 -0.00000000000E+00 -0.00000000000E+00 -0.22223122608E+04  0.22223122608E+04  0.50400000000E-02 0.  1.
    8880023    1    1    2    0    0  0.40026528620E+03  0.58179436476E+03 -0.15687506426E+04  0.18421416252E+04  0.65864270000E+03 0.  0.
    8880022    1    1    2    0    0 -0.40026528620E+03 -0.58179436476E+03 -0.26434008188E+03  0.76939217186E+03  0.15294330000E+03 0.  1.
<mgrwt>
<rscale>  0 0.89812669E+03</rscale>
<asrwt>0</asrwt>
<pdfrwt beam="1">  1        1 0.59880238E-01 0.96566412E+03</pdfrwt>
<pdfrwt beam="2">  1       -1 0.34189419E+00 0.96566412E+03</pdfrwt>
<totfact> 0.11211279E+00</totfact>
</mgrwt>
</event>
<event>
 4    1  0.3712574E-007  0.6619322E+03  0.7818608E-02  0.1022259E+00
         -1   -1    0    0    0  501 -0.00000000000E+00  0.00000000000E+00  0.19257216244E+03  0.19257216251E+03  0.50400000000E-02 0.  1.
          1   -1    0    0  501    0  0.00000000000E+00 -0.00000000000E+00 -0.11936430012E+04  0.11936430012E+04  0.50400000000E-02 0. -1.
    8880023    1    1    2    0    0  0.47555791662E+02  0.45634897263E+02 -0.42516925765E+03  0.78671672226E+03  0.65864270000E+03 0.  1.
    8880022    1    1    2    0    0 -0.47555791662E+02 -0.45634897263E+02 -0.57590158108E+03  0.59949844142E+03  0.15294330000E+03 0.  0.
<mgrwt>
<rscale>  0 0.46880274E+03</rscale>
<asrwt>0</asrwt>
<pdfrwt beam="1">  1        1 0.18363738E+00 0.66193225E+03</pdfrwt>
<pdfrwt beam="2">  1       -1 0.29626487E-01 0.66193225E+03</pdfrwt>
<totfact> 0.11567491E+02</totfact>
</mgrwt>
</event>
<event>
 4    1  0.3712574E-007  0.7153022E+03  0.7818608E-02  0.9938814E-01
          1   -1    0    0  501    0  0.00000000000E+00  0.00000000000E+00  0.72332580066E+03  0.72332580068E+03  0.50400000000E-02 0. -1.
         -1   -1    0    0    0  501 -0.00000000000E+00 -0.00000000000E+00 -0.66095962898E+03  0.66095962900E+03  0.50400000000E-02 0.  1.
    8880023    1    1    2    0    0 -0.22151112630E+03 -0.16964632730E+03 -0.40264183973E+03  0.82083963891E+03  0.65864270000E+03 0.  0.
    8880022    1    1    2    0    0  0.22151112630E+03  0.16964632730E+03  0.46500801141E+03  0.56344579077E+03  0.15294330000E+03 0.  0.
<mgrwt>
<rscale>  0 0.58416496E+03</rscale>
<asrwt>0</asrwt>
<pdfrwt beam="1">  1        1 0.11128089E+00 0.71530222E+03</pdfrwt>
<pdfrwt beam="2">  1       -1 0.10168610E+00 0.71530222E+03</pdfrwt>
<totfact> 0.24475515E+01</totfact>
</mgrwt>
</event>
<event>
 4    1  0.3712574E-007  0.7986451E+03  0.7818608E-02  0.9713733E-01
         -1   -1    0    0    0  501 -0.00000000000E+00  0.00000000000E+00  0.14055195743E+04  0.14055195744E+04  0.50400000000E-02 0.  1.
          1   -1    0    0  501    0  0.00000000000E+00 -0.00000000000E+00 -0.42092370634E+03  0.42092370637E+03  0.50400000000E-02 0. -1.
    8880023    1    1    2    0    0 -0.44774309018E+03  0.59581257526E+02  0.10768847225E+04  0.13407142547E+04  0.65864270000E+03 0.  1.
    8880022    1    1    2    0    0  0.44774309018E+03 -0.59581257526E+02 -0.92288854454E+02  0.48572902602E+03  0.15294330000E+03 0.  0.
<mgrwt>
<rscale>  0 0.70204972E+03</rscale>
<asrwt>0</asrwt>
<pdfrwt beam="1">  1        1 0.64757493E-01 0.79864511E+03</pdfrwt>
<pdfrwt beam="2">  1       -1 0.21623378E+00 0.79864511E+03</pdfrwt>
<totfact> 0.67232097E+00</totfact>
</mgrwt>
</event>
<event>
 4    1  0.3712574E-007  0.7373125E+03  0.7818608E-02  0.9867846E-01
          1   -1    0    0  501    0  0.00000000000E+00  0.00000000000E+00  0.11290061257E+04  0.11290061258E+04  0.50400000000E-02 0. -1.
         -1   -1    0    0    0  501 -0.00000000000E+00 -0.00000000000E+00 -0.37228019859E+03  0.37228019863E+03  0.50400000000E-02 0.  1.
    8880023    1    1    2    0    0 -0.25303718154E+03 -0.21398995070E+03  0.92104439118E+02  0.74304303255E+03  0.65864270000E+03 0.  0.
    8880022    1    1    2    0    0  0.25303718154E+03  0.21398995070E+03  0.66462148803E+03  0.75824329184E+03  0.15294330000E+03 0.  0.
<mgrwt>
<rscale>  0 0.61845240E+03</rscale>
<asrwt>0</asrwt>
<pdfrwt beam="1">  1        1 0.17369325E+00 0.73731250E+03</pdfrwt>
<pdfrwt beam="2">  1       -1 0.57273876E-01 0.73731250E+03</pdfrwt>
<totfact> 0.38273977E+01</totfact>
</mgrwt>
</event>
<event>
 4    1  0.3712574E-007  0.7358520E+03  0.7818608E-02  0.9872199E-01
          1   -1    0    0  501    0  0.00000000000E+00  0.00000000000E+00  0.58859057350E+03  0.58859057353E+03  0.50400000000E-02 0. -1.
         -1   -1    0    0    0  501 -0.00000000000E+00 -0.00000000000E+00 -0.84647534643E+03  0.84647534644E+03  0.50400000000E-02 0.  1.
    8880023    1    1    2    0    0  0.20495042629E+03 -0.25624858234E+03 -0.59046633275E+03  0.94346632667E+03  0.65864270000E+03 0.  1.
    8880022    1    1    2    0    0 -0.20495042629E+03  0.25624858234E+03  0.33258155982E+03  0.49159959330E+03  0.15294330000E+03 0.  0.
<mgrwt>
<rscale>  0 0.61627777E+03</rscale>
<asrwt>0</asrwt>
<pdfrwt beam="1">  1        1 0.90552395E-01 0.73585204E+03</pdfrwt>
<pdfrwt beam="2">  1       -1 0.13022698E+00 0.73585204E+03</pdfrwt>
<totfact> 0.18285025E+01</totfact>
</mgrwt>
</event>
<event>
 4    1  0.3712574E-007  0.9034514E+03  0.7818608E-02  0.9520514E-01
          1   -1    0    0  501    0  0.00000000000E+00  0.00000000000E+00  0.17667180138E+04  0.17667180138E+04  0.50400000000E-02 0. -1.
         -1   -1    0    0    0  501 -0.00000000000E+00 -0.00000000000E+00 -0.53349389272E+03  0.53349389275E+03  0.50400000000E-02 0.  1.
    8880023    1    1    2    0    0  0.61439222441E+03  0.70259309085E+02 -0.97510067778E+01  0.90350399242E+03  0.65864270000E+03 0.  1.
    8880022    1    1    2    0    0 -0.61439222441E+03 -0.70259309085E+02  0.12429751278E+04  0.13967079141E+04  0.15294330000E+03 0.  0.
<mgrwt>
<rscale>  0 0.82788187E+03</rscale>
<asrwt>0</asrwt>
<pdfrwt beam="1">  1        1 0.27180277E+00 0.90345137E+03</pdfrwt>
<pdfrwt beam="2">  1       -1 0.82075983E-01 0.90345137E+03</pdfrwt>
<totfact> 0.64709931E+00</totfact>
</mgrwt>
</event>
<event>
 4    1  0.3712574E-007  0.7370575E+03  0.7818608E-02  0.9868603E-01
         -1   -1    0    0    0  501 -0.00000000000E+00  0.00000000000E+00  0.74905670374E+03  0.74905670376E+03  0.50400000000E-02 0.  1.
          1   -1    0    0  501    0  0.00000000000E+00 -0.00000000000E+00 -0.66574924052E+03  0.66574924054E+03  0.50400000000E-02 0. -1.
    8880023    1    1    2    0    0 -0.20873427038E+03 -0.25665833060E+03  0.47728707244E+03  0.87809831458E+03  0.65864270000E+03 0.  1.
    8880022    1    1    2    0    0  0.20873427038E+03  0.25665833060E+03 -0.39397960922E+03  0.53670762971E+03  0.15294330000E+03 0.  0.
<mgrwt>
<rscale>  0 0.61807352E+03</rscale>
<asrwt>0</asrwt>
<pdfrwt beam="1">  1        1 0.10242296E+00 0.73705746E+03</pdfrwt>
<pdfrwt beam="2">  1       -1 0.11523949E+00 0.73705746E+03</pdfrwt>
<totfact> 0.20634720E+01</totfact>
</mgrwt>
</event>
<event>
 4    1  0.3712574E-007  0.1405711E+04  0.7818608E-02  0.8979258E-01
          1   -1    0    0  501    0  0.00000000000E+00  0.00000000000E+00  0.32872436498E+04  0.32872436498E+04  0.50400000000E-02 0. -1.
         -1   -1    0    0    0  501 -0.00000000000E+00 -0.00000000000E+00 -0.78573721787E+03  0.78573721788E+03  0.50400000000E-02 0.  1.
    8880023    1    1    2    0    0  0.68399123780E+03 -0.10365178554E+04  0.15566814126E+03  0.14143040884E+04  0.65864270000E+03 0.  0.
    8880022    1    1    2    0    0 -0.68399123780E+03  0.10365178554E+04  0.23458382907E+04  0.26586767793E+04  0.15294330000E+03 0.  0.
<mgrwt>
<rscale>  0 0.13653919E+04</rscale>
<asrwt>0</asrwt>
<pdfrwt beam="1">  1        1 0.50572978E+00 0.14057110E+04</pdfrwt>
<pdfrwt beam="2">  1       -1 0.12088265E+00 0.14057110E+04</pdfrwt>
<totfact> 0.21531112E-01</totfact>
</mgrwt>
</event>
<event>
 4    1  0.3712574E-007  0.6691533E+03  0.7818608E-02  0.1016277E+00
         -1   -1    0    0    0  501 -0.00000000000E+00  0.00000000000E+00  0.86364047921E+03  0.86364047923E+03  0.50400000000E-02 0.  1.
          1   -1    0    0  501    0  0.00000000000E+00 -0.00000000000E+00 -0.36471314369E+03  0.36471314373E+03  0.50400000000E-02 0. -1.
    8880023    1    1    2    0    0 -0.56658193847E+02  0.10366166988E+03  0.68676020163E+03  0.95885644053E+03  0.65864270000E+03 0.  1.
    8880022    1    1    2    0    0  0.56658193847E+02 -0.10366166988E+03 -0.18783286611E+03  0.26949718243E+03  0.15294330000E+03 0.  0.
<mgrwt>
<rscale>  0 0.49054286E+03</rscale>
<asrwt>0</asrwt>
<pdfrwt beam="1">  1        1 0.56109715E-01 0.66915327E+03</pdfrwt>
<pdfrwt beam="2">  1       -1 0.13286776E+00 0.66915327E+03</pdfrwt>
<totfact> 0.33539314E+01</totfact>
</mgrwt>
</event>
<event>
 4    1  0.3712574E-007  0.7852296E+03  0.7818608E-02  0.9743693E-01
          1   -1    0    0  501    0  0.00000000000E+00  0.00000000000E+00  0.57425947761E+03  0.57425947763E+03  0.50400000000E-02 0. -1.
         -1   -1    0    0    0  501 -0.00000000000E+00 -0.00000000000E+00 -0.95121815854E+03  0.95121815855E+03  0.50400000000E-02 0.  1.
    8880023    1    1    2    0    0  0.35120615609E+03 -0.24378179045E+03 -0.62905793924E+03  0.10061309172E+04  0.65864270000E+03 0.  0.
    8880022    1    1    2    0    0 -0.35120615609E+03  0.24378179045E+03  0.25209925832E+03  0.51934671895E+03  0.15294330000E+03 0.  0.
<mgrwt>
<rscale>  0 0.68473872E+03</rscale>
<asrwt>0</asrwt>
<pdfrwt beam="1">  1        1 0.88347612E-01 0.78522960E+03</pdfrwt>
<pdfrwt beam="2">  1       -1 0.14634126E+00 0.78522960E+03</pdfrwt>
<totfact> 0.13929466E+01</totfact>
</mgrwt>
</event>
<event>
 4    1  0.3712574E-007  0.1165875E+04  0.7818608E-02  0.9191030E-01
         -1   -1    0    0    0  501 -0.00000000000E+00  0.00000000000E+00  0.14298942731E+04  0.14298942731E+04  0.50400000000E-02 0.  1.
          1   -1    0    0  501    0  0.00000000000E+00 -0.00000000000E+00 -0.17315690959E+04  0.17315690959E+04  0.50400000000E-02 0. -1.
    8880023    1    1    2    0    0  0.10672312689E+03  0.95606663176E+03 -0.13139566904E+04  0.17566290504E+04  0.65864270000E+03 0.  0.
    8880022    1    1    2    0    0 -0.10672312689E+03 -0.95606663176E+03  0.10122818676E+04  0.14048343186E+04  0.15294330000E+03 0.  0.
<mgrwt>
<rscale>  0 0.11146493E+04</rscale>
<asrwt>0</asrwt>
<pdfrwt beam="1">  1        1 0.26639524E+00 0.11658745E+04</pdfrwt>
<pdfrwt beam="2">  1       -1 0.21998373E+00 0.11658745E+04</pdfrwt>
<totfact> 0.49191557E-01</totfact>
</mgrwt>
</event>
<event>
 4    1  0.3712574E-007  0.7930964E+03  0.7818608E-02  0.9725927E-01
         -1   -1    0    0    0  501 -0.00000000000E+00  0.00000000000E+00  0.62884454625E+03  0.62884454627E+03  0.50400000000E-02 0.  1.
          1   -1    0    0  501    0  0.00000000000E+00 -0.00000000000E+00 -0.21698751074E+04  0.21698751074E+04  0.50400000000E-02 0. -1.
    8880023    1    1    2    0    0  0.34523190250E+03 -0.27569299016E+03  0.33820659807E+03  0.86219812141E+03  0.65864270000E+03 0.  1.
    8880022    1    1    2    0    0 -0.34523190250E+03  0.27569299016E+03 -0.18792371592E+04  0.19365215323E+04  0.15294330000E+03 0.  0.
<mgrwt>
<rscale>  0 0.69493889E+03</rscale>
<asrwt>0</asrwt>
<pdfrwt beam="1">  1        1 0.33382693E+00 0.79309640E+03</pdfrwt>
<pdfrwt beam="2">  1       -1 0.96745316E-01 0.79309640E+03</pdfrwt>
<totfact> 0.24599067E+00</totfact>
</mgrwt>
</event>
<event>
 4    1  0.3712574E-007  0.8252054E+03  0.7818608E-02  0.9658734E-01
          1   -1    0    0  501    0  0.00000000000E+00  0.00000000000E+00  0.17287688817E+04  0.17287688817E+04  0.50400000000E-02 0. -1.
         -1   -1    0    0    0  501 -0.00000000000E+00 -0.00000000000E+00 -0.29274666672E+03  0.29274666676E+03  0.50400000000E-02 0.  1.
    8880023    1    1    2    0    0  0.99106167018E+02  0.48716708490E+03  0.54228295000E+03  0.98743850699E+03  0.65864270000E+03 0.  1.
    8880022    1    1    2    0    0 -0.99106167018E+02 -0.48716708490E+03  0.89373926499E+03  0.10340770415E+04  0.15294330000E+03 0.  0.
<mgrwt>
<rscale>  0 0.73527803E+03</rscale>
<asrwt>0</asrwt>
<pdfrwt beam="1">  1        1 0.26596445E+00 0.82520543E+03</pdfrwt>
<pdfrwt beam="2">  1       -1 0.45037947E-01 0.82520543E+03</pdfrwt>
<totfact> 0.22867404E+01</totfact>
</mgrwt>
</event>
<event>
 4    1  0.3712574E-007  0.7271019E+03  0.7818608E-02  0.9899249E-01
         -1   -1    0    0    0  501 -0.00000000000E+00  0.00000000000E+00  0.37356297579E+03  0.37356297582E+03  0.50400000000E-02 0.  1.
          1   -1    0    0  501    0  0.00000000000E+00 -0.00000000000E+00 -0.15458623851E+04  0.15458623851E+04  0.50400000000E-02 0. -1.
    8880023    1    1    2    0    0 -0.74960179337E+02  0.29874400401E+03 -0.31349773266E+02  0.72777745428E+03  0.65864270000E+03 0.  0.
    8880022    1    1    2    0    0  0.74960179337E+02 -0.29874400401E+03 -0.11409496361E+04  0.11916479067E+04  0.15294330000E+03 0.  0.
<mgrwt>
<rscale>  0 0.60297679E+03</rscale>
<asrwt>0</asrwt>
<pdfrwt beam="1">  1        1 0.23782498E+00 0.72710193E+03</pdfrwt>
<pdfrwt beam="2">  1       -1 0.57471228E-01 0.72710193E+03</pdfrwt>
<totfact> 0.19363589E+01</totfact>
</mgrwt>
</event>
<event>
 4    1  0.3712574E-007  0.7356500E+03  0.7818608E-02  0.9872804E-01
         -1   -1    0    0    0  501 -0.00000000000E+00  0.00000000000E+00  0.36904653296E+03  0.36904653299E+03  0.50400000000E-02 0.  1.
          1   -1    0    0  501    0  0.00000000000E+00 -0.00000000000E+00 -0.88534992210E+03  0.88534992212E+03  0.50400000000E-02 0. -1.
    8880023    1    1    2    0    0 -0.14839562489E+03 -0.29214618320E+03 -0.50557016039E+03  0.89262648806E+03  0.65864270000E+03 0. -1.
    8880022    1    1    2    0    0  0.14839562489E+03  0.29214618320E+03 -0.10733228757E+02  0.36176996705E+03  0.15294330000E+03 0.  0.
<mgrwt>
<rscale>  0 0.61597592E+03</rscale>
<asrwt>0</asrwt>
<pdfrwt beam="1">  1        1 0.13620768E+00 0.73564996E+03</pdfrwt>
<pdfrwt beam="2">  1       -1 0.56776390E-01 0.73564996E+03</pdfrwt>
<totfact> 0.60139483E+01</totfact>
</mgrwt>
</event>
<event>
 4    1  0.3712574E-007  0.7562170E+03  0.7818608E-02  0.9815001E-01
          1   -1    0    0  501    0  0.00000000000E+00  0.00000000000E+00  0.25348444701E+04  0.25348444701E+04  0.50400000000E-02 0. -1.
         -1   -1    0    0    0  501 -0.00000000000E+00 -0.00000000000E+00 -0.29626566688E+03  0.29626566693E+03  0.50400000000E-02 0.  1.
    8880023    1    1    2    0    0  0.28265265992E+03  0.24116687858E+03  0.24125006642E+03  0.79376683623E+03  0.65864270000E+03 0.  1.
    8880022    1    1    2    0    0 -0.28265265992E+03 -0.24116687858E+03  0.19973287368E+04  0.20373433008E+04  0.15294330000E+03 0.  0.
<mgrwt>
<rscale>  0 0.64563658E+03</rscale>
<asrwt>0</asrwt>
<pdfrwt beam="1">  1        1 0.38997607E+00 0.75621703E+03</pdfrwt>
<pdfrwt beam="2">  1       -1 0.45579334E-01 0.75621703E+03</pdfrwt>
<totfact> 0.64714953E+00</totfact>
</mgrwt>
</event>
<event>
 4    1  0.3712574E-007  0.6846077E+03  0.7818608E-02  0.1006829E+00
          1   -1    0    0  501    0  0.00000000000E+00  0.00000000000E+00  0.24159273081E+04  0.24159273081E+04  0.50400000000E-02 0. -1.
         -1   -1    0    0    0  501 -0.00000000000E+00 -0.00000000000E+00 -0.34998039166E+03  0.34998039170E+03  0.50400000000E-02 0.  1.
    8880023    1    1    2    0    0  0.18617896676E+03 -0.14661059907E+02 -0.13061208261E+01  0.68460898808E+03  0.65864270000E+03 0.  1.
    8880022    1    1    2    0    0 -0.18617896676E+03  0.14661059907E+02  0.20672530373E+04  0.20812987117E+04  0.15294330000E+03 0.  0.
<mgrwt>
<rscale>  0 0.52754710E+03</rscale>
<asrwt>0</asrwt>
<pdfrwt beam="1">  1        1 0.37168111E+00 0.68460774E+03</pdfrwt>
<pdfrwt beam="2">  1       -1 0.53843139E-01 0.68460774E+03</pdfrwt>
<totfact> 0.57666875E+00</totfact>
</mgrwt>
</event>
<event>
 4    1  0.3712574E-007  0.8686048E+03  0.7818608E-02  0.9578437E-01
         -1   -1    0    0    0  501 -0.00000000000E+00  0.00000000000E+00  0.16036056282E+04  0.16036056282E+04  0.50400000000E-02 0.  1.
          1   -1    0    0  501    0  0.00000000000E+00 -0.00000000000E+00 -0.10863531058E+04  0.10863531058E+04  0.50400000000E-02 0. -1.
    8880023    1    1    2    0    0 -0.51452262779E+03 -0.23649635442E+03  0.13896054068E+04  0.16387426439E+04  0.65864270000E+03 0.  0.
    8880022    1    1    2    0    0  0.51452262779E+03  0.23649635442E+03 -0.87235288440E+03  0.10512160901E+04  0.15294330000E+03 0.  0.
<mgrwt>
<rscale>  0 0.78739972E+03</rscale>
<asrwt>0</asrwt>
<pdfrwt beam="1">  1        1 0.16713125E+00 0.86860478E+03</pdfrwt>
<pdfrwt beam="2">  1       -1 0.24670856E+00 0.86860478E+03</pdfrwt>
<totfact> 0.97919543E-01</totfact>
</mgrwt>
</event>
<event>
 4    1  0.3712574E-007  0.1415646E+04  0.7818608E-02  0.8971620E-01
          1   -1    0    0  501    0  0.00000000000E+00  0.00000000000E+00  0.18354982223E+04  0.18354982224E+04  0.50400000000E-02 0. -1.
         -1   -1    0    0    0  501 -0.00000000000E+00 -0.00000000000E+00 -0.18752740362E+04  0.18752740362E+04  0.50400000000E-02 0.  1.
    8880023    1    1    2    0    0  0.12475019095E+04 -0.11824268909E+03  0.12626664018E+04  0.18969393760E+04  0.65864270000E+03 0.  0.
    8880022    1    1    2    0    0 -0.12475019095E+04  0.11824268909E+03 -0.13024422157E+04  0.18138328826E+04  0.15294330000E+03 0.  0.
<mgrwt>
<rscale>  0 0.13756707E+04</rscale>
<asrwt>0</asrwt>
<pdfrwt beam="1">  1        1 0.28238434E+00 0.14156456E+04</pdfrwt>
<pdfrwt beam="2">  1       -1 0.28850370E+00 0.14156456E+04</pdfrwt>
<totfact> 0.14414902E-01</totfact>
</mgrwt>
</event>
<event>
 4    1  0.3712574E-007  0.8958200E+03  0.7818608E-02  0.9532775E-01
         -1   -1    0    0    0  501 -0.00000000000E+00  0.00000000000E+00  0.94982890429E+03  0.94982890430E+03  0.50400000000E-02 0.  1.
          1   -1    0    0  501    0  0.00000000000E+00 -0.00000000000E+00 -0.15484942856E+04  0.15484942856E+04  0.50400000000E-02 0. -1.
    8880023    1    1    2    0    0  0.44979975915E+03 -0.40787672115E+03  0.64639221296E+03  0.11046792938E+04  0.65864270000E+03 0.  1.
    8880022    1    1    2    0    0 -0.44979975915E+03  0.40787672115E+03 -0.12450575942E+04  0.13936438960E+04  0.15294330000E+03 0.  0.
<mgrwt>
<rscale>  0 0.81909956E+03</rscale>
<asrwt>0</asrwt>
<pdfrwt beam="1">  1        1 0.23822989E+00 0.89581999E+03</pdfrwt>
<pdfrwt beam="2">  1       -1 0.14612752E+00 0.89581999E+03</pdfrwt>
<totfact> 0.23144196E+00</totfact>
</mgrwt>
</event>
<event>
 4    1  0.3712574E-007  0.6858146E+03  0.7818608E-02  0.1006209E+00
         -1   -1    0    0    0  501 -0.00000000000E+00  0.00000000000E+00  0.12158862374E+04  0.12158862374E+04  0.50400000000E-02 0.  1.
          1   -1    0    0  501    0  0.00000000000E+00 -0.00000000000E+00 -0.35232626194E+03  0.35232626198E+03  0.50400000000E-02 0. -1.
    8880023    1    1    2    0    0 -0.80740526310E+02 -0.17324089060E+03  0.10544033268E+04  0.12578187550E+04  0.65864270000E+03 0.  1.
    8880022    1    1    2    0    0  0.80740526310E+02  0.17324089060E+03 -0.19084335132E+03  0.31039374434E+03  0.15294330000E+03 0.  0.
<mgrwt>
<rscale>  0 0.53009574E+03</rscale>
<asrwt>0</asrwt>
<pdfrwt beam="1">  1        1 0.54204041E-01 0.68581459E+03</pdfrwt>
<pdfrwt beam="2">  1       -1 0.18705942E+00 0.68581459E+03</pdfrwt>
<totfact> 0.13640944E+01</totfact>
</mgrwt>
</event>
<event>
 4    1  0.3712574E-007  0.7110083E+03  0.7818608E-02  0.9954275E-01
          1   -1    0    0  501    0  0.00000000000E+00  0.00000000000E+00  0.21463845994E+04  0.21463845994E+04  0.50400000000E-02 0. -1.
         -1   -1    0    0    0  501 -0.00000000000E+00 -0.00000000000E+00 -0.12255202842E+03  0.12255202853E+03  0.50400000000E-02 0.  1.
    8880023    1    1    2    0    0 -0.26492825832E+03 -0.39187705065E+02  0.12907854763E+04  0.14736553228E+04  0.65864270000E+03 0.  0.
    8880022    1    1    2    0    0  0.26492825832E+03  0.39187705065E+02  0.73304709464E+03  0.79528130511E+03  0.15294330000E+03 0.  1.
<mgrwt>
<rscale>  0 0.57701454E+03</rscale>
<asrwt>0</asrwt>
<pdfrwt beam="1">  1        1 0.33021301E+00 0.71100834E+03</pdfrwt>
<pdfrwt beam="2">  1       -1 0.18854158E-01 0.71100834E+03</pdfrwt>
<totfact> 0.55627019E+01</totfact>
</mgrwt>
</event>
<event>
 4    1  0.3712574E-007  0.6860154E+03  0.7818608E-02  0.1006107E+00
          1   -1    0    0  501    0  0.00000000000E+00  0.00000000000E+00  0.53400689495E+03  0.53400689498E+03  0.50400000000E-02 0. -1.
         -1   -1    0    0    0  501 -0.00000000000E+00 -0.00000000000E+00 -0.79954232436E+03  0.79954232437E+03  0.50400000000E-02 0.  1.
    8880023    1    1    2    0    0  0.18357771174E+03  0.55733010720E+02 -0.60501250367E+03  0.91468971821E+03  0.65864270000E+03 0.  1.
    8880022    1    1    2    0    0 -0.18357771174E+03 -0.55733010720E+02  0.33947707427E+03  0.41885950114E+03  0.15294330000E+03 0.  0.
<mgrwt>
<rscale>  0 0.53051626E+03</rscale>
<asrwt>0</asrwt>
<pdfrwt beam="1">  1        1 0.82154907E-01 0.68601542E+03</pdfrwt>
<pdfrwt beam="2">  1       -1 0.12300651E+00 0.68601542E+03</pdfrwt>
<totfact> 0.24311986E+01</totfact>
</mgrwt>
</event>
<event>
 4    1  0.3712574E-007  0.8564840E+03  0.7818608E-02  0.9599849E-01
         -1   -1    0    0    0  501 -0.00000000000E+00  0.00000000000E+00  0.58398520407E+03  0.58398520409E+03  0.50400000000E-02 0.  1.
          1   -1    0    0  501    0  0.00000000000E+00 -0.00000000000E+00 -0.18343048164E+04  0.18343048164E+04  0.50400000000E-02 0. -1.
    8880023    1    1    2    0    0 -0.24552997349E+03 -0.48935643231E+03  0.18347665765E+03  0.87591584977E+03  0.65864270000E+03 0.  0.
    8880022    1    1    2    0    0  0.24552997349E+03  0.48935643231E+03 -0.14337962700E+04  0.15423741708E+04  0.15294330000E+03 0.  0.
<mgrwt>
<rscale>  0 0.77306205E+03</rscale>
<asrwt>0</asrwt>
<pdfrwt beam="1">  1        1 0.28220074E+00 0.85648403E+03</pdfrwt>
<pdfrwt beam="2">  1       -1 0.89843878E-01 0.85648403E+03</pdfrwt>
<totfact> 0.48192536E+00</totfact>
</mgrwt>
</event>
<event>
 4    1  0.3712574E-007  0.8126325E+03  0.7818608E-02  0.9684119E-01
          1   -1    0    0  501    0  0.00000000000E+00  0.00000000000E+00  0.33677373220E+03  0.33677373223E+03  0.50400000000E-02 0. -1.
         -1   -1    0    0    0  501 -0.00000000000E+00 -0.00000000000E+00 -0.22632801001E+04  0.22632801001E+04  0.50400000000E-02 0.  1.
    8880023    1    1    2    0    0 -0.16599807408E+03  0.44610093187E+03 -0.19363988864E+04  0.21000029180E+04  0.65864270000E+03 0.  0.
    8880022    1    1    2    0    0  0.16599807408E+03 -0.44610093187E+03  0.98925185025E+01  0.50005091436E+03  0.15294330000E+03 0.  0.
<mgrwt>
<rscale>  0 0.71970240E+03</rscale>
<asrwt>0</asrwt>
<pdfrwt beam="1">  1        1 0.51811345E-01 0.81263252E+03</pdfrwt>
<pdfrwt beam="2">  1       -1 0.34819693E+00 0.81263252E+03</pdfrwt>
<totfact> 0.12624942E+00</totfact>
</mgrwt>
</event>
<event>
 4    1  0.3712574E-007  0.1085118E+04  0.7818608E-02  0.9277810E-01
          1   -1    0    0  501    0  0.00000000000E+00  0.00000000000E+00  0.16342124914E+04  0.16342124914E+04  0.50400000000E-02 0. -1.
         -1   -1    0    0    0  501 -0.00000000000E+00 -0.00000000000E+00 -0.11510335013E+04  0.11510335013E+04  0.50400000000E-02 0.  1.
    8880023    1    1    2    0    0  0.82414745302E+03  0.25387165888E+03 -0.71617560348E+03  0.13001490471E+04  0.65864270000E+03 0.  1.
    8880022    1    1    2    0    0 -0.82414745302E+03 -0.25387165888E+03  0.11993545936E+04  0.14850969456E+04  0.15294330000E+03 0. -1.
<mgrwt>
<rscale>  0 0.10285167E+04</rscale>
<asrwt>0</asrwt>
<pdfrwt beam="1">  1        1 0.25141731E+00 0.10851175E+04</pdfrwt>
<pdfrwt beam="2">  1       -1 0.17708208E+00 0.10851175E+04</pdfrwt>
<totfact> 0.11492193E+00</totfact>
</mgrwt>
</event>
<event>
 4    1  0.3712574E-007  0.1080822E+04  0.7818608E-02  0.9282714E-01
         -1   -1    0    0    0  501 -0.00000000000E+00  0.00000000000E+00  0.46533526233E+03  0.46533526236E+03  0.50400000000E-02 0.  1.
          1   -1    0    0  501    0  0.00000000000E+00 -0.00000000000E+00 -0.28627847745E+04  0.28627847745E+04  0.50400000000E-02 0. -1.
    8880023    1    1    2    0    0 -0.61026205008E+03  0.60162042370E+03 -0.40570452370E+03  0.11544579987E+04  0.65864270000E+03 0.  1.
    8880022    1    1    2    0    0  0.61026205008E+03 -0.60162042370E+03 -0.19917449885E+04  0.21736620381E+04  0.15294330000E+03 0.  0.
<mgrwt>
<rscale>  0 0.10238990E+04</rscale>
<asrwt>0</asrwt>
<pdfrwt beam="1">  1        1 0.44042842E+00 0.10808224E+04</pdfrwt>
<pdfrwt beam="2">  1       -1 0.71590042E-01 0.10808224E+04</pdfrwt>
<totfact> 0.14996083E+00</totfact>
</mgrwt>
</event>
<event>
 4    1  0.3712574E-007  0.8178889E+03  0.7818608E-02  0.9673373E-01
          1   -1    0    0  501    0  0.00000000000E+00  0.00000000000E+00  0.18704500234E+04  0.18704500234E+04  0.50400000000E-02 0. -1.
         -1   -1    0    0    0  501 -0.00000000000E+00 -0.00000000000E+00 -0.39001338216E+03  0.39001338219E+03  0.50400000000E-02 0.  1.
    8880023    1    1    2    0    0  0.11455294911E+03  0.47117903837E+03  0.14386302945E+03  0.83044496618E+03  0.65864270000E+03 0.  0.
    8880022    1    1    2    0    0 -0.11455294911E+03 -0.47117903837E+03  0.13365736118E+04  0.14300184395E+04  0.15294330000E+03 0.  0.
<mgrwt>
<rscale>  0 0.72624522E+03</rscale>
<asrwt>0</asrwt>
<pdfrwt beam="1">  1        1 0.28776154E+00 0.81788891E+03</pdfrwt>
<pdfrwt beam="2">  1       -1 0.60002059E-01 0.81788891E+03</pdfrwt>
<totfact> 0.10616709E+01</totfact>
</mgrwt>
</event>
<event>
 4    1  0.9752201E-007  0.9090522E+03  0.7818608E-02  0.9511653E-01
         -1   -1    0    0    0  501 -0.00000000000E+00  0.00000000000E+00  0.18551925457E+04  0.18551925457E+04  0.50400000000E-02 0.  1.
          1   -1    0    0  501    0  0.00000000000E+00 -0.00000000000E+00 -0.19692068227E+04  0.19692068227E+04  0.50400000000E-02 0. -1.
    8880023    1    1    2    0    0 -0.51580694919E+03 -0.35568077046E+03  0.16842838532E+04  0.19139456428E+04  0.65864270000E+03 0.  0.
    8880022    1    1    2    0    0  0.51580694919E+03  0.35568077046E+03 -0.17982981303E+04  0.19104537256E+04  0.15294330000E+03 0.  0.
<mgrwt>
<rscale>  0 0.83430086E+03</rscale>
<asrwt>0</asrwt>
<pdfrwt beam="1">  1        1 0.30295489E+00 0.90905216E+03</pdfrwt>
<pdfrwt beam="2">  1       -1 0.28541424E+00 0.90905216E+03</pdfrwt>
<totfact> 0.13348622E-01</totfact>
</mgrwt>
</event>
<event>
 4    1  0.3712574E-007  0.6872092E+03  0.7818608E-02  0.1005508E+00
         -1   -1    0    0    0  501 -0.00000000000E+00  0.00000000000E+00  0.12437386344E+03  0.12437386354E+03  0.50400000000E-02 0.  1.
          1   -1    0    0  501    0  0.00000000000E+00 -0.00000000000E+00 -0.29350226314E+04  0.29350226314E+04  0.50400000000E-02 0. -1.
    8880023    1    1    2    0    0 -0.26633334898E+02 -0.19425985267E+03 -0.89865207878E+03  0.11312965968E+04  0.65864270000E+03 0.  0.
    8880022    1    1    2    0    0  0.26633334898E+02  0.19425985267E+03 -0.19119966892E+04  0.19280998982E+04  0.15294330000E+03 0.  0.
<mgrwt>
<rscale>  0 0.53299548E+03</rscale>
<asrwt>0</asrwt>
<pdfrwt beam="1">  1        1 0.45154189E+00 0.68720916E+03</pdfrwt>
<pdfrwt beam="2">  1       -1 0.19134443E-01 0.68720916E+03</pdfrwt>
<totfact> 0.15684622E+01</totfact>
</mgrwt>
</event>
<event>
 4    1  0.3712574E-007  0.8952763E+03  0.7818608E-02  0.9533658E-01
         -1   -1    0    0    0  501 -0.00000000000E+00  0.00000000000E+00  0.42325201076E+03  0.42325201079E+03  0.50400000000E-02 0.  1.
          1   -1    0    0  501    0  0.00000000000E+00 -0.00000000000E+00 -0.15111787019E+04  0.15111787019E+04  0.50400000000E-02 0. -1.
    8880023    1    1    2    0    0 -0.30900614304E+03  0.52175159173E+03 -0.33558285570E+03  0.95610437674E+03  0.65864270000E+03 0.  0.
    8880022    1    1    2    0    0  0.30900614304E+03 -0.52175159173E+03 -0.75234383545E+03  0.97832633598E+03  0.15294330000E+03 0.  0.
<mgrwt>
<rscale>  0 0.81847227E+03</rscale>
<asrwt>0</asrwt>
<pdfrwt beam="1">  1        1 0.23248903E+00 0.89527634E+03</pdfrwt>
<pdfrwt beam="2">  1       -1 0.65115695E-01 0.89527634E+03</pdfrwt>
<totfact> 0.15631850E+01</totfact>
</mgrwt>
</event>
<event>
 4    1  0.3712574E-007  0.6594451E+03  0.7818608E-02  0.1024732E+00
         -1   -1    0    0    0  501 -0.00000000000E+00  0.00000000000E+00  0.10155088023E+04  0.10155088023E+04  0.50400000000E-02 0.  1.
          1   -1    0    0  501    0  0.00000000000E+00 -0.00000000000E+00 -0.36092298532E+03  0.36092298536E+03  0.50400000000E-02 0. -1.
    8880023    1    1    2    0    0  0.12079064938E+02 -0.30194689444E+02  0.88149569576E+03  0.11008644290E+04  0.65864270000E+03 0.  1.
    8880022    1    1    2    0    0 -0.12079064938E+02  0.30194689444E+02 -0.22690987878E+03  0.27556735870E+03  0.15294330000E+03 0.  0.
<mgrwt>
<rscale>  0 0.46016886E+03</rscale>
<asrwt>0</asrwt>
<pdfrwt beam="1">  1        1 0.55526613E-01 0.65944509E+03</pdfrwt>
<pdfrwt beam="2">  1       -1 0.15623212E+00 0.65944509E+03</pdfrwt>
<totfact> 0.22228338E+01</totfact>
</mgrwt>
</event>
<event>
 4    1  0.3712574E-007  0.7705068E+03  0.7818608E-02  0.9778629E-01
          1   -1    0    0  501    0  0.00000000000E+00  0.00000000000E+00  0.63774954303E+03  0.63774954305E+03  0.50400000000E-02 0. -1.
         -1   -1    0    0    0  501 -0.00000000000E+00 -0.00000000000E+00 -0.10645806139E+04  0.10645806139E+04  0.50400000000E-02 0.  1.
    8880023    1    1    2    0    0 -0.39072723097E+03  0.84868990577E+02 -0.81706681711E+03  0.11230667409E+04  0.65864270000E+03 0.  1.
    8880022    1    1    2    0    0  0.39072723097E+03 -0.84868990577E+02  0.39023574622E+03  0.57926341609E+03  0.15294330000E+03 0.  0.
<mgrwt>
<rscale>  0 0.66522178E+03</rscale>
<asrwt>0</asrwt>
<pdfrwt beam="1">  1        1 0.98115314E-01 0.77050679E+03</pdfrwt>
<pdfrwt beam="2">  1       -1 0.16378163E+00 0.77050679E+03</pdfrwt>
<totfact> 0.88194248E+00</totfact>
</mgrwt>
</event>
<event>
 4    1  0.3712574E-007  0.8610038E+03  0.7818608E-02  0.9591780E-01
         -1   -1    0    0    0  501 -0.00000000000E+00  0.00000000000E+00  0.83323207673E+03  0.83323207675E+03  0.50400000000E-02 0.  1.
          1   -1    0    0  501    0  0.00000000000E+00 -0.00000000000E+00 -0.86884193621E+03  0.86884193622E+03  0.50400000000E-02 0. -1.
    8880023    1    1    2    0    0  0.55425839860E+03  0.17744944778E+02  0.42962659239E+03  0.96224033933E+03  0.65864270000E+03 0.  0.
    8880022    1    1    2    0    0 -0.55425839860E+03 -0.17744944778E+02 -0.46523645186E+03  0.73983367363E+03  0.15294330000E+03 0.  0.
<mgrwt>
<rscale>  0 0.77842601E+03</rscale>
<asrwt>0</asrwt>
<pdfrwt beam="1">  1        1 0.13366799E+00 0.86100375E+03</pdfrwt>
<pdfrwt beam="2">  1       -1 0.12818955E+00 0.86100375E+03</pdfrwt>
<totfact> 0.10320597E+01</totfact>
</mgrwt>
</event>
<event>
 4    1  0.3712574E-007  0.7010937E+03  0.7818608E-02  0.9992694E-01
         -1   -1    0    0    0  501 -0.00000000000E+00  0.00000000000E+00  0.66261799934E+03  0.66261799936E+03  0.50400000000E-02 0.  1.
          1   -1    0    0  501    0  0.00000000000E+00 -0.00000000000E+00 -0.25692212475E+04  0.25692212475E+04  0.50400000000E-02 0. -1.
    8880023    1    1    2    0    0 -0.16854434243E+03 -0.17121603058E+03  0.46623731735E+03  0.84196767565E+03  0.65864270000E+03 0.  1.
    8880022    1    1    2    0    0  0.16854434243E+03  0.17121603058E+03 -0.23728405655E+04  0.23898715712E+04  0.15294330000E+03 0.  0.
<mgrwt>
<rscale>  0 0.55971747E+03</rscale>
<asrwt>0</asrwt>
<pdfrwt beam="1">  1        1 0.39526480E+00 0.70109367E+03</pdfrwt>
<pdfrwt beam="2">  1       -1 0.10194123E+00 0.70109367E+03</pdfrwt>
<totfact> 0.11940299E+00</totfact>
</mgrwt>
</event>
<event>
 4    1  0.3712574E-007  0.8949783E+03  0.7818608E-02  0.9534142E-01
          1   -1    0    0  501    0  0.00000000000E+00  0.00000000000E+00  0.14154816272E+04  0.14154816272E+04  0.50400000000E-02 0. -1.
         -1   -1    0    0    0  501 -0.00000000000E+00 -0.00000000000E+00 -0.43003584129E+03  0.43003584132E+03  0.50400000000E-02 0.  1.
    8880023    1    1    2    0    0 -0.29141399202E+03 -0.53127569669E+03  0.37015247871E+03  0.96850350768E+03  0.65864270000E+03 0.  0.
    8880022    1    1    2    0    0  0.29141399202E+03  0.53127569669E+03  0.61529330721E+03  0.87701396086E+03  0.15294330000E+03 0.  0.
<mgrwt>
<rscale>  0 0.81812830E+03</rscale>
<asrwt>0</asrwt>
<pdfrwt beam="1">  1        1 0.21776640E+00 0.89497832E+03</pdfrwt>
<pdfrwt beam="2">  1       -1 0.66159362E-01 0.89497832E+03</pdfrwt>
<totfact> 0.17629649E+01</totfact>
</mgrwt>
</event>
<event>
 4    1  0.3712574E-007  0.8875808E+03  0.7818608E-02  0.9546270E-01
         -1   -1    0    0    0  501 -0.00000000000E+00  0.00000000000E+00  0.14490924955E+04  0.14490924956E+04  0.50400000000E-02 0.  1.
          1   -1    0    0  501    0  0.00000000000E+00 -0.00000000000E+00 -0.96532394143E+03  0.96532394145E+03  0.50400000000E-02 0. -1.
    8880023    1    1    2    0    0 -0.54023352698E+03 -0.24927349039E+03  0.11860359119E+04  0.14813780501E+04  0.65864270000E+03 0.  0.
    8880022    1    1    2    0    0  0.54023352698E+03  0.24927349039E+03 -0.70226735777E+03  0.93303838693E+03  0.15294330000E+03 0. -1.
<mgrwt>
<rscale>  0 0.80956825E+03</rscale>
<asrwt>0</asrwt>
<pdfrwt beam="1">  1        1 0.14851138E+00 0.88758084E+03</pdfrwt>
<pdfrwt beam="2">  1       -1 0.22293731E+00 0.88758084E+03</pdfrwt>
<totfact> 0.17322469E+00</totfact>
</mgrwt>
</event>
<event>
 4    1  0.3712574E-007  0.6723764E+03  0.7818608E-02  0.1014014E+00
          1   -1    0    0  501    0  0.00000000000E+00  0.00000000000E+00  0.12559219579E+04  0.12559219579E+04  0.50400000000E-02 0. -1.
         -1   -1    0    0    0  501 -0.00000000000E+00 -0.00000000000E+00 -0.40884700018E+03  0.40884700021E+03  0.50400000000E-02 0.  1.
    8880023    1    1    2    0    0 -0.10283805601E+03 -0.87772971502E+02 -0.11424569999E+03  0.68201323046E+03  0.65864270000E+03 0.  1.
    8880022    1    1    2    0    0  0.10283805601E+03  0.87772971502E+02  0.96132065774E+03  0.98275572769E+03  0.15294330000E+03 0.  0.
<mgrwt>
<rscale>  0 0.49910176E+03</rscale>
<asrwt>0</asrwt>
<pdfrwt beam="1">  1        1 0.19321876E+00 0.67237636E+03</pdfrwt>
<pdfrwt beam="2">  1       -1 0.62899540E-01 0.67237636E+03</pdfrwt>
<totfact> 0.25957783E+01</totfact>
</mgrwt>
</event>
<event>
 4    1  0.3712574E-007  0.7377563E+03  0.7818608E-02  0.9866532E-01
          1   -1    0    0  501    0  0.00000000000E+00  0.00000000000E+00  0.15809190677E+04  0.15809190677E+04  0.50400000000E-02 0. -1.
         -1   -1    0    0    0  501 -0.00000000000E+00 -0.00000000000E+00 -0.33129246328E+03  0.33129246332E+03  0.50400000000E-02 0.  1.
    8880023    1    1    2    0    0 -0.32137410538E+03  0.84810233110E+02  0.14938293358E+03  0.75272807730E+03  0.65864270000E+03 0.  1.
    8880022    1    1    2    0    0  0.32137410538E+03 -0.84810233110E+02  0.11002436709E+04  0.11594834537E+04  0.15294330000E+03 0.  0.
<mgrwt>
<rscale>  0 0.61911077E+03</rscale>
<asrwt>0</asrwt>
<pdfrwt beam="1">  1        1 0.24321832E+00 0.73775626E+03</pdfrwt>
<pdfrwt beam="2">  1       -1 0.50968070E-01 0.73775626E+03</pdfrwt>
<totfact> 0.23062331E+01</totfact>
</mgrwt>
</event>
<event>
 4    1  0.3712574E-007  0.7563084E+03  0.7818608E-02  0.9814760E-01
         -1   -1    0    0    0  501 -0.00000000000E+00  0.00000000000E+00  0.17381539714E+04  0.17381539714E+04  0.50400000000E-02 0.  1.
          1   -1    0    0  501    0  0.00000000000E+00 -0.00000000000E+00 -0.59264621370E+03  0.59264621372E+03  0.50400000000E-02 0. -1.
    8880023    1    1    2    0    0 -0.30439757817E+02  0.37049365387E+03  0.15721571209E+04  0.17446146696E+04  0.65864270000E+03 0.  1.
    8880022    1    1    2    0    0  0.30439757817E+02 -0.37049365387E+03 -0.42664936322E+03  0.58618551549E+03  0.15294330000E+03 0.  0.
<mgrwt>
<rscale>  0 0.64576410E+03</rscale>
<asrwt>0</asrwt>
<pdfrwt beam="1">  1        1 0.91176342E-01 0.75630836E+03</pdfrwt>
<pdfrwt beam="2">  1       -1 0.26740830E+00 0.75630836E+03</pdfrwt>
<totfact> 0.19601044E+00</totfact>
</mgrwt>
</event>
<event>
 4    1  0.3712574E-007  0.1217133E+04  0.7818608E-02  0.9140645E-01
         -1   -1    0    0    0  501 -0.00000000000E+00  0.00000000000E+00  0.12769050721E+04  0.12769050721E+04  0.50400000000E-02 0.  1.
          1   -1    0    0  501    0  0.00000000000E+00 -0.00000000000E+00 -0.17044275081E+04  0.17044275081E+04  0.50400000000E-02 0. -1.
    8880023    1    1    2    0    0  0.41473131651E+02  0.10226836741E+04 -0.11851024805E+04  0.16987878071E+04  0.65864270000E+03 0. -1.
    8880022    1    1    2    0    0 -0.41473131651E+02 -0.10226836741E+04  0.75758004454E+03  0.12825447730E+04  0.15294330000E+03 0.  0.
<mgrwt>
<rscale>  0 0.11687640E+04</rscale>
<asrwt>0</asrwt>
<pdfrwt beam="1">  1        1 0.26221962E+00 0.12171327E+04</pdfrwt>
<pdfrwt beam="2">  1       -1 0.19644693E+00 0.12171327E+04</pdfrwt>
<totfact> 0.73736931E-01</totfact>
</mgrwt>
</event>
<event>
 4    1  0.3712574E-007  0.7568906E+03  0.7818608E-02  0.9813225E-01
         -1   -1    0    0    0  501 -0.00000000000E+00  0.00000000000E+00  0.20729802958E+04  0.20729802958E+04  0.50400000000E-02 0.  1.
          1   -1    0    0  501    0  0.00000000000E+00 -0.00000000000E+00 -0.91593586628E+03  0.91593586629E+03  0.50400000000E-02 0. -1.
    8880023    1    1    2    0    0 -0.10369226795E+03  0.35821940523E+03  0.19541965788E+04  0.20956544810E+04  0.65864270000E+03 0.  1.
    8880022    1    1    2    0    0  0.10369226795E+03 -0.35821940523E+03 -0.79715214933E+03  0.89326168109E+03  0.15294330000E+03 0.  0.
<mgrwt>
<rscale>  0 0.64657631E+03</rscale>
<asrwt>0</asrwt>
<pdfrwt beam="1">  1        1 0.14091321E+00 0.75689064E+03</pdfrwt>
<pdfrwt beam="2">  1       -1 0.31892005E+00 0.75689064E+03</pdfrwt>
<totfact> 0.46707639E-01</totfact>
</mgrwt>
</event>
<event>
 4    1  0.3712574E-007  0.6749284E+03  0.7818608E-02  0.1012351E+00
         -1   -1    0    0    0  501 -0.00000000000E+00  0.00000000000E+00  0.11169974097E+03  0.11169974109E+03  0.50400000000E-02 0.  1.
          1   -1    0    0  501    0  0.00000000000E+00 -0.00000000000E+00 -0.28453878730E+04  0.28453878730E+04  0.50400000000E-02 0. -1.
    8880023    1    1    2    0    0  0.13793581984E+03  0.51883092867E+02 -0.97612852610E+03  0.11867414425E+04  0.65864270000E+03 0.  1.
    8880022    1    1    2    0    0 -0.13793581984E+03 -0.51883092867E+02 -0.17575596059E+04  0.17703461715E+04  0.15294330000E+03 0.  0.
<mgrwt>
<rscale>  0 0.50550696E+03</rscale>
<asrwt>0</asrwt>
<pdfrwt beam="1">  1        1 0.43775193E+00 0.67492841E+03</pdfrwt>
<pdfrwt beam="2">  1       -1 0.17184578E-01 0.67492841E+03</pdfrwt>
<totfact> 0.21709809E+01</totfact>
</mgrwt>
</event>
<event>
 4    1  0.3712574E-007  0.1549275E+04  0.7818608E-02  0.8875603E-01
          1   -1    0    0  501    0  0.00000000000E+00  0.00000000000E+00  0.18680706314E+04  0.18680706314E+04  0.50400000000E-02 0. -1.
         -1   -1    0    0    0  501 -0.00000000000E+00 -0.00000000000E+00 -0.21891331291E+04  0.21891331292E+04  0.50400000000E-02 0.  1.
    8880023    1    1    2    0    0  0.12619208921E+04 -0.61155311370E+03 -0.15462034110E+04  0.21888345628E+04  0.65864270000E+03 0.  1.
    8880022    1    1    2    0    0 -0.12619208921E+04  0.61155311370E+03  0.12251409133E+04  0.18683691978E+04  0.15294330000E+03 0.  0.
<mgrwt>
<rscale>  0 0.15133814E+04</rscale>
<asrwt>0</asrwt>
<pdfrwt beam="1">  1        1 0.28739548E+00 0.15492746E+04</pdfrwt>
<pdfrwt beam="2">  1       -1 0.33678971E+00 0.15492746E+04</pdfrwt>
<totfact> 0.65271246E-02</totfact>
</mgrwt>
</event>
<event>
 4    1  0.3712574E-007  0.7501697E+03  0.7818608E-02  0.9831256E-01
         -1   -1    0    0    0  501 -0.00000000000E+00  0.00000000000E+00  0.13944834607E+04  0.13944834607E+04  0.50400000000E-02 0.  1.
          1   -1    0    0  501    0  0.00000000000E+00 -0.00000000000E+00 -0.51202699926E+03  0.51202699928E+03  0.50400000000E-02 0. -1.
    8880023    1    1    2    0    0 -0.31369827283E+03  0.17475064592E+03  0.11919663954E+04  0.14083815139E+04  0.65864270000E+03 0.  1.
    8880022    1    1    2    0    0  0.31369827283E+03 -0.17475064592E+03 -0.30950993402E+03  0.49812894605E+03  0.15294330000E+03 0.  0.
<mgrwt>
<rscale>  0 0.63711816E+03</rscale>
<asrwt>0</asrwt>
<pdfrwt beam="1">  1        1 0.78773386E-01 0.75016971E+03</pdfrwt>
<pdfrwt beam="2">  1       -1 0.21453591E+00 0.75016971E+03</pdfrwt>
<totfact> 0.53236617E+00</totfact>
</mgrwt>
</event>
<event>
 4    1  0.3712574E-007  0.6637776E+03  0.7818608E-02  0.1020582E+00
         -1   -1    0    0    0  501 -0.00000000000E+00  0.00000000000E+00  0.20344796225E+03  0.20344796232E+03  0.50400000000E-02 0.  1.
          1   -1    0    0  501    0  0.00000000000E+00 -0.00000000000E+00 -0.31041206250E+04  0.31041206250E+04  0.50400000000E-02 0. -1.
    8880023    1    1    2    0    0 -0.97084362358E+01  0.81830260025E+02 -0.34889828108E+03  0.74988709950E+03  0.65864270000E+03 0.  1.
    8880022    1    1    2    0    0  0.97084362358E+01 -0.81830260025E+02 -0.25517743817E+04  0.25576814879E+04  0.15294330000E+03 0.  0.
<mgrwt>
<rscale>  0 0.47477255E+03</rscale>
<asrwt>0</asrwt>
<pdfrwt beam="1">  1        1 0.47755698E+00 0.66377756E+03</pdfrwt>
<pdfrwt beam="2">  1       -1 0.31299689E-01 0.66377756E+03</pdfrwt>
<totfact> 0.51622647E+00</totfact>
</mgrwt>
</event>
<event>
 4    1  0.3712574E-007  0.1087929E+04  0.7818608E-02  0.9274616E-01
         -1   -1    0    0    0  501 -0.00000000000E+00  0.00000000000E+00  0.70943338545E+03  0.70943338547E+03  0.50400000000E-02 0.  1.
          1   -1    0    0  501    0  0.00000000000E+00 -0.00000000000E+00 -0.25789010834E+04  0.25789010834E+04  0.50400000000E-02 0. -1.
    8880023    1    1    2    0    0 -0.77278722887E+03 -0.39061440835E+03  0.13808703494E+03  0.10966576278E+04  0.65864270000E+03 0.  1.
    8880022    1    1    2    0    0  0.77278722887E+03  0.39061440835E+03 -0.20075547329E+04  0.21916768410E+04  0.15294330000E+03 0.  0.
<mgrwt>
<rscale>  0 0.10315373E+04</rscale>
<asrwt>0</asrwt>
<pdfrwt beam="1">  1        1 0.39675401E+00 0.10879292E+04</pdfrwt>
<pdfrwt beam="2">  1       -1 0.10914360E+00 0.10879292E+04</pdfrwt>
<totfact> 0.93360404E-01</totfact>
</mgrwt>
</event>
<event>
 4    1  0.3712574E-007  0.7553691E+03  0.7818608E-02  0.9817247E-01
          1   -1    0    0  501    0  0.00000000000E+00  0.00000000000E+00  0.67881153217E+03  0.67881153218E+03  0.50400000000E-02 0. -1.
         -1   -1    0    0    0  501 -0.00000000000E+00 -0.00000000000E+00 -0.72684104441E+03  0.72684104442E+03  0.50400000000E-02 0.  1.
    8880023    1    1    2    0    0 -0.36701614200E+03 -0.45512389392E+02 -0.41569617625E+03  0.86219820418E+03  0.65864270000E+03 0.  0.
    8880022    1    1    2    0    0  0.36701614200E+03  0.45512389392E+02  0.36766666401E+03  0.54345437243E+03  0.15294330000E+03 0.  0.
<mgrwt>
<rscale>  0 0.64445110E+03</rscale>
<asrwt>0</asrwt>
<pdfrwt beam="1">  1        1 0.10443254E+00 0.75536907E+03</pdfrwt>
<pdfrwt beam="2">  1       -1 0.11182170E+00 0.75536907E+03</pdfrwt>
<totfact> 0.21491574E+01</totfact>
</mgrwt>
</event>
<event>
 4    1  0.3712574E-007  0.8764040E+03  0.7818608E-02  0.9565025E-01
         -1   -1    0    0    0  501 -0.00000000000E+00  0.00000000000E+00  0.17835896759E+04  0.17835896759E+04  0.50400000000E-02 0.  1.
          1   -1    0    0  501    0  0.00000000000E+00 -0.00000000000E+00 -0.51202051537E+03  0.51202051540E+03  0.50400000000E-02 0. -1.
    8880023    1    1    2    0    0  0.53387819519E+03 -0.22191840857E+03  0.14297603356E+04  0.16769909156E+04  0.65864270000E+03 0.  1.
    8880022    1    1    2    0    0 -0.53387819519E+03  0.22191840857E+03 -0.15819117512E+03  0.61861927570E+03  0.15294330000E+03 0.  0.
<mgrwt>
<rscale>  0 0.79654967E+03</rscale>
<asrwt>0</asrwt>
<pdfrwt beam="1">  1        1 0.78772385E-01 0.87640397E+03</pdfrwt>
<pdfrwt beam="2">  1       -1 0.27439842E+00 0.87640397E+03</pdfrwt>
<totfact> 0.21325607E+00</totfact>
</mgrwt>
</event>
<event>
 4    1  0.3712574E-007  0.7014111E+03  0.7818608E-02  0.9991397E-01
          1   -1    0    0  501    0  0.00000000000E+00  0.00000000000E+00  0.31543860617E+04  0.31543860617E+04  0.50400000000E-02 0. -1.
         -1   -1    0    0    0  501 -0.00000000000E+00 -0.00000000000E+00 -0.18780694079E+03  0.18780694086E+03  0.50400000000E-02 0.  1.
    8880023    1    1    2    0    0 -0.14711879131E+03 -0.19111097441E+03  0.50546527310E+03  0.86456503044E+03  0.65864270000E+03 0.  1.
    8880022    1    1    2    0    0  0.14711879131E+03  0.19111097441E+03  0.24611138478E+04  0.24776279721E+04  0.15294330000E+03 0.  0.
<mgrwt>
<rscale>  0 0.56029077E+03</rscale>
<asrwt>0</asrwt>
<pdfrwt beam="1">  1        1 0.48529012E+00 0.70141111E+03</pdfrwt>
<pdfrwt beam="2">  1       -1 0.28893378E-01 0.70141111E+03</pdfrwt>
<totfact> 0.54123634E+00</totfact>
</mgrwt>
</event>
<event>
 4    1  0.3712574E-007  0.6881060E+03  0.7818608E-02  0.1005066E+00
         -1   -1    0    0    0  501 -0.00000000000E+00  0.00000000000E+00  0.23816834679E+04  0.23816834679E+04  0.50400000000E-02 0.  1.
          1   -1    0    0  501    0  0.00000000000E+00 -0.00000000000E+00 -0.18089085405E+03  0.18089085412E+03  0.50400000000E-02 0. -1.
    8880023    1    1    2    0    0 -0.18666280782E+03  0.69545806949E+02  0.22065657266E+04  0.23113680225E+04  0.65864270000E+03 0.  1.
    8880022    1    1    2    0    0  0.18666280782E+03 -0.69545806949E+02 -0.57731127868E+01  0.25120629955E+03  0.15294330000E+03 0.  0.
<mgrwt>
<rscale>  0 0.53483577E+03</rscale>
<asrwt>0</asrwt>
<pdfrwt beam="1">  1        1 0.27829364E-01 0.68810597E+03</pdfrwt>
<pdfrwt beam="2">  1       -1 0.36641282E+00 0.68810597E+03</pdfrwt>
<totfact> 0.21910208E+00</totfact>
</mgrwt>
</event>
<event>
 4    1  0.3712574E-007  0.7160471E+03  0.7818608E-02  0.9936195E-01
          1   -1    0    0  501    0  0.00000000000E+00  0.00000000000E+00  0.23087226269E+04  0.23087226269E+04  0.50400000000E-02 0. -1.
         -1   -1    0    0    0  501 -0.00000000000E+00 -0.00000000000E+00 -0.17718445769E+03  0.17718445776E+03  0.50400000000E-02 0.  1.
    8880023    1    1    2    0    0 -0.14441830438E+03  0.24094945016E+03  0.63973503595E+03  0.96020019093E+03  0.65864270000E+03 0.  0.
    8880022    1    1    2    0    0  0.14441830438E+03 -0.24094945016E+03  0.14918031332E+04  0.15257068937E+04  0.15294330000E+03 0.  0.
<mgrwt>
<rscale>  0 0.58538728E+03</rscale>
<asrwt>0</asrwt>
<pdfrwt beam="1">  1        1 0.35518807E+00 0.71604713E+03</pdfrwt>
<pdfrwt beam="2">  1       -1 0.27259149E-01 0.71604713E+03</pdfrwt>
<totfact> 0.23223926E+01</totfact>
</mgrwt>
</event>
<event>
 4    1  0.3712574E-007  0.8578011E+03  0.7818608E-02  0.9597487E-01
         -1   -1    0    0    0  501 -0.00000000000E+00  0.00000000000E+00  0.93613840070E+03  0.93613840071E+03  0.50400000000E-02 0.  1.
          1   -1    0    0  501    0  0.00000000000E+00 -0.00000000000E+00 -0.14250560087E+04  0.14250560087E+04  0.50400000000E-02 0. -1.
    8880023    1    1    2    0    0 -0.12528948539E+03  0.53508413473E+03  0.65743040375E+03  0.10807578029E+04  0.65864270000E+03 0.  1.
    8880022    1    1    2    0    0  0.12528948539E+03 -0.53508413473E+03 -0.11463480118E+04  0.12804366066E+04  0.15294330000E+03 0.  0.
<mgrwt>
<rscale>  0 0.77462735E+03</rscale>
<asrwt>0</asrwt>
<pdfrwt beam="1">  1        1 0.21923939E+00 0.85780108E+03</pdfrwt>
<pdfrwt beam="2">  1       -1 0.14402129E+00 0.85780108E+03</pdfrwt>
<totfact> 0.29427353E+00</totfact>
</mgrwt>
</event>
<event>
 4    1  0.3712574E-007  0.7681982E+03  0.7818608E-02  0.9784328E-01
          1   -1    0    0  501    0  0.00000000000E+00  0.00000000000E+00  0.11098639006E+04  0.11098639006E+04  0.50400000000E-02 0. -1.
         -1   -1    0    0    0  501 -0.00000000000E+00 -0.00000000000E+00 -0.45305804421E+03  0.45305804424E+03  0.50400000000E-02 0.  1.
    8880023    1    1    2    0    0  0.11790119788E+03 -0.37738254014E+03 -0.15232754807E+02  0.76834921562E+03  0.65864270000E+03 0.  1.
    8880022    1    1    2    0    0 -0.11790119788E+03  0.37738254014E+03  0.67203861116E+03  0.79457272919E+03  0.15294330000E+03 0.  0.
<mgrwt>
<rscale>  0 0.66210440E+03</rscale>
<asrwt>0</asrwt>
<pdfrwt beam="1">  1        1 0.17074829E+00 0.76819820E+03</pdfrwt>
<pdfrwt beam="2">  1       -1 0.69701239E-01 0.76819820E+03</pdfrwt>
<totfact> 0.26630946E+01</totfact>
</mgrwt>
</event>
<event>
 4    1  0.3712574E-007  0.7354745E+03  0.7818608E-02  0.9873331E-01
         -1   -1    0    0    0  501 -0.00000000000E+00  0.00000000000E+00  0.50804930923E+03  0.50804930926E+03  0.50400000000E-02 0.  1.
          1   -1    0    0  501    0  0.00000000000E+00 -0.00000000000E+00 -0.26436078540E+04  0.26436078540E+04  0.50400000000E-02 0. -1.
    8880023    1    1    2    0    0 -0.72597926914E+02 -0.31912714568E+03  0.22069360102E+03  0.76787268860E+03  0.65864270000E+03 0.  0.
    8880022    1    1    2    0    0  0.72597926914E+02  0.31912714568E+03 -0.23562521458E+04  0.23837844747E+04  0.15294330000E+03 0.  0.
<mgrwt>
<rscale>  0 0.61571370E+03</rscale>
<asrwt>0</asrwt>
<pdfrwt beam="1">  1        1 0.40670889E+00 0.73547454E+03</pdfrwt>
<pdfrwt beam="2">  1       -1 0.78161434E-01 0.73547454E+03</pdfrwt>
<totfact> 0.18868667E+00</totfact>
</mgrwt>
</event>
<event>
 4    1  0.3712574E-007  0.9816868E+03  0.7818608E-02  0.9405919E-01
         -1   -1    0    0    0  501 -0.00000000000E+00  0.00000000000E+00  0.10819526634E+04  0.10819526635E+04  0.50400000000E-02 0.  1.
          1   -1    0    0  501    0  0.00000000000E+00 -0.00000000000E+00 -0.10495339569E+04  0.10495339570E+04  0.50400000000E-02 0. -1.
    8880023    1    1    2    0    0  0.69070817256E+03  0.22982825700E+03  0.63929023625E+03  0.11714952069E+04  0.65864270000E+03 0.  0.
    8880022    1    1    2    0    0 -0.69070817256E+03 -0.22982825700E+03 -0.60687152975E+03  0.95999141350E+03  0.15294330000E+03 0.  0.
<mgrwt>
<rscale>  0 0.91590171E+03</rscale>
<asrwt>0</asrwt>
<pdfrwt beam="1">  1        1 0.16146676E+00 0.98168682E+03</pdfrwt>
<pdfrwt beam="2">  1       -1 0.16645426E+00 0.98168682E+03</pdfrwt>
<totfact> 0.36396315E+00</totfact>
</mgrwt>
</event>
<event>
 4    1  0.3712574E-007  0.1010811E+04  0.7818608E-02  0.9367548E-01
          1   -1    0    0  501    0  0.00000000000E+00  0.00000000000E+00  0.13039759139E+04  0.13039759139E+04  0.50400000000E-02 0. -1.
         -1   -1    0    0    0  501 -0.00000000000E+00 -0.00000000000E+00 -0.84111587906E+03  0.84111587908E+03  0.50400000000E-02 0.  1.
    8880023    1    1    2    0    0  0.73274969755E+03 -0.22584693089E+03 -0.29829854416E+03  0.10539075781E+04  0.65864270000E+03 0.  0.
    8880022    1    1    2    0    0 -0.73274969755E+03  0.22584693089E+03  0.76115857901E+03  0.10911842149E+04  0.15294330000E+03 0.  0.
<mgrwt>
<rscale>  0 0.94795156E+03</rscale>
<asrwt>0</asrwt>
<pdfrwt beam="1">  1        1 0.20061168E+00 0.10108111E+04</pdfrwt>
<pdfrwt beam="2">  1       -1 0.12940244E+00 0.10108111E+04</pdfrwt>
<totfact> 0.46229058E+00</totfact>
</mgrwt>
</event>
<event>
 4    1  0.3712574E-007  0.9580177E+03  0.7818608E-02  0.9438671E-01
         -1   -1    0    0    0  501 -0.00000000000E+00  0.00000000000E+00  0.44284130851E+03  0.44284130854E+03  0.50400000000E-02 0.  1.
          1   -1    0    0  501    0  0.00000000000E+00 -0.00000000000E+00 -0.26027372610E+04  0.26027372610E+04  0.50400000000E-02 0. -1.
    8880023    1    1    2    0    0  0.50074421535E+03  0.48295238188E+03 -0.22549403713E+03  0.98419791679E+03  0.65864270000E+03 0.  0.
    8880022    1    1    2    0    0 -0.50074421535E+03 -0.48295238188E+03 -0.19344019153E+04  0.20613806527E+04  0.15294330000E+03 0.  0.
<mgrwt>
<rscale>  0 0.88960408E+03</rscale>
<asrwt>0</asrwt>
<pdfrwt beam="1">  1        1 0.40042111E+00 0.95801773E+03</pdfrwt>
<pdfrwt beam="2">  1       -1 0.68129434E-01 0.95801773E+03</pdfrwt>
<totfact> 0.25732772E+00</totfact>
</mgrwt>
</event>
<event>
 4    1  0.3712574E-007  0.1520247E+04  0.7818608E-02  0.8895470E-01
          1   -1    0    0  501    0  0.00000000000E+00  0.00000000000E+00  0.49978379933E+04  0.49978379933E+04  0.50400000000E-02 0. -1.
         -1   -1    0    0    0  501 -0.00000000000E+00 -0.00000000000E+00 -0.52804388611E+03  0.52804388614E+03  0.50400000000E-02 0.  1.
    8880023    1    1    2    0    0 -0.40688415819E+03 -0.13083524474E+04  0.10753134466E+04  0.18621090353E+04  0.65864270000E+03 0.  1.
    8880022    1    1    2    0    0  0.40688415819E+03  0.13083524474E+04  0.33944806606E+04  0.36637728441E+04  0.15294330000E+03 0.  0.
<mgrwt>
<rscale>  0 0.14835451E+04</rscale>
<asrwt>0</asrwt>
<pdfrwt beam="1">  1        1 0.76889811E+00 0.15202470E+04</pdfrwt>
<pdfrwt beam="2">  1       -1 0.81237526E-01 0.15202470E+04</pdfrwt>
<totfact> 0.13021502E-02</totfact>
</mgrwt>
</event>
<event>
 4    1  0.3712574E-007  0.9374033E+03  0.7818608E-02  0.9468474E-01
         -1   -1    0    0    0  501 -0.00000000000E+00  0.00000000000E+00  0.30750942665E+03  0.30750942669E+03  0.50400000000E-02 0.  1.
          1   -1    0    0  501    0  0.00000000000E+00 -0.00000000000E+00 -0.25524839524E+04  0.25524839524E+04  0.50400000000E-02 0. -1.
    8880023    1    1    2    0    0 -0.65118860302E+03  0.14445802528E+03 -0.69899180004E+03  0.11693222227E+04  0.65864270000E+03 0.  0.
    8880022    1    1    2    0    0  0.65118860302E+03 -0.14445802528E+03 -0.15459827257E+04  0.16906711564E+04  0.15294330000E+03 0.  0.
<mgrwt>
<rscale>  0 0.86648513E+03</rscale>
<asrwt>0</asrwt>
<pdfrwt beam="1">  1        1 0.39268983E+00 0.93740329E+03</pdfrwt>
<pdfrwt beam="2">  1       -1 0.47309144E-01 0.93740329E+03</pdfrwt>
<totfact> 0.57069875E+00</totfact>
</mgrwt>
</event>
<event>
 4    1  0.3712574E-007  0.1134537E+04  0.7818608E-02  0.9223544E-01
         -1   -1    0    0    0  501 -0.00000000000E+00  0.00000000000E+00  0.53959722389E+03  0.53959722391E+03  0.50400000000E-02 0.  1.
          1   -1    0    0  501    0  0.00000000000E+00 -0.00000000000E+00 -0.22765710114E+04  0.22765710115E+04  0.50400000000E-02 0. -1.
    8880023    1    1    2    0    0 -0.83866133549E+03 -0.38731288027E+03 -0.44079689151E+03  0.12171590729E+04  0.65864270000E+03 0.  0.
    8880022    1    1    2    0    0  0.83866133549E+03  0.38731288027E+03 -0.12961768960E+04  0.15990091625E+04  0.15294330000E+03 0.  0.
<mgrwt>
<rscale>  0 0.10813688E+04</rscale>
<asrwt>0</asrwt>
<pdfrwt beam="1">  1        1 0.35024169E+00 0.11345370E+04</pdfrwt>
<pdfrwt beam="2">  1       -1 0.83014958E-01 0.11345370E+04</pdfrwt>
<totfact> 0.27756981E+00</totfact>
</mgrwt>
</event>
<event>
 4    1  0.3712574E-007  0.6854325E+03  0.7818608E-02  0.1006404E+00
          1   -1    0    0  501    0  0.00000000000E+00  0.00000000000E+00  0.15525653392E+04  0.15525653392E+04  0.50400000000E-02 0. -1.
         -1   -1    0    0    0  501 -0.00000000000E+00 -0.00000000000E+00 -0.31274693870E+03  0.31274693874E+03  0.50400000000E-02 0.  1.
    8880023    1    1    2    0    0 -0.78716495961E+02 -0.17265936850E+03  0.91615431944E+02  0.69152811794E+03  0.65864270000E+03 0.  1.
    8880022    1    1    2    0    0  0.78716495961E+02  0.17265936850E+03  0.11482029685E+04  0.11737841600E+04  0.15294330000E+03 0.  0.
<mgrwt>
<rscale>  0 0.52929294E+03</rscale>
<asrwt>0</asrwt>
<pdfrwt beam="1">  1        1 0.23885621E+00 0.68543253E+03</pdfrwt>
<pdfrwt beam="2">  1       -1 0.48114913E-01 0.68543253E+03</pdfrwt>
<totfact> 0.27069656E+01</totfact>
</mgrwt>
</event>
<event>
 4    1  0.3712574E-007  0.6922741E+03  0.7818608E-02  0.1003090E+00
         -1   -1    0    0    0  501 -0.00000000000E+00  0.00000000000E+00  0.45645662308E+03  0.45645662311E+03  0.50400000000E-02 0.  1.
          1   -1    0    0  501    0  0.00000000000E+00 -0.00000000000E+00 -0.23645043296E+04  0.23645043296E+04  0.50400000000E-02 0. -1.
    8880023    1    1    2    0    0  0.18526189215E+03  0.10541009707E+03  0.18096789005E+03  0.71553675010E+03  0.65864270000E+03 0.  1.
    8880022    1    1    2    0    0 -0.18526189215E+03 -0.10541009707E+03 -0.20890155965E+04  0.21054242026E+04  0.15294330000E+03 0.  0.
<mgrwt>
<rscale>  0 0.54315875E+03</rscale>
<asrwt>0</asrwt>
<pdfrwt beam="1">  1        1 0.36376989E+00 0.69227412E+03</pdfrwt>
<pdfrwt beam="2">  1       -1 0.70224097E-01 0.69227412E+03</pdfrwt>
<totfact> 0.36866169E+00</totfact>
</mgrwt>
</event>
<event>
 4    1  0.3712574E-007  0.9315659E+03  0.7818608E-02  0.9477148E-01
         -1   -1    0    0    0  501 -0.00000000000E+00  0.00000000000E+00  0.44808949296E+03  0.44808949298E+03  0.50400000000E-02 0.  1.
          1   -1    0    0  501    0  0.00000000000E+00 -0.00000000000E+00 -0.26162329398E+04  0.26162329398E+04  0.50400000000E-02 0. -1.
    8880023    1    1    2    0    0 -0.60630638094E+03  0.25767698489E+03 -0.15981320537E+03  0.94517475791E+03  0.65864270000E+03 0.  1.
    8880022    1    1    2    0    0  0.60630638094E+03 -0.25767698489E+03 -0.20083302415E+04  0.21191476749E+04  0.15294330000E+03 0.  0.
<mgrwt>
<rscale>  0 0.85989772E+03</rscale>
<asrwt>0</asrwt>
<pdfrwt beam="1">  1        1 0.40249737E+00 0.93156592E+03</pdfrwt>
<pdfrwt beam="2">  1       -1 0.68936847E-01 0.93156592E+03</pdfrwt>
<totfact> 0.24686515E+00</totfact>
</mgrwt>
</event>
<event>
 4    1  0.3712574E-007  0.6641522E+03  0.7818608E-02  0.1020256E+00
          1   -1    0    0  501    0  0.00000000000E+00  0.00000000000E+00  0.21645476859E+04  0.21645476859E+04  0.50400000000E-02 0. -1.
         -1   -1    0    0    0  501 -0.00000000000E+00 -0.00000000000E+00 -0.41574012092E+03  0.41574012095E+03  0.50400000000E-02 0.  1.
    8880023    1    1    2    0    0  0.62893001147E+02 -0.57727085171E+02 -0.14384220024E+03  0.67955038870E+03  0.65864270000E+03 0.  0.
    8880022    1    1    2    0    0 -0.62893001147E+02  0.57727085171E+02  0.18926497652E+04  0.19007374181E+04  0.15294330000E+03 0. -1.
<mgrwt>
<rscale>  0 0.47594517E+03</rscale>
<asrwt>0</asrwt>
<pdfrwt beam="1">  1        1 0.33300733E+00 0.66415221E+03</pdfrwt>
<pdfrwt beam="2">  1       -1 0.63960020E-01 0.66415221E+03</pdfrwt>
<totfact> 0.61005481E+00</totfact>
</mgrwt>
</event>
<event>
 4    1  0.3712574E-007  0.8831933E+03  0.7818608E-02  0.9553569E-01
          1   -1    0    0  501    0  0.00000000000E+00  0.00000000000E+00  0.57308604379E+03  0.57308604381E+03  0.50400000000E-02 0. -1.
         -1   -1    0    0    0  501 -0.00000000000E+00 -0.00000000000E+00 -0.97005827920E+03  0.97005827922E+03  0.50400000000E-02 0.  1.
    8880023    1    1    2    0    0  0.17018967235E+03  0.56325456396E+03 -0.22833957585E+03  0.91223319198E+03  0.65864270000E+03 0.  0.
    8880022    1    1    2    0    0 -0.17018967235E+03 -0.56325456396E+03 -0.16863265956E+03  0.63091113104E+03  0.15294330000E+03 0. -1.
<mgrwt>
<rscale>  0 0.80447040E+03</rscale>
<asrwt>0</asrwt>
<pdfrwt beam="1">  1        1 0.88167084E-01 0.88319332E+03</pdfrwt>
<pdfrwt beam="2">  1       -1 0.14923973E+00 0.88319332E+03</pdfrwt>
<totfact> 0.13119358E+01</totfact>
</mgrwt>
</event>
<event>
 4    1  0.3712574E-007  0.6934146E+03  0.7818608E-02  0.1002570E+00
          1   -1    0    0  501    0  0.00000000000E+00  0.00000000000E+00  0.16295672611E+04  0.16295672611E+04  0.50400000000E-02 0. -1.
         -1   -1    0    0    0  501 -0.00000000000E+00 -0.00000000000E+00 -0.57123822653E+03  0.57123822656E+03  0.50400000000E-02 0.  1.
    8880023    1    1    2    0    0 -0.15338434548E+03  0.15325416791E+03 -0.34367766934E+03  0.77391094067E+03  0.65864270000E+03 0.  1.
    8880022    1    1    2    0    0  0.15338434548E+03 -0.15325416791E+03  0.14020067039E+04  0.14268945470E+04  0.15294330000E+03 0.  0.
<mgrwt>
<rscale>  0 0.54537518E+03</rscale>
<asrwt>0</asrwt>
<pdfrwt beam="1">  1        1 0.25070266E+00 0.69341460E+03</pdfrwt>
<pdfrwt beam="2">  1       -1 0.87882803E-01 0.69341460E+03</pdfrwt>
<totfact> 0.71312801E+00</totfact>
</mgrwt>
</event>
<event>
 4    1  0.3712574E-007  0.8072945E+03  0.7818608E-02  0.9695240E-01
          1   -1    0    0  501    0  0.00000000000E+00  0.00000000000E+00  0.11833567535E+04  0.11833567535E+04  0.50400000000E-02 0. -1.
         -1   -1    0    0    0  501 -0.00000000000E+00 -0.00000000000E+00 -0.66176412103E+03  0.66176412105E+03  0.50400000000E-02 0.  1.
    8880023    1    1    2    0    0  0.27480701179E+03 -0.37735294286E+03 -0.32182566658E+03  0.86907773136E+03  0.65864270000E+03 0.  1.
    8880022    1    1    2    0    0 -0.27480701179E+03  0.37735294286E+03  0.84341829903E+03  0.97604314319E+03  0.15294330000E+03 0.  0.
<mgrwt>
<rscale>  0 0.71300889E+03</rscale>
<asrwt>0</asrwt>
<pdfrwt beam="1">  1        1 0.18205488E+00 0.80729446E+03</pdfrwt>
<pdfrwt beam="2">  1       -1 0.10180987E+00 0.80729446E+03</pdfrwt>
<totfact> 0.10315272E+01</totfact>
</mgrwt>
</event>
<event>
 4    1  0.3712574E-007  0.7148099E+03  0.7818608E-02  0.9940555E-01
         -1   -1    0    0    0  501 -0.00000000000E+00  0.00000000000E+00  0.47947593222E+03  0.47947593225E+03  0.50400000000E-02 0.  1.
          1   -1    0    0  501    0  0.00000000000E+00 -0.00000000000E+00 -0.21958592976E+04  0.21958592976E+04  0.50400000000E-02 0. -1.
    8880023    1    1    2    0    0  0.98900967492E+02 -0.25954113304E+03  0.19251689619E+03  0.74028100252E+03  0.65864270000E+03 0.  0.
    8880022    1    1    2    0    0 -0.98900967492E+02  0.25954113304E+03 -0.19089002616E+04  0.19350542273E+04  0.15294330000E+03 0. -1.
<mgrwt>
<rscale>  0 0.58335429E+03</rscale>
<asrwt>0</asrwt>
<pdfrwt beam="1">  1        1 0.33782450E+00 0.71480991E+03</pdfrwt>
<pdfrwt beam="2">  1       -1 0.73765529E-01 0.71480991E+03</pdfrwt>
<totfact> 0.43065531E+00</totfact>
</mgrwt>
</event>
<event>
 4    1  0.3712574E-007  0.1021391E+04  0.7818608E-02  0.9354092E-01
         -1   -1    0    0    0  501 -0.00000000000E+00  0.00000000000E+00  0.92109351841E+03  0.92109351842E+03  0.50400000000E-02 0.  1.
          1   -1    0    0  501    0  0.00000000000E+00 -0.00000000000E+00 -0.14031598415E+04  0.14031598415E+04  0.50400000000E-02 0. -1.
    8880023    1    1    2    0    0  0.36720244083E+03 -0.68890564713E+03 -0.95540217855E+03  0.13985821936E+04  0.65864270000E+03 0.  1.
    8880022    1    1    2    0    0 -0.36720244083E+03  0.68890564713E+03  0.47333585543E+03  0.92567116637E+03  0.15294330000E+03 0.  0.
<mgrwt>
<rscale>  0 0.95951982E+03</rscale>
<asrwt>0</asrwt>
<pdfrwt beam="1">  1        1 0.21587074E+00 0.10213906E+04</pdfrwt>
<pdfrwt beam="2">  1       -1 0.14170670E+00 0.10213906E+04</pdfrwt>
<totfact> 0.31094629E+00</totfact>
</mgrwt>
</event>
<event>
 4    1  0.3712574E-007  0.8426717E+03  0.7818608E-02  0.9625163E-01
         -1   -1    0    0    0  501 -0.00000000000E+00  0.00000000000E+00  0.24123400697E+04  0.24123400697E+04  0.50400000000E-02 0.  1.
          1   -1    0    0  501    0  0.00000000000E+00 -0.00000000000E+00 -0.11207861703E+04  0.11207861703E+04  0.50400000000E-02 0. -1.
    8880023    1    1    2    0    0 -0.35213147400E+02 -0.52444766718E+03  0.22647989770E+04  0.24164871061E+04  0.65864270000E+03 0.  0.
    8880022    1    1    2    0    0  0.35213147400E+02  0.52444766718E+03 -0.97324507757E+03  0.11166391339E+04  0.15294330000E+03 0.  0.
<mgrwt>
<rscale>  0 0.75652880E+03</rscale>
<asrwt>0</asrwt>
<pdfrwt beam="1">  1        1 0.17242864E+00 0.84267166E+03</pdfrwt>
<pdfrwt beam="2">  1       -1 0.37112924E+00 0.84267166E+03</pdfrwt>
<totfact> 0.14510093E-01</totfact>
</mgrwt>
</event>
<event>
 4    1  0.3712574E-007  0.7694493E+03  0.7818608E-02  0.9781231E-01
         -1   -1    0    0    0  501 -0.00000000000E+00  0.00000000000E+00  0.18271155733E+04  0.18271155733E+04  0.50400000000E-02 0.  1.
          1   -1    0    0  501    0  0.00000000000E+00 -0.00000000000E+00 -0.98893714236E+03  0.98893714237E+03  0.50400000000E-02 0. -1.
    8880023    1    1    2    0    0  0.39769187372E+03  0.91241251599E+01  0.16936811773E+04  0.18602710052E+04  0.65864270000E+03 0.  1.
    8880022    1    1    2    0    0 -0.39769187372E+03 -0.91241251599E+01 -0.85550274636E+03  0.95578171050E+03  0.15294330000E+03 0.  0.
<mgrwt>
<rscale>  0 0.66379593E+03</rscale>
<asrwt>0</asrwt>
<pdfrwt beam="1">  1        1 0.15214418E+00 0.76944934E+03</pdfrwt>
<pdfrwt beam="2">  1       -1 0.28109470E+00 0.76944934E+03</pdfrwt>
<totfact> 0.71207799E-01</totfact>
</mgrwt>
</event>
<event>
 4    1  0.3712574E-007  0.7023231E+03  0.7818608E-02  0.9987697E-01
         -1   -1    0    0    0  501 -0.00000000000E+00  0.00000000000E+00  0.38066203526E+03  0.38066203530E+03  0.50400000000E-02 0.  1.
          1   -1    0    0  501    0  0.00000000000E+00 -0.00000000000E+00 -0.93644954367E+03  0.93644954368E+03  0.50400000000E-02 0. -1.
    8880023    1    1    2    0    0  0.16991560055E+03 -0.17486058006E+03 -0.12661955865E+02  0.70243723218E+03  0.65864270000E+03 0. -1.
    8880022    1    1    2    0    0 -0.16991560055E+03  0.17486058006E+03 -0.54312555254E+03  0.61467434680E+03  0.15294330000E+03 0.  0.
<mgrwt>
<rscale>  0 0.56192997E+03</rscale>
<asrwt>0</asrwt>
<pdfrwt beam="1">  1        1 0.14406916E+00 0.70232310E+03</pdfrwt>
<pdfrwt beam="2">  1       -1 0.58563390E-01 0.70232310E+03</pdfrwt>
<totfact> 0.51640560E+01</totfact>
</mgrwt>
</event>
<event>
 4    1  0.3712574E-007  0.6638281E+03  0.7818608E-02  0.1020538E+00
          1   -1    0    0  501    0  0.00000000000E+00  0.00000000000E+00  0.24868068093E+03  0.24868068098E+03  0.50400000000E-02 0. -1.
         -1   -1    0    0    0  501 -0.00000000000E+00 -0.00000000000E+00 -0.10056225190E+04  0.10056225191E+04  0.50400000000E-02 0.  1.
    8880023    1    1    2    0    0 -0.32966250184E+01 -0.82744245869E+02 -0.83242550114E+03  0.10647064850E+04  0.65864270000E+03 0.  1.
    8880022    1    1    2    0    0  0.32966250184E+01  0.82744245869E+02  0.75483663028E+02  0.18959671506E+03  0.15294330000E+03 0.  0.
<mgrwt>
<rscale>  0 0.47493132E+03</rscale>
<asrwt>0</asrwt>
<pdfrwt beam="1">  1        1 0.38258567E-01 0.66382805E+03</pdfrwt>
<pdfrwt beam="2">  1       -1 0.15471115E+00 0.66382805E+03</pdfrwt>
<totfact> 0.36974319E+01</totfact>
</mgrwt>
</event>
<event>
 4    1  0.3712574E-007  0.8972760E+03  0.7818608E-02  0.9530419E-01
         -1   -1    0    0    0  501 -0.00000000000E+00  0.00000000000E+00  0.62139900219E+03  0.62139900221E+03  0.50400000000E-02 0.  1.
          1   -1    0    0  501    0  0.00000000000E+00 -0.00000000000E+00 -0.26364140476E+04  0.26364140476E+04  0.50400000000E-02 0. -1.
    8880023    1    1    2    0    0  0.69685460552E+01 -0.60929911945E+03  0.23022025786E+03  0.92633986797E+03  0.65864270000E+03 0.  0.
    8880022    1    1    2    0    0 -0.69685460552E+01  0.60929911945E+03 -0.22452353033E+04  0.23314731819E+04  0.15294330000E+03 0.  0.
<mgrwt>
<rscale>  0 0.82077845E+03</rscale>
<asrwt>0</asrwt>
<pdfrwt beam="1">  1        1 0.40560215E+00 0.89727598E+03</pdfrwt>
<pdfrwt beam="2">  1       -1 0.95599848E-01 0.89727598E+03</pdfrwt>
<totfact> 0.11931945E+00</totfact>
</mgrwt>
</event>
<event>
 4    1  0.3712574E-007  0.9560515E+03  0.7818608E-02  0.9441460E-01
          1   -1    0    0  501    0  0.00000000000E+00  0.00000000000E+00  0.93660230634E+03  0.93660230635E+03  0.50400000000E-02 0. -1.
         -1   -1    0    0    0  501 -0.00000000000E+00 -0.00000000000E+00 -0.10879842810E+04  0.10879842810E+04  0.50400000000E-02 0.  1.
    8880023    1    1    2    0    0  0.25854174449E+03  0.64294665646E+03 -0.65104184335E+03  0.11566719175E+04  0.65864270000E+03 0.  1.
    8880022    1    1    2    0    0 -0.25854174449E+03 -0.64294665646E+03  0.49965986871E+03  0.86791466983E+03  0.15294330000E+03 0.  0.
<mgrwt>
<rscale>  0 0.88740810E+03</rscale>
<asrwt>0</asrwt>
<pdfrwt beam="1">  1        1 0.14409266E+00 0.95605149E+03</pdfrwt>
<pdfrwt beam="2">  1       -1 0.16738220E+00 0.95605149E+03</pdfrwt>
<totfact> 0.44063436E+00</totfact>
</mgrwt>
</event>
<event>
 4    1  0.3712574E-007  0.8477780E+03  0.7818608E-02  0.9615685E-01
          1   -1    0    0  501    0  0.00000000000E+00  0.00000000000E+00  0.12836475688E+04  0.12836475688E+04  0.50400000000E-02 0. -1.
         -1   -1    0    0    0  501 -0.00000000000E+00 -0.00000000000E+00 -0.83961108999E+03  0.83961109001E+03  0.50400000000E-02 0.  1.
    8880023    1    1    2    0    0 -0.65969585367E+02  0.52968422976E+03 -0.53161456492E+03  0.10006705858E+04  0.65864270000E+03 0.  1.
    8880022    1    1    2    0    0  0.65969585367E+02 -0.52968422976E+03  0.97565104372E+03  0.11225880730E+04  0.15294330000E+03 0.  0.
<mgrwt>
<rscale>  0 0.76266689E+03</rscale>
<asrwt>0</asrwt>
<pdfrwt beam="1">  1        1 0.19748424E+00 0.84777802E+03</pdfrwt>
<pdfrwt beam="2">  1       -1 0.12917094E+00 0.84777802E+03</pdfrwt>
<totfact> 0.49040885E+00</totfact>
</mgrwt>
</event>
<event>
 4    1  0.3712574E-007  0.7223557E+03  0.7818608E-02  0.9914694E-01
         -1   -1    0    0    0  501 -0.00000000000E+00  0.00000000000E+00  0.89794031654E+03  0.89794031656E+03  0.50400000000E-02 0.  1.
          1   -1    0    0  501    0  0.00000000000E+00 -0.00000000000E+00 -0.48507509545E+03  0.48507509548E+03  0.50400000000E-02 0. -1.
    8880023    1    1    2    0    0 -0.27092233837E+03  0.12078332735E+03  0.65148913411E+03  0.97274653621E+03  0.65864270000E+03 0.  1.
    8880022    1    1    2    0    0  0.27092233837E+03 -0.12078332735E+03 -0.23862391301E+03  0.41026887582E+03  0.15294330000E+03 0.  0.
<mgrwt>
<rscale>  0 0.59554396E+03</rscale>
<asrwt>0</asrwt>
<pdfrwt beam="1">  1        1 0.74626938E-01 0.72235568E+03</pdfrwt>
<pdfrwt beam="2">  1       -1 0.13814466E+00 0.72235568E+03</pdfrwt>
<totfact> 0.20637274E+01</totfact>
</mgrwt>
</event>
<event>
 4    1  0.3712574E-007  0.1163357E+04  0.7818608E-02  0.9193592E-01
          1   -1    0    0  501    0  0.00000000000E+00  0.00000000000E+00  0.67984128892E+03  0.67984128894E+03  0.50400000000E-02 0. -1.
         -1   -1    0    0    0  501 -0.00000000000E+00 -0.00000000000E+00 -0.21978381485E+04  0.21978381485E+04  0.50400000000E-02 0.  1.
    8880023    1    1    2    0    0  0.20462982744E+03 -0.93686503688E+03 -0.15105103924E+04  0.19065784315E+04  0.65864270000E+03 0.  1.
    8880022    1    1    2    0    0 -0.20462982744E+03  0.93686503688E+03 -0.74864671951E+01  0.97110100598E+03  0.15294330000E+03 0.  0.
<mgrwt>
<rscale>  0 0.11119817E+04</rscale>
<asrwt>0</asrwt>
<pdfrwt beam="1">  1        1 0.10459097E+00 0.11633571E+04</pdfrwt>
<pdfrwt beam="2">  1       -1 0.33812894E+00 0.11633571E+04</pdfrwt>
<totfact> 0.52793968E-01</totfact>
</mgrwt>
</event>
<event>
 4    1  0.3712574E-007  0.7869283E+03  0.7818608E-02  0.9739807E-01
          1   -1    0    0  501    0  0.00000000000E+00  0.00000000000E+00  0.14071675590E+04  0.14071675590E+04  0.50400000000E-02 0. -1.
         -1   -1    0    0    0  501 -0.00000000000E+00 -0.00000000000E+00 -0.98959532185E+03  0.98959532186E+03  0.50400000000E-02 0.  1.
    8880023    1    1    2    0    0  0.49357230418E+02 -0.42779654470E+03 -0.78424790549E+03  0.11109910006E+04  0.65864270000E+03 0.  1.
    8880022    1    1    2    0    0 -0.49357230418E+02  0.42779654470E+03  0.12018201427E+04  0.12857718803E+04  0.15294330000E+03 0.  0.
<mgrwt>
<rscale>  0 0.68695375E+03</rscale>
<asrwt>0</asrwt>
<pdfrwt beam="1">  1        1 0.21648732E+00 0.78692835E+03</pdfrwt>
<pdfrwt beam="2">  1       -1 0.15224543E+00 0.78692835E+03</pdfrwt>
<totfact> 0.26407814E+00</totfact>
</mgrwt>
</event>
<event>
 4    1  0.3712574E-007  0.9878172E+03  0.7818608E-02  0.9397673E-01
          1   -1    0    0  501    0  0.00000000000E+00  0.00000000000E+00  0.19472564168E+04  0.19472564168E+04  0.50400000000E-02 0. -1.
         -1   -1    0    0    0  501 -0.00000000000E+00 -0.00000000000E+00 -0.47874910803E+03  0.47874910806E+03  0.50400000000E-02 0.  1.
    8880023    1    1    2    0    0 -0.69660057147E+03  0.23816013171E+03  0.29257759750E+03  0.10302351486E+04  0.65864270000E+03 0.  1.
    8880022    1    1    2    0    0  0.69660057147E+03 -0.23816013171E+03  0.11759297113E+04  0.13957703763E+04  0.15294330000E+03 0.  0.
<mgrwt>
<rscale>  0 0.92267442E+03</rscale>
<asrwt>0</asrwt>
<pdfrwt beam="1">  1        1 0.29957791E+00 0.98781720E+03</pdfrwt>
<pdfrwt beam="2">  1       -1 0.73653709E-01 0.98781720E+03</pdfrwt>
<totfact> 0.60827042E+00</totfact>
</mgrwt>
</event>
<event>
 4    1  0.3712574E-007  0.7483050E+03  0.7818608E-02  0.9836384E-01
         -1   -1    0    0    0  501 -0.00000000000E+00  0.00000000000E+00  0.17603824271E+03  0.17603824278E+03  0.50400000000E-02 0.  1.
          1   -1    0    0  501    0  0.00000000000E+00 -0.00000000000E+00 -0.38688718760E+04  0.38688718760E+04  0.50400000000E-02 0. -1.
    8880023    1    1    2    0    0 -0.33516614429E+03  0.11753216022E+03 -0.69188802388E+03  0.10191513120E+04  0.65864270000E+03 0.  1.
    8880022    1    1    2    0    0  0.33516614429E+03 -0.11753216022E+03 -0.30009456095E+04  0.30257588068E+04  0.15294330000E+03 0.  0.
<mgrwt>
<rscale>  0 0.63446009E+03</rscale>
<asrwt>0</asrwt>
<pdfrwt beam="1">  1        1 0.59521100E+00 0.74830499E+03</pdfrwt>
<pdfrwt beam="2">  1       -1 0.27082809E-01 0.74830499E+03</pdfrwt>
<totfact> 0.16685360E+00</totfact>
</mgrwt>
</event>
<event>
 4    1  0.3712574E-007  0.6631207E+03  0.7818608E-02  0.1021165E+00
          1   -1    0    0  501    0  0.00000000000E+00  0.00000000000E+00  0.81315890508E+03  0.81315890509E+03  0.50400000000E-02 0. -1.
         -1   -1    0    0    0  501 -0.00000000000E+00 -0.00000000000E+00 -0.71000817697E+03  0.71000817699E+03  0.50400000000E-02 0.  1.
    8880023    1    1    2    0    0 -0.43146538472E+02 -0.63696438046E+02 -0.54152768297E+03  0.85614326937E+03  0.65864270000E+03 0.  1.
    8880022    1    1    2    0    0  0.43146538472E+02  0.63696438046E+02  0.64467841108E+03  0.66702381271E+03  0.15294330000E+03 0.  0.
<mgrwt>
<rscale>  0 0.47268560E+03</rscale>
<asrwt>0</asrwt>
<pdfrwt beam="1">  1        1 0.12510137E+00 0.66312070E+03</pdfrwt>
<pdfrwt beam="2">  1       -1 0.10923203E+00 0.66312070E+03</pdfrwt>
<totfact> 0.17375363E+01</totfact>
</mgrwt>
</event>
<event>
 4    1  0.3712574E-007  0.9061392E+03  0.7818608E-02  0.9516247E-01
          1   -1    0    0  501    0  0.00000000000E+00  0.00000000000E+00  0.19588753265E+04  0.19588753265E+04  0.50400000000E-02 0. -1.
         -1   -1    0    0    0  501 -0.00000000000E+00 -0.00000000000E+00 -0.50113353294E+03  0.50113353297E+03  0.50400000000E-02 0.  1.
    8880023    1    1    2    0    0 -0.17381281911E+03 -0.59755089060E+03  0.43306099932E+02  0.90717340542E+03  0.65864270000E+03 0.  0.
    8880022    1    1    2    0    0  0.17381281911E+03  0.59755089060E+03  0.14144356936E+04  0.15528354540E+04  0.15294330000E+03 0.  0.
<mgrwt>
<rscale>  0 0.83096502E+03</rscale>
<asrwt>0</asrwt>
<pdfrwt beam="1">  1        1 0.30136543E+00 0.90613916E+03</pdfrwt>
<pdfrwt beam="2">  1       -1 0.77097467E-01 0.90613916E+03</pdfrwt>
<totfact> 0.54876336E+00</totfact>
</mgrwt>
</event>
<event>
 4    1  0.3712574E-007  0.6766391E+03  0.7818608E-02  0.1011292E+00
          1   -1    0    0  501    0  0.00000000000E+00  0.00000000000E+00  0.16652666350E+04  0.16652666350E+04  0.50400000000E-02 0. -1.
         -1   -1    0    0    0  501 -0.00000000000E+00 -0.00000000000E+00 -0.19107862439E+03  0.19107862446E+03  0.50400000000E-02 0.  1.
    8880023    1    1    2    0    0  0.12046957448E+03 -0.97557209755E+02  0.45796362365E+03  0.81705031326E+03  0.65864270000E+03 0.  1.
    8880022    1    1    2    0    0 -0.12046957448E+03  0.97557209755E+02  0.10162243869E+04  0.10392949462E+04  0.15294330000E+03 0.  0.
<mgrwt>
<rscale>  0 0.50964210E+03</rscale>
<asrwt>0</asrwt>
<pdfrwt beam="1">  1        1 0.25619487E+00 0.67663915E+03</pdfrwt>
<pdfrwt beam="2">  1       -1 0.29396711E-01 0.67663915E+03</pdfrwt>
<totfact> 0.55225600E+01</totfact>
</mgrwt>
</event>
<event>
 4    1  0.3712574E-007  0.8453077E+03  0.7818608E-02  0.9620252E-01
         -1   -1    0    0    0  501 -0.00000000000E+00  0.00000000000E+00  0.58811367542E+03  0.58811367544E+03  0.50400000000E-02 0.  1.
          1   -1    0    0  501    0  0.00000000000E+00 -0.00000000000E+00 -0.12537637638E+04  0.12537637638E+04  0.50400000000E-02 0. -1.
    8880023    1    1    2    0    0 -0.52878638371E+03 -0.33463467679E+02  0.14877991137E+03  0.85830094463E+03  0.65864270000E+03 0.  0.
    8880022    1    1    2    0    0  0.52878638371E+03  0.33463467679E+02 -0.81442999971E+03  0.98357649459E+03  0.15294330000E+03 0.  0.
<mgrwt>
<rscale>  0 0.75970133E+03</rscale>
<asrwt>0</asrwt>
<pdfrwt beam="1">  1        1 0.19288673E+00 0.84530767E+03</pdfrwt>
<pdfrwt beam="2">  1       -1 0.90479027E-01 0.84530767E+03</pdfrwt>
<totfact> 0.11909092E+01</totfact>
</mgrwt>
</event>
<event>
 4    1  0.3712574E-007  0.6647784E+03  0.7818608E-02  0.1019720E+00
         -1   -1    0    0    0  501 -0.00000000000E+00  0.00000000000E+00  0.61697132480E+03  0.61697132482E+03  0.50400000000E-02 0.  1.
          1   -1    0    0  501    0  0.00000000000E+00 -0.00000000000E+00 -0.10465581927E+04  0.10465581927E+04  0.50400000000E-02 0. -1.
    8880023    1    1    2    0    0 -0.49758815426E+02  0.75127949663E+02  0.42610568086E+03  0.78961788611E+03  0.65864270000E+03 0.  1.
    8880022    1    1    2    0    0  0.49758815426E+02 -0.75127949663E+02 -0.85569254879E+03  0.87391163146E+03  0.15294330000E+03 0.  0.
<mgrwt>
<rscale>  0 0.47787778E+03</rscale>
<asrwt>0</asrwt>
<pdfrwt beam="1">  1        1 0.16100895E+00 0.66477843E+03</pdfrwt>
<pdfrwt beam="2">  1       -1 0.94918666E-01 0.66477843E+03</pdfrwt>
<totfact> 0.15579502E+01</totfact>
</mgrwt>
</event>
<event>
 4    1  0.4968573E-007  0.7703188E+03  0.7818608E-02  0.9779090E-01
          1   -1    0    0  501    0  0.00000000000E+00  0.00000000000E+00  0.11791734124E+04  0.11791734124E+04  0.50400000000E-02 0. -1.
         -1   -1    0    0    0  501 -0.00000000000E+00 -0.00000000000E+00 -0.12545702857E+04  0.12545702857E+04  0.50400000000E-02 0.  1.
    8880023    1    1    2    0    0 -0.83107600136E+00  0.39947490035E+03 -0.10888099490E+04  0.13337534247E+04  0.65864270000E+03 0.  1.
    8880022    1    1    2    0    0  0.83107600136E+00 -0.39947490035E+03  0.10134130756E+04  0.10999902734E+04  0.15294330000E+03 0.  0.
<mgrwt>
<rscale>  0 0.66496858E+03</rscale>
<asrwt>0</asrwt>
<pdfrwt beam="1">  1        1 0.18141129E+00 0.77031883E+03</pdfrwt>
<pdfrwt beam="2">  1       -1 0.19301081E+00 0.77031883E+03</pdfrwt>
<totfact> 0.19396479E+00</totfact>
</mgrwt>
</event>
<event>
 4    1  0.3712574E-007  0.6671455E+03  0.7818608E-02  0.1017797E+00
          1   -1    0    0  501    0  0.00000000000E+00  0.00000000000E+00  0.18904891448E+04  0.18904891448E+04  0.50400000000E-02 0. -1.
         -1   -1    0    0    0  501 -0.00000000000E+00 -0.00000000000E+00 -0.41982818244E+03  0.41982818247E+03  0.50400000000E-02 0.  1.
    8880023    1    1    2    0    0 -0.10444507284E+03 -0.19082339899E+02 -0.14603019133E+03  0.68294065041E+03  0.65864270000E+03 0.  1.
    8880022    1    1    2    0    0  0.10444507284E+03  0.19082339899E+02  0.16166911537E+04  0.16273766768E+04  0.15294330000E+03 0.  0.
<mgrwt>
<rscale>  0 0.48489883E+03</rscale>
<asrwt>0</asrwt>
<pdfrwt beam="1">  1        1 0.29084448E+00 0.66714550E+03</pdfrwt>
<pdfrwt beam="2">  1       -1 0.64588951E-01 0.66714550E+03</pdfrwt>
<totfact> 0.91072753E+00</totfact>
</mgrwt>
</event>
<event>
 4    1  0.3712574E-007  0.7485310E+03  0.7818608E-02  0.9835759E-01
         -1   -1    0    0    0  501 -0.00000000000E+00  0.00000000000E+00  0.16258372463E+04  0.16258372463E+04  0.50400000000E-02 0.  1.
          1   -1    0    0  501    0  0.00000000000E+00 -0.00000000000E+00 -0.63547305325E+03  0.63547305327E+03  0.50400000000E-02 0. -1.
    8880023    1    1    2    0    0  0.16693071095E+03 -0.31404241046E+03  0.14671942771E+04  0.16471058712E+04  0.65864270000E+03 0.  1.
    8880022    1    1    2    0    0 -0.16693071095E+03  0.31404241046E+03 -0.47683008404E+03  0.61420442842E+03  0.15294330000E+03 0.  0.
<mgrwt>
<rscale>  0 0.63478312E+03</rscale>
<asrwt>0</asrwt>
<pdfrwt beam="1">  1        1 0.97765086E-01 0.74853103E+03</pdfrwt>
<pdfrwt beam="2">  1       -1 0.25012881E+00 0.74853103E+03</pdfrwt>
<totfact> 0.22907280E+00</totfact>
</mgrwt>
</event>
<event>
 4    1  0.3712574E-007  0.8008793E+03  0.7818608E-02  0.9708898E-01
         -1   -1    0    0    0  501 -0.00000000000E+00  0.00000000000E+00  0.30983517834E+03  0.30983517838E+03  0.50400000000E-02 0.  1.
          1   -1    0    0  501    0  0.00000000000E+00 -0.00000000000E+00 -0.17892047196E+04  0.17892047196E+04  0.50400000000E-02 0. -1.
    8880023    1    1    2    0    0 -0.42752386664E+03 -0.15754626825E+03 -0.35456178961E+03  0.87585486932E+03  0.65864270000E+03 0.  1.
    8880022    1    1    2    0    0  0.42752386664E+03  0.15754626825E+03 -0.11248077517E+04  0.12231850287E+04  0.15294330000E+03 0.  0.
<mgrwt>
<rscale>  0 0.70489472E+03</rscale>
<asrwt>0</asrwt>
<pdfrwt beam="1">  1        1 0.27526226E+00 0.80087932E+03</pdfrwt>
<pdfrwt beam="2">  1       -1 0.47666952E-01 0.80087932E+03</pdfrwt>
<totfact> 0.18785329E+01</totfact>
</mgrwt>
</event>
<event>
 4    1  0.3712574E-007  0.9154736E+03  0.7818608E-02  0.9501634E-01
          1   -1    0    0  501    0  0.00000000000E+00  0.00000000000E+00  0.73314707382E+03  0.73314707384E+03  0.50400000000E-02 0. -1.
         -1   -1    0    0    0  501 -0.00000000000E+00 -0.00000000000E+00 -0.11246294674E+04  0.11246294674E+04  0.50400000000E-02 0.  1.
    8880023    1    1    2    0    0  0.51200638353E+03 -0.37700295611E+03 -0.68259596986E+03  0.11419409924E+04  0.65864270000E+03 0.  0.
    8880022    1    1    2    0    0 -0.51200638353E+03  0.37700295611E+03  0.29111357631E+03  0.71583554886E+03  0.15294330000E+03 0.  0.
<mgrwt>
<rscale>  0 0.84163427E+03</rscale>
<asrwt>0</asrwt>
<pdfrwt beam="1">  1        1 0.11279186E+00 0.91547363E+03</pdfrwt>
<pdfrwt beam="2">  1       -1 0.17301992E+00 0.91547363E+03</pdfrwt>
<totfact> 0.60068417E+00</totfact>
</mgrwt>
</event>
<event>
 4    1  0.3712574E-007  0.6592465E+03  0.7818608E-02  0.1024942E+00
         -1   -1    0    0    0  501 -0.00000000000E+00  0.00000000000E+00  0.25408271694E+03  0.25408271699E+03  0.50400000000E-02 0.  1.
          1   -1    0    0  501    0  0.00000000000E+00 -0.00000000000E+00 -0.83755499494E+03  0.83755499495E+03  0.50400000000E-02 0. -1.
    8880023    1    1    2    0    0  0.51054396379E+01 -0.27742072548E+02 -0.21784297940E+03  0.69430645830E+03  0.65864270000E+03 0.  1.
    8880022    1    1    2    0    0 -0.51054396379E+01  0.27742072548E+02 -0.36562929860E+03  0.39733125364E+03  0.15294330000E+03 0.  0.
<mgrwt>
<rscale>  0 0.45944589E+03</rscale>
<asrwt>0</asrwt>
<pdfrwt beam="1">  1        1 0.12885461E+00 0.65924646E+03</pdfrwt>
<pdfrwt beam="2">  1       -1 0.39089649E-01 0.65924646E+03</pdfrwt>
<totfact> 0.13340842E+02</totfact>
</mgrwt>
</event>
<event>
 4    1  0.3712574E-007  0.8293024E+03  0.7818608E-02  0.9650691E-01
         -1   -1    0    0    0  501 -0.00000000000E+00  0.00000000000E+00  0.67749054170E+03  0.67749054172E+03  0.50400000000E-02 0.  1.
          1   -1    0    0  501    0  0.00000000000E+00 -0.00000000000E+00 -0.18674816894E+04  0.18674816894E+04  0.50400000000E-02 0. -1.
    8880023    1    1    2    0    0  0.33150493219E+03  0.37952177843E+03  0.36289188497E+03  0.90522540110E+03  0.65864270000E+03 0.  0.
    8880022    1    1    2    0    0 -0.33150493219E+03 -0.37952177843E+03 -0.15528830327E+04  0.16397468300E+04  0.15294330000E+03 0.  0.
<mgrwt>
<rscale>  0 0.74030064E+03</rscale>
<asrwt>0</asrwt>
<pdfrwt beam="1">  1        1 0.28730487E+00 0.82930242E+03</pdfrwt>
<pdfrwt beam="2">  1       -1 0.10422931E+00 0.82930242E+03</pdfrwt>
<totfact> 0.32872019E+00</totfact>
</mgrwt>
</event>
<event>
 4    1  0.3712574E-007  0.7808359E+03  0.7818608E-02  0.9753877E-01
         -1   -1    0    0    0  501 -0.00000000000E+00  0.00000000000E+00  0.80682230218E+03  0.80682230220E+03  0.50400000000E-02 0.  1.
          1   -1    0    0  501    0  0.00000000000E+00 -0.00000000000E+00 -0.51053847614E+03  0.51053847616E+03  0.50400000000E-02 0. -1.
    8880023    1    1    2    0    0  0.14676784293E+03  0.39287865467E+03  0.37141203261E+03  0.86466845741E+03  0.65864270000E+03 0.  0.
    8880022    1    1    2    0    0 -0.14676784293E+03 -0.39287865467E+03 -0.75128206565E+02  0.45269232095E+03  0.15294330000E+03 0.  0.
<mgrwt>
<rscale>  0 0.67897602E+03</rscale>
<asrwt>0</asrwt>
<pdfrwt beam="1">  1        1 0.78544381E-01 0.78083586E+03</pdfrwt>
<pdfrwt beam="2">  1       -1 0.12412651E+00 0.78083586E+03</pdfrwt>
<totfact> 0.25053249E+01</totfact>
</mgrwt>
</event>
<event>
 4    1  0.3712574E-007  0.6689368E+03  0.7818608E-02  0.1016437E+00
         -1   -1    0    0    0  501 -0.00000000000E+00  0.00000000000E+00  0.14003802058E+04  0.14003802059E+04  0.50400000000E-02 0.  1.
          1   -1    0    0  501    0  0.00000000000E+00 -0.00000000000E+00 -0.31105320656E+03  0.31105320660E+03  0.50400000000E-02 0. -1.
    8880023    1    1    2    0    0 -0.11440569867E+03 -0.24033404328E+02  0.12776232103E+04  0.14421503188E+04  0.65864270000E+03 0.  1.
    8880022    1    1    2    0    0  0.11440569867E+03  0.24033404328E+02 -0.18829621101E+03  0.26928309361E+03  0.15294330000E+03 0.  0.
<mgrwt>
<rscale>  0 0.48994684E+03</rscale>
<asrwt>0</asrwt>
<pdfrwt beam="1">  1        1 0.47854339E-01 0.66893682E+03</pdfrwt>
<pdfrwt beam="2">  1       -1 0.21544311E+00 0.66893682E+03</pdfrwt>
<totfact> 0.10296882E+01</totfact>
</mgrwt>
</event>
<event>
 4    1  0.3712574E-007  0.7603644E+03  0.7818608E-02  0.9804165E-01
          1   -1    0    0  501    0  0.00000000000E+00  0.00000000000E+00  0.13030634469E+04  0.13030634469E+04  0.50400000000E-02 0. -1.
         -1   -1    0    0    0  501 -0.00000000000E+00 -0.00000000000E+00 -0.32234723760E+03  0.32234723764E+03  0.50400000000E-02 0.  1.
    8880023    1    1    2    0    0 -0.38988708554E+01 -0.37990601570E+03  0.27329487101E+03  0.80798766992E+03  0.65864270000E+03 0.  0.
    8880022    1    1    2    0    0  0.38988708554E+01  0.37990601570E+03  0.70742133825E+03  0.81742301459E+03  0.15294330000E+03 0.  0.
<mgrwt>
<rscale>  0 0.65139501E+03</rscale>
<asrwt>0</asrwt>
<pdfrwt beam="1">  1        1 0.20047130E+00 0.76036438E+03</pdfrwt>
<pdfrwt beam="2">  1       -1 0.49591881E-01 0.76036438E+03</pdfrwt>
<totfact> 0.37690656E+01</totfact>
</mgrwt>
</event>
<event>
 4    1  0.3712574E-007  0.8520172E+03  0.7818608E-02  0.9607924E-01
          1   -1    0    0  501    0  0.00000000000E+00  0.00000000000E+00  0.42980478734E+03  0.42980478737E+03  0.50400000000E-02 0. -1.
         -1   -1    0    0    0  501 -0.00000000000E+00 -0.00000000000E+00 -0.21892295873E+04  0.21892295873E+04  0.50400000000E-02 0.  1.
    8880023    1    1    2    0    0 -0.32245218621E+03 -0.43375988076E+03 -0.18623326715E+04  0.20479785722E+04  0.65864270000E+03 0.  1.
    8880022    1    1    2    0    0  0.32245218621E+03  0.43375988076E+03  0.10290787151E+03  0.57105580251E+03  0.15294330000E+03 0.  0.
<mgrwt>
<rscale>  0 0.76773919E+03</rscale>
<asrwt>0</asrwt>
<pdfrwt beam="1">  1        1 0.66123815E-01 0.85201717E+03</pdfrwt>
<pdfrwt beam="2">  1       -1 0.33680455E+00 0.85201717E+03</pdfrwt>
<totfact> 0.10780027E+00</totfact>
</mgrwt>
</event>
<event>
 4    1  0.3712574E-007  0.6738195E+03  0.7818608E-02  0.1013061E+00
          1   -1    0    0  501    0  0.00000000000E+00  0.00000000000E+00  0.70493359124E+03  0.70493359126E+03  0.50400000000E-02 0. -1.
         -1   -1    0    0    0  501 -0.00000000000E+00 -0.00000000000E+00 -0.35224540079E+03  0.35224540083E+03  0.50400000000E-02 0.  1.
    8880023    1    1    2    0    0 -0.14209431613E+03 -0.56370322316E+01  0.32119619847E+02  0.67458464780E+03  0.65864270000E+03 0.  1.
    8880022    1    1    2    0    0  0.14209431613E+03  0.56370322316E+01  0.32056857060E+03  0.38259434429E+03  0.15294330000E+03 0.  0.
<mgrwt>
<rscale>  0 0.50276058E+03</rscale>
<asrwt>0</asrwt>
<pdfrwt beam="1">  1        1 0.10845132E+00 0.67381954E+03</pdfrwt>
<pdfrwt beam="2">  1       -1 0.54191601E-01 0.67381954E+03</pdfrwt>
<totfact> 0.94974549E+01</totfact>
</mgrwt>
</event>
<event>
 4    1  0.3712574E-007  0.1268601E+04  0.7818608E-02  0.9093160E-01
          1   -1    0    0  501    0  0.00000000000E+00  0.00000000000E+00  0.27016457480E+04  0.27016457480E+04  0.50400000000E-02 0. -1.
         -1   -1    0    0    0  501 -0.00000000000E+00 -0.00000000000E+00 -0.57938270455E+03  0.57938270457E+03  0.50400000000E-02 0.  1.
    8880023    1    1    2    0    0  0.10813323425E+04  0.79116731757E+02  0.59344315477E+03  0.14005442072E+04  0.65864270000E+03 0.  0.
    8880022    1    1    2    0    0 -0.10813323425E+04 -0.79116731757E+02  0.15288198887E+04  0.18804842454E+04  0.15294330000E+03 0.  0.
<mgrwt>
<rscale>  0 0.12227654E+04</rscale>
<asrwt>0</asrwt>
<pdfrwt beam="1">  1        1 0.41563781E+00 0.12686013E+04</pdfrwt>
<pdfrwt beam="2">  1       -1 0.89135800E-01 0.12686013E+04</pdfrwt>
<totfact> 0.11891724E+00</totfact>
</mgrwt>
</event>
<event>
 4    1  0.3712574E-007  0.6751998E+03  0.7818608E-02  0.1012181E+00
          1   -1    0    0  501    0  0.00000000000E+00  0.00000000000E+00  0.39626138817E+03  0.39626138820E+03  0.50400000000E-02 0. -1.
         -1   -1    0    0    0  501 -0.00000000000E+00 -0.00000000000E+00 -0.56811264412E+03  0.56811264414E+03  0.50400000000E-02 0.  1.
    8880023    1    1    2    0    0 -0.14852192626E+03 -0.50826502171E+01 -0.27305980670E+03  0.72832441962E+03  0.65864270000E+03 0.  0.
    8880022    1    1    2    0    0  0.14852192626E+03  0.50826502171E+01  0.10120855075E+03  0.23604961273E+03  0.15294330000E+03 0.  0.
<mgrwt>
<rscale>  0 0.50617107E+03</rscale>
<asrwt>0</asrwt>
<pdfrwt beam="1">  1        1 0.60963290E-01 0.67519982E+03</pdfrwt>
<pdfrwt beam="2">  1       -1 0.87401945E-01 0.67519982E+03</pdfrwt>
<totfact> 0.80153484E+01</totfact>
</mgrwt>
</event>
<event>
 4    1  0.3712574E-007  0.1221013E+04  0.7818608E-02  0.9136962E-01
          1   -1    0    0  501    0  0.00000000000E+00  0.00000000000E+00  0.23408852438E+04  0.23408852438E+04  0.50400000000E-02 0. -1.
         -1   -1    0    0    0  501 -0.00000000000E+00 -0.00000000000E+00 -0.67624996101E+03  0.67624996103E+03  0.50400000000E-02 0.  1.
    8880023    1    1    2    0    0  0.60914335010E+03 -0.82825575446E+03  0.15473613422E+04  0.19710912068E+04  0.65864270000E+03 0.  0.
    8880022    1    1    2    0    0 -0.60914335010E+03  0.82825575446E+03  0.11727394060E+03  0.10460439981E+04  0.15294330000E+03 0.  0.
<mgrwt>
<rscale>  0 0.11728463E+04</rscale>
<asrwt>0</asrwt>
<pdfrwt beam="1">  1        1 0.36013619E+00 0.12210133E+04</pdfrwt>
<pdfrwt beam="2">  1       -1 0.10403845E+00 0.12210133E+04</pdfrwt>
<totfact> 0.14959977E+00</totfact>
</mgrwt>
</event>
<event>
 4    1  0.3712574E-007  0.6842784E+03  0.7818608E-02  0.1007000E+00
          1   -1    0    0  501    0  0.00000000000E+00  0.00000000000E+00  0.54062564777E+03  0.54062564779E+03  0.50400000000E-02 0. -1.
         -1   -1    0    0    0  501 -0.00000000000E+00 -0.00000000000E+00 -0.56682100039E+03  0.56682100042E+03  0.50400000000E-02 0.  1.
    8880023    1    1    2    0    0  0.62620909793E+02  0.17465774046E+03 -0.29642579303E+03  0.74572458836E+03  0.65864270000E+03 0.  1.
    8880022    1    1    2    0    0 -0.62620909793E+02 -0.17465774046E+03  0.27023044040E+03  0.36172205985E+03  0.15294330000E+03 0.  0.
<mgrwt>
<rscale>  0 0.52684497E+03</rscale>
<asrwt>0</asrwt>
<pdfrwt beam="1">  1        1 0.83173177E-01 0.68427839E+03</pdfrwt>
<pdfrwt beam="2">  1       -1 0.87203231E-01 0.68427839E+03</pdfrwt>
<totfact> 0.52860283E+01</totfact>
</mgrwt>
</event>
<event>
 4    1  0.3712574E-007  0.6725237E+03  0.7818608E-02  0.1013915E+00
          1   -1    0    0  501    0  0.00000000000E+00  0.00000000000E+00  0.44208495305E+03  0.44208495308E+03  0.50400000000E-02 0. -1.
         -1   -1    0    0    0  501 -0.00000000000E+00 -0.00000000000E+00 -0.62862433825E+03  0.62862433827E+03  0.50400000000E-02 0.  1.
    8880023    1    1    2    0    0 -0.20983511148E+02 -0.13430435370E+03 -0.39390021347E+03  0.77938793396E+03  0.65864270000E+03 0.  1.
    8880022    1    1    2    0    0  0.20983511148E+02  0.13430435370E+03  0.20736082827E+03  0.29132135740E+03  0.15294330000E+03 0.  0.
<mgrwt>
<rscale>  0 0.49947998E+03</rscale>
<asrwt>0</asrwt>
<pdfrwt beam="1">  1        1 0.68013069E-01 0.67252373E+03</pdfrwt>
<pdfrwt beam="2">  1       -1 0.96711437E-01 0.67252373E+03</pdfrwt>
<totfact> 0.55414450E+01</totfact>
</mgrwt>
</event>
<event>
 4    1  0.3712574E-007  0.6660551E+03  0.7818608E-02  0.1018664E+00
         -1   -1    0    0    0  501 -0.00000000000E+00  0.00000000000E+00  0.62145011748E+03  0.62145011750E+03  0.50400000000E-02 0.  1.
          1   -1    0    0  501    0  0.00000000000E+00 -0.00000000000E+00 -0.65981828008E+03  0.65981828010E+03  0.50400000000E-02 0. -1.
    8880023    1    1    2    0    0  0.95192317217E+02  0.27523653863E+02  0.42039795926E+03  0.78763175354E+03  0.65864270000E+03 0.  1.
    8880022    1    1    2    0    0 -0.95192317217E+02 -0.27523653863E+02 -0.45876612185E+03  0.49363664405E+03  0.15294330000E+03 0.  0.
<mgrwt>
<rscale>  0 0.48171757E+03</rscale>
<asrwt>0</asrwt>
<pdfrwt beam="1">  1        1 0.10151050E+00 0.66605505E+03</pdfrwt>
<pdfrwt beam="2">  1       -1 0.95607711E-01 0.66605505E+03</pdfrwt>
<totfact> 0.32489125E+01</totfact>
</mgrwt>
</event>
<event>
 4    1  0.3712574E-007  0.8255242E+03  0.7818608E-02  0.9658104E-01
         -1   -1    0    0    0  501 -0.00000000000E+00  0.00000000000E+00  0.32611811267E+03  0.32611811271E+03  0.50400000000E-02 0.  1.
          1   -1    0    0  501    0  0.00000000000E+00 -0.00000000000E+00 -0.16944454032E+04  0.16944454032E+04  0.50400000000E-02 0. -1.
    8880023    1    1    2    0    0  0.16482788791E+03  0.46958686260E+03 -0.39151316187E+03  0.91365902630E+03  0.65864270000E+03 0.  1.
    8880022    1    1    2    0    0 -0.16482788791E+03 -0.46958686260E+03 -0.97681412870E+03  0.11069044896E+04  0.15294330000E+03 0.  0.
<mgrwt>
<rscale>  0 0.73566974E+03</rscale>
<asrwt>0</asrwt>
<pdfrwt beam="1">  1        1 0.26068390E+00 0.82552423E+03</pdfrwt>
<pdfrwt beam="2">  1       -1 0.50172019E-01 0.82552423E+03</pdfrwt>
<totfact> 0.19689379E+01</totfact>
</mgrwt>
</event>
<event>
 4    1  0.3712574E-007  0.8145508E+03  0.7818608E-02  0.9680175E-01
          1   -1    0    0  501    0  0.00000000000E+00  0.00000000000E+00  0.10975240544E+04  0.10975240545E+04  0.50400000000E-02 0. -1.
         -1   -1    0    0    0  501 -0.00000000000E+00 -0.00000000000E+00 -0.76351179444E+03  0.76351179446E+03  0.50400000000E-02 0.  1.
    8880023    1    1    2    0    0 -0.46035094487E+03  0.13326580506E+03 -0.44918293938E+03  0.93019260722E+03  0.65864270000E+03 0.  0.
    8880022    1    1    2    0    0  0.46035094487E+03 -0.13326580506E+03  0.78319519939E+03  0.93084324169E+03  0.15294330000E+03 0.  0.
<mgrwt>
<rscale>  0 0.72209553E+03</rscale>
<asrwt>0</asrwt>
<pdfrwt beam="1">  1        1 0.16884985E+00 0.81455078E+03</pdfrwt>
<pdfrwt beam="2">  1       -1 0.11746335E+00 0.81455078E+03</pdfrwt>
<totfact> 0.85134110E+00</totfact>
</mgrwt>
</event>
<event>
 4    1  0.3712574E-007  0.1102349E+04  0.7818608E-02  0.9258446E-01
         -1   -1    0    0    0  501 -0.00000000000E+00  0.00000000000E+00  0.16757890384E+04  0.16757890384E+04  0.50400000000E-02 0.  1.
          1   -1    0    0  501    0  0.00000000000E+00 -0.00000000000E+00 -0.12404224062E+04  0.12404224062E+04  0.50400000000E-02 0. -1.
    8880023    1    1    2    0    0 -0.49122457271E+03 -0.73488815164E+03  0.12764100976E+04  0.16865334624E+04  0.65864270000E+03 0.  0.
    8880022    1    1    2    0    0  0.49122457271E+03  0.73488815164E+03 -0.84104346541E+03  0.12296779822E+04  0.15294330000E+03 0.  0.
<mgrwt>
<rscale>  0 0.10470010E+04</rscale>
<asrwt>0</asrwt>
<pdfrwt beam="1">  1        1 0.19083422E+00 0.11023486E+04</pdfrwt>
<pdfrwt beam="2">  1       -1 0.25781370E+00 0.11023486E+04</pdfrwt>
<totfact> 0.61579203E-01</totfact>
</mgrwt>
</event>
<event>
 4    1  0.3712574E-007  0.7144649E+03  0.7818608E-02  0.9941780E-01
          1   -1    0    0  501    0  0.00000000000E+00  0.00000000000E+00  0.31665896436E+04  0.31665896436E+04  0.50400000000E-02 0. -1.
         -1   -1    0    0    0  501 -0.00000000000E+00 -0.00000000000E+00 -0.14199600145E+03  0.14199600154E+03  0.50400000000E-02 0.  1.
    8880023    1    1    2    0    0 -0.57194472875E+02 -0.27088494730E+03  0.84678381350E+03  0.11079272970E+04  0.65864270000E+03 0.  0.
    8880022    1    1    2    0    0  0.57194472875E+02  0.27088494730E+03  0.21778098286E+04  0.22006583481E+04  0.15294330000E+03 0. -1.
<mgrwt>
<rscale>  0 0.58278478E+03</rscale>
<asrwt>0</asrwt>
<pdfrwt beam="1">  1        1 0.48716762E+00 0.71446488E+03</pdfrwt>
<pdfrwt beam="2">  1       -1 0.21845540E-01 0.71446488E+03</pdfrwt>
<totfact> 0.85195025E+00</totfact>
</mgrwt>
</event>
<event>
 4    1  0.3712574E-007  0.8196035E+03  0.7818608E-02  0.9669910E-01
         -1   -1    0    0    0  501 -0.00000000000E+00  0.00000000000E+00  0.31312869852E+03  0.31312869856E+03  0.50400000000E-02 0.  1.
          1   -1    0    0  501    0  0.00000000000E+00 -0.00000000000E+00 -0.21133192922E+04  0.21133192922E+04  0.50400000000E-02 0. -1.
    8880023    1    1    2    0    0  0.43437210616E+03 -0.22194725147E+03 -0.35440466346E+03  0.89294601225E+03  0.65864270000E+03 0.  0.
    8880022    1    1    2    0    0 -0.43437210616E+03  0.22194725147E+03 -0.14457859303E+04  0.15335019785E+04  0.15294330000E+03 0.  0.
<mgrwt>
<rscale>  0 0.72836958E+03</rscale>
<asrwt>0</asrwt>
<pdfrwt beam="1">  1        1 0.32512604E+00 0.81960351E+03</pdfrwt>
<pdfrwt beam="2">  1       -1 0.48173647E-01 0.81960351E+03</pdfrwt>
<totfact> 0.11139119E+01</totfact>
</mgrwt>
</event>
<event>
 4    1  0.3712574E-007  0.7288992E+03  0.7818608E-02  0.9893550E-01
         -1   -1    0    0    0  501 -0.00000000000E+00  0.00000000000E+00  0.89941829751E+03  0.89941829752E+03  0.50400000000E-02 0.  1.
          1   -1    0    0  501    0  0.00000000000E+00 -0.00000000000E+00 -0.68309824347E+03  0.68309824349E+03  0.50400000000E-02 0. -1.
    8880023    1    1    2    0    0  0.27088921186E+03  0.15525092858E+03  0.68412746530E+03  0.99966214841E+03  0.65864270000E+03 0.  1.
    8880022    1    1    2    0    0 -0.27088921186E+03 -0.15525092858E+03 -0.46780741126E+03  0.58285439260E+03  0.15294330000E+03 0.  0.
<mgrwt>
<rscale>  0 0.60574923E+03</rscale>
<asrwt>0</asrwt>
<pdfrwt beam="1">  1        1 0.10509204E+00 0.72889919E+03</pdfrwt>
<pdfrwt beam="2">  1       -1 0.13837205E+00 0.72889919E+03</pdfrwt>
<totfact> 0.12609905E+01</totfact>
</mgrwt>
</event>
<event>
 4    1  0.3712574E-007  0.6800507E+03  0.7818608E-02  0.1009295E+00
          1   -1    0    0  501    0  0.00000000000E+00  0.00000000000E+00  0.22404884407E+04  0.22404884407E+04  0.50400000000E-02 0. -1.
         -1   -1    0    0    0  501 -0.00000000000E+00 -0.00000000000E+00 -0.35458272260E+03  0.35458272264E+03  0.50400000000E-02 0.  1.
    8880023    1    1    2    0    0 -0.52595702375E+02  0.16091134580E+03 -0.15302733189E+02  0.68022286717E+03  0.65864270000E+03 0.  1.
    8880022    1    1    2    0    0  0.52595702375E+02 -0.16091134580E+03  0.19012084513E+04  0.19148482962E+04  0.15294330000E+03 0.  0.
<mgrwt>
<rscale>  0 0.51755798E+03</rscale>
<asrwt>0</asrwt>
<pdfrwt beam="1">  1        1 0.34469053E+00 0.68005072E+03</pdfrwt>
<pdfrwt beam="2">  1       -1 0.54551188E-01 0.68005072E+03</pdfrwt>
<totfact> 0.73896078E+00</totfact>
</mgrwt>
</event>
<event>
 4    1  0.3712574E-007  0.6759682E+03  0.7818608E-02  0.1011703E+00
          1   -1    0    0  501    0  0.00000000000E+00  0.00000000000E+00  0.20142441499E+04  0.20142441499E+04  0.50400000000E-02 0. -1.
         -1   -1    0    0    0  501 -0.00000000000E+00 -0.00000000000E+00 -0.22534751901E+03  0.22534751907E+03  0.50400000000E-02 0.  1.
    8880023    1    1    2    0    0  0.74990578907E+02  0.13228462494E+03  0.30757890215E+03  0.74265590702E+03  0.65864270000E+03 0.  1.
    8880022    1    1    2    0    0 -0.74990578907E+02 -0.13228462494E+03  0.14813177288E+04  0.14969357620E+04  0.15294330000E+03 0.  0.
<mgrwt>
<rscale>  0 0.50803450E+03</rscale>
<asrwt>0</asrwt>
<pdfrwt beam="1">  1        1 0.30988374E+00 0.67596821E+03</pdfrwt>
<pdfrwt beam="2">  1       -1 0.34668847E-01 0.67596821E+03</pdfrwt>
<totfact> 0.24169562E+01</totfact>
</mgrwt>
</event>
<event>
 4    1  0.3754567E-007  0.8632937E+03  0.7818608E-02  0.9587731E-01
          1   -1    0    0  501    0  0.00000000000E+00  0.00000000000E+00  0.21213269365E+04  0.21213269365E+04  0.50400000000E-02 0. -1.
         -1   -1    0    0    0  501 -0.00000000000E+00 -0.00000000000E+00 -0.78798072321E+03  0.78798072323E+03  0.50400000000E-02 0.  1.
    8880023    1    1    2    0    0  0.52473819677E+03 -0.19004116249E+03 -0.49254038664E+03  0.99391753044E+03  0.65864270000E+03 0.  0.
    8880022    1    1    2    0    0 -0.52473819677E+03  0.19004116249E+03  0.18258866000E+04  0.19153901293E+04  0.15294330000E+03 0.  0.
<mgrwt>
<rscale>  0 0.78113560E+03</rscale>
<asrwt>0</asrwt>
<pdfrwt beam="1">  1        1 0.32635799E+00 0.86329371E+03</pdfrwt>
<pdfrwt beam="2">  1       -1 0.12122780E+00 0.86329371E+03</pdfrwt>
<totfact> 0.15407517E+00</totfact>
</mgrwt>
</event>
<event>
 4    1  0.3712574E-007  0.7441526E+03  0.7818608E-02  0.9848012E-01
         -1   -1    0    0    0  501 -0.00000000000E+00  0.00000000000E+00  0.56220538974E+03  0.56220538976E+03  0.50400000000E-02 0.  1.
          1   -1    0    0  501    0  0.00000000000E+00 -0.00000000000E+00 -0.93680968621E+03  0.93680968622E+03  0.50400000000E-02 0. -1.
    8880023    1    1    2    0    0  0.31025976899E+03 -0.15392134000E+03  0.23589434107E+03  0.78064668678E+03  0.65864270000E+03 0. -1.
    8880022    1    1    2    0    0 -0.31025976899E+03  0.15392134000E+03 -0.61049863754E+03  0.71836838921E+03  0.15294330000E+03 0.  0.
<mgrwt>
<rscale>  0 0.62848390E+03</rscale>
<asrwt>0</asrwt>
<pdfrwt beam="1">  1        1 0.14412457E+00 0.74415261E+03</pdfrwt>
<pdfrwt beam="2">  1       -1 0.86493137E-01 0.74415261E+03</pdfrwt>
<totfact> 0.23027485E+01</totfact>
</mgrwt>
</event>
<event>
 4    1  0.3712574E-007  0.7626175E+03  0.7818608E-02  0.9798378E-01
         -1   -1    0    0    0  501 -0.00000000000E+00  0.00000000000E+00  0.24415984710E+03  0.24415984716E+03  0.50400000000E-02 0.  1.
          1   -1    0    0  501    0  0.00000000000E+00 -0.00000000000E+00 -0.15693696884E+04  0.15693696884E+04  0.50400000000E-02 0. -1.
    8880023    1    1    2    0    0  0.23059065180E+03  0.30757621781E+03 -0.56883373234E+03  0.95139749830E+03  0.65864270000E+03 0.  0.
    8880022    1    1    2    0    0 -0.23059065180E+03 -0.30757621781E+03 -0.75637610896E+03  0.86213203726E+03  0.15294330000E+03 0.  0.
<mgrwt>
<rscale>  0 0.65449677E+03</rscale>
<asrwt>0</asrwt>
<pdfrwt beam="1">  1        1 0.24144148E+00 0.76261746E+03</pdfrwt>
<pdfrwt beam="2">  1       -1 0.37563054E-01 0.76261746E+03</pdfrwt>
<totfact> 0.41159600E+01</totfact>
</mgrwt>
</event>
<event>
 4    1  0.3712574E-007  0.8164198E+03  0.7818608E-02  0.9676357E-01
          1   -1    0    0  501    0  0.00000000000E+00  0.00000000000E+00  0.28425579811E+04  0.28425579811E+04  0.50400000000E-02 0. -1.
         -1   -1    0    0    0  501 -0.00000000000E+00 -0.00000000000E+00 -0.39028619294E+03  0.39028619297E+03  0.50400000000E-02 0.  1.
    8880023    1    1    2    0    0 -0.52573295892E+01  0.48239343126E+03  0.95081322654E+02  0.82193778732E+03  0.65864270000E+03 0.  1.
    8880022    1    1    2    0    0  0.52573295892E+01 -0.48239343126E+03  0.23571904655E+04  0.24109063867E+04  0.15294330000E+03 0.  0.
<mgrwt>
<rscale>  0 0.72442120E+03</rscale>
<asrwt>0</asrwt>
<pdfrwt beam="1">  1        1 0.43731662E+00 0.81641979E+03</pdfrwt>
<pdfrwt beam="2">  1       -1 0.60044028E-01 0.81641979E+03</pdfrwt>
<totfact> 0.23090222E+00</totfact>
</mgrwt>
</event>
<event>
 4    1  0.3712574E-007  0.9944616E+03  0.7818608E-02  0.9388840E-01
          1   -1    0    0  501    0  0.00000000000E+00  0.00000000000E+00  0.18552693805E+04  0.18552693805E+04  0.50400000000E-02 0. -1.
         -1   -1    0    0    0  501 -0.00000000000E+00 -0.00000000000E+00 -0.10835950219E+04  0.10835950219E+04  0.50400000000E-02 0.  1.
    8880023    1    1    2    0    0 -0.72658160637E+03 -0.16499361147E+03 -0.74471974657E+03  0.12424014769E+04  0.65864270000E+03 0.  0.
    8880022    1    1    2    0    0  0.72658160637E+03  0.16499361147E+03  0.15163941052E+04  0.16964629256E+04  0.15294330000E+03 0.  0.
<mgrwt>
<rscale>  0 0.92999853E+03</rscale>
<asrwt>0</asrwt>
<pdfrwt beam="1">  1        1 0.28542606E+00 0.99446163E+03</pdfrwt>
<pdfrwt beam="2">  1       -1 0.16670693E+00 0.99446163E+03</pdfrwt>
<totfact> 0.98260465E-01</totfact>
</mgrwt>
</event>
<event>
 4    1  0.3712574E-007  0.7296397E+03  0.7818608E-02  0.9891224E-01
         -1   -1    0    0    0  501 -0.00000000000E+00  0.00000000000E+00  0.70570085432E+02  0.70570085612E+02  0.50400000000E-02 0.  1.
          1   -1    0    0  501    0  0.00000000000E+00 -0.00000000000E+00 -0.41886338718E+04  0.41886338719E+04  0.50400000000E-02 0. -1.
    8880023    1    1    2    0    0  0.12318403197E+03  0.28877258430E+03 -0.30228155869E+04  0.31096283042E+04  0.65864270000E+03 0.  1.
    8880022    1    1    2    0    0 -0.12318403197E+03 -0.28877258430E+03 -0.10952481995E+04  0.11495756533E+04  0.15294330000E+03 0. -1.
<mgrwt>
<rscale>  0 0.60688521E+03</rscale>
<asrwt>0</asrwt>
<pdfrwt beam="1">  1        1 0.64440502E+00 0.72963972E+03</pdfrwt>
<pdfrwt beam="2">  1       -1 0.10856940E-01 0.72963972E+03</pdfrwt>
<totfact> 0.39832678E+00</totfact>
</mgrwt>
</event>
<event>
 4    1  0.3712574E-007  0.9366592E+03  0.7818608E-02  0.9469574E-01
         -1   -1    0    0    0  501 -0.00000000000E+00  0.00000000000E+00  0.64638665230E+03  0.64638665232E+03  0.50400000000E-02 0.  1.
          1   -1    0    0  501    0  0.00000000000E+00 -0.00000000000E+00 -0.14424965415E+04  0.14424965415E+04  0.50400000000E-02 0. -1.
    8880023    1    1    2    0    0 -0.64982849045E+03 -0.14575059295E+03  0.12181820106E+03  0.94454760744E+03  0.65864270000E+03 0.  1.
    8880022    1    1    2    0    0  0.64982849045E+03  0.14575059295E+03 -0.91792809021E+03  0.11443355863E+04  0.15294330000E+03 0.  0.
<mgrwt>
<rscale>  0 0.86564652E+03</rscale>
<asrwt>0</asrwt>
<pdfrwt beam="1">  1        1 0.22192254E+00 0.93665923E+03</pdfrwt>
<pdfrwt beam="2">  1       -1 0.99444100E-01 0.93665923E+03</pdfrwt>
<totfact> 0.70134963E+00</totfact>
</mgrwt>
</event>
<event>
 4    1  0.3712574E-007  0.6694634E+03  0.7818608E-02  0.1016050E+00
          1   -1    0    0  501    0  0.00000000000E+00  0.00000000000E+00  0.54688172412E+03  0.54688172414E+03  0.50400000000E-02 0. -1.
         -1   -1    0    0    0  501 -0.00000000000E+00 -0.00000000000E+00 -0.92980588147E+03  0.92980588149E+03  0.50400000000E-02 0.  1.
    8880023    1    1    2    0    0  0.77174974106E+02 -0.91733637362E+02 -0.78404487699E+03  0.10309741084E+04  0.65864270000E+03 0.  1.
    8880022    1    1    2    0    0 -0.77174974106E+02  0.91733637362E+02  0.40112071964E+03  0.44571349720E+03  0.15294330000E+03 0.  0.
<mgrwt>
<rscale>  0 0.49139190E+03</rscale>
<asrwt>0</asrwt>
<pdfrwt beam="1">  1        1 0.84135650E-01 0.66946340E+03</pdfrwt>
<pdfrwt beam="2">  1       -1 0.14304706E+00 0.66946340E+03</pdfrwt>
<totfact> 0.16069467E+01</totfact>
</mgrwt>
</event>
<event>
 4    1  0.3712574E-007  0.1062721E+04  0.7818608E-02  0.9303743E-01
         -1   -1    0    0    0  501 -0.00000000000E+00  0.00000000000E+00  0.83533978065E+03  0.83533978066E+03  0.50400000000E-02 0.  1.
          1   -1    0    0  501    0  0.00000000000E+00 -0.00000000000E+00 -0.13549838623E+04  0.13549838623E+04  0.50400000000E-02 0. -1.
    8880023    1    1    2    0    0  0.13082713685E+03  0.82368066870E+03  0.19615532060E+03  0.10806723369E+04  0.65864270000E+03 0.  1.
    8880022    1    1    2    0    0 -0.13082713685E+03 -0.82368066870E+03 -0.71579940223E+03  0.11096513060E+04  0.15294330000E+03 0.  0.
<mgrwt>
<rscale>  0 0.10043898E+04</rscale>
<asrwt>0</asrwt>
<pdfrwt beam="1">  1        1 0.20845906E+00 0.10627209E+04</pdfrwt>
<pdfrwt beam="2">  1       -1 0.12851381E+00 0.10627209E+04</pdfrwt>
<totfact> 0.43016534E+00</totfact>
</mgrwt>
</event>
<event>
 4    1  0.3712574E-007  0.7210850E+03  0.7818608E-02  0.9918932E-01
         -1   -1    0    0    0  501 -0.00000000000E+00  0.00000000000E+00  0.73823919908E+03  0.73823919910E+03  0.50400000000E-02 0.  1.
          1   -1    0    0  501    0  0.00000000000E+00 -0.00000000000E+00 -0.48445584713E+03  0.48445584715E+03  0.50400000000E-02 0. -1.
    8880023    1    1    2    0    0  0.17317489180E+02 -0.29300769615E+03  0.43821822843E+03  0.84380022957E+03  0.65864270000E+03 0.  0.
    8880022    1    1    2    0    0 -0.17317489180E+02  0.29300769615E+03 -0.18443487647E+03  0.37889481668E+03  0.15294330000E+03 0.  0.
<mgrwt>
<rscale>  0 0.59352492E+03</rscale>
<asrwt>0</asrwt>
<pdfrwt beam="1">  1        1 0.74531669E-01 0.72108502E+03</pdfrwt>
<pdfrwt beam="2">  1       -1 0.11357526E+00 0.72108502E+03</pdfrwt>
<totfact> 0.33595020E+01</totfact>
</mgrwt>
</event>
<event>
 4    1  0.3712574E-007  0.1442099E+04  0.7818608E-02  0.8951643E-01
          1   -1    0    0  501    0  0.00000000000E+00  0.00000000000E+00  0.33490648947E+04  0.33490648947E+04  0.50400000000E-02 0. -1.
         -1   -1    0    0    0  501 -0.00000000000E+00 -0.00000000000E+00 -0.12133884226E+04  0.12133884226E+04  0.50400000000E-02 0.  1.
    8880023    1    1    2    0    0 -0.12693736253E+04 -0.18581847789E+03  0.27701825296E+04  0.31230689011E+04  0.65864270000E+03 0.  0.
    8880022    1    1    2    0    0  0.12693736253E+04  0.18581847789E+03 -0.63450605759E+03  0.14393844162E+04  0.15294330000E+03 0.  0.
<mgrwt>
<rscale>  0 0.14030098E+04</rscale>
<asrwt>0</asrwt>
<pdfrwt beam="1">  1        1 0.51524074E+00 0.14420985E+04</pdfrwt>
<pdfrwt beam="2">  1       -1 0.18667514E+00 0.14420985E+04</pdfrwt>
<totfact> 0.58588979E-02</totfact>
</mgrwt>
</event>
<event>
 4    1  0.3712574E-007  0.1100308E+04  0.7818608E-02  0.9260713E-01
          1   -1    0    0  501    0  0.00000000000E+00  0.00000000000E+00  0.10140015831E+04  0.10140015831E+04  0.50400000000E-02 0. -1.
         -1   -1    0    0    0  501 -0.00000000000E+00 -0.00000000000E+00 -0.10649350567E+04  0.10649350567E+04  0.50400000000E-02 0.  1.
    8880023    1    1    2    0    0 -0.86605341006E+03 -0.16376776713E+03 -0.31801807419E+03  0.11453445300E+04  0.65864270000E+03 0.  0.
    8880022    1    1    2    0    0  0.86605341006E+03  0.16376776713E+03  0.26708460064E+03  0.93359210983E+03  0.15294330000E+03 0.  0.
<mgrwt>
<rscale>  0 0.10448158E+04</rscale>
<asrwt>0</asrwt>
<pdfrwt beam="1">  1        1 0.15600024E+00 0.11003084E+04</pdfrwt>
<pdfrwt beam="2">  1       -1 0.16383616E+00 0.11003084E+04</pdfrwt>
<totfact> 0.40005458E+00</totfact>
</mgrwt>
</event>
<event>
 4    1  0.3712574E-007  0.6832587E+03  0.7818608E-02  0.1007537E+00
          1   -1    0    0  501    0  0.00000000000E+00  0.00000000000E+00  0.15191683349E+04  0.15191683349E+04  0.50400000000E-02 0. -1.
         -1   -1    0    0    0  501 -0.00000000000E+00 -0.00000000000E+00 -0.79596851060E+03  0.79596851061E+03  0.50400000000E-02 0.  1.
    8880023    1    1    2    0    0 -0.15015224054E+03  0.10240357764E+03 -0.63712901115E+03  0.93422468987E+03  0.65864270000E+03 0.  1.
    8880022    1    1    2    0    0  0.15015224054E+03 -0.10240357764E+03  0.13603288355E+04  0.13809121557E+04  0.15294330000E+03 0.  0.
<mgrwt>
<rscale>  0 0.52465243E+03</rscale>
<asrwt>0</asrwt>
<pdfrwt beam="1">  1        1 0.23371820E+00 0.68325866E+03</pdfrwt>
<pdfrwt beam="2">  1       -1 0.12245670E+00 0.68325866E+03</pdfrwt>
<totfact> 0.39466064E+00</totfact>
</mgrwt>
</event>
<event>
 4    1  0.3712574E-007  0.7269771E+03  0.7818608E-02  0.9899648E-01
          1   -1    0    0  501    0  0.00000000000E+00  0.00000000000E+00  0.37483471885E+04  0.37483471885E+04  0.50400000000E-02 0. -1.
         -1   -1    0    0    0  501 -0.00000000000E+00 -0.00000000000E+00 -0.44386100014E+03  0.44386100017E+03  0.50400000000E-02 0.  1.
    8880023    1    1    2    0    0 -0.11376472293E+03 -0.28590737014E+03 -0.13176231047E+03  0.73882132428E+03  0.65864270000E+03 0.  1.
    8880022    1    1    2    0    0  0.11376472293E+03  0.28590737014E+03  0.34362484988E+04  0.34533868644E+04  0.15294330000E+03 0.  0.
<mgrwt>
<rscale>  0 0.60278333E+03</rscale>
<asrwt>0</asrwt>
<pdfrwt beam="1">  1        1 0.57666881E+00 0.72697706E+03</pdfrwt>
<pdfrwt beam="2">  1       -1 0.68286307E-01 0.72697706E+03</pdfrwt>
<totfact> 0.37973877E-01</totfact>
</mgrwt>
</event>
<event>
 4    1  0.3712574E-007  0.7292261E+03  0.7818608E-02  0.9892521E-01
         -1   -1    0    0    0  501 -0.00000000000E+00  0.00000000000E+00  0.23128403634E+03  0.23128403640E+03  0.50400000000E-02 0.  1.
          1   -1    0    0  501    0  0.00000000000E+00 -0.00000000000E+00 -0.27984917931E+04  0.27984917931E+04  0.50400000000E-02 0. -1.
    8880023    1    1    2    0    0  0.15590554435E+03  0.27139268839E+03 -0.39406562422E+03  0.82888989168E+03  0.65864270000E+03 0.  1.
    8880022    1    1    2    0    0 -0.15590554435E+03 -0.27139268839E+03 -0.21731421325E+04  0.22008859378E+04  0.15294330000E+03 0.  0.
<mgrwt>
<rscale>  0 0.60625120E+03</rscale>
<asrwt>0</asrwt>
<pdfrwt beam="1">  1        1 0.43053718E+00 0.72922612E+03</pdfrwt>
<pdfrwt beam="2">  1       -1 0.35582161E-01 0.72922612E+03</pdfrwt>
<totfact> 0.67063046E+00</totfact>
</mgrwt>
</event>
<event>
 4    1  0.3712574E-007  0.7950745E+03  0.7818608E-02  0.9721549E-01
          1   -1    0    0  501    0  0.00000000000E+00  0.00000000000E+00  0.17781949045E+04  0.17781949045E+04  0.50400000000E-02 0. -1.
         -1   -1    0    0    0  501 -0.00000000000E+00 -0.00000000000E+00 -0.48557670352E+03  0.48557670355E+03  0.50400000000E-02 0.  1.
    8880023    1    1    2    0    0  0.16711055766E+03 -0.41280417240E+03 -0.92844226517E+02  0.80047703271E+03  0.65864270000E+03 0.  1.
    8880022    1    1    2    0    0 -0.16711055766E+03  0.41280417240E+03  0.13854624275E+04  0.14632945754E+04  0.15294330000E+03 0.  0.
<mgrwt>
<rscale>  0 0.69748145E+03</rscale>
<asrwt>0</asrwt>
<pdfrwt beam="1">  1        1 0.27356844E+00 0.79507448E+03</pdfrwt>
<pdfrwt beam="2">  1       -1 0.74704109E-01 0.79507448E+03</pdfrwt>
<totfact> 0.78773211E+00</totfact>
</mgrwt>
</event>
<event>
 4    1  0.3712574E-007  0.8680800E+03  0.7818608E-02  0.9579349E-01
         -1   -1    0    0    0  501 -0.00000000000E+00  0.00000000000E+00  0.97336611705E+03  0.97336611706E+03  0.50400000000E-02 0.  1.
          1   -1    0    0  501    0  0.00000000000E+00 -0.00000000000E+00 -0.11179982903E+04  0.11179982903E+04  0.50400000000E-02 0. -1.
    8880023    1    1    2    0    0  0.47564431351E+03  0.30580246302E+03  0.66395579198E+03  0.10928861603E+04  0.65864270000E+03 0.  0.
    8880022    1    1    2    0    0 -0.47564431351E+03 -0.30580246302E+03 -0.80858796519E+03  0.99847824705E+03  0.15294330000E+03 0.  0.
<mgrwt>
<rscale>  0 0.78678199E+03</rscale>
<asrwt>0</asrwt>
<pdfrwt beam="1">  1        1 0.17199974E+00 0.86807999E+03</pdfrwt>
<pdfrwt beam="2">  1       -1 0.14974863E+00 0.86807999E+03</pdfrwt>
<totfact> 0.43936925E+00</totfact>
</mgrwt>
</event>
<event>
 4    1  0.5296641E-007  0.7706824E+03  0.7818608E-02  0.9778198E-01
          1   -1    0    0  501    0  0.00000000000E+00  0.00000000000E+00  0.11793482548E+04  0.11793482548E+04  0.50400000000E-02 0. -1.
         -1   -1    0    0    0  501 -0.00000000000E+00 -0.00000000000E+00 -0.17418711065E+04  0.17418711065E+04  0.50400000000E-02 0.  1.
    8880023    1    1    2    0    0 -0.33573540216E+03  0.21776783976E+03 -0.16125000267E+04  0.17872066570E+04  0.65864270000E+03 0.  1.
    8880022    1    1    2    0    0  0.33573540216E+03 -0.21776783976E+03  0.10499771751E+04  0.11340127043E+04  0.15294330000E+03 0.  0.
<mgrwt>
<rscale>  0 0.66545817E+03</rscale>
<asrwt>0</asrwt>
<pdfrwt beam="1">  1        1 0.18143819E+00 0.77068236E+03</pdfrwt>
<pdfrwt beam="2">  1       -1 0.26798017E+00 0.77068236E+03</pdfrwt>
<totfact> 0.62101885E-01</totfact>
</mgrwt>
</event>
<event>
 4    1  0.3732684E-007  0.6750256E+03  0.7818608E-02  0.1012290E+00
         -1   -1    0    0    0  501 -0.00000000000E+00  0.00000000000E+00  0.85035982226E+03  0.85035982228E+03  0.50400000000E-02 0.  1.
          1   -1    0    0  501    0  0.00000000000E+00 -0.00000000000E+00 -0.18772462505E+04  0.18772462505E+04  0.50400000000E-02 0. -1.
    8880023    1    1    2    0    0  0.12727664962E+03 -0.75166205178E+02  0.70887676676E+03  0.97885942845E+03  0.65864270000E+03 0.  1.
    8880022    1    1    2    0    0 -0.12727664962E+03  0.75166205178E+02 -0.17357631950E+04  0.17487466443E+04  0.15294330000E+03 0.  0.
<mgrwt>
<rscale>  0 0.50574505E+03</rscale>
<asrwt>0</asrwt>
<pdfrwt beam="1">  1        1 0.28880711E+00 0.67502556E+03</pdfrwt>
<pdfrwt beam="2">  1       -1 0.13082459E+00 0.67502556E+03</pdfrwt>
<totfact> 0.19269015E+00</totfact>
</mgrwt>
</event>
<event>
 4    1  0.3712574E-007  0.6800430E+03  0.7818608E-02  0.1009299E+00
         -1   -1    0    0    0  501 -0.00000000000E+00  0.00000000000E+00  0.22398370798E+03  0.22398370803E+03  0.50400000000E-02 0.  1.
          1   -1    0    0  501    0  0.00000000000E+00 -0.00000000000E+00 -0.30235817115E+04  0.30235817115E+04  0.50400000000E-02 0. -1.
    8880023    1    1    2    0    0 -0.13797510483E+03 -0.98036605168E+02 -0.30970739547E+03  0.74724640018E+03  0.65864270000E+03 0.  1.
    8880022    1    1    2    0    0  0.13797510483E+03  0.98036605168E+02 -0.24898906081E+04  0.25003190194E+04  0.15294330000E+03 0.  0.
<mgrwt>
<rscale>  0 0.51754058E+03</rscale>
<asrwt>0</asrwt>
<pdfrwt beam="1">  1        1 0.46516639E+00 0.68004302E+03</pdfrwt>
<pdfrwt beam="2">  1       -1 0.34459034E-01 0.68004302E+03</pdfrwt>
<totfact> 0.49646626E+00</totfact>
</mgrwt>
</event>
<event>
 4    1  0.3712574E-007  0.9879362E+03  0.7818608E-02  0.9397514E-01
          1   -1    0    0  501    0  0.00000000000E+00  0.00000000000E+00  0.18021400738E+04  0.18021400738E+04  0.50400000000E-02 0. -1.
         -1   -1    0    0    0  501 -0.00000000000E+00 -0.00000000000E+00 -0.62772674920E+03  0.62772674922E+03  0.50400000000E-02 0.  1.
    8880023    1    1    2    0    0 -0.33307050424E+03 -0.65671285622E+03 -0.54120320703E+02  0.98941748099E+03  0.65864270000E+03 0.  0.
    8880022    1    1    2    0    0  0.33307050424E+03  0.65671285622E+03  0.12285336453E+04  0.14404493421E+04  0.15294330000E+03 0.  0.
<mgrwt>
<rscale>  0 0.92280575E+03</rscale>
<asrwt>0</asrwt>
<pdfrwt beam="1">  1        1 0.27725232E+00 0.98793620E+03</pdfrwt>
<pdfrwt beam="2">  1       -1 0.96573346E-01 0.98793620E+03</pdfrwt>
<totfact> 0.42328741E+00</totfact>
</mgrwt>
</event>
<event>
 4    1  0.3712574E-007  0.7193085E+03  0.7818608E-02  0.9924933E-01
          1   -1    0    0  501    0  0.00000000000E+00  0.00000000000E+00  0.16351287272E+03  0.16351287280E+03  0.50400000000E-02 0. -1.
         -1   -1    0    0    0  501 -0.00000000000E+00 -0.00000000000E+00 -0.24525228322E+04  0.24525228322E+04  0.50400000000E-02 0.  1.
    8880023    1    1    2    0    0  0.77330566896E+02  0.27859378829E+03 -0.21380239393E+04  0.22557817019E+04  0.65864270000E+03 0.  0.
    8880022    1    1    2    0    0 -0.77330566896E+02 -0.27859378829E+03 -0.15098602022E+03  0.36025400312E+03  0.15294330000E+03 0.  0.
<mgrwt>
<rscale>  0 0.59068011E+03</rscale>
<asrwt>0</asrwt>
<pdfrwt beam="1">  1        1 0.25155828E-01 0.71930850E+03</pdfrwt>
<pdfrwt beam="2">  1       -1 0.37731118E+00 0.71930850E+03</pdfrwt>
<totfact> 0.21046716E+00</totfact>
</mgrwt>
</event>
<event>
 4    1  0.3712574E-007  0.6712618E+03  0.7818608E-02  0.1014774E+00
          1   -1    0    0  501    0  0.00000000000E+00  0.00000000000E+00  0.26239467981E+03  0.26239467986E+03  0.50400000000E-02 0. -1.
         -1   -1    0    0    0  501 -0.00000000000E+00 -0.00000000000E+00 -0.17280558912E+04  0.17280558912E+04  0.50400000000E-02 0.  1.
    8880023    1    1    2    0    0  0.12884571747E+03 -0.13453476039E+02 -0.16094172075E+04  0.17437936143E+04  0.65864270000E+03 0.  1.
    8880022    1    1    2    0    0 -0.12884571747E+03  0.13453476039E+02  0.14375599611E+03  0.24665695685E+03  0.15294330000E+03 0.  0.
<mgrwt>
<rscale>  0 0.49620589E+03</rscale>
<asrwt>0</asrwt>
<pdfrwt beam="1">  1        1 0.40368413E-01 0.67126181E+03</pdfrwt>
<pdfrwt beam="2">  1       -1 0.26585475E+00 0.67126181E+03</pdfrwt>
<totfact> 0.60351337E+00</totfact>
</mgrwt>
</event>
<event>
 4    1  0.3712574E-007  0.7412479E+03  0.7818608E-02  0.9856327E-01
         -1   -1    0    0    0  501 -0.00000000000E+00  0.00000000000E+00  0.98904893927E+03  0.98904893928E+03  0.50400000000E-02 0.  1.
          1   -1    0    0  501    0  0.00000000000E+00 -0.00000000000E+00 -0.98798299890E+03  0.98798299891E+03  0.50400000000E-02 0. -1.
    8880023    1    1    2    0    0  0.31578260433E+03  0.12617295816E+03  0.80289702389E+03  0.10927452154E+04  0.65864270000E+03 0.  0.
    8880022    1    1    2    0    0 -0.31578260433E+03 -0.12617295816E+03 -0.80183108352E+03  0.88428672278E+03  0.15294330000E+03 0. -1.
<mgrwt>
<rscale>  0 0.62425373E+03</rscale>
<asrwt>0</asrwt>
<pdfrwt beam="1">  1        1 0.15199738E+00 0.74124792E+03</pdfrwt>
<pdfrwt beam="2">  1       -1 0.15216138E+00 0.74124792E+03</pdfrwt>
<totfact> 0.53843954E+00</totfact>
</mgrwt>
</event>
<event>
 4    1  0.3712574E-007  0.6734206E+03  0.7818608E-02  0.1013321E+00
         -1   -1    0    0    0  501 -0.00000000000E+00  0.00000000000E+00  0.52800992577E+03  0.52800992580E+03  0.50400000000E-02 0.  1.
          1   -1    0    0  501    0  0.00000000000E+00 -0.00000000000E+00 -0.42254026318E+03  0.42254026321E+03  0.50400000000E-02 0. -1.
    8880023    1    1    2    0    0  0.12992301053E+03 -0.52963458748E+02  0.22625499064E+03  0.71041300923E+03  0.65864270000E+03 0.  1.
    8880022    1    1    2    0    0 -0.12992301053E+03  0.52963458748E+02 -0.12078532804E+03  0.24013717978E+03  0.15294330000E+03 0.  0.
<mgrwt>
<rscale>  0 0.50175903E+03</rscale>
<asrwt>0</asrwt>
<pdfrwt beam="1">  1        1 0.65006194E-01 0.67342061E+03</pdfrwt>
<pdfrwt beam="2">  1       -1 0.81232296E-01 0.67342061E+03</pdfrwt>
<totfact> 0.86177389E+01</totfact>
</mgrwt>
</event>
<event>
 4    1  0.3712574E-007  0.8239210E+03  0.7818608E-02  0.9661278E-01
         -1   -1    0    0    0  501 -0.00000000000E+00  0.00000000000E+00  0.69687486747E+03  0.69687486749E+03  0.50400000000E-02 0.  1.
          1   -1    0    0  501    0  0.00000000000E+00 -0.00000000000E+00 -0.21366983967E+04  0.21366983967E+04  0.50400000000E-02 0. -1.
    8880023    1    1    2    0    0 -0.21917930461E+03  0.44384243174E+03  0.40450046171E+03  0.91785973960E+03  0.65864270000E+03 0.  1.
    8880022    1    1    2    0    0  0.21917930461E+03 -0.44384243174E+03 -0.18443239910E+04  0.19157135246E+04  0.15294330000E+03 0.  0.
<mgrwt>
<rscale>  0 0.73369834E+03</rscale>
<asrwt>0</asrwt>
<pdfrwt beam="1">  1        1 0.32872283E+00 0.82392104E+03</pdfrwt>
<pdfrwt beam="2">  1       -1 0.10721152E+00 0.82392104E+03</pdfrwt>
<totfact> 0.20332442E+00</totfact>
</mgrwt>
</event>
<event>
 4    1  0.3712574E-007  0.7707329E+03  0.7818608E-02  0.9778074E-01
          1   -1    0    0  501    0  0.00000000000E+00  0.00000000000E+00  0.17190230355E+04  0.17190230355E+04  0.50400000000E-02 0. -1.
         -1   -1    0    0    0  501 -0.00000000000E+00 -0.00000000000E+00 -0.10556500651E+04  0.10556500651E+04  0.50400000000E-02 0.  1.
    8880023    1    1    2    0    0  0.39576550535E+03  0.59905008810E+02 -0.88181910601E+03  0.11711678305E+04  0.65864270000E+03 0.  1.
    8880022    1    1    2    0    0 -0.39576550535E+03 -0.59905008810E+02  0.15451920764E+04  0.16035052701E+04  0.15294330000E+03 0.  0.
<mgrwt>
<rscale>  0 0.66552615E+03</rscale>
<asrwt>0</asrwt>
<pdfrwt beam="1">  1        1 0.26446508E+00 0.77073287E+03</pdfrwt>
<pdfrwt beam="2">  1       -1 0.16240770E+00 0.77073287E+03</pdfrwt>
<totfact> 0.13589020E+00</totfact>
</mgrwt>
</event>
<event>
 4    1  0.3712574E-007  0.7047619E+03  0.7818608E-02  0.9977992E-01
         -1   -1    0    0    0  501 -0.00000000000E+00  0.00000000000E+00  0.95555396184E+03  0.95555396185E+03  0.50400000000E-02 0.  1.
          1   -1    0    0  501    0  0.00000000000E+00 -0.00000000000E+00 -0.55535284572E+03  0.55535284574E+03  0.50400000000E-02 0. -1.
    8880023    1    1    2    0    0 -0.21160449424E+02  0.24986270140E+03  0.76658941339E+03  0.10413206371E+04  0.65864270000E+03 0.  1.
    8880022    1    1    2    0    0  0.21160449424E+02 -0.24986270140E+03 -0.36638829727E+03  0.46958617054E+03  0.15294330000E+03 0.  0.
<mgrwt>
<rscale>  0 0.56625857E+03</rscale>
<asrwt>0</asrwt>
<pdfrwt beam="1">  1        1 0.85438899E-01 0.70476190E+03</pdfrwt>
<pdfrwt beam="2">  1       -1 0.14700830E+00 0.70476190E+03</pdfrwt>
<totfact> 0.14567335E+01</totfact>
</mgrwt>
</event>
<event>
 4    1  0.3712574E-007  0.1013650E+04  0.7818608E-02  0.9363913E-01
         -1   -1    0    0    0  501 -0.00000000000E+00  0.00000000000E+00  0.41400711370E+03  0.41400711373E+03  0.50400000000E-02 0.  1.
          1   -1    0    0  501    0  0.00000000000E+00 -0.00000000000E+00 -0.19747065417E+04  0.19747065417E+04  0.50400000000E-02 0. -1.
    8880023    1    1    2    0    0  0.14350486128E+03  0.75702231306E+03 -0.75909184898E+03  0.12663755640E+04  0.65864270000E+03 0. -1.
    8880022    1    1    2    0    0 -0.14350486128E+03 -0.75702231306E+03 -0.80160757901E+03  0.11223380914E+04  0.15294330000E+03 0.  1.
<mgrwt>
<rscale>  0 0.95105953E+03</rscale>
<asrwt>0</asrwt>
<pdfrwt beam="1">  1        1 0.30380100E+00 0.10136502E+04</pdfrwt>
<pdfrwt beam="2">  1       -1 0.63693403E-01 0.10136502E+04</pdfrwt>
<totfact> 0.78229108E+00</totfact>
</mgrwt>
</event>
<event>
 4    1  0.3712574E-007  0.1124385E+04  0.7818608E-02  0.9234380E-01
          1   -1    0    0  501    0  0.00000000000E+00  0.00000000000E+00  0.17494347444E+04  0.17494347444E+04  0.50400000000E-02 0. -1.
         -1   -1    0    0    0  501 -0.00000000000E+00 -0.00000000000E+00 -0.89929027325E+03  0.89929027327E+03  0.50400000000E-02 0.  1.
    8880023    1    1    2    0    0 -0.70495513596E+03  0.57746812219E+03  0.12148545778E+04  0.16553286765E+04  0.65864270000E+03 0. -1.
    8880022    1    1    2    0    0  0.70495513596E+03 -0.57746812219E+03 -0.36471010659E+03  0.99339634120E+03  0.15294330000E+03 0.  0.
<mgrwt>
<rscale>  0 0.10705507E+04</rscale>
<asrwt>0</asrwt>
<pdfrwt beam="1">  1        1 0.26914380E+00 0.11243849E+04</pdfrwt>
<pdfrwt beam="2">  1       -1 0.13835235E+00 0.11243849E+04</pdfrwt>
<totfact> 0.18899784E+00</totfact>
</mgrwt>
</event>
<event>
 4    1  0.3712574E-007  0.7556118E+03  0.7818608E-02  0.9816603E-01
          1   -1    0    0  501    0  0.00000000000E+00  0.00000000000E+00  0.48997509304E+03  0.48997509306E+03  0.50400000000E-02 0. -1.
         -1   -1    0    0    0  501 -0.00000000000E+00 -0.00000000000E+00 -0.16629024184E+04  0.16629024184E+04  0.50400000000E-02 0.  1.
    8880023    1    1    2    0    0  0.36397558310E+03 -0.68270311586E+02 -0.14708518034E+04  0.16535883086E+04  0.65864270000E+03 0.  0.
    8880022    1    1    2    0    0 -0.36397558310E+03  0.68270311586E+02  0.29792447799E+03  0.49928920290E+03  0.15294330000E+03 0.  0.
<mgrwt>
<rscale>  0 0.64479081E+03</rscale>
<asrwt>0</asrwt>
<pdfrwt beam="1">  1        1 0.75380784E-01 0.75561185E+03</pdfrwt>
<pdfrwt beam="2">  1       -1 0.25583114E+00 0.75561185E+03</pdfrwt>
<totfact> 0.30355511E+00</totfact>
</mgrwt>
</event>
<event>
 4    1  0.3712574E-007  0.7305196E+03  0.7818608E-02  0.9888477E-01
          1   -1    0    0  501    0  0.00000000000E+00  0.00000000000E+00  0.12792377818E+04  0.12792377818E+04  0.50400000000E-02 0. -1.
         -1   -1    0    0    0  501 -0.00000000000E+00 -0.00000000000E+00 -0.39192495159E+03  0.39192495162E+03  0.50400000000E-02 0.  1.
    8880023    1    1    2    0    0  0.19671515500E+03  0.24728888727E+03  0.14794951372E+02  0.73066937997E+03  0.65864270000E+03 0.  1.
    8880022    1    1    2    0    0 -0.19671515500E+03 -0.24728888727E+03  0.87251787880E+03  0.94049335341E+03  0.15294330000E+03 0.  0.
<mgrwt>
<rscale>  0 0.60823021E+03</rscale>
<asrwt>0</asrwt>
<pdfrwt beam="1">  1        1 0.19680581E+00 0.73051958E+03</pdfrwt>
<pdfrwt beam="2">  1       -1 0.60296147E-01 0.73051958E+03</pdfrwt>
<totfact> 0.26964060E+01</totfact>
</mgrwt>
</event>
<event>
 4    1  0.3712574E-007  0.6866221E+03  0.7818608E-02  0.1005801E+00
         -1   -1    0    0    0  501 -0.00000000000E+00  0.00000000000E+00  0.13777839716E+03  0.13777839725E+03  0.50400000000E-02 0.  1.
          1   -1    0    0  501    0  0.00000000000E+00 -0.00000000000E+00 -0.28767007696E+04  0.28767007696E+04  0.50400000000E-02 0. -1.
    8880023    1    1    2    0    0  0.61613941395E+02  0.18396588288E+03 -0.77635939901E+03  0.10364284088E+04  0.65864270000E+03 0.  1.
    8880022    1    1    2    0    0 -0.61613941395E+02 -0.18396588288E+03 -0.19625629734E+04  0.19780507581E+04  0.15294330000E+03 0.  0.
<mgrwt>
<rscale>  0 0.53178060E+03</rscale>
<asrwt>0</asrwt>
<pdfrwt beam="1">  1        1 0.44256930E+00 0.68662212E+03</pdfrwt>
<pdfrwt beam="2">  1       -1 0.21196679E-01 0.68662212E+03</pdfrwt>
<totfact> 0.14546964E+01</totfact>
</mgrwt>
</event>
<event>
 4    1  0.3712574E-007  0.7114284E+03  0.7818608E-02  0.9952735E-01
          1   -1    0    0  501    0  0.00000000000E+00  0.00000000000E+00  0.41710786303E+04  0.41710786303E+04  0.50400000000E-02 0. -1.
         -1   -1    0    0    0  501 -0.00000000000E+00 -0.00000000000E+00 -0.35799980088E+03  0.35799980092E+03  0.50400000000E-02 0.  1.
    8880023    1    1    2    0    0  0.15329869741E+03  0.22095163586E+03  0.80303134200E+01  0.71147368765E+03  0.65864270000E+03 0.  1.
    8880022    1    1    2    0    0 -0.15329869741E+03 -0.22095163586E+03  0.38050485160E+04  0.38176047436E+04  0.15294330000E+03 0.  0.
<mgrwt>
<rscale>  0 0.57772219E+03</rscale>
<asrwt>0</asrwt>
<pdfrwt beam="1">  1        1 0.64170433E+00 0.71142837E+03</pdfrwt>
<pdfrwt beam="2">  1       -1 0.55076898E-01 0.71142837E+03</pdfrwt>
<totfact> 0.25418944E-01</totfact>
</mgrwt>
</event>
<event>
 4    1  0.3712574E-007  0.7045667E+03  0.7818608E-02  0.9978759E-01
          1   -1    0    0  501    0  0.00000000000E+00  0.00000000000E+00  0.13656367714E+04  0.13656367714E+04  0.50400000000E-02 0. -1.
         -1   -1    0    0    0  501 -0.00000000000E+00 -0.00000000000E+00 -0.21153472831E+03  0.21153472837E+03  0.50400000000E-02 0.  1.
    8880023    1    1    2    0    0 -0.24165222006E+03  0.64870390661E+02  0.51100081939E+03  0.87036544436E+03  0.65864270000E+03 0.  1.
    8880022    1    1    2    0    0  0.24165222006E+03 -0.64870390661E+02  0.64310122365E+03  0.70680605538E+03  0.15294330000E+03 0.  0.
<mgrwt>
<rscale>  0 0.56591487E+03</rscale>
<asrwt>0</asrwt>
<pdfrwt beam="1">  1        1 0.21009796E+00 0.70456665E+03</pdfrwt>
<pdfrwt beam="2">  1       -1 0.32543805E-01 0.70456665E+03</pdfrwt>
<totfact> 0.73821358E+01</totfact>
</mgrwt>
</event>
<event>
 4    1  0.3712574E-007  0.9252362E+03  0.7818608E-02  0.9486677E-01
         -1   -1    0    0    0  501 -0.00000000000E+00  0.00000000000E+00  0.52814326602E+03  0.52814326604E+03  0.50400000000E-02 0.  1.
          1   -1    0    0  501    0  0.00000000000E+00 -0.00000000000E+00 -0.26392005514E+04  0.26392005514E+04  0.50400000000E-02 0. -1.
    8880023    1    1    2    0    0 -0.50864209153E+03 -0.40439455795E+03  0.28891616742E+02  0.92568713265E+03  0.65864270000E+03 0.  0.
    8880022    1    1    2    0    0  0.50864209153E+03  0.40439455795E+03 -0.21399489021E+04  0.22416566848E+04  0.15294330000E+03 0.  0.
<mgrwt>
<rscale>  0 0.85273263E+03</rscale>
<asrwt>0</asrwt>
<pdfrwt beam="1">  1        1 0.40603084E+00 0.92523615E+03</pdfrwt>
<pdfrwt beam="2">  1       -1 0.81252812E-01 0.92523615E+03</pdfrwt>
<totfact> 0.16890432E+00</totfact>
</mgrwt>
</event>
<event>
 4    1  0.3712574E-007  0.6654867E+03  0.7818608E-02  0.1019129E+00
         -1   -1    0    0    0  501 -0.00000000000E+00  0.00000000000E+00  0.98866918749E+02  0.98866918878E+02  0.50400000000E-02 0.  1.
          1   -1    0    0  501    0  0.00000000000E+00 -0.00000000000E+00 -0.18543589055E+04  0.18543589055E+04  0.50400000000E-02 0. -1.
    8880023    1    1    2    0    0  0.33848810186E+02 -0.88975231771E+02 -0.12420936121E+04  0.14091377084E+04  0.65864270000E+03 0.  1.
    8880022    1    1    2    0    0 -0.33848810186E+02  0.88975231771E+02 -0.51339837474E+03  0.54408811604E+03  0.15294330000E+03 0.  0.
<mgrwt>
<rscale>  0 0.48002410E+03</rscale>
<asrwt>0</asrwt>
<pdfrwt beam="1">  1        1 0.28528596E+00 0.66548669E+03</pdfrwt>
<pdfrwt beam="2">  1       -1 0.15210297E-01 0.66548669E+03</pdfrwt>
<totfact> 0.12455985E+02</totfact>
</mgrwt>
</event>
<event>
 4    1  0.3712574E-007  0.7924854E+03  0.7818608E-02  0.9727286E-01
          1   -1    0    0  501    0  0.00000000000E+00  0.00000000000E+00  0.77075391414E+03  0.77075391416E+03  0.50400000000E-02 0. -1.
         -1   -1    0    0    0  501 -0.00000000000E+00 -0.00000000000E+00 -0.55031567276E+03  0.55031567278E+03  0.50400000000E-02 0.  1.
    8880023    1    1    2    0    0 -0.41945681973E+03 -0.13519927048E+03 -0.27141555814E+02  0.79295002155E+03  0.65864270000E+03 0. -1.
    8880022    1    1    2    0    0  0.41945681973E+03  0.13519927048E+03  0.24757979720E+03  0.52811956539E+03  0.15294330000E+03 0.  0.
<mgrwt>
<rscale>  0 0.69415176E+03</rscale>
<asrwt>0</asrwt>
<pdfrwt beam="1">  1        1 0.11857753E+00 0.79248538E+03</pdfrwt>
<pdfrwt beam="2">  1       -1 0.84663949E-01 0.79248538E+03</pdfrwt>
<totfact> 0.33066149E+01</totfact>
</mgrwt>
</event>
<event>
 4    1  0.3712574E-007  0.7630615E+03  0.7818608E-02  0.9797245E-01
         -1   -1    0    0    0  501 -0.00000000000E+00  0.00000000000E+00  0.16100748803E+04  0.16100748803E+04  0.50400000000E-02 0.  1.
          1   -1    0    0  501    0  0.00000000000E+00 -0.00000000000E+00 -0.63057245900E+03  0.63057245902E+03  0.50400000000E-02 0. -1.
    8880023    1    1    2    0    0  0.37603989980E+03 -0.83944584022E+02  0.14346858334E+04  0.16249881065E+04  0.65864270000E+03 0.  0.
    8880022    1    1    2    0    0 -0.37603989980E+03  0.83944584022E+02 -0.45518341204E+03  0.61565923289E+03  0.15294330000E+03 0.  0.
<mgrwt>
<rscale>  0 0.65510600E+03</rscale>
<asrwt>0</asrwt>
<pdfrwt beam="1">  1        1 0.97011147E-01 0.76306153E+03</pdfrwt>
<pdfrwt beam="2">  1       -1 0.24770383E+00 0.76306153E+03</pdfrwt>
<totfact> 0.23961542E+00</totfact>
</mgrwt>
</event>
<event>
 4    1  0.3712574E-007  0.9616157E+03  0.7818608E-02  0.9433595E-01
          1   -1    0    0  501    0  0.00000000000E+00  0.00000000000E+00  0.11247349310E+04  0.11247349310E+04  0.50400000000E-02 0. -1.
         -1   -1    0    0    0  501 -0.00000000000E+00 -0.00000000000E+00 -0.69216156618E+03  0.69216156620E+03  0.50400000000E-02 0.  1.
    8880023    1    1    2    0    0 -0.44223701229E+03  0.54343449778E+03  0.52207234741E+03  0.10941957643E+04  0.65864270000E+03 0.  0.
    8880022    1    1    2    0    0  0.44223701229E+03 -0.54343449778E+03 -0.89498982619E+02  0.72270073289E+03  0.15294330000E+03 0.  0.
<mgrwt>
<rscale>  0 0.89361776E+03</rscale>
<asrwt>0</asrwt>
<pdfrwt beam="1">  1        1 0.17303614E+00 0.96161574E+03</pdfrwt>
<pdfrwt beam="2">  1       -1 0.10648639E+00 0.96161574E+03</pdfrwt>
<totfact> 0.10079525E+01</totfact>
</mgrwt>
</event>
<event>
 4    1  0.3712574E-007  0.9115808E+03  0.7818608E-02  0.9507691E-01
         -1   -1    0    0    0  501 -0.00000000000E+00  0.00000000000E+00  0.66736072519E+03  0.66736072521E+03  0.50400000000E-02 0.  1.
          1   -1    0    0  501    0  0.00000000000E+00 -0.00000000000E+00 -0.12111397139E+04  0.12111397139E+04  0.50400000000E-02 0. -1.
    8880023    1    1    2    0    0 -0.60771124696E+03 -0.16690248151E+03  0.15555265635E+03  0.92475739153E+03  0.65864270000E+03 0.  0.
    8880022    1    1    2    0    0  0.60771124696E+03  0.16690248151E+03 -0.69933164503E+03  0.95374304756E+03  0.15294330000E+03 0.  0.
<mgrwt>
<rscale>  0 0.83719190E+03</rscale>
<asrwt>0</asrwt>
<pdfrwt beam="1">  1        1 0.18632919E+00 0.91158083E+03</pdfrwt>
<pdfrwt beam="2">  1       -1 0.10267088E+00 0.91158083E+03</pdfrwt>
<totfact> 0.95329228E+00</totfact>
</mgrwt>
</event>
<event>
 4    1  0.3712574E-007  0.8644566E+03  0.7818608E-02  0.9585685E-01
         -1   -1    0    0    0  501 -0.00000000000E+00  0.00000000000E+00  0.27243037996E+03  0.27243038001E+03  0.50400000000E-02 0.  1.
          1   -1    0    0  501    0  0.00000000000E+00 -0.00000000000E+00 -0.19157915527E+04  0.19157915527E+04  0.50400000000E-02 0. -1.
    8880023    1    1    2    0    0  0.42289041383E+03  0.36693140514E+03 -0.97733793610E+03  0.13047891039E+04  0.65864270000E+03 0.  1.
    8880022    1    1    2    0    0 -0.42289041383E+03 -0.36693140514E+03 -0.66602323667E+03  0.88343282879E+03  0.15294330000E+03 0. -1.
<mgrwt>
<rscale>  0 0.78250952E+03</rscale>
<asrwt>0</asrwt>
<pdfrwt beam="1">  1        1 0.29473715E+00 0.86445657E+03</pdfrwt>
<pdfrwt beam="2">  1       -1 0.41912367E-01 0.86445657E+03</pdfrwt>
<totfact> 0.19465651E+01</totfact>
</mgrwt>
</event>
<event>
 4    1  0.3712574E-007  0.6697845E+03  0.7818608E-02  0.1015818E+00
         -1   -1    0    0    0  501 -0.00000000000E+00  0.00000000000E+00  0.58988868177E+03  0.58988868179E+03  0.50400000000E-02 0.  1.
          1   -1    0    0  501    0  0.00000000000E+00 -0.00000000000E+00 -0.34472249744E+03  0.34472249748E+03  0.50400000000E-02 0. -1.
    8880023    1    1    2    0    0  0.11665599532E+03 -0.34530901104E+02  0.29661319454E+03  0.73252344523E+03  0.65864270000E+03 0.  1.
    8880022    1    1    2    0    0 -0.11665599532E+03  0.34530901104E+02 -0.51447010213E+02  0.20208773404E+03  0.15294330000E+03 0. -1.
<mgrwt>
<rscale>  0 0.49226480E+03</rscale>
<asrwt>0</asrwt>
<pdfrwt beam="1">  1        1 0.53034231E-01 0.66978445E+03</pdfrwt>
<pdfrwt beam="2">  1       -1 0.90752104E-01 0.66978445E+03</pdfrwt>
<totfact> 0.88664183E+01</totfact>
</mgrwt>
</event>
<event>
 4    1  0.3712574E-007  0.8443636E+03  0.7818608E-02  0.9622007E-01
          1   -1    0    0  501    0  0.00000000000E+00  0.00000000000E+00  0.11412316112E+04  0.11412316112E+04  0.50400000000E-02 0. -1.
         -1   -1    0    0    0  501 -0.00000000000E+00 -0.00000000000E+00 -0.43102966862E+03  0.43102966865E+03  0.50400000000E-02 0.  1.
    8880023    1    1    2    0    0 -0.39927902299E+03  0.34599991376E+03  0.34554712137E+03  0.91233365491E+03  0.65864270000E+03 0. -1.
    8880022    1    1    2    0    0  0.39927902299E+03 -0.34599991376E+03  0.36465482118E+03  0.65992762493E+03  0.15294330000E+03 0.  1.
<mgrwt>
<rscale>  0 0.75856608E+03</rscale>
<asrwt>0</asrwt>
<pdfrwt beam="1">  1        1 0.17557409E+00 0.84436360E+03</pdfrwt>
<pdfrwt beam="2">  1       -1 0.66312257E-01 0.84436360E+03</pdfrwt>
<totfact> 0.27706851E+01</totfact>
</mgrwt>
</event>
<event>
 4    1  0.3712574E-007  0.8497702E+03  0.7818608E-02  0.9612026E-01
         -1   -1    0    0    0  501 -0.00000000000E+00  0.00000000000E+00  0.10180024021E+04  0.10180024021E+04  0.50400000000E-02 0.  1.
          1   -1    0    0  501    0  0.00000000000E+00 -0.00000000000E+00 -0.10544889032E+04  0.10544889032E+04  0.50400000000E-02 0. -1.
    8880023    1    1    2    0    0 -0.47047232354E+03  0.25875676449E+03  0.73271136411E+03  0.11220407389E+04  0.65864270000E+03 0.  1.
    8880022    1    1    2    0    0  0.47047232354E+03 -0.25875676449E+03 -0.76919786515E+03  0.95045056639E+03  0.15294330000E+03 0. -1.
<mgrwt>
<rscale>  0 0.76505324E+03</rscale>
<asrwt>0</asrwt>
<pdfrwt beam="1">  1        1 0.16222906E+00 0.84977025E+03</pdfrwt>
<pdfrwt beam="2">  1       -1 0.15661575E+00 0.84977025E+03</pdfrwt>
<totfact> 0.43534337E+00</totfact>
</mgrwt>
</event>
<event>
 4    1  0.3712574E-007  0.6625045E+03  0.7818608E-02  0.1021726E+00
         -1   -1    0    0    0  501 -0.00000000000E+00  0.00000000000E+00  0.61766952608E+03  0.61766952610E+03  0.50400000000E-02 0.  1.
          1   -1    0    0  501    0  0.00000000000E+00 -0.00000000000E+00 -0.19758450816E+04  0.19758450816E+04  0.50400000000E-02 0. -1.
    8880023    1    1    2    0    0  0.70394198357E+02  0.12110433587E+02  0.43490965503E+03  0.79250149531E+03  0.65864270000E+03 0.  1.
    8880022    1    1    2    0    0 -0.70394198357E+02 -0.12110433587E+02 -0.17930852105E+04  0.18010131124E+04  0.15294330000E+03 0.  0.
<mgrwt>
<rscale>  0 0.47069020E+03</rscale>
<asrwt>0</asrwt>
<pdfrwt beam="1">  1        1 0.30397616E+00 0.66250450E+03</pdfrwt>
<pdfrwt beam="2">  1       -1 0.95026082E-01 0.66250450E+03</pdfrwt>
<totfact> 0.35417795E+00</totfact>
</mgrwt>
</event>
<event>
 4    1  0.3712574E-007  0.7216353E+03  0.7818608E-02  0.9917091E-01
         -1   -1    0    0    0  501 -0.00000000000E+00  0.00000000000E+00  0.10101857135E+04  0.10101857135E+04  0.50400000000E-02 0.  1.
          1   -1    0    0  501    0  0.00000000000E+00 -0.00000000000E+00 -0.63690881404E+03  0.63690881406E+03  0.50400000000E-02 0. -1.
    8880023    1    1    2    0    0 -0.29325836971E+03  0.30770567498E+02  0.81876973050E+03  0.10913942354E+04  0.65864270000E+03 0.  0.
    8880022    1    1    2    0    0  0.29325836971E+03 -0.30770567498E+02 -0.44549283103E+03  0.55570029219E+03  0.15294330000E+03 0.  0.
<mgrwt>
<rscale>  0 0.59440087E+03</rscale>
<asrwt>0</asrwt>
<pdfrwt beam="1">  1        1 0.97985972E-01 0.72163530E+03</pdfrwt>
<pdfrwt beam="2">  1       -1 0.15541319E+00 0.72163530E+03</pdfrwt>
<totfact> 0.10283811E+01</totfact>
</mgrwt>
</event>
<event>
 4    1  0.3712574E-007  0.8574975E+03  0.7818608E-02  0.9598031E-01
          1   -1    0    0  501    0  0.00000000000E+00  0.00000000000E+00  0.79113167771E+03  0.79113167773E+03  0.50400000000E-02 0. -1.
         -1   -1    0    0    0  501 -0.00000000000E+00 -0.00000000000E+00 -0.12495410650E+04  0.12495410650E+04  0.50400000000E-02 0.  1.
    8880023    1    1    2    0    0  0.54272166528E+03 -0.83336001213E+02 -0.95587320859E+03  0.12841321942E+04  0.65864270000E+03 0.  0.
    8880022    1    1    2    0    0 -0.54272166528E+03  0.83336001213E+02  0.49746382129E+03  0.75654054853E+03  0.15294330000E+03 0.  0.
<mgrwt>
<rscale>  0 0.77426667E+03</rscale>
<asrwt>0</asrwt>
<pdfrwt beam="1">  1        1 0.12171257E+00 0.85749746E+03</pdfrwt>
<pdfrwt beam="2">  1       -1 0.19223709E+00 0.85749746E+03</pdfrwt>
<totfact> 0.39191441E+00</totfact>
</mgrwt>
</event>
<event>
 4    1  0.3712574E-007  0.1371070E+04  0.7818608E-02  0.9006494E-01
         -1   -1    0    0    0  501 -0.00000000000E+00  0.00000000000E+00  0.10610835644E+04  0.10610835644E+04  0.50400000000E-02 0.  1.
          1   -1    0    0  501    0  0.00000000000E+00 -0.00000000000E+00 -0.21596300058E+04  0.21596300058E+04  0.50400000000E-02 0. -1.
    8880023    1    1    2    0    0 -0.62051698904E+03 -0.10300400255E+04 -0.14125238450E+04  0.19685166006E+04  0.65864270000E+03 0. -1.
    8880022    1    1    2    0    0  0.62051698904E+03  0.10300400255E+04  0.31397740359E+03  0.12521969696E+04  0.15294330000E+03 0.  1.
<mgrwt>
<rscale>  0 0.13294986E+04</rscale>
<asrwt>0</asrwt>
<pdfrwt beam="1">  1        1 0.33225077E+00 0.13710704E+04</pdfrwt>
<pdfrwt beam="2">  1       -1 0.16324363E+00 0.13710704E+04</pdfrwt>
<totfact> 0.61692151E-01</totfact>
</mgrwt>
</event>
<event>
 4    1  0.3712574E-007  0.7065570E+03  0.7818608E-02  0.9971015E-01
          1   -1    0    0  501    0  0.00000000000E+00  0.00000000000E+00  0.74607765390E+03  0.74607765391E+03  0.50400000000E-02 0. -1.
         -1   -1    0    0    0  501 -0.00000000000E+00 -0.00000000000E+00 -0.15136620326E+04  0.15136620326E+04  0.50400000000E-02 0.  1.
    8880023    1    1    2    0    0 -0.24656651982E+03  0.67952537606E+02 -0.13957915961E+04  0.15644350361E+04  0.65864270000E+03 0.  1.
    8880022    1    1    2    0    0  0.24656651982E+03 -0.67952537606E+02  0.62820721735E+03  0.69530465050E+03  0.15294330000E+03 0.  0.
<mgrwt>
<rscale>  0 0.56939628E+03</rscale>
<asrwt>0</asrwt>
<pdfrwt beam="1">  1        1 0.11478118E+00 0.70655701E+03</pdfrwt>
<pdfrwt beam="2">  1       -1 0.23287108E+00 0.70655701E+03</pdfrwt>
<totfact> 0.23462184E+00</totfact>
</mgrwt>
</event>
<event>
 4    1  0.3712574E-007  0.1013461E+04  0.7818608E-02  0.9364154E-01
         -1   -1    0    0    0  501 -0.00000000000E+00  0.00000000000E+00  0.10502592919E+04  0.10502592919E+04  0.50400000000E-02 0.  1.
          1   -1    0    0  501    0  0.00000000000E+00 -0.00000000000E+00 -0.89022081678E+03  0.89022081679E+03  0.50400000000E-02 0. -1.
    8880023    1    1    2    0    0  0.66198931572E+03  0.39378090809E+03 -0.26500714291E+03  0.10475362761E+04  0.65864270000E+03 0. -1.
    8880022    1    1    2    0    0 -0.66198931572E+03 -0.39378090809E+03  0.42504561799E+03  0.89294383255E+03  0.15294330000E+03 0.  0.
<mgrwt>
<rscale>  0 0.95085269E+03</rscale>
<asrwt>0</asrwt>
<pdfrwt beam="1">  1        1 0.13695705E+00 0.10134611E+04</pdfrwt>
<pdfrwt beam="2">  1       -1 0.16157835E+00 0.10134611E+04</pdfrwt>
<totfact> 0.52762096E+00</totfact>
</mgrwt>
</event>
<event>
 4    1  0.3810203E-007  0.8271052E+03  0.7818608E-02  0.9654991E-01
          1   -1    0    0  501    0  0.00000000000E+00  0.00000000000E+00  0.18061512825E+04  0.18061512825E+04  0.50400000000E-02 0. -1.
         -1   -1    0    0    0  501 -0.00000000000E+00 -0.00000000000E+00 -0.81933794671E+03  0.81933794673E+03  0.50400000000E-02 0.  1.
    8880023    1    1    2    0    0  0.31311047118E+03 -0.39019818741E+03 -0.55585270518E+03  0.99653159947E+03  0.65864270000E+03 0.  1.
    8880022    1    1    2    0    0 -0.31311047118E+03  0.39019818741E+03  0.15426660409E+04  0.16289576297E+04  0.15294330000E+03 0.  0.
<mgrwt>
<rscale>  0 0.73761005E+03</rscale>
<asrwt>0</asrwt>
<pdfrwt beam="1">  1        1 0.27786942E+00 0.82710519E+03</pdfrwt>
<pdfrwt beam="2">  1       -1 0.12605199E+00 0.82710519E+03</pdfrwt>
<totfact> 0.22908992E+00</totfact>
</mgrwt>
</event>
<event>
 4    1  0.3712574E-007  0.7594335E+03  0.7818608E-02  0.9806576E-01
          1   -1    0    0  501    0  0.00000000000E+00  0.00000000000E+00  0.44517537450E+04  0.44517537450E+04  0.50400000000E-02 0. -1.
         -1   -1    0    0    0  501 -0.00000000000E+00 -0.00000000000E+00 -0.94182249789E+02  0.94182249924E+02  0.50400000000E-02 0.  1.
    8880023    1    1    2    0    0  0.35962248402E+03 -0.11662237675E+03  0.17644861158E+04  0.19209764624E+04  0.65864270000E+03 0.  0.
    8880022    1    1    2    0    0 -0.35962248402E+03  0.11662237675E+03  0.25930853794E+04  0.26249595325E+04  0.15294330000E+03 0.  0.
<mgrwt>
<rscale>  0 0.65010820E+03</rscale>
<asrwt>0</asrwt>
<pdfrwt beam="1">  1        1 0.68488527E+00 0.75943355E+03</pdfrwt>
<pdfrwt beam="2">  1       -1 0.14489575E-01 0.75943355E+03</pdfrwt>
<totfact> 0.14042518E+00</totfact>
</mgrwt>
</event>
<event>
 4    1  0.3712574E-007  0.6690143E+03  0.7818608E-02  0.1016380E+00
         -1   -1    0    0    0  501 -0.00000000000E+00  0.00000000000E+00  0.37808662645E+03  0.37808662648E+03  0.50400000000E-02 0.  1.
          1   -1    0    0  501    0  0.00000000000E+00 -0.00000000000E+00 -0.94271271118E+03  0.94271271120E+03  0.50400000000E-02 0. -1.
    8880023    1    1    2    0    0 -0.56371945154E+02 -0.10291814524E+03  0.55585524363E+02  0.67131951975E+03  0.65864270000E+03 0.  1.
    8880022    1    1    2    0    0  0.56371945154E+02  0.10291814524E+03 -0.62021160909E+03  0.64947981792E+03  0.15294330000E+03 0.  0.
<mgrwt>
<rscale>  0 0.49016054E+03</rscale>
<asrwt>0</asrwt>
<pdfrwt beam="1">  1        1 0.14503272E+00 0.66901431E+03</pdfrwt>
<pdfrwt beam="2">  1       -1 0.58167174E-01 0.66901431E+03</pdfrwt>
<totfact> 0.51915266E+01</totfact>
</mgrwt>
</event>
<event>
 4    1  0.3712574E-007  0.8945856E+03  0.7818608E-02  0.9534780E-01
         -1   -1    0    0    0  501 -0.00000000000E+00  0.00000000000E+00  0.11443189375E+04  0.11443189375E+04  0.50400000000E-02 0.  1.
          1   -1    0    0  501    0  0.00000000000E+00 -0.00000000000E+00 -0.66177248409E+03  0.66177248411E+03  0.50400000000E-02 0. -1.
    8880023    1    1    2    0    0 -0.10477762863E+02 -0.60527962869E+03 -0.16151790072E+03  0.90904975163E+03  0.65864270000E+03 0. -1.
    8880022    1    1    2    0    0  0.10477762863E+02  0.60527962869E+03  0.64406435411E+03  0.89704166997E+03  0.15294330000E+03 0.  0.
<mgrwt>
<rscale>  0 0.81767495E+03</rscale>
<asrwt>0</asrwt>
<pdfrwt beam="1">  1        1 0.10181115E+00 0.89458561E+03</pdfrwt>
<pdfrwt beam="2">  1       -1 0.17604907E+00 0.89458561E+03</pdfrwt>
<totfact> 0.66869841E+00</totfact>
</mgrwt>
</event>
<event>
 4    1  0.3712574E-007  0.6683440E+03  0.7818608E-02  0.1016879E+00
          1   -1    0    0  501    0  0.00000000000E+00  0.00000000000E+00  0.27543039106E+03  0.27543039111E+03  0.50400000000E-02 0. -1.
         -1   -1    0    0    0  501 -0.00000000000E+00 -0.00000000000E+00 -0.88488875330E+03  0.88488875332E+03  0.50400000000E-02 0.  1.
    8880023    1    1    2    0    0 -0.61952549034E+02  0.95054748868E+02 -0.68353650907E+03  0.95598425150E+03  0.65864270000E+03 0.  1.
    8880022    1    1    2    0    0  0.61952549034E+02 -0.95054748868E+02  0.74078146833E+02  0.20433489293E+03  0.15294330000E+03 0. -1.
<mgrwt>
<rscale>  0 0.48829949E+03</rscale>
<asrwt>0</asrwt>
<pdfrwt beam="1">  1        1 0.42373907E-01 0.66834402E+03</pdfrwt>
<pdfrwt beam="2">  1       -1 0.13613673E+00 0.66834402E+03</pdfrwt>
<totfact> 0.45401043E+01</totfact>
</mgrwt>
</event>
<event>
 4    1  0.3712574E-007  0.7404250E+03  0.7818608E-02  0.9858711E-01
         -1   -1    0    0    0  501 -0.00000000000E+00  0.00000000000E+00  0.12426068849E+04  0.12426068849E+04  0.50400000000E-02 0.  1.
          1   -1    0    0  501    0  0.00000000000E+00 -0.00000000000E+00 -0.41713245507E+03  0.41713245510E+03  0.50400000000E-02 0. -1.
    8880023    1    1    2    0    0  0.21774096921E+03 -0.25885875287E+03  0.10042575731E+04  0.12477028745E+04  0.65864270000E+03 0.  1.
    8880022    1    1    2    0    0 -0.21774096921E+03  0.25885875287E+03 -0.17878314325E+03  0.41203646554E+03  0.15294330000E+03 0.  0.
<mgrwt>
<rscale>  0 0.62304749E+03</rscale>
<asrwt>0</asrwt>
<pdfrwt beam="1">  1        1 0.64174225E-01 0.74042501E+03</pdfrwt>
<pdfrwt beam="2">  1       -1 0.19117029E+00 0.74042501E+03</pdfrwt>
<totfact> 0.10151463E+01</totfact>
</mgrwt>
</event>
