<event>
 4    2  0.9414654E-001  0.1807876E+03  0.7546771E-02  0.1167043E+00
         -1   -1    0    0    0  501 -0.00000000000E+00  0.00000000000E+00  0.28387055972E+03  0.28387055972E+03  0.00000000000E+00 0. -1.
          1   -1    0    0  502    0  0.00000000000E+00 -0.00000000000E+00 -0.15084225247E+03  0.15084225247E+03  0.00000000000E+00 0.  1.
          6    1    1    2  502    0 -0.40018513343E+02 -0.33966029649E+02 -0.39234146794E+02  0.18499592118E+03  0.17300000000E+03 0.  1.
         -6    1    1    2    0  501  0.40018513343E+02  0.33966029649E+02  0.17226245404E+03  0.24971689100E+03  0.17300000000E+03 0. -1.
<mgrwt>
<rscale>  2 0.18078764E+03</rscale>
<asrwt>0</asrwt>
<pdfrwt beam="1">  1        1 0.23206500E-01 0.18078764E+03</pdfrwt>
<pdfrwt beam="2">  1       -1 0.43672394E-01 0.18078764E+03</pdfrwt>
<totfact> 0.11024329E+03</totfact>
</mgrwt>
</event>
<event>
 4    2  0.9414654E-001  0.4096468E+03  0.7546771E-02  0.1040490E+00
         -2   -1    0    0    0  501 -0.00000000000E+00  0.00000000000E+00  0.12883271648E+03  0.12883271648E+03  0.00000000000E+00 0. -1.
          2   -1    0    0  502    0  0.00000000000E+00 -0.00000000000E+00 -0.14270551241E+04  0.14270551241E+04  0.00000000000E+00 0.  1.
          6    1    1    2  502    0  0.38030575118E+02  0.36937132320E+03 -0.87890010748E+03  0.96967824456E+03  0.17300000000E+03 0.  1.
         -6    1    1    2    0  501 -0.38030575118E+02 -0.36937132320E+03 -0.41932230009E+03  0.58620959597E+03  0.17300000000E+03 0. -1.
<mgrwt>
<rscale>  2 0.40964680E+03</rscale>
<asrwt>0</asrwt>
<pdfrwt beam="1">  1        2 0.21954695E+00 0.40964680E+03</pdfrwt>
<pdfrwt beam="2">  1       -2 0.19820417E-01 0.40964680E+03</pdfrwt>
<totfact> 0.31520418E+02</totfact>
</mgrwt>
</event>
<event>
 4    2  0.9414654E-001  0.2317593E+03  0.7546771E-02  0.1125408E+00
          1   -1    0    0  502    0  0.00000000000E+00  0.00000000000E+00  0.18448585247E+04  0.18448585247E+04  0.00000000000E+00 0. -1.
         -1   -1    0    0    0  501 -0.00000000000E+00 -0.00000000000E+00 -0.30544639533E+02  0.30544639533E+02  0.00000000000E+00 0.  1.
          6    1    1    2  502    0  0.28819956184E+02  0.15150170890E+03  0.11100503347E+04  0.11339859361E+04  0.17300000000E+03 0. -1.
         -6    1    1    2    0  501 -0.28819956184E+02 -0.15150170890E+03  0.70426355038E+03  0.74141722806E+03  0.17300000000E+03 0.  1.
<mgrwt>
<rscale>  2 0.23175927E+03</rscale>
<asrwt>0</asrwt>
<pdfrwt beam="1">  1        1 0.28382430E+00 0.23175927E+03</pdfrwt>
<pdfrwt beam="2">  1       -1 0.46991767E-02 0.23175927E+03</pdfrwt>
<totfact> 0.82530080E+02</totfact>
</mgrwt>
</event>
<event>
 4    2  0.9414654E-001  0.1862006E+03  0.7546771E-02  0.1161933E+00
         -1   -1    0    0    0  501 -0.00000000000E+00  0.00000000000E+00  0.80981908753E+03  0.80981908753E+03  0.00000000000E+00 0. -1.
          1   -1    0    0  502    0  0.00000000000E+00 -0.00000000000E+00 -0.59002759445E+02  0.59002759445E+02  0.00000000000E+00 0.  1.
          6    1    1    2  502    0 -0.62662951338E+02 -0.28548480001E+02  0.60296339198E+03  0.63105904102E+03  0.17300000000E+03 0. -1.
         -6    1    1    2    0  501  0.62662951338E+02  0.28548480001E+02  0.14785293610E+03  0.23776280595E+03  0.17300000000E+03 0.  1.
<mgrwt>
<rscale>  2 0.18620059E+03</rscale>
<asrwt>0</asrwt>
<pdfrwt beam="1">  1        1 0.90773482E-02 0.18620059E+03</pdfrwt>
<pdfrwt beam="2">  1       -1 0.12458754E+00 0.18620059E+03</pdfrwt>
<totfact> 0.44238234E+02</totfact>
</mgrwt>
</event>
<event>
 4    2  0.9414654E-001  0.1861835E+03  0.7546771E-02  0.1161949E+00
          2   -1    0    0  502    0  0.00000000000E+00  0.00000000000E+00  0.94701399282E+03  0.94701399282E+03  0.00000000000E+00 0. -1.
         -2   -1    0    0    0  501 -0.00000000000E+00 -0.00000000000E+00 -0.42200957738E+02  0.42200957738E+02  0.00000000000E+00 0.  1.
          6    1    1    2  502    0  0.61730372398E+02  0.30408209770E+02  0.27227744401E+03  0.32984739595E+03  0.17300000000E+03 0.  1.
         -6    1    1    2    0  501 -0.61730372398E+02 -0.30408209770E+02  0.63253559107E+03  0.65936755461E+03  0.17300000000E+03 0. -1.
<mgrwt>
<rscale>  2 0.18618351E+03</rscale>
<asrwt>0</asrwt>
<pdfrwt beam="1">  1        2 0.14569444E+00 0.18618351E+03</pdfrwt>
<pdfrwt beam="2">  1       -2 0.64924557E-02 0.18618351E+03</pdfrwt>
<totfact> 0.36726918E+03</totfact>
</mgrwt>
</event>
<event>
 4    2  0.9414654E-001  0.3334316E+03  0.7546771E-02  0.1069628E+00
         -2   -1    0    0    0  501 -0.00000000000E+00  0.00000000000E+00  0.11346415707E+03  0.11346415707E+03  0.00000000000E+00 0. -1.
          2   -1    0    0  502    0  0.00000000000E+00 -0.00000000000E+00 -0.10316850890E+04  0.10316850890E+04  0.00000000000E+00 0.  1.
          6    1    1    2  502    0  0.54933395924E+02 -0.27969623378E+03 -0.58746596804E+03  0.67549457791E+03  0.17300000000E+03 0.  1.
         -6    1    1    2    0  501 -0.54933395924E+02  0.27969623378E+03 -0.33075496388E+03  0.46965466815E+03  0.17300000000E+03 0. -1.
<mgrwt>
<rscale>  2 0.33343164E+03</rscale>
<asrwt>0</asrwt>
<pdfrwt beam="1">  1        2 0.15872079E+00 0.33343164E+03</pdfrwt>
<pdfrwt beam="2">  1       -2 0.17456024E-01 0.33343164E+03</pdfrwt>
<totfact> 0.66583302E+02</totfact>
</mgrwt>
</event>
<event>
 4    2  0.9414654E-001  0.4336552E+03  0.7546771E-02  0.1032712E+00
          2   -1    0    0  502    0  0.00000000000E+00  0.00000000000E+00  0.91232060355E+03  0.91232060355E+03  0.00000000000E+00 0.  1.
         -2   -1    0    0    0  501 -0.00000000000E+00 -0.00000000000E+00 -0.56465359161E+03  0.56465359161E+03  0.00000000000E+00 0. -1.
          6    1    1    2  502    0  0.39538277522E+03 -0.42429832389E+02 -0.41461790949E+03  0.59997069969E+03  0.17300000000E+03 0. -1.
         -6    1    1    2    0  501 -0.39538277522E+03  0.42429832389E+02  0.76228492143E+03  0.87700349547E+03  0.17300000000E+03 0.  1.
<mgrwt>
<rscale>  2 0.43365520E+03</rscale>
<asrwt>0</asrwt>
<pdfrwt beam="1">  1        2 0.14035702E+00 0.43365520E+03</pdfrwt>
<pdfrwt beam="2">  1       -2 0.86869783E-01 0.43365520E+03</pdfrwt>
<totfact> 0.34754687E+01</totfact>
</mgrwt>
</event>
<event>
 4    2  0.9414654E-001  0.1880421E+03  0.7546771E-02  0.1160239E+00
          2   -1    0    0  502    0  0.00000000000E+00  0.00000000000E+00  0.48185442002E+03  0.48185442002E+03  0.00000000000E+00 0.  1.
         -2   -1    0    0    0  501 -0.00000000000E+00 -0.00000000000E+00 -0.81420116151E+02  0.81420116151E+02  0.00000000000E+00 0. -1.
          6    1    1    2  502    0  0.64886302168E+02  0.34937201049E+02  0.11173024343E+03  0.21873154213E+03  0.17300000000E+03 0. -1.
         -6    1    1    2    0  501 -0.64886302168E+02 -0.34937201049E+02  0.28870406044E+03  0.34454299404E+03  0.17300000000E+03 0.  1.
<mgrwt>
<rscale>  2 0.18804212E+03</rscale>
<asrwt>0</asrwt>
<pdfrwt beam="1">  1        2 0.74131447E-01 0.18804212E+03</pdfrwt>
<pdfrwt beam="2">  1       -2 0.12526172E-01 0.18804212E+03</pdfrwt>
<totfact> 0.29481638E+03</totfact>
</mgrwt>
</event>
<event>
 4    2  0.9414654E-001  0.2161666E+03  0.7546771E-02  0.1136774E+00
         -1   -1    0    0    0  501 -0.00000000000E+00  0.00000000000E+00  0.25749521507E+03  0.25749521507E+03  0.00000000000E+00 0. -1.
          1   -1    0    0  502    0  0.00000000000E+00 -0.00000000000E+00 -0.18150271041E+03  0.18150271041E+03  0.00000000000E+00 0.  1.
          6    1    1    2  502    0 -0.80655646872E+02  0.10145777701E+03  0.40879777433E+02  0.21999811384E+03  0.17300000000E+03 0. -1.
         -6    1    1    2    0  501  0.80655646872E+02 -0.10145777701E+03  0.35112727223E+02  0.21899981165E+03  0.17300000000E+03 0.  1.
<mgrwt>
<rscale>  2 0.21616663E+03</rscale>
<asrwt>0</asrwt>
<pdfrwt beam="1">  1        1 0.27923494E-01 0.21616663E+03</pdfrwt>
<pdfrwt beam="2">  1       -1 0.39614649E-01 0.21616663E+03</pdfrwt>
<totfact> 0.10403931E+03</totfact>
</mgrwt>
</event>
<event>
 4    2  0.9414654E-001  0.1778164E+03  0.7546771E-02  0.1169933E+00
         -2   -1    0    0    0  501 -0.00000000000E+00  0.00000000000E+00  0.18015200346E+02  0.18015200346E+02  0.00000000000E+00 0.  1.
          2   -1    0    0  502    0  0.00000000000E+00 -0.00000000000E+00 -0.19817164929E+04  0.19817164929E+04  0.00000000000E+00 0. -1.
          6    1    1    2  502    0 -0.34027384776E+02 -0.23060859150E+02 -0.64374164826E+03  0.66784876719E+03  0.17300000000E+03 0.  1.
         -6    1    1    2    0  501  0.34027384776E+02  0.23060859150E+02 -0.13199596443E+04  0.13318829261E+04  0.17300000000E+03 0. -1.
<mgrwt>
<rscale>  2 0.17781638E+03</rscale>
<asrwt>0</asrwt>
<pdfrwt beam="1">  1        2 0.30487923E+00 0.17781638E+03</pdfrwt>
<pdfrwt beam="2">  1       -2 0.27715714E-02 0.17781638E+03</pdfrwt>
<totfact> 0.36194319E+03</totfact>
</mgrwt>
</event>
<event>
 4    2  0.9414654E-001  0.2206282E+03  0.7546771E-02  0.1133416E+00
          2   -1    0    0  502    0  0.00000000000E+00  0.00000000000E+00  0.89009435849E+03  0.89009435849E+03  0.00000000000E+00 0. -1.
         -2   -1    0    0    0  501 -0.00000000000E+00 -0.00000000000E+00 -0.59367779986E+02  0.59367779986E+02  0.00000000000E+00 0.  1.
          6    1    1    2  502    0 -0.84135479042E+02  0.10802323575E+03  0.28206624545E+03  0.35810356759E+03  0.17300000000E+03 0. -1.
         -6    1    1    2    0  501  0.84135479042E+02 -0.10802323575E+03  0.54866033305E+03  0.59135857089E+03  0.17300000000E+03 0. -1.
<mgrwt>
<rscale>  2 0.22062819E+03</rscale>
<asrwt>0</asrwt>
<pdfrwt beam="1">  1        2 0.13693758E+00 0.22062819E+03</pdfrwt>
<pdfrwt beam="2">  1       -2 0.91335053E-02 0.22062819E+03</pdfrwt>
<totfact> 0.23550171E+03</totfact>
</mgrwt>
</event>
<event>
 4    2  0.9414654E-001  0.1927086E+03  0.7546771E-02  0.1156041E+00
          2   -1    0    0  502    0  0.00000000000E+00  0.00000000000E+00  0.77266298138E+03  0.77266298138E+03  0.00000000000E+00 0.  1.
         -2   -1    0    0    0  501 -0.00000000000E+00 -0.00000000000E+00 -0.67890890559E+02  0.67890890559E+02  0.00000000000E+00 0. -1.
          6    1    1    2  502    0  0.84805938483E+02 -0.39431204040E+01  0.57951197684E+03  0.61071329337E+03  0.17300000000E+03 0.  1.
         -6    1    1    2    0  501 -0.84805938483E+02  0.39431204040E+01  0.12526011398E+03  0.22984057856E+03  0.17300000000E+03 0.  1.
<mgrwt>
<rscale>  2 0.19270858E+03</rscale>
<asrwt>0</asrwt>
<pdfrwt beam="1">  1        2 0.11887122E+00 0.19270858E+03</pdfrwt>
<pdfrwt beam="2">  1       -2 0.10444753E-01 0.19270858E+03</pdfrwt>
<totfact> 0.22787246E+03</totfact>
</mgrwt>
</event>
<event>
 4    2  0.9414654E-001  0.1822171E+03  0.7546771E-02  0.1165674E+00
          1   -1    0    0  502    0  0.00000000000E+00  0.00000000000E+00  0.69872551305E+03  0.69872551305E+03  0.00000000000E+00 0. -1.
         -1   -1    0    0    0  501 -0.00000000000E+00 -0.00000000000E+00 -0.51014584491E+02  0.51014584491E+02  0.00000000000E+00 0.  1.
          6    1    1    2  502    0 -0.43584758607E+02  0.37073523658E+02  0.42197675804E+03  0.45963840317E+03  0.17300000000E+03 0.  1.
         -6    1    1    2    0  501  0.43584758607E+02 -0.37073523658E+02  0.22573417052E+03  0.29010169437E+03  0.17300000000E+03 0.  1.
<mgrwt>
<rscale>  2 0.18221712E+03</rscale>
<asrwt>0</asrwt>
<pdfrwt beam="1">  1        1 0.10749623E+00 0.18221712E+03</pdfrwt>
<pdfrwt beam="2">  1       -1 0.78483982E-02 0.18221712E+03</pdfrwt>
<totfact> 0.24809411E+03</totfact>
</mgrwt>
</event>
<event>
 4    2  0.9414654E-001  0.2322759E+03  0.7546771E-02  0.1125048E+00
         -2   -1    0    0    0  501 -0.00000000000E+00  0.00000000000E+00  0.81450616819E+02  0.81450616819E+02  0.00000000000E+00 0. -1.
          2   -1    0    0  502    0  0.00000000000E+00 -0.00000000000E+00 -0.70065478339E+03  0.70065478339E+03  0.00000000000E+00 0.  1.
          6    1    1    2  502    0 -0.38162145171E+02  0.15022224036E+03 -0.40098880524E+03  0.46340489073E+03  0.17300000000E+03 0.  1.
         -6    1    1    2    0  501  0.38162145171E+02 -0.15022224036E+03 -0.21821536133E+03  0.31870050948E+03  0.17300000000E+03 0.  1.
<mgrwt>
<rscale>  2 0.23227585E+03</rscale>
<asrwt>0</asrwt>
<pdfrwt beam="1">  1        2 0.10779304E+00 0.23227585E+03</pdfrwt>
<pdfrwt beam="2">  1       -2 0.12530864E-01 0.23227585E+03</pdfrwt>
<totfact> 0.19239623E+03</totfact>
</mgrwt>
</event>
<event>
 4    2  0.9414654E-001  0.1871147E+03  0.7546771E-02  0.1161090E+00
         -1   -1    0    0    0  501 -0.00000000000E+00  0.00000000000E+00  0.20902797024E+02  0.20902797024E+02  0.00000000000E+00 0. -1.
          1   -1    0    0  502    0  0.00000000000E+00 -0.00000000000E+00 -0.16766447519E+04  0.16766447519E+04  0.00000000000E+00 0.  1.
          6    1    1    2  502    0  0.62120169370E+02 -0.34985822424E+02 -0.80118587169E+03  0.82274584424E+03  0.17300000000E+03 0. -1.
         -6    1    1    2    0  501 -0.62120169370E+02  0.34985822424E+02 -0.85455608317E+03  0.87480170467E+03  0.17300000000E+03 0. -1.
<mgrwt>
<rscale>  2 0.18711473E+03</rscale>
<asrwt>0</asrwt>
<pdfrwt beam="1">  1        1 0.25794536E+00 0.18711473E+03</pdfrwt>
<pdfrwt beam="2">  1       -1 0.32158148E-02 0.18711473E+03</pdfrwt>
<totfact> 0.18661857E+03</totfact>
</mgrwt>
</event>
<event>
 4    2  0.9414654E-001  0.2240167E+03  0.7546771E-02  0.1130923E+00
          2   -1    0    0  502    0  0.00000000000E+00  0.00000000000E+00  0.17544214935E+03  0.17544214935E+03  0.00000000000E+00 0. -1.
         -2   -1    0    0    0  501 -0.00000000000E+00 -0.00000000000E+00 -0.29591638394E+03  0.29591638394E+03  0.00000000000E+00 0.  1.
          6    1    1    2  502    0 -0.65358890659E+02 -0.12642266040E+03 -0.10329331736E+03  0.24668397407E+03  0.17300000000E+03 0.  1.
         -6    1    1    2    0  501  0.65358890659E+02  0.12642266040E+03 -0.17180917232E+02  0.22467455923E+03  0.17300000000E+03 0. -1.
<mgrwt>
<rscale>  2 0.22401668E+03</rscale>
<asrwt>0</asrwt>
<pdfrwt beam="1">  1        2 0.26991100E-01 0.22401668E+03</pdfrwt>
<pdfrwt beam="2">  1       -2 0.45525597E-01 0.22401668E+03</pdfrwt>
<totfact> 0.91150096E+02</totfact>
</mgrwt>
</event>
<event>
 4    2  0.9414654E-001  0.1776836E+03  0.7546771E-02  0.1170064E+00
          1   -1    0    0  502    0  0.00000000000E+00  0.00000000000E+00  0.25524616891E+03  0.25524616891E+03  0.00000000000E+00 0.  1.
         -1   -1    0    0    0  501 -0.00000000000E+00 -0.00000000000E+00 -0.13038650526E+03  0.13038650526E+03  0.00000000000E+00 0. -1.
          6    1    1    2  502    0  0.29141049828E+02 -0.28165063511E+02  0.18733765258E+02  0.17866847945E+03  0.17300000000E+03 0. -1.
         -6    1    1    2    0  501 -0.29141049828E+02  0.28165063511E+02  0.10612589840E+03  0.20696419472E+03  0.17300000000E+03 0.  1.
<mgrwt>
<rscale>  2 0.17768363E+03</rscale>
<asrwt>0</asrwt>
<pdfrwt beam="1">  1        1 0.39268641E-01 0.17768363E+03</pdfrwt>
<pdfrwt beam="2">  1       -1 0.20059462E-01 0.17768363E+03</pdfrwt>
<totfact> 0.21261004E+03</totfact>
</mgrwt>
</event>
<event>
 4    2  0.9414654E-001  0.1836677E+03  0.7546771E-02  0.1164300E+00
         -1   -1    0    0    0  501 -0.00000000000E+00  0.00000000000E+00  0.42834725548E+02  0.42834725548E+02  0.00000000000E+00 0. -1.
          1   -1    0    0  502    0  0.00000000000E+00 -0.00000000000E+00 -0.79052844979E+03  0.79052844979E+03  0.00000000000E+00 0.  1.
          6    1    1    2  502    0 -0.54171271102E+02  0.29500910901E+02 -0.34820454108E+03  0.39367528851E+03  0.17300000000E+03 0.  1.
         -6    1    1    2    0  501  0.54171271102E+02 -0.29500910901E+02 -0.39948918317E+03  0.43968788683E+03  0.17300000000E+03 0. -1.
<mgrwt>
<rscale>  2 0.18366772E+03</rscale>
<asrwt>0</asrwt>
<pdfrwt beam="1">  1        1 0.12161975E+00 0.18366772E+03</pdfrwt>
<pdfrwt beam="2">  1       -1 0.65899584E-02 0.18366772E+03</pdfrwt>
<totfact> 0.26929645E+03</totfact>
</mgrwt>
</event>
<event>
 4    2  0.9414654E-001  0.2186405E+03  0.7546771E-02  0.1134901E+00
          3   -1    0    0  502    0  0.00000000000E+00  0.00000000000E+00  0.62955263752E+03  0.62955263752E+03  0.00000000000E+00 0. -1.
         -3   -1    0    0    0  501 -0.00000000000E+00 -0.00000000000E+00 -0.79233879070E+02  0.79233879070E+02  0.00000000000E+00 0.  1.
          6    1    1    2  502    0  0.65865129798E+02  0.11634617843E+03  0.34749675637E+03  0.41055772340E+03  0.17300000000E+03 0.  1.
         -6    1    1    2    0  501 -0.65865129798E+02 -0.11634617843E+03  0.20282200208E+03  0.29822879319E+03  0.17300000000E+03 0.  1.
<mgrwt>
<rscale>  2 0.21864045E+03</rscale>
<asrwt>0</asrwt>
<pdfrwt beam="1">  1        3 0.96854249E-01 0.21864045E+03</pdfrwt>
<pdfrwt beam="2">  1       -3 0.12189828E-01 0.21864045E+03</pdfrwt>
<totfact> 0.12705848E+02</totfact>
</mgrwt>
</event>
<event>
 4    2  0.9414654E-001  0.1739443E+03  0.7546771E-02  0.1173796E+00
          2   -1    0    0  502    0  0.00000000000E+00  0.00000000000E+00  0.13670984162E+03  0.13670984162E+03  0.00000000000E+00 0. -1.
         -2   -1    0    0    0  501 -0.00000000000E+00 -0.00000000000E+00 -0.23805265922E+03  0.23805265922E+03  0.00000000000E+00 0.  1.
          6    1    1    2  502    0 -0.82178493888E+01  0.16126838405E+02 -0.99234035669E+00  0.17394709743E+03  0.17300000000E+03 0. -1.
         -6    1    1    2    0  501  0.82178493888E+01 -0.16126838405E+02 -0.10035047724E+03  0.20081540341E+03  0.17300000000E+03 0.  1.
<mgrwt>
<rscale>  2 0.17394427E+03</rscale>
<asrwt>0</asrwt>
<pdfrwt beam="1">  1        2 0.21032283E-01 0.17394427E+03</pdfrwt>
<pdfrwt beam="2">  1       -2 0.36623486E-01 0.17394427E+03</pdfrwt>
<totfact> 0.18157147E+03</totfact>
</mgrwt>
</event>
<event>
 4    2  0.9414654E-001  0.1938648E+03  0.7546771E-02  0.1155021E+00
         -2   -1    0    0    0  501 -0.00000000000E+00  0.00000000000E+00  0.16721769878E+02  0.16721769878E+02  0.00000000000E+00 0.  1.
          2   -1    0    0  502    0  0.00000000000E+00 -0.00000000000E+00 -0.27714320656E+04  0.27714320656E+04  0.00000000000E+00 0. -1.
          6    1    1    2  502    0 -0.57884355787E+02 -0.65604663296E+02 -0.19834458002E+04  0.19928975922E+04  0.17300000000E+03 0. -1.
         -6    1    1    2    0  501  0.57884355787E+02  0.65604663296E+02 -0.77126449554E+03  0.79525624334E+03  0.17300000000E+03 0.  1.
<mgrwt>
<rscale>  2 0.19386483E+03</rscale>
<asrwt>0</asrwt>
<pdfrwt beam="1">  1        2 0.42637380E+00 0.19386483E+03</pdfrwt>
<pdfrwt beam="2">  1       -2 0.25725822E-02 0.19386483E+03</pdfrwt>
<totfact> 0.15240051E+03</totfact>
</mgrwt>
</event>
<event>
 4    2  0.9414654E-001  0.1790104E+03  0.7546771E-02  0.1168764E+00
         -2   -1    0    0    0  501 -0.00000000000E+00  0.00000000000E+00  0.28703483320E+02  0.28703483320E+02  0.00000000000E+00 0.  1.
          2   -1    0    0  502    0  0.00000000000E+00 -0.00000000000E+00 -0.12334737731E+04  0.12334737731E+04  0.00000000000E+00 0. -1.
          6    1    1    2  502    0  0.28078674091E+02 -0.36432201356E+02 -0.79680723566E+03  0.81666791785E+03  0.17300000000E+03 0. -1.
         -6    1    1    2    0  501 -0.28078674091E+02  0.36432201356E+02 -0.40796305416E+03  0.44550933861E+03  0.17300000000E+03 0.  1.
<mgrwt>
<rscale>  2 0.17901038E+03</rscale>
<asrwt>0</asrwt>
<pdfrwt beam="1">  1        2 0.18976518E+00 0.17901038E+03</pdfrwt>
<pdfrwt beam="2">  1       -2 0.44159209E-02 0.17901038E+03</pdfrwt>
<totfact> 0.44806313E+03</totfact>
</mgrwt>
</event>
<event>
 4    2  0.9414654E-001  0.3277098E+03  0.7546771E-02  0.1072155E+00
          2   -1    0    0  502    0  0.00000000000E+00  0.00000000000E+00  0.72735906238E+03  0.72735906238E+03  0.00000000000E+00 0. -1.
         -2   -1    0    0    0  501 -0.00000000000E+00 -0.00000000000E+00 -0.36202015860E+03  0.36202015860E+03  0.00000000000E+00 0.  1.
          6    1    1    2  502    0  0.22915819993E+03  0.15795951441E+03  0.60181619900E+03  0.68525646743E+03  0.17300000000E+03 0. -1.
         -6    1    1    2    0  501 -0.22915819993E+03 -0.15795951441E+03 -0.23647729521E+03  0.40412275355E+03  0.17300000000E+03 0.  1.
<mgrwt>
<rscale>  2 0.32770976E+03</rscale>
<asrwt>0</asrwt>
<pdfrwt beam="1">  1        2 0.11190139E+00 0.32770976E+03</pdfrwt>
<pdfrwt beam="2">  1       -2 0.55695409E-01 0.32770976E+03</pdfrwt>
<totfact> 0.12388954E+02</totfact>
</mgrwt>
</event>
<event>
 4    2  0.9414654E-001  0.2297449E+03  0.7546771E-02  0.1126819E+00
          2   -1    0    0  502    0  0.00000000000E+00  0.00000000000E+00  0.19795885650E+04  0.19795885650E+04  0.00000000000E+00 0. -1.
         -2   -1    0    0    0  501 -0.00000000000E+00 -0.00000000000E+00 -0.40136093148E+02  0.40136093148E+02  0.00000000000E+00 0.  1.
          6    1    1    2  502    0 -0.11794732042E+03  0.94563015786E+02  0.15548132079E+04  0.15716955322E+04  0.17300000000E+03 0. -1.
         -6    1    1    2    0  501  0.11794732042E+03 -0.94563015786E+02  0.38463926386E+03  0.44802912590E+03  0.17300000000E+03 0.  1.
<mgrwt>
<rscale>  2 0.22974493E+03</rscale>
<asrwt>0</asrwt>
<pdfrwt beam="1">  1        2 0.30455201E+00 0.22974493E+03</pdfrwt>
<pdfrwt beam="2">  1       -2 0.61747851E-02 0.22974493E+03</pdfrwt>
<totfact> 0.10837671E+03</totfact>
</mgrwt>
</event>
<event>
 4    2  0.9414654E-001  0.3106811E+03  0.7546771E-02  0.1080020E+00
          2   -1    0    0  502    0  0.00000000000E+00  0.00000000000E+00  0.41464245269E+03  0.41464245269E+03  0.00000000000E+00 0.  1.
         -2   -1    0    0    0  501 -0.00000000000E+00 -0.00000000000E+00 -0.25804260997E+03  0.25804260997E+03  0.00000000000E+00 0. -1.
          6    1    1    2  502    0  0.23237743566E+03  0.11222511135E+03  0.18352710669E+03  0.36083922613E+03  0.17300000000E+03 0.  1.
         -6    1    1    2    0  501 -0.23237743566E+03 -0.11222511135E+03 -0.26927263967E+02  0.31184583654E+03  0.17300000000E+03 0. -1.
<mgrwt>
<rscale>  2 0.31068110E+03</rscale>
<asrwt>0</asrwt>
<pdfrwt beam="1">  1        2 0.63791146E-01 0.31068110E+03</pdfrwt>
<pdfrwt beam="2">  1       -2 0.39698863E-01 0.31068110E+03</pdfrwt>
<totfact> 0.46583016E+02</totfact>
</mgrwt>
</event>
<event>
 4    2  0.9414654E-001  0.4650294E+03  0.7546771E-02  0.1023333E+00
         -2   -1    0    0    0  501 -0.00000000000E+00  0.00000000000E+00  0.76511223999E+02  0.76511223999E+02  0.00000000000E+00 0. -1.
          2   -1    0    0  502    0  0.00000000000E+00 -0.00000000000E+00 -0.30322051949E+04  0.30322051949E+04  0.00000000000E+00 0.  1.
          6    1    1    2  502    0 -0.29024833570E+03 -0.31949846647E+03 -0.18827822512E+04  0.19393610731E+04  0.17300000000E+03 0. -1.
         -6    1    1    2    0  501  0.29024833570E+03  0.31949846647E+03 -0.10729117197E+04  0.11693553458E+04  0.17300000000E+03 0.  1.
<mgrwt>
<rscale>  2 0.46502943E+03</rscale>
<asrwt>0</asrwt>
<pdfrwt beam="1">  1        2 0.46649301E+00 0.46502943E+03</pdfrwt>
<pdfrwt beam="2">  1       -2 0.11770960E-01 0.46502943E+03</pdfrwt>
<totfact> 0.96679449E+01</totfact>
</mgrwt>
</event>
<event>
 4    2  0.9414654E-001  0.2728283E+03  0.7546771E-02  0.1099672E+00
          2   -1    0    0  502    0  0.00000000000E+00  0.00000000000E+00  0.72840618037E+02  0.72840618037E+02  0.00000000000E+00 0.  1.
         -2   -1    0    0    0  501 -0.00000000000E+00 -0.00000000000E+00 -0.10589316471E+04  0.10589316471E+04  0.00000000000E+00 0. -1.
          6    1    1    2  502    0 -0.20609685758E+03 -0.45059447572E+02 -0.59887985358E+03  0.65809752131E+03  0.17300000000E+03 0. -1.
         -6    1    1    2    0  501  0.20609685758E+03  0.45059447572E+02 -0.38721117544E+03  0.47367474380E+03  0.17300000000E+03 0.  1.
<mgrwt>
<rscale>  2 0.27282828E+03</rscale>
<asrwt>0</asrwt>
<pdfrwt beam="1">  1        2 0.11206249E-01 0.27282828E+03</pdfrwt>
<pdfrwt beam="2">  1       -2 0.16291256E+00 0.27282828E+03</pdfrwt>
<totfact> 0.14204030E+02</totfact>
</mgrwt>
</event>
<event>
 4    2  0.9414654E-001  0.1757654E+03  0.7546771E-02  0.1171965E+00
          2   -1    0    0  502    0  0.00000000000E+00  0.00000000000E+00  0.81218651293E+03  0.81218651293E+03  0.00000000000E+00 0. -1.
         -2   -1    0    0    0  501 -0.00000000000E+00 -0.00000000000E+00 -0.48936985589E+02  0.48936985589E+02  0.00000000000E+00 0.  1.
          6    1    1    2  502    0  0.15377681619E+02  0.26981759619E+02  0.58482359843E+03  0.61066531728E+03  0.17300000000E+03 0. -1.
         -6    1    1    2    0  501 -0.15377681619E+02 -0.26981759619E+02  0.17842592892E+03  0.25045818125E+03  0.17300000000E+03 0.  1.
<mgrwt>
<rscale>  2 0.17576544E+03</rscale>
<asrwt>0</asrwt>
<pdfrwt beam="1">  1        2 0.12495176E+00 0.17576544E+03</pdfrwt>
<pdfrwt beam="2">  1       -2 0.75287676E-02 0.17576544E+03</pdfrwt>
<totfact> 0.35681513E+03</totfact>
</mgrwt>
</event>
<event>
 4    2  0.9414654E-001  0.2459609E+03  0.7546771E-02  0.1115884E+00
          2   -1    0    0  502    0  0.00000000000E+00  0.00000000000E+00  0.39179450633E+03  0.39179450633E+03  0.00000000000E+00 0.  1.
         -2   -1    0    0    0  501 -0.00000000000E+00 -0.00000000000E+00 -0.17802589421E+03  0.17802589421E+03  0.00000000000E+00 0. -1.
          6    1    1    2  502    0 -0.11945324803E+02 -0.17442789068E+03  0.31138959253E+01  0.24598064188E+03  0.17300000000E+03 0. -1.
         -6    1    1    2    0  501  0.11945324803E+02  0.17442789068E+03  0.21065471619E+03  0.32383975866E+03  0.17300000000E+03 0.  1.
<mgrwt>
<rscale>  2 0.24596093E+03</rscale>
<asrwt>0</asrwt>
<pdfrwt beam="1">  1        2 0.60276078E-01 0.24596093E+03</pdfrwt>
<pdfrwt beam="2">  1       -2 0.27388599E-01 0.24596093E+03</pdfrwt>
<totfact> 0.98646095E+02</totfact>
</mgrwt>
</event>
<event>
 4    2  0.9414654E-001  0.2500294E+03  0.7546771E-02  0.1113286E+00
         -1   -1    0    0    0  501 -0.00000000000E+00  0.00000000000E+00  0.52608686864E+03  0.52608686864E+03  0.00000000000E+00 0. -1.
          1   -1    0    0  502    0  0.00000000000E+00 -0.00000000000E+00 -0.30599932494E+03  0.30599932494E+03  0.00000000000E+00 0.  1.
          6    1    1    2  502    0  0.17099470535E+03 -0.57848954383E+02 -0.21534000082E+03  0.32997879740E+03  0.17300000000E+03 0.  1.
         -6    1    1    2    0  501 -0.17099470535E+03  0.57848954383E+02  0.43542754451E+03  0.50210739618E+03  0.17300000000E+03 0. -1.
<mgrwt>
<rscale>  2 0.25002938E+03</rscale>
<asrwt>0</asrwt>
<pdfrwt beam="1">  1        1 0.47076819E-01 0.25002938E+03</pdfrwt>
<pdfrwt beam="2">  1       -1 0.80936441E-01 0.25002938E+03</pdfrwt>
<totfact> 0.13772001E+02</totfact>
</mgrwt>
</event>
<event>
 4    2  0.9414654E-001  0.1795289E+03  0.7546771E-02  0.1168260E+00
          1   -1    0    0  502    0  0.00000000000E+00  0.00000000000E+00  0.79370118548E+02  0.79370118548E+02  0.00000000000E+00 0.  1.
         -1   -1    0    0    0  501 -0.00000000000E+00 -0.00000000000E+00 -0.40747173672E+03  0.40747173672E+03  0.00000000000E+00 0. -1.
          6    1    1    2  502    0 -0.31035270198E+02  0.36584532833E+02 -0.14982453881E+03  0.23383329205E+03  0.17300000000E+03 0.  1.
         -6    1    1    2    0  501  0.31035270198E+02 -0.36584532833E+02 -0.17827707936E+03  0.25300856322E+03  0.17300000000E+03 0. -1.
<mgrwt>
<rscale>  2 0.17952887E+03</rscale>
<asrwt>0</asrwt>
<pdfrwt beam="1">  1        1 0.12210788E-01 0.17952887E+03</pdfrwt>
<pdfrwt beam="2">  1       -1 0.62687958E-01 0.17952887E+03</pdfrwt>
<totfact> 0.12940558E+03</totfact>
</mgrwt>
</event>
<event>
 4    2  0.9414654E-001  0.1832811E+03  0.7546771E-02  0.1164665E+00
          1   -1    0    0  502    0  0.00000000000E+00  0.00000000000E+00  0.12717119728E+04  0.12717119728E+04  0.00000000000E+00 0. -1.
         -1   -1    0    0    0  501 -0.00000000000E+00 -0.00000000000E+00 -0.26444122261E+02  0.26444122261E+02  0.00000000000E+00 0.  1.
          6    1    1    2  502    0  0.47692342033E+02  0.37261132571E+02  0.60100102914E+03  0.62832649834E+03  0.17300000000E+03 0.  1.
         -6    1    1    2    0  501 -0.47692342033E+02 -0.37261132571E+02  0.64426682140E+03  0.66982959672E+03  0.17300000000E+03 0. -1.
<mgrwt>
<rscale>  2 0.18328107E+03</rscale>
<asrwt>0</asrwt>
<pdfrwt beam="1">  1        1 0.19564795E+00 0.18328107E+03</pdfrwt>
<pdfrwt beam="2">  1       -1 0.40683275E-02 0.18328107E+03</pdfrwt>
<totfact> 0.24391626E+03</totfact>
</mgrwt>
</event>
<event>
 4    2  0.9414654E-001  0.1977113E+03  0.7546771E-02  0.1151684E+00
          1   -1    0    0  502    0  0.00000000000E+00  0.00000000000E+00  0.11714254519E+03  0.11714254519E+03  0.00000000000E+00 0. -1.
         -1   -1    0    0    0  501 -0.00000000000E+00 -0.00000000000E+00 -0.46580251799E+03  0.46580251799E+03  0.00000000000E+00 0.  1.
          6    1    1    2  502    0 -0.11033253648E+02 -0.95073851953E+02 -0.19104850137E+02  0.19863223633E+03  0.17300000000E+03 0. -1.
         -6    1    1    2    0  501  0.11033253648E+02  0.95073851953E+02 -0.32955512266E+03  0.38431282685E+03  0.17300000000E+03 0.  1.
<mgrwt>
<rscale>  2 0.19771133E+03</rscale>
<asrwt>0</asrwt>
<pdfrwt beam="1">  1        1 0.18021930E-01 0.19771133E+03</pdfrwt>
<pdfrwt beam="2">  1       -1 0.71661924E-01 0.19771133E+03</pdfrwt>
<totfact> 0.59885519E+02</totfact>
</mgrwt>
</event>
<event>
 4    2  0.9414654E-001  0.2681758E+03  0.7546771E-02  0.1102328E+00
         -2   -1    0    0    0  501 -0.00000000000E+00  0.00000000000E+00  0.18137471406E+03  0.18137471406E+03  0.00000000000E+00 0. -1.
          2   -1    0    0  502    0  0.00000000000E+00 -0.00000000000E+00 -0.63046658958E+03  0.63046658958E+03  0.00000000000E+00 0.  1.
          6    1    1    2  502    0 -0.20358873971E+03  0.23256687884E+02 -0.47181557238E+03  0.54270450782E+03  0.17300000000E+03 0.  1.
         -6    1    1    2    0  501  0.20358873971E+03 -0.23256687884E+02  0.22723696854E+02  0.26913679583E+03  0.17300000000E+03 0. -1.
<mgrwt>
<rscale>  2 0.26817578E+03</rscale>
<asrwt>0</asrwt>
<pdfrwt beam="1">  1        2 0.96994859E-01 0.26817578E+03</pdfrwt>
<pdfrwt beam="2">  1       -2 0.27903803E-01 0.26817578E+03</pdfrwt>
<totfact> 0.55815232E+02</totfact>
</mgrwt>
</event>
<event>
 4    2  0.9414654E-001  0.2681774E+03  0.7546771E-02  0.1102327E+00
          2   -1    0    0  502    0  0.00000000000E+00  0.00000000000E+00  0.10242425231E+03  0.10242425231E+03  0.00000000000E+00 0.  1.
         -2   -1    0    0    0  501 -0.00000000000E+00 -0.00000000000E+00 -0.19049042506E+04  0.19049042506E+04  0.00000000000E+00 0. -1.
          6    1    1    2  502    0 -0.20421665864E+03  0.16901950119E+02 -0.10372854915E+03  0.28753909559E+03  0.17300000000E+03 0.  1.
         -6    1    1    2    0  501  0.20421665864E+03 -0.16901950119E+02 -0.16987514492E+04  0.17197894074E+04  0.17300000000E+03 0. -1.
<mgrwt>
<rscale>  2 0.26817740E+03</rscale>
<asrwt>0</asrwt>
<pdfrwt beam="1">  1        2 0.15757577E-01 0.26817740E+03</pdfrwt>
<pdfrwt beam="2">  1       -2 0.29306219E+00 0.26817740E+03</pdfrwt>
<totfact> 0.14794132E+01</totfact>
</mgrwt>
</event>
<event>
 4    2  0.9414654E-001  0.2905371E+03  0.7546771E-02  0.1090069E+00
          4   -1    0    0  502    0  0.00000000000E+00  0.00000000000E+00  0.45780698601E+02  0.45780698601E+02  0.00000000000E+00 0. -1.
         -4   -1    0    0    0  501 -0.00000000000E+00 -0.00000000000E+00 -0.18575706865E+04  0.18575706865E+04  0.00000000000E+00 0.  1.
          6    1    1    2  502    0 -0.15612111623E+03 -0.17351953392E+03 -0.98774494407E+03  0.10295882216E+04  0.17300000000E+03 0.  1.
         -6    1    1    2    0  501  0.15612111623E+03  0.17351953392E+03 -0.82404504388E+03  0.87376316352E+03  0.17300000000E+03 0. -1.
<mgrwt>
<rscale>  2 0.29053714E+03</rscale>
<asrwt>0</asrwt>
<pdfrwt beam="1">  1        4 0.70431821E-02 0.29053714E+03</pdfrwt>
<pdfrwt beam="2">  1       -4 0.28578020E+00 0.29053714E+03</pdfrwt>
<totfact> 0.11039680E+01</totfact>
</mgrwt>
</event>
<event>
 4    2  0.9414654E-001  0.2687381E+03  0.7546771E-02  0.1102004E+00
         -1   -1    0    0    0  501 -0.00000000000E+00  0.00000000000E+00  0.32907741454E+03  0.32907741454E+03  0.00000000000E+00 0. -1.
          1   -1    0    0  502    0  0.00000000000E+00 -0.00000000000E+00 -0.26031525892E+03  0.26031525892E+03  0.00000000000E+00 0.  1.
          6    1    1    2  502    0  0.42451374888E+01  0.20560429891E+03  0.15112537394E+03  0.30831644065E+03  0.17300000000E+03 0. -1.
         -6    1    1    2    0  501 -0.42451374888E+01 -0.20560429891E+03 -0.82363218316E+02  0.28107623282E+03  0.17300000000E+03 0.  1.
<mgrwt>
<rscale>  2 0.26873807E+03</rscale>
<asrwt>0</asrwt>
<pdfrwt beam="1">  1        1 0.40048501E-01 0.26873807E+03</pdfrwt>
<pdfrwt beam="2">  1       -1 0.50627295E-01 0.26873807E+03</pdfrwt>
<totfact> 0.42330861E+02</totfact>
</mgrwt>
</event>
<event>
 4    2  0.9414654E-001  0.1962831E+03  0.7546771E-02  0.1152913E+00
         -1   -1    0    0    0  501 -0.00000000000E+00  0.00000000000E+00  0.36259574691E+02  0.36259574691E+02  0.00000000000E+00 0.  1.
          1   -1    0    0  502    0  0.00000000000E+00 -0.00000000000E+00 -0.11627916544E+04  0.11627916544E+04  0.00000000000E+00 0. -1.
          6    1    1    2  502    0  0.72817758855E+02  0.57407588984E+02 -0.73930710440E+03  0.76491963754E+03  0.17300000000E+03 0.  1.
         -6    1    1    2    0  501 -0.72817758855E+02 -0.57407588984E+02 -0.38722497528E+03  0.43413159152E+03  0.17300000000E+03 0.  1.
<mgrwt>
<rscale>  2 0.19628310E+03</rscale>
<asrwt>0</asrwt>
<pdfrwt beam="1">  1        1 0.17889102E+00 0.19628310E+03</pdfrwt>
<pdfrwt beam="2">  1       -1 0.55783962E-02 0.19628310E+03</pdfrwt>
<totfact> 0.18130891E+03</totfact>
</mgrwt>
</event>
<event>
 4    2  0.9414654E-001  0.2193817E+03  0.7546771E-02  0.1134345E+00
         -2   -1    0    0    0  501 -0.00000000000E+00  0.00000000000E+00  0.17894109122E+02  0.17894109122E+02  0.00000000000E+00 0.  1.
          2   -1    0    0  502    0  0.00000000000E+00 -0.00000000000E+00 -0.28214724149E+04  0.28214724149E+04  0.00000000000E+00 0. -1.
          6    1    1    2  502    0  0.30166004374E+02 -0.13148901752E+03 -0.10948883737E+04  0.11166507513E+04  0.17300000000E+03 0.  1.
         -6    1    1    2    0  501 -0.30166004374E+02  0.13148901752E+03 -0.17086899321E+04  0.17227157727E+04  0.17300000000E+03 0. -1.
<mgrwt>
<rscale>  2 0.21938174E+03</rscale>
<asrwt>0</asrwt>
<pdfrwt beam="1">  1        2 0.43407292E+00 0.21938174E+03</pdfrwt>
<pdfrwt beam="2">  1       -2 0.27529384E-02 0.21938174E+03</pdfrwt>
<totfact> 0.12857253E+03</totfact>
</mgrwt>
</event>
<event>
 4    2  0.9414654E-001  0.1836545E+03  0.7546771E-02  0.1164312E+00
          2   -1    0    0  502    0  0.00000000000E+00  0.00000000000E+00  0.17723919379E+04  0.17723919379E+04  0.00000000000E+00 0.  1.
         -2   -1    0    0    0  501 -0.00000000000E+00 -0.00000000000E+00 -0.19345201222E+02  0.19345201222E+02  0.00000000000E+00 0. -1.
          6    1    1    2  502    0 -0.46551673742E+02 -0.40409459802E+02  0.76220657973E+03  0.78402031412E+03  0.17300000000E+03 0. -1.
         -6    1    1    2    0  501  0.46551673742E+02  0.40409459802E+02  0.99084015690E+03  0.10077168250E+04  0.17300000000E+03 0.  1.
<mgrwt>
<rscale>  2 0.18365452E+03</rscale>
<asrwt>0</asrwt>
<pdfrwt beam="1">  1        2 0.27267555E+00 0.18365452E+03</pdfrwt>
<pdfrwt beam="2">  1       -2 0.29761862E-02 0.18365452E+03</pdfrwt>
<totfact> 0.41806129E+03</totfact>
</mgrwt>
</event>
<event>
 4    2  0.9414654E-001  0.1930193E+03  0.7546771E-02  0.1155766E+00
         -3   -1    0    0    0  501 -0.00000000000E+00  0.00000000000E+00  0.18830281903E+02  0.18830281903E+02  0.00000000000E+00 0. -1.
          3   -1    0    0  502    0  0.00000000000E+00 -0.00000000000E+00 -0.20434890176E+04  0.20434890176E+04  0.00000000000E+00 0.  1.
          6    1    1    2  502    0  0.60003289360E+02 -0.61049579832E+02 -0.11961649627E+04  0.12116381737E+04  0.17300000000E+03 0. -1.
         -6    1    1    2    0  501 -0.60003289360E+02  0.61049579832E+02 -0.82849377295E+03  0.85068112577E+03  0.17300000000E+03 0. -1.
<mgrwt>
<rscale>  2 0.19301929E+03</rscale>
<asrwt>0</asrwt>
<pdfrwt beam="1">  1        3 0.31438283E+00 0.19301929E+03</pdfrwt>
<pdfrwt beam="2">  1       -3 0.28969673E-02 0.19301929E+03</pdfrwt>
<totfact> 0.49908873E+01</totfact>
</mgrwt>
</event>
<event>
 4    2  0.9414654E-001  0.1877599E+03  0.7546771E-02  0.1160497E+00
         -2   -1    0    0    0  501 -0.00000000000E+00  0.00000000000E+00  0.24636572713E+02  0.24636572713E+02  0.00000000000E+00 0.  1.
          2   -1    0    0  502    0  0.00000000000E+00 -0.00000000000E+00 -0.15402884109E+04  0.15402884109E+04  0.00000000000E+00 0. -1.
          6    1    1    2  502    0 -0.57902094617E+02  0.44408780881E+02 -0.54935679760E+03  0.58055721806E+03  0.17300000000E+03 0. -1.
         -6    1    1    2    0  501  0.57902094617E+02 -0.44408780881E+02 -0.96629504055E+03  0.98436776551E+03  0.17300000000E+03 0.  1.
<mgrwt>
<rscale>  2 0.18775993E+03</rscale>
<asrwt>0</asrwt>
<pdfrwt beam="1">  1        2 0.23696749E+00 0.18775993E+03</pdfrwt>
<pdfrwt beam="2">  1       -2 0.37902413E-02 0.18775993E+03</pdfrwt>
<totfact> 0.38555227E+03</totfact>
</mgrwt>
</event>
<event>
 4    2  0.9414654E-001  0.1906112E+03  0.7546771E-02  0.1157911E+00
         -2   -1    0    0    0  501 -0.00000000000E+00  0.00000000000E+00  0.22114665058E+02  0.22114665058E+02  0.00000000000E+00 0.  1.
          2   -1    0    0  502    0  0.00000000000E+00 -0.00000000000E+00 -0.17853705023E+04  0.17853705023E+04  0.00000000000E+00 0. -1.
          6    1    1    2  502    0 -0.30260768515E+02  0.74080426410E+02 -0.62635033086E+03  0.65471166223E+03  0.17300000000E+03 0. -1.
         -6    1    1    2    0  501  0.30260768515E+02 -0.74080426410E+02 -0.11369055064E+04  0.11527735051E+04  0.17300000000E+03 0. -1.
<mgrwt>
<rscale>  2 0.19061118E+03</rscale>
<asrwt>0</asrwt>
<pdfrwt beam="1">  1        2 0.27467241E+00 0.19061118E+03</pdfrwt>
<pdfrwt beam="2">  1       -2 0.34022559E-02 0.19061118E+03</pdfrwt>
<totfact> 0.33755850E+03</totfact>
</mgrwt>
</event>
<event>
 4    2  0.9414654E-001  0.2150848E+03  0.7546771E-02  0.1137601E+00
         -1   -1    0    0    0  501 -0.00000000000E+00  0.00000000000E+00  0.61355998492E+02  0.61355998492E+02  0.00000000000E+00 0.  1.
          1   -1    0    0  502    0  0.00000000000E+00 -0.00000000000E+00 -0.78028812795E+03  0.78028812795E+03  0.00000000000E+00 0. -1.
          6    1    1    2  502    0 -0.29484659267E+02  0.12435080748E+03 -0.43673043772E+03  0.48682126462E+03  0.17300000000E+03 0.  1.
         -6    1    1    2    0  501  0.29484659267E+02 -0.12435080748E+03 -0.28220169174E+03  0.35482286182E+03  0.17300000000E+03 0. -1.
<mgrwt>
<rscale>  2 0.21508479E+03</rscale>
<asrwt>0</asrwt>
<pdfrwt beam="1">  1        1 0.12004433E+00 0.21508479E+03</pdfrwt>
<pdfrwt beam="2">  1       -1 0.94393844E-02 0.21508479E+03</pdfrwt>
<totfact> 0.15935740E+03</totfact>
</mgrwt>
</event>
<event>
 4    2  0.9414654E-001  0.1986634E+03  0.7546771E-02  0.1150872E+00
         -2   -1    0    0    0  501 -0.00000000000E+00  0.00000000000E+00  0.43181989730E+02  0.43181989730E+02  0.00000000000E+00 0.  1.
          2   -1    0    0  502    0  0.00000000000E+00 -0.00000000000E+00 -0.10284047622E+04  0.10284047622E+04  0.00000000000E+00 0. -1.
          6    1    1    2  502    0  0.94534894246E+02 -0.24521089878E+02 -0.67133851011E+03  0.70011607983E+03  0.17300000000E+03 0. -1.
         -6    1    1    2    0  501 -0.94534894246E+02  0.24521089878E+02 -0.31388426240E+03  0.37147067214E+03  0.17300000000E+03 0.  1.
<mgrwt>
<rscale>  2 0.19866336E+03</rscale>
<asrwt>0</asrwt>
<pdfrwt beam="1">  1        2 0.15821609E+00 0.19866336E+03</pdfrwt>
<pdfrwt beam="2">  1       -2 0.66433840E-02 0.19866336E+03</pdfrwt>
<totfact> 0.31666525E+03</totfact>
</mgrwt>
</event>
<event>
 4    2  0.9414654E-001  0.2068668E+03  0.7546771E-02  0.1144071E+00
          2   -1    0    0  502    0  0.00000000000E+00  0.00000000000E+00  0.12042216550E+04  0.12042216550E+04  0.00000000000E+00 0. -1.
         -2   -1    0    0    0  501 -0.00000000000E+00 -0.00000000000E+00 -0.37646195544E+02  0.37646195544E+02  0.00000000000E+00 0.  1.
          6    1    1    2  502    0  0.69775400634E+02  0.89421947090E+02  0.43629735554E+03  0.48285533403E+03  0.17300000000E+03 0. -1.
         -6    1    1    2    0  501 -0.69775400634E+02 -0.89421947090E+02  0.73027810389E+03  0.75901251648E+03  0.17300000000E+03 0.  1.
<mgrwt>
<rscale>  2 0.20686684E+03</rscale>
<asrwt>0</asrwt>
<pdfrwt beam="1">  1        2 0.18526484E+00 0.20686684E+03</pdfrwt>
<pdfrwt beam="2">  1       -2 0.57917233E-02 0.20686684E+03</pdfrwt>
<totfact> 0.30928897E+03</totfact>
</mgrwt>
</event>
<event>
 4    2  0.9414654E-001  0.3050313E+03  0.7546771E-02  0.1082752E+00
         -2   -1    0    0    0  501 -0.00000000000E+00  0.00000000000E+00  0.42733599270E+02  0.42733599270E+02  0.00000000000E+00 0.  1.
          2   -1    0    0  502    0  0.00000000000E+00 -0.00000000000E+00 -0.34268463057E+04  0.34268463057E+04  0.00000000000E+00 0. -1.
          6    1    1    2  502    0  0.28808169860E+02 -0.24957000843E+03 -0.64450623465E+03  0.71304444901E+03  0.17300000000E+03 0.  1.
         -6    1    1    2    0  501 -0.28808169860E+02  0.24957000843E+03 -0.27396064718E+04  0.27565354559E+04  0.17300000000E+03 0. -1.
<mgrwt>
<rscale>  2 0.30503131E+03</rscale>
<asrwt>0</asrwt>
<pdfrwt beam="1">  1        2 0.52720729E+00 0.30503131E+03</pdfrwt>
<pdfrwt beam="2">  1       -2 0.65743979E-02 0.30503131E+03</pdfrwt>
<totfact> 0.14399037E+02</totfact>
</mgrwt>
</event>
<event>
 4    2  0.9414654E-001  0.1762710E+03  0.7546771E-02  0.1171462E+00
         -2   -1    0    0    0  501 -0.00000000000E+00  0.00000000000E+00  0.14621719020E+02  0.14621719020E+02  0.00000000000E+00 0. -1.
          2   -1    0    0  502    0  0.00000000000E+00 -0.00000000000E+00 -0.23773038456E+04  0.23773038456E+04  0.00000000000E+00 0.  1.
          6    1    1    2  502    0  0.15065029443E+02  0.30257155166E+02 -0.15709417677E+04  0.15808002682E+04  0.17300000000E+03 0.  1.
         -6    1    1    2    0  501 -0.15065029443E+02 -0.30257155166E+02 -0.79174035883E+03  0.81112529633E+03  0.17300000000E+03 0. -1.
<mgrwt>
<rscale>  2 0.17627096E+03</rscale>
<asrwt>0</asrwt>
<pdfrwt beam="1">  1        2 0.36573912E+00 0.17627096E+03</pdfrwt>
<pdfrwt beam="2">  1       -2 0.22494948E-02 0.17627096E+03</pdfrwt>
<totfact> 0.30544358E+03</totfact>
</mgrwt>
</event>
<event>
 4    2  0.9414654E-001  0.2437398E+03  0.7546771E-02  0.1117326E+00
          2   -1    0    0  502    0  0.00000000000E+00  0.00000000000E+00  0.38041548511E+04  0.38041548511E+04  0.00000000000E+00 0.  1.
         -2   -1    0    0    0  501 -0.00000000000E+00 -0.00000000000E+00 -0.15965426950E+02  0.15965426950E+02  0.00000000000E+00 0. -1.
          6    1    1    2  502    0 -0.91341678662E+02  0.14538494546E+03  0.16118807870E+04  0.16302051270E+04  0.17300000000E+03 0. -1.
         -6    1    1    2    0  501  0.91341678662E+02 -0.14538494546E+03  0.21763086371E+04  0.21899151510E+04  0.17300000000E+03 0.  1.
<mgrwt>
<rscale>  2 0.24373979E+03</rscale>
<asrwt>0</asrwt>
<pdfrwt beam="1">  1        2 0.58525387E+00 0.24373979E+03</pdfrwt>
<pdfrwt beam="2">  1       -2 0.24562226E-02 0.24373979E+03</pdfrwt>
<totfact> 0.35996072E+02</totfact>
</mgrwt>
</event>
<event>
 4    2  0.9414654E-001  0.1791167E+03  0.7546771E-02  0.1168661E+00
         -1   -1    0    0    0  501 -0.00000000000E+00  0.00000000000E+00  0.55126338057E+02  0.55126338057E+02  0.00000000000E+00 0.  1.
          1   -1    0    0  502    0  0.00000000000E+00 -0.00000000000E+00 -0.58882994561E+03  0.58882994561E+03  0.00000000000E+00 0. -1.
          6    1    1    2  502    0  0.38173067815E+02 -0.26393509754E+02 -0.30156220965E+03  0.35074572948E+03  0.17300000000E+03 0. -1.
         -6    1    1    2    0  501 -0.38173067815E+02  0.26393509754E+02 -0.23214139790E+03  0.29321055418E+03  0.17300000000E+03 0.  1.
<mgrwt>
<rscale>  2 0.17911672E+03</rscale>
<asrwt>0</asrwt>
<pdfrwt beam="1">  1        1 0.90589220E-01 0.17911672E+03</pdfrwt>
<pdfrwt beam="2">  1       -1 0.84809753E-02 0.17911672E+03</pdfrwt>
<totfact> 0.28025931E+03</totfact>
</mgrwt>
</event>
<event>
 4    2  0.9414654E-001  0.2079174E+03  0.7546771E-02  0.1143226E+00
         -1   -1    0    0    0  501 -0.00000000000E+00  0.00000000000E+00  0.11500623031E+03  0.11500623031E+03  0.00000000000E+00 0.  1.
          1   -1    0    0  502    0  0.00000000000E+00 -0.00000000000E+00 -0.40094052305E+03  0.40094052305E+03  0.00000000000E+00 0. -1.
          6    1    1    2  502    0  0.71884280998E+02  0.90184733053E+02 -0.78483805417E+02  0.22223713381E+03  0.17300000000E+03 0.  1.
         -6    1    1    2    0  501 -0.71884280998E+02 -0.90184733053E+02 -0.20745048732E+03  0.29370961955E+03  0.17300000000E+03 0. -1.
<mgrwt>
<rscale>  2 0.20791738E+03</rscale>
<asrwt>0</asrwt>
<pdfrwt beam="1">  1        1 0.61683158E-01 0.20791738E+03</pdfrwt>
<pdfrwt beam="2">  1       -1 0.17693266E-01 0.20791738E+03</pdfrwt>
<totfact> 0.14808245E+03</totfact>
</mgrwt>
</event>
<event>
 4    2  0.9414654E-001  0.1830970E+03  0.7546771E-02  0.1164839E+00
          3   -1    0    0  502    0  0.00000000000E+00  0.00000000000E+00  0.39496774294E+03  0.39496774294E+03  0.00000000000E+00 0. -1.
         -3   -1    0    0    0  501 -0.00000000000E+00 -0.00000000000E+00 -0.94777082992E+02  0.94777082992E+02  0.00000000000E+00 0.  1.
          6    1    1    2  502    0 -0.26554938392E+02 -0.53761828657E+02  0.70961540331E+02  0.19636710310E+03  0.17300000000E+03 0.  1.
         -6    1    1    2    0  501  0.26554938392E+02  0.53761828657E+02  0.22922911961E+03  0.29337772283E+03  0.17300000000E+03 0. -1.
<mgrwt>
<rscale>  2 0.18309697E+03</rscale>
<asrwt>0</asrwt>
<pdfrwt beam="1">  1        3 0.60764267E-01 0.18309697E+03</pdfrwt>
<pdfrwt beam="2">  1       -3 0.14581090E-01 0.18309697E+03</pdfrwt>
<totfact> 0.25289338E+02</totfact>
</mgrwt>
</event>
<event>
 4    2  0.9414654E-001  0.3384391E+03  0.7546771E-02  0.1067463E+00
         -2   -1    0    0    0  501 -0.00000000000E+00  0.00000000000E+00  0.76798483964E+02  0.76798483964E+02  0.00000000000E+00 0.  1.
          2   -1    0    0  502    0  0.00000000000E+00 -0.00000000000E+00 -0.15769673020E+04  0.15769673020E+04  0.00000000000E+00 0. -1.
          6    1    1    2  502    0 -0.45403396724E+02  0.28731608439E+03 -0.55752581659E+03  0.65220858392E+03  0.17300000000E+03 0. -1.
         -6    1    1    2    0  501  0.45403396724E+02 -0.28731608439E+03 -0.94264300148E+03  0.10015572021E+04  0.17300000000E+03 0.  1.
<mgrwt>
<rscale>  2 0.33843907E+03</rscale>
<asrwt>0</asrwt>
<pdfrwt beam="1">  1        2 0.24261035E+00 0.33843907E+03</pdfrwt>
<pdfrwt beam="2">  1       -2 0.11815151E-01 0.33843907E+03</pdfrwt>
<totfact> 0.62637207E+02</totfact>
</mgrwt>
</event>
<event>
 4    2  0.9414654E-001  0.2211842E+03  0.7546771E-02  0.1133003E+00
          2   -1    0    0  502    0  0.00000000000E+00  0.00000000000E+00  0.19224876380E+03  0.19224876380E+03  0.00000000000E+00 0. -1.
         -2   -1    0    0    0  501 -0.00000000000E+00 -0.00000000000E+00 -0.25462921163E+03  0.25462921163E+03  0.00000000000E+00 0.  1.
          6    1    1    2  502    0 -0.13768299172E+03 -0.60688095447E+01 -0.36695223648E+02  0.22420743988E+03  0.17300000000E+03 0.  1.
         -6    1    1    2    0  501  0.13768299172E+03  0.60688095447E+01 -0.25685224184E+02  0.22267053555E+03  0.17300000000E+03 0. -1.
<mgrwt>
<rscale>  2 0.22118417E+03</rscale>
<asrwt>0</asrwt>
<pdfrwt beam="1">  1        2 0.29576733E-01 0.22118417E+03</pdfrwt>
<pdfrwt beam="2">  1       -2 0.39173725E-01 0.22118417E+03</pdfrwt>
<totfact> 0.11009116E+03</totfact>
</mgrwt>
</event>
<event>
 4    2  0.9414654E-001  0.2679609E+03  0.7546771E-02  0.1102452E+00
          2   -1    0    0  502    0  0.00000000000E+00  0.00000000000E+00  0.19196523343E+04  0.19196523343E+04  0.00000000000E+00 0. -1.
         -2   -1    0    0    0  501 -0.00000000000E+00 -0.00000000000E+00 -0.37605547848E+02  0.37605547848E+02  0.00000000000E+00 0.  1.
          6    1    1    2  502    0  0.15907082674E+03 -0.12872648827E+03  0.86941258223E+03  0.90976990214E+03  0.17300000000E+03 0. -1.
         -6    1    1    2    0  501 -0.15907082674E+03  0.12872648827E+03  0.10126342043E+04  0.10474879800E+04  0.17300000000E+03 0.  1.
<mgrwt>
<rscale>  2 0.26796089E+03</rscale>
<asrwt>0</asrwt>
<pdfrwt beam="1">  1        2 0.29533105E+00 0.26796089E+03</pdfrwt>
<pdfrwt beam="2">  1       -2 0.57854704E-02 0.26796089E+03</pdfrwt>
<totfact> 0.12823700E+03</totfact>
</mgrwt>
</event>
<event>
 4    2  0.9414654E-001  0.1842061E+03  0.7546771E-02  0.1163793E+00
          1   -1    0    0  502    0  0.00000000000E+00  0.00000000000E+00  0.70326022174E+03  0.70326022174E+03  0.00000000000E+00 0.  1.
         -1   -1    0    0    0  501 -0.00000000000E+00 -0.00000000000E+00 -0.48774387079E+02  0.48774387079E+02  0.00000000000E+00 0. -1.
          6    1    1    2  502    0 -0.21413745567E+02  0.59534208024E+02  0.36625454423E+03  0.40996861050E+03  0.17300000000E+03 0.  1.
         -6    1    1    2    0  501  0.21413745567E+02 -0.59534208024E+02  0.28823129043E+03  0.34206599832E+03  0.17300000000E+03 0. -1.
<mgrwt>
<rscale>  2 0.18420605E+03</rscale>
<asrwt>0</asrwt>
<pdfrwt beam="1">  1        1 0.10819387E+00 0.18420605E+03</pdfrwt>
<pdfrwt beam="2">  1       -1 0.75037524E-02 0.18420605E+03</pdfrwt>
<totfact> 0.26318063E+03</totfact>
</mgrwt>
</event>
<event>
 4    2  0.9414654E-001  0.1892571E+03  0.7546771E-02  0.1159133E+00
         -1   -1    0    0    0  501 -0.00000000000E+00  0.00000000000E+00  0.19760345508E+03  0.19760345508E+03  0.00000000000E+00 0.  1.
          1   -1    0    0  502    0  0.00000000000E+00 -0.00000000000E+00 -0.25619254736E+03  0.25619254736E+03  0.00000000000E+00 0. -1.
          6    1    1    2  502    0 -0.59334277611E+01 -0.76511618945E+02  0.93413606156E+02  0.21105528947E+03  0.17300000000E+03 0.  1.
         -6    1    1    2    0  501  0.59334277611E+01  0.76511618945E+02 -0.15200269844E+03  0.24274071297E+03  0.17300000000E+03 0. -1.
<mgrwt>
<rscale>  2 0.18925706E+03</rscale>
<asrwt>0</asrwt>
<pdfrwt beam="1">  1        1 0.39414238E-01 0.18925706E+03</pdfrwt>
<pdfrwt beam="2">  1       -1 0.30400532E-01 0.18925706E+03</pdfrwt>
<totfact> 0.10655223E+03</totfact>
</mgrwt>
</event>
<event>
 4    2  0.9414654E-001  0.2193470E+03  0.7546771E-02  0.1134371E+00
          2   -1    0    0  502    0  0.00000000000E+00  0.00000000000E+00  0.24694907530E+03  0.24694907530E+03  0.00000000000E+00 0. -1.
         -2   -1    0    0    0  501 -0.00000000000E+00 -0.00000000000E+00 -0.21755853358E+03  0.21755853358E+03  0.00000000000E+00 0.  1.
          6    1    1    2  502    0 -0.13101488944E+03  0.31925034368E+02 -0.60373565052E+02  0.22750401410E+03  0.17300000000E+03 0.  1.
         -6    1    1    2    0  501  0.13101488944E+03 -0.31925034368E+02  0.89764106765E+02  0.23700359478E+03  0.17300000000E+03 0. -1.
<mgrwt>
<rscale>  2 0.21934701E+03</rscale>
<asrwt>0</asrwt>
<pdfrwt beam="1">  1        2 0.37992166E-01 0.21934701E+03</pdfrwt>
<pdfrwt beam="2">  1       -2 0.33470543E-01 0.21934701E+03</pdfrwt>
<totfact> 0.11254375E+03</totfact>
</mgrwt>
</event>
<event>
 4    2  0.9414654E-001  0.2020635E+03  0.7546771E-02  0.1148010E+00
         -3   -1    0    0    0  501 -0.00000000000E+00  0.00000000000E+00  0.16615939750E+04  0.16615939750E+04  0.00000000000E+00 0. -1.
          3   -1    0    0  502    0  0.00000000000E+00 -0.00000000000E+00 -0.28457058873E+02  0.28457058873E+02  0.00000000000E+00 0.  1.
          6    1    1    2  502    0  0.23453438035E+02 -0.10173783001E+03  0.11287744507E+04  0.11467176682E+04  0.17300000000E+03 0. -1.
         -6    1    1    2    0  501 -0.23453438035E+02  0.10173783001E+03  0.50436246535E+03  0.54333336568E+03  0.17300000000E+03 0.  1.
<mgrwt>
<rscale>  2 0.20206348E+03</rscale>
<asrwt>0</asrwt>
<pdfrwt beam="1">  1        3 0.43780104E-02 0.20206348E+03</pdfrwt>
<pdfrwt beam="2">  1       -3 0.25562977E+00 0.20206348E+03</pdfrwt>
<totfact> 0.52977416E+01</totfact>
</mgrwt>
</event>
<event>
 4    2  0.9414654E-001  0.1746550E+03  0.7546771E-02  0.1173079E+00
          3   -1    0    0  502    0  0.00000000000E+00  0.00000000000E+00  0.75319592704E+02  0.75319592704E+02  0.00000000000E+00 0.  1.
         -3   -1    0    0    0  501 -0.00000000000E+00 -0.00000000000E+00 -0.65318810247E+03  0.65318810247E+03  0.00000000000E+00 0. -1.
          6    1    1    2  502    0 -0.23937305414E+02 -0.15398852287E+01 -0.64403261230E+02  0.18615086864E+03  0.17300000000E+03 0.  1.
         -6    1    1    2    0  501  0.23937305414E+02  0.15398852287E+01 -0.51346524853E+03  0.54235682654E+03  0.17300000000E+03 0. -1.
<mgrwt>
<rscale>  2 0.17465499E+03</rscale>
<asrwt>0</asrwt>
<pdfrwt beam="1">  1        3 0.11587630E-01 0.17465499E+03</pdfrwt>
<pdfrwt beam="2">  1       -3 0.10049048E+00 0.17465499E+03</pdfrwt>
<totfact> 0.12431471E+02</totfact>
</mgrwt>
</event>
<event>
 4    2  0.9414654E-001  0.1733333E+03  0.7546771E-02  0.1174416E+00
         -2   -1    0    0    0  501 -0.00000000000E+00  0.00000000000E+00  0.11434402326E+03  0.11434402326E+03  0.00000000000E+00 0. -1.
          2   -1    0    0  502    0  0.00000000000E+00 -0.00000000000E+00 -0.45723433657E+03  0.45723433657E+03  0.00000000000E+00 0.  1.
          6    1    1    2  502    0 -0.66859919354E+01 -0.84101322393E+01  0.14940890872E+02  0.17397604155E+03  0.17300000000E+03 0. -1.
         -6    1    1    2    0  501  0.66859919354E+01  0.84101322393E+01 -0.35783120418E+03  0.39760231828E+03  0.17300000000E+03 0. -1.
<mgrwt>
<rscale>  2 0.17333330E+03</rscale>
<asrwt>0</asrwt>
<pdfrwt beam="1">  1        2 0.70343744E-01 0.17333330E+03</pdfrwt>
<pdfrwt beam="2">  1       -2 0.17591388E-01 0.17333330E+03</pdfrwt>
<totfact> 0.17831590E+03</totfact>
</mgrwt>
</event>
<event>
 4    2  0.9414654E-001  0.1770654E+03  0.7546771E-02  0.1170674E+00
          1   -1    0    0  502    0  0.00000000000E+00  0.00000000000E+00  0.10274490200E+04  0.10274490200E+04  0.00000000000E+00 0.  1.
         -1   -1    0    0    0  501 -0.00000000000E+00 -0.00000000000E+00 -0.33168924446E+02  0.33168924446E+02  0.00000000000E+00 0. -1.
          6    1    1    2  502    0  0.36431588777E+02 -0.97927894171E+01  0.64715798463E+03  0.67094382511E+03  0.17300000000E+03 0.  1.
         -6    1    1    2    0  501 -0.36431588777E+02  0.97927894171E+01  0.34712211091E+03  0.38967411932E+03  0.17300000000E+03 0.  1.
<mgrwt>
<rscale>  2 0.17706541E+03</rscale>
<asrwt>0</asrwt>
<pdfrwt beam="1">  1        1 0.15806906E+00 0.17706541E+03</pdfrwt>
<pdfrwt beam="2">  1       -1 0.51029122E-02 0.17706541E+03</pdfrwt>
<totfact> 0.25851162E+03</totfact>
</mgrwt>
</event>
<event>
 4    2  0.9414654E-001  0.2053549E+03  0.7546771E-02  0.1145298E+00
         -2   -1    0    0    0  501 -0.00000000000E+00  0.00000000000E+00  0.37839598387E+02  0.37839598387E+02  0.00000000000E+00 0.  1.
          2   -1    0    0  502    0  0.00000000000E+00 -0.00000000000E+00 -0.13716661609E+04  0.13716661609E+04  0.00000000000E+00 0. -1.
          6    1    1    2  502    0  0.33797181041E+02 -0.10535358445E+03 -0.36173376915E+03  0.41595906884E+03  0.17300000000E+03 0.  1.
         -6    1    1    2    0  501 -0.33797181041E+02  0.10535358445E+03 -0.97209279335E+03  0.99354669044E+03  0.17300000000E+03 0. -1.
<mgrwt>
<rscale>  2 0.20535488E+03</rscale>
<asrwt>0</asrwt>
<pdfrwt beam="1">  1        2 0.21102555E+00 0.20535488E+03</pdfrwt>
<pdfrwt beam="2">  1       -2 0.58214771E-02 0.20535488E+03</pdfrwt>
<totfact> 0.24812002E+03</totfact>
</mgrwt>
</event>
<event>
 4    2  0.9414654E-001  0.3071458E+03  0.7546771E-02  0.1081722E+00
         -2   -1    0    0    0  501 -0.00000000000E+00  0.00000000000E+00  0.12656944653E+03  0.12656944653E+03  0.00000000000E+00 0.  1.
          2   -1    0    0  502    0  0.00000000000E+00 -0.00000000000E+00 -0.81404835656E+03  0.81404835656E+03  0.00000000000E+00 0. -1.
          6    1    1    2  502    0 -0.13073954952E+03 -0.21752406337E+03 -0.48036471345E+03  0.57016559513E+03  0.17300000000E+03 0. -1.
         -6    1    1    2    0  501  0.13073954952E+03  0.21752406337E+03 -0.20711419659E+03  0.37045220796E+03  0.17300000000E+03 0.  1.
<mgrwt>
<rscale>  2 0.30714581E+03</rscale>
<asrwt>0</asrwt>
<pdfrwt beam="1">  1        2 0.12523821E+00 0.30714581E+03</pdfrwt>
<pdfrwt beam="2">  1       -2 0.19472222E-01 0.30714581E+03</pdfrwt>
<totfact> 0.76498794E+02</totfact>
</mgrwt>
</event>
<event>
 4    2  0.9414654E-001  0.2199965E+03  0.7546771E-02  0.1133886E+00
         -2   -1    0    0    0  501 -0.00000000000E+00  0.00000000000E+00  0.23952174426E+02  0.23952174426E+02  0.00000000000E+00 0. -1.
          2   -1    0    0  502    0  0.00000000000E+00 -0.00000000000E+00 -0.20618236695E+04  0.20618236695E+04  0.00000000000E+00 0.  1.
          6    1    1    2  502    0  0.13181637375E+03  0.33074391710E+02 -0.11663465850E+04  0.11869131511E+04  0.17300000000E+03 0. -1.
         -6    1    1    2    0  501 -0.13181637375E+03 -0.33074391710E+02 -0.87152490999E+03  0.89886269280E+03  0.17300000000E+03 0. -1.
<mgrwt>
<rscale>  2 0.21999653E+03</rscale>
<asrwt>0</asrwt>
<pdfrwt beam="1">  1        2 0.31720369E+00 0.21999653E+03</pdfrwt>
<pdfrwt beam="2">  1       -2 0.36849493E-02 0.21999653E+03</pdfrwt>
<totfact> 0.21498676E+03</totfact>
</mgrwt>
</event>
<event>
 4    2  0.9414654E-001  0.2508814E+03  0.7546771E-02  0.1112749E+00
          2   -1    0    0  502    0  0.00000000000E+00  0.00000000000E+00  0.19845885356E+04  0.19845885356E+04  0.00000000000E+00 0.  1.
         -2   -1    0    0    0  501 -0.00000000000E+00 -0.00000000000E+00 -0.36414711504E+02  0.36414711504E+02  0.00000000000E+00 0. -1.
          6    1    1    2  502    0  0.51253381505E+02 -0.17431449800E+03  0.13371055073E+04  0.13604383819E+04  0.17300000000E+03 0.  1.
         -6    1    1    2    0  501 -0.51253381505E+02  0.17431449800E+03  0.61106831675E+03  0.66056486514E+03  0.17300000000E+03 0. -1.
<mgrwt>
<rscale>  2 0.25088135E+03</rscale>
<asrwt>0</asrwt>
<pdfrwt beam="1">  1        2 0.30532123E+00 0.25088135E+03</pdfrwt>
<pdfrwt beam="2">  1       -2 0.56022649E-02 0.25088135E+03</pdfrwt>
<totfact> 0.12477403E+03</totfact>
</mgrwt>
</event>
<event>
 4    2  0.9414654E-001  0.1825016E+03  0.7546771E-02  0.1165404E+00
         -1   -1    0    0    0  501 -0.00000000000E+00  0.00000000000E+00  0.85036031300E+02  0.85036031300E+02  0.00000000000E+00 0. -1.
          1   -1    0    0  502    0  0.00000000000E+00 -0.00000000000E+00 -0.43942343203E+03  0.43942343203E+03  0.00000000000E+00 0.  1.
          6    1    1    2  502    0  0.67383884998E+01  0.57727150223E+02 -0.26363107762E+03  0.32063713890E+03  0.17300000000E+03 0. -1.
         -6    1    1    2    0  501 -0.67383884998E+01 -0.57727150223E+02 -0.90756323105E+02  0.20382232443E+03  0.17300000000E+03 0. -1.
<mgrwt>
<rscale>  2 0.18250159E+03</rscale>
<asrwt>0</asrwt>
<pdfrwt beam="1">  1        1 0.67603606E-01 0.18250159E+03</pdfrwt>
<pdfrwt beam="2">  1       -1 0.13082466E-01 0.18250159E+03</pdfrwt>
<totfact> 0.21172164E+03</totfact>
</mgrwt>
</event>
<event>
 4    2  0.9414654E-001  0.1869888E+03  0.7546771E-02  0.1161206E+00
          2   -1    0    0  502    0  0.00000000000E+00  0.00000000000E+00  0.83451137691E+03  0.83451137691E+03  0.00000000000E+00 0.  1.
         -2   -1    0    0    0  501 -0.00000000000E+00 -0.00000000000E+00 -0.41898642550E+02  0.41898642550E+02  0.00000000000E+00 0. -1.
          6    1    1    2  502    0 -0.42620159734E+02  0.56739035840E+02  0.39557393474E+03  0.43754260827E+03  0.17300000000E+03 0.  1.
         -6    1    1    2    0  501  0.42620159734E+02 -0.56739035840E+02  0.39703879962E+03  0.43886741119E+03  0.17300000000E+03 0.  1.
<mgrwt>
<rscale>  2 0.18698876E+03</rscale>
<asrwt>0</asrwt>
<pdfrwt beam="1">  1        2 0.12838635E+00 0.18698876E+03</pdfrwt>
<pdfrwt beam="2">  1       -2 0.64459457E-02 0.18698876E+03</pdfrwt>
<totfact> 0.43874591E+03</totfact>
</mgrwt>
</event>
<event>
 4    2  0.9414654E-001  0.2483462E+03  0.7546771E-02  0.1114354E+00
         -2   -1    0    0    0  501 -0.00000000000E+00  0.00000000000E+00  0.99349731027E+02  0.99349731027E+02  0.00000000000E+00 0.  1.
          2   -1    0    0  502    0  0.00000000000E+00 -0.00000000000E+00 -0.62435910450E+03  0.62435910450E+03  0.00000000000E+00 0. -1.
          6    1    1    2  502    0 -0.58130250810E+02 -0.16842715654E+03 -0.28984361838E+03  0.38168724924E+03  0.17300000000E+03 0.  1.
         -6    1    1    2    0  501  0.58130250810E+02  0.16842715654E+03 -0.23516575510E+03  0.34202158629E+03  0.17300000000E+03 0.  1.
<mgrwt>
<rscale>  2 0.24834620E+03</rscale>
<asrwt>0</asrwt>
<pdfrwt beam="1">  1        2 0.96055247E-01 0.24834620E+03</pdfrwt>
<pdfrwt beam="2">  1       -2 0.15284574E-01 0.24834620E+03</pdfrwt>
<totfact> 0.15949726E+03</totfact>
</mgrwt>
</event>
<event>
 4    2  0.9414654E-001  0.1970683E+03  0.7546771E-02  0.1152236E+00
          2   -1    0    0  502    0  0.00000000000E+00  0.00000000000E+00  0.79604926258E+03  0.79604926258E+03  0.00000000000E+00 0. -1.
         -2   -1    0    0    0  501 -0.00000000000E+00 -0.00000000000E+00 -0.70429282659E+02  0.70429282659E+02  0.00000000000E+00 0.  1.
          6    1    1    2  502    0  0.51452927856E+02  0.79117044659E+02  0.12264227484E+03  0.23211427814E+03  0.17300000000E+03 0.  1.
         -6    1    1    2    0  501 -0.51452927856E+02 -0.79117044659E+02  0.60297770508E+03  0.63436426709E+03  0.17300000000E+03 0. -1.
<mgrwt>
<rscale>  2 0.19706829E+03</rscale>
<asrwt>0</asrwt>
<pdfrwt beam="1">  1        2 0.12246911E+00 0.19706829E+03</pdfrwt>
<pdfrwt beam="2">  1       -2 0.10835275E-01 0.19706829E+03</pdfrwt>
<totfact> 0.20712336E+03</totfact>
</mgrwt>
</event>
<event>
 4    2  0.9414654E-001  0.2260547E+03  0.7546771E-02  0.1129448E+00
         -2   -1    0    0    0  501 -0.00000000000E+00  0.00000000000E+00  0.52058650046E+02  0.52058650046E+02  0.00000000000E+00 0.  1.
          2   -1    0    0  502    0  0.00000000000E+00 -0.00000000000E+00 -0.10277326198E+04  0.10277326198E+04  0.00000000000E+00 0. -1.
          6    1    1    2  502    0  0.14390742933E+03 -0.21503265026E+02 -0.60222399850E+03  0.64325304740E+03  0.17300000000E+03 0. -1.
         -6    1    1    2    0  501 -0.14390742933E+03  0.21503265026E+02 -0.37344997125E+03  0.43653822244E+03  0.17300000000E+03 0.  1.
<mgrwt>
<rscale>  2 0.22605472E+03</rscale>
<asrwt>0</asrwt>
<pdfrwt beam="1">  1        2 0.15811270E+00 0.22605472E+03</pdfrwt>
<pdfrwt beam="2">  1       -2 0.80090239E-02 0.22605472E+03</pdfrwt>
<totfact> 0.23762456E+03</totfact>
</mgrwt>
</event>
<event>
 4    2  0.9414654E-001  0.2103838E+03  0.7546771E-02  0.1141262E+00
          3   -1    0    0  502    0  0.00000000000E+00  0.00000000000E+00  0.20789692072E+03  0.20789692072E+03  0.00000000000E+00 0. -1.
         -3   -1    0    0    0  501 -0.00000000000E+00 -0.00000000000E+00 -0.25286658344E+03  0.25286658344E+03  0.00000000000E+00 0.  1.
          6    1    1    2  502    0  0.43104086533E+01  0.11964012572E+03 -0.11407495601E+03  0.23932077823E+03  0.17300000000E+03 0.  1.
         -6    1    1    2    0  501 -0.43104086533E+01 -0.11964012572E+03  0.69105293286E+02  0.22144272593E+03  0.17300000000E+03 0. -1.
<mgrwt>
<rscale>  2 0.21038379E+03</rscale>
<asrwt>0</asrwt>
<pdfrwt beam="1">  1        3 0.31984142E-01 0.21038379E+03</pdfrwt>
<pdfrwt beam="2">  1       -3 0.38902551E-01 0.21038379E+03</pdfrwt>
<totfact> 0.15318121E+02</totfact>
</mgrwt>
</event>
<event>
 4    2  0.9414654E-001  0.2679710E+03  0.7546771E-02  0.1102446E+00
          2   -1    0    0  502    0  0.00000000000E+00  0.00000000000E+00  0.30584624489E+03  0.30584624489E+03  0.00000000000E+00 0.  1.
         -2   -1    0    0    0  501 -0.00000000000E+00 -0.00000000000E+00 -0.23820890574E+03  0.23820890574E+03  0.00000000000E+00 0. -1.
          6    1    1    2  502    0  0.11251488223E+03 -0.17093817541E+03  0.66426557839E+02  0.27608141213E+03  0.17300000000E+03 0.  1.
         -6    1    1    2    0  501 -0.11251488223E+03  0.17093817541E+03  0.12107813151E+01  0.26797373850E+03  0.17300000000E+03 0. -1.
<mgrwt>
<rscale>  2 0.26797100E+03</rscale>
<asrwt>0</asrwt>
<pdfrwt beam="1">  1        2 0.47053269E-01 0.26797100E+03</pdfrwt>
<pdfrwt beam="2">  1       -2 0.36647524E-01 0.26797100E+03</pdfrwt>
<totfact> 0.75586841E+02</totfact>
</mgrwt>
</event>
<event>
 4    2  0.9414654E-001  0.1836723E+03  0.7546771E-02  0.1164296E+00
          2   -1    0    0  502    0  0.00000000000E+00  0.00000000000E+00  0.11424875315E+04  0.11424875315E+04  0.00000000000E+00 0.  1.
         -2   -1    0    0    0  501 -0.00000000000E+00 -0.00000000000E+00 -0.35152627788E+02  0.35152627788E+02  0.00000000000E+00 0. -1.
          6    1    1    2  502    0 -0.49516732826E+02  0.36805153148E+02  0.78919699722E+03  0.81028848353E+03  0.17300000000E+03 0.  1.
         -6    1    1    2    0  501  0.49516732826E+02 -0.36805153148E+02  0.31813790646E+03  0.36735167572E+03  0.17300000000E+03 0. -1.
<mgrwt>
<rscale>  2 0.18367233E+03</rscale>
<asrwt>0</asrwt>
<pdfrwt beam="1">  1        2 0.17576728E+00 0.18367233E+03</pdfrwt>
<pdfrwt beam="2">  1       -2 0.54080975E-02 0.18367233E+03</pdfrwt>
<totfact> 0.37138461E+03</totfact>
</mgrwt>
</event>
<event>
 4    2  0.9414654E-001  0.1835328E+03  0.7546771E-02  0.1164427E+00
         -2   -1    0    0    0  501 -0.00000000000E+00  0.00000000000E+00  0.16443530007E+02  0.16443530007E+02  0.00000000000E+00 0.  1.
          2   -1    0    0  502    0  0.00000000000E+00 -0.00000000000E+00 -0.22449905808E+04  0.22449905808E+04  0.00000000000E+00 0. -1.
          6    1    1    2  502    0  0.19384003781E+01  0.61249713254E+02 -0.77974219302E+03  0.80105066778E+03  0.17300000000E+03 0.  1.
         -6    1    1    2    0  501 -0.19384003781E+01 -0.61249713254E+02 -0.14488048578E+04  0.14603834431E+04  0.17300000000E+03 0. -1.
<mgrwt>
<rscale>  2 0.18353279E+03</rscale>
<asrwt>0</asrwt>
<pdfrwt beam="1">  1        2 0.34538312E+00 0.18353279E+03</pdfrwt>
<pdfrwt beam="2">  1       -2 0.25297742E-02 0.18353279E+03</pdfrwt>
<totfact> 0.30186887E+03</totfact>
</mgrwt>
</event>
<event>
 4    2  0.9414654E-001  0.1950463E+03  0.7546771E-02  0.1153987E+00
         -1   -1    0    0    0  501 -0.00000000000E+00  0.00000000000E+00  0.32224187251E+03  0.32224187251E+03  0.00000000000E+00 0. -1.
          1   -1    0    0  502    0  0.00000000000E+00 -0.00000000000E+00 -0.17505150664E+03  0.17505150664E+03  0.00000000000E+00 0.  1.
          6    1    1    2  502    0 -0.24250431558E+02  0.86752412849E+02  0.21547297196E+03  0.29064009739E+03  0.17300000000E+03 0. -1.
         -6    1    1    2    0  501  0.24250431558E+02 -0.86752412849E+02 -0.68282606088E+02  0.20665328176E+03  0.17300000000E+03 0.  1.
<mgrwt>
<rscale>  2 0.19504631E+03</rscale>
<asrwt>0</asrwt>
<pdfrwt beam="1">  1        1 0.26931001E-01 0.19504631E+03</pdfrwt>
<pdfrwt beam="2">  1       -1 0.49575673E-01 0.19504631E+03</pdfrwt>
<totfact> 0.72604657E+02</totfact>
</mgrwt>
</event>
<event>
 4    2  0.9414654E-001  0.2090655E+03  0.7546771E-02  0.1142308E+00
          1   -1    0    0  502    0  0.00000000000E+00  0.00000000000E+00  0.23719192917E+03  0.23719192917E+03  0.00000000000E+00 0. -1.
         -1   -1    0    0    0  501 -0.00000000000E+00 -0.00000000000E+00 -0.18468569761E+03  0.18468569761E+03  0.00000000000E+00 0.  1.
          6    1    1    2  502    0  0.44051372065E+02  0.10880646591E+03  0.36209113369E+02  0.21217792132E+03  0.17300000000E+03 0. -1.
         -6    1    1    2    0  501 -0.44051372065E+02 -0.10880646591E+03  0.16297118190E+02  0.20969970545E+03  0.17300000000E+03 0.  1.
<mgrwt>
<rscale>  2 0.20906547E+03</rscale>
<asrwt>0</asrwt>
<pdfrwt beam="1">  1        1 0.36491066E-01 0.20906547E+03</pdfrwt>
<pdfrwt beam="2">  1       -1 0.28413184E-01 0.20906547E+03</pdfrwt>
<totfact> 0.13176181E+03</totfact>
</mgrwt>
</event>
<event>
 4    2  0.9414654E-001  0.1783512E+03  0.7546771E-02  0.1169408E+00
         -1   -1    0    0    0  501 -0.00000000000E+00  0.00000000000E+00  0.16032530448E+04  0.16032530448E+04  0.00000000000E+00 0. -1.
          1   -1    0    0  502    0  0.00000000000E+00 -0.00000000000E+00 -0.32320377405E+02  0.32320377405E+02  0.00000000000E+00 0.  1.
          6    1    1    2  502    0 -0.43360366922E+02 -0.14311509816E+00  0.12936365048E+04  0.13058730981E+04  0.17300000000E+03 0. -1.
         -6    1    1    2    0  501  0.43360366922E+02  0.14311509816E+00  0.27729616264E+03  0.32970032411E+03  0.17300000000E+03 0.  1.
<mgrwt>
<rscale>  2 0.17835118E+03</rscale>
<asrwt>0</asrwt>
<pdfrwt beam="1">  1        1 0.49723670E-02 0.17835118E+03</pdfrwt>
<pdfrwt beam="2">  1       -1 0.24665425E+00 0.17835118E+03</pdfrwt>
<totfact> 0.14118989E+02</totfact>
</mgrwt>
</event>
<event>
 4    2  0.9414654E-001  0.1834931E+03  0.7546771E-02  0.1164465E+00
          2   -1    0    0  502    0  0.00000000000E+00  0.00000000000E+00  0.47622129866E+03  0.47622129866E+03  0.00000000000E+00 0.  1.
         -2   -1    0    0    0  501 -0.00000000000E+00 -0.00000000000E+00 -0.71879126847E+02  0.71879126847E+02  0.00000000000E+00 0. -1.
          6    1    1    2  502    0 -0.18116868497E+02 -0.58416598491E+02  0.16709826244E+03  0.24817644774E+03  0.17300000000E+03 0. -1.
         -6    1    1    2    0  501  0.18116868497E+02  0.58416598491E+02  0.23724390937E+03  0.29992397777E+03  0.17300000000E+03 0.  1.
<mgrwt>
<rscale>  2 0.18349311E+03</rscale>
<asrwt>0</asrwt>
<pdfrwt beam="1">  1        2 0.73264813E-01 0.18349311E+03</pdfrwt>
<pdfrwt beam="2">  1       -2 0.11058328E-01 0.18349311E+03</pdfrwt>
<totfact> 0.36450726E+03</totfact>
</mgrwt>
</event>
<event>
 4    2  0.9414654E-001  0.2643612E+03  0.7546771E-02  0.1104551E+00
          1   -1    0    0  502    0  0.00000000000E+00  0.00000000000E+00  0.24879456807E+03  0.24879456807E+03  0.00000000000E+00 0.  1.
         -1   -1    0    0    0  501 -0.00000000000E+00 -0.00000000000E+00 -0.30506221973E+03  0.30506221973E+03  0.00000000000E+00 0. -1.
          6    1    1    2  502    0 -0.19531624941E+03  0.42537063133E+02  0.49799932212E+02  0.26901091478E+03  0.17300000000E+03 0.  1.
         -6    1    1    2    0  501  0.19531624941E+03 -0.42537063133E+02 -0.10606758387E+03  0.28484587301E+03  0.17300000000E+03 0. -1.
<mgrwt>
<rscale>  2 0.26436119E+03</rscale>
<asrwt>0</asrwt>
<pdfrwt beam="1">  1        1 0.38276087E-01 0.26436119E+03</pdfrwt>
<pdfrwt beam="2">  1       -1 0.46932649E-01 0.26436119E+03</pdfrwt>
<totfact> 0.51551529E+02</totfact>
</mgrwt>
</event>
<event>
 4    2  0.9414654E-001  0.1815298E+03  0.7546771E-02  0.1166331E+00
          2   -1    0    0  502    0  0.00000000000E+00  0.00000000000E+00  0.33566859844E+04  0.33566859844E+04  0.00000000000E+00 0.  1.
         -2   -1    0    0    0  501 -0.00000000000E+00 -0.00000000000E+00 -0.10599660404E+02  0.10599660404E+02  0.00000000000E+00 0. -1.
          6    1    1    2  502    0 -0.39987065869E+02 -0.37750487295E+02  0.21305010510E+04  0.21382207073E+04  0.17300000000E+03 0.  1.
         -6    1    1    2    0  501  0.39987065869E+02  0.37750487295E+02  0.12155852731E+04  0.12290649376E+04  0.17300000000E+03 0.  1.
<mgrwt>
<rscale>  2 0.18152979E+03</rscale>
<asrwt>0</asrwt>
<pdfrwt beam="1">  1        2 0.51641238E+00 0.18152979E+03</pdfrwt>
<pdfrwt beam="2">  1       -2 0.16307197E-02 0.18152979E+03</pdfrwt>
<totfact> 0.13380090E+03</totfact>
</mgrwt>
</event>
<event>
 4    2  0.9414654E-001  0.1944638E+03  0.7546771E-02  0.1154496E+00
         -2   -1    0    0    0  501 -0.00000000000E+00  0.00000000000E+00  0.47118215972E+02  0.47118215972E+02  0.00000000000E+00 0. -1.
          2   -1    0    0  502    0  0.00000000000E+00 -0.00000000000E+00 -0.87799662664E+03  0.87799662664E+03  0.00000000000E+00 0.  1.
          6    1    1    2  502    0  0.88800104277E+02 -0.13093275334E+01 -0.27987325058E+03  0.34080083517E+03  0.17300000000E+03 0.  1.
         -6    1    1    2    0  501 -0.88800104277E+02  0.13093275334E+01 -0.55100516008E+03  0.58431400744E+03  0.17300000000E+03 0. -1.
<mgrwt>
<rscale>  2 0.19446381E+03</rscale>
<asrwt>0</asrwt>
<pdfrwt beam="1">  1        2 0.13507639E+00 0.19446381E+03</pdfrwt>
<pdfrwt beam="2">  1       -2 0.72489569E-02 0.19446381E+03</pdfrwt>
<totfact> 0.34319027E+03</totfact>
</mgrwt>
</event>
<event>
 4    2  0.9414654E-001  0.2164685E+03  0.7546771E-02  0.1136544E+00
          3   -1    0    0  502    0  0.00000000000E+00  0.00000000000E+00  0.13511822185E+04  0.13511822185E+04  0.00000000000E+00 0. -1.
         -3   -1    0    0    0  501 -0.00000000000E+00 -0.00000000000E+00 -0.38383917054E+02  0.38383917054E+02  0.00000000000E+00 0.  1.
          6    1    1    2  502    0 -0.12961048134E+03 -0.11433719968E+02  0.44056396961E+03  0.49087189586E+03  0.17300000000E+03 0.  1.
         -6    1    1    2    0  501  0.12961048134E+03  0.11433719968E+02  0.87223433183E+03  0.89869423969E+03  0.17300000000E+03 0. -1.
<mgrwt>
<rscale>  2 0.21646849E+03</rscale>
<asrwt>0</asrwt>
<pdfrwt beam="1">  1        3 0.20787415E+00 0.21646849E+03</pdfrwt>
<pdfrwt beam="2">  1       -3 0.59052190E-02 0.21646849E+03</pdfrwt>
<totfact> 0.62015304E+01</totfact>
</mgrwt>
</event>
<event>
 4    2  0.9414654E-001  0.1776615E+03  0.7546771E-02  0.1170086E+00
         -2   -1    0    0    0  501 -0.00000000000E+00  0.00000000000E+00  0.30864100292E+02  0.30864100292E+02  0.00000000000E+00 0.  1.
          2   -1    0    0  502    0  0.00000000000E+00 -0.00000000000E+00 -0.11203646474E+04  0.11203646474E+04  0.00000000000E+00 0. -1.
          6    1    1    2  502    0  0.31578898514E+02 -0.25246171755E+02 -0.37476893444E+03  0.41474733301E+03  0.17300000000E+03 0. -1.
         -6    1    1    2    0  501 -0.31578898514E+02  0.25246171755E+02 -0.71473161266E+03  0.73648141467E+03  0.17300000000E+03 0.  1.
<mgrwt>
<rscale>  2 0.17766146E+03</rscale>
<asrwt>0</asrwt>
<pdfrwt beam="1">  1        2 0.17236377E+00 0.17766146E+03</pdfrwt>
<pdfrwt beam="2">  1       -2 0.47483236E-02 0.17766146E+03</pdfrwt>
<totfact> 0.46520373E+03</totfact>
</mgrwt>
</event>
<event>
 4    2  0.9414654E-001  0.2137543E+03  0.7546771E-02  0.1138627E+00
          2   -1    0    0  502    0  0.00000000000E+00  0.00000000000E+00  0.60215396787E+03  0.60215396787E+03  0.00000000000E+00 0. -1.
         -2   -1    0    0    0  501 -0.00000000000E+00 -0.00000000000E+00 -0.79666519003E+02  0.79666519003E+02  0.00000000000E+00 0.  1.
          6    1    1    2  502    0  0.86506662368E+02 -0.90986318929E+02  0.33557518917E+03  0.39787136169E+03  0.17300000000E+03 0. -1.
         -6    1    1    2    0  501 -0.86506662368E+02  0.90986318929E+02  0.18691225969E+03  0.28394912518E+03  0.17300000000E+03 0.  1.
<mgrwt>
<rscale>  2 0.21375433E+03</rscale>
<asrwt>0</asrwt>
<pdfrwt beam="1">  1        2 0.92639069E-01 0.21375433E+03</pdfrwt>
<pdfrwt beam="2">  1       -2 0.12256388E-01 0.21375433E+03</pdfrwt>
<totfact> 0.23825513E+03</totfact>
</mgrwt>
</event>
<event>
 4    2  0.9414654E-001  0.2423845E+03  0.7546771E-02  0.1118214E+00
         -2   -1    0    0    0  501 -0.00000000000E+00  0.00000000000E+00  0.20521462965E+03  0.20521462965E+03  0.00000000000E+00 0. -1.
          2   -1    0    0  502    0  0.00000000000E+00 -0.00000000000E+00 -0.30684406549E+03  0.30684406549E+03  0.00000000000E+00 0.  1.
          6    1    1    2  502    0 -0.15815346464E+03 -0.61714733327E+02 -0.11708429886E+03  0.26918201969E+03  0.17300000000E+03 0.  1.
         -6    1    1    2    0  501  0.15815346464E+03  0.61714733327E+02  0.15454863021E+02  0.24287667545E+03  0.17300000000E+03 0. -1.
<mgrwt>
<rscale>  2 0.24238446E+03</rscale>
<asrwt>0</asrwt>
<pdfrwt beam="1">  1        2 0.47206779E-01 0.24238446E+03</pdfrwt>
<pdfrwt beam="2">  1       -2 0.31571482E-01 0.24238446E+03</pdfrwt>
<totfact> 0.99306922E+02</totfact>
</mgrwt>
</event>
<event>
 4    2  0.9414654E-001  0.1835595E+03  0.7546771E-02  0.1164402E+00
          1   -1    0    0  502    0  0.00000000000E+00  0.00000000000E+00  0.17841525882E+03  0.17841525882E+03  0.00000000000E+00 0.  1.
         -1   -1    0    0    0  501 -0.00000000000E+00 -0.00000000000E+00 -0.19288041772E+03  0.19288041772E+03  0.00000000000E+00 0. -1.
          6    1    1    2  502    0  0.12010042035E+02  0.60173601203E+02  0.19596485930E+02  0.18460261551E+03  0.17300000000E+03 0. -1.
         -6    1    1    2    0  501 -0.12010042035E+02 -0.60173601203E+02 -0.34061644828E+02  0.18669306104E+03  0.17300000000E+03 0.  1.
<mgrwt>
<rscale>  2 0.18355954E+03</rscale>
<asrwt>0</asrwt>
<pdfrwt beam="1">  1        1 0.27448501E-01 0.18355954E+03</pdfrwt>
<pdfrwt beam="2">  1       -1 0.29673911E-01 0.18355954E+03</pdfrwt>
<totfact> 0.17453903E+03</totfact>
</mgrwt>
</event>
<event>
 4    2  0.9414654E-001  0.1875071E+03  0.7546771E-02  0.1160729E+00
          1   -1    0    0  502    0  0.00000000000E+00  0.00000000000E+00  0.15426785525E+03  0.15426785525E+03  0.00000000000E+00 0. -1.
         -1   -1    0    0    0  501 -0.00000000000E+00 -0.00000000000E+00 -0.24080647215E+03  0.24080647215E+03  0.00000000000E+00 0.  1.
          6    1    1    2  502    0  0.42407233003E+02 -0.58579360874E+02  0.24479184799E+01  0.18752308454E+03  0.17300000000E+03 0. -1.
         -6    1    1    2    0  501 -0.42407233003E+02  0.58579360874E+02 -0.88986535378E+02  0.20755124285E+03  0.17300000000E+03 0.  1.
<mgrwt>
<rscale>  2 0.18750711E+03</rscale>
<asrwt>0</asrwt>
<pdfrwt beam="1">  1        1 0.23733516E-01 0.18750711E+03</pdfrwt>
<pdfrwt beam="2">  1       -1 0.37047149E-01 0.18750711E+03</pdfrwt>
<totfact> 0.14342836E+03</totfact>
</mgrwt>
</event>
<event>
 4    2  0.9414654E-001  0.2146896E+03  0.7546771E-02  0.1137905E+00
         -1   -1    0    0    0  501 -0.00000000000E+00  0.00000000000E+00  0.15844189668E+03  0.15844189668E+03  0.00000000000E+00 0. -1.
          1   -1    0    0  502    0  0.00000000000E+00 -0.00000000000E+00 -0.38159734012E+03  0.38159734012E+03  0.00000000000E+00 0.  1.
          6    1    1    2  502    0  0.51420550910E+02 -0.11626925558E+03 -0.24321438104E+03  0.32441462358E+03  0.17300000000E+03 0.  1.
         -6    1    1    2    0  501 -0.51420550910E+02  0.11626925558E+03  0.20058937595E+02  0.21562461322E+03  0.17300000000E+03 0. -1.
<mgrwt>
<rscale>  2 0.21468957E+03</rscale>
<asrwt>0</asrwt>
<pdfrwt beam="1">  1        1 0.58707282E-01 0.21468957E+03</pdfrwt>
<pdfrwt beam="2">  1       -1 0.24375677E-01 0.21468957E+03</pdfrwt>
<totfact> 0.93613345E+02</totfact>
</mgrwt>
</event>
<event>
 4    2  0.9414654E-001  0.2180809E+03  0.7546771E-02  0.1135322E+00
          1   -1    0    0  502    0  0.00000000000E+00  0.00000000000E+00  0.25356384892E+04  0.25356384892E+04  0.00000000000E+00 0.  1.
         -1   -1    0    0    0  501 -0.00000000000E+00 -0.00000000000E+00 -0.20728649049E+02  0.20728649049E+02  0.00000000000E+00 0. -1.
          6    1    1    2  502    0  0.11344971574E+03  0.68988789806E+02  0.16517265216E+04  0.16660611613E+04  0.17300000000E+03 0.  1.
         -6    1    1    2    0  501 -0.11344971574E+03 -0.68988789806E+02  0.86318331855E+03  0.89030597692E+03  0.17300000000E+03 0.  1.
<mgrwt>
<rscale>  2 0.21808093E+03</rscale>
<asrwt>0</asrwt>
<pdfrwt beam="1">  1        1 0.39009798E+00 0.21808093E+03</pdfrwt>
<pdfrwt beam="2">  1       -1 0.31890249E-02 0.21808093E+03</pdfrwt>
<totfact> 0.52199081E+02</totfact>
</mgrwt>
</event>
<event>
 4    2  0.9414654E-001  0.2333226E+03  0.7546771E-02  0.1124323E+00
         -2   -1    0    0    0  501 -0.00000000000E+00  0.00000000000E+00  0.76810555328E+02  0.76810555328E+02  0.00000000000E+00 0. -1.
          2   -1    0    0  502    0  0.00000000000E+00 -0.00000000000E+00 -0.88152897963E+03  0.88152897963E+03  0.00000000000E+00 0.  1.
          6    1    1    2  502    0  0.11988801628E+03 -0.10068421467E+03 -0.19022187475E+03  0.30103788660E+03  0.17300000000E+03 0. -1.
         -6    1    1    2    0  501 -0.11988801628E+03  0.10068421467E+03 -0.61449654955E+03  0.65730164836E+03  0.17300000000E+03 0. -1.
<mgrwt>
<rscale>  2 0.23332263E+03</rscale>
<asrwt>0</asrwt>
<pdfrwt beam="1">  1        2 0.13561985E+00 0.23332263E+03</pdfrwt>
<pdfrwt beam="2">  1       -2 0.11817008E-01 0.23332263E+03</pdfrwt>
<totfact> 0.15824041E+03</totfact>
</mgrwt>
</event>
<event>
 4    2  0.9414654E-001  0.2007772E+03  0.7546771E-02  0.1149085E+00
         -2   -1    0    0    0  501 -0.00000000000E+00  0.00000000000E+00  0.15884108369E+03  0.15884108369E+03  0.00000000000E+00 0.  1.
          2   -1    0    0  502    0  0.00000000000E+00 -0.00000000000E+00 -0.12405991080E+04  0.12405991080E+04  0.00000000000E+00 0. -1.
          6    1    1    2  502    0  0.74690390549E+02  0.69309740975E+02  0.83180885309E+02  0.21732591727E+03  0.17300000000E+03 0.  1.
         -6    1    1    2    0  501 -0.74690390549E+02 -0.69309740975E+02 -0.11649389096E+04  0.11821142744E+04  0.17300000000E+03 0. -1.
<mgrwt>
<rscale>  2 0.20077723E+03</rscale>
<asrwt>0</asrwt>
<pdfrwt beam="1">  1        2 0.19086140E+00 0.20077723E+03</pdfrwt>
<pdfrwt beam="2">  1       -2 0.24437090E-01 0.20077723E+03</pdfrwt>
<totfact> 0.28616470E+02</totfact>
</mgrwt>
</event>
<event>
 4    2  0.9414654E-001  0.1768682E+03  0.7546771E-02  0.1170869E+00
          1   -1    0    0  502    0  0.00000000000E+00  0.00000000000E+00  0.23337531808E+03  0.23337531808E+03  0.00000000000E+00 0.  1.
         -1   -1    0    0    0  501 -0.00000000000E+00 -0.00000000000E+00 -0.13673279932E+03  0.13673279932E+03  0.00000000000E+00 0. -1.
          6    1    1    2  502    0  0.30415151068E+00  0.36786835251E+02  0.74275585092E+02  0.19183124432E+03  0.17300000000E+03 0.  1.
         -6    1    1    2    0  501 -0.30415151068E+00 -0.36786835251E+02  0.22366933665E+02  0.17827687309E+03  0.17300000000E+03 0. -1.
<mgrwt>
<rscale>  2 0.17686821E+03</rscale>
<asrwt>0</asrwt>
<pdfrwt beam="1">  1        1 0.35903895E-01 0.17686821E+03</pdfrwt>
<pdfrwt beam="2">  1       -1 0.21035815E-01 0.17686821E+03</pdfrwt>
<totfact> 0.22008661E+03</totfact>
</mgrwt>
</event>
<event>
 4    2  0.9414654E-001  0.2141443E+03  0.7546771E-02  0.1138326E+00
          2   -1    0    0  502    0  0.00000000000E+00  0.00000000000E+00  0.13675789936E+03  0.13675789936E+03  0.00000000000E+00 0.  1.
         -2   -1    0    0    0  501 -0.00000000000E+00 -0.00000000000E+00 -0.36109672889E+03  0.36109672889E+03  0.00000000000E+00 0. -1.
          6    1    1    2  502    0  0.20467043029E+02  0.12453863985E+03 -0.45662367813E+02  0.21895849949E+03  0.17300000000E+03 0.  1.
         -6    1    1    2    0  501 -0.20467043029E+02 -0.12453863985E+03 -0.17867646171E+03  0.27889612876E+03  0.17300000000E+03 0. -1.
<mgrwt>
<rscale>  2 0.21414428E+03</rscale>
<asrwt>0</asrwt>
<pdfrwt beam="1">  1        2 0.21039677E-01 0.21414428E+03</pdfrwt>
<pdfrwt beam="2">  1       -2 0.55553343E-01 0.21414428E+03</pdfrwt>
<totfact> 0.80960158E+02</totfact>
</mgrwt>
</event>
<event>
 4    2  0.9414654E-001  0.1812894E+03  0.7546771E-02  0.1166561E+00
         -2   -1    0    0    0  501 -0.00000000000E+00  0.00000000000E+00  0.49181656534E+02  0.49181656534E+02  0.00000000000E+00 0.  1.
          2   -1    0    0  502    0  0.00000000000E+00 -0.00000000000E+00 -0.80054015504E+03  0.80054015504E+03  0.00000000000E+00 0. -1.
          6    1    1    2  502    0 -0.15399866770E+02 -0.51958476488E+02 -0.54838722395E+03  0.57757630367E+03  0.17300000000E+03 0. -1.
         -6    1    1    2    0  501  0.15399866770E+02  0.51958476488E+02 -0.20297127456E+03  0.27214550790E+03  0.17300000000E+03 0.  1.
<mgrwt>
<rscale>  2 0.18128938E+03</rscale>
<asrwt>0</asrwt>
<pdfrwt beam="1">  1        2 0.12316002E+00 0.18128938E+03</pdfrwt>
<pdfrwt beam="2">  1       -2 0.75664089E-02 0.18128938E+03</pdfrwt>
<totfact> 0.36091457E+03</totfact>
</mgrwt>
</event>
<event>
 4    2  0.9414654E-001  0.1829808E+03  0.7546771E-02  0.1164949E+00
          2   -1    0    0  502    0  0.00000000000E+00  0.00000000000E+00  0.26880200443E+04  0.26880200443E+04  0.00000000000E+00 0. -1.
         -2   -1    0    0    0  501 -0.00000000000E+00 -0.00000000000E+00 -0.12984422984E+02  0.12984422984E+02  0.00000000000E+00 0.  1.
          6    1    1    2  502    0 -0.59128890102E+02  0.75325894286E+01  0.16099614559E+04  0.16203264656E+04  0.17300000000E+03 0. -1.
         -6    1    1    2    0  501  0.59128890102E+02 -0.75325894286E+01  0.10650741654E+04  0.10806780017E+04  0.17300000000E+03 0.  1.
<mgrwt>
<rscale>  2 0.18298078E+03</rscale>
<asrwt>0</asrwt>
<pdfrwt beam="1">  1        2 0.41354110E+00 0.18298078E+03</pdfrwt>
<pdfrwt beam="2">  1       -2 0.19976057E-02 0.18298078E+03</pdfrwt>
<totfact> 0.24640962E+03</totfact>
</mgrwt>
</event>
<event>
 4    2  0.9414654E-001  0.1818362E+03  0.7546771E-02  0.1166038E+00
          2   -1    0    0  502    0  0.00000000000E+00  0.00000000000E+00  0.21417075979E+03  0.21417075979E+03  0.00000000000E+00 0.  1.
         -2   -1    0    0    0  501 -0.00000000000E+00 -0.00000000000E+00 -0.17013688745E+03  0.17013688745E+03  0.00000000000E+00 0. -1.
          6    1    1    2  502    0 -0.14632835721E+02  0.54048855173E+02  0.80487715415E+02  0.19885339062E+03  0.17300000000E+03 0.  1.
         -6    1    1    2    0  501  0.14632835721E+02 -0.54048855173E+02 -0.36453843072E+02  0.18545425663E+03  0.17300000000E+03 0. -1.
<mgrwt>
<rscale>  2 0.18183619E+03</rscale>
<asrwt>0</asrwt>
<pdfrwt beam="1">  1        2 0.32949348E-01 0.18183619E+03</pdfrwt>
<pdfrwt beam="2">  1       -2 0.26174906E-01 0.18183619E+03</pdfrwt>
<totfact> 0.20384856E+03</totfact>
</mgrwt>
</event>
<event>
 4    2  0.9414654E-001  0.3694957E+03  0.7546771E-02  0.1054886E+00
         -1   -1    0    0    0  501 -0.00000000000E+00  0.00000000000E+00  0.57258337346E+02  0.57258337346E+02  0.00000000000E+00 0.  1.
          1   -1    0    0  502    0  0.00000000000E+00 -0.00000000000E+00 -0.25493736989E+04  0.25493736989E+04  0.00000000000E+00 0. -1.
          6    1    1    2  502    0 -0.13769081559E+03  0.29603937452E+03 -0.91451944917E+03  0.98634319325E+03  0.17300000000E+03 0.  1.
         -6    1    1    2    0  501  0.13769081559E+03 -0.29603937452E+03 -0.15775959124E+04  0.16202888430E+04  0.17300000000E+03 0. -1.
<mgrwt>
<rscale>  2 0.36949570E+03</rscale>
<asrwt>0</asrwt>
<pdfrwt beam="1">  1        1 0.39221145E+00 0.36949570E+03</pdfrwt>
<pdfrwt beam="2">  1       -1 0.88089725E-02 0.36949570E+03</pdfrwt>
<totfact> 0.10658412E+02</totfact>
</mgrwt>
</event>
<event>
 4    2  0.9414654E-001  0.2003503E+03  0.7546771E-02  0.1149444E+00
         -2   -1    0    0    0  501 -0.00000000000E+00  0.00000000000E+00  0.17389548407E+03  0.17389548407E+03  0.00000000000E+00 0. -1.
          2   -1    0    0  502    0  0.00000000000E+00 -0.00000000000E+00 -0.35688630311E+03  0.35688630311E+03  0.00000000000E+00 0.  1.
          6    1    1    2  502    0  0.46799873932E+02 -0.89560089976E+02 -0.24922163885E+03  0.31976813973E+03  0.17300000000E+03 0.  1.
         -6    1    1    2    0  501 -0.46799873932E+02  0.89560089976E+02  0.66230819809E+02  0.21101364745E+03  0.17300000000E+03 0. -1.
<mgrwt>
<rscale>  2 0.20035029E+03</rscale>
<asrwt>0</asrwt>
<pdfrwt beam="1">  1        2 0.54905585E-01 0.20035029E+03</pdfrwt>
<pdfrwt beam="2">  1       -2 0.26753151E-01 0.20035029E+03</pdfrwt>
<totfact> 0.11352075E+03</totfact>
</mgrwt>
</event>
<event>
 4    2  0.9414654E-001  0.1976005E+03  0.7546771E-02  0.1151779E+00
         -2   -1    0    0    0  501 -0.00000000000E+00  0.00000000000E+00  0.76691192529E+02  0.76691192529E+02  0.00000000000E+00 0.  1.
          2   -1    0    0  502    0  0.00000000000E+00 -0.00000000000E+00 -0.51067260494E+03  0.51067260494E+03  0.00000000000E+00 0. -1.
          6    1    1    2  502    0 -0.58668997790E+01 -0.95302316090E+02 -0.23312054334E+03  0.30559963955E+03  0.17300000000E+03 0. -1.
         -6    1    1    2    0  501  0.58668997790E+01  0.95302316090E+02 -0.20086086907E+03  0.28176415792E+03  0.17300000000E+03 0.  1.
<mgrwt>
<rscale>  2 0.19760049E+03</rscale>
<asrwt>0</asrwt>
<pdfrwt beam="1">  1        2 0.78565016E-01 0.19760049E+03</pdfrwt>
<pdfrwt beam="2">  1       -2 0.11798645E-01 0.19760049E+03</pdfrwt>
<totfact> 0.30487065E+03</totfact>
</mgrwt>
</event>
<event>
 4    2  0.9414654E-001  0.1952686E+03  0.7546771E-02  0.1153793E+00
          4   -1    0    0  502    0  0.00000000000E+00  0.00000000000E+00  0.13154465774E+03  0.13154465774E+03  0.00000000000E+00 0.  1.
         -4   -1    0    0    0  501 -0.00000000000E+00 -0.00000000000E+00 -0.41760184372E+03  0.41760184372E+03  0.00000000000E+00 0. -1.
          6    1    1    2  502    0  0.50993897302E+02 -0.74836141331E+02 -0.29488735314E+03  0.35367835197E+03  0.17300000000E+03 0. -1.
         -6    1    1    2    0  501 -0.50993897302E+02  0.74836141331E+02  0.88301671598E+01  0.19546814949E+03  0.17300000000E+03 0.  1.
<mgrwt>
<rscale>  2 0.19526860E+03</rscale>
<asrwt>0</asrwt>
<pdfrwt beam="1">  1        4 0.20237640E-01 0.19526860E+03</pdfrwt>
<pdfrwt beam="2">  1       -4 0.64246438E-01 0.19526860E+03</pdfrwt>
<totfact> 0.89731280E+01</totfact>
</mgrwt>
</event>
<event>
 4    2  0.9414654E-001  0.2085110E+03  0.7546771E-02  0.1142751E+00
          1   -1    0    0  502    0  0.00000000000E+00  0.00000000000E+00  0.98261667138E+02  0.98261667138E+02  0.00000000000E+00 0.  1.
         -1   -1    0    0    0  501 -0.00000000000E+00 -0.00000000000E+00 -0.46361734640E+03  0.46361734640E+03  0.00000000000E+00 0. -1.
          6    1    1    2  502    0  0.88992679864E+02  0.75021061650E+02 -0.12266231238E+03  0.24191506700E+03  0.17300000000E+03 0.  1.
         -6    1    1    2    0  501 -0.88992679864E+02 -0.75021061650E+02 -0.24269336688E+03  0.31996394655E+03  0.17300000000E+03 0. -1.
<mgrwt>
<rscale>  2 0.20851105E+03</rscale>
<asrwt>0</asrwt>
<pdfrwt beam="1">  1        1 0.15117180E-01 0.20851105E+03</pdfrwt>
<pdfrwt beam="2">  1       -1 0.71325744E-01 0.20851105E+03</pdfrwt>
<totfact> 0.76014902E+02</totfact>
</mgrwt>
</event>
<event>
 4    2  0.9414654E-001  0.2005087E+03  0.7546771E-02  0.1149311E+00
          1   -1    0    0  502    0  0.00000000000E+00  0.00000000000E+00  0.55616801254E+03  0.55616801254E+03  0.00000000000E+00 0. -1.
         -1   -1    0    0    0  501 -0.00000000000E+00 -0.00000000000E+00 -0.83669254089E+02  0.83669254089E+02  0.00000000000E+00 0.  1.
          6    1    1    2  502    0 -0.37606760414E+01  0.10129454555E+03  0.35424621584E+03  0.40705541279E+03  0.17300000000E+03 0.  1.
         -6    1    1    2    0  501  0.37606760414E+01 -0.10129454555E+03  0.11825254261E+03  0.23278185384E+03  0.17300000000E+03 0. -1.
<mgrwt>
<rscale>  2 0.20050867E+03</rscale>
<asrwt>0</asrwt>
<pdfrwt beam="1">  1        1 0.85564307E-01 0.20050867E+03</pdfrwt>
<pdfrwt beam="2">  1       -1 0.12872193E-01 0.20050867E+03</pdfrwt>
<totfact> 0.15949652E+03</totfact>
</mgrwt>
</event>
<event>
 4    2  0.9414654E-001  0.1874796E+03  0.7546771E-02  0.1160754E+00
         -1   -1    0    0    0  501 -0.00000000000E+00  0.00000000000E+00  0.84634638277E+02  0.84634638277E+02  0.00000000000E+00 0.  1.
          1   -1    0    0  502    0  0.00000000000E+00 -0.00000000000E+00 -0.41592076572E+03  0.41592076572E+03  0.00000000000E+00 0. -1.
          6    1    1    2  502    0  0.62360218056E+02 -0.36480331043E+02 -0.17532619884E+03  0.25668635988E+03  0.17300000000E+03 0. -1.
         -6    1    1    2    0  501 -0.62360218056E+02  0.36480331043E+02 -0.15595992861E+03  0.24386904412E+03  0.17300000000E+03 0. -1.
<mgrwt>
<rscale>  2 0.18747963E+03</rscale>
<asrwt>0</asrwt>
<pdfrwt beam="1">  1        1 0.63987810E-01 0.18747963E+03</pdfrwt>
<pdfrwt beam="2">  1       -1 0.13020714E-01 0.18747963E+03</pdfrwt>
<totfact> 0.22907140E+03</totfact>
</mgrwt>
</event>
<event>
 4    2  0.9414654E-001  0.1903368E+03  0.7546771E-02  0.1158158E+00
          2   -1    0    0  502    0  0.00000000000E+00  0.00000000000E+00  0.16164184489E+04  0.16164184489E+04  0.00000000000E+00 0.  1.
         -2   -1    0    0    0  501 -0.00000000000E+00 -0.00000000000E+00 -0.25808937537E+02  0.25808937537E+02  0.00000000000E+00 0. -1.
          6    1    1    2  502    0 -0.42523872021E+02 -0.67013595406E+02  0.49743584619E+03  0.53260728754E+03  0.17300000000E+03 0. -1.
         -6    1    1    2    0  501  0.42523872021E+02  0.67013595406E+02  0.10931736652E+04  0.11096200989E+04  0.17300000000E+03 0.  1.
<mgrwt>
<rscale>  2 0.19033681E+03</rscale>
<asrwt>0</asrwt>
<pdfrwt beam="1">  1        2 0.24867968E+00 0.19033681E+03</pdfrwt>
<pdfrwt beam="2">  1       -2 0.39706070E-02 0.19033681E+03</pdfrwt>
<totfact> 0.32811713E+03</totfact>
</mgrwt>
</event>
<event>
 4    2  0.9414654E-001  0.2888177E+03  0.7546771E-02  0.1090968E+00
          4   -1    0    0  502    0  0.00000000000E+00  0.00000000000E+00  0.10352182680E+03  0.10352182680E+03  0.00000000000E+00 0. -1.
         -4   -1    0    0    0  501 -0.00000000000E+00 -0.00000000000E+00 -0.93301664417E+03  0.93301664417E+03  0.00000000000E+00 0.  1.
          6    1    1    2  502    0 -0.89657557051E+02 -0.21318580955E+03 -0.22335737400E+03  0.36510845437E+03  0.17300000000E+03 0. -1.
         -6    1    1    2    0  501  0.89657557051E+02  0.21318580955E+03 -0.60613744336E+03  0.67143001659E+03  0.17300000000E+03 0.  1.
<mgrwt>
<rscale>  2 0.28881771E+03</rscale>
<asrwt>0</asrwt>
<pdfrwt beam="1">  1        4 0.15926435E-01 0.28881771E+03</pdfrwt>
<pdfrwt beam="2">  1       -4 0.14354102E+00 0.28881771E+03</pdfrwt>
<totfact> 0.22104979E+01</totfact>
</mgrwt>
</event>
<event>
 4    2  0.9414654E-001  0.1946151E+03  0.7546771E-02  0.1154363E+00
          1   -1    0    0  502    0  0.00000000000E+00  0.00000000000E+00  0.53949446090E+03  0.53949446090E+03  0.00000000000E+00 0. -1.
         -1   -1    0    0    0  501 -0.00000000000E+00 -0.00000000000E+00 -0.90659488861E+02  0.90659488861E+02  0.00000000000E+00 0.  1.
          6    1    1    2  502    0  0.75300244855E+02  0.47706397775E+02  0.74756735610E+02  0.20847924785E+03  0.17300000000E+03 0.  1.
         -6    1    1    2    0  501 -0.75300244855E+02 -0.47706397775E+02  0.37407823643E+03  0.42167470191E+03  0.17300000000E+03 0. -1.
<mgrwt>
<rscale>  2 0.19461507E+03</rscale>
<asrwt>0</asrwt>
<pdfrwt beam="1">  1        1 0.82999146E-01 0.19461507E+03</pdfrwt>
<pdfrwt beam="2">  1       -1 0.13947614E-01 0.19461507E+03</pdfrwt>
<totfact> 0.14645910E+03</totfact>
</mgrwt>
</event>
<event>
 4    2  0.9414654E-001  0.1766992E+03  0.7546771E-02  0.1171036E+00
          1   -1    0    0  502    0  0.00000000000E+00  0.00000000000E+00  0.26504495312E+04  0.26504495312E+04  0.00000000000E+00 0.  1.
         -1   -1    0    0    0  501 -0.00000000000E+00 -0.00000000000E+00 -0.12007627360E+02  0.12007627360E+02  0.00000000000E+00 0. -1.
          6    1    1    2  502    0  0.79903211862E+01  0.35068010977E+02  0.15024620155E+04  0.15128168160E+04  0.17300000000E+03 0.  1.
         -6    1    1    2    0  501 -0.79903211862E+01 -0.35068010977E+02  0.11359798884E+04  0.11496403426E+04  0.17300000000E+03 0. -1.
<mgrwt>
<rscale>  2 0.17669921E+03</rscale>
<asrwt>0</asrwt>
<pdfrwt beam="1">  1        1 0.40776100E+00 0.17669921E+03</pdfrwt>
<pdfrwt beam="2">  1       -1 0.18473294E-02 0.17669921E+03</pdfrwt>
<totfact> 0.98023468E+02</totfact>
</mgrwt>
</event>
<event>
 4    2  0.9414654E-001  0.2825868E+03  0.7546771E-02  0.1094284E+00
          1   -1    0    0  502    0  0.00000000000E+00  0.00000000000E+00  0.44757007564E+03  0.44757007564E+03  0.00000000000E+00 0.  1.
         -1   -1    0    0    0  501 -0.00000000000E+00 -0.00000000000E+00 -0.18581896781E+03  0.18581896781E+03  0.00000000000E+00 0. -1.
          6    1    1    2  502    0  0.21368229197E+03 -0.65315910051E+02  0.19407187235E+03  0.34281070819E+03  0.17300000000E+03 0.  1.
         -6    1    1    2    0  501 -0.21368229197E+03  0.65315910051E+02  0.67679235475E+02  0.29057833526E+03  0.17300000000E+03 0. -1.
<mgrwt>
<rscale>  2 0.28258678E+03</rscale>
<asrwt>0</asrwt>
<pdfrwt beam="1">  1        1 0.68856934E-01 0.28258678E+03</pdfrwt>
<pdfrwt beam="2">  1       -1 0.28587534E-01 0.28258678E+03</pdfrwt>
<totfact> 0.58302996E+02</totfact>
</mgrwt>
</event>
<event>
 4    2  0.9414654E-001  0.2237196E+03  0.7546771E-02  0.1131140E+00
          2   -1    0    0  502    0  0.00000000000E+00  0.00000000000E+00  0.10637366441E+04  0.10637366441E+04  0.00000000000E+00 0. -1.
         -2   -1    0    0    0  501 -0.00000000000E+00 -0.00000000000E+00 -0.48853348381E+02  0.48853348381E+02  0.00000000000E+00 0.  1.
          6    1    1    2  502    0 -0.41472396728E+01 -0.14178942790E+03  0.40060679798E+03  0.45884229104E+03  0.17300000000E+03 0.  1.
         -6    1    1    2    0  501  0.41472396728E+01  0.14178942790E+03  0.61427649773E+03  0.65374770143E+03  0.17300000000E+03 0. -1.
<mgrwt>
<rscale>  2 0.22371956E+03</rscale>
<asrwt>0</asrwt>
<pdfrwt beam="1">  1        2 0.16365177E+00 0.22371956E+03</pdfrwt>
<pdfrwt beam="2">  1       -2 0.75159006E-02 0.22371956E+03</pdfrwt>
<totfact> 0.24966384E+03</totfact>
</mgrwt>
</event>
<event>
 4    2  0.9414654E-001  0.1825752E+03  0.7546771E-02  0.1165334E+00
          3   -1    0    0  502    0  0.00000000000E+00  0.00000000000E+00  0.31710634291E+02  0.31710634291E+02  0.00000000000E+00 0.  1.
         -3   -1    0    0    0  501 -0.00000000000E+00 -0.00000000000E+00 -0.10511868040E+04  0.10511868040E+04  0.00000000000E+00 0. -1.
          6    1    1    2  502    0 -0.23974759554E+02 -0.53196984547E+02 -0.50883831905E+03  0.54060164927E+03  0.17300000000E+03 0.  1.
         -6    1    1    2    0  501  0.23974759554E+02  0.53196984547E+02 -0.51063785061E+03  0.54229578897E+03  0.17300000000E+03 0. -1.
<mgrwt>
<rscale>  2 0.18257521E+03</rscale>
<asrwt>0</asrwt>
<pdfrwt beam="1">  1        3 0.48785597E-02 0.18257521E+03</pdfrwt>
<pdfrwt beam="2">  1       -3 0.16172103E+00 0.18257521E+03</pdfrwt>
<totfact> 0.16237697E+02</totfact>
</mgrwt>
</event>
<event>
 4    2  0.9414654E-001  0.2533228E+03  0.7546771E-02  0.1111223E+00
          2   -1    0    0  502    0  0.00000000000E+00  0.00000000000E+00  0.60872963193E+02  0.60872963193E+02  0.00000000000E+00 0. -1.
         -2   -1    0    0    0  501 -0.00000000000E+00 -0.00000000000E+00 -0.15149866024E+04  0.15149866024E+04  0.00000000000E+00 0.  1.
          6    1    1    2  502    0  0.15722352596E+03  0.97591952903E+02 -0.29251468662E+03  0.38695900077E+03  0.17300000000E+03 0. -1.
         -6    1    1    2    0  501 -0.15722352596E+03 -0.97591952903E+02 -0.11615989526E+04  0.11889005649E+04  0.17300000000E+03 0.  1.
<mgrwt>
<rscale>  2 0.25332277E+03</rscale>
<asrwt>0</asrwt>
<pdfrwt beam="1">  1        2 0.93650720E-02 0.25332277E+03</pdfrwt>
<pdfrwt beam="2">  1       -2 0.23307484E+00 0.25332277E+03</pdfrwt>
<totfact> 0.62977620E+01</totfact>
</mgrwt>
</event>
<event>
 4    2  0.9414654E-001  0.2014212E+03  0.7546771E-02  0.1148545E+00
          2   -1    0    0  502    0  0.00000000000E+00  0.00000000000E+00  0.47376464026E+04  0.47376464026E+04  0.00000000000E+00 0. -1.
         -2   -1    0    0    0  501 -0.00000000000E+00 -0.00000000000E+00 -0.89481694630E+01  0.89481694630E+01  0.00000000000E+00 0.  1.
          6    1    1    2  502    0  0.10298354581E+03 -0.59900097187E+01  0.18722303940E+04  0.18830340250E+04  0.17300000000E+03 0.  1.
         -6    1    1    2    0  501 -0.10298354581E+03  0.59900097187E+01  0.28564678391E+04  0.28635605471E+04  0.17300000000E+03 0. -1.
<mgrwt>
<rscale>  2 0.20142118E+03</rscale>
<asrwt>0</asrwt>
<pdfrwt beam="1">  1        2 0.72886667E+00 0.20142118E+03</pdfrwt>
<pdfrwt beam="2">  1       -2 0.13766452E-02 0.20142118E+03</pdfrwt>
<totfact> 0.13775467E+02</totfact>
</mgrwt>
</event>
<event>
 4    2  0.9414654E-001  0.2109389E+03  0.7546771E-02  0.1140825E+00
         -2   -1    0    0    0  501 -0.00000000000E+00  0.00000000000E+00  0.33469009117E+02  0.33469009117E+02  0.00000000000E+00 0. -1.
          2   -1    0    0  502    0  0.00000000000E+00 -0.00000000000E+00 -0.13436826095E+04  0.13436826095E+04  0.00000000000E+00 0.  1.
          6    1    1    2  502    0 -0.11443512225E+03  0.38351456905E+02 -0.58422891846E+03  0.62114302750E+03  0.17300000000E+03 0. -1.
         -6    1    1    2    0  501  0.11443512225E+03 -0.38351456905E+02 -0.72598468190E+03  0.75600859109E+03  0.17300000000E+03 0. -1.
<mgrwt>
<rscale>  2 0.21093893E+03</rscale>
<asrwt>0</asrwt>
<pdfrwt beam="1">  1        2 0.20672042E+00 0.21093893E+03</pdfrwt>
<pdfrwt beam="2">  1       -2 0.51490779E-02 0.21093893E+03</pdfrwt>
<totfact> 0.30986613E+03</totfact>
</mgrwt>
</event>
<event>
 4    2  0.9414654E-001  0.1915658E+03  0.7546771E-02  0.1157057E+00
         -2   -1    0    0    0  501 -0.00000000000E+00  0.00000000000E+00  0.24780784748E+03  0.24780784748E+03  0.00000000000E+00 0. -1.
          2   -1    0    0  502    0  0.00000000000E+00 -0.00000000000E+00 -0.16999715017E+03  0.16999715017E+03  0.00000000000E+00 0.  1.
          6    1    1    2  502    0 -0.79735679490E+02 -0.20265454535E+02 -0.36089534412E+02  0.19493568613E+03  0.17300000000E+03 0. -1.
         -6    1    1    2    0  501  0.79735679490E+02  0.20265454535E+02  0.11390023173E+03  0.22286931152E+03  0.17300000000E+03 0. -1.
<mgrwt>
<rscale>  2 0.19156583E+03</rscale>
<asrwt>0</asrwt>
<pdfrwt beam="1">  1        2 0.26153408E-01 0.19156583E+03</pdfrwt>
<pdfrwt beam="2">  1       -2 0.38124284E-01 0.19156583E+03</pdfrwt>
<totfact> 0.13231783E+03</totfact>
</mgrwt>
</event>
<event>
 4    2  0.9414654E-001  0.3015595E+03  0.7546771E-02  0.1084464E+00
         -1   -1    0    0    0  501 -0.00000000000E+00  0.00000000000E+00  0.10764559040E+03  0.10764559040E+03  0.00000000000E+00 0. -1.
          1   -1    0    0  502    0  0.00000000000E+00 -0.00000000000E+00 -0.84537822165E+03  0.84537822165E+03  0.00000000000E+00 0.  1.
          6    1    1    2  502    0 -0.24631887018E+03 -0.18334712704E+02 -0.38141306855E+03  0.48622430663E+03  0.17300000000E+03 0.  1.
         -6    1    1    2    0  501  0.24631887018E+03  0.18334712704E+02 -0.35631956271E+03  0.46679950542E+03  0.17300000000E+03 0. -1.
<mgrwt>
<rscale>  2 0.30155953E+03</rscale>
<asrwt>0</asrwt>
<pdfrwt beam="1">  1        1 0.13005818E+00 0.30155953E+03</pdfrwt>
<pdfrwt beam="2">  1       -1 0.16560861E-01 0.30155953E+03</pdfrwt>
<totfact> 0.58053738E+02</totfact>
</mgrwt>
</event>
<event>
 4    2  0.9414654E-001  0.2085506E+03  0.7546771E-02  0.1142719E+00
         -2   -1    0    0    0  501 -0.00000000000E+00  0.00000000000E+00  0.48715523474E+03  0.48715523474E+03  0.00000000000E+00 0. -1.
          2   -1    0    0  502    0  0.00000000000E+00 -0.00000000000E+00 -0.14118519922E+03  0.14118519922E+03  0.00000000000E+00 0.  1.
          6    1    1    2  502    0  0.65679024832E+02  0.96180102943E+02  0.36347615112E+03  0.41905639112E+03  0.17300000000E+03 0.  1.
         -6    1    1    2    0  501 -0.65679024832E+02 -0.96180102943E+02 -0.17506115602E+02  0.20928404284E+03  0.17300000000E+03 0.  1.
<mgrwt>
<rscale>  2 0.20855059E+03</rscale>
<asrwt>0</asrwt>
<pdfrwt beam="1">  1        2 0.21720800E-01 0.20855059E+03</pdfrwt>
<pdfrwt beam="2">  1       -2 0.74946959E-01 0.20855059E+03</pdfrwt>
<totfact> 0.41578175E+02</totfact>
</mgrwt>
</event>
<event>
 4    2  0.9414654E-001  0.1839520E+03  0.7546771E-02  0.1164032E+00
         -3   -1    0    0    0  501 -0.00000000000E+00  0.00000000000E+00  0.19621201344E+03  0.19621201344E+03  0.00000000000E+00 0.  1.
          3   -1    0    0  502    0  0.00000000000E+00 -0.00000000000E+00 -0.18133256495E+03  0.18133256495E+03  0.00000000000E+00 0. -1.
          6    1    1    2  502    0 -0.27740568065E+02  0.56034066997E+02 -0.34321270751E+02  0.18712644230E+03  0.17300000000E+03 0. -1.
         -6    1    1    2    0  501  0.27740568065E+02 -0.56034066997E+02  0.49200719236E+02  0.19041813610E+03  0.17300000000E+03 0.  1.
<mgrwt>
<rscale>  2 0.18395205E+03</rscale>
<asrwt>0</asrwt>
<pdfrwt beam="1">  1        3 0.27897318E-01 0.18395205E+03</pdfrwt>
<pdfrwt beam="2">  1       -3 0.30186464E-01 0.18395205E+03</pdfrwt>
<totfact> 0.31535119E+02</totfact>
</mgrwt>
</event>
<event>
 4    2  0.9414654E-001  0.1853676E+03  0.7546771E-02  0.1162707E+00
         -2   -1    0    0    0  501 -0.00000000000E+00  0.00000000000E+00  0.16399643847E+03  0.16399643847E+03  0.00000000000E+00 0.  1.
          2   -1    0    0  502    0  0.00000000000E+00 -0.00000000000E+00 -0.25003047856E+03  0.25003047856E+03  0.00000000000E+00 0. -1.
          6    1    1    2  502    0  0.37183446180E+02 -0.55222520507E+02  0.40306215480E+02  0.18969904177E+03  0.17300000000E+03 0.  1.
         -6    1    1    2    0  501 -0.37183446180E+02  0.55222520507E+02 -0.12634025558E+03  0.22432787526E+03  0.17300000000E+03 0. -1.
<mgrwt>
<rscale>  2 0.18536757E+03</rscale>
<asrwt>0</asrwt>
<pdfrwt beam="1">  1        2 0.38466228E-01 0.18536757E+03</pdfrwt>
<pdfrwt beam="2">  1       -2 0.25230221E-01 0.18536757E+03</pdfrwt>
<totfact> 0.18413706E+03</totfact>
</mgrwt>
</event>
<event>
 4    2  0.9414654E-001  0.1768535E+03  0.7546771E-02  0.1170883E+00
         -3   -1    0    0    0  501 -0.00000000000E+00  0.00000000000E+00  0.47341888725E+03  0.47341888725E+03  0.00000000000E+00 0.  1.
          3   -1    0    0  502    0  0.00000000000E+00 -0.00000000000E+00 -0.75337947814E+02  0.75337947814E+02  0.00000000000E+00 0. -1.
          6    1    1    2  502    0 -0.38448316313E+01  0.36515405381E+02  0.29529372270E+03  0.34420276034E+03  0.17300000000E+03 0.  1.
         -6    1    1    2    0  501  0.38448316313E+01 -0.36515405381E+02  0.10278721673E+03  0.20455407472E+03  0.17300000000E+03 0. -1.
<mgrwt>
<rscale>  2 0.17685349E+03</rscale>
<asrwt>0</asrwt>
<pdfrwt beam="1">  1        3 0.11590454E-01 0.17685349E+03</pdfrwt>
<pdfrwt beam="2">  1       -3 0.72833673E-01 0.17685349E+03</pdfrwt>
<totfact> 0.25360097E+02</totfact>
</mgrwt>
</event>
<event>
 4    2  0.9414654E-001  0.2631073E+03  0.7546771E-02  0.1105291E+00
          1   -1    0    0  502    0  0.00000000000E+00  0.00000000000E+00  0.82542069668E+03  0.82542069668E+03  0.00000000000E+00 0.  1.
         -1   -1    0    0    0  501 -0.00000000000E+00 -0.00000000000E+00 -0.88004603370E+02  0.88004603370E+02  0.00000000000E+00 0. -1.
          6    1    1    2  502    0  0.18604175000E+03 -0.68446440350E+02  0.46773917892E+03  0.53666133403E+03  0.17300000000E+03 0. -1.
         -6    1    1    2    0  501 -0.18604175000E+03  0.68446440350E+02  0.26967691439E+03  0.37676396603E+03  0.17300000000E+03 0. -1.
<mgrwt>
<rscale>  2 0.26310729E+03</rscale>
<asrwt>0</asrwt>
<pdfrwt beam="1">  1        1 0.12698779E+00 0.26310729E+03</pdfrwt>
<pdfrwt beam="2">  1       -1 0.13539170E-01 0.26310729E+03</pdfrwt>
<totfact> 0.83281977E+02</totfact>
</mgrwt>
</event>
<event>
 4    2  0.9414654E-001  0.1730375E+03  0.7546771E-02  0.1174717E+00
          1   -1    0    0  502    0  0.00000000000E+00  0.00000000000E+00  0.26852399545E+03  0.26852399545E+03  0.00000000000E+00 0. -1.
         -1   -1    0    0    0  501 -0.00000000000E+00 -0.00000000000E+00 -0.12632321049E+03  0.12632321049E+03  0.00000000000E+00 0.  1.
          6    1    1    2  502    0 -0.35075603181E+01 -0.82058680210E+00  0.34852430649E+01  0.17307259535E+03  0.17300000000E+03 0.  1.
         -6    1    1    2    0  501  0.35075603181E+01  0.82058680210E+00  0.13871554189E+03  0.22177461060E+03  0.17300000000E+03 0. -1.
<mgrwt>
<rscale>  2 0.17303750E+03</rscale>
<asrwt>0</asrwt>
<pdfrwt beam="1">  1        1 0.41311384E-01 0.17303750E+03</pdfrwt>
<pdfrwt beam="2">  1       -1 0.19434340E-01 0.17303750E+03</pdfrwt>
<totfact> 0.20988788E+03</totfact>
</mgrwt>
</event>
<event>
 4    2  0.9414654E-001  0.2809676E+03  0.7546771E-02  0.1095162E+00
          1   -1    0    0  502    0  0.00000000000E+00  0.00000000000E+00  0.14938581951E+04  0.14938581951E+04  0.00000000000E+00 0.  1.
         -1   -1    0    0    0  501 -0.00000000000E+00 -0.00000000000E+00 -0.58317747253E+02  0.58317747253E+02  0.00000000000E+00 0. -1.
          6    1    1    2  502    0  0.21478480839E+03 -0.53677294780E+02  0.95551873463E+03  0.99597129382E+03  0.17300000000E+03 0.  1.
         -6    1    1    2    0  501 -0.21478480839E+03  0.53677294780E+02  0.48002171325E+03  0.55620464856E+03  0.17300000000E+03 0.  1.
<mgrwt>
<rscale>  2 0.28096755E+03</rscale>
<asrwt>0</asrwt>
<pdfrwt beam="1">  1        1 0.22982431E+00 0.28096755E+03</pdfrwt>
<pdfrwt beam="2">  1       -1 0.89719622E-02 0.28096755E+03</pdfrwt>
<totfact> 0.52155064E+02</totfact>
</mgrwt>
</event>
<event>
 4    2  0.9414654E-001  0.1923899E+03  0.7546771E-02  0.1156323E+00
         -1   -1    0    0    0  501 -0.00000000000E+00  0.00000000000E+00  0.54308323061E+02  0.54308323061E+02  0.00000000000E+00 0. -1.
          1   -1    0    0  502    0  0.00000000000E+00 -0.00000000000E+00 -0.68230116912E+03  0.68230116912E+03  0.00000000000E+00 0.  1.
          6    1    1    2  502    0  0.71067088599E+02  0.45103690260E+02 -0.32621144956E+03  0.37871860765E+03  0.17300000000E+03 0.  1.
         -6    1    1    2    0  501 -0.71067088599E+02 -0.45103690260E+02 -0.30178139650E+03  0.35789088453E+03  0.17300000000E+03 0. -1.
<mgrwt>
<rscale>  2 0.19238990E+03</rscale>
<asrwt>0</asrwt>
<pdfrwt beam="1">  1        1 0.10496941E+00 0.19238990E+03</pdfrwt>
<pdfrwt beam="2">  1       -1 0.83551271E-02 0.19238990E+03</pdfrwt>
<totfact> 0.23372089E+03</totfact>
</mgrwt>
</event>
<event>
 4    2  0.9414654E-001  0.2379147E+03  0.7546771E-02  0.1121190E+00
          2   -1    0    0  502    0  0.00000000000E+00  0.00000000000E+00  0.85507146290E+03  0.85507146290E+03  0.00000000000E+00 0.  1.
         -2   -1    0    0    0  501 -0.00000000000E+00 -0.00000000000E+00 -0.75170610710E+02  0.75170610710E+02  0.00000000000E+00 0. -1.
          6    1    1    2  502    0 -0.13373028024E+03  0.93758209485E+02  0.22924919101E+03  0.33039155752E+03  0.17300000000E+03 0. -1.
         -6    1    1    2    0  501  0.13373028024E+03 -0.93758209485E+02  0.55065166117E+03  0.59985051609E+03  0.17300000000E+03 0.  1.
<mgrwt>
<rscale>  2 0.23791467E+03</rscale>
<asrwt>0</asrwt>
<pdfrwt beam="1">  1        2 0.13154945E+00 0.23791467E+03</pdfrwt>
<pdfrwt beam="2">  1       -2 0.11564710E-01 0.23791467E+03</pdfrwt>
<totfact> 0.17056675E+03</totfact>
</mgrwt>
</event>
<event>
 4    2  0.9414654E-001  0.2337618E+03  0.7546771E-02  0.1124020E+00
          1   -1    0    0  502    0  0.00000000000E+00  0.00000000000E+00  0.33445837641E+03  0.33445837641E+03  0.00000000000E+00 0.  1.
         -1   -1    0    0    0  501 -0.00000000000E+00 -0.00000000000E+00 -0.20670412248E+03  0.20670412248E+03  0.00000000000E+00 0. -1.
          6    1    1    2  502    0 -0.12376502349E+03  0.96942297952E+02  0.18775003051E+03  0.29982438881E+03  0.17300000000E+03 0.  1.
         -6    1    1    2    0  501  0.12376502349E+03 -0.96942297952E+02 -0.59995776572E+02  0.24133811008E+03  0.17300000000E+03 0. -1.
<mgrwt>
<rscale>  2 0.23376182E+03</rscale>
<asrwt>0</asrwt>
<pdfrwt beam="1">  1        1 0.51455135E-01 0.23376182E+03</pdfrwt>
<pdfrwt beam="2">  1       -1 0.31800634E-01 0.23376182E+03</pdfrwt>
<totfact> 0.70730229E+02</totfact>
</mgrwt>
</event>
<event>
 4    2  0.9414654E-001  0.2050285E+03  0.7546771E-02  0.1145565E+00
          2   -1    0    0  502    0  0.00000000000E+00  0.00000000000E+00  0.19631751287E+03  0.19631751287E+03  0.00000000000E+00 0.  1.
         -2   -1    0    0    0  501 -0.00000000000E+00 -0.00000000000E+00 -0.56448587212E+03  0.56448587212E+03  0.00000000000E+00 0. -1.
          6    1    1    2  502    0 -0.13226570212E+02  0.10923700636E+03  0.11560643239E+03  0.23537525980E+03  0.17300000000E+03 0.  1.
         -6    1    1    2    0  501  0.13226570212E+02 -0.10923700636E+03 -0.48377479164E+03  0.52542812519E+03  0.17300000000E+03 0. -1.
<mgrwt>
<rscale>  2 0.20502845E+03</rscale>
<asrwt>0</asrwt>
<pdfrwt beam="1">  1        2 0.30202695E-01 0.20502845E+03</pdfrwt>
<pdfrwt beam="2">  1       -2 0.86843979E-01 0.20502845E+03</pdfrwt>
<totfact> 0.20803940E+02</totfact>
</mgrwt>
</event>
<event>
 4    2  0.9414654E-001  0.1751361E+03  0.7546771E-02  0.1172595E+00
         -2   -1    0    0    0  501 -0.00000000000E+00  0.00000000000E+00  0.65631962595E+02  0.65631962595E+02  0.00000000000E+00 0. -1.
          2   -1    0    0  502    0  0.00000000000E+00 -0.00000000000E+00 -0.53280546823E+03  0.53280546823E+03  0.00000000000E+00 0.  1.
          6    1    1    2  502    0  0.21394391273E+02 -0.16909477968E+02 -0.33846851908E+03  0.38109524903E+03  0.17300000000E+03 0.  1.
         -6    1    1    2    0  501 -0.21394391273E+02  0.16909477968E+02 -0.12870498655E+03  0.21734218179E+03  0.17300000000E+03 0. -1.
<mgrwt>
<rscale>  2 0.17513609E+03</rscale>
<asrwt>0</asrwt>
<pdfrwt beam="1">  1        2 0.81970069E-01 0.17513609E+03</pdfrwt>
<pdfrwt beam="2">  1       -2 0.10097225E-01 0.17513609E+03</pdfrwt>
<totfact> 0.37110368E+03</totfact>
</mgrwt>
</event>
<event>
 4    2  0.9414654E-001  0.1786165E+03  0.7546771E-02  0.1169149E+00
          1   -1    0    0  502    0  0.00000000000E+00  0.00000000000E+00  0.12434620724E+03  0.12434620724E+03  0.00000000000E+00 0.  1.
         -1   -1    0    0    0  501 -0.00000000000E+00 -0.00000000000E+00 -0.26012104180E+03  0.26012104180E+03  0.00000000000E+00 0. -1.
          6    1    1    2  502    0 -0.43482581900E+02 -0.91722236514E+01 -0.90338809041E+02  0.20016234669E+03  0.17300000000E+03 0.  1.
         -6    1    1    2    0  501  0.43482581900E+02  0.91722236514E+01 -0.45436025513E+02  0.18430490235E+03  0.17300000000E+03 0. -1.
<mgrwt>
<rscale>  2 0.17861653E+03</rscale>
<asrwt>0</asrwt>
<pdfrwt beam="1">  1        1 0.19130186E-01 0.17861653E+03</pdfrwt>
<pdfrwt beam="2">  1       -1 0.40018621E-01 0.17861653E+03</pdfrwt>
<totfact> 0.16476630E+03</totfact>
</mgrwt>
</event>
<event>
 4    2  0.9414654E-001  0.2173308E+03  0.7546771E-02  0.1135889E+00
          2   -1    0    0  502    0  0.00000000000E+00  0.00000000000E+00  0.14062132017E+04  0.14062132017E+04  0.00000000000E+00 0. -1.
         -2   -1    0    0    0  501 -0.00000000000E+00 -0.00000000000E+00 -0.33606178847E+02  0.33606178847E+02  0.00000000000E+00 0.  1.
          6    1    1    2  502    0  0.11478511488E+03  0.64250045115E+02  0.66982450627E+03  0.70419994327E+03  0.17300000000E+03 0.  1.
         -6    1    1    2    0  501 -0.11478511488E+03 -0.64250045115E+02  0.70278251662E+03  0.73561943732E+03  0.17300000000E+03 0.  1.
<mgrwt>
<rscale>  2 0.21733083E+03</rscale>
<asrwt>0</asrwt>
<pdfrwt beam="1">  1        2 0.21634045E+00 0.21733083E+03</pdfrwt>
<pdfrwt beam="2">  1       -2 0.51701824E-02 0.21733083E+03</pdfrwt>
<totfact> 0.28491248E+03</totfact>
</mgrwt>
</event>
<event>
 4    2  0.9414654E-001  0.1792230E+03  0.7546771E-02  0.1168557E+00
          2   -1    0    0  502    0  0.00000000000E+00  0.00000000000E+00  0.21550483765E+04  0.21550483765E+04  0.00000000000E+00 0. -1.
         -2   -1    0    0    0  501 -0.00000000000E+00 -0.00000000000E+00 -0.14924820432E+02  0.14924820432E+02  0.00000000000E+00 0.  1.
          6    1    1    2  502    0  0.25465318669E+02 -0.39286107176E+02  0.10304693489E+04  0.10459387935E+04  0.17300000000E+03 0. -1.
         -6    1    1    2    0  501 -0.25465318669E+02  0.39286107176E+02  0.11096542072E+04  0.11240344035E+04  0.17300000000E+03 0.  1.
<mgrwt>
<rscale>  2 0.17922299E+03</rscale>
<asrwt>0</asrwt>
<pdfrwt beam="1">  1        2 0.33154566E+00 0.17922299E+03</pdfrwt>
<pdfrwt beam="2">  1       -2 0.22961279E-02 0.17922299E+03</pdfrwt>
<totfact> 0.38802454E+03</totfact>
</mgrwt>
</event>
<event>
 4    2  0.9414654E-001  0.2144208E+03  0.7546771E-02  0.1138112E+00
         -2   -1    0    0    0  501 -0.00000000000E+00  0.00000000000E+00  0.64225110845E+02  0.64225110845E+02  0.00000000000E+00 0. -1.
          2   -1    0    0  502    0  0.00000000000E+00 -0.00000000000E+00 -0.78244903753E+03  0.78244903753E+03  0.00000000000E+00 0.  1.
          6    1    1    2  502    0  0.12464024269E+03 -0.22629628745E+02 -0.23561552124E+03  0.31857646499E+03  0.17300000000E+03 0. -1.
         -6    1    1    2    0  501 -0.12464024269E+03  0.22629628745E+02 -0.48260840545E+03  0.52809768339E+03  0.17300000000E+03 0.  1.
<mgrwt>
<rscale>  2 0.21442083E+03</rscale>
<asrwt>0</asrwt>
<pdfrwt beam="1">  1        2 0.12037677E+00 0.21442083E+03</pdfrwt>
<pdfrwt beam="2">  1       -2 0.98807867E-02 0.21442083E+03</pdfrwt>
<totfact> 0.24546275E+03</totfact>
</mgrwt>
</event>
<event>
 4    2  0.9414654E-001  0.2563812E+03  0.7546771E-02  0.1109337E+00
          2   -1    0    0  502    0  0.00000000000E+00  0.00000000000E+00  0.16461634513E+04  0.16461634513E+04  0.00000000000E+00 0. -1.
         -2   -1    0    0    0  501 -0.00000000000E+00 -0.00000000000E+00 -0.40275016239E+02  0.40275016239E+02  0.00000000000E+00 0.  1.
          6    1    1    2  502    0 -0.18887907881E+03 -0.11269596494E+02  0.88098848926E+03  0.91753584585E+03  0.17300000000E+03 0.  1.
         -6    1    1    2    0  501  0.18887907881E+03  0.11269596494E+02  0.72489994581E+03  0.76890262169E+03  0.17300000000E+03 0.  1.
<mgrwt>
<rscale>  2 0.25638118E+03</rscale>
<asrwt>0</asrwt>
<pdfrwt beam="1">  1        2 0.25325586E+00 0.25638118E+03</pdfrwt>
<pdfrwt beam="2">  1       -2 0.61961576E-02 0.25638118E+03</pdfrwt>
<totfact> 0.16080328E+03</totfact>
</mgrwt>
</event>
<event>
 4    2  0.9414654E-001  0.2026971E+03  0.7546771E-02  0.1147483E+00
          2   -1    0    0  502    0  0.00000000000E+00  0.00000000000E+00  0.32416360684E+03  0.32416360684E+03  0.00000000000E+00 0. -1.
         -2   -1    0    0    0  501 -0.00000000000E+00 -0.00000000000E+00 -0.14114147446E+03  0.14114147446E+03  0.00000000000E+00 0.  1.
          6    1    1    2  502    0  0.84890601047E+01 -0.10528547662E+03  0.16581460695E+03  0.26187894075E+03  0.17300000000E+03 0.  1.
         -6    1    1    2    0  501 -0.84890601047E+01  0.10528547662E+03  0.17207525419E+02  0.20342614055E+03  0.17300000000E+03 0.  1.
<mgrwt>
<rscale>  2 0.20269705E+03</rscale>
<asrwt>0</asrwt>
<pdfrwt beam="1">  1        2 0.49871324E-01 0.20269705E+03</pdfrwt>
<pdfrwt beam="2">  1       -2 0.21714073E-01 0.20269705E+03</pdfrwt>
<totfact> 0.18149818E+03</totfact>
</mgrwt>
</event>
<event>
 4    2  0.9414654E-001  0.1743323E+03  0.7546771E-02  0.1173404E+00
          2   -1    0    0  502    0  0.00000000000E+00  0.00000000000E+00  0.19029561142E+04  0.19029561142E+04  0.00000000000E+00 0. -1.
         -2   -1    0    0    0  501 -0.00000000000E+00 -0.00000000000E+00 -0.28885925819E+02  0.28885925819E+02  0.00000000000E+00 0.  1.
          6    1    1    2  502    0  0.21439889705E+02  0.17523742813E+01  0.15829089717E+04  0.15924800006E+04  0.17300000000E+03 0. -1.
         -6    1    1    2    0  501 -0.21439889705E+02 -0.17523742813E+01  0.29116121668E+03  0.33936203940E+03  0.17300000000E+03 0.  1.
<mgrwt>
<rscale>  2 0.17433227E+03</rscale>
<asrwt>0</asrwt>
<pdfrwt beam="1">  1        2 0.29276238E+00 0.17433227E+03</pdfrwt>
<pdfrwt beam="2">  1       -2 0.44439901E-02 0.17433227E+03</pdfrwt>
<totfact> 0.19689667E+03</totfact>
</mgrwt>
</event>
<event>
 4    2  0.9414654E-001  0.2138254E+03  0.7546771E-02  0.1138572E+00
          2   -1    0    0  502    0  0.00000000000E+00  0.00000000000E+00  0.15207296528E+04  0.15207296528E+04  0.00000000000E+00 0.  1.
         -2   -1    0    0    0  501 -0.00000000000E+00 -0.00000000000E+00 -0.30993456229E+02  0.30993456229E+02  0.00000000000E+00 0. -1.
          6    1    1    2  502    0  0.34895901060E+02  0.12072516231E+03  0.87912761447E+03  0.90475778596E+03  0.17300000000E+03 0. -1.
         -6    1    1    2    0  501 -0.34895901060E+02 -0.12072516231E+03  0.61060858212E+03  0.64696532309E+03  0.17300000000E+03 0. -1.
<mgrwt>
<rscale>  2 0.21382537E+03</rscale>
<asrwt>0</asrwt>
<pdfrwt beam="1">  1        2 0.23395835E+00 0.21382537E+03</pdfrwt>
<pdfrwt beam="2">  1       -2 0.47682252E-02 0.21382537E+03</pdfrwt>
<totfact> 0.27981267E+03</totfact>
</mgrwt>
</event>
<event>
 4    2  0.9414654E-001  0.1847907E+03  0.7546771E-02  0.1163246E+00
         -2   -1    0    0    0  501 -0.00000000000E+00  0.00000000000E+00  0.33012738234E+02  0.33012738234E+02  0.00000000000E+00 0.  1.
          2   -1    0    0  502    0  0.00000000000E+00 -0.00000000000E+00 -0.11245785035E+04  0.11245785035E+04  0.00000000000E+00 0. -1.
          6    1    1    2  502    0  0.53725494112E+02 -0.36498771073E+02 -0.70970565380E+03  0.73336873675E+03  0.17300000000E+03 0. -1.
         -6    1    1    2    0  501 -0.53725494112E+02  0.36498771073E+02 -0.38186011149E+03  0.42422250501E+03  0.17300000000E+03 0. -1.
<mgrwt>
<rscale>  2 0.18479066E+03</rscale>
<asrwt>0</asrwt>
<pdfrwt beam="1">  1        2 0.17301202E+00 0.18479066E+03</pdfrwt>
<pdfrwt beam="2">  1       -2 0.50788844E-02 0.18479066E+03</pdfrwt>
<totfact> 0.41831935E+03</totfact>
</mgrwt>
</event>
<event>
 4    2  0.9414654E-001  0.2297424E+03  0.7546771E-02  0.1126821E+00
         -1   -1    0    0    0  501 -0.00000000000E+00  0.00000000000E+00  0.69468947577E+02  0.69468947577E+02  0.00000000000E+00 0. -1.
          1   -1    0    0  502    0  0.00000000000E+00 -0.00000000000E+00 -0.83158547015E+03  0.83158547015E+03  0.00000000000E+00 0.  1.
          6    1    1    2  502    0 -0.46287868466E+02  0.14390970407E+03 -0.24867696313E+03  0.33855841695E+03  0.17300000000E+03 0. -1.
         -6    1    1    2    0  501  0.46287868466E+02 -0.14390970407E+03 -0.51343955945E+03  0.56249600078E+03  0.17300000000E+03 0.  1.
<mgrwt>
<rscale>  2 0.22974240E+03</rscale>
<asrwt>0</asrwt>
<pdfrwt beam="1">  1        1 0.12793622E+00 0.22974240E+03</pdfrwt>
<pdfrwt beam="2">  1       -1 0.10687531E-01 0.22974240E+03</pdfrwt>
<totfact> 0.11928852E+03</totfact>
</mgrwt>
</event>
<event>
 4    2  0.9414654E-001  0.2078277E+03  0.7546771E-02  0.1143298E+00
          2   -1    0    0  502    0  0.00000000000E+00  0.00000000000E+00  0.20792917608E+04  0.20792917608E+04  0.00000000000E+00 0.  1.
         -2   -1    0    0    0  501 -0.00000000000E+00 -0.00000000000E+00 -0.34427372146E+02  0.34427372146E+02  0.00000000000E+00 0. -1.
          6    1    1    2  502    0 -0.11227757828E+03  0.25634137306E+02  0.16880226076E+04  0.17007682639E+04  0.17300000000E+03 0.  1.
         -6    1    1    2    0  501  0.11227757828E+03 -0.25634137306E+02  0.35684178109E+03  0.41295086912E+03  0.17300000000E+03 0.  1.
<mgrwt>
<rscale>  2 0.20782773E+03</rscale>
<asrwt>0</asrwt>
<pdfrwt beam="1">  1        2 0.31989094E+00 0.20782773E+03</pdfrwt>
<pdfrwt beam="2">  1       -2 0.52965204E-02 0.20782773E+03</pdfrwt>
<totfact> 0.12189208E+03</totfact>
</mgrwt>
</event>
<event>
 4    2  0.9414654E-001  0.2402399E+03  0.7546771E-02  0.1119633E+00
          1   -1    0    0  502    0  0.00000000000E+00  0.00000000000E+00  0.17774774683E+04  0.17774774683E+04  0.00000000000E+00 0.  1.
         -1   -1    0    0    0  501 -0.00000000000E+00 -0.00000000000E+00 -0.64407496142E+02  0.64407496142E+02  0.00000000000E+00 0. -1.
          6    1    1    2  502    0  0.16646715644E+03 -0.86549146018E+01  0.15050390628E+04  0.15240924520E+04  0.17300000000E+03 0.  1.
         -6    1    1    2    0  501 -0.16646715644E+03  0.86549146018E+01  0.20803090940E+03  0.31779251247E+03  0.17300000000E+03 0. -1.
<mgrwt>
<rscale>  2 0.24023993E+03</rscale>
<asrwt>0</asrwt>
<pdfrwt beam="1">  1        1 0.27345803E+00 0.24023993E+03</pdfrwt>
<pdfrwt beam="2">  1       -1 0.99088469E-02 0.24023993E+03</pdfrwt>
<totfact> 0.29343018E+02</totfact>
</mgrwt>
</event>
<event>
 4    2  0.9414654E-001  0.1772331E+03  0.7546771E-02  0.1170508E+00
          1   -1    0    0  502    0  0.00000000000E+00  0.00000000000E+00  0.19018115278E+03  0.19018115278E+03  0.00000000000E+00 0. -1.
         -1   -1    0    0    0  501 -0.00000000000E+00 -0.00000000000E+00 -0.21098110053E+03  0.21098110053E+03  0.00000000000E+00 0.  1.
          6    1    1    2  502    0 -0.17701802582E+02  0.34194066856E+02 -0.10386936810E+03  0.20542744133E+03  0.17300000000E+03 0.  1.
         -6    1    1    2    0  501  0.17701802582E+02 -0.34194066856E+02  0.83069420353E+02  0.19573481198E+03  0.17300000000E+03 0. -1.
<mgrwt>
<rscale>  2 0.17723315E+03</rscale>
<asrwt>0</asrwt>
<pdfrwt beam="1">  1        1 0.29258639E-01 0.17723315E+03</pdfrwt>
<pdfrwt beam="2">  1       -1 0.32458631E-01 0.17723315E+03</pdfrwt>
<totfact> 0.13817408E+03</totfact>
</mgrwt>
</event>
<event>
 4    2  0.9414654E-001  0.2481937E+03  0.7546771E-02  0.1114452E+00
         -2   -1    0    0    0  501 -0.00000000000E+00  0.00000000000E+00  0.15532310859E+03  0.15532310859E+03  0.00000000000E+00 0. -1.
          2   -1    0    0  502    0  0.00000000000E+00 -0.00000000000E+00 -0.41705006626E+03  0.41705006626E+03  0.00000000000E+00 0.  1.
          6    1    1    2  502    0 -0.17512637787E+03  0.31651962212E+02 -0.19424669953E+03  0.31516959755E+03  0.17300000000E+03 0.  1.
         -6    1    1    2    0  501  0.17512637787E+03 -0.31651962212E+02 -0.67480258132E+02  0.25720357730E+03  0.17300000000E+03 0. -1.
<mgrwt>
<rscale>  2 0.24819366E+03</rscale>
<asrwt>0</asrwt>
<pdfrwt beam="1">  1        2 0.64161549E-01 0.24819366E+03</pdfrwt>
<pdfrwt beam="2">  1       -2 0.23895863E-01 0.24819366E+03</pdfrwt>
<totfact> 0.11739105E+03</totfact>
</mgrwt>
</event>
<event>
 4    2  0.9414654E-001  0.1959121E+03  0.7546771E-02  0.1153235E+00
          2   -1    0    0  502    0  0.00000000000E+00  0.00000000000E+00  0.53915149791E+03  0.53915149791E+03  0.00000000000E+00 0. -1.
         -2   -1    0    0    0  501 -0.00000000000E+00 -0.00000000000E+00 -0.10215596114E+03  0.10215596114E+03  0.00000000000E+00 0.  1.
          6    1    1    2  502    0  0.51182147952E+02 -0.76373620237E+02  0.39504268361E+03  0.44095381165E+03  0.17300000000E+03 0. -1.
         -6    1    1    2    0  501 -0.51182147952E+02  0.76373620237E+02  0.41952853165E+02  0.20035364740E+03  0.17300000000E+03 0.  1.
<mgrwt>
<rscale>  2 0.19591208E+03</rscale>
<asrwt>0</asrwt>
<pdfrwt beam="1">  1        2 0.82946383E-01 0.19591208E+03</pdfrwt>
<pdfrwt beam="2">  1       -2 0.15716302E-01 0.19591208E+03</pdfrwt>
<totfact> 0.17964976E+03</totfact>
</mgrwt>
</event>
<event>
 4    2  0.9414654E-001  0.2016989E+03  0.7546771E-02  0.1148314E+00
          2   -1    0    0  502    0  0.00000000000E+00  0.00000000000E+00  0.77436646486E+03  0.77436646486E+03  0.00000000000E+00 0. -1.
         -2   -1    0    0    0  501 -0.00000000000E+00 -0.00000000000E+00 -0.98780887198E+02  0.98780887198E+02  0.00000000000E+00 0.  1.
          6    1    1    2  502    0  0.97512065829E+02  0.35282078405E+02  0.39081897265E+02  0.20545029261E+03  0.17300000000E+03 0.  1.
         -6    1    1    2    0  501 -0.97512065829E+02 -0.35282078405E+02  0.63650368039E+03  0.66769705945E+03  0.17300000000E+03 0. -1.
<mgrwt>
<rscale>  2 0.20169885E+03</rscale>
<asrwt>0</asrwt>
<pdfrwt beam="1">  1        2 0.11913330E+00 0.20169885E+03</pdfrwt>
<pdfrwt beam="2">  1       -2 0.15197060E-01 0.20169885E+03</pdfrwt>
<totfact> 0.12388807E+03</totfact>
</mgrwt>
</event>
<event>
 4    2  0.9414654E-001  0.1825146E+03  0.7546771E-02  0.1165391E+00
         -2   -1    0    0    0  501 -0.00000000000E+00  0.00000000000E+00  0.64810538603E+02  0.64810538603E+02  0.00000000000E+00 0.  1.
          2   -1    0    0  502    0  0.00000000000E+00 -0.00000000000E+00 -0.51400475178E+03  0.51400475178E+03  0.00000000000E+00 0. -1.
          6    1    1    2  502    0 -0.27861069386E+02  0.51052428903E+02 -0.22642927034E+03  0.29082951046E+03  0.17300000000E+03 0.  1.
         -6    1    1    2    0  501  0.27861069386E+02 -0.51052428903E+02 -0.22276494283E+03  0.28798577993E+03  0.17300000000E+03 0. -1.
<mgrwt>
<rscale>  2 0.18251463E+03</rscale>
<asrwt>0</asrwt>
<pdfrwt beam="1">  1        2 0.79077651E-01 0.18251463E+03</pdfrwt>
<pdfrwt beam="2">  1       -2 0.99708524E-02 0.18251463E+03</pdfrwt>
<totfact> 0.39472515E+03</totfact>
</mgrwt>
</event>
<event>
 4    2  0.9414654E-001  0.2129401E+03  0.7546771E-02  0.1139259E+00
         -1   -1    0    0    0  501 -0.00000000000E+00  0.00000000000E+00  0.77162564813E+02  0.77162564813E+02  0.00000000000E+00 0. -1.
          1   -1    0    0  502    0  0.00000000000E+00 -0.00000000000E+00 -0.13587969601E+04  0.13587969601E+04  0.00000000000E+00 0.  1.
          6    1    1    2  502    0  0.10680916400E+03  0.63295414464E+02 -0.99929111863E+02  0.23522188335E+03  0.17300000000E+03 0. -1.
         -6    1    1    2    0  501 -0.10680916400E+03 -0.63295414464E+02 -0.11817052834E+04  0.12007376416E+04  0.17300000000E+03 0.  1.
<mgrwt>
<rscale>  2 0.21294015E+03</rscale>
<asrwt>0</asrwt>
<pdfrwt beam="1">  1        1 0.20904566E+00 0.21294015E+03</pdfrwt>
<pdfrwt beam="2">  1       -1 0.11871165E-01 0.21294015E+03</pdfrwt>
<totfact> 0.41975720E+02</totfact>
</mgrwt>
</event>
<event>
 4    2  0.9414654E-001  0.2333544E+03  0.7546771E-02  0.1124301E+00
          2   -1    0    0  502    0  0.00000000000E+00  0.00000000000E+00  0.13283066736E+04  0.13283066736E+04  0.00000000000E+00 0.  1.
         -2   -1    0    0    0  501 -0.00000000000E+00 -0.00000000000E+00 -0.50734463453E+02  0.50734463453E+02  0.00000000000E+00 0. -1.
          6    1    1    2  502    0 -0.15487337407E+03  0.23227835892E+02  0.94089055693E+03  0.96939637635E+03  0.17300000000E+03 0. -1.
         -6    1    1    2    0  501  0.15487337407E+03 -0.23227835892E+02  0.33668165319E+03  0.40964476068E+03  0.17300000000E+03 0. -1.
<mgrwt>
<rscale>  2 0.23335444E+03</rscale>
<asrwt>0</asrwt>
<pdfrwt beam="1">  1        2 0.20435485E+00 0.23335444E+03</pdfrwt>
<pdfrwt beam="2">  1       -2 0.78053031E-02 0.23335444E+03</pdfrwt>
<totfact> 0.16654572E+03</totfact>
</mgrwt>
</event>
<event>
 4    2  0.9414654E-001  0.1813251E+03  0.7546771E-02  0.1166527E+00
          2   -1    0    0  502    0  0.00000000000E+00  0.00000000000E+00  0.26164383901E+04  0.26164383901E+04  0.00000000000E+00 0.  1.
         -2   -1    0    0    0  501 -0.00000000000E+00 -0.00000000000E+00 -0.12805512076E+02  0.12805512076E+02  0.00000000000E+00 0. -1.
          6    1    1    2  502    0 -0.29787026674E+01 -0.54230365218E+02  0.11221180833E+04  0.11366740070E+04  0.17300000000E+03 0. -1.
         -6    1    1    2    0  501  0.29787026674E+01  0.54230365218E+02  0.14815147947E+04  0.14925698952E+04  0.17300000000E+03 0.  1.
<mgrwt>
<rscale>  2 0.18132514E+03</rscale>
<asrwt>0</asrwt>
<pdfrwt beam="1">  1        2 0.40252856E+00 0.18132514E+03</pdfrwt>
<pdfrwt beam="2">  1       -2 0.19700809E-02 0.18132514E+03</pdfrwt>
<totfact> 0.27543154E+03</totfact>
</mgrwt>
</event>
<event>
 4    2  0.9414654E-001  0.3241819E+03  0.7546771E-02  0.1073741E+00
         -2   -1    0    0    0  501 -0.00000000000E+00  0.00000000000E+00  0.25000845900E+03  0.25000845900E+03  0.00000000000E+00 0. -1.
          2   -1    0    0  502    0  0.00000000000E+00 -0.00000000000E+00 -0.44452250018E+03  0.44452250018E+03  0.00000000000E+00 0.  1.
          6    1    1    2  502    0  0.26519525588E+03 -0.69543948647E+02 -0.16296394381E+02  0.32459121523E+03  0.17300000000E+03 0.  1.
         -6    1    1    2    0  501 -0.26519525588E+03  0.69543948647E+02 -0.17821764680E+03  0.36993974396E+03  0.17300000000E+03 0. -1.
<mgrwt>
<rscale>  2 0.32418187E+03</rscale>
<asrwt>0</asrwt>
<pdfrwt beam="1">  1        2 0.68388077E-01 0.32418187E+03</pdfrwt>
<pdfrwt beam="2">  1       -2 0.38462840E-01 0.32418187E+03</pdfrwt>
<totfact> 0.45803706E+02</totfact>
</mgrwt>
</event>
<event>
 4    2  0.9414654E-001  0.2096715E+03  0.7546771E-02  0.1141826E+00
          1   -1    0    0  502    0  0.00000000000E+00  0.00000000000E+00  0.14058818559E+03  0.14058818559E+03  0.00000000000E+00 0.  1.
         -1   -1    0    0    0  501 -0.00000000000E+00 -0.00000000000E+00 -0.32022536219E+03  0.32022536219E+03  0.00000000000E+00 0. -1.
          6    1    1    2  502    0  0.53445125415E+02 -0.10572008923E+03 -0.12513621031E+03  0.24417450692E+03  0.17300000000E+03 0.  1.
         -6    1    1    2    0  501 -0.53445125415E+02  0.10572008923E+03 -0.54500966290E+02  0.21663904086E+03  0.17300000000E+03 0. -1.
<mgrwt>
<rscale>  2 0.20967145E+03</rscale>
<asrwt>0</asrwt>
<pdfrwt beam="1">  1        1 0.21628952E-01 0.20967145E+03</pdfrwt>
<pdfrwt beam="2">  1       -1 0.49265440E-01 0.20967145E+03</pdfrwt>
<totfact> 0.97141860E+02</totfact>
</mgrwt>
</event>
<event>
 4    2  0.9414654E-001  0.2500420E+03  0.7546771E-02  0.1113278E+00
          2   -1    0    0  502    0  0.00000000000E+00  0.00000000000E+00  0.27010946875E+04  0.27010946875E+04  0.00000000000E+00 0.  1.
         -2   -1    0    0    0  501 -0.00000000000E+00 -0.00000000000E+00 -0.28339950551E+02  0.28339950551E+02  0.00000000000E+00 0. -1.
          6    1    1    2  502    0  0.17686473641E+03 -0.36206111472E+02  0.75216713821E+03  0.79263889716E+03  0.17300000000E+03 0. -1.
         -6    1    1    2    0  501 -0.17686473641E+03  0.36206111472E+02  0.19205875988E+04  0.19367957409E+04  0.17300000000E+03 0.  1.
<mgrwt>
<rscale>  2 0.25004203E+03</rscale>
<asrwt>0</asrwt>
<pdfrwt beam="1">  1        2 0.41555282E+00 0.25004203E+03</pdfrwt>
<pdfrwt beam="2">  1       -2 0.43599945E-02 0.25004203E+03</pdfrwt>
<totfact> 0.75102269E+02</totfact>
</mgrwt>
</event>
<event>
 4    2  0.9414654E-001  0.1963752E+03  0.7546771E-02  0.1152834E+00
         -2   -1    0    0    0  501 -0.00000000000E+00  0.00000000000E+00  0.17728153420E+03  0.17728153420E+03  0.00000000000E+00 0.  1.
          2   -1    0    0  502    0  0.00000000000E+00 -0.00000000000E+00 -0.21822047397E+03  0.21822047397E+03  0.00000000000E+00 0. -1.
          6    1    1    2  502    0  0.60224042666E+02 -0.70762161807E+02 -0.31630847327E+02  0.19890633313E+03  0.17300000000E+03 0.  1.
         -6    1    1    2    0  501 -0.60224042666E+02  0.70762161807E+02 -0.93080924450E+01  0.19659567504E+03  0.17300000000E+03 0.  1.
<mgrwt>
<rscale>  2 0.19637520E+03</rscale>
<asrwt>0</asrwt>
<pdfrwt beam="1">  1        2 0.33572381E-01 0.19637520E+03</pdfrwt>
<pdfrwt beam="2">  1       -2 0.27274082E-01 0.19637520E+03</pdfrwt>
<totfact> 0.18614787E+03</totfact>
</mgrwt>
</event>
<event>
 4    2  0.9414654E-001  0.1900343E+03  0.7546771E-02  0.1158430E+00
         -1   -1    0    0    0  501 -0.00000000000E+00  0.00000000000E+00  0.40698015913E+02  0.40698015913E+02  0.00000000000E+00 0. -1.
          1   -1    0    0  502    0  0.00000000000E+00 -0.00000000000E+00 -0.93602001474E+03  0.93602001474E+03  0.00000000000E+00 0.  1.
          6    1    1    2  502    0 -0.44308551922E+02 -0.64967444257E+02 -0.55903086656E+03  0.59044773381E+03  0.17300000000E+03 0.  1.
         -6    1    1    2    0  501  0.44308551922E+02  0.64967444257E+02 -0.33629113226E+03  0.38627029684E+03  0.17300000000E+03 0. -1.
<mgrwt>
<rscale>  2 0.19003425E+03</rscale>
<asrwt>0</asrwt>
<pdfrwt beam="1">  1        1 0.14400307E+00 0.19003425E+03</pdfrwt>
<pdfrwt beam="2">  1       -1 0.62612336E-02 0.19003425E+03</pdfrwt>
<totfact> 0.22295631E+03</totfact>
</mgrwt>
</event>
<event>
 4    2  0.9414654E-001  0.2420507E+03  0.7546771E-02  0.1118434E+00
         -1   -1    0    0    0  501 -0.00000000000E+00  0.00000000000E+00  0.90331631868E+02  0.90331631868E+02  0.00000000000E+00 0.  1.
          1   -1    0    0  502    0  0.00000000000E+00 -0.00000000000E+00 -0.65662331485E+03  0.65662331485E+03  0.00000000000E+00 0. -1.
          6    1    1    2  502    0 -0.32227386330E+02 -0.16619544203E+03 -0.32444612268E+03  0.40478860644E+03  0.17300000000E+03 0.  1.
         -6    1    1    2    0  501  0.32227386330E+02  0.16619544203E+03 -0.24184556029E+03  0.34216634027E+03  0.17300000000E+03 0. -1.
<mgrwt>
<rscale>  2 0.24205068E+03</rscale>
<asrwt>0</asrwt>
<pdfrwt beam="1">  1        1 0.10101897E+00 0.24205068E+03</pdfrwt>
<pdfrwt beam="2">  1       -1 0.13897175E-01 0.24205068E+03</pdfrwt>
<totfact> 0.11245784E+03</totfact>
</mgrwt>
</event>
<event>
 4    2  0.9414654E-001  0.1933898E+03  0.7546771E-02  0.1155439E+00
         -2   -1    0    0    0  501 -0.00000000000E+00  0.00000000000E+00  0.45372637503E+02  0.45372637503E+02  0.00000000000E+00 0.  1.
          2   -1    0    0  502    0  0.00000000000E+00 -0.00000000000E+00 -0.92678225446E+03  0.92678225446E+03  0.00000000000E+00 0. -1.
          6    1    1    2  502    0  0.78796894400E+02  0.35520103825E+02 -0.27904972689E+03  0.33951197095E+03  0.17300000000E+03 0.  1.
         -6    1    1    2    0  501 -0.78796894400E+02 -0.35520103825E+02 -0.60235989007E+03  0.63264292101E+03  0.17300000000E+03 0. -1.
<mgrwt>
<rscale>  2 0.19338984E+03</rscale>
<asrwt>0</asrwt>
<pdfrwt beam="1">  1        2 0.14258188E+00 0.19338984E+03</pdfrwt>
<pdfrwt beam="2">  1       -2 0.69804058E-02 0.19338984E+03</pdfrwt>
<totfact> 0.33855058E+03</totfact>
</mgrwt>
</event>
<event>
 4    2  0.9414654E-001  0.1871618E+03  0.7546771E-02  0.1161046E+00
         -1   -1    0    0    0  501 -0.00000000000E+00  0.00000000000E+00  0.16059280220E+03  0.16059280220E+03  0.00000000000E+00 0.  1.
          1   -1    0    0  502    0  0.00000000000E+00 -0.00000000000E+00 -0.12187673009E+04  0.12187673009E+04  0.00000000000E+00 0. -1.
          6    1    1    2  502    0  0.60811175125E+02  0.37450459744E+02 -0.11540100704E+04  0.11690888669E+04  0.17300000000E+03 0. -1.
         -6    1    1    2    0  501 -0.60811175125E+02 -0.37450459744E+02  0.95835571774E+02  0.21027123620E+03  0.17300000000E+03 0.  1.
<mgrwt>
<rscale>  2 0.18716179E+03</rscale>
<asrwt>0</asrwt>
<pdfrwt beam="1">  1        1 0.18750266E+00 0.18716179E+03</pdfrwt>
<pdfrwt beam="2">  1       -1 0.24706586E-01 0.18716179E+03</pdfrwt>
<totfact> 0.16253462E+02</totfact>
</mgrwt>
</event>
<event>
 4    2  0.9414654E-001  0.1824076E+03  0.7546771E-02  0.1165493E+00
          2   -1    0    0  502    0  0.00000000000E+00  0.00000000000E+00  0.18491827564E+04  0.18491827564E+04  0.00000000000E+00 0.  1.
         -2   -1    0    0    0  501 -0.00000000000E+00 -0.00000000000E+00 -0.23911410194E+02  0.23911410194E+02  0.00000000000E+00 0. -1.
          6    1    1    2  502    0 -0.56745991141E+02 -0.11110193092E+02  0.13785709704E+04  0.13905863742E+04  0.17300000000E+03 0.  1.
         -6    1    1    2    0  501  0.56745991141E+02  0.11110193092E+02  0.44670037583E+03  0.48250779234E+03  0.17300000000E+03 0. -1.
<mgrwt>
<rscale>  2 0.18240763E+03</rscale>
<asrwt>0</asrwt>
<pdfrwt beam="1">  1        2 0.28448954E+00 0.18240763E+03</pdfrwt>
<pdfrwt beam="2">  1       -2 0.36786799E-02 0.18240763E+03</pdfrwt>
<totfact> 0.27845139E+03</totfact>
</mgrwt>
</event>
<event>
 4    2  0.9414654E-001  0.2029650E+03  0.7546771E-02  0.1147261E+00
          2   -1    0    0  502    0  0.00000000000E+00  0.00000000000E+00  0.69402230549E+03  0.69402230549E+03  0.00000000000E+00 0.  1.
         -2   -1    0    0    0  501 -0.00000000000E+00 -0.00000000000E+00 -0.76960855065E+02  0.76960855065E+02  0.00000000000E+00 0. -1.
          6    1    1    2  502    0 -0.30557016978E+02  0.10164668898E+03  0.12416117239E+03  0.23793019438E+03  0.17300000000E+03 0. -1.
         -6    1    1    2    0  501  0.30557016978E+02 -0.10164668898E+03  0.49290027803E+03  0.53305296618E+03  0.17300000000E+03 0.  1.
<mgrwt>
<rscale>  2 0.20296497E+03</rscale>
<asrwt>0</asrwt>
<pdfrwt beam="1">  1        2 0.10677266E+00 0.20296497E+03</pdfrwt>
<pdfrwt beam="2">  1       -2 0.11840132E-01 0.20296497E+03</pdfrwt>
<totfact> 0.21282134E+03</totfact>
</mgrwt>
</event>
<event>
 4    2  0.9414654E-001  0.2610616E+03  0.7546771E-02  0.1106507E+00
         -2   -1    0    0    0  501 -0.00000000000E+00  0.00000000000E+00  0.10869233531E+03  0.10869233531E+03  0.00000000000E+00 0. -1.
          2   -1    0    0  502    0  0.00000000000E+00 -0.00000000000E+00 -0.63292125575E+03  0.63292125575E+03  0.00000000000E+00 0.  1.
          6    1    1    2  502    0  0.15809410216E+03 -0.11502342603E+03 -0.29789540692E+03  0.39609949146E+03  0.17300000000E+03 0.  1.
         -6    1    1    2    0  501 -0.15809410216E+03  0.11502342603E+03 -0.22633351352E+03  0.34551409959E+03  0.17300000000E+03 0. -1.
<mgrwt>
<rscale>  2 0.26106155E+03</rscale>
<asrwt>0</asrwt>
<pdfrwt beam="1">  1        2 0.97372501E-01 0.26106155E+03</pdfrwt>
<pdfrwt beam="2">  1       -2 0.16721898E-01 0.26106155E+03</pdfrwt>
<totfact> 0.13515882E+03</totfact>
</mgrwt>
</event>
<event>
 4    2  0.9414654E-001  0.2891476E+03  0.7546771E-02  0.1090795E+00
         -1   -1    0    0    0  501 -0.00000000000E+00  0.00000000000E+00  0.43864388191E+02  0.43864388191E+02  0.00000000000E+00 0. -1.
          1   -1    0    0  502    0  0.00000000000E+00 -0.00000000000E+00 -0.19088455242E+04  0.19088455242E+04  0.00000000000E+00 0.  1.
          6    1    1    2  502    0  0.19827426959E+03 -0.11985263340E+03 -0.97006388347E+03  0.10122402273E+04  0.17300000000E+03 0. -1.
         -6    1    1    2    0  501 -0.19827426959E+03  0.11985263340E+03 -0.89491725253E+03  0.94046968510E+03  0.17300000000E+03 0.  1.
<mgrwt>
<rscale>  2 0.28914761E+03</rscale>
<asrwt>0</asrwt>
<pdfrwt beam="1">  1        1 0.29366855E+00 0.28914761E+03</pdfrwt>
<pdfrwt beam="2">  1       -1 0.67483673E-02 0.28914761E+03</pdfrwt>
<totfact> 0.43099520E+02</totfact>
</mgrwt>
</event>
<event>
 4    2  0.9414654E-001  0.1782986E+03  0.7546771E-02  0.1169460E+00
         -2   -1    0    0    0  501 -0.00000000000E+00  0.00000000000E+00  0.81685229988E+02  0.81685229988E+02  0.00000000000E+00 0.  1.
          2   -1    0    0  502    0  0.00000000000E+00 -0.00000000000E+00 -0.40753181234E+03  0.40753181234E+03  0.00000000000E+00 0. -1.
          6    1    1    2  502    0  0.40920829357E+02  0.13670190914E+02 -0.21482855308E+03  0.27918039977E+03  0.17300000000E+03 0. -1.
         -6    1    1    2    0  501 -0.40920829357E+02 -0.13670190914E+02 -0.11101802927E+03  0.21003664256E+03  0.17300000000E+03 0.  1.
<mgrwt>
<rscale>  2 0.17829859E+03</rscale>
<asrwt>0</asrwt>
<pdfrwt beam="1">  1        2 0.62697203E-01 0.17829859E+03</pdfrwt>
<pdfrwt beam="2">  1       -2 0.12566958E-01 0.17829859E+03</pdfrwt>
<totfact> 0.35143320E+03</totfact>
</mgrwt>
</event>
<event>
 4    2  0.9414654E-001  0.2184800E+03  0.7546771E-02  0.1135021E+00
         -1   -1    0    0    0  501 -0.00000000000E+00  0.00000000000E+00  0.83583634199E+02  0.83583634199E+02  0.00000000000E+00 0. -1.
          1   -1    0    0  502    0  0.00000000000E+00 -0.00000000000E+00 -0.58685470627E+03  0.58685470627E+03  0.00000000000E+00 0.  1.
          6    1    1    2  502    0 -0.57903411914E+01  0.13330788793E+03 -0.19668792969E+03  0.29397221420E+03  0.17300000000E+03 0. -1.
         -6    1    1    2    0  501  0.57903411914E+01 -0.13330788793E+03 -0.30658314238E+03  0.37646612627E+03  0.17300000000E+03 0. -1.
<mgrwt>
<rscale>  2 0.21848002E+03</rscale>
<asrwt>0</asrwt>
<pdfrwt beam="1">  1        1 0.90285338E-01 0.21848002E+03</pdfrwt>
<pdfrwt beam="2">  1       -1 0.12859021E-01 0.21848002E+03</pdfrwt>
<totfact> 0.14863273E+03</totfact>
</mgrwt>
</event>
<event>
 4    2  0.9414654E-001  0.2024147E+03  0.7546771E-02  0.1147718E+00
          2   -1    0    0  502    0  0.00000000000E+00  0.00000000000E+00  0.10587287818E+04  0.10587287818E+04  0.00000000000E+00 0.  1.
         -2   -1    0    0    0  501 -0.00000000000E+00 -0.00000000000E+00 -0.47980849418E+02  0.47980849418E+02  0.00000000000E+00 0. -1.
          6    1    1    2  502    0  0.10260604703E+03  0.22687580393E+02  0.74875536523E+03  0.77563285397E+03  0.17300000000E+03 0.  1.
         -6    1    1    2    0  501 -0.10260604703E+03 -0.22687580393E+02  0.26199256715E+03  0.33107677725E+03  0.17300000000E+03 0. -1.
<mgrwt>
<rscale>  2 0.20241474E+03</rscale>
<asrwt>0</asrwt>
<pdfrwt beam="1">  1        2 0.16288133E+00 0.20241474E+03</pdfrwt>
<pdfrwt beam="2">  1       -2 0.73816699E-02 0.20241474E+03</pdfrwt>
<totfact> 0.25819984E+03</totfact>
</mgrwt>
</event>
<event>
 4    2  0.9414654E-001  0.2889539E+03  0.7546771E-02  0.1090897E+00
          2   -1    0    0  502    0  0.00000000000E+00  0.00000000000E+00  0.79791341119E+03  0.79791341119E+03  0.00000000000E+00 0. -1.
         -2   -1    0    0    0  501 -0.00000000000E+00 -0.00000000000E+00 -0.23283444028E+03  0.23283444028E+03  0.00000000000E+00 0.  1.
          6    1    1    2  502    0  0.76941338204E+02 -0.21827817365E+03  0.66495191748E+03  0.72502095361E+03  0.17300000000E+03 0. -1.
         -6    1    1    2    0  501 -0.76941338204E+02  0.21827817365E+03 -0.99872946570E+02  0.30572689785E+03  0.17300000000E+03 0.  1.
<mgrwt>
<rscale>  2 0.28895386E+03</rscale>
<asrwt>0</asrwt>
<pdfrwt beam="1">  1        2 0.12275591E+00 0.28895386E+03</pdfrwt>
<pdfrwt beam="2">  1       -2 0.35820684E-01 0.28895386E+03</pdfrwt>
<totfact> 0.26352191E+02</totfact>
</mgrwt>
</event>
<event>
 4    2  0.9414654E-001  0.1973067E+03  0.7546771E-02  0.1152031E+00
         -3   -1    0    0    0  501 -0.00000000000E+00  0.00000000000E+00  0.10261941851E+03  0.10261941851E+03  0.00000000000E+00 0.  1.
          3   -1    0    0  502    0  0.00000000000E+00 -0.00000000000E+00 -0.43500472419E+03  0.43500472419E+03  0.00000000000E+00 0. -1.
          6    1    1    2  502    0  0.43774121610E+02  0.84170990122E+02 -0.70052422844E+02  0.20937352088E+03  0.17300000000E+03 0.  1.
         -6    1    1    2    0  501 -0.43774121610E+02 -0.84170990122E+02 -0.26233288284E+03  0.32825062181E+03  0.17300000000E+03 0. -1.
<mgrwt>
<rscale>  2 0.19730669E+03</rscale>
<asrwt>0</asrwt>
<pdfrwt beam="1">  1        3 0.66923804E-01 0.19730669E+03</pdfrwt>
<pdfrwt beam="2">  1       -3 0.15787603E-01 0.19730669E+03</pdfrwt>
<totfact> 0.18158092E+02</totfact>
</mgrwt>
</event>
<event>
 4    2  0.9414654E-001  0.2345445E+03  0.7546771E-02  0.1123481E+00
         -1   -1    0    0    0  501 -0.00000000000E+00  0.00000000000E+00  0.22953670211E+03  0.22953670211E+03  0.00000000000E+00 0.  1.
          1   -1    0    0  502    0  0.00000000000E+00 -0.00000000000E+00 -0.23972481157E+03  0.23972481157E+03  0.00000000000E+00 0. -1.
          6    1    1    2  502    0 -0.15057620255E+03  0.49080742528E+02 -0.89068559308E+01  0.23471353635E+03  0.17300000000E+03 0.  1.
         -6    1    1    2    0  501  0.15057620255E+03 -0.49080742528E+02 -0.12812535312E+01  0.23454797734E+03  0.17300000000E+03 0.  1.
<mgrwt>
<rscale>  2 0.23454448E+03</rscale>
<asrwt>0</asrwt>
<pdfrwt beam="1">  1        1 0.36880740E-01 0.23454448E+03</pdfrwt>
<pdfrwt beam="2">  1       -1 0.35313339E-01 0.23454448E+03</pdfrwt>
<totfact> 0.89737756E+02</totfact>
</mgrwt>
</event>
<event>
 4    2  0.9414654E-001  0.1783150E+03  0.7546771E-02  0.1169444E+00
          1   -1    0    0  502    0  0.00000000000E+00  0.00000000000E+00  0.12505413237E+03  0.12505413237E+03  0.00000000000E+00 0. -1.
         -1   -1    0    0    0  501 -0.00000000000E+00 -0.00000000000E+00 -0.29646462003E+03  0.29646462003E+03  0.00000000000E+00 0.  1.
          6    1    1    2  502    0 -0.43118056027E+02  0.28389432943E+01 -0.61842128537E+01  0.17842217027E+03  0.17300000000E+03 0. -1.
         -6    1    1    2    0  501  0.43118056027E+02 -0.28389432943E+01 -0.16522627481E+03  0.24309658212E+03  0.17300000000E+03 0.  1.
<mgrwt>
<rscale>  2 0.17831496E+03</rscale>
<asrwt>0</asrwt>
<pdfrwt beam="1">  1        1 0.19239097E-01 0.17831496E+03</pdfrwt>
<pdfrwt beam="2">  1       -1 0.45609941E-01 0.17831496E+03</pdfrwt>
<totfact> 0.12950771E+03</totfact>
</mgrwt>
</event>
<event>
 4    2  0.9414654E-001  0.1821029E+03  0.7546771E-02  0.1165783E+00
          2   -1    0    0  502    0  0.00000000000E+00  0.00000000000E+00  0.22817544843E+04  0.22817544843E+04  0.00000000000E+00 0.  1.
         -2   -1    0    0    0  501 -0.00000000000E+00 -0.00000000000E+00 -0.14647510375E+02  0.14647510375E+02  0.00000000000E+00 0. -1.
          6    1    1    2  502    0  0.40501894256E+02  0.39900811457E+02  0.10321758100E+04  0.10481165875E+04  0.17300000000E+03 0. -1.
         -6    1    1    2    0  501 -0.40501894256E+02 -0.39900811457E+02  0.12349311639E+04  0.12482854072E+04  0.17300000000E+03 0.  1.
<mgrwt>
<rscale>  2 0.18210293E+03</rscale>
<asrwt>0</asrwt>
<pdfrwt beam="1">  1        2 0.35103887E+00 0.18210293E+03</pdfrwt>
<pdfrwt beam="2">  1       -2 0.22534649E-02 0.18210293E+03</pdfrwt>
<totfact> 0.34222054E+03</totfact>
</mgrwt>
</event>
<event>
 4    2  0.9414654E-001  0.3403429E+03  0.7546771E-02  0.1066650E+00
         -1   -1    0    0    0  501 -0.00000000000E+00  0.00000000000E+00  0.25308026024E+03  0.25308026024E+03  0.00000000000E+00 0. -1.
          1   -1    0    0  502    0  0.00000000000E+00 -0.00000000000E+00 -0.93873277502E+03  0.93873277502E+03  0.00000000000E+00 0.  1.
          6    1    1    2  502    0  0.98723597325E+02 -0.27596727139E+03  0.83750556705E+02  0.35049599041E+03  0.17300000000E+03 0. -1.
         -6    1    1    2    0  501 -0.98723597325E+02  0.27596727139E+03 -0.76940307149E+03  0.84131704485E+03  0.17300000000E+03 0.  1.
<mgrwt>
<rscale>  2 0.34034289E+03</rscale>
<asrwt>0</asrwt>
<pdfrwt beam="1">  1        1 0.14442043E+00 0.34034289E+03</pdfrwt>
<pdfrwt beam="2">  1       -1 0.38935424E-01 0.34034289E+03</pdfrwt>
<totfact> 0.11534489E+02</totfact>
</mgrwt>
</event>
<event>
 4    2  0.9414654E-001  0.2064974E+03  0.7546771E-02  0.1144370E+00
          2   -1    0    0  502    0  0.00000000000E+00  0.00000000000E+00  0.29660801926E+02  0.29660801926E+02  0.00000000000E+00 0. -1.
         -2   -1    0    0    0  501 -0.00000000000E+00 -0.00000000000E+00 -0.18459572878E+04  0.18459572878E+04  0.00000000000E+00 0.  1.
          6    1    1    2  502    0  0.39152604194E+02 -0.10573198046E+03 -0.46707649619E+03  0.51068741065E+03  0.17300000000E+03 0. -1.
         -6    1    1    2    0  501 -0.39152604194E+02  0.10573198046E+03 -0.13492199897E+04  0.13649306791E+04  0.17300000000E+03 0.  1.
<mgrwt>
<rscale>  2 0.20649740E+03</rscale>
<asrwt>0</asrwt>
<pdfrwt beam="1">  1        2 0.45631994E-02 0.20649740E+03</pdfrwt>
<pdfrwt beam="2">  1       -2 0.28399348E+00 0.20649740E+03</pdfrwt>
<totfact> 0.80987834E+01</totfact>
</mgrwt>
</event>
<event>
 4    2  0.9414654E-001  0.1844708E+03  0.7546771E-02  0.1163545E+00
         -2   -1    0    0    0  501 -0.00000000000E+00  0.00000000000E+00  0.27449840874E+02  0.27449840874E+02  0.00000000000E+00 0. -1.
          2   -1    0    0  502    0  0.00000000000E+00 -0.00000000000E+00 -0.12426942830E+04  0.12426942830E+04  0.00000000000E+00 0.  1.
          6    1    1    2  502    0  0.30755155801E+02  0.56165682782E+02 -0.57642884397E+03  0.60522696213E+03  0.17300000000E+03 0. -1.
         -6    1    1    2    0  501 -0.30755155801E+02 -0.56165682782E+02 -0.63881559812E+03  0.66491716171E+03  0.17300000000E+03 0.  1.
<mgrwt>
<rscale>  2 0.18447077E+03</rscale>
<asrwt>0</asrwt>
<pdfrwt beam="1">  1        2 0.19118370E+00 0.18447077E+03</pdfrwt>
<pdfrwt beam="2">  1       -2 0.42230532E-02 0.18447077E+03</pdfrwt>
<totfact> 0.47388310E+03</totfact>
</mgrwt>
</event>
<event>
 4    2  0.9414654E-001  0.1841977E+03  0.7546771E-02  0.1163801E+00
          1   -1    0    0  502    0  0.00000000000E+00  0.00000000000E+00  0.97010275298E+03  0.97010275298E+03  0.00000000000E+00 0.  1.
         -1   -1    0    0    0  501 -0.00000000000E+00 -0.00000000000E+00 -0.35064395022E+02  0.35064395022E+02  0.00000000000E+00 0. -1.
          6    1    1    2  502    0 -0.15054948030E+02  0.61425766760E+02  0.44205978014E+03  0.47890043381E+03  0.17300000000E+03 0.  1.
         -6    1    1    2    0  501  0.15054948030E+02 -0.61425766760E+02  0.49297857782E+03  0.52626671419E+03  0.17300000000E+03 0. -1.
<mgrwt>
<rscale>  2 0.18419766E+03</rscale>
<asrwt>0</asrwt>
<pdfrwt beam="1">  1        1 0.14924656E+00 0.18419766E+03</pdfrwt>
<pdfrwt beam="2">  1       -1 0.53945230E-02 0.18419766E+03</pdfrwt>
<totfact> 0.26255991E+03</totfact>
</mgrwt>
</event>
<event>
 4    2  0.9414654E-001  0.3137808E+03  0.7546771E-02  0.1078548E+00
          2   -1    0    0  502    0  0.00000000000E+00  0.00000000000E+00  0.32327043010E+03  0.32327043010E+03  0.00000000000E+00 0. -1.
         -2   -1    0    0    0  501 -0.00000000000E+00 -0.00000000000E+00 -0.67242774124E+03  0.67242774124E+03  0.00000000000E+00 0.  1.
          6    1    1    2  502    0  0.24074100392E+03 -0.10282575660E+03  0.19364785241E+03  0.36872463700E+03  0.17300000000E+03 0. -1.
         -6    1    1    2    0  501 -0.24074100392E+03  0.10282575660E+03 -0.54280516355E+03  0.62697353434E+03  0.17300000000E+03 0.  1.
<mgrwt>
<rscale>  2 0.31378076E+03</rscale>
<asrwt>0</asrwt>
<pdfrwt beam="1">  1        2 0.49733913E-01 0.31378076E+03</pdfrwt>
<pdfrwt beam="2">  1       -2 0.10345042E+00 0.31378076E+03</pdfrwt>
<totfact> 0.80192448E+01</totfact>
</mgrwt>
</event>
<event>
 4    2  0.9414654E-001  0.1935801E+03  0.7546771E-02  0.1155271E+00
          2   -1    0    0  502    0  0.00000000000E+00  0.00000000000E+00  0.74218756222E+03  0.74218756222E+03  0.00000000000E+00 0.  1.
         -2   -1    0    0    0  501 -0.00000000000E+00 -0.00000000000E+00 -0.50908578926E+02  0.50908578926E+02  0.00000000000E+00 0. -1.
          6    1    1    2  502    0 -0.86188211661E+02 -0.10763381321E+02  0.30969407972E+03  0.36521730685E+03  0.17300000000E+03 0. -1.
         -6    1    1    2    0  501  0.86188211661E+02  0.10763381321E+02  0.38158490358E+03  0.42787883431E+03  0.17300000000E+03 0.  1.
<mgrwt>
<rscale>  2 0.19358011E+03</rscale>
<asrwt>0</asrwt>
<pdfrwt beam="1">  1        2 0.11418269E+00 0.19358011E+03</pdfrwt>
<pdfrwt beam="2">  1       -2 0.78320896E-02 0.19358011E+03</pdfrwt>
<totfact> 0.37660083E+03</totfact>
</mgrwt>
</event>
<event>
 4    2  0.9414654E-001  0.2076130E+03  0.7546771E-02  0.1143470E+00
          1   -1    0    0  502    0  0.00000000000E+00  0.00000000000E+00  0.22395606200E+04  0.22395606200E+04  0.00000000000E+00 0.  1.
         -1   -1    0    0    0  501 -0.00000000000E+00 -0.00000000000E+00 -0.21549071021E+02  0.21549071021E+02  0.00000000000E+00 0. -1.
          6    1    1    2  502    0 -0.10857034502E+03 -0.37237470946E+02  0.14785847196E+04  0.14930893885E+04  0.17300000000E+03 0.  1.
         -6    1    1    2    0  501  0.10857034502E+03  0.37237470946E+02  0.73942682942E+03  0.76802030255E+03  0.17300000000E+03 0. -1.
<mgrwt>
<rscale>  2 0.20761298E+03</rscale>
<asrwt>0</asrwt>
<pdfrwt beam="1">  1        1 0.34454760E+00 0.20761298E+03</pdfrwt>
<pdfrwt beam="2">  1       -1 0.33152435E-02 0.20761298E+03</pdfrwt>
<totfact> 0.77224691E+02</totfact>
</mgrwt>
</event>
<event>
 4    2  0.9414654E-001  0.1736594E+03  0.7546771E-02  0.1174085E+00
         -2   -1    0    0    0  501 -0.00000000000E+00  0.00000000000E+00  0.18964509580E+02  0.18964509580E+02  0.00000000000E+00 0. -1.
          2   -1    0    0  502    0  0.00000000000E+00 -0.00000000000E+00 -0.21170024575E+04  0.21170024575E+04  0.00000000000E+00 0.  1.
          6    1    1    2  502    0 -0.13155998672E+02  0.74495095791E+01 -0.15817685780E+04  0.15912728898E+04  0.17300000000E+03 0.  1.
         -6    1    1    2    0  501  0.13155998672E+02 -0.74495095791E+01 -0.51626936987E+03  0.54469407722E+03  0.17300000000E+03 0. -1.
<mgrwt>
<rscale>  2 0.17365937E+03</rscale>
<asrwt>0</asrwt>
<pdfrwt beam="1">  1        2 0.32569259E+00 0.17365937E+03</pdfrwt>
<pdfrwt beam="2">  1       -2 0.29176177E-02 0.17365937E+03</pdfrwt>
<totfact> 0.28547841E+03</totfact>
</mgrwt>
</event>
<event>
 4    2  0.9414654E-001  0.1861464E+03  0.7546771E-02  0.1161984E+00
         -1   -1    0    0    0  501 -0.00000000000E+00  0.00000000000E+00  0.57387329962E+02  0.57387329962E+02  0.00000000000E+00 0.  1.
          1   -1    0    0  502    0  0.00000000000E+00 -0.00000000000E+00 -0.74558276845E+03  0.74558276845E+03  0.00000000000E+00 0. -1.
          6    1    1    2  502    0 -0.48941627236E+02 -0.48230638009E+02 -0.51917628187E+03  0.55153829330E+03  0.17300000000E+03 0. -1.
         -6    1    1    2    0  501  0.48941627236E+02  0.48230638009E+02 -0.16901915662E+03  0.25143180512E+03  0.17300000000E+03 0.  1.
<mgrwt>
<rscale>  2 0.18614639E+03</rscale>
<asrwt>0</asrwt>
<pdfrwt beam="1">  1        1 0.11470503E+00 0.18614639E+03</pdfrwt>
<pdfrwt beam="2">  1       -1 0.88288208E-02 0.18614639E+03</pdfrwt>
<totfact> 0.18868622E+03</totfact>
</mgrwt>
</event>
<event>
 4    2  0.9414654E-001  0.1960592E+03  0.7546771E-02  0.1153107E+00
          2   -1    0    0  502    0  0.00000000000E+00  0.00000000000E+00  0.24102279500E+03  0.24102279500E+03  0.00000000000E+00 0. -1.
         -2   -1    0    0    0  501 -0.00000000000E+00 -0.00000000000E+00 -0.18519439641E+03  0.18519439641E+03  0.00000000000E+00 0.  1.
          6    1    1    2  502    0  0.91569086304E+02 -0.11194184517E+02 -0.51490089356E+02  0.20270776166E+03  0.17300000000E+03 0.  1.
         -6    1    1    2    0  501 -0.91569086304E+02  0.11194184517E+02  0.10731848795E+03  0.22350942976E+03  0.17300000000E+03 0.  1.
<mgrwt>
<rscale>  2 0.19605919E+03</rscale>
<asrwt>0</asrwt>
<pdfrwt beam="1">  1        2 0.37080430E-01 0.19605919E+03</pdfrwt>
<pdfrwt beam="2">  1       -2 0.28491446E-01 0.19605919E+03</pdfrwt>
<totfact> 0.15457848E+03</totfact>
</mgrwt>
</event>
<event>
 4    2  0.9414654E-001  0.2441082E+03  0.7546771E-02  0.1117086E+00
          2   -1    0    0  502    0  0.00000000000E+00  0.00000000000E+00  0.12507416683E+04  0.12507416683E+04  0.00000000000E+00 0.  1.
         -2   -1    0    0    0  501 -0.00000000000E+00 -0.00000000000E+00 -0.49210994862E+02  0.49210994862E+02  0.00000000000E+00 0. -1.
          6    1    1    2  502    0  0.15527809831E+03 -0.74488530624E+02  0.48473617258E+03  0.54273196517E+03  0.17300000000E+03 0.  1.
         -6    1    1    2    0  501 -0.15527809831E+03  0.74488530624E+02  0.71679450087E+03  0.75722069800E+03  0.17300000000E+03 0.  1.
<mgrwt>
<rscale>  2 0.24410823E+03</rscale>
<asrwt>0</asrwt>
<pdfrwt beam="1">  1        2 0.19242177E+00 0.24410823E+03</pdfrwt>
<pdfrwt beam="2">  1       -2 0.75709232E-02 0.24410823E+03</pdfrwt>
<totfact> 0.19279544E+03</totfact>
</mgrwt>
</event>
<event>
 4    2  0.9414654E-001  0.2000686E+03  0.7546771E-02  0.1149681E+00
         -1   -1    0    0    0  501 -0.00000000000E+00  0.00000000000E+00  0.89115010377E+03  0.89115010377E+03  0.00000000000E+00 0. -1.
          1   -1    0    0  502    0  0.00000000000E+00 -0.00000000000E+00 -0.58451657205E+02  0.58451657205E+02  0.00000000000E+00 0.  1.
          6    1    1    2  502    0  0.59969392157E+02 -0.80635608799E+02  0.18787184357E+03  0.27445083168E+03  0.17300000000E+03 0.  1.
         -6    1    1    2    0  501 -0.59969392157E+02  0.80635608799E+02  0.64482660299E+03  0.67515092930E+03  0.17300000000E+03 0. -1.
<mgrwt>
<rscale>  2 0.20006856E+03</rscale>
<asrwt>0</asrwt>
<pdfrwt beam="1">  1        1 0.89925633E-02 0.20006856E+03</pdfrwt>
<pdfrwt beam="2">  1       -1 0.13710001E+00 0.20006856E+03</pdfrwt>
<totfact> 0.35425382E+02</totfact>
</mgrwt>
</event>
<event>
 4    2  0.9414654E-001  0.1975862E+03  0.7546771E-02  0.1151792E+00
          2   -1    0    0  502    0  0.00000000000E+00  0.00000000000E+00  0.33383288581E+03  0.33383288581E+03  0.00000000000E+00 0. -1.
         -2   -1    0    0    0  501 -0.00000000000E+00 -0.00000000000E+00 -0.12028749837E+03  0.12028749837E+03  0.00000000000E+00 0.  1.
          6    1    1    2  502    0 -0.66173462419E+02 -0.68792333741E+02  0.14461891049E+03  0.24485698189E+03  0.17300000000E+03 0. -1.
         -6    1    1    2    0  501  0.66173462419E+02  0.68792333741E+02  0.68926476952E+02  0.20926340228E+03  0.17300000000E+03 0.  1.
<mgrwt>
<rscale>  2 0.19758621E+03</rscale>
<asrwt>0</asrwt>
<pdfrwt beam="1">  1        2 0.51358905E-01 0.19758621E+03</pdfrwt>
<pdfrwt beam="2">  1       -2 0.18505769E-01 0.19758621E+03</pdfrwt>
<totfact> 0.23089143E+03</totfact>
</mgrwt>
</event>
<event>
 4    2  0.9414654E-001  0.1913684E+03  0.7546771E-02  0.1157233E+00
          2   -1    0    0  502    0  0.00000000000E+00  0.00000000000E+00  0.22764793879E+04  0.22764793879E+04  0.00000000000E+00 0. -1.
         -2   -1    0    0    0  501 -0.00000000000E+00 -0.00000000000E+00 -0.16391649361E+02  0.16391649361E+02  0.00000000000E+00 0.  1.
          6    1    1    2  502    0  0.81316002072E+02  0.89757956780E+01  0.97376626838E+03  0.99239236320E+03  0.17300000000E+03 0. -1.
         -6    1    1    2    0  501 -0.81316002072E+02 -0.89757956780E+01  0.12863214702E+04  0.13004786741E+04  0.17300000000E+03 0.  1.
<mgrwt>
<rscale>  2 0.19136838E+03</rscale>
<asrwt>0</asrwt>
<pdfrwt beam="1">  1        2 0.35022735E+00 0.19136838E+03</pdfrwt>
<pdfrwt beam="2">  1       -2 0.25217940E-02 0.19136838E+03</pdfrwt>
<totfact> 0.29178243E+03</totfact>
</mgrwt>
</event>
<event>
 4    2  0.9414654E-001  0.2307553E+03  0.7546771E-02  0.1126109E+00
         -1   -1    0    0    0  501 -0.00000000000E+00  0.00000000000E+00  0.45602712068E+02  0.45602712068E+02  0.00000000000E+00 0. -1.
          1   -1    0    0  502    0  0.00000000000E+00 -0.00000000000E+00 -0.11915610732E+04  0.11915610732E+04  0.00000000000E+00 0.  1.
          6    1    1    2  502    0 -0.15267678010E+03 -0.29680130809E+01 -0.48535211301E+03  0.53741481361E+03  0.17300000000E+03 0. -1.
         -6    1    1    2    0  501  0.15267678010E+03  0.29680130809E+01 -0.66060624816E+03  0.69974897170E+03  0.17300000000E+03 0.  1.
<mgrwt>
<rscale>  2 0.23075530E+03</rscale>
<asrwt>0</asrwt>
<pdfrwt beam="1">  1        1 0.18331709E+00 0.23075530E+03</pdfrwt>
<pdfrwt beam="2">  1       -1 0.70158020E-02 0.23075530E+03</pdfrwt>
<totfact> 0.12245441E+03</totfact>
</mgrwt>
</event>
<event>
 4    2  0.9414654E-001  0.5977575E+03  0.7546771E-02  0.9910069E-01
         -2   -1    0    0    0  501 -0.00000000000E+00  0.00000000000E+00  0.41142597224E+03  0.41142597224E+03  0.00000000000E+00 0.  1.
          2   -1    0    0  502    0  0.00000000000E+00 -0.00000000000E+00 -0.89409964442E+03  0.89409964442E+03  0.00000000000E+00 0. -1.
          6    1    1    2  502    0  0.35992863346E+03  0.44478805201E+03 -0.13083394847E+03  0.61190812584E+03  0.17300000000E+03 0.  1.
         -6    1    1    2    0  501 -0.35992863346E+03 -0.44478805201E+03 -0.35183972370E+03  0.69361749082E+03  0.17300000000E+03 0. -1.
<mgrwt>
<rscale>  2 0.59775750E+03</rscale>
<asrwt>0</asrwt>
<pdfrwt beam="1">  1        2 0.13755379E+00 0.59775750E+03</pdfrwt>
<pdfrwt beam="2">  1       -2 0.63296304E-01 0.59775750E+03</pdfrwt>
<totfact> 0.70252550E+01</totfact>
</mgrwt>
</event>
<event>
 4    2  0.9414654E-001  0.1747685E+03  0.7546771E-02  0.1172964E+00
         -3   -1    0    0    0  501 -0.00000000000E+00  0.00000000000E+00  0.20505552951E+02  0.20505552951E+02  0.00000000000E+00 0.  1.
          3   -1    0    0  502    0  0.00000000000E+00 -0.00000000000E+00 -0.15207372813E+04  0.15207372813E+04  0.00000000000E+00 0. -1.
          6    1    1    2  502    0 -0.11649393113E+02  0.21893665403E+02 -0.86047405910E+03  0.87804307829E+03  0.17300000000E+03 0. -1.
         -6    1    1    2    0  501  0.11649393113E+02 -0.21893665403E+02 -0.63975766921E+03  0.66319975592E+03  0.17300000000E+03 0. -1.
<mgrwt>
<rscale>  2 0.17476854E+03</rscale>
<asrwt>0</asrwt>
<pdfrwt beam="1">  1        3 0.23395953E+00 0.17476854E+03</pdfrwt>
<pdfrwt beam="2">  1       -3 0.31547011E-02 0.17476854E+03</pdfrwt>
<totfact> 0.11666738E+02</totfact>
</mgrwt>
</event>
<event>
 4    2  0.9414654E-001  0.2358508E+03  0.7546771E-02  0.1122588E+00
         -2   -1    0    0    0  501 -0.00000000000E+00  0.00000000000E+00  0.59463353975E+02  0.59463353975E+02  0.00000000000E+00 0.  1.
          2   -1    0    0  502    0  0.00000000000E+00 -0.00000000000E+00 -0.12823775028E+04  0.12823775028E+04  0.00000000000E+00 0. -1.
          6    1    1    2  502    0 -0.77409151195E+02 -0.14037240132E+03 -0.96041751024E+03  0.98895266910E+03  0.17300000000E+03 0. -1.
         -6    1    1    2    0  501  0.77409151195E+02  0.14037240132E+03 -0.26249663862E+03  0.35288818771E+03  0.17300000000E+03 0.  1.
<mgrwt>
<rscale>  2 0.23585077E+03</rscale>
<asrwt>0</asrwt>
<pdfrwt beam="1">  1        2 0.19728883E+00 0.23585077E+03</pdfrwt>
<pdfrwt beam="2">  1       -2 0.91482090E-02 0.23585077E+03</pdfrwt>
<totfact> 0.13757666E+03</totfact>
</mgrwt>
</event>
<event>
 4    2  0.9414654E-001  0.1832446E+03  0.7546771E-02  0.1164699E+00
          1   -1    0    0  502    0  0.00000000000E+00  0.00000000000E+00  0.10043122860E+04  0.10043122860E+04  0.00000000000E+00 0. -1.
         -1   -1    0    0    0  501 -0.00000000000E+00 -0.00000000000E+00 -0.34485533361E+02  0.34485533361E+02  0.00000000000E+00 0.  1.
          6    1    1    2  502    0 -0.37662175315E+02  0.47235171829E+02  0.57559241369E+03  0.60405730490E+03  0.17300000000E+03 0. -1.
         -6    1    1    2    0  501  0.37662175315E+02 -0.47235171829E+02  0.39423433897E+03  0.43474051448E+03  0.17300000000E+03 0.  1.
<mgrwt>
<rscale>  2 0.18324465E+03</rscale>
<asrwt>0</asrwt>
<pdfrwt beam="1">  1        1 0.15450956E+00 0.18324465E+03</pdfrwt>
<pdfrwt beam="2">  1       -1 0.53054674E-02 0.18324465E+03</pdfrwt>
<totfact> 0.25381762E+03</totfact>
</mgrwt>
</event>
<event>
 4    2  0.9414654E-001  0.2268336E+03  0.7546771E-02  0.1128888E+00
         -2   -1    0    0    0  501 -0.00000000000E+00  0.00000000000E+00  0.16369611719E+03  0.16369611719E+03  0.00000000000E+00 0. -1.
          2   -1    0    0  502    0  0.00000000000E+00 -0.00000000000E+00 -0.40407086173E+03  0.40407086173E+03  0.00000000000E+00 0.  1.
          6    1    1    2  502    0 -0.14648236141E+03 -0.82091454425E+01  0.13602476401E+02  0.22724106063E+03  0.17300000000E+03 0. -1.
         -6    1    1    2    0  501  0.14648236141E+03  0.82091454425E+01 -0.25397722094E+03  0.34052591829E+03  0.17300000000E+03 0.  1.
<mgrwt>
<rscale>  2 0.22683358E+03</rscale>
<asrwt>0</asrwt>
<pdfrwt beam="1">  1        2 0.62164748E-01 0.22683358E+03</pdfrwt>
<pdfrwt beam="2">  1       -2 0.25184018E-01 0.22683358E+03</pdfrwt>
<totfact> 0.11066356E+03</totfact>
</mgrwt>
</event>
<event>
 4    2  0.9414654E-001  0.2382706E+03  0.7546771E-02  0.1120950E+00
         -1   -1    0    0    0  501 -0.00000000000E+00  0.00000000000E+00  0.44182301962E+03  0.44182301962E+03  0.00000000000E+00 0.  1.
          1   -1    0    0  502    0  0.00000000000E+00 -0.00000000000E+00 -0.15239399257E+03  0.15239399257E+03  0.00000000000E+00 0. -1.
          6    1    1    2  502    0  0.98094809724E+02  0.13122996197E+03  0.26236766549E+03  0.35441456870E+03  0.17300000000E+03 0.  1.
         -6    1    1    2    0  501 -0.98094809724E+02 -0.13122996197E+03  0.27061361563E+02  0.23980244349E+03  0.17300000000E+03 0.  1.
<mgrwt>
<rscale>  2 0.23827063E+03</rscale>
<asrwt>0</asrwt>
<pdfrwt beam="1">  1        1 0.23445230E-01 0.23827063E+03</pdfrwt>
<pdfrwt beam="2">  1       -1 0.67972772E-01 0.23827063E+03</pdfrwt>
<totfact> 0.47443051E+02</totfact>
</mgrwt>
</event>
<event>
 4    2  0.9414654E-001  0.1875143E+03  0.7546771E-02  0.1160723E+00
         -1   -1    0    0    0  501 -0.00000000000E+00  0.00000000000E+00  0.30830767335E+02  0.30830767335E+02  0.00000000000E+00 0.  1.
          1   -1    0    0  502    0  0.00000000000E+00 -0.00000000000E+00 -0.25071941640E+04  0.25071941640E+04  0.00000000000E+00 0. -1.
          6    1    1    2  502    0  0.40317129309E+02 -0.60059605762E+02 -0.30124117821E+03  0.35483499631E+03  0.17300000000E+03 0.  1.
         -6    1    1    2    0  501 -0.40317129309E+02  0.60059605762E+02 -0.21751222184E+04  0.21831899350E+04  0.17300000000E+03 0. -1.
<mgrwt>
<rscale>  2 0.18751434E+03</rscale>
<asrwt>0</asrwt>
<pdfrwt beam="1">  1        1 0.38572216E+00 0.18751434E+03</pdfrwt>
<pdfrwt beam="2">  1       -1 0.47431952E-02 0.18751434E+03</pdfrwt>
<totfact> 0.30492985E+02</totfact>
</mgrwt>
</event>
<event>
 4    2  0.9414654E-001  0.2470494E+03  0.7546771E-02  0.1115184E+00
          1   -1    0    0  502    0  0.00000000000E+00  0.00000000000E+00  0.59777399128E+03  0.59777399128E+03  0.00000000000E+00 0. -1.
         -1   -1    0    0    0  501 -0.00000000000E+00 -0.00000000000E+00 -0.11992487620E+03  0.11992487620E+03  0.00000000000E+00 0.  1.
          6    1    1    2  502    0 -0.50433395873E+02  0.16899963405E+03  0.37726751140E+03  0.45095917652E+03  0.17300000000E+03 0. -1.
         -6    1    1    2    0  501  0.50433395873E+02 -0.16899963405E+03  0.10058160368E+03  0.26673969095E+03  0.17300000000E+03 0.  1.
<mgrwt>
<rscale>  2 0.24704940E+03</rscale>
<asrwt>0</asrwt>
<pdfrwt beam="1">  1        1 0.91965228E-01 0.24704940E+03</pdfrwt>
<pdfrwt beam="2">  1       -1 0.18449981E-01 0.24704940E+03</pdfrwt>
<totfact> 0.81610582E+02</totfact>
</mgrwt>
</event>
<event>
 4    2  0.9414654E-001  0.1736033E+03  0.7546771E-02  0.1174141E+00
          2   -1    0    0  502    0  0.00000000000E+00  0.00000000000E+00  0.19289565804E+04  0.19289565804E+04  0.00000000000E+00 0.  1.
         -2   -1    0    0    0  501 -0.00000000000E+00 -0.00000000000E+00 -0.17893432705E+02  0.17893432705E+02  0.00000000000E+00 0. -1.
          6    1    1    2  502    0  0.12537941828E+02 -0.72057281567E+01  0.60886727508E+03  0.63313306751E+03  0.17300000000E+03 0. -1.
         -6    1    1    2    0  501 -0.12537941828E+02  0.72057281567E+01  0.13021958726E+04  0.13137169456E+04  0.17300000000E+03 0.  1.
<mgrwt>
<rscale>  2 0.17360335E+03</rscale>
<asrwt>0</asrwt>
<pdfrwt beam="1">  1        2 0.29676239E+00 0.17360335E+03</pdfrwt>
<pdfrwt beam="2">  1       -2 0.27528373E-02 0.17360335E+03</pdfrwt>
<totfact> 0.38924018E+03</totfact>
</mgrwt>
</event>
<event>
 4    2  0.9414654E-001  0.1771948E+03  0.7546771E-02  0.1170546E+00
         -2   -1    0    0    0  501 -0.00000000000E+00  0.00000000000E+00  0.21853534243E+02  0.21853534243E+02  0.00000000000E+00 0.  1.
          2   -1    0    0  502    0  0.00000000000E+00 -0.00000000000E+00 -0.14401663210E+04  0.14401663210E+04  0.00000000000E+00 0. -1.
          6    1    1    2  502    0 -0.34859054969E+02  0.15932817304E+02 -0.74477376301E+03  0.76556251635E+03  0.17300000000E+03 0. -1.
         -6    1    1    2    0  501  0.34859054969E+02 -0.15932817304E+02 -0.67353902375E+03  0.69645733889E+03  0.17300000000E+03 0. -1.
<mgrwt>
<rscale>  2 0.17719483E+03</rscale>
<asrwt>0</asrwt>
<pdfrwt beam="1">  1        2 0.22156418E+00 0.17719483E+03</pdfrwt>
<pdfrwt beam="2">  1       -2 0.33620802E-02 0.17719483E+03</pdfrwt>
<totfact> 0.52013764E+03</totfact>
</mgrwt>
</event>
<event>
 4    2  0.9414654E-001  0.5432273E+03  0.7546771E-02  0.1003074E+00
         -4   -1    0    0    0  501 -0.00000000000E+00  0.00000000000E+00  0.15870547202E+03  0.15870547202E+03  0.00000000000E+00 0. -1.
          4   -1    0    0  502    0  0.00000000000E+00 -0.00000000000E+00 -0.18594691461E+04  0.18594691461E+04  0.00000000000E+00 0.  1.
          6    1    1    2  502    0  0.39844985461E+03  0.32619718888E+03 -0.85682615215E+03  0.10145180864E+04  0.17300000000E+03 0. -1.
         -6    1    1    2    0  501 -0.39844985461E+03 -0.32619718888E+03 -0.84393752191E+03  0.10036565317E+04  0.17300000000E+03 0.  1.
<mgrwt>
<rscale>  2 0.54322729E+03</rscale>
<asrwt>0</asrwt>
<pdfrwt beam="1">  1        4 0.28607218E+00 0.54322729E+03</pdfrwt>
<pdfrwt beam="2">  1       -4 0.24416226E-01 0.54322729E+03</pdfrwt>
<totfact> 0.12299103E+00</totfact>
</mgrwt>
</event>
<event>
 4    2  0.9414654E-001  0.2128012E+03  0.7546771E-02  0.1139367E+00
          1   -1    0    0  502    0  0.00000000000E+00  0.00000000000E+00  0.56872045422E+03  0.56872045422E+03  0.00000000000E+00 0.  1.
         -1   -1    0    0    0  501 -0.00000000000E+00 -0.00000000000E+00 -0.80327816059E+02  0.80327816059E+02  0.00000000000E+00 0. -1.
          6    1    1    2  502    0  0.10707609492E+03 -0.62370401057E+02  0.21384064909E+03  0.30168225045E+03  0.17300000000E+03 0. -1.
         -6    1    1    2    0  501 -0.10707609492E+03  0.62370401057E+02  0.27455198907E+03  0.34736601983E+03  0.17300000000E+03 0.  1.
<mgrwt>
<rscale>  2 0.21280121E+03</rscale>
<asrwt>0</asrwt>
<pdfrwt beam="1">  1        1 0.87495452E-01 0.21280121E+03</pdfrwt>
<pdfrwt beam="2">  1       -1 0.12358126E-01 0.21280121E+03</pdfrwt>
<totfact> 0.16506167E+03</totfact>
</mgrwt>
</event>
<event>
 4    2  0.9414654E-001  0.2296498E+03  0.7546771E-02  0.1126886E+00
         -2   -1    0    0    0  501 -0.00000000000E+00  0.00000000000E+00  0.89462113381E+02  0.89462113381E+02  0.00000000000E+00 0.  1.
          2   -1    0    0  502    0  0.00000000000E+00 -0.00000000000E+00 -0.60782834392E+03  0.60782834392E+03  0.00000000000E+00 0. -1.
          6    1    1    2  502    0 -0.29273858537E+02  0.14816574242E+03 -0.31970398233E+03  0.39363648502E+03  0.17300000000E+03 0. -1.
         -6    1    1    2    0  501  0.29273858537E+02 -0.14816574242E+03 -0.19866224821E+03  0.30365397228E+03  0.17300000000E+03 0. -1.
<mgrwt>
<rscale>  2 0.22964983E+03</rscale>
<asrwt>0</asrwt>
<pdfrwt beam="1">  1        2 0.93512056E-01 0.22964983E+03</pdfrwt>
<pdfrwt beam="2">  1       -2 0.13763402E-01 0.22964983E+03</pdfrwt>
<totfact> 0.19542792E+03</totfact>
</mgrwt>
</event>
<event>
 4    2  0.9414654E-001  0.1800762E+03  0.7546771E-02  0.1167729E+00
          1   -1    0    0  502    0  0.00000000000E+00  0.00000000000E+00  0.18707482337E+04  0.18707482337E+04  0.00000000000E+00 0.  1.
         -1   -1    0    0    0  501 -0.00000000000E+00 -0.00000000000E+00 -0.35829871963E+02  0.35829871963E+02  0.00000000000E+00 0. -1.
          6    1    1    2  502    0  0.39753948865E+02  0.30299495693E+02  0.16023795755E+04  0.16124663531E+04  0.17300000000E+03 0.  1.
         -6    1    1    2    0  501 -0.39753948865E+02 -0.30299495693E+02  0.23253878621E+03  0.29411175254E+03  0.17300000000E+03 0. -1.
<mgrwt>
<rscale>  2 0.18007619E+03</rscale>
<asrwt>0</asrwt>
<pdfrwt beam="1">  1        1 0.28780735E+00 0.18007619E+03</pdfrwt>
<pdfrwt beam="2">  1       -1 0.55122894E-02 0.18007619E+03</pdfrwt>
<totfact> 0.63017189E+02</totfact>
</mgrwt>
</event>
<event>
 4    2  0.9414654E-001  0.2749219E+03  0.7546771E-02  0.1098495E+00
         -1   -1    0    0    0  501 -0.00000000000E+00  0.00000000000E+00  0.69288841375E+03  0.69288841375E+03  0.00000000000E+00 0. -1.
          1   -1    0    0  502    0  0.00000000000E+00 -0.00000000000E+00 -0.11648440902E+03  0.11648440902E+03  0.00000000000E+00 0.  1.
          6    1    1    2  502    0 -0.19450657990E+03  0.88432281485E+02  0.18618952237E+03  0.33203707063E+03  0.17300000000E+03 0. -1.
         -6    1    1    2    0  501  0.19450657990E+03 -0.88432281485E+02  0.39021448236E+03  0.47733575214E+03  0.17300000000E+03 0.  1.
<mgrwt>
<rscale>  2 0.27492195E+03</rscale>
<asrwt>0</asrwt>
<pdfrwt beam="1">  1        1 0.17920679E-01 0.27492195E+03</pdfrwt>
<pdfrwt beam="2">  1       -1 0.10659821E+00 0.27492195E+03</pdfrwt>
<totfact> 0.25794659E+02</totfact>
</mgrwt>
</event>
<event>
 4    2  0.9414654E-001  0.2248364E+03  0.7546771E-02  0.1130328E+00
         -4   -1    0    0    0  501 -0.00000000000E+00  0.00000000000E+00  0.21524294994E+04  0.21524294994E+04  0.00000000000E+00 0.  1.
          4   -1    0    0  502    0  0.00000000000E+00 -0.00000000000E+00 -0.30783449751E+02  0.30783449751E+02  0.00000000000E+00 0. -1.
          6    1    1    2  502    0  0.66147995521E+02 -0.12746318037E+03  0.15923196055E+04  0.16081147800E+04  0.17300000000E+03 0.  1.
         -6    1    1    2    0  501 -0.66147995521E+02  0.12746318037E+03  0.52932644416E+03  0.57509816914E+03  0.17300000000E+03 0. -1.
<mgrwt>
<rscale>  2 0.22483643E+03</rscale>
<asrwt>0</asrwt>
<pdfrwt beam="1">  1        4 0.47359170E-02 0.22483643E+03</pdfrwt>
<pdfrwt beam="2">  1       -4 0.33114288E+00 0.22483643E+03</pdfrwt>
<totfact> 0.11249293E+01</totfact>
</mgrwt>
</event>
<event>
 4    2  0.9414654E-001  0.1889134E+03  0.7546771E-02  0.1159445E+00
         -2   -1    0    0    0  501 -0.00000000000E+00  0.00000000000E+00  0.53715447565E+02  0.53715447565E+02  0.00000000000E+00 0. -1.
          2   -1    0    0  502    0  0.00000000000E+00 -0.00000000000E+00 -0.67590283407E+03  0.67590283407E+03  0.00000000000E+00 0.  1.
          6    1    1    2  502    0 -0.59795425794E+02  0.46731058129E+02 -0.35869478095E+03  0.40540132045E+03  0.17300000000E+03 0. -1.
         -6    1    1    2    0  501  0.59795425794E+02 -0.46731058129E+02 -0.26349260555E+03  0.32421696118E+03  0.17300000000E+03 0.  1.
<mgrwt>
<rscale>  2 0.18891343E+03</rscale>
<asrwt>0</asrwt>
<pdfrwt beam="1">  1        2 0.10398505E+00 0.18891343E+03</pdfrwt>
<pdfrwt beam="2">  1       -2 0.82639149E-02 0.18891343E+03</pdfrwt>
<totfact> 0.38754650E+03</totfact>
</mgrwt>
</event>
<event>
 4    2  0.9414654E-001  0.2551624E+03  0.7546771E-02  0.1110085E+00
         -1   -1    0    0    0  501 -0.00000000000E+00  0.00000000000E+00  0.52447139126E+02  0.52447139126E+02  0.00000000000E+00 0.  1.
          1   -1    0    0  502    0  0.00000000000E+00 -0.00000000000E+00 -0.12414057425E+04  0.12414057425E+04  0.00000000000E+00 0. -1.
          6    1    1    2  502    0  0.17640609298E+03  0.63716120263E+02 -0.59592704045E+03  0.64825680958E+03  0.17300000000E+03 0. -1.
         -6    1    1    2    0  501 -0.17640609298E+03 -0.63716120263E+02 -0.59303156294E+03  0.64559607206E+03  0.17300000000E+03 0.  1.
<mgrwt>
<rscale>  2 0.25516241E+03</rscale>
<asrwt>0</asrwt>
<pdfrwt beam="1">  1        1 0.19098550E+00 0.25516241E+03</pdfrwt>
<pdfrwt beam="2">  1       -1 0.80687906E-02 0.25516241E+03</pdfrwt>
<totfact> 0.91231913E+02</totfact>
</mgrwt>
</event>
<event>
 4    2  0.9414654E-001  0.1962820E+03  0.7546771E-02  0.1152914E+00
         -2   -1    0    0    0  501 -0.00000000000E+00  0.00000000000E+00  0.38519004793E+02  0.38519004793E+02  0.00000000000E+00 0. -1.
          2   -1    0    0  502    0  0.00000000000E+00 -0.00000000000E+00 -0.17133475400E+04  0.17133475400E+04  0.00000000000E+00 0.  1.
          6    1    1    2  502    0  0.71152595917E+01 -0.92449938345E+02 -0.27229683970E+03  0.33566677960E+03  0.17300000000E+03 0. -1.
         -6    1    1    2    0  501 -0.71152595917E+01  0.92449938345E+02 -0.14025316955E+04  0.14161997652E+04  0.17300000000E+03 0.  1.
<mgrwt>
<rscale>  2 0.19628199E+03</rscale>
<asrwt>0</asrwt>
<pdfrwt beam="1">  1        2 0.26359187E+00 0.19628199E+03</pdfrwt>
<pdfrwt beam="2">  1       -2 0.59260020E-02 0.19628199E+03</pdfrwt>
<totfact> 0.15937174E+03</totfact>
</mgrwt>
</event>
<event>
 4    2  0.9414654E-001  0.2020593E+03  0.7546771E-02  0.1148013E+00
         -2   -1    0    0    0  501 -0.00000000000E+00  0.00000000000E+00  0.26584629249E+02  0.26584629249E+02  0.00000000000E+00 0.  1.
          2   -1    0    0  502    0  0.00000000000E+00 -0.00000000000E+00 -0.15525725168E+04  0.15525725168E+04  0.00000000000E+00 0. -1.
          6    1    1    2  502    0  0.28936104936E+02 -0.10030781591E+03 -0.84512693945E+03  0.86894620080E+03  0.17300000000E+03 0. -1.
         -6    1    1    2    0  501 -0.28936104936E+02  0.10030781591E+03 -0.68086094811E+03  0.71021094526E+03  0.17300000000E+03 0.  1.
<mgrwt>
<rscale>  2 0.20205929E+03</rscale>
<asrwt>0</asrwt>
<pdfrwt beam="1">  1        2 0.23885732E+00 0.20205929E+03</pdfrwt>
<pdfrwt beam="2">  1       -2 0.40899429E-02 0.20205929E+03</pdfrwt>
<totfact> 0.33916973E+03</totfact>
</mgrwt>
</event>
<event>
 4    2  0.9414654E-001  0.2032883E+03  0.7546771E-02  0.1146994E+00
         -2   -1    0    0    0  501 -0.00000000000E+00  0.00000000000E+00  0.56268685573E+02  0.56268685573E+02  0.00000000000E+00 0.  1.
          2   -1    0    0  502    0  0.00000000000E+00 -0.00000000000E+00 -0.75744204707E+03  0.75744204707E+03  0.00000000000E+00 0. -1.
          6    1    1    2  502    0 -0.85406706069E+02 -0.64053267511E+02 -0.27969048987E+03  0.34576422117E+03  0.17300000000E+03 0.  1.
         -6    1    1    2    0  501  0.85406706069E+02  0.64053267511E+02 -0.42148287162E+03  0.46794651146E+03  0.17300000000E+03 0.  1.
<mgrwt>
<rscale>  2 0.20328828E+03</rscale>
<asrwt>0</asrwt>
<pdfrwt beam="1">  1        2 0.11652954E+00 0.20328828E+03</pdfrwt>
<pdfrwt beam="2">  1       -2 0.86567210E-02 0.20328828E+03</pdfrwt>
<totfact> 0.31454315E+03</totfact>
</mgrwt>
</event>
<event>
 4    2  0.9414654E-001  0.1762214E+03  0.7546771E-02  0.1171511E+00
          1   -1    0    0  502    0  0.00000000000E+00  0.00000000000E+00  0.28196216392E+03  0.28196216392E+03  0.00000000000E+00 0.  1.
         -1   -1    0    0    0  501 -0.00000000000E+00 -0.00000000000E+00 -0.21717265797E+03  0.21717265797E+03  0.00000000000E+00 0. -1.
          6    1    1    2  502    0  0.52567751248E+01 -0.33126268268E+02 -0.14281287930E+03  0.22682482631E+03  0.17300000000E+03 0. -1.
         -6    1    1    2    0  501 -0.52567751248E+01  0.33126268268E+02  0.20760238525E+03  0.27230999558E+03  0.17300000000E+03 0.  1.
<mgrwt>
<rscale>  2 0.17622140E+03</rscale>
<asrwt>0</asrwt>
<pdfrwt beam="1">  1        1 0.43378795E-01 0.17622140E+03</pdfrwt>
<pdfrwt beam="2">  1       -1 0.33411178E-01 0.17622140E+03</pdfrwt>
<totfact> 0.80417024E+02</totfact>
</mgrwt>
</event>
<event>
 4    2  0.9414654E-001  0.2550393E+03  0.7546771E-02  0.1110161E+00
          1   -1    0    0  502    0  0.00000000000E+00  0.00000000000E+00  0.11304489556E+03  0.11304489556E+03  0.00000000000E+00 0.  1.
         -1   -1    0    0    0  501 -0.00000000000E+00 -0.00000000000E+00 -0.83165292529E+03  0.83165292529E+03  0.00000000000E+00 0. -1.
          6    1    1    2  502    0 -0.55214087560E+02 -0.17907379666E+03 -0.97103303317E+02  0.27289938005E+03  0.17300000000E+03 0.  1.
         -6    1    1    2    0  501  0.55214087560E+02  0.17907379666E+03 -0.62150472641E+03  0.67179844080E+03  0.17300000000E+03 0. -1.
<mgrwt>
<rscale>  2 0.25503925E+03</rscale>
<asrwt>0</asrwt>
<pdfrwt beam="1">  1        1 0.17391523E-01 0.25503925E+03</pdfrwt>
<pdfrwt beam="2">  1       -1 0.12794660E+00 0.25503925E+03</pdfrwt>
<totfact> 0.17454558E+02</totfact>
</mgrwt>
</event>
<event>
 4    2  0.9414654E-001  0.1766251E+03  0.7546771E-02  0.1171110E+00
         -2   -1    0    0    0  501 -0.00000000000E+00  0.00000000000E+00  0.71521728850E+02  0.71521728850E+02  0.00000000000E+00 0. -1.
          2   -1    0    0  502    0  0.00000000000E+00 -0.00000000000E+00 -0.54067172994E+03  0.54067172994E+03  0.00000000000E+00 0.  1.
          6    1    1    2  502    0  0.99325761226E+01  0.34187129307E+02 -0.10001039692E+03  0.20297412488E+03  0.17300000000E+03 0. -1.
         -6    1    1    2    0  501 -0.99325761226E+01 -0.34187129307E+02 -0.36913960417E+03  0.40921933391E+03  0.17300000000E+03 0.  1.
<mgrwt>
<rscale>  2 0.17662507E+03</rscale>
<asrwt>0</asrwt>
<pdfrwt beam="1">  1        2 0.83180267E-01 0.17662507E+03</pdfrwt>
<pdfrwt beam="2">  1       -2 0.11003343E-01 0.17662507E+03</pdfrwt>
<totfact> 0.31857748E+03</totfact>
</mgrwt>
</event>
<event>
 4    2  0.9414654E-001  0.1893695E+03  0.7546771E-02  0.1159031E+00
          2   -1    0    0  502    0  0.00000000000E+00  0.00000000000E+00  0.37107200537E+03  0.37107200537E+03  0.00000000000E+00 0.  1.
         -2   -1    0    0    0  501 -0.00000000000E+00 -0.00000000000E+00 -0.14764727710E+03  0.14764727710E+03  0.00000000000E+00 0. -1.
          6    1    1    2  502    0 -0.70582157692E+02  0.30821367766E+02  0.26415314584E+03  0.32501951042E+03  0.17300000000E+03 0.  1.
         -6    1    1    2    0  501  0.70582157692E+02 -0.30821367766E+02 -0.40728417575E+02  0.19369977205E+03  0.17300000000E+03 0. -1.
<mgrwt>
<rscale>  2 0.18936947E+03</rscale>
<asrwt>0</asrwt>
<pdfrwt beam="1">  1        2 0.57088001E-01 0.18936947E+03</pdfrwt>
<pdfrwt beam="2">  1       -2 0.22714966E-01 0.18936947E+03</pdfrwt>
<totfact> 0.14494572E+03</totfact>
</mgrwt>
</event>
<event>
 4    2  0.9414654E-001  0.1747653E+03  0.7546771E-02  0.1172968E+00
         -1   -1    0    0    0  501 -0.00000000000E+00  0.00000000000E+00  0.10560853910E+03  0.10560853910E+03  0.00000000000E+00 0. -1.
          1   -1    0    0  502    0  0.00000000000E+00 -0.00000000000E+00 -0.53786427478E+03  0.53786427478E+03  0.00000000000E+00 0.  1.
          6    1    1    2  502    0 -0.11043033434E+01 -0.24752805884E+02  0.26295830353E+01  0.17478511262E+03  0.17300000000E+03 0.  1.
         -6    1    1    2    0  501  0.11043033434E+01  0.24752805884E+02 -0.43488531871E+03  0.46868770127E+03  0.17300000000E+03 0.  1.
<mgrwt>
<rscale>  2 0.17476533E+03</rscale>
<asrwt>0</asrwt>
<pdfrwt beam="1">  1        1 0.82748349E-01 0.17476533E+03</pdfrwt>
<pdfrwt beam="2">  1       -1 0.16247468E-01 0.17476533E+03</pdfrwt>
<totfact> 0.11539749E+03</totfact>
</mgrwt>
</event>
<event>
 4    2  0.9414654E-001  0.2146456E+03  0.7546771E-02  0.1137939E+00
          1   -1    0    0  502    0  0.00000000000E+00  0.00000000000E+00  0.54121263183E+03  0.54121263183E+03  0.00000000000E+00 0.  1.
         -1   -1    0    0    0  501 -0.00000000000E+00 -0.00000000000E+00 -0.91020157083E+02  0.91020157083E+02  0.00000000000E+00 0. -1.
          6    1    1    2  502    0  0.12671490664E+03 -0.93320514752E+01  0.14467185186E+03  0.25884879654E+03  0.17300000000E+03 0. -1.
         -6    1    1    2    0  501 -0.12671490664E+03  0.93320514752E+01  0.30552062288E+03  0.37338399237E+03  0.17300000000E+03 0.  1.
<mgrwt>
<rscale>  2 0.21464565E+03</rscale>
<asrwt>0</asrwt>
<pdfrwt beam="1">  1        1 0.83263480E-01 0.21464565E+03</pdfrwt>
<pdfrwt beam="2">  1       -1 0.14003101E-01 0.21464565E+03</pdfrwt>
<totfact> 0.14510854E+03</totfact>
</mgrwt>
</event>
<event>
 4    2  0.9414654E-001  0.2000888E+03  0.7546771E-02  0.1149664E+00
         -2   -1    0    0    0  501 -0.00000000000E+00  0.00000000000E+00  0.55822681840E+02  0.55822681840E+02  0.00000000000E+00 0. -1.
          2   -1    0    0  502    0  0.00000000000E+00 -0.00000000000E+00 -0.87596543843E+03  0.87596543843E+03  0.00000000000E+00 0.  1.
          6    1    1    2  502    0  0.10003301611E+03 -0.99957185590E+01 -0.60842225992E+03  0.64047885607E+03  0.17300000000E+03 0.  1.
         -6    1    1    2    0  501 -0.10003301611E+03  0.99957185590E+01 -0.21172049667E+03  0.29130926420E+03  0.17300000000E+03 0. -1.
<mgrwt>
<rscale>  2 0.20008878E+03</rscale>
<asrwt>0</asrwt>
<pdfrwt beam="1">  1        2 0.13476391E+00 0.20008878E+03</pdfrwt>
<pdfrwt beam="2">  1       -2 0.85881050E-02 0.20008878E+03</pdfrwt>
<totfact> 0.26454938E+03</totfact>
</mgrwt>
</event>
<event>
 4    2  0.9414654E-001  0.1896490E+03  0.7546771E-02  0.1158778E+00
         -2   -1    0    0    0  501 -0.00000000000E+00  0.00000000000E+00  0.37252236802E+02  0.37252236802E+02  0.00000000000E+00 0. -1.
          2   -1    0    0  502    0  0.00000000000E+00 -0.00000000000E+00 -0.12289777429E+04  0.12289777429E+04  0.00000000000E+00 0.  1.
          6    1    1    2  502    0  0.77394735989E+02  0.69136876873E+01 -0.88901213235E+03  0.90901557506E+03  0.17300000000E+03 0.  1.
         -6    1    1    2    0  501 -0.77394735989E+02 -0.69136876873E+01 -0.30271337374E+03  0.35721440463E+03  0.17300000000E+03 0. -1.
<mgrwt>
<rscale>  2 0.18964900E+03</rscale>
<asrwt>0</asrwt>
<pdfrwt beam="1">  1        2 0.18907354E+00 0.18964900E+03</pdfrwt>
<pdfrwt beam="2">  1       -2 0.57311122E-02 0.18964900E+03</pdfrwt>
<totfact> 0.30406745E+03</totfact>
</mgrwt>
</event>
<event>
 4    2  0.9414654E-001  0.2308977E+03  0.7546771E-02  0.1126009E+00
          2   -1    0    0  502    0  0.00000000000E+00  0.00000000000E+00  0.86940150540E+03  0.86940150540E+03  0.00000000000E+00 0.  1.
         -2   -1    0    0    0  501 -0.00000000000E+00 -0.00000000000E+00 -0.75837953545E+02  0.75837953545E+02  0.00000000000E+00 0. -1.
          6    1    1    2  502    0  0.15038971630E+03  0.27707462899E+02  0.19001267877E+03  0.29902941053E+03  0.17300000000E+03 0.  1.
         -6    1    1    2    0  501 -0.15038971630E+03 -0.27707462899E+02  0.60355087308E+03  0.64621004841E+03  0.17300000000E+03 0. -1.
<mgrwt>
<rscale>  2 0.23089775E+03</rscale>
<asrwt>0</asrwt>
<pdfrwt beam="1">  1        2 0.13375407E+00 0.23089775E+03</pdfrwt>
<pdfrwt beam="2">  1       -2 0.11667378E-01 0.23089775E+03</pdfrwt>
<totfact> 0.16449676E+03</totfact>
</mgrwt>
</event>
<event>
 4    2  0.9414654E-001  0.2647836E+03  0.7546771E-02  0.1104303E+00
          2   -1    0    0  502    0  0.00000000000E+00  0.00000000000E+00  0.22375240193E+04  0.22375240193E+04  0.00000000000E+00 0. -1.
         -2   -1    0    0    0  501 -0.00000000000E+00 -0.00000000000E+00 -0.33367388577E+02  0.33367388577E+02  0.00000000000E+00 0.  1.
          6    1    1    2  502    0  0.15362691741E+03  0.12876378791E+03  0.13823806127E+04  0.14075107464E+04  0.17300000000E+03 0. -1.
         -6    1    1    2    0  501 -0.15362691741E+03 -0.12876378791E+03  0.82177601796E+03  0.86338066143E+03  0.17300000000E+03 0.  1.
<mgrwt>
<rscale>  2 0.26478358E+03</rscale>
<asrwt>0</asrwt>
<pdfrwt beam="1">  1        2 0.34423435E+00 0.26478358E+03</pdfrwt>
<pdfrwt beam="2">  1       -2 0.51334462E-02 0.26478358E+03</pdfrwt>
<totfact> 0.10466485E+03</totfact>
</mgrwt>
</event>
<event>
 4    2  0.9414654E-001  0.2609188E+03  0.7546771E-02  0.1106592E+00
          2   -1    0    0  502    0  0.00000000000E+00  0.00000000000E+00  0.46158658110E+02  0.46158658110E+02  0.00000000000E+00 0.  1.
         -2   -1    0    0    0  501 -0.00000000000E+00 -0.00000000000E+00 -0.15656461028E+04  0.15656461028E+04  0.00000000000E+00 0. -1.
          6    1    1    2  502    0  0.16064063993E+03 -0.11110441758E+03 -0.56570384263E+03  0.62297627914E+03  0.17300000000E+03 0.  1.
         -6    1    1    2    0  501 -0.16064063993E+03  0.11110441758E+03 -0.95378360203E+03  0.98882848175E+03  0.17300000000E+03 0. -1.
<mgrwt>
<rscale>  2 0.26091877E+03</rscale>
<asrwt>0</asrwt>
<pdfrwt beam="1">  1        2 0.71013328E-02 0.26091877E+03</pdfrwt>
<pdfrwt beam="2">  1       -2 0.24086861E+00 0.26091877E+03</pdfrwt>
<totfact> 0.80468162E+01</totfact>
</mgrwt>
</event>
<event>
 4    2  0.9414654E-001  0.1993216E+03  0.7546771E-02  0.1150313E+00
          2   -1    0    0  502    0  0.00000000000E+00  0.00000000000E+00  0.79575550253E+03  0.79575550253E+03  0.00000000000E+00 0.  1.
         -2   -1    0    0    0  501 -0.00000000000E+00 -0.00000000000E+00 -0.56947325068E+02  0.56947325068E+02  0.00000000000E+00 0. -1.
          6    1    1    2  502    0  0.65484197104E+02 -0.74242292568E+02  0.21970041240E+03  0.29664350538E+03  0.17300000000E+03 0.  1.
         -6    1    1    2    0  501 -0.65484197104E+02  0.74242292568E+02  0.51910776506E+03  0.55605932221E+03  0.17300000000E+03 0.  1.
<mgrwt>
<rscale>  2 0.19932159E+03</rscale>
<asrwt>0</asrwt>
<pdfrwt beam="1">  1        2 0.12242392E+00 0.19932159E+03</pdfrwt>
<pdfrwt beam="2">  1       -2 0.87611275E-02 0.19932159E+03</pdfrwt>
<totfact> 0.29008517E+03</totfact>
</mgrwt>
</event>
<event>
 4    2  0.9414654E-001  0.2194042E+03  0.7546771E-02  0.1134328E+00
         -2   -1    0    0    0  501 -0.00000000000E+00  0.00000000000E+00  0.58040990988E+02  0.58040990988E+02  0.00000000000E+00 0. -1.
          2   -1    0    0  502    0  0.00000000000E+00 -0.00000000000E+00 -0.85537709673E+03  0.85537709673E+03  0.00000000000E+00 0.  1.
          6    1    1    2  502    0  0.96104344743E+02 -0.94726641294E+02 -0.47828443257E+03  0.52620735465E+03  0.17300000000E+03 0.  1.
         -6    1    1    2    0  501 -0.96104344743E+02  0.94726641294E+02 -0.31905167318E+03  0.38721073307E+03  0.17300000000E+03 0. -1.
<mgrwt>
<rscale>  2 0.21940415E+03</rscale>
<asrwt>0</asrwt>
<pdfrwt beam="1">  1        2 0.13159648E+00 0.21940415E+03</pdfrwt>
<pdfrwt beam="2">  1       -2 0.89293830E-02 0.21940415E+03</pdfrwt>
<totfact> 0.25712914E+03</totfact>
</mgrwt>
</event>
<event>
 4    2  0.9414654E-001  0.2681501E+03  0.7546771E-02  0.1102343E+00
         -2   -1    0    0    0  501 -0.00000000000E+00  0.00000000000E+00  0.67637257439E+02  0.67637257439E+02  0.00000000000E+00 0.  1.
          2   -1    0    0  502    0  0.00000000000E+00 -0.00000000000E+00 -0.10638183602E+04  0.10638183602E+04  0.00000000000E+00 0. -1.
          6    1    1    2  502    0 -0.21077432833E+02  0.20379204649E+03 -0.48328229779E+03  0.55268999968E+03  0.17300000000E+03 0.  1.
         -6    1    1    2    0  501  0.21077432833E+02 -0.20379204649E+03 -0.51289880494E+03  0.57876561793E+03  0.17300000000E+03 0.  1.
<mgrwt>
<rscale>  2 0.26815006E+03</rscale>
<asrwt>0</asrwt>
<pdfrwt beam="1">  1        2 0.16366436E+00 0.26815006E+03</pdfrwt>
<pdfrwt beam="2">  1       -2 0.10405732E-01 0.26815006E+03</pdfrwt>
<totfact> 0.14951922E+03</totfact>
</mgrwt>
</event>
<event>
 4    2  0.9414654E-001  0.1767467E+03  0.7546771E-02  0.1170989E+00
          2   -1    0    0  502    0  0.00000000000E+00  0.00000000000E+00  0.33056200018E+03  0.33056200018E+03  0.00000000000E+00 0.  1.
         -2   -1    0    0    0  501 -0.00000000000E+00 -0.00000000000E+00 -0.94710511587E+02  0.94710511587E+02  0.00000000000E+00 0. -1.
          6    1    1    2  502    0 -0.34277929613E+02 -0.11637552644E+02  0.10799501911E+03  0.20712878420E+03  0.17300000000E+03 0. -1.
         -6    1    1    2    0  501  0.34277929613E+02  0.11637552644E+02  0.12785646948E+03  0.21814372757E+03  0.17300000000E+03 0. -1.
<mgrwt>
<rscale>  2 0.17674674E+03</rscale>
<asrwt>0</asrwt>
<pdfrwt beam="1">  1        2 0.50855692E-01 0.17674674E+03</pdfrwt>
<pdfrwt beam="2">  1       -2 0.14570848E-01 0.17674674E+03</pdfrwt>
<totfact> 0.34581205E+03</totfact>
</mgrwt>
</event>
<event>
 4    2  0.9414654E-001  0.2234850E+03  0.7546771E-02  0.1131311E+00
         -2   -1    0    0    0  501 -0.00000000000E+00  0.00000000000E+00  0.84139076405E+02  0.84139076405E+02  0.00000000000E+00 0.  1.
          2   -1    0    0  502    0  0.00000000000E+00 -0.00000000000E+00 -0.96408831040E+03  0.96408831040E+03  0.00000000000E+00 0. -1.
          6    1    1    2  502    0  0.22683045290E+02 -0.13964971285E+03 -0.11507430837E+03  0.25137155624E+03  0.17300000000E+03 0.  1.
         -6    1    1    2    0  501 -0.22683045290E+02  0.13964971285E+03 -0.76487492563E+03  0.79685583056E+03  0.17300000000E+03 0. -1.
<mgrwt>
<rscale>  2 0.22348504E+03</rscale>
<asrwt>0</asrwt>
<pdfrwt beam="1">  1        2 0.14832127E+00 0.22348504E+03</pdfrwt>
<pdfrwt beam="2">  1       -2 0.12944474E-01 0.22348504E+03</pdfrwt>
<totfact> 0.12095725E+03</totfact>
</mgrwt>
</event>
<event>
 4    2  0.9414654E-001  0.1828649E+03  0.7546771E-02  0.1165059E+00
          1   -1    0    0  502    0  0.00000000000E+00  0.00000000000E+00  0.59090808341E+03  0.59090808341E+03  0.00000000000E+00 0. -1.
         -1   -1    0    0    0  501 -0.00000000000E+00 -0.00000000000E+00 -0.75568717964E+02  0.75568717964E+02  0.00000000000E+00 0.  1.
          6    1    1    2  502    0  0.36061320972E+02  0.47012281231E+02  0.90669939225E+02  0.20410931222E+03  0.17300000000E+03 0.  1.
         -6    1    1    2    0  501 -0.36061320972E+02 -0.47012281231E+02  0.42466942622E+03  0.46236748915E+03  0.17300000000E+03 0. -1.
<mgrwt>
<rscale>  2 0.18286490E+03</rscale>
<asrwt>0</asrwt>
<pdfrwt beam="1">  1        1 0.90908933E-01 0.18286490E+03</pdfrwt>
<pdfrwt beam="2">  1       -1 0.11625957E-01 0.18286490E+03</pdfrwt>
<totfact> 0.17185352E+03</totfact>
</mgrwt>
</event>
<event>
 4    2  0.9414654E-001  0.2314320E+03  0.7546771E-02  0.1125636E+00
          2   -1    0    0  502    0  0.00000000000E+00  0.00000000000E+00  0.24330864798E+03  0.24330864798E+03  0.00000000000E+00 0.  1.
         -2   -1    0    0    0  501 -0.00000000000E+00 -0.00000000000E+00 -0.30123412713E+03  0.30123412713E+03  0.00000000000E+00 0. -1.
          6    1    1    2  502    0 -0.12615316702E+03  0.87847378924E+02 -0.17023523970E+03  0.28729918268E+03  0.17300000000E+03 0. -1.
         -6    1    1    2    0  501  0.12615316702E+03 -0.87847378924E+02  0.11230976054E+03  0.25724359243E+03  0.17300000000E+03 0.  1.
<mgrwt>
<rscale>  2 0.23143203E+03</rscale>
<asrwt>0</asrwt>
<pdfrwt beam="1">  1        2 0.37432100E-01 0.23143203E+03</pdfrwt>
<pdfrwt beam="2">  1       -2 0.46343711E-01 0.23143203E+03</pdfrwt>
<totfact> 0.61544691E+02</totfact>
</mgrwt>
</event>
<event>
 4    2  0.9414654E-001  0.1763624E+03  0.7546771E-02  0.1171371E+00
         -4   -1    0    0    0  501 -0.00000000000E+00  0.00000000000E+00  0.80442233135E+02  0.80442233135E+02  0.00000000000E+00 0. -1.
          4   -1    0    0  502    0  0.00000000000E+00 -0.00000000000E+00 -0.38763831517E+03  0.38763831517E+03  0.00000000000E+00 0.  1.
          6    1    1    2  502    0  0.30794441896E+01 -0.34135390463E+02 -0.14183407328E+03  0.22631971236E+03  0.17300000000E+03 0.  1.
         -6    1    1    2    0  501 -0.30794441896E+01  0.34135390463E+02 -0.16536200875E+03  0.24176083595E+03  0.17300000000E+03 0. -1.
<mgrwt>
<rscale>  2 0.17636243E+03</rscale>
<asrwt>0</asrwt>
<pdfrwt beam="1">  1        4 0.59636664E-01 0.17636243E+03</pdfrwt>
<pdfrwt beam="2">  1       -4 0.12375728E-01 0.17636243E+03</pdfrwt>
<totfact> 0.24693048E+02</totfact>
</mgrwt>
</event>
<event>
 4    2  0.9414654E-001  0.2037173E+03  0.7546771E-02  0.1146640E+00
          2   -1    0    0  502    0  0.00000000000E+00  0.00000000000E+00  0.13835420796E+04  0.13835420796E+04  0.00000000000E+00 0.  1.
         -2   -1    0    0    0  501 -0.00000000000E+00 -0.00000000000E+00 -0.30915387548E+02  0.30915387548E+02  0.00000000000E+00 0. -1.
          6    1    1    2  502    0  0.76780307616E+02 -0.75342801141E+02  0.79827339028E+03  0.82385748704E+03  0.17300000000E+03 0.  1.
         -6    1    1    2    0  501 -0.76780307616E+02  0.75342801141E+02  0.55435330182E+03  0.59059998015E+03  0.17300000000E+03 0. -1.
<mgrwt>
<rscale>  2 0.20371734E+03</rscale>
<asrwt>0</asrwt>
<pdfrwt beam="1">  1        2 0.21285258E+00 0.20371734E+03</pdfrwt>
<pdfrwt beam="2">  1       -2 0.47562145E-02 0.20371734E+03</pdfrwt>
<totfact> 0.33241236E+03</totfact>
</mgrwt>
</event>
<event>
 4    2  0.9414654E-001  0.2926834E+03  0.7546771E-02  0.1088956E+00
          1   -1    0    0  502    0  0.00000000000E+00  0.00000000000E+00  0.83756725530E+03  0.83756725530E+03  0.00000000000E+00 0. -1.
         -1   -1    0    0    0  501 -0.00000000000E+00 -0.00000000000E+00 -0.17876312121E+03  0.17876312121E+03  0.00000000000E+00 0.  1.
          6    1    1    2  502    0  0.33434567852E+02 -0.23370213049E+03  0.66180000098E+03  0.72363167248E+03  0.17300000000E+03 0. -1.
         -6    1    1    2    0  501 -0.33434567852E+02  0.23370213049E+03 -0.29958668856E+01  0.29269870403E+03  0.17300000000E+03 0.  1.
<mgrwt>
<rscale>  2 0.29268337E+03</rscale>
<asrwt>0</asrwt>
<pdfrwt beam="1">  1        1 0.12885650E+00 0.29268337E+03</pdfrwt>
<pdfrwt beam="2">  1       -1 0.27502019E-01 0.29268337E+03</pdfrwt>
<totfact> 0.25568103E+02</totfact>
</mgrwt>
</event>
<event>
 4    2  0.9414654E-001  0.1787517E+03  0.7546771E-02  0.1169017E+00
          1   -1    0    0  502    0  0.00000000000E+00  0.00000000000E+00  0.47073822098E+03  0.47073822098E+03  0.00000000000E+00 0. -1.
         -1   -1    0    0    0  501 -0.00000000000E+00 -0.00000000000E+00 -0.73455755544E+02  0.73455755544E+02  0.00000000000E+00 0.  1.
          6    1    1    2  502    0  0.84245387921E+01  0.44183477368E+02  0.12365327384E+03  0.21735290349E+03  0.17300000000E+03 0.  1.
         -6    1    1    2    0  501 -0.84245387921E+01 -0.44183477368E+02  0.27362919160E+03  0.32684107304E+03  0.17300000000E+03 0. -1.
<mgrwt>
<rscale>  2 0.17875165E+03</rscale>
<asrwt>0</asrwt>
<pdfrwt beam="1">  1        1 0.72421263E-01 0.17875165E+03</pdfrwt>
<pdfrwt beam="2">  1       -1 0.11300886E-01 0.17875165E+03</pdfrwt>
<totfact> 0.24303367E+03</totfact>
</mgrwt>
</event>
<event>
 4    2  0.9414654E-001  0.1759777E+03  0.7546771E-02  0.1171754E+00
          3   -1    0    0  502    0  0.00000000000E+00  0.00000000000E+00  0.91234972844E+02  0.91234972844E+02  0.00000000000E+00 0.  1.
         -3   -1    0    0    0  501 -0.00000000000E+00 -0.00000000000E+00 -0.44138491156E+03  0.44138491156E+03  0.00000000000E+00 0. -1.
          6    1    1    2  502    0  0.21478725570E+02  0.24037435968E+02 -0.30306523645E+03  0.35045209590E+03  0.17300000000E+03 0. -1.
         -6    1    1    2    0  501 -0.21478725570E+02 -0.24037435968E+02 -0.47084702271E+02  0.18216778850E+03  0.17300000000E+03 0.  1.
<mgrwt>
<rscale>  2 0.17597765E+03</rscale>
<asrwt>0</asrwt>
<pdfrwt beam="1">  1        3 0.14036149E-01 0.17597765E+03</pdfrwt>
<pdfrwt beam="2">  1       -3 0.67905372E-01 0.17597765E+03</pdfrwt>
<totfact> 0.21271785E+02</totfact>
</mgrwt>
</event>
<event>
 4    2  0.9414654E-001  0.3375905E+03  0.7546771E-02  0.1067827E+00
         -2   -1    0    0    0  501 -0.00000000000E+00  0.00000000000E+00  0.14580430970E+03  0.14580430970E+03  0.00000000000E+00 0.  1.
          2   -1    0    0  502    0  0.00000000000E+00 -0.00000000000E+00 -0.17321744606E+04  0.17321744606E+04  0.00000000000E+00 0. -1.
          6    1    1    2  502    0  0.83713763172E+02 -0.27754347820E+03 -0.14887655730E+04  0.15265615965E+04  0.17300000000E+03 0. -1.
         -6    1    1    2    0  501 -0.83713763172E+02  0.27754347820E+03 -0.97604577886E+02  0.35141717383E+03  0.17300000000E+03 0.  1.
<mgrwt>
<rscale>  2 0.33759055E+03</rscale>
<asrwt>0</asrwt>
<pdfrwt beam="1">  1        2 0.26648836E+00 0.33759055E+03</pdfrwt>
<pdfrwt beam="2">  1       -2 0.22431434E-01 0.33759055E+03</pdfrwt>
<totfact> 0.17583596E+02</totfact>
</mgrwt>
</event>
<event>
 4    2  0.9414654E-001  0.1771424E+03  0.7546771E-02  0.1170598E+00
          2   -1    0    0  502    0  0.00000000000E+00  0.00000000000E+00  0.33781459684E+03  0.33781459684E+03  0.00000000000E+00 0.  1.
         -2   -1    0    0    0  501 -0.00000000000E+00 -0.00000000000E+00 -0.99177790301E+02  0.99177790301E+02  0.00000000000E+00 0. -1.
          6    1    1    2  502    0 -0.19129226644E+02  0.32931573591E+02  0.64300466942E+02  0.18845149482E+03  0.17300000000E+03 0. -1.
         -6    1    1    2    0  501  0.19129226644E+02 -0.32931573591E+02  0.17433633960E+03  0.24854089232E+03  0.17300000000E+03 0.  1.
<mgrwt>
<rscale>  2 0.17714236E+03</rscale>
<asrwt>0</asrwt>
<pdfrwt beam="1">  1        2 0.51971476E-01 0.17714236E+03</pdfrwt>
<pdfrwt beam="2">  1       -2 0.15258122E-01 0.17714236E+03</pdfrwt>
<totfact> 0.31326299E+03</totfact>
</mgrwt>
</event>
<event>
 4    2  0.9414654E-001  0.1740224E+03  0.7546771E-02  0.1173717E+00
         -2   -1    0    0    0  501 -0.00000000000E+00  0.00000000000E+00  0.74957607532E+02  0.74957607532E+02  0.00000000000E+00 0. -1.
          2   -1    0    0  502    0  0.00000000000E+00 -0.00000000000E+00 -0.41409188217E+03  0.41409188217E+03  0.00000000000E+00 0.  1.
          6    1    1    2  502    0 -0.16154638108E+01  0.18766777354E+02 -0.20771708347E+03  0.27098005170E+03  0.17300000000E+03 0.  1.
         -6    1    1    2    0  501  0.16154638108E+01 -0.18766777354E+02 -0.13141719117E+03  0.21806943800E+03  0.17300000000E+03 0. -1.
<mgrwt>
<rscale>  2 0.17402242E+03</rscale>
<asrwt>0</asrwt>
<pdfrwt beam="1">  1        2 0.63706443E-01 0.17402242E+03</pdfrwt>
<pdfrwt beam="2">  1       -2 0.11531940E-01 0.17402242E+03</pdfrwt>
<totfact> 0.39617619E+03</totfact>
</mgrwt>
</event>
<event>
 4    2  0.9414654E-001  0.1799072E+03  0.7546771E-02  0.1167893E+00
          2   -1    0    0  502    0  0.00000000000E+00  0.00000000000E+00  0.42343988683E+03  0.42343988683E+03  0.00000000000E+00 0.  1.
         -2   -1    0    0    0  501 -0.00000000000E+00 -0.00000000000E+00 -0.76438504558E+02  0.76438504558E+02  0.00000000000E+00 0. -1.
          6    1    1    2  502    0  0.13654694884E+02  0.47446434207E+02  0.17448000183E+03  0.25061900536E+03  0.17300000000E+03 0. -1.
         -6    1    1    2    0  501 -0.13654694884E+02 -0.47446434207E+02  0.17252138045E+03  0.24925938603E+03  0.17300000000E+03 0. -1.
<mgrwt>
<rscale>  2 0.17990724E+03</rscale>
<asrwt>0</asrwt>
<pdfrwt beam="1">  1        2 0.65144597E-01 0.17990724E+03</pdfrwt>
<pdfrwt beam="2">  1       -2 0.11759770E-01 0.17990724E+03</pdfrwt>
<totfact> 0.37530603E+03</totfact>
</mgrwt>
</event>
<event>
 4    2  0.9414654E-001  0.2096436E+03  0.7546771E-02  0.1141849E+00
         -2   -1    0    0    0  501 -0.00000000000E+00  0.00000000000E+00  0.18101619712E+02  0.18101619712E+02  0.00000000000E+00 0. -1.
          2   -1    0    0  502    0  0.00000000000E+00 -0.00000000000E+00 -0.26232882923E+04  0.26232882923E+04  0.00000000000E+00 0.  1.
          6    1    1    2  502    0 -0.99712326730E+02 -0.63866260812E+02 -0.94223453271E+03  0.96527527784E+03  0.17300000000E+03 0. -1.
         -6    1    1    2    0  501  0.99712326730E+02  0.63866260812E+02 -0.16629521399E+04  0.16761146342E+04  0.17300000000E+03 0.  1.
<mgrwt>
<rscale>  2 0.20964362E+03</rscale>
<asrwt>0</asrwt>
<pdfrwt beam="1">  1        2 0.40358251E+00 0.20964362E+03</pdfrwt>
<pdfrwt beam="2">  1       -2 0.27848667E-02 0.20964362E+03</pdfrwt>
<totfact> 0.16351403E+03</totfact>
</mgrwt>
</event>
<event>
 4    2  0.9414654E-001  0.2588990E+03  0.7546771E-02  0.1107807E+00
          2   -1    0    0  502    0  0.00000000000E+00  0.00000000000E+00  0.26281369241E+03  0.26281369241E+03  0.00000000000E+00 0. -1.
         -2   -1    0    0    0  501 -0.00000000000E+00 -0.00000000000E+00 -0.25594468780E+03  0.25594468780E+03  0.00000000000E+00 0.  1.
          6    1    1    2  502    0  0.17052924490E+03  0.89551626959E+02  0.18832319233E+02  0.25958307631E+03  0.17300000000E+03 0.  1.
         -6    1    1    2    0  501 -0.17052924490E+03 -0.89551626959E+02 -0.11963314624E+02  0.25917530390E+03  0.17300000000E+03 0.  1.
<mgrwt>
<rscale>  2 0.25889905E+03</rscale>
<asrwt>0</asrwt>
<pdfrwt beam="1">  1        2 0.40432876E-01 0.25889905E+03</pdfrwt>
<pdfrwt beam="2">  1       -2 0.39376106E-01 0.25889905E+03</pdfrwt>
<totfact> 0.77693557E+02</totfact>
</mgrwt>
</event>
<event>
 4    2  0.9414654E-001  0.2485722E+03  0.7546771E-02  0.1114210E+00
         -2   -1    0    0    0  501 -0.00000000000E+00  0.00000000000E+00  0.21155468546E+03  0.21155468546E+03  0.00000000000E+00 0. -1.
          2   -1    0    0  502    0  0.00000000000E+00 -0.00000000000E+00 -0.41032827416E+03  0.41032827416E+03  0.00000000000E+00 0.  1.
          6    1    1    2  502    0  0.17157601233E+03 -0.49201940439E+02 -0.26631667077E+03  0.36429758177E+03  0.17300000000E+03 0.  1.
         -6    1    1    2    0  501 -0.17157601233E+03  0.49201940439E+02  0.67543082072E+02  0.25758537786E+03  0.17300000000E+03 0. -1.
<mgrwt>
<rscale>  2 0.24857224E+03</rscale>
<asrwt>0</asrwt>
<pdfrwt beam="1">  1        2 0.63127427E-01 0.24857224E+03</pdfrwt>
<pdfrwt beam="2">  1       -2 0.32546875E-01 0.24857224E+03</pdfrwt>
<totfact> 0.68530820E+02</totfact>
</mgrwt>
</event>
<event>
 4    2  0.9414654E-001  0.1909274E+03  0.7546771E-02  0.1157628E+00
         -2   -1    0    0    0  501 -0.00000000000E+00  0.00000000000E+00  0.34985877507E+02  0.34985877507E+02  0.00000000000E+00 0. -1.
          2   -1    0    0  502    0  0.00000000000E+00 -0.00000000000E+00 -0.10583987800E+04  0.10583987800E+04  0.00000000000E+00 0.  1.
          6    1    1    2  502    0  0.60756066515E+02 -0.53225503605E+02 -0.44353677251E+03  0.48288520625E+03  0.17300000000E+03 0. -1.
         -6    1    1    2    0  501 -0.60756066515E+02  0.53225503605E+02 -0.57987612998E+03  0.61049945124E+03  0.17300000000E+03 0.  1.
<mgrwt>
<rscale>  2 0.19092735E+03</rscale>
<asrwt>0</asrwt>
<pdfrwt beam="1">  1        2 0.16283059E+00 0.19092735E+03</pdfrwt>
<pdfrwt beam="2">  1       -2 0.53824424E-02 0.19092735E+03</pdfrwt>
<totfact> 0.41896634E+03</totfact>
</mgrwt>
</event>
<event>
 4    2  0.9414654E-001  0.2663314E+03  0.7546771E-02  0.1103398E+00
          1   -1    0    0  502    0  0.00000000000E+00  0.00000000000E+00  0.13796223309E+04  0.13796223309E+04  0.00000000000E+00 0. -1.
         -1   -1    0    0    0  501 -0.00000000000E+00 -0.00000000000E+00 -0.55534284300E+02  0.55534284300E+02  0.00000000000E+00 0.  1.
          6    1    1    2  502    0  0.19580059668E+03 -0.51629012200E+02  0.85749246311E+03  0.89790074777E+03  0.17300000000E+03 0.  1.
         -6    1    1    2    0  501 -0.19580059668E+03  0.51629012200E+02  0.46659558354E+03  0.53725586747E+03  0.17300000000E+03 0. -1.
<mgrwt>
<rscale>  2 0.26633143E+03</rscale>
<asrwt>0</asrwt>
<pdfrwt beam="1">  1        1 0.21224956E+00 0.26633143E+03</pdfrwt>
<pdfrwt beam="2">  1       -1 0.85437371E-02 0.26633143E+03</pdfrwt>
<totfact> 0.67176554E+02</totfact>
</mgrwt>
</event>
<event>
 4    2  0.9414654E-001  0.2469311E+03  0.7546771E-02  0.1115260E+00
         -2   -1    0    0    0  501 -0.00000000000E+00  0.00000000000E+00  0.52169761055E+02  0.52169761055E+02  0.00000000000E+00 0. -1.
          2   -1    0    0  502    0  0.00000000000E+00 -0.00000000000E+00 -0.12662078913E+04  0.12662078913E+04  0.00000000000E+00 0.  1.
          6    1    1    2  502    0  0.15972898972E+03 -0.74381694529E+02 -0.42416761371E+03  0.49080867062E+03  0.17300000000E+03 0. -1.
         -6    1    1    2    0  501 -0.15972898972E+03  0.74381694529E+02 -0.78987051654E+03  0.82756898174E+03  0.17300000000E+03 0.  1.
<mgrwt>
<rscale>  2 0.24693114E+03</rscale>
<asrwt>0</asrwt>
<pdfrwt beam="1">  1        2 0.19480120E+00 0.24693114E+03</pdfrwt>
<pdfrwt beam="2">  1       -2 0.80261176E-02 0.24693114E+03</pdfrwt>
<totfact> 0.17250855E+03</totfact>
</mgrwt>
</event>
<event>
 4    2  0.9414654E-001  0.1899493E+03  0.7546771E-02  0.1158507E+00
          2   -1    0    0  502    0  0.00000000000E+00  0.00000000000E+00  0.24958639829E+03  0.24958639829E+03  0.00000000000E+00 0. -1.
         -2   -1    0    0    0  501 -0.00000000000E+00 -0.00000000000E+00 -0.14778384828E+03  0.14778384828E+03  0.00000000000E+00 0.  1.
          6    1    1    2  502    0  0.71080521360E+02  0.33155588868E+02  0.80237061892E+02  0.20620067820E+03  0.17300000000E+03 0. -1.
         -6    1    1    2    0  501 -0.71080521360E+02 -0.33155588868E+02  0.21565488120E+02  0.19116956836E+03  0.17300000000E+03 0. -1.
<mgrwt>
<rscale>  2 0.18994929E+03</rscale>
<asrwt>0</asrwt>
<pdfrwt beam="1">  1        2 0.38397907E-01 0.18994929E+03</pdfrwt>
<pdfrwt beam="2">  1       -2 0.22735977E-01 0.18994929E+03</pdfrwt>
<totfact> 0.22147526E+03</totfact>
</mgrwt>
</event>
<event>
 4    2  0.9414654E-001  0.3146561E+03  0.7546771E-02  0.1078135E+00
         -2   -1    0    0    0  501 -0.00000000000E+00  0.00000000000E+00  0.31678538209E+02  0.31678538209E+02  0.00000000000E+00 0. -1.
          2   -1    0    0  502    0  0.00000000000E+00 -0.00000000000E+00 -0.32000450601E+04  0.32000450601E+04  0.00000000000E+00 0.  1.
          6    1    1    2  502    0  0.23970971599E+03  0.10779009465E+03 -0.18309545559E+04  0.18577952089E+04  0.17300000000E+03 0.  1.
         -6    1    1    2    0  501 -0.23970971599E+03 -0.10779009465E+03 -0.13374119660E+04  0.13739283894E+04  0.17300000000E+03 0. -1.
<mgrwt>
<rscale>  2 0.31465609E+03</rscale>
<asrwt>0</asrwt>
<pdfrwt beam="1">  1        2 0.49231467E+00 0.31465609E+03</pdfrwt>
<pdfrwt beam="2">  1       -2 0.48736208E-02 0.31465609E+03</pdfrwt>
<totfact> 0.31745404E+02</totfact>
</mgrwt>
</event>
<event>
 4    2  0.9414654E-001  0.1792749E+03  0.7546771E-02  0.1168507E+00
         -2   -1    0    0    0  501 -0.00000000000E+00  0.00000000000E+00  0.63415337948E+02  0.63415337948E+02  0.00000000000E+00 0.  1.
          2   -1    0    0  502    0  0.00000000000E+00 -0.00000000000E+00 -0.55051284128E+03  0.55051284128E+03  0.00000000000E+00 0. -1.
          6    1    1    2  502    0  0.22481126845E+02  0.41292560430E+02 -0.15705939570E+03  0.23834246451E+03  0.17300000000E+03 0.  1.
         -6    1    1    2    0  501 -0.22481126845E+02 -0.41292560430E+02 -0.33003810764E+03  0.37558571472E+03  0.17300000000E+03 0. -1.
<mgrwt>
<rscale>  2 0.17927486E+03</rscale>
<asrwt>0</asrwt>
<pdfrwt beam="1">  1        2 0.84694279E-01 0.17927486E+03</pdfrwt>
<pdfrwt beam="2">  1       -2 0.97562063E-02 0.17927486E+03</pdfrwt>
<totfact> 0.37800349E+03</totfact>
</mgrwt>
</event>
<event>
 4    2  0.9414654E-001  0.1858969E+03  0.7546771E-02  0.1162215E+00
          2   -1    0    0  502    0  0.00000000000E+00  0.00000000000E+00  0.13938452073E+03  0.13938452073E+03  0.00000000000E+00 0. -1.
         -2   -1    0    0    0  501 -0.00000000000E+00 -0.00000000000E+00 -0.24798620931E+03  0.24798620931E+03  0.00000000000E+00 0.  1.
          6    1    1    2  502    0  0.32257972279E+02  0.59900480563E+02 -0.51392322826E+02  0.19286994373E+03  0.17300000000E+03 0. -1.
         -6    1    1    2    0  501 -0.32257972279E+02 -0.59900480563E+02 -0.57209365749E+02  0.19450078631E+03  0.17300000000E+03 0. -1.
<mgrwt>
<rscale>  2 0.18589686E+03</rscale>
<asrwt>0</asrwt>
<pdfrwt beam="1">  1        2 0.21443773E-01 0.18589686E+03</pdfrwt>
<pdfrwt beam="2">  1       -2 0.38151724E-01 0.18589686E+03</pdfrwt>
<totfact> 0.16489209E+03</totfact>
</mgrwt>
</event>
<event>
 4    2  0.9414654E-001  0.1928202E+03  0.7546771E-02  0.1155942E+00
          3   -1    0    0  502    0  0.00000000000E+00  0.00000000000E+00  0.19036843663E+03  0.19036843663E+03  0.00000000000E+00 0.  1.
         -3   -1    0    0    0  501 -0.00000000000E+00 -0.00000000000E+00 -0.26686396783E+03  0.26686396783E+03  0.00000000000E+00 0. -1.
          6    1    1    2  502    0  0.82674420144E+02 -0.20385827704E+02  0.80137678361E+02  0.20881017506E+03  0.17300000000E+03 0.  1.
         -6    1    1    2    0  501 -0.82674420144E+02  0.20385827704E+02 -0.15663320956E+03  0.24842222939E+03  0.17300000000E+03 0.  1.
<mgrwt>
<rscale>  2 0.19282023E+03</rscale>
<asrwt>0</asrwt>
<pdfrwt beam="1">  1        3 0.29287452E-01 0.19282023E+03</pdfrwt>
<pdfrwt beam="2">  1       -3 0.41055995E-01 0.19282023E+03</pdfrwt>
<totfact> 0.16130099E+02</totfact>
</mgrwt>
</event>
<event>
 4    2  0.9414654E-001  0.1915554E+03  0.7546771E-02  0.1157066E+00
          1   -1    0    0  502    0  0.00000000000E+00  0.00000000000E+00  0.11829908995E+03  0.11829908995E+03  0.00000000000E+00 0.  1.
         -1   -1    0    0    0  501 -0.00000000000E+00 -0.00000000000E+00 -0.12860807599E+04  0.12860807599E+04  0.00000000000E+00 0. -1.
          6    1    1    2  502    0 -0.70431184261E+02  0.42472743303E+02  0.27789179444E+02  0.19356064717E+03  0.17300000000E+03 0.  1.
         -6    1    1    2    0  501  0.70431184261E+02 -0.42472743303E+02 -0.11955708494E+04  0.12108192026E+04  0.17300000000E+03 0. -1.
<mgrwt>
<rscale>  2 0.19155544E+03</rscale>
<asrwt>0</asrwt>
<pdfrwt beam="1">  1        1 0.18199860E-01 0.19155544E+03</pdfrwt>
<pdfrwt beam="2">  1       -1 0.19785857E+00 0.19155544E+03</pdfrwt>
<totfact> 0.51029589E+01</totfact>
</mgrwt>
</event>
<event>
 4    2  0.9414654E-001  0.2392353E+03  0.7546771E-02  0.1120303E+00
          2   -1    0    0  502    0  0.00000000000E+00  0.00000000000E+00  0.97166912942E+03  0.97166912942E+03  0.00000000000E+00 0.  1.
         -2   -1    0    0    0  501 -0.00000000000E+00 -0.00000000000E+00 -0.61740342184E+02  0.61740342184E+02  0.00000000000E+00 0. -1.
          6    1    1    2  502    0 -0.13154657346E+03 -0.10000005583E+03  0.56574661221E+03  0.61424973862E+03  0.17300000000E+03 0.  1.
         -6    1    1    2    0  501  0.13154657346E+03  0.10000005583E+03  0.34418217502E+03  0.41915973299E+03  0.17300000000E+03 0. -1.
<mgrwt>
<rscale>  2 0.23923527E+03</rscale>
<asrwt>0</asrwt>
<pdfrwt beam="1">  1        2 0.14948755E+00 0.23923527E+03</pdfrwt>
<pdfrwt beam="2">  1       -2 0.94985149E-02 0.23923527E+03</pdfrwt>
<totfact> 0.19669254E+03</totfact>
</mgrwt>
</event>
<event>
 4    2  0.9414654E-001  0.2406747E+03  0.7546771E-02  0.1119344E+00
          2   -1    0    0  502    0  0.00000000000E+00  0.00000000000E+00  0.22396824398E+04  0.22396824398E+04  0.00000000000E+00 0. -1.
         -2   -1    0    0    0  501 -0.00000000000E+00 -0.00000000000E+00 -0.34323488279E+02  0.34323488279E+02  0.00000000000E+00 0.  1.
          6    1    1    2  502    0  0.75023149051E+02 -0.14955545297E+03  0.16671879729E+04  0.16844702561E+04  0.17300000000E+03 0. -1.
         -6    1    1    2    0  501 -0.75023149051E+02  0.14955545297E+03  0.53817097859E+03  0.58953567204E+03  0.17300000000E+03 0.  1.
<mgrwt>
<rscale>  2 0.24067469E+03</rscale>
<asrwt>0</asrwt>
<pdfrwt beam="1">  1        2 0.34456641E+00 0.24067469E+03</pdfrwt>
<pdfrwt beam="2">  1       -2 0.52805384E-02 0.24067469E+03</pdfrwt>
<totfact> 0.10032598E+03</totfact>
</mgrwt>
</event>
<event>
 4    2  0.9414654E-001  0.1883493E+03  0.7546771E-02  0.1159959E+00
         -1   -1    0    0    0  501 -0.00000000000E+00  0.00000000000E+00  0.16627006219E+03  0.16627006219E+03  0.00000000000E+00 0.  1.
          1   -1    0    0  502    0  0.00000000000E+00 -0.00000000000E+00 -0.28448361042E+03  0.28448361042E+03  0.00000000000E+00 0. -1.
          6    1    1    2  502    0 -0.67560192053E+02  0.31338042777E+02 -0.17179699439E+03  0.25493069599E+03  0.17300000000E+03 0. -1.
         -6    1    1    2    0  501  0.67560192053E+02 -0.31338042777E+02  0.53583446158E+02  0.19582297663E+03  0.17300000000E+03 0.  1.
<mgrwt>
<rscale>  2 0.18834928E+03</rscale>
<asrwt>0</asrwt>
<pdfrwt beam="1">  1        1 0.43766709E-01 0.18834928E+03</pdfrwt>
<pdfrwt beam="2">  1       -1 0.25580010E-01 0.18834928E+03</pdfrwt>
<totfact> 0.12490255E+03</totfact>
</mgrwt>
</event>
<event>
 4    2  0.9414654E-001  0.2030621E+03  0.7546771E-02  0.1147181E+00
         -2   -1    0    0    0  501 -0.00000000000E+00  0.00000000000E+00  0.14995766540E+03  0.14995766540E+03  0.00000000000E+00 0. -1.
          2   -1    0    0  502    0  0.00000000000E+00 -0.00000000000E+00 -0.72163985286E+03  0.72163985286E+03  0.00000000000E+00 0.  1.
          6    1    1    2  502    0  0.97776735733E+02  0.41772271570E+02 -0.62870195327E+03  0.66068173788E+03  0.17300000000E+03 0.  1.
         -6    1    1    2    0  501 -0.97776735733E+02 -0.41772271570E+02  0.57019765803E+02  0.21091578038E+03  0.17300000000E+03 0. -1.
<mgrwt>
<rscale>  2 0.20306209E+03</rscale>
<asrwt>0</asrwt>
<pdfrwt beam="1">  1        2 0.11102152E+00 0.20306209E+03</pdfrwt>
<pdfrwt beam="2">  1       -2 0.23070410E-01 0.20306209E+03</pdfrwt>
<totfact> 0.66641242E+02</totfact>
</mgrwt>
</event>
<event>
 4    2  0.9414654E-001  0.2506176E+03  0.7546771E-02  0.1112915E+00
          1   -1    0    0  502    0  0.00000000000E+00  0.00000000000E+00  0.14149555189E+03  0.14149555189E+03  0.00000000000E+00 0. -1.
         -1   -1    0    0    0  501 -0.00000000000E+00 -0.00000000000E+00 -0.49528860994E+03  0.49528860994E+03  0.00000000000E+00 0.  1.
          6    1    1    2  502    0  0.15337448896E+03 -0.96728809155E+02 -0.27945860470E+03  0.37537489011E+03  0.17300000000E+03 0. -1.
         -6    1    1    2    0  501 -0.15337448896E+03  0.96728809155E+02 -0.74334453359E+02  0.26140927172E+03  0.17300000000E+03 0.  1.
<mgrwt>
<rscale>  2 0.25061763E+03</rscale>
<asrwt>0</asrwt>
<pdfrwt beam="1">  1        1 0.21768546E-01 0.25061763E+03</pdfrwt>
<pdfrwt beam="2">  1       -1 0.76198249E-01 0.25061763E+03</pdfrwt>
<totfact> 0.41438798E+02</totfact>
</mgrwt>
</event>
<event>
 4    2  0.9414654E-001  0.1878416E+03  0.7546771E-02  0.1160423E+00
         -1   -1    0    0    0  501 -0.00000000000E+00  0.00000000000E+00  0.46731621277E+02  0.46731621277E+02  0.00000000000E+00 0.  1.
          1   -1    0    0  502    0  0.00000000000E+00 -0.00000000000E+00 -0.76515758462E+03  0.76515758462E+03  0.00000000000E+00 0. -1.
          6    1    1    2  502    0 -0.53228276304E+02 -0.50221657988E+02 -0.31254401033E+03  0.36464808065E+03  0.17300000000E+03 0. -1.
         -6    1    1    2    0  501  0.53228276304E+02  0.50221657988E+02 -0.40588195301E+03  0.44724112524E+03  0.17300000000E+03 0. -1.
<mgrwt>
<rscale>  2 0.18784159E+03</rscale>
<asrwt>0</asrwt>
<pdfrwt beam="1">  1        1 0.11771655E+00 0.18784159E+03</pdfrwt>
<pdfrwt beam="2">  1       -1 0.71894804E-02 0.18784159E+03</pdfrwt>
<totfact> 0.24813959E+03</totfact>
</mgrwt>
</event>
<event>
 4    2  0.9414654E-001  0.1985851E+03  0.7546771E-02  0.1150938E+00
         -1   -1    0    0    0  501 -0.00000000000E+00  0.00000000000E+00  0.10696346119E+03  0.10696346119E+03  0.00000000000E+00 0.  1.
          1   -1    0    0  502    0  0.00000000000E+00 -0.00000000000E+00 -0.37286539941E+03  0.37286539941E+03  0.00000000000E+00 0. -1.
          6    1    1    2  502    0 -0.95464467175E+02  0.19838312309E+02 -0.10755338873E+03  0.22584010839E+03  0.17300000000E+03 0. -1.
         -6    1    1    2    0  501  0.95464467175E+02 -0.19838312309E+02 -0.15834854948E+03  0.25398875221E+03  0.17300000000E+03 0. -1.
<mgrwt>
<rscale>  2 0.19858505E+03</rscale>
<asrwt>0</asrwt>
<pdfrwt beam="1">  1        1 0.57363908E-01 0.19858505E+03</pdfrwt>
<pdfrwt beam="2">  1       -1 0.16455917E-01 0.19858505E+03</pdfrwt>
<totfact> 0.18221760E+03</totfact>
</mgrwt>
</event>
<event>
 4    2  0.9414654E-001  0.1951133E+03  0.7546771E-02  0.1153929E+00
         -2   -1    0    0    0  501 -0.00000000000E+00  0.00000000000E+00  0.30650861616E+02  0.30650861616E+02  0.00000000000E+00 0. -1.
          2   -1    0    0  502    0  0.00000000000E+00 -0.00000000000E+00 -0.19501784695E+04  0.19501784695E+04  0.00000000000E+00 0.  1.
          6    1    1    2  502    0  0.78430628484E+02  0.44596351101E+02 -0.36294436366E+03  0.41206529717E+03  0.17300000000E+03 0. -1.
         -6    1    1    2    0  501 -0.78430628484E+02 -0.44596351101E+02 -0.15565832442E+04  0.15687640339E+04  0.17300000000E+03 0.  1.
<mgrwt>
<rscale>  2 0.19511330E+03</rscale>
<asrwt>0</asrwt>
<pdfrwt beam="1">  1        2 0.30002745E+00 0.19511330E+03</pdfrwt>
<pdfrwt beam="2">  1       -2 0.47155172E-02 0.19511330E+03</pdfrwt>
<totfact> 0.16994575E+03</totfact>
</mgrwt>
</event>
<event>
 4    2  0.9414654E-001  0.2631015E+03  0.7546771E-02  0.1105294E+00
          1   -1    0    0  502    0  0.00000000000E+00  0.00000000000E+00  0.42566367758E+03  0.42566367758E+03  0.00000000000E+00 0. -1.
         -1   -1    0    0    0  501 -0.00000000000E+00 -0.00000000000E+00 -0.16599109281E+03  0.16599109281E+03  0.00000000000E+00 0.  1.
          6    1    1    2  502    0 -0.89188265323E+02 -0.17702789985E+03  0.17197977774E+03  0.31432382656E+03  0.17300000000E+03 0. -1.
         -6    1    1    2    0  501  0.89188265323E+02  0.17702789985E+03  0.87692807039E+02  0.27733094382E+03  0.17300000000E+03 0.  1.
<mgrwt>
<rscale>  2 0.26310155E+03</rscale>
<asrwt>0</asrwt>
<pdfrwt beam="1">  1        1 0.65486719E-01 0.26310155E+03</pdfrwt>
<pdfrwt beam="2">  1       -1 0.25537091E-01 0.26310155E+03</pdfrwt>
<totfact> 0.75313839E+02</totfact>
</mgrwt>
</event>
<event>
 4    2  0.9414654E-001  0.2043720E+03  0.7546771E-02  0.1146102E+00
          2   -1    0    0  502    0  0.00000000000E+00  0.00000000000E+00  0.58122506444E+03  0.58122506444E+03  0.00000000000E+00 0.  1.
         -2   -1    0    0    0  501 -0.00000000000E+00 -0.00000000000E+00 -0.90959206611E+02  0.90959206611E+02  0.00000000000E+00 0. -1.
          6    1    1    2  502    0  0.68462208174E+02 -0.84568454325E+02  0.91132524189E+02  0.22377004800E+03  0.17300000000E+03 0. -1.
         -6    1    1    2    0  501 -0.68462208174E+02  0.84568454325E+02  0.39913333364E+03  0.44841422305E+03  0.17300000000E+03 0.  1.
<mgrwt>
<rscale>  2 0.20437196E+03</rscale>
<asrwt>0</asrwt>
<pdfrwt beam="1">  1        2 0.89419239E-01 0.20437196E+03</pdfrwt>
<pdfrwt beam="2">  1       -2 0.13993724E-01 0.20437196E+03</pdfrwt>
<totfact> 0.19984126E+03</totfact>
</mgrwt>
</event>
<event>
 4    2  0.9414654E-001  0.1775386E+03  0.7546771E-02  0.1170207E+00
         -1   -1    0    0    0  501 -0.00000000000E+00  0.00000000000E+00  0.99146009363E+02  0.99146009363E+02  0.00000000000E+00 0. -1.
          1   -1    0    0  502    0  0.00000000000E+00 -0.00000000000E+00 -0.33950867800E+03  0.33950867800E+03  0.00000000000E+00 0.  1.
          6    1    1    2  502    0  0.22861928118E+02  0.32684570588E+02 -0.64867190703E+02  0.18901772759E+03  0.17300000000E+03 0. -1.
         -6    1    1    2    0  501 -0.22861928118E+02 -0.32684570588E+02 -0.17549547793E+03  0.24963695978E+03  0.17300000000E+03 0. -1.
<mgrwt>
<rscale>  2 0.17753858E+03</rscale>
<asrwt>0</asrwt>
<pdfrwt beam="1">  1        1 0.52232104E-01 0.17753858E+03</pdfrwt>
<pdfrwt beam="2">  1       -1 0.15253232E-01 0.17753858E+03</pdfrwt>
<totfact> 0.23061882E+03</totfact>
</mgrwt>
</event>
<event>
 4    2  0.9414654E-001  0.1797769E+03  0.7546771E-02  0.1168019E+00
         -2   -1    0    0    0  501 -0.00000000000E+00  0.00000000000E+00  0.17696550291E+03  0.17696550291E+03  0.00000000000E+00 0.  1.
          2   -1    0    0  502    0  0.00000000000E+00 -0.00000000000E+00 -0.20449238174E+03  0.20449238174E+03  0.00000000000E+00 0. -1.
          6    1    1    2  502    0  0.43694786458E+02 -0.21942855572E+02 -0.76122268059E+02  0.19522889891E+03  0.17300000000E+03 0. -1.
         -6    1    1    2    0  501 -0.43694786458E+02  0.21942855572E+02  0.48595389226E+02  0.18622898574E+03  0.17300000000E+03 0.  1.
<mgrwt>
<rscale>  2 0.17977687E+03</rscale>
<asrwt>0</asrwt>
<pdfrwt beam="1">  1        2 0.31460366E-01 0.17977687E+03</pdfrwt>
<pdfrwt beam="2">  1       -2 0.27225462E-01 0.17977687E+03</pdfrwt>
<totfact> 0.19981269E+03</totfact>
</mgrwt>
</event>
<event>
 4    2  0.9414654E-001  0.1946279E+03  0.7546771E-02  0.1154352E+00
          2   -1    0    0  502    0  0.00000000000E+00  0.00000000000E+00  0.15862814094E+03  0.15862814094E+03  0.00000000000E+00 0.  1.
         -2   -1    0    0    0  501 -0.00000000000E+00 -0.00000000000E+00 -0.25718061783E+03  0.25718061783E+03  0.00000000000E+00 0. -1.
          6    1    1    2  502    0 -0.72493776883E+02  0.51919868965E+02  0.63081510250E+01  0.19473010360E+03  0.17300000000E+03 0. -1.
         -6    1    1    2    0  501  0.72493776883E+02 -0.51919868965E+02 -0.10486062792E+03  0.22107865516E+03  0.17300000000E+03 0. -1.
<mgrwt>
<rscale>  2 0.19462790E+03</rscale>
<asrwt>0</asrwt>
<pdfrwt beam="1">  1        2 0.24404329E-01 0.19462790E+03</pdfrwt>
<pdfrwt beam="2">  1       -2 0.39566249E-01 0.19462790E+03</pdfrwt>
<totfact> 0.13326705E+03</totfact>
</mgrwt>
</event>
<event>
 4    2  0.9414654E-001  0.1870093E+03  0.7546771E-02  0.1161187E+00
          1   -1    0    0  502    0  0.00000000000E+00  0.00000000000E+00  0.52085211897E+02  0.52085211897E+02  0.00000000000E+00 0. -1.
         -1   -1    0    0    0  501 -0.00000000000E+00 -0.00000000000E+00 -0.67602573614E+03  0.67602573614E+03  0.00000000000E+00 0.  1.
          6    1    1    2  502    0  0.67326110325E+02  0.22597949132E+02 -0.34193060455E+03  0.38972940710E+03  0.17300000000E+03 0.  1.
         -6    1    1    2    0  501 -0.67326110325E+02 -0.22597949132E+02 -0.28200991970E+03  0.33838154094E+03  0.17300000000E+03 0. -1.
<mgrwt>
<rscale>  2 0.18700928E+03</rscale>
<asrwt>0</asrwt>
<pdfrwt beam="1">  1        1 0.80131098E-02 0.18700928E+03</pdfrwt>
<pdfrwt beam="2">  1       -1 0.10400396E+00 0.18700928E+03</pdfrwt>
<totfact> 0.79602674E+02</totfact>
</mgrwt>
</event>
<event>
 4    2  0.9414654E-001  0.1969929E+03  0.7546771E-02  0.1152301E+00
          4   -1    0    0  502    0  0.00000000000E+00  0.00000000000E+00  0.56252010649E+02  0.56252010649E+02  0.00000000000E+00 0. -1.
         -4   -1    0    0    0  501 -0.00000000000E+00 -0.00000000000E+00 -0.78198746491E+03  0.78198746491E+03  0.00000000000E+00 0.  1.
          6    1    1    2  502    0  0.89373978024E+02  0.29824513010E+02 -0.50672257580E+03  0.54366715769E+03  0.17300000000E+03 0.  1.
         -6    1    1    2    0  501 -0.89373978024E+02 -0.29824513010E+02 -0.21901287846E+03  0.29457231787E+03  0.17300000000E+03 0. -1.
<mgrwt>
<rscale>  2 0.19699292E+03</rscale>
<asrwt>0</asrwt>
<pdfrwt beam="1">  1        4 0.86541552E-02 0.19699292E+03</pdfrwt>
<pdfrwt beam="2">  1       -4 0.12030577E+00 0.19699292E+03</pdfrwt>
<totfact> 0.94667027E+01</totfact>
</mgrwt>
</event>
<event>
 4    2  0.9414654E-001  0.2122516E+03  0.7546771E-02  0.1139795E+00
          2   -1    0    0  502    0  0.00000000000E+00  0.00000000000E+00  0.24093705039E+04  0.24093705039E+04  0.00000000000E+00 0.  1.
         -2   -1    0    0    0  501 -0.00000000000E+00 -0.00000000000E+00 -0.59423776349E+02  0.59423776349E+02  0.00000000000E+00 0. -1.
          6    1    1    2  502    0  0.11301317108E+03 -0.48474407872E+02  0.21968741349E+04  0.22071036926E+04  0.17300000000E+03 0.  1.
         -6    1    1    2    0  501 -0.11301317108E+03  0.48474407872E+02  0.15307259258E+03  0.26169058764E+03  0.17300000000E+03 0. -1.
<mgrwt>
<rscale>  2 0.21225161E+03</rscale>
<asrwt>0</asrwt>
<pdfrwt beam="1">  1        2 0.37067231E+00 0.21225161E+03</pdfrwt>
<pdfrwt beam="2">  1       -2 0.91421213E-02 0.21225161E+03</pdfrwt>
<totfact> 0.35005802E+02</totfact>
</mgrwt>
</event>
<event>
 4    2  0.9414654E-001  0.2120543E+03  0.7546771E-02  0.1139949E+00
         -1   -1    0    0    0  501 -0.00000000000E+00  0.00000000000E+00  0.33139216232E+02  0.33139216232E+02  0.00000000000E+00 0.  1.
          1   -1    0    0  502    0  0.00000000000E+00 -0.00000000000E+00 -0.13976968528E+04  0.13976968528E+04  0.00000000000E+00 0. -1.
          6    1    1    2  502    0 -0.52134884263E+02 -0.11099536847E+03 -0.56007072182E+03  0.59887079693E+03  0.17300000000E+03 0.  1.
         -6    1    1    2    0  501  0.52134884263E+02  0.11099536847E+03 -0.80448691479E+03  0.83196527214E+03  0.17300000000E+03 0. -1.
<mgrwt>
<rscale>  2 0.21205428E+03</rscale>
<asrwt>0</asrwt>
<pdfrwt beam="1">  1        1 0.21503032E+00 0.21205428E+03</pdfrwt>
<pdfrwt beam="2">  1       -1 0.50983402E-02 0.21205428E+03</pdfrwt>
<totfact> 0.14344392E+03</totfact>
</mgrwt>
</event>
<event>
 4    2  0.9414654E-001  0.2096122E+03  0.7546771E-02  0.1141873E+00
          2   -1    0    0  502    0  0.00000000000E+00  0.00000000000E+00  0.13170529307E+04  0.13170529307E+04  0.00000000000E+00 0.  1.
         -2   -1    0    0    0  501 -0.00000000000E+00 -0.00000000000E+00 -0.36928247230E+02  0.36928247230E+02  0.00000000000E+00 0. -1.
          6    1    1    2  502    0  0.57678876385E+02  0.10335104491E+03  0.42963022894E+03  0.47803705388E+03  0.17300000000E+03 0.  1.
         -6    1    1    2    0  501 -0.57678876385E+02 -0.10335104491E+03  0.85049445450E+03  0.87594412402E+03  0.17300000000E+03 0.  1.
<mgrwt>
<rscale>  2 0.20961224E+03</rscale>
<asrwt>0</asrwt>
<pdfrwt beam="1">  1        2 0.20262349E+00 0.20961224E+03</pdfrwt>
<pdfrwt beam="2">  1       -2 0.56812698E-02 0.20961224E+03</pdfrwt>
<totfact> 0.27580856E+03</totfact>
</mgrwt>
</event>
<event>
 4    2  0.9414654E-001  0.4351964E+03  0.7546771E-02  0.1032231E+00
          2   -1    0    0  502    0  0.00000000000E+00  0.00000000000E+00  0.15717225776E+04  0.15717225776E+04  0.00000000000E+00 0.  1.
         -2   -1    0    0    0  501 -0.00000000000E+00 -0.00000000000E+00 -0.17631917701E+03  0.17631917701E+03  0.00000000000E+00 0. -1.
          6    1    1    2  502    0  0.29997459498E+03 -0.26359464033E+03  0.20593906789E+03  0.48146317796E+03  0.17300000000E+03 0. -1.
         -6    1    1    2    0  501 -0.29997459498E+03  0.26359464033E+03  0.11894643327E+04  0.12665785766E+04  0.17300000000E+03 0.  1.
<mgrwt>
<rscale>  2 0.43519638E+03</rscale>
<asrwt>0</asrwt>
<pdfrwt beam="1">  1        2 0.24180346E+00 0.43519638E+03</pdfrwt>
<pdfrwt beam="2">  1       -2 0.27126028E-01 0.43519638E+03</pdfrwt>
<totfact> 0.15040657E+02</totfact>
</mgrwt>
</event>
<event>
 4    2  0.9414654E-001  0.2012674E+03  0.7546771E-02  0.1148674E+00
          1   -1    0    0  502    0  0.00000000000E+00  0.00000000000E+00  0.18461878600E+04  0.18461878600E+04  0.00000000000E+00 0. -1.
         -1   -1    0    0    0  501 -0.00000000000E+00 -0.00000000000E+00 -0.40427309421E+02  0.40427309421E+02  0.00000000000E+00 0.  1.
          6    1    1    2  502    0 -0.97948388274E+02  0.31395538116E+02  0.26500999056E+03  0.33277449072E+03  0.17300000000E+03 0.  1.
         -6    1    1    2    0  501  0.97948388274E+02 -0.31395538116E+02  0.15407505600E+04  0.15538406787E+04  0.17300000000E+03 0. -1.
<mgrwt>
<rscale>  2 0.20126740E+03</rscale>
<asrwt>0</asrwt>
<pdfrwt beam="1">  1        1 0.28402884E+00 0.20126740E+03</pdfrwt>
<pdfrwt beam="2">  1       -1 0.62195875E-02 0.20126740E+03</pdfrwt>
<totfact> 0.54318639E+02</totfact>
</mgrwt>
</event>
<event>
 4    2  0.9414654E-001  0.1780486E+03  0.7546771E-02  0.1169705E+00
         -2   -1    0    0    0  501 -0.00000000000E+00  0.00000000000E+00  0.14164130672E+02  0.14164130672E+02  0.00000000000E+00 0.  1.
          2   -1    0    0  502    0  0.00000000000E+00 -0.00000000000E+00 -0.24108973325E+04  0.24108973325E+04  0.00000000000E+00 0. -1.
          6    1    1    2  502    0  0.42098478843E+02  0.17757162702E+00 -0.87378708663E+03  0.89174278030E+03  0.17300000000E+03 0.  1.
         -6    1    1    2    0  501 -0.42098478843E+02 -0.17757162702E+00 -0.15229461152E+04  0.15333186829E+04  0.17300000000E+03 0. -1.
<mgrwt>
<rscale>  2 0.17804863E+03</rscale>
<asrwt>0</asrwt>
<pdfrwt beam="1">  1        2 0.37090758E+00 0.17804863E+03</pdfrwt>
<pdfrwt beam="2">  1       -2 0.21790953E-02 0.17804863E+03</pdfrwt>
<totfact> 0.30705738E+03</totfact>
</mgrwt>
</event>
<event>
 4    2  0.9414654E-001  0.2120637E+03  0.7546771E-02  0.1139942E+00
          1   -1    0    0  502    0  0.00000000000E+00  0.00000000000E+00  0.15890122372E+03  0.15890122372E+03  0.00000000000E+00 0.  1.
         -1   -1    0    0    0  501 -0.00000000000E+00 -0.00000000000E+00 -0.28421981999E+03  0.28421981999E+03  0.00000000000E+00 0. -1.
          6    1    1    2  502    0  0.20657495022E+02 -0.12089370541E+03 -0.77100073400E+02  0.22564450232E+03  0.17300000000E+03 0.  1.
         -6    1    1    2    0  501 -0.20657495022E+02  0.12089370541E+03 -0.48218522871E+02  0.21747654140E+03  0.17300000000E+03 0.  1.
<mgrwt>
<rscale>  2 0.21206372E+03</rscale>
<asrwt>0</asrwt>
<pdfrwt beam="1">  1        1 0.24446342E-01 0.21206372E+03</pdfrwt>
<pdfrwt beam="2">  1       -1 0.43726125E-01 0.21206372E+03</pdfrwt>
<totfact> 0.10323170E+03</totfact>
</mgrwt>
</event>
<event>
 4    2  0.9414654E-001  0.2949917E+03  0.7546771E-02  0.1087771E+00
         -4   -1    0    0    0  501 -0.00000000000E+00  0.00000000000E+00  0.16059097416E+04  0.16059097416E+04  0.00000000000E+00 0.  1.
          4   -1    0    0  502    0  0.00000000000E+00 -0.00000000000E+00 -0.58074385081E+02  0.58074385081E+02  0.00000000000E+00 0. -1.
          6    1    1    2  502    0 -0.23682159398E+03  0.31727985126E+02  0.98916178122E+03  0.10322117815E+04  0.17300000000E+03 0.  1.
         -6    1    1    2    0  501  0.23682159398E+03 -0.31727985126E+02  0.55867357531E+03  0.63177234520E+03  0.17300000000E+03 0. -1.
<mgrwt>
<rscale>  2 0.29499175E+03</rscale>
<asrwt>0</asrwt>
<pdfrwt beam="1">  1        4 0.89345220E-02 0.29499175E+03</pdfrwt>
<pdfrwt beam="2">  1       -4 0.24706300E+00 0.29499175E+03</pdfrwt>
<totfact> 0.12559061E+01</totfact>
</mgrwt>
</event>
<event>
 4    2  0.9414654E-001  0.1761514E+03  0.7546771E-02  0.1171581E+00
         -2   -1    0    0    0  501 -0.00000000000E+00  0.00000000000E+00  0.49871022693E+03  0.49871022693E+03  0.00000000000E+00 0.  1.
          2   -1    0    0  502    0  0.00000000000E+00 -0.00000000000E+00 -0.85785173305E+02  0.85785173305E+02  0.00000000000E+00 0. -1.
          6    1    1    2  502    0  0.28194793716E+01  0.33050782443E+02  0.35963776242E+03  0.40046051471E+03  0.17300000000E+03 0.  1.
         -6    1    1    2    0  501 -0.28194793716E+01 -0.33050782443E+02  0.53287291197E+02  0.18403488552E+03  0.17300000000E+03 0. -1.
<mgrwt>
<rscale>  2 0.17615137E+03</rscale>
<asrwt>0</asrwt>
<pdfrwt beam="1">  1        2 0.13197719E-01 0.17615137E+03</pdfrwt>
<pdfrwt beam="2">  1       -2 0.76724648E-01 0.17615137E+03</pdfrwt>
<totfact> 0.70411792E+02</totfact>
</mgrwt>
</event>
<event>
 4    2  0.9414654E-001  0.1784738E+03  0.7546771E-02  0.1169288E+00
         -2   -1    0    0    0  501 -0.00000000000E+00  0.00000000000E+00  0.17358677545E+02  0.17358677545E+02  0.00000000000E+00 0. -1.
          2   -1    0    0  502    0  0.00000000000E+00 -0.00000000000E+00 -0.18572779266E+04  0.18572779266E+04  0.00000000000E+00 0.  1.
          6    1    1    2  502    0 -0.18983862275E+02 -0.39541349695E+02 -0.81726766767E+03  0.83652815014E+03  0.17300000000E+03 0. -1.
         -6    1    1    2    0  501  0.18983862275E+02  0.39541349695E+02 -0.10226515814E+04  0.10381084540E+04  0.17300000000E+03 0. -1.
<mgrwt>
<rscale>  2 0.17847382E+03</rscale>
<asrwt>0</asrwt>
<pdfrwt beam="1">  1        2 0.28573495E+00 0.17847382E+03</pdfrwt>
<pdfrwt beam="2">  1       -2 0.26705668E-02 0.17847382E+03</pdfrwt>
<totfact> 0.44334411E+03</totfact>
</mgrwt>
</event>
<event>
 4    2  0.9414654E-001  0.2188801E+03  0.7546771E-02  0.1134721E+00
         -2   -1    0    0    0  501 -0.00000000000E+00  0.00000000000E+00  0.10246113858E+02  0.10246113858E+02  0.00000000000E+00 0.  1.
          2   -1    0    0  502    0  0.00000000000E+00 -0.00000000000E+00 -0.46757814675E+04  0.46757814675E+04  0.00000000000E+00 0. -1.
          6    1    1    2  502    0 -0.13075740990E+03  0.29698705156E+02 -0.23298173894E+04  0.23400764050E+04  0.17300000000E+03 0.  1.
         -6    1    1    2    0  501  0.13075740990E+03 -0.29698705156E+02 -0.23357179642E+04  0.23459511763E+04  0.17300000000E+03 0.  1.
<mgrwt>
<rscale>  2 0.21888013E+03</rscale>
<asrwt>0</asrwt>
<pdfrwt beam="1">  1        2 0.71935096E+00 0.21888013E+03</pdfrwt>
<pdfrwt beam="2">  1       -2 0.15763253E-02 0.21888013E+03</pdfrwt>
<totfact> 0.12940056E+02</totfact>
</mgrwt>
</event>
<event>
 4    2  0.9414654E-001  0.1980198E+03  0.7546771E-02  0.1151421E+00
         -1   -1    0    0    0  501 -0.00000000000E+00  0.00000000000E+00  0.93265546010E+02  0.93265546010E+02  0.00000000000E+00 0.  1.
          1   -1    0    0  502    0  0.00000000000E+00 -0.00000000000E+00 -0.57742645358E+03  0.57742645358E+03  0.00000000000E+00 0. -1.
          6    1    1    2  502    0 -0.75320261137E+02 -0.60080850779E+02 -0.41693885254E+03  0.46157324135E+03  0.17300000000E+03 0. -1.
         -6    1    1    2    0  501  0.75320261137E+02  0.60080850779E+02 -0.67222055032E+02  0.20911875825E+03  0.17300000000E+03 0. -1.
<mgrwt>
<rscale>  2 0.19801982E+03</rscale>
<asrwt>0</asrwt>
<pdfrwt beam="1">  1        1 0.88834840E-01 0.19801982E+03</pdfrwt>
<pdfrwt beam="2">  1       -1 0.14348545E-01 0.19801982E+03</pdfrwt>
<totfact> 0.12778142E+03</totfact>
</mgrwt>
</event>
<event>
 4    2  0.9414654E-001  0.2074492E+03  0.7546771E-02  0.1143602E+00
         -2   -1    0    0    0  501 -0.00000000000E+00  0.00000000000E+00  0.11129584960E+03  0.11129584960E+03  0.00000000000E+00 0. -1.
          2   -1    0    0  502    0  0.00000000000E+00 -0.00000000000E+00 -0.65300376763E+03  0.65300376763E+03  0.00000000000E+00 0.  1.
          6    1    1    2  502    0  0.11298579232E+03 -0.18449063594E+02 -0.26799889057E+02  0.20917311316E+03  0.17300000000E+03 0. -1.
         -6    1    1    2    0  501 -0.11298579232E+03  0.18449063594E+02 -0.51490802898E+03  0.55512650407E+03  0.17300000000E+03 0.  1.
<mgrwt>
<rscale>  2 0.20744917E+03</rscale>
<asrwt>0</asrwt>
<pdfrwt beam="1">  1        2 0.10046212E+00 0.20744917E+03</pdfrwt>
<pdfrwt beam="2">  1       -2 0.17122438E-01 0.20744917E+03</pdfrwt>
<totfact> 0.12497597E+03</totfact>
</mgrwt>
</event>
<event>
 4    2  0.9414654E-001  0.2551124E+03  0.7546771E-02  0.1110116E+00
         -3   -1    0    0    0  501 -0.00000000000E+00  0.00000000000E+00  0.57064905037E+03  0.57064905037E+03  0.00000000000E+00 0. -1.
          3   -1    0    0  502    0  0.00000000000E+00 -0.00000000000E+00 -0.11433125181E+03  0.11433125181E+03  0.00000000000E+00 0.  1.
          6    1    1    2  502    0 -0.24746070330E+02 -0.18585198353E+03  0.24515615694E+03  0.35381332516E+03  0.17300000000E+03 0.  1.
         -6    1    1    2    0  501  0.24746070330E+02  0.18585198353E+03  0.21116164162E+03  0.33116697702E+03  0.17300000000E+03 0. -1.
<mgrwt>
<rscale>  2 0.25511238E+03</rscale>
<asrwt>0</asrwt>
<pdfrwt beam="1">  1        3 0.17589424E-01 0.25511238E+03</pdfrwt>
<pdfrwt beam="2">  1       -3 0.87792160E-01 0.25511238E+03</pdfrwt>
<totfact> 0.85114665E+01</totfact>
</mgrwt>
</event>
<event>
 4    2  0.9414654E-001  0.2346891E+03  0.7546771E-02  0.1123382E+00
          2   -1    0    0  502    0  0.00000000000E+00  0.00000000000E+00  0.73396833378E+03  0.73396833378E+03  0.00000000000E+00 0. -1.
         -2   -1    0    0    0  501 -0.00000000000E+00 -0.00000000000E+00 -0.87482466476E+02  0.87482466476E+02  0.00000000000E+00 0.  1.
          6    1    1    2  502    0 -0.11692563719E+02  0.15815576930E+03  0.47812360233E+03  0.53261725706E+03  0.17300000000E+03 0. -1.
         -6    1    1    2    0  501  0.11692563719E+02 -0.15815576930E+03  0.16836226497E+03  0.28883354320E+03  0.17300000000E+03 0.  1.
<mgrwt>
<rscale>  2 0.23468908E+03</rscale>
<asrwt>0</asrwt>
<pdfrwt beam="1">  1        2 0.11291820E+00 0.23468908E+03</pdfrwt>
<pdfrwt beam="2">  1       -2 0.13458842E-01 0.23468908E+03</pdfrwt>
<totfact> 0.16182064E+03</totfact>
</mgrwt>
</event>
<event>
 4    2  0.9414654E-001  0.1783792E+03  0.7546771E-02  0.1169381E+00
          2   -1    0    0  502    0  0.00000000000E+00  0.00000000000E+00  0.14212934846E+03  0.14212934846E+03  0.00000000000E+00 0. -1.
         -2   -1    0    0    0  501 -0.00000000000E+00 -0.00000000000E+00 -0.22429135109E+03  0.22429135109E+03  0.00000000000E+00 0.  1.
          6    1    1    2  502    0 -0.43156399144E+02 -0.52604965745E+01 -0.33183409899E+02  0.18143948386E+03  0.17300000000E+03 0.  1.
         -6    1    1    2    0  501  0.43156399144E+02  0.52604965745E+01 -0.48978592734E+02  0.18498121569E+03  0.17300000000E+03 0. -1.
<mgrwt>
<rscale>  2 0.17837922E+03</rscale>
<asrwt>0</asrwt>
<pdfrwt beam="1">  1        2 0.21866054E-01 0.17837922E+03</pdfrwt>
<pdfrwt beam="2">  1       -2 0.34506362E-01 0.17837922E+03</pdfrwt>
<totfact> 0.19431863E+03</totfact>
</mgrwt>
</event>
<event>
 4    2  0.9414654E-001  0.1946599E+03  0.7546771E-02  0.1154324E+00
          2   -1    0    0  502    0  0.00000000000E+00  0.00000000000E+00  0.99559910710E+02  0.99559910710E+02  0.00000000000E+00 0.  1.
         -2   -1    0    0    0  501 -0.00000000000E+00 -0.00000000000E+00 -0.39206379431E+03  0.39206379431E+03  0.00000000000E+00 0. -1.
          6    1    1    2  502    0 -0.55152296870E+02 -0.70154790772E+02 -0.18828535294E+03  0.27082068727E+03  0.17300000000E+03 0.  1.
         -6    1    1    2    0  501  0.55152296870E+02  0.70154790772E+02 -0.10421853066E+03  0.22080301776E+03  0.17300000000E+03 0. -1.
<mgrwt>
<rscale>  2 0.19465988E+03</rscale>
<asrwt>0</asrwt>
<pdfrwt beam="1">  1        2 0.15316910E-01 0.19465988E+03</pdfrwt>
<pdfrwt beam="2">  1       -2 0.60317506E-01 0.19465988E+03</pdfrwt>
<totfact> 0.98567354E+02</totfact>
</mgrwt>
</event>
<event>
 4    2  0.9414654E-001  0.2818093E+03  0.7546771E-02  0.1094705E+00
         -2   -1    0    0    0  501 -0.00000000000E+00  0.00000000000E+00  0.16691850935E+03  0.16691850935E+03  0.00000000000E+00 0.  1.
          2   -1    0    0  502    0  0.00000000000E+00 -0.00000000000E+00 -0.47615647441E+03  0.47615647441E+03  0.00000000000E+00 0. -1.
          6    1    1    2  502    0  0.22208290303E+03 -0.12909402675E+02 -0.16366157993E+03  0.32588584081E+03  0.17300000000E+03 0.  1.
         -6    1    1    2    0  501 -0.22208290303E+03  0.12909402675E+02 -0.14557638514E+03  0.31718914295E+03  0.17300000000E+03 0. -1.
<mgrwt>
<rscale>  2 0.28180928E+03</rscale>
<asrwt>0</asrwt>
<pdfrwt beam="1">  1        2 0.73254842E-01 0.28180928E+03</pdfrwt>
<pdfrwt beam="2">  1       -2 0.25679771E-01 0.28180928E+03</pdfrwt>
<totfact> 0.89348285E+02</totfact>
</mgrwt>
</event>
<event>
 4    2  0.9414654E-001  0.1822904E+03  0.7546771E-02  0.1165605E+00
         -2   -1    0    0    0  501 -0.00000000000E+00  0.00000000000E+00  0.50791053857E+02  0.50791053857E+02  0.00000000000E+00 0. -1.
          2   -1    0    0  502    0  0.00000000000E+00 -0.00000000000E+00 -0.69741642234E+03  0.69741642234E+03  0.00000000000E+00 0.  1.
          6    1    1    2  502    0 -0.17615740776E+02 -0.54685302510E+02 -0.23023538251E+03  0.29366329017E+03  0.17300000000E+03 0. -1.
         -6    1    1    2    0  501  0.17615740776E+02  0.54685302510E+02 -0.41638998597E+03  0.45454418603E+03  0.17300000000E+03 0. -1.
<mgrwt>
<rscale>  2 0.18229042E+03</rscale>
<asrwt>0</asrwt>
<pdfrwt beam="1">  1        2 0.10729483E+00 0.18229042E+03</pdfrwt>
<pdfrwt beam="2">  1       -2 0.78140082E-02 0.18229042E+03</pdfrwt>
<totfact> 0.40677608E+03</totfact>
</mgrwt>
</event>
<event>
 4    2  0.9414654E-001  0.1790678E+03  0.7546771E-02  0.1168708E+00
         -2   -1    0    0    0  501 -0.00000000000E+00  0.00000000000E+00  0.56158204396E+02  0.56158204396E+02  0.00000000000E+00 0. -1.
          2   -1    0    0  502    0  0.00000000000E+00 -0.00000000000E+00 -0.57155673772E+03  0.57155673772E+03  0.00000000000E+00 0.  1.
          6    1    1    2  502    0  0.18467715189E+02 -0.42369979130E+02 -0.24773859254E+03  0.30567905043E+03  0.17300000000E+03 0.  1.
         -6    1    1    2    0  501 -0.18467715189E+02  0.42369979130E+02 -0.26765994078E+03  0.32203589169E+03  0.17300000000E+03 0. -1.
<mgrwt>
<rscale>  2 0.17906779E+03</rscale>
<asrwt>0</asrwt>
<pdfrwt beam="1">  1        2 0.87931805E-01 0.17906779E+03</pdfrwt>
<pdfrwt beam="2">  1       -2 0.86397238E-02 0.17906779E+03</pdfrwt>
<totfact> 0.43846398E+03</totfact>
</mgrwt>
</event>
<event>
 4    2  0.9414654E-001  0.2675881E+03  0.7546771E-02  0.1102668E+00
         -2   -1    0    0    0  501 -0.00000000000E+00  0.00000000000E+00  0.14561477392E+03  0.14561477392E+03  0.00000000000E+00 0. -1.
          2   -1    0    0  502    0  0.00000000000E+00 -0.00000000000E+00 -0.52116773435E+03  0.52116773435E+03  0.00000000000E+00 0.  1.
          6    1    1    2  502    0 -0.18279421028E+03  0.90888230505E+02 -0.26700935723E+03  0.37801771203E+03  0.17300000000E+03 0.  1.
         -6    1    1    2    0  501  0.18279421028E+03 -0.90888230505E+02 -0.10854360319E+03  0.28876479624E+03  0.17300000000E+03 0. -1.
<mgrwt>
<rscale>  2 0.26758810E+03</rscale>
<asrwt>0</asrwt>
<pdfrwt beam="1">  1        2 0.80179652E-01 0.26758810E+03</pdfrwt>
<pdfrwt beam="2">  1       -2 0.22402273E-01 0.26758810E+03</pdfrwt>
<totfact> 0.10263429E+03</totfact>
</mgrwt>
</event>
<event>
 4    2  0.9414654E-001  0.2244550E+03  0.7546771E-02  0.1130605E+00
         -2   -1    0    0    0  501 -0.00000000000E+00  0.00000000000E+00  0.39058598610E+02  0.39058598610E+02  0.00000000000E+00 0.  1.
          2   -1    0    0  502    0  0.00000000000E+00 -0.00000000000E+00 -0.16151807662E+04  0.16151807662E+04  0.00000000000E+00 0. -1.
          6    1    1    2  502    0 -0.42613835501E+02 -0.13651043467E+03 -0.41685493992E+03  0.47344279347E+03  0.17300000000E+03 0.  1.
         -6    1    1    2    0  501  0.42613835501E+02  0.13651043467E+03 -0.11592672277E+04  0.11807965714E+04  0.17300000000E+03 0.  1.
<mgrwt>
<rscale>  2 0.22445498E+03</rscale>
<asrwt>0</asrwt>
<pdfrwt beam="1">  1        2 0.24848934E+00 0.22445498E+03</pdfrwt>
<pdfrwt beam="2">  1       -2 0.60090154E-02 0.22445498E+03</pdfrwt>
<totfact> 0.17531631E+03</totfact>
</mgrwt>
</event>
<event>
 4    2  0.9414654E-001  0.2495855E+03  0.7546771E-02  0.1113567E+00
         -2   -1    0    0    0  501 -0.00000000000E+00  0.00000000000E+00  0.14201686420E+03  0.14201686420E+03  0.00000000000E+00 0. -1.
          2   -1    0    0  502    0  0.00000000000E+00 -0.00000000000E+00 -0.66078092928E+03  0.66078092928E+03  0.00000000000E+00 0.  1.
          6    1    1    2  502    0 -0.13871638123E+03 -0.11454994744E+03 -0.49212202999E+03  0.55179436141E+03  0.17300000000E+03 0.  1.
         -6    1    1    2    0  501  0.13871638123E+03  0.11454994744E+03 -0.26642035085E+02  0.25100343207E+03  0.17300000000E+03 0. -1.
<mgrwt>
<rscale>  2 0.24958551E+03</rscale>
<asrwt>0</asrwt>
<pdfrwt beam="1">  1        2 0.10165860E+00 0.24958551E+03</pdfrwt>
<pdfrwt beam="2">  1       -2 0.21848748E-01 0.24958551E+03</pdfrwt>
<totfact> 0.81371886E+02</totfact>
</mgrwt>
</event>
<event>
 4    2  0.9414654E-001  0.2253221E+03  0.7546771E-02  0.1129976E+00
         -1   -1    0    0    0  501 -0.00000000000E+00  0.00000000000E+00  0.73410649520E+02  0.73410649520E+02  0.00000000000E+00 0. -1.
          1   -1    0    0  502    0  0.00000000000E+00 -0.00000000000E+00 -0.74084795366E+03  0.74084795366E+03  0.00000000000E+00 0.  1.
          6    1    1    2  502    0 -0.12645537559E+03  0.69642441171E+02 -0.43869908774E+03  0.49318041447E+03  0.17300000000E+03 0. -1.
         -6    1    1    2    0  501  0.12645537559E+03 -0.69642441171E+02 -0.22873821640E+03  0.32107818872E+03  0.17300000000E+03 0. -1.
<mgrwt>
<rscale>  2 0.22532206E+03</rscale>
<asrwt>0</asrwt>
<pdfrwt beam="1">  1        1 0.11397661E+00 0.22532206E+03</pdfrwt>
<pdfrwt beam="2">  1       -1 0.11293946E-01 0.22532206E+03</pdfrwt>
<totfact> 0.13055363E+03</totfact>
</mgrwt>
</event>
<event>
 4    2  0.9414654E-001  0.2066565E+03  0.7546771E-02  0.1144241E+00
          1   -1    0    0  502    0  0.00000000000E+00  0.00000000000E+00  0.50381956521E+03  0.50381956521E+03  0.00000000000E+00 0. -1.
         -1   -1    0    0    0  501 -0.00000000000E+00 -0.00000000000E+00 -0.10868184784E+03  0.10868184784E+03  0.00000000000E+00 0.  1.
          6    1    1    2  502    0 -0.77059096906E+02  0.82703105697E+02  0.53907826963E+02  0.21357191275E+03  0.17300000000E+03 0.  1.
         -6    1    1    2    0  501  0.77059096906E+02 -0.82703105697E+02  0.34122989040E+03  0.39892950030E+03  0.17300000000E+03 0. -1.
<mgrwt>
<rscale>  2 0.20665650E+03</rscale>
<asrwt>0</asrwt>
<pdfrwt beam="1">  1        1 0.77510701E-01 0.20665650E+03</pdfrwt>
<pdfrwt beam="2">  1       -1 0.16720285E-01 0.20665650E+03</pdfrwt>
<totfact> 0.12046494E+03</totfact>
</mgrwt>
</event>
<event>
 4    2  0.9414654E-001  0.1735206E+03  0.7546771E-02  0.1174225E+00
          2   -1    0    0  502    0  0.00000000000E+00  0.00000000000E+00  0.58878590026E+03  0.58878590026E+03  0.00000000000E+00 0. -1.
         -2   -1    0    0    0  501 -0.00000000000E+00 -0.00000000000E+00 -0.51486639783E+02  0.51486639783E+02  0.00000000000E+00 0.  1.
          6    1    1    2  502    0  0.99038967485E+01 -0.90718355289E+01  0.29498995100E+03  0.34224034911E+03  0.17300000000E+03 0. -1.
         -6    1    1    2    0  501 -0.99038967485E+01  0.90718355289E+01  0.24230930948E+03  0.29803219094E+03  0.17300000000E+03 0.  1.
<mgrwt>
<rscale>  2 0.17352056E+03</rscale>
<asrwt>0</asrwt>
<pdfrwt beam="1">  1        2 0.90582442E-01 0.17352056E+03</pdfrwt>
<pdfrwt beam="2">  1       -2 0.79210219E-02 0.17352056E+03</pdfrwt>
<totfact> 0.48462583E+03</totfact>
</mgrwt>
</event>
<event>
 4    2  0.9414654E-001  0.1874869E+03  0.7546771E-02  0.1160748E+00
         -2   -1    0    0    0  501 -0.00000000000E+00  0.00000000000E+00  0.26344836162E+02  0.26344836162E+02  0.00000000000E+00 0. -1.
          2   -1    0    0  502    0  0.00000000000E+00 -0.00000000000E+00 -0.14507169290E+04  0.14507169290E+04  0.00000000000E+00 0.  1.
          6    1    1    2  502    0 -0.59387631863E+02 -0.41175809476E+02 -0.92141713950E+03  0.94029829473E+03  0.17300000000E+03 0. -1.
         -6    1    1    2    0  501  0.59387631863E+02  0.41175809476E+02 -0.50295495334E+03  0.53676347044E+03  0.17300000000E+03 0.  1.
<mgrwt>
<rscale>  2 0.18748690E+03</rscale>
<asrwt>0</asrwt>
<pdfrwt beam="1">  1        2 0.22318720E+00 0.18748690E+03</pdfrwt>
<pdfrwt beam="2">  1       -2 0.40530521E-02 0.18748690E+03</pdfrwt>
<totfact> 0.38891574E+03</totfact>
</mgrwt>
</event>
<event>
 4    2  0.9414654E-001  0.3229837E+03  0.7546771E-02  0.1074284E+00
          1   -1    0    0  502    0  0.00000000000E+00  0.00000000000E+00  0.78277827511E+02  0.78277827511E+02  0.00000000000E+00 0. -1.
         -1   -1    0    0    0  501 -0.00000000000E+00 -0.00000000000E+00 -0.13749511780E+04  0.13749511780E+04  0.00000000000E+00 0.  1.
          6    1    1    2  502    0 -0.41496365584E+02 -0.26956908681E+03 -0.77575698355E+03  0.84030788313E+03  0.17300000000E+03 0.  1.
         -6    1    1    2    0  501  0.41496365584E+02  0.26956908681E+03 -0.52091636697E+03  0.61292112241E+03  0.17300000000E+03 0. -1.
<mgrwt>
<rscale>  2 0.32298365E+03</rscale>
<asrwt>0</asrwt>
<pdfrwt beam="1">  1        1 0.12042743E-01 0.32298365E+03</pdfrwt>
<pdfrwt beam="2">  1       -1 0.21153095E+00 0.32298365E+03</pdfrwt>
<totfact> 0.69572287E+01</totfact>
</mgrwt>
</event>
<event>
 4    2  0.9414654E-001  0.2172891E+03  0.7546771E-02  0.1135920E+00
          1   -1    0    0  502    0  0.00000000000E+00  0.00000000000E+00  0.14921309822E+04  0.14921309822E+04  0.00000000000E+00 0.  1.
         -1   -1    0    0    0  501 -0.00000000000E+00 -0.00000000000E+00 -0.32163667008E+02  0.32163667008E+02  0.00000000000E+00 0. -1.
          6    1    1    2  502    0  0.81631333184E+02  0.10306242241E+03  0.82701347884E+03  0.85508235373E+03  0.17300000000E+03 0.  1.
         -6    1    1    2    0  501 -0.81631333184E+02 -0.10306242241E+03  0.63295383634E+03  0.66921229547E+03  0.17300000000E+03 0. -1.
<mgrwt>
<rscale>  2 0.21728906E+03</rscale>
<asrwt>0</asrwt>
<pdfrwt beam="1">  1        1 0.22955856E+00 0.21728906E+03</pdfrwt>
<pdfrwt beam="2">  1       -1 0.49482576E-02 0.21728906E+03</pdfrwt>
<totfact> 0.12982601E+03</totfact>
</mgrwt>
</event>
<event>
 4    2  0.9414654E-001  0.3871270E+03  0.7546771E-02  0.1048331E+00
         -2   -1    0    0    0  501 -0.00000000000E+00  0.00000000000E+00  0.29361726746E+03  0.29361726746E+03  0.00000000000E+00 0. -1.
          2   -1    0    0  502    0  0.00000000000E+00 -0.00000000000E+00 -0.51696150308E+03  0.51696150308E+03  0.00000000000E+00 0.  1.
          6    1    1    2  502    0  0.29145482764E+03 -0.18706260562E+03 -0.66072177361E+02  0.39272492613E+03  0.17300000000E+03 0. -1.
         -6    1    1    2    0  501 -0.29145482764E+03  0.18706260562E+03 -0.15727205826E+03  0.41785384441E+03  0.17300000000E+03 0.  1.
<mgrwt>
<rscale>  2 0.38712703E+03</rscale>
<asrwt>0</asrwt>
<pdfrwt beam="1">  1        2 0.79532539E-01 0.38712703E+03</pdfrwt>
<pdfrwt beam="2">  1       -2 0.45171888E-01 0.38712703E+03</pdfrwt>
<totfact> 0.28191951E+02</totfact>
</mgrwt>
</event>
<event>
 4    2  0.9414654E-001  0.1953687E+03  0.7546771E-02  0.1153706E+00
          1   -1    0    0  502    0  0.00000000000E+00  0.00000000000E+00  0.28786412760E+03  0.28786412760E+03  0.00000000000E+00 0.  1.
         -1   -1    0    0    0  501 -0.00000000000E+00 -0.00000000000E+00 -0.17515614323E+03  0.17515614323E+03  0.00000000000E+00 0. -1.
          6    1    1    2  502    0 -0.64333061225E+02  0.64040482055E+02 -0.57768532543E+02  0.20373053149E+03  0.17300000000E+03 0.  1.
         -6    1    1    2    0  501  0.64333061225E+02 -0.64040482055E+02  0.17047651691E+03  0.25928973934E+03  0.17300000000E+03 0. -1.
<mgrwt>
<rscale>  2 0.19536869E+03</rscale>
<asrwt>0</asrwt>
<pdfrwt beam="1">  1        1 0.44286789E-01 0.19536869E+03</pdfrwt>
<pdfrwt beam="2">  1       -1 0.26947099E-01 0.19536869E+03</pdfrwt>
<totfact> 0.11291419E+03</totfact>
</mgrwt>
</event>
<event>
 4    2  0.9414654E-001  0.3317805E+03  0.7546771E-02  0.1070352E+00
         -2   -1    0    0    0  501 -0.00000000000E+00  0.00000000000E+00  0.41818483144E+02  0.41818483144E+02  0.00000000000E+00 0. -1.
          2   -1    0    0  502    0  0.00000000000E+00 -0.00000000000E+00 -0.28173463870E+04  0.28173463870E+04  0.00000000000E+00 0.  1.
          6    1    1    2  502    0  0.96985884590E+02  0.26597562431E+03 -0.17541537542E+04  0.17852545163E+04  0.17300000000E+03 0. -1.
         -6    1    1    2    0  501 -0.96985884590E+02 -0.26597562431E+03 -0.10213741496E+04  0.10739103538E+04  0.17300000000E+03 0.  1.
<mgrwt>
<rscale>  2 0.33178049E+03</rscale>
<asrwt>0</asrwt>
<pdfrwt beam="1">  1        2 0.43343799E+00 0.33178049E+03</pdfrwt>
<pdfrwt beam="2">  1       -2 0.64336116E-02 0.33178049E+03</pdfrwt>
<totfact> 0.34902180E+02</totfact>
</mgrwt>
</event>
<event>
 4    2  0.9414654E-001  0.1997931E+03  0.7546771E-02  0.1149914E+00
         -1   -1    0    0    0  501 -0.00000000000E+00  0.00000000000E+00  0.72110930038E+02  0.72110930038E+02  0.00000000000E+00 0. -1.
          1   -1    0    0  502    0  0.00000000000E+00 -0.00000000000E+00 -0.55378491152E+03  0.55378491152E+03  0.00000000000E+00 0.  1.
          6    1    1    2  502    0 -0.92406213672E+01  0.99513303310E+02 -0.23444527429E+03  0.30802901366E+03  0.17300000000E+03 0. -1.
         -6    1    1    2    0  501  0.92406213672E+01 -0.99513303310E+02 -0.24722870719E+03  0.31786682790E+03  0.17300000000E+03 0. -1.
<mgrwt>
<rscale>  2 0.19979311E+03</rscale>
<asrwt>0</asrwt>
<pdfrwt beam="1">  1        1 0.85197679E-01 0.19979311E+03</pdfrwt>
<pdfrwt beam="2">  1       -1 0.11093989E-01 0.19979311E+03</pdfrwt>
<totfact> 0.20220725E+03</totfact>
</mgrwt>
</event>
<event>
 4    2  0.9414654E-001  0.1769524E+03  0.7546771E-02  0.1170786E+00
         -2   -1    0    0    0  501 -0.00000000000E+00  0.00000000000E+00  0.11458263487E+02  0.11458263487E+02  0.00000000000E+00 0. -1.
          2   -1    0    0  502    0  0.00000000000E+00 -0.00000000000E+00 -0.31937511726E+04  0.31937511726E+04  0.00000000000E+00 0.  1.
          6    1    1    2  502    0 -0.23018018818E+02 -0.29211765286E+02 -0.98224939643E+03  0.99806113701E+03  0.17300000000E+03 0. -1.
         -6    1    1    2    0  501  0.23018018818E+02  0.29211765286E+02 -0.22000435127E+04  0.22071482991E+04  0.17300000000E+03 0.  1.
<mgrwt>
<rscale>  2 0.17695241E+03</rscale>
<asrwt>0</asrwt>
<pdfrwt beam="1">  1        2 0.49134673E+00 0.17695241E+03</pdfrwt>
<pdfrwt beam="2">  1       -2 0.17628084E-02 0.17695241E+03</pdfrwt>
<totfact> 0.15085502E+03</totfact>
</mgrwt>
</event>
<event>
 4    2  0.9414654E-001  0.2383604E+03  0.7546771E-02  0.1120890E+00
          2   -1    0    0  502    0  0.00000000000E+00  0.00000000000E+00  0.15532874915E+04  0.15532874915E+04  0.00000000000E+00 0.  1.
         -2   -1    0    0    0  501 -0.00000000000E+00 -0.00000000000E+00 -0.38890419551E+02  0.38890419551E+02  0.00000000000E+00 0. -1.
          6    1    1    2  502    0 -0.15015025209E+03 -0.65890622990E+02  0.56306415100E+03  0.61143839472E+03  0.17300000000E+03 0. -1.
         -6    1    1    2    0  501  0.15015025209E+03  0.65890622990E+02  0.95133292095E+03  0.98073951633E+03  0.17300000000E+03 0.  1.
<mgrwt>
<rscale>  2 0.23836038E+03</rscale>
<asrwt>0</asrwt>
<pdfrwt beam="1">  1        2 0.23896726E+00 0.23836038E+03</pdfrwt>
<pdfrwt beam="2">  1       -2 0.59831427E-02 0.23836038E+03</pdfrwt>
<totfact> 0.19017780E+03</totfact>
</mgrwt>
</event>
<event>
 4    2  0.9414654E-001  0.1881250E+03  0.7546771E-02  0.1160163E+00
         -1   -1    0    0    0  501 -0.00000000000E+00  0.00000000000E+00  0.72269801374E+02  0.72269801374E+02  0.00000000000E+00 0. -1.
          1   -1    0    0  502    0  0.00000000000E+00 -0.00000000000E+00 -0.49593000147E+03  0.49593000147E+03  0.00000000000E+00 0.  1.
          6    1    1    2  502    0 -0.67280749567E+02 -0.30582925280E+02 -0.18000519327E+03  0.26037066691E+03  0.17300000000E+03 0.  1.
         -6    1    1    2    0  501  0.67280749567E+02  0.30582925280E+02 -0.24365500683E+03  0.30782913594E+03  0.17300000000E+03 0.  1.
<mgrwt>
<rscale>  2 0.18812500E+03</rscale>
<asrwt>0</asrwt>
<pdfrwt beam="1">  1        1 0.76296922E-01 0.18812500E+03</pdfrwt>
<pdfrwt beam="2">  1       -1 0.11118431E-01 0.18812500E+03</pdfrwt>
<totfact> 0.23313165E+03</totfact>
</mgrwt>
</event>
<event>
 4    2  0.9414654E-001  0.3063973E+03  0.7546771E-02  0.1082086E+00
         -3   -1    0    0    0  501 -0.00000000000E+00  0.00000000000E+00  0.12290419428E+04  0.12290419428E+04  0.00000000000E+00 0.  1.
          3   -1    0    0  502    0  0.00000000000E+00 -0.00000000000E+00 -0.10842979168E+03  0.10842979168E+03  0.00000000000E+00 0. -1.
          6    1    1    2  502    0 -0.14003939276E+03 -0.21056898845E+03  0.19675556686E+03  0.36413195892E+03  0.17300000000E+03 0.  1.
         -6    1    1    2    0  501  0.14003939276E+03  0.21056898845E+03  0.92385658427E+03  0.97333977557E+03  0.17300000000E+03 0.  1.
<mgrwt>
<rscale>  2 0.30639734E+03</rscale>
<asrwt>0</asrwt>
<pdfrwt beam="1">  1        3 0.16681507E-01 0.30639734E+03</pdfrwt>
<pdfrwt beam="2">  1       -3 0.18908337E+00 0.30639734E+03</pdfrwt>
<totfact> 0.14297943E+01</totfact>
</mgrwt>
</event>
<event>
 4    2  0.9414654E-001  0.2259870E+03  0.7546771E-02  0.1129497E+00
         -1   -1    0    0    0  501 -0.00000000000E+00  0.00000000000E+00  0.22693848128E+03  0.22693848128E+03  0.00000000000E+00 0. -1.
          1   -1    0    0  502    0  0.00000000000E+00 -0.00000000000E+00 -0.28622890024E+03  0.28622890024E+03  0.00000000000E+00 0.  1.
          6    1    1    2  502    0 -0.10911740288E+03  0.96096490660E+02 -0.14827945710E+03  0.27029047435E+03  0.17300000000E+03 0.  1.
         -6    1    1    2    0  501  0.10911740288E+03 -0.96096490660E+02  0.88989038134E+02  0.24287690717E+03  0.17300000000E+03 0. -1.
<mgrwt>
<rscale>  2 0.22598704E+03</rscale>
<asrwt>0</asrwt>
<pdfrwt beam="1">  1        1 0.44035215E-01 0.22598704E+03</pdfrwt>
<pdfrwt beam="2">  1       -1 0.34913613E-01 0.22598704E+03</pdfrwt>
<totfact> 0.73245393E+02</totfact>
</mgrwt>
</event>
<event>
 4    2  0.9414654E-001  0.1810511E+03  0.7546771E-02  0.1166790E+00
         -1   -1    0    0    0  501 -0.00000000000E+00  0.00000000000E+00  0.29438163439E+03  0.29438163439E+03  0.00000000000E+00 0.  1.
          1   -1    0    0  502    0  0.00000000000E+00 -0.00000000000E+00 -0.16267883902E+03  0.16267883902E+03  0.00000000000E+00 0. -1.
          6    1    1    2  502    0 -0.27409841740E+02  0.45817208011E+02 -0.62516704123E+02  0.19154073788E+03  0.17300000000E+03 0. -1.
         -6    1    1    2    0  501  0.27409841740E+02 -0.45817208011E+02  0.19421949949E+03  0.26551973553E+03  0.17300000000E+03 0.  1.
<mgrwt>
<rscale>  2 0.18105114E+03</rscale>
<asrwt>0</asrwt>
<pdfrwt beam="1">  1        1 0.25027514E-01 0.18105114E+03</pdfrwt>
<pdfrwt beam="2">  1       -1 0.45289482E-01 0.18105114E+03</pdfrwt>
<totfact> 0.93835594E+02</totfact>
</mgrwt>
</event>
<event>
 4    2  0.9414654E-001  0.1805237E+03  0.7546771E-02  0.1167297E+00
          2   -1    0    0  502    0  0.00000000000E+00  0.00000000000E+00  0.12469304971E+04  0.12469304971E+04  0.00000000000E+00 0. -1.
         -2   -1    0    0    0  501 -0.00000000000E+00 -0.00000000000E+00 -0.29794435209E+02  0.29794435209E+02  0.00000000000E+00 0.  1.
          6    1    1    2  502    0  0.34353841772E+02 -0.38465988598E+02  0.83228194019E+03  0.85163492571E+03  0.17300000000E+03 0. -1.
         -6    1    1    2    0  501 -0.34353841772E+02  0.38465988598E+02  0.38485412174E+03  0.42509000664E+03  0.17300000000E+03 0.  1.
<mgrwt>
<rscale>  2 0.18052373E+03</rscale>
<asrwt>0</asrwt>
<pdfrwt beam="1">  1        2 0.19183542E+00 0.18052373E+03</pdfrwt>
<pdfrwt beam="2">  1       -2 0.45837602E-02 0.18052373E+03</pdfrwt>
<totfact> 0.41648136E+03</totfact>
</mgrwt>
</event>
<event>
 4    2  0.9414654E-001  0.1792300E+03  0.7546771E-02  0.1168550E+00
          2   -1    0    0  502    0  0.00000000000E+00  0.00000000000E+00  0.59505481028E+02  0.59505481028E+02  0.00000000000E+00 0.  1.
         -2   -1    0    0    0  501 -0.00000000000E+00 -0.00000000000E+00 -0.71031650980E+03  0.71031650980E+03  0.00000000000E+00 0. -1.
          6    1    1    2  502    0  0.25778175838E+02  0.39113463802E+02 -0.51397349558E+03  0.54432722838E+03  0.17300000000E+03 0. -1.
         -6    1    1    2    0  501 -0.25778175838E+02 -0.39113463802E+02 -0.13683753319E+03  0.22549476245E+03  0.17300000000E+03 0.  1.
<mgrwt>
<rscale>  2 0.17922996E+03</rscale>
<asrwt>0</asrwt>
<pdfrwt beam="1">  1        2 0.91546894E-02 0.17922996E+03</pdfrwt>
<pdfrwt beam="2">  1       -2 0.10927946E+00 0.17922996E+03</pdfrwt>
<totfact> 0.49415215E+02</totfact>
</mgrwt>
</event>
<event>
 4    2  0.9414654E-001  0.2117891E+03  0.7546771E-02  0.1140157E+00
          1   -1    0    0  502    0  0.00000000000E+00  0.00000000000E+00  0.77627721063E+03  0.77627721063E+03  0.00000000000E+00 0. -1.
         -1   -1    0    0    0  501 -0.00000000000E+00 -0.00000000000E+00 -0.97159965632E+02  0.97159965632E+02  0.00000000000E+00 0.  1.
          6    1    1    2  502    0 -0.98203567296E+02 -0.72675145268E+02  0.61532060214E+02  0.22054662048E+03  0.17300000000E+03 0.  1.
         -6    1    1    2    0  501  0.98203567296E+02  0.72675145268E+02  0.61758518479E+03  0.65289055579E+03  0.17300000000E+03 0. -1.
<mgrwt>
<rscale>  2 0.21178909E+03</rscale>
<asrwt>0</asrwt>
<pdfrwt beam="1">  1        1 0.11942726E+00 0.21178909E+03</pdfrwt>
<pdfrwt beam="2">  1       -1 0.14947688E-01 0.21178909E+03</pdfrwt>
<totfact> 0.78408749E+02</totfact>
</mgrwt>
</event>
<event>
 4    2  0.9414654E-001  0.2304613E+03  0.7546771E-02  0.1126315E+00
          2   -1    0    0  502    0  0.00000000000E+00  0.00000000000E+00  0.55067641449E+03  0.55067641449E+03  0.00000000000E+00 0. -1.
         -2   -1    0    0    0  501 -0.00000000000E+00 -0.00000000000E+00 -0.10006651970E+03  0.10006651970E+03  0.00000000000E+00 0.  1.
          6    1    1    2  502    0  0.13079462169E+03  0.77949909801E+02  0.28716570430E+03  0.36820722865E+03  0.17300000000E+03 0. -1.
         -6    1    1    2    0  501 -0.13079462169E+03 -0.77949909801E+02  0.16344419049E+03  0.28253570554E+03  0.17300000000E+03 0.  1.
<mgrwt>
<rscale>  2 0.23046132E+03</rscale>
<asrwt>0</asrwt>
<pdfrwt beam="1">  1        2 0.84719446E-01 0.23046132E+03</pdfrwt>
<pdfrwt beam="2">  1       -2 0.15394850E-01 0.23046132E+03</pdfrwt>
<totfact> 0.18205611E+03</totfact>
</mgrwt>
</event>
<event>
 4    2  0.9414654E-001  0.2348681E+03  0.7546771E-02  0.1123260E+00
         -2   -1    0    0    0  501 -0.00000000000E+00  0.00000000000E+00  0.45771001317E+02  0.45771001317E+02  0.00000000000E+00 0.  1.
          2   -1    0    0  502    0  0.00000000000E+00 -0.00000000000E+00 -0.12082999538E+04  0.12082999538E+04  0.00000000000E+00 0. -1.
          6    1    1    2  502    0 -0.14378448684E+03  0.67527971392E+02 -0.54948138224E+03  0.59757241821E+03  0.17300000000E+03 0.  1.
         -6    1    1    2    0  501  0.14378448684E+03 -0.67527971392E+02 -0.61304757021E+03  0.65649853688E+03  0.17300000000E+03 0.  1.
<mgrwt>
<rscale>  2 0.23486806E+03</rscale>
<asrwt>0</asrwt>
<pdfrwt beam="1">  1        2 0.18589231E+00 0.23486806E+03</pdfrwt>
<pdfrwt beam="2">  1       -2 0.70416920E-02 0.23486806E+03</pdfrwt>
<totfact> 0.22797789E+03</totfact>
</mgrwt>
</event>
<event>
 4    2  0.9414654E-001  0.1996422E+03  0.7546771E-02  0.1150041E+00
         -2   -1    0    0    0  501 -0.00000000000E+00  0.00000000000E+00  0.99317741651E+02  0.99317741651E+02  0.00000000000E+00 0.  1.
          2   -1    0    0  502    0  0.00000000000E+00 -0.00000000000E+00 -0.46328580934E+03  0.46328580934E+03  0.00000000000E+00 0. -1.
          6    1    1    2  502    0  0.73606437366E+02  0.67157318551E+02 -0.79095785104E+02  0.21473974080E+03  0.17300000000E+03 0.  1.
         -6    1    1    2    0  501 -0.73606437366E+02 -0.67157318551E+02 -0.28487228259E+03  0.34786381020E+03  0.17300000000E+03 0.  1.
<mgrwt>
<rscale>  2 0.19964221E+03</rscale>
<asrwt>0</asrwt>
<pdfrwt beam="1">  1        2 0.71274741E-01 0.19964221E+03</pdfrwt>
<pdfrwt beam="2">  1       -2 0.15279652E-01 0.19964221E+03</pdfrwt>
<totfact> 0.22294479E+03</totfact>
</mgrwt>
</event>
<event>
 4    2  0.9414654E-001  0.1921299E+03  0.7546771E-02  0.1156554E+00
         -2   -1    0    0    0  501 -0.00000000000E+00  0.00000000000E+00  0.10093192680E+02  0.10093192680E+02  0.00000000000E+00 0. -1.
          2   -1    0    0  502    0  0.00000000000E+00 -0.00000000000E+00 -0.37483164558E+04  0.37483164558E+04  0.00000000000E+00 0.  1.
          6    1    1    2  502    0  0.43019409776E+02  0.71653444532E+02 -0.15762896815E+04  0.15879556183E+04  0.17300000000E+03 0. -1.
         -6    1    1    2    0  501 -0.43019409776E+02 -0.71653444532E+02 -0.21619335817E+04  0.21704540302E+04  0.17300000000E+03 0.  1.
<mgrwt>
<rscale>  2 0.19212987E+03</rscale>
<asrwt>0</asrwt>
<pdfrwt beam="1">  1        2 0.57666437E+00 0.19212987E+03</pdfrwt>
<pdfrwt beam="2">  1       -2 0.15527981E-02 0.19212987E+03</pdfrwt>
<totfact> 0.78673273E+02</totfact>
</mgrwt>
</event>
<event>
 4    2  0.9414654E-001  0.2307652E+03  0.7546771E-02  0.1126102E+00
         -2   -1    0    0    0  501 -0.00000000000E+00  0.00000000000E+00  0.20062272718E+03  0.20062272718E+03  0.00000000000E+00 0.  1.
          2   -1    0    0  502    0  0.00000000000E+00 -0.00000000000E+00 -0.29448742873E+03  0.29448742873E+03  0.00000000000E+00 0. -1.
          6    1    1    2  502    0 -0.72001626724E+02  0.13468240422E+03 -0.12468565466E+03  0.26229581914E+03  0.17300000000E+03 0. -1.
         -6    1    1    2    0  501  0.72001626724E+02 -0.13468240422E+03  0.30820953108E+02  0.23281433677E+03  0.17300000000E+03 0. -1.
<mgrwt>
<rscale>  2 0.23076521E+03</rscale>
<asrwt>0</asrwt>
<pdfrwt beam="1">  1        2 0.45305758E-01 0.23076521E+03</pdfrwt>
<pdfrwt beam="2">  1       -2 0.30865035E-01 0.23076521E+03</pdfrwt>
<totfact> 0.10812741E+03</totfact>
</mgrwt>
</event>
<event>
 4    2  0.9414654E-001  0.1904570E+03  0.7546771E-02  0.1158050E+00
          2   -1    0    0  502    0  0.00000000000E+00  0.00000000000E+00  0.10340227572E+04  0.10340227572E+04  0.00000000000E+00 0.  1.
         -2   -1    0    0    0  501 -0.00000000000E+00 -0.00000000000E+00 -0.45544889984E+02  0.45544889984E+02  0.00000000000E+00 0. -1.
          6    1    1    2  502    0 -0.79113374555E+02 -0.92699237100E+01  0.75297714001E+03  0.77669069191E+03  0.17300000000E+03 0.  1.
         -6    1    1    2    0  501  0.79113374555E+02  0.92699237100E+01  0.23550072718E+03  0.30287695525E+03  0.17300000000E+03 0. -1.
<mgrwt>
<rscale>  2 0.19045697E+03</rscale>
<asrwt>0</asrwt>
<pdfrwt beam="1">  1        2 0.15908041E+00 0.19045697E+03</pdfrwt>
<pdfrwt beam="2">  1       -2 0.70069069E-02 0.19045697E+03</pdfrwt>
<totfact> 0.28923223E+03</totfact>
</mgrwt>
</event>
<event>
 4    2  0.9414654E-001  0.1777425E+03  0.7546771E-02  0.1170006E+00
          1   -1    0    0  502    0  0.00000000000E+00  0.00000000000E+00  0.36614348013E+02  0.36614348013E+02  0.00000000000E+00 0.  1.
         -1   -1    0    0    0  501 -0.00000000000E+00 -0.00000000000E+00 -0.96670732098E+03  0.96670732098E+03  0.00000000000E+00 0. -1.
          6    1    1    2  502    0 -0.27859956124E+02 -0.29785953119E+02 -0.62948326245E+03  0.65409598521E+03  0.17300000000E+03 0. -1.
         -6    1    1    2    0  501  0.27859956124E+02  0.29785953119E+02 -0.30060971052E+03  0.34922568378E+03  0.17300000000E+03 0. -1.
<mgrwt>
<rscale>  2 0.17774245E+03</rscale>
<asrwt>0</asrwt>
<pdfrwt beam="1">  1        1 0.56329766E-02 0.17774245E+03</pdfrwt>
<pdfrwt beam="2">  1       -1 0.14872420E+00 0.17774245E+03</pdfrwt>
<totfact> 0.54359840E+02</totfact>
</mgrwt>
</event>
<event>
 4    2  0.9414654E-001  0.1990325E+03  0.7546771E-02  0.1150558E+00
         -2   -1    0    0    0  501 -0.00000000000E+00  0.00000000000E+00  0.22763186345E+02  0.22763186345E+02  0.00000000000E+00 0.  1.
          2   -1    0    0  502    0  0.00000000000E+00 -0.00000000000E+00 -0.18582610850E+04  0.18582610850E+04  0.00000000000E+00 0. -1.
          6    1    1    2  502    0  0.47615721177E+02 -0.86125892157E+02 -0.11547492526E+04  0.11717763278E+04  0.17300000000E+03 0. -1.
         -6    1    1    2    0  501 -0.47615721177E+02  0.86125892157E+02 -0.68074864611E+03  0.70924794352E+03  0.17300000000E+03 0.  1.
<mgrwt>
<rscale>  2 0.19903248E+03</rscale>
<asrwt>0</asrwt>
<pdfrwt beam="1">  1        2 0.28588635E+00 0.19903248E+03</pdfrwt>
<pdfrwt beam="2">  1       -2 0.35020283E-02 0.19903248E+03</pdfrwt>
<totfact> 0.29638317E+03</totfact>
</mgrwt>
</event>
<event>
 4    2  0.9414654E-001  0.1762007E+03  0.7546771E-02  0.1171531E+00
         -2   -1    0    0    0  501 -0.00000000000E+00  0.00000000000E+00  0.15434306120E+02  0.15434306120E+02  0.00000000000E+00 0.  1.
          2   -1    0    0  502    0  0.00000000000E+00 -0.00000000000E+00 -0.28831188258E+04  0.28831188258E+04  0.00000000000E+00 0. -1.
          6    1    1    2  502    0 -0.29794664721E+02 -0.15164783340E+02 -0.22306872414E+04  0.22376354175E+04  0.17300000000E+03 0. -1.
         -6    1    1    2    0  501  0.29794664721E+02  0.15164783340E+02 -0.63699727825E+03  0.66091771439E+03  0.17300000000E+03 0.  1.
<mgrwt>
<rscale>  2 0.17620072E+03</rscale>
<asrwt>0</asrwt>
<pdfrwt beam="1">  1        2 0.44355712E+00 0.17620072E+03</pdfrwt>
<pdfrwt beam="2">  1       -2 0.23745066E-02 0.17620072E+03</pdfrwt>
<totfact> 0.14871348E+03</totfact>
</mgrwt>
</event>
<event>
 4    2  0.9414654E-001  0.1796989E+03  0.7546771E-02  0.1168095E+00
          1   -1    0    0  502    0  0.00000000000E+00  0.00000000000E+00  0.15067911000E+03  0.15067911000E+03  0.00000000000E+00 0.  1.
         -1   -1    0    0    0  501 -0.00000000000E+00 -0.00000000000E+00 -0.28050856211E+03  0.28050856211E+03  0.00000000000E+00 0. -1.
          6    1    1    2  502    0 -0.15290252086E+01  0.48583668778E+02 -0.16965042257E+03  0.24712947349E+03  0.17300000000E+03 0. -1.
         -6    1    1    2    0  501  0.15290252086E+01 -0.48583668778E+02  0.39820970460E+02  0.18405819862E+03  0.17300000000E+03 0.  1.
<mgrwt>
<rscale>  2 0.17969894E+03</rscale>
<asrwt>0</asrwt>
<pdfrwt beam="1">  1        1 0.23181402E-01 0.17969894E+03</pdfrwt>
<pdfrwt beam="2">  1       -1 0.43155163E-01 0.17969894E+03</pdfrwt>
<totfact> 0.11276163E+03</totfact>
</mgrwt>
</event>
<event>
 4    2  0.9414654E-001  0.2073878E+03  0.7546771E-02  0.1143651E+00
         -1   -1    0    0    0  501 -0.00000000000E+00  0.00000000000E+00  0.30266040369E+03  0.30266040369E+03  0.00000000000E+00 0.  1.
          1   -1    0    0  502    0  0.00000000000E+00 -0.00000000000E+00 -0.14349004916E+03  0.14349004916E+03  0.00000000000E+00 0. -1.
          6    1    1    2  502    0  0.11431939085E+03  0.34319888753E+01  0.57672375089E+02  0.21525753069E+03  0.17300000000E+03 0.  1.
         -6    1    1    2    0  501 -0.11431939085E+03 -0.34319888753E+01  0.10149797944E+03  0.23089292216E+03  0.17300000000E+03 0.  1.
<mgrwt>
<rscale>  2 0.20738781E+03</rscale>
<asrwt>0</asrwt>
<pdfrwt beam="1">  1        1 0.22075392E-01 0.20738781E+03</pdfrwt>
<pdfrwt beam="2">  1       -1 0.46563139E-01 0.20738781E+03</pdfrwt>
<totfact> 0.10490426E+03</totfact>
</mgrwt>
</event>
<event>
 4    2  0.9414654E-001  0.2647388E+03  0.7546771E-02  0.1104329E+00
         -2   -1    0    0    0  501 -0.00000000000E+00  0.00000000000E+00  0.41331134842E+02  0.41331134842E+02  0.00000000000E+00 0. -1.
          2   -1    0    0  502    0  0.00000000000E+00 -0.00000000000E+00 -0.20281419477E+04  0.20281419477E+04  0.00000000000E+00 0.  1.
          6    1    1    2  502    0  0.19170574377E+03  0.58365699217E+02 -0.57450022111E+03  0.63256395020E+03  0.17300000000E+03 0. -1.
         -6    1    1    2    0  501 -0.19170574377E+03 -0.58365699217E+02 -0.14123105917E+04  0.14369091323E+04  0.17300000000E+03 0.  1.
<mgrwt>
<rscale>  2 0.26473883E+03</rscale>
<asrwt>0</asrwt>
<pdfrwt beam="1">  1        2 0.31202181E+00 0.26473883E+03</pdfrwt>
<pdfrwt beam="2">  1       -2 0.63586367E-02 0.26473883E+03</pdfrwt>
<totfact> 0.97249154E+02</totfact>
</mgrwt>
</event>
<event>
 4    2  0.9414654E-001  0.1914723E+03  0.7546771E-02  0.1157140E+00
          2   -1    0    0  502    0  0.00000000000E+00  0.00000000000E+00  0.27391177628E+04  0.27391177628E+04  0.00000000000E+00 0.  1.
         -2   -1    0    0    0  501 -0.00000000000E+00 -0.00000000000E+00 -0.15080578824E+02  0.15080578824E+02  0.00000000000E+00 0. -1.
          6    1    1    2  502    0 -0.73891739817E+02  0.35674197464E+02  0.90018750929E+03  0.92032558883E+03  0.17300000000E+03 0. -1.
         -6    1    1    2    0  501  0.73891739817E+02 -0.35674197464E+02  0.18238496747E+04  0.18338727528E+04  0.17300000000E+03 0.  1.
<mgrwt>
<rscale>  2 0.19147229E+03</rscale>
<asrwt>0</asrwt>
<pdfrwt beam="1">  1        2 0.42140234E+00 0.19147229E+03</pdfrwt>
<pdfrwt beam="2">  1       -2 0.23200912E-02 0.19147229E+03</pdfrwt>
<totfact> 0.18508398E+03</totfact>
</mgrwt>
</event>
<event>
 4    2  0.9414654E-001  0.2413259E+03  0.7546771E-02  0.1118913E+00
         -1   -1    0    0    0  501 -0.00000000000E+00  0.00000000000E+00  0.11426726299E+03  0.11426726299E+03  0.00000000000E+00 0. -1.
          1   -1    0    0  502    0  0.00000000000E+00 -0.00000000000E+00 -0.83303018222E+03  0.83303018222E+03  0.00000000000E+00 0.  1.
          6    1    1    2  502    0  0.16784339197E+03 -0.11739009291E+02 -0.64279870057E+02  0.24974008541E+03  0.17300000000E+03 0. -1.
         -6    1    1    2    0  501 -0.16784339197E+03  0.11739009291E+02 -0.65448304917E+03  0.69755735980E+03  0.17300000000E+03 0.  1.
<mgrwt>
<rscale>  2 0.24132594E+03</rscale>
<asrwt>0</asrwt>
<pdfrwt beam="1">  1        1 0.12815850E+00 0.24132594E+03</pdfrwt>
<pdfrwt beam="2">  1       -1 0.17579578E-01 0.24132594E+03</pdfrwt>
<totfact> 0.54202905E+02</totfact>
</mgrwt>
</event>
<event>
 4    2  0.9414654E-001  0.1827976E+03  0.7546771E-02  0.1165123E+00
         -2   -1    0    0    0  501 -0.00000000000E+00  0.00000000000E+00  0.29224098893E+03  0.29224098893E+03  0.00000000000E+00 0. -1.
          2   -1    0    0  502    0  0.00000000000E+00 -0.00000000000E+00 -0.12898191954E+03  0.12898191954E+03  0.00000000000E+00 0.  1.
          6    1    1    2  502    0  0.28906063080E+01 -0.58971348191E+02  0.15258885217E+03  0.23811411827E+03  0.17300000000E+03 0. -1.
         -6    1    1    2    0  501 -0.28906063080E+01  0.58971348191E+02  0.10670217218E+02  0.18310879020E+03  0.17300000000E+03 0.  1.
<mgrwt>
<rscale>  2 0.18279764E+03</rscale>
<asrwt>0</asrwt>
<pdfrwt beam="1">  1        2 0.19843372E-01 0.18279764E+03</pdfrwt>
<pdfrwt beam="2">  1       -2 0.44960152E-01 0.18279764E+03</pdfrwt>
<totfact> 0.13138882E+03</totfact>
</mgrwt>
</event>
<event>
 4    2  0.9414654E-001  0.2048947E+03  0.7546771E-02  0.1145674E+00
         -2   -1    0    0    0  501 -0.00000000000E+00  0.00000000000E+00  0.44177058041E+02  0.44177058041E+02  0.00000000000E+00 0.  1.
          2   -1    0    0  502    0  0.00000000000E+00 -0.00000000000E+00 -0.12703196166E+04  0.12703196166E+04  0.00000000000E+00 0. -1.
          6    1    1    2  502    0 -0.54811620093E+02  0.95123661205E+02 -0.28319152163E+03  0.34954150332E+03  0.17300000000E+03 0.  1.
         -6    1    1    2    0  501  0.54811620093E+02 -0.95123661205E+02 -0.94295103691E+03  0.96495517131E+03  0.17300000000E+03 0. -1.
<mgrwt>
<rscale>  2 0.20489467E+03</rscale>
<asrwt>0</asrwt>
<pdfrwt beam="1">  1        2 0.19543383E+00 0.20489467E+03</pdfrwt>
<pdfrwt beam="2">  1       -2 0.67964690E-02 0.20489467E+03</pdfrwt>
<totfact> 0.22221439E+03</totfact>
</mgrwt>
</event>
<event>
 4    2  0.9414654E-001  0.1773657E+03  0.7546771E-02  0.1170377E+00
         -2   -1    0    0    0  501 -0.00000000000E+00  0.00000000000E+00  0.24025732982E+02  0.24025732982E+02  0.00000000000E+00 0. -1.
          2   -1    0    0  502    0  0.00000000000E+00 -0.00000000000E+00 -0.15768914999E+04  0.15768914999E+04  0.00000000000E+00 0.  1.
          6    1    1    2  502    0 -0.60388538874E+01  0.38640901771E+02 -0.11061313159E+04  0.11202611637E+04  0.17300000000E+03 0.  1.
         -6    1    1    2    0  501  0.60388538874E+01 -0.38640901771E+02 -0.44673445106E+03  0.48065606914E+03  0.17300000000E+03 0.  1.
<mgrwt>
<rscale>  2 0.17736569E+03</rscale>
<asrwt>0</asrwt>
<pdfrwt beam="1">  1        2 0.24259865E+00 0.17736569E+03</pdfrwt>
<pdfrwt beam="2">  1       -2 0.36962673E-02 0.17736569E+03</pdfrwt>
<totfact> 0.38271177E+03</totfact>
</mgrwt>
</event>
<event>
 4    2  0.9414654E-001  0.2367721E+03  0.7546771E-02  0.1121962E+00
         -2   -1    0    0    0  501 -0.00000000000E+00  0.00000000000E+00  0.23730212869E+03  0.23730212869E+03  0.00000000000E+00 0.  1.
          2   -1    0    0  502    0  0.00000000000E+00 -0.00000000000E+00 -0.24585986533E+03  0.24585986533E+03  0.00000000000E+00 0. -1.
          6    1    1    2  502    0  0.84439869648E+02  0.13784751203E+03 -0.52057078558E+02  0.24242724184E+03  0.17300000000E+03 0. -1.
         -6    1    1    2    0  501 -0.84439869648E+02 -0.13784751203E+03  0.43499341918E+02  0.24073475218E+03  0.17300000000E+03 0.  1.
<mgrwt>
<rscale>  2 0.23677210E+03</rscale>
<asrwt>0</asrwt>
<pdfrwt beam="1">  1        2 0.37824595E-01 0.23677210E+03</pdfrwt>
<pdfrwt beam="2">  1       -2 0.36508020E-01 0.23677210E+03</pdfrwt>
<totfact> 0.96293556E+02</totfact>
</mgrwt>
</event>
<event>
 4    2  0.9414654E-001  0.1847034E+03  0.7546771E-02  0.1163327E+00
         -1   -1    0    0    0  501 -0.00000000000E+00  0.00000000000E+00  0.56025297381E+03  0.56025297381E+03  0.00000000000E+00 0.  1.
          1   -1    0    0  502    0  0.00000000000E+00 -0.00000000000E+00 -0.61430401235E+02  0.61430401235E+02  0.00000000000E+00 0. -1.
          6    1    1    2  502    0  0.49243542060E+02  0.41969173198E+02  0.27849182682E+03  0.33417515697E+03  0.17300000000E+03 0. -1.
         -6    1    1    2    0  501 -0.49243542060E+02 -0.41969173198E+02  0.22033074576E+03  0.28750821808E+03  0.17300000000E+03 0. -1.
<mgrwt>
<rscale>  2 0.18470338E+03</rscale>
<asrwt>0</asrwt>
<pdfrwt beam="1">  1        1 0.94508313E-02 0.18470338E+03</pdfrwt>
<pdfrwt beam="2">  1       -1 0.86192762E-01 0.18470338E+03</pdfrwt>
<totfact> 0.95874977E+02</totfact>
</mgrwt>
</event>
<event>
 4    2  0.9414654E-001  0.1930168E+03  0.7546771E-02  0.1155768E+00
          1   -1    0    0  502    0  0.00000000000E+00  0.00000000000E+00  0.47374674972E+03  0.47374674972E+03  0.00000000000E+00 0. -1.
         -1   -1    0    0    0  501 -0.00000000000E+00 -0.00000000000E+00 -0.78640059294E+02  0.78640059294E+02  0.00000000000E+00 0.  1.
          6    1    1    2  502    0  0.12108059185E+02  0.84734089584E+02  0.19749879485E+03  0.27615438617E+03  0.17300000000E+03 0.  1.
         -6    1    1    2    0  501 -0.12108059185E+02 -0.84734089584E+02  0.19760789557E+03  0.27623242284E+03  0.17300000000E+03 0.  1.
<mgrwt>
<rscale>  2 0.19301676E+03</rscale>
<asrwt>0</asrwt>
<pdfrwt beam="1">  1        1 0.72884114E-01 0.19301676E+03</pdfrwt>
<pdfrwt beam="2">  1       -1 0.12098471E-01 0.19301676E+03</pdfrwt>
<totfact> 0.21727750E+03</totfact>
</mgrwt>
</event>
<event>
 4    2  0.9414654E-001  0.1942909E+03  0.7546771E-02  0.1154647E+00
         -1   -1    0    0    0  501 -0.00000000000E+00  0.00000000000E+00  0.71633247751E+02  0.71633247751E+02  0.00000000000E+00 0.  1.
          1   -1    0    0  502    0  0.00000000000E+00 -0.00000000000E+00 -0.52773956091E+03  0.52773956091E+03  0.00000000000E+00 0. -1.
          6    1    1    2  502    0  0.49289728791E+02  0.73419938057E+02 -0.23945640729E+03  0.30836396621E+03  0.17300000000E+03 0.  1.
         -6    1    1    2    0  501 -0.49289728791E+02 -0.73419938057E+02 -0.21664990587E+03  0.29100884245E+03  0.17300000000E+03 0.  1.
<mgrwt>
<rscale>  2 0.19429093E+03</rscale>
<asrwt>0</asrwt>
<pdfrwt beam="1">  1        1 0.81190700E-01 0.19429093E+03</pdfrwt>
<pdfrwt beam="2">  1       -1 0.11020500E-01 0.19429093E+03</pdfrwt>
<totfact> 0.21782889E+03</totfact>
</mgrwt>
</event>
<event>
 4    2  0.9414654E-001  0.1805911E+03  0.7546771E-02  0.1167232E+00
         -2   -1    0    0    0  501 -0.00000000000E+00  0.00000000000E+00  0.19255313244E+02  0.19255313244E+02  0.00000000000E+00 0.  1.
          2   -1    0    0  502    0  0.00000000000E+00 -0.00000000000E+00 -0.18528623193E+04  0.18528623193E+04  0.00000000000E+00 0. -1.
          6    1    1    2  502    0 -0.17390611266E+02 -0.48802872768E+02 -0.11911322022E+04  0.12047444031E+04  0.17300000000E+03 0. -1.
         -6    1    1    2    0  501  0.17390611266E+02  0.48802872768E+02 -0.64247480381E+03  0.66737322938E+03  0.17300000000E+03 0.  1.
<mgrwt>
<rscale>  2 0.18059112E+03</rscale>
<asrwt>0</asrwt>
<pdfrwt beam="1">  1        2 0.28505578E+00 0.18059112E+03</pdfrwt>
<pdfrwt beam="2">  1       -2 0.29623555E-02 0.18059112E+03</pdfrwt>
<totfact> 0.38243747E+03</totfact>
</mgrwt>
</event>
<event>
 4    2  0.9414654E-001  0.2259065E+03  0.7546771E-02  0.1129555E+00
         -1   -1    0    0    0  501 -0.00000000000E+00  0.00000000000E+00  0.26200757849E+03  0.26200757849E+03  0.00000000000E+00 0. -1.
          1   -1    0    0  502    0  0.00000000000E+00 -0.00000000000E+00 -0.26912415024E+03  0.26912415024E+03  0.00000000000E+00 0.  1.
          6    1    1    2  502    0  0.12765459530E+03 -0.69347168167E+02  0.13602086425E+03  0.26369565970E+03  0.17300000000E+03 0. -1.
         -6    1    1    2    0  501 -0.12765459530E+03  0.69347168167E+02 -0.14313743599E+03  0.26743606903E+03  0.17300000000E+03 0.  1.
<mgrwt>
<rscale>  2 0.22590645E+03</rscale>
<asrwt>0</asrwt>
<pdfrwt beam="1">  1        1 0.41403715E-01 0.22590645E+03</pdfrwt>
<pdfrwt beam="2">  1       -1 0.40308858E-01 0.22590645E+03</pdfrwt>
<totfact> 0.61487262E+02</totfact>
</mgrwt>
</event>
<event>
 4    2  0.9414654E-001  0.4301738E+03  0.7546771E-02  0.1033805E+00
          2   -1    0    0  502    0  0.00000000000E+00  0.00000000000E+00  0.12622927530E+03  0.12622927530E+03  0.00000000000E+00 0.  1.
         -2   -1    0    0    0  501 -0.00000000000E+00 -0.00000000000E+00 -0.15468908499E+04  0.15468908499E+04  0.00000000000E+00 0. -1.
          6    1    1    2  502    0 -0.39262226570E+03  0.31117416094E+02 -0.90165584902E+03  0.99901591938E+03  0.17300000000E+03 0. -1.
         -6    1    1    2    0  501  0.39262226570E+03 -0.31117416094E+02 -0.51900572560E+03  0.67410420583E+03  0.17300000000E+03 0.  1.
<mgrwt>
<rscale>  2 0.43017385E+03</rscale>
<asrwt>0</asrwt>
<pdfrwt beam="1">  1        2 0.19419888E-01 0.43017385E+03</pdfrwt>
<pdfrwt beam="2">  1       -2 0.23798321E+00 0.43017385E+03</pdfrwt>
<totfact> 0.23720556E+01</totfact>
</mgrwt>
</event>
<event>
 4    2  0.9414654E-001  0.2535671E+03  0.7546771E-02  0.1111071E+00
         -2   -1    0    0    0  501 -0.00000000000E+00  0.00000000000E+00  0.34956054108E+02  0.34956054108E+02  0.00000000000E+00 0. -1.
          2   -1    0    0  502    0  0.00000000000E+00 -0.00000000000E+00 -0.22797121309E+04  0.22797121309E+04  0.00000000000E+00 0.  1.
          6    1    1    2  502    0  0.46997701563E+02 -0.17932788107E+03 -0.16310359136E+04  0.16506284937E+04  0.17300000000E+03 0.  1.
         -6    1    1    2    0  501 -0.46997701563E+02  0.17932788107E+03 -0.61372016323E+03  0.66403969131E+03  0.17300000000E+03 0. -1.
<mgrwt>
<rscale>  2 0.25356710E+03</rscale>
<asrwt>0</asrwt>
<pdfrwt beam="1">  1        2 0.35072491E+00 0.25356710E+03</pdfrwt>
<pdfrwt beam="2">  1       -2 0.53778550E-02 0.25356710E+03</pdfrwt>
<totfact> 0.92707916E+02</totfact>
</mgrwt>
</event>
<event>
 4    2  0.9414654E-001  0.1958098E+03  0.7546771E-02  0.1153323E+00
          2   -1    0    0  502    0  0.00000000000E+00  0.00000000000E+00  0.28391707177E+04  0.28391707177E+04  0.00000000000E+00 0. -1.
         -2   -1    0    0    0  501 -0.00000000000E+00 -0.00000000000E+00 -0.13723807512E+02  0.13723807512E+02  0.00000000000E+00 0.  1.
          6    1    1    2  502    0  0.55615695837E+02  0.72934087503E+02  0.15930576227E+04  0.16050464404E+04  0.17300000000E+03 0. -1.
         -6    1    1    2    0  501 -0.55615695837E+02 -0.72934087503E+02  0.12323892876E+04  0.12478480848E+04  0.17300000000E+03 0.  1.
<mgrwt>
<rscale>  2 0.19580982E+03</rscale>
<asrwt>0</asrwt>
<pdfrwt beam="1">  1        2 0.43679503E+00 0.19580982E+03</pdfrwt>
<pdfrwt beam="2">  1       -2 0.21113573E-02 0.19580982E+03</pdfrwt>
<totfact> 0.18652335E+03</totfact>
</mgrwt>
</event>
<event>
 4    2  0.9414654E-001  0.2867041E+03  0.7546771E-02  0.1092083E+00
          2   -1    0    0  502    0  0.00000000000E+00  0.00000000000E+00  0.58390287281E+03  0.58390287281E+03  0.00000000000E+00 0.  1.
         -2   -1    0    0    0  501 -0.00000000000E+00 -0.00000000000E+00 -0.15975784292E+03  0.15975784292E+03  0.00000000000E+00 0. -1.
          6    1    1    2  502    0  0.28545543474E+02 -0.22683783697E+03  0.83902037404E+02  0.29872864645E+03  0.17300000000E+03 0. -1.
         -6    1    1    2    0  501 -0.28545543474E+02  0.22683783697E+03  0.34024299248E+03  0.44493206927E+03  0.17300000000E+03 0.  1.
<mgrwt>
<rscale>  2 0.28670412E+03</rscale>
<asrwt>0</asrwt>
<pdfrwt beam="1">  1        2 0.89831210E-01 0.28670412E+03</pdfrwt>
<pdfrwt beam="2">  1       -2 0.24578130E-01 0.28670412E+03</pdfrwt>
<totfact> 0.76557462E+02</totfact>
</mgrwt>
</event>
<event>
 4    2  0.9414654E-001  0.2510308E+03  0.7546771E-02  0.1112655E+00
         -3   -1    0    0    0  501 -0.00000000000E+00  0.00000000000E+00  0.89372543893E+03  0.89372543893E+03  0.00000000000E+00 0. -1.
          3   -1    0    0  502    0  0.00000000000E+00 -0.00000000000E+00 -0.71252243647E+02  0.71252243647E+02  0.00000000000E+00 0.  1.
          6    1    1    2  502    0  0.18070403034E+03 -0.20820637331E+02  0.46048651336E+03  0.52446570384E+03  0.17300000000E+03 0.  1.
         -6    1    1    2    0  501 -0.18070403034E+03  0.20820637331E+02  0.36198668192E+03  0.44051197873E+03  0.17300000000E+03 0. -1.
<mgrwt>
<rscale>  2 0.25103077E+03</rscale>
<asrwt>0</asrwt>
<pdfrwt beam="1">  1        3 0.10961884E-01 0.25103077E+03</pdfrwt>
<pdfrwt beam="2">  1       -3 0.13749621E+00 0.25103077E+03</pdfrwt>
<totfact> 0.66857687E+01</totfact>
</mgrwt>
</event>
<event>
 4    2  0.9414654E-001  0.1831525E+03  0.7546771E-02  0.1164786E+00
         -1   -1    0    0    0  501 -0.00000000000E+00  0.00000000000E+00  0.20762725524E+03  0.20762725524E+03  0.00000000000E+00 0. -1.
          1   -1    0    0  502    0  0.00000000000E+00 -0.00000000000E+00 -0.16173382021E+03  0.16173382021E+03  0.00000000000E+00 0.  1.
          6    1    1    2  502    0 -0.71834111035E+01  0.59701295242E+02  0.28951700651E+02  0.18542666210E+03  0.17300000000E+03 0.  1.
         -6    1    1    2    0  501  0.71834111035E+01 -0.59701295242E+02  0.16941734375E+02  0.18393441334E+03  0.17300000000E+03 0. -1.
<mgrwt>
<rscale>  2 0.18315252E+03</rscale>
<asrwt>0</asrwt>
<pdfrwt beam="1">  1        1 0.24882126E-01 0.18315252E+03</pdfrwt>
<pdfrwt beam="2">  1       -1 0.31942655E-01 0.18315252E+03</pdfrwt>
<totfact> 0.17433441E+03</totfact>
</mgrwt>
</event>
<event>
 4    2  0.9414654E-001  0.3311525E+03  0.7546771E-02  0.1070628E+00
          2   -1    0    0  502    0  0.00000000000E+00  0.00000000000E+00  0.22563393717E+04  0.22563393717E+04  0.00000000000E+00 0. -1.
         -2   -1    0    0    0  501 -0.00000000000E+00 -0.00000000000E+00 -0.54794949520E+02  0.54794949520E+02  0.00000000000E+00 0.  1.
          6    1    1    2  502    0  0.23133025612E+03 -0.16192381052E+03  0.71227939377E+03  0.78549598509E+03  0.17300000000E+03 0.  1.
         -6    1    1    2    0  501 -0.23133025612E+03  0.16192381052E+03  0.14892650285E+04  0.15256383362E+04  0.17300000000E+03 0. -1.
<mgrwt>
<rscale>  2 0.33115254E+03</rscale>
<asrwt>0</asrwt>
<pdfrwt beam="1">  1        2 0.34712906E+00 0.33115254E+03</pdfrwt>
<pdfrwt beam="2">  1       -2 0.84299940E-02 0.33115254E+03</pdfrwt>
<totfact> 0.46850594E+02</totfact>
</mgrwt>
</event>
<event>
 4    2  0.9414654E-001  0.1929087E+03  0.7546771E-02  0.1155864E+00
          1   -1    0    0  502    0  0.00000000000E+00  0.00000000000E+00  0.17165451161E+03  0.17165451161E+03  0.00000000000E+00 0.  1.
         -1   -1    0    0    0  501 -0.00000000000E+00 -0.00000000000E+00 -0.31042081796E+03  0.31042081796E+03  0.00000000000E+00 0. -1.
          6    1    1    2  502    0 -0.71580323293E+02 -0.46486848438E+02  0.62992541172E+02  0.20293306779E+03  0.17300000000E+03 0.  1.
         -6    1    1    2    0  501  0.71580323293E+02  0.46486848438E+02 -0.20175884751E+03  0.27914226178E+03  0.17300000000E+03 0. -1.
<mgrwt>
<rscale>  2 0.19290871E+03</rscale>
<asrwt>0</asrwt>
<pdfrwt beam="1">  1        1 0.26408387E-01 0.19290871E+03</pdfrwt>
<pdfrwt beam="2">  1       -1 0.47757048E-01 0.19290871E+03</pdfrwt>
<totfact> 0.79692011E+02</totfact>
</mgrwt>
</event>
<event>
 4    2  0.9414654E-001  0.2087741E+03  0.7546771E-02  0.1142540E+00
          3   -1    0    0  502    0  0.00000000000E+00  0.00000000000E+00  0.76589467471E+02  0.76589467471E+02  0.00000000000E+00 0.  1.
         -3   -1    0    0    0  501 -0.00000000000E+00 -0.00000000000E+00 -0.58544309719E+03  0.58544309719E+03  0.00000000000E+00 0. -1.
          6    1    1    2  502    0  0.46246593326E+02  0.10732608057E+03 -0.30974258282E+03  0.37353326836E+03  0.17300000000E+03 0. -1.
         -6    1    1    2    0  501 -0.46246593326E+02 -0.10732608057E+03 -0.19911104691E+03  0.28849929630E+03  0.17300000000E+03 0.  1.
<mgrwt>
<rscale>  2 0.20877412E+03</rscale>
<asrwt>0</asrwt>
<pdfrwt beam="1">  1        3 0.11782995E-01 0.20877412E+03</pdfrwt>
<pdfrwt beam="2">  1       -3 0.90068167E-01 0.20877412E+03</pdfrwt>
<totfact> 0.15757367E+02</totfact>
</mgrwt>
</event>
<event>
 4    2  0.9414654E-001  0.2351740E+03  0.7546771E-02  0.1123050E+00
         -2   -1    0    0    0  501 -0.00000000000E+00  0.00000000000E+00  0.60652471243E+02  0.60652471243E+02  0.00000000000E+00 0.  1.
          2   -1    0    0  502    0  0.00000000000E+00 -0.00000000000E+00 -0.12264244242E+04  0.12264244242E+04  0.00000000000E+00 0. -1.
          6    1    1    2  502    0 -0.15626410186E+02 -0.15853591929E+03 -0.25696977766E+03  0.34833933030E+03  0.17300000000E+03 0. -1.
         -6    1    1    2    0  501  0.15626410186E+02  0.15853591929E+03 -0.90880217528E+03  0.93873756513E+03  0.17300000000E+03 0. -1.
<mgrwt>
<rscale>  2 0.23517403E+03</rscale>
<asrwt>0</asrwt>
<pdfrwt beam="1">  1        2 0.18868067E+00 0.23517403E+03</pdfrwt>
<pdfrwt beam="2">  1       -2 0.93311499E-02 0.23517403E+03</pdfrwt>
<totfact> 0.14328355E+03</totfact>
</mgrwt>
</event>
<event>
 4    2  0.9414654E-001  0.2582993E+03  0.7546771E-02  0.1108169E+00
          4   -1    0    0  502    0  0.00000000000E+00  0.00000000000E+00  0.20361682160E+03  0.20361682160E+03  0.00000000000E+00 0.  1.
         -4   -1    0    0    0  501 -0.00000000000E+00 -0.00000000000E+00 -0.52082341085E+03  0.52082341085E+03  0.00000000000E+00 0. -1.
          6    1    1    2  502    0  0.12310999501E+03  0.14708313023E+03 -0.37919127925E+03  0.45880774223E+03  0.17300000000E+03 0. -1.
         -6    1    1    2    0  501 -0.12310999501E+03 -0.14708313023E+03  0.61984690004E+02  0.26563249023E+03  0.17300000000E+03 0.  1.
<mgrwt>
<rscale>  2 0.25829928E+03</rscale>
<asrwt>0</asrwt>
<pdfrwt beam="1">  1        4 0.31325666E-01 0.25829928E+03</pdfrwt>
<pdfrwt beam="2">  1       -4 0.80126677E-01 0.25829928E+03</pdfrwt>
<totfact> 0.25245889E+01</totfact>
</mgrwt>
</event>
<event>
 4    2  0.9414654E-001  0.3273463E+03  0.7546771E-02  0.1072317E+00
          2   -1    0    0  502    0  0.00000000000E+00  0.00000000000E+00  0.30947981275E+03  0.30947981275E+03  0.00000000000E+00 0.  1.
         -2   -1    0    0    0  501 -0.00000000000E+00 -0.00000000000E+00 -0.39531119140E+03  0.39531119140E+03  0.00000000000E+00 0. -1.
          6    1    1    2  502    0 -0.12717603726E+03 -0.24708873457E+03 -0.16706821503E+03  0.36751513666E+03  0.17300000000E+03 0. -1.
         -6    1    1    2    0  501  0.12717603726E+03  0.24708873457E+03  0.81236836377E+02  0.33727586749E+03  0.17300000000E+03 0.  1.
<mgrwt>
<rscale>  2 0.32734628E+03</rscale>
<asrwt>0</asrwt>
<pdfrwt beam="1">  1        2 0.47612279E-01 0.32734628E+03</pdfrwt>
<pdfrwt beam="2">  1       -2 0.60817106E-01 0.32734628E+03</pdfrwt>
<totfact> 0.27284765E+02</totfact>
</mgrwt>
</event>
<event>
 4    2  0.9414654E-001  0.1798284E+03  0.7546771E-02  0.1167969E+00
         -2   -1    0    0    0  501 -0.00000000000E+00  0.00000000000E+00  0.31404560499E+02  0.31404560499E+02  0.00000000000E+00 0.  1.
          2   -1    0    0  502    0  0.00000000000E+00 -0.00000000000E+00 -0.10355493333E+04  0.10355493333E+04  0.00000000000E+00 0. -1.
          6    1    1    2  502    0 -0.26657664315E+02 -0.41214549679E+02 -0.46208666148E+03  0.49584508961E+03  0.17300000000E+03 0. -1.
         -6    1    1    2    0  501  0.26657664315E+02  0.41214549679E+02 -0.54205811130E+03  0.57110880417E+03  0.17300000000E+03 0. -1.
<mgrwt>
<rscale>  2 0.17982845E+03</rscale>
<asrwt>0</asrwt>
<pdfrwt beam="1">  1        2 0.15931528E+00 0.17982845E+03</pdfrwt>
<pdfrwt beam="2">  1       -2 0.48314709E-02 0.17982845E+03</pdfrwt>
<totfact> 0.50815951E+03</totfact>
</mgrwt>
</event>
<event>
 4    2  0.9414654E-001  0.1918257E+03  0.7546771E-02  0.1156825E+00
          2   -1    0    0  502    0  0.00000000000E+00  0.00000000000E+00  0.27517136581E+03  0.27517136581E+03  0.00000000000E+00 0. -1.
         -2   -1    0    0    0  501 -0.00000000000E+00 -0.00000000000E+00 -0.31326461373E+03  0.31326461373E+03  0.00000000000E+00 0.  1.
          6    1    1    2  502    0  0.66367719081E+02  0.49632959200E+02 -0.24178472626E+03  0.30863726059E+03  0.17300000000E+03 0.  1.
         -6    1    1    2    0  501 -0.66367719081E+02 -0.49632959200E+02  0.20369147834E+03  0.27979871895E+03  0.17300000000E+03 0. -1.
<mgrwt>
<rscale>  2 0.19182571E+03</rscale>
<asrwt>0</asrwt>
<pdfrwt beam="1">  1        2 0.42334056E-01 0.19182571E+03</pdfrwt>
<pdfrwt beam="2">  1       -2 0.48194556E-01 0.19182571E+03</pdfrwt>
<totfact> 0.49846834E+02</totfact>
</mgrwt>
</event>
<event>
 4    2  0.9414654E-001  0.2843131E+03  0.7546771E-02  0.1093356E+00
          2   -1    0    0  502    0  0.00000000000E+00  0.00000000000E+00  0.81980868153E+02  0.81980868153E+02  0.00000000000E+00 0.  1.
         -2   -1    0    0    0  501 -0.00000000000E+00 -0.00000000000E+00 -0.10686988341E+04  0.10686988341E+04  0.00000000000E+00 0. -1.
          6    1    1    2  502    0 -0.12598053311E+03 -0.18717333700E+03 -0.65339595256E+03  0.71257296022E+03  0.17300000000E+03 0. -1.
         -6    1    1    2    0  501  0.12598053311E+03  0.18717333700E+03 -0.33332201336E+03  0.43810674201E+03  0.17300000000E+03 0.  1.
<mgrwt>
<rscale>  2 0.28431312E+03</rscale>
<asrwt>0</asrwt>
<pdfrwt beam="1">  1        2 0.12612441E-01 0.28431312E+03</pdfrwt>
<pdfrwt beam="2">  1       -2 0.16441521E+00 0.28431312E+03</pdfrwt>
<totfact> 0.11982213E+02</totfact>
</mgrwt>
</event>
<event>
 4    2  0.9414654E-001  0.2090105E+03  0.7546771E-02  0.1142352E+00
          2   -1    0    0  502    0  0.00000000000E+00  0.00000000000E+00  0.19188023896E+03  0.19188023896E+03  0.00000000000E+00 0. -1.
         -2   -1    0    0    0  501 -0.00000000000E+00 -0.00000000000E+00 -0.26777138942E+03  0.26777138942E+03  0.00000000000E+00 0.  1.
          6    1    1    2  502    0 -0.89579625401E+02 -0.75709295497E+02  0.50994093668E+02  0.21514135888E+03  0.17300000000E+03 0. -1.
         -6    1    1    2    0  501  0.89579625401E+02  0.75709295497E+02 -0.12688524414E+03  0.24451026950E+03  0.17300000000E+03 0.  1.
<mgrwt>
<rscale>  2 0.20901054E+03</rscale>
<asrwt>0</asrwt>
<pdfrwt beam="1">  1        2 0.29520037E-01 0.20901054E+03</pdfrwt>
<pdfrwt beam="2">  1       -2 0.41195599E-01 0.20901054E+03</pdfrwt>
<totfact> 0.10009409E+03</totfact>
</mgrwt>
</event>
<event>
 4    2  0.9414654E-001  0.2481885E+03  0.7546771E-02  0.1114455E+00
         -1   -1    0    0    0  501 -0.00000000000E+00  0.00000000000E+00  0.17549372722E+03  0.17549372722E+03  0.00000000000E+00 0.  1.
          1   -1    0    0  502    0  0.00000000000E+00 -0.00000000000E+00 -0.44078060263E+03  0.44078060263E+03  0.00000000000E+00 0. -1.
          6    1    1    2  502    0  0.29542987562E+02  0.17548714167E+03  0.64269802726E+01  0.24827168804E+03  0.17300000000E+03 0.  1.
         -6    1    1    2    0  501 -0.29542987562E+02 -0.17548714167E+03 -0.27171385569E+03  0.36800264181E+03  0.17300000000E+03 0. -1.
<mgrwt>
<rscale>  2 0.24818849E+03</rscale>
<asrwt>0</asrwt>
<pdfrwt beam="1">  1        1 0.67812399E-01 0.24818849E+03</pdfrwt>
<pdfrwt beam="2">  1       -1 0.26999035E-01 0.24818849E+03</pdfrwt>
<totfact> 0.65571145E+02</totfact>
</mgrwt>
</event>
<event>
 4    2  0.9414654E-001  0.2501902E+03  0.7546771E-02  0.1113185E+00
          1   -1    0    0  502    0  0.00000000000E+00  0.00000000000E+00  0.23315674490E+04  0.23315674490E+04  0.00000000000E+00 0. -1.
         -1   -1    0    0    0  501 -0.00000000000E+00 -0.00000000000E+00 -0.26888674186E+02  0.26888674186E+02  0.00000000000E+00 0.  1.
          6    1    1    2  502    0  0.18072778550E+03  0.19044310055E+01  0.11058118616E+04  0.11337614531E+04  0.17300000000E+03 0.  1.
         -6    1    1    2    0  501 -0.18072778550E+03 -0.19044310055E+01  0.11988669132E+04  0.12246946700E+04  0.17300000000E+03 0. -1.
<mgrwt>
<rscale>  2 0.25019025E+03</rscale>
<asrwt>0</asrwt>
<pdfrwt beam="1">  1        1 0.35870253E+00 0.25019025E+03</pdfrwt>
<pdfrwt beam="2">  1       -1 0.41367209E-02 0.25019025E+03</pdfrwt>
<totfact> 0.48080920E+02</totfact>
</mgrwt>
</event>
<event>
 4    2  0.9414654E-001  0.2113751E+03  0.7546771E-02  0.1140482E+00
          1   -1    0    0  502    0  0.00000000000E+00  0.00000000000E+00  0.34523294559E+03  0.34523294559E+03  0.00000000000E+00 0.  1.
         -1   -1    0    0    0  501 -0.00000000000E+00 -0.00000000000E+00 -0.13699736059E+03  0.13699736059E+03  0.00000000000E+00 0. -1.
          6    1    1    2  502    0 -0.56401713905E+02  0.10756066294E+03  0.16083006349E+03  0.26560451590E+03  0.17300000000E+03 0.  1.
         -6    1    1    2    0  501  0.56401713905E+02 -0.10756066294E+03  0.47405521512E+02  0.21662579028E+03  0.17300000000E+03 0. -1.
<mgrwt>
<rscale>  2 0.21137514E+03</rscale>
<asrwt>0</asrwt>
<pdfrwt beam="1">  1        1 0.53112761E-01 0.21137514E+03</pdfrwt>
<pdfrwt beam="2">  1       -1 0.21076517E-01 0.21137514E+03</pdfrwt>
<totfact> 0.13497410E+03</totfact>
</mgrwt>
</event>
<event>
 4    2  0.9414654E-001  0.3169828E+03  0.7546771E-02  0.1077046E+00
         -1   -1    0    0    0  501 -0.00000000000E+00  0.00000000000E+00  0.41804438370E+02  0.41804438370E+02  0.00000000000E+00 0. -1.
          1   -1    0    0  502    0  0.00000000000E+00 -0.00000000000E+00 -0.27534022561E+04  0.27534022561E+04  0.00000000000E+00 0.  1.
          6    1    1    2  502    0  0.26247708022E+03  0.40680399259E+02 -0.18540009180E+04  0.18809033778E+04  0.17300000000E+03 0.  1.
         -6    1    1    2    0  501 -0.26247708022E+03 -0.40680399259E+02 -0.85759689978E+03  0.91430331676E+03  0.17300000000E+03 0. -1.
<mgrwt>
<rscale>  2 0.31698283E+03</rscale>
<asrwt>0</asrwt>
<pdfrwt beam="1">  1        1 0.42360054E+00 0.31698283E+03</pdfrwt>
<pdfrwt beam="2">  1       -1 0.64314492E-02 0.31698283E+03</pdfrwt>
<totfact> 0.12723846E+02</totfact>
</mgrwt>
</event>
<event>
 4    2  0.9414654E-001  0.3121487E+03  0.7546771E-02  0.1079320E+00
         -2   -1    0    0    0  501 -0.00000000000E+00  0.00000000000E+00  0.53422482897E+03  0.53422482897E+03  0.00000000000E+00 0. -1.
          2   -1    0    0  502    0  0.00000000000E+00 -0.00000000000E+00 -0.21160639441E+03  0.21160639441E+03  0.00000000000E+00 0.  1.
          6    1    1    2  502    0 -0.21199683162E+03 -0.15021708915E+03  0.29987804642E+03  0.43285525665E+03  0.17300000000E+03 0. -1.
         -6    1    1    2    0  501  0.21199683162E+03  0.15021708915E+03  0.22740388144E+02  0.31297596672E+03  0.17300000000E+03 0.  1.
<mgrwt>
<rscale>  2 0.31214873E+03</rscale>
<asrwt>0</asrwt>
<pdfrwt beam="1">  1        2 0.32554830E-01 0.31214873E+03</pdfrwt>
<pdfrwt beam="2">  1       -2 0.82188435E-01 0.31214873E+03</pdfrwt>
<totfact> 0.21577791E+02</totfact>
</mgrwt>
</event>
<event>
 4    2  0.9414654E-001  0.1976996E+03  0.7546771E-02  0.1151695E+00
          2   -1    0    0  502    0  0.00000000000E+00  0.00000000000E+00  0.21918506703E+04  0.21918506703E+04  0.00000000000E+00 0.  1.
         -2   -1    0    0    0  501 -0.00000000000E+00 -0.00000000000E+00 -0.17890742489E+02  0.17890742489E+02  0.00000000000E+00 0. -1.
          6    1    1    2  502    0  0.49796436786E+02  0.81709405939E+02  0.10236774161E+04  0.10425931921E+04  0.17300000000E+03 0. -1.
         -6    1    1    2    0  501 -0.49796436786E+02 -0.81709405939E+02  0.11502825118E+04  0.11671482207E+04  0.17300000000E+03 0. -1.
<mgrwt>
<rscale>  2 0.19769955E+03</rscale>
<asrwt>0</asrwt>
<pdfrwt beam="1">  1        2 0.33720758E+00 0.19769955E+03</pdfrwt>
<pdfrwt beam="2">  1       -2 0.27524237E-02 0.19769955E+03</pdfrwt>
<totfact> 0.28405659E+03</totfact>
</mgrwt>
</event>
<event>
 4    2  0.9414654E-001  0.1795836E+03  0.7546771E-02  0.1168207E+00
         -2   -1    0    0    0  501 -0.00000000000E+00  0.00000000000E+00  0.10305909960E+02  0.10305909960E+02  0.00000000000E+00 0.  1.
          2   -1    0    0  502    0  0.00000000000E+00 -0.00000000000E+00 -0.31483596275E+04  0.31483596275E+04  0.00000000000E+00 0. -1.
          6    1    1    2  502    0  0.48144939203E+02 -0.18299942549E+01 -0.16919089714E+04  0.17014130161E+04  0.17300000000E+03 0. -1.
         -6    1    1    2    0  501 -0.48144939203E+02  0.18299942549E+01 -0.14461447461E+04  0.14572525213E+04  0.17300000000E+03 0.  1.
<mgrwt>
<rscale>  2 0.17958364E+03</rscale>
<asrwt>0</asrwt>
<pdfrwt beam="1">  1        2 0.48436281E+00 0.17958364E+03</pdfrwt>
<pdfrwt beam="2">  1       -2 0.15855253E-02 0.17958364E+03</pdfrwt>
<totfact> 0.18739424E+03</totfact>
</mgrwt>
</event>
<event>
 4    2  0.9414654E-001  0.2459758E+03  0.7546771E-02  0.1115875E+00
         -3   -1    0    0    0  501 -0.00000000000E+00  0.00000000000E+00  0.87892673643E+02  0.87892673643E+02  0.00000000000E+00 0. -1.
          3   -1    0    0  502    0  0.00000000000E+00 -0.00000000000E+00 -0.85566742929E+03  0.85566742929E+03  0.00000000000E+00 0.  1.
          6    1    1    2  502    0  0.17485304824E+03  0.12274810968E+01 -0.17528905945E+03  0.30204362194E+03  0.17300000000E+03 0. -1.
         -6    1    1    2    0  501 -0.17485304824E+03 -0.12274810968E+01 -0.59248569620E+03  0.64151648100E+03  0.17300000000E+03 0.  1.
<mgrwt>
<rscale>  2 0.24597580E+03</rscale>
<asrwt>0</asrwt>
<pdfrwt beam="1">  1        3 0.13164114E+00 0.24597580E+03</pdfrwt>
<pdfrwt beam="2">  1       -3 0.13521950E-01 0.24597580E+03</pdfrwt>
<totfact> 0.52164846E+01</totfact>
</mgrwt>
</event>
<event>
 4    2  0.9414654E-001  0.1972730E+03  0.7546771E-02  0.1152060E+00
          1   -1    0    0  502    0  0.00000000000E+00  0.00000000000E+00  0.21829581350E+03  0.21829581350E+03  0.00000000000E+00 0. -1.
         -1   -1    0    0    0  501 -0.00000000000E+00 -0.00000000000E+00 -0.29036136521E+03  0.29036136521E+03  0.00000000000E+00 0.  1.
          6    1    1    2  502    0  0.44174310454E+02  0.83882456457E+02 -0.19404933614E+03  0.27671606578E+03  0.17300000000E+03 0.  1.
         -6    1    1    2    0  501 -0.44174310454E+02 -0.83882456457E+02  0.12198378443E+03  0.23194111293E+03  0.17300000000E+03 0. -1.
<mgrwt>
<rscale>  2 0.19727300E+03</rscale>
<asrwt>0</asrwt>
<pdfrwt beam="1">  1        1 0.33583971E-01 0.19727300E+03</pdfrwt>
<pdfrwt beam="2">  1       -1 0.44670979E-01 0.19727300E+03</pdfrwt>
<totfact> 0.66495185E+02</totfact>
</mgrwt>
</event>
<event>
 4    2  0.9414654E-001  0.2150522E+03  0.7546771E-02  0.1137626E+00
         -4   -1    0    0    0  501 -0.00000000000E+00  0.00000000000E+00  0.27596019811E+02  0.27596019811E+02  0.00000000000E+00 0. -1.
          4   -1    0    0  502    0  0.00000000000E+00 -0.00000000000E+00 -0.18246708102E+04  0.18246708102E+04  0.00000000000E+00 0.  1.
          6    1    1    2  502    0 -0.10268939110E+03 -0.75982592715E+02 -0.63406679729E+03  0.66954325392E+03  0.17300000000E+03 0.  1.
         -6    1    1    2    0  501  0.10268939110E+03  0.75982592715E+02 -0.11630079931E+04  0.11827235761E+04  0.17300000000E+03 0.  1.
<mgrwt>
<rscale>  2 0.21505224E+03</rscale>
<asrwt>0</asrwt>
<pdfrwt beam="1">  1        4 0.28071859E+00 0.21505224E+03</pdfrwt>
<pdfrwt beam="2">  1       -4 0.42455415E-02 0.21505224E+03</pdfrwt>
<totfact> 0.26655021E+01</totfact>
</mgrwt>
</event>
<event>
 4    2  0.9414654E-001  0.1841507E+03  0.7546771E-02  0.1163845E+00
          2   -1    0    0  502    0  0.00000000000E+00  0.00000000000E+00  0.38757070790E+04  0.38757070790E+04  0.00000000000E+00 0.  1.
         -2   -1    0    0    0  501 -0.00000000000E+00 -0.00000000000E+00 -0.89965975893E+01  0.89965975893E+01  0.00000000000E+00 0. -1.
          6    1    1    2  502    0 -0.26805408880E+02  0.57131088379E+02  0.16116205173E+04  0.16221073279E+04  0.17300000000E+03 0. -1.
         -6    1    1    2    0  501  0.26805408880E+02 -0.57131088379E+02  0.22550899640E+04  0.22625963487E+04  0.17300000000E+03 0.  1.
<mgrwt>
<rscale>  2 0.18415073E+03</rscale>
<asrwt>0</asrwt>
<pdfrwt beam="1">  1        2 0.59626129E+00 0.18415073E+03</pdfrwt>
<pdfrwt beam="2">  1       -2 0.13840950E-02 0.18415073E+03</pdfrwt>
<totfact> 0.75630901E+02</totfact>
</mgrwt>
</event>
<event>
 4    2  0.9414654E-001  0.4799586E+03  0.7546771E-02  0.1019147E+00
          2   -1    0    0  502    0  0.00000000000E+00  0.00000000000E+00  0.13217711908E+04  0.13217711908E+04  0.00000000000E+00 0. -1.
         -2   -1    0    0    0  501 -0.00000000000E+00 -0.00000000000E+00 -0.19562678214E+03  0.19562678214E+03  0.00000000000E+00 0.  1.
          6    1    1    2  502    0 -0.25865448250E+03  0.36541630694E+03  0.31245743550E+03  0.57270399658E+03  0.17300000000E+03 0.  1.
         -6    1    1    2    0  501  0.25865448250E+03 -0.36541630694E+03  0.81368697313E+03  0.94469397634E+03  0.17300000000E+03 0. -1.
<mgrwt>
<rscale>  2 0.47995856E+03</rscale>
<asrwt>0</asrwt>
<pdfrwt beam="1">  1        2 0.20334941E+00 0.47995856E+03</pdfrwt>
<pdfrwt beam="2">  1       -2 0.30096429E-01 0.47995856E+03</pdfrwt>
<totfact> 0.16994423E+02</totfact>
</mgrwt>
</event>
<event>
 4    2  0.9414654E-001  0.2233937E+03  0.7546771E-02  0.1131378E+00
         -2   -1    0    0    0  501 -0.00000000000E+00  0.00000000000E+00  0.97243042996E+03  0.97243042996E+03  0.00000000000E+00 0. -1.
          2   -1    0    0  502    0  0.00000000000E+00 -0.00000000000E+00 -0.53035895209E+02  0.53035895209E+02  0.00000000000E+00 0.  1.
          6    1    1    2  502    0  0.79022368202E+02  0.11718023269E+03  0.36746087003E+03  0.43003747815E+03  0.17300000000E+03 0.  1.
         -6    1    1    2    0  501 -0.79022368202E+02 -0.11718023269E+03  0.55193366472E+03  0.59542884702E+03  0.17300000000E+03 0. -1.
<mgrwt>
<rscale>  2 0.22339369E+03</rscale>
<asrwt>0</asrwt>
<pdfrwt beam="1">  1        2 0.81593692E-02 0.22339369E+03</pdfrwt>
<pdfrwt beam="2">  1       -2 0.14960467E+00 0.22339369E+03</pdfrwt>
<totfact> 0.26439835E+02</totfact>
</mgrwt>
</event>
<event>
 4    2  0.9414654E-001  0.1928304E+03  0.7546771E-02  0.1155933E+00
          1   -1    0    0  502    0  0.00000000000E+00  0.00000000000E+00  0.12185397574E+04  0.12185397574E+04  0.00000000000E+00 0. -1.
         -1   -1    0    0    0  501 -0.00000000000E+00 -0.00000000000E+00 -0.21290067058E+03  0.21290067058E+03  0.00000000000E+00 0.  1.
          6    1    1    2  502    0 -0.62227179143E+02 -0.58157854273E+02 -0.15962618535E+03  0.25032793869E+03  0.17300000000E+03 0.  1.
         -6    1    1    2    0  501  0.62227179143E+02  0.58157854273E+02  0.11652652722E+04  0.11811124893E+04  0.17300000000E+03 0. -1.
<mgrwt>
<rscale>  2 0.19283039E+03</rscale>
<asrwt>0</asrwt>
<pdfrwt beam="1">  1        1 0.18746765E+00 0.19283039E+03</pdfrwt>
<pdfrwt beam="2">  1       -1 0.32753950E-01 0.19283039E+03</pdfrwt>
<totfact> 0.10098681E+02</totfact>
</mgrwt>
</event>
<event>
 4    2  0.9414654E-001  0.1938574E+03  0.7546771E-02  0.1155028E+00
         -2   -1    0    0    0  501 -0.00000000000E+00  0.00000000000E+00  0.20852281951E+02  0.20852281951E+02  0.00000000000E+00 0.  1.
          2   -1    0    0  502    0  0.00000000000E+00 -0.00000000000E+00 -0.28794703239E+04  0.28794703239E+04  0.00000000000E+00 0. -1.
          6    1    1    2  502    0  0.80560664067E+02  0.34083212999E+02 -0.23162925521E+04  0.23243906455E+04  0.17300000000E+03 0. -1.
         -6    1    1    2    0  501 -0.80560664067E+02 -0.34083212999E+02 -0.54232548978E+03  0.57593196028E+03  0.17300000000E+03 0.  1.
<mgrwt>
<rscale>  2 0.19385739E+03</rscale>
<asrwt>0</asrwt>
<pdfrwt beam="1">  1        2 0.44299501E+00 0.19385739E+03</pdfrwt>
<pdfrwt beam="2">  1       -2 0.32080464E-02 0.19385739E+03</pdfrwt>
<totfact> 0.95430290E+02</totfact>
</mgrwt>
</event>
<event>
 4    2  0.9414654E-001  0.3219000E+03  0.7546771E-02  0.1074778E+00
          2   -1    0    0  502    0  0.00000000000E+00  0.00000000000E+00  0.10858694300E+04  0.10858694300E+04  0.00000000000E+00 0.  1.
         -2   -1    0    0    0  501 -0.00000000000E+00 -0.00000000000E+00 -0.96110880977E+02  0.96110880977E+02  0.00000000000E+00 0. -1.
          6    1    1    2  502    0 -0.25705540343E+03 -0.87253402746E+02  0.44497255895E+03  0.54919961302E+03  0.17300000000E+03 0. -1.
         -6    1    1    2    0  501  0.25705540343E+03  0.87253402746E+02  0.54478599008E+03  0.63278069796E+03  0.17300000000E+03 0.  1.
<mgrwt>
<rscale>  2 0.32190004E+03</rscale>
<asrwt>0</asrwt>
<pdfrwt beam="1">  1        2 0.16705683E+00 0.32190004E+03</pdfrwt>
<pdfrwt beam="2">  1       -2 0.14786290E-01 0.32190004E+03</pdfrwt>
<totfact> 0.81645356E+02</totfact>
</mgrwt>
</event>
<event>
 4    2  0.9414654E-001  0.2356188E+03  0.7546771E-02  0.1122746E+00
         -1   -1    0    0    0  501 -0.00000000000E+00  0.00000000000E+00  0.51325229244E+03  0.51325229244E+03  0.00000000000E+00 0. -1.
          1   -1    0    0  502    0  0.00000000000E+00 -0.00000000000E+00 -0.13351491084E+03  0.13351491084E+03  0.00000000000E+00 0.  1.
          6    1    1    2  502    0 -0.23319788530E+01 -0.15994312704E+03  0.48960515993E+02  0.24065197722E+03  0.17300000000E+03 0.  1.
         -6    1    1    2    0  501  0.23319788530E+01  0.15994312704E+03  0.33077686561E+03  0.40611522606E+03  0.17300000000E+03 0. -1.
<mgrwt>
<rscale>  2 0.23561885E+03</rscale>
<asrwt>0</asrwt>
<pdfrwt beam="1">  1        1 0.20540756E-01 0.23561885E+03</pdfrwt>
<pdfrwt beam="2">  1       -1 0.78961890E-01 0.23561885E+03</pdfrwt>
<totfact> 0.41519007E+02</totfact>
</mgrwt>
</event>
<event>
 4    2  0.9414654E-001  0.2049575E+03  0.7546771E-02  0.1145623E+00
         -2   -1    0    0    0  501 -0.00000000000E+00  0.00000000000E+00  0.22680390257E+02  0.22680390257E+02  0.00000000000E+00 0. -1.
          2   -1    0    0  502    0  0.00000000000E+00 -0.00000000000E+00 -0.21949890803E+04  0.21949890803E+04  0.00000000000E+00 0.  1.
          6    1    1    2  502    0 -0.34860654820E+02  0.10422711667E+03 -0.64793274311E+03  0.67957663049E+03  0.17300000000E+03 0. -1.
         -6    1    1    2    0  501  0.34860654820E+02 -0.10422711667E+03 -0.15243759469E+04  0.15380928401E+04  0.17300000000E+03 0.  1.
<mgrwt>
<rscale>  2 0.20495745E+03</rscale>
<asrwt>0</asrwt>
<pdfrwt beam="1">  1        2 0.33769077E+00 0.20495745E+03</pdfrwt>
<pdfrwt beam="2">  1       -2 0.34892893E-02 0.20495745E+03</pdfrwt>
<totfact> 0.19882685E+03</totfact>
</mgrwt>
</event>
<event>
 4    2  0.9414654E-001  0.2576417E+03  0.7546771E-02  0.1108568E+00
         -1   -1    0    0    0  501 -0.00000000000E+00  0.00000000000E+00  0.28672444145E+03  0.28672444145E+03  0.00000000000E+00 0.  1.
          1   -1    0    0  502    0  0.00000000000E+00 -0.00000000000E+00 -0.23180305310E+03  0.23180305310E+03  0.00000000000E+00 0. -1.
          6    1    1    2  502    0  0.17958788896E+03  0.64795197701E+02  0.36698156627E+02  0.26024216070E+03  0.17300000000E+03 0. -1.
         -6    1    1    2    0  501 -0.17958788896E+03 -0.64795197701E+02  0.18223231717E+02  0.25828533385E+03  0.17300000000E+03 0.  1.
<mgrwt>
<rscale>  2 0.25764166E+03</rscale>
<asrwt>0</asrwt>
<pdfrwt beam="1">  1        1 0.35662008E-01 0.25764166E+03</pdfrwt>
<pdfrwt beam="2">  1       -1 0.44111452E-01 0.25764166E+03</pdfrwt>
<totfact> 0.63102894E+02</totfact>
</mgrwt>
</event>
<event>
 4    2  0.9414654E-001  0.2216244E+03  0.7546771E-02  0.1132678E+00
          1   -1    0    0  502    0  0.00000000000E+00  0.00000000000E+00  0.32747110707E+03  0.32747110707E+03  0.00000000000E+00 0.  1.
         -1   -1    0    0    0  501 -0.00000000000E+00 -0.00000000000E+00 -0.15715298939E+03  0.15715298939E+03  0.00000000000E+00 0. -1.
          6    1    1    2  502    0 -0.10494002165E+03 -0.90421088247E+02  0.33426761450E+02  0.22413105480E+03  0.17300000000E+03 0. -1.
         -6    1    1    2    0  501  0.10494002165E+03  0.90421088247E+02  0.13689135623E+03  0.26049304166E+03  0.17300000000E+03 0.  1.
<mgrwt>
<rscale>  2 0.22162442E+03</rscale>
<asrwt>0</asrwt>
<pdfrwt beam="1">  1        1 0.50380170E-01 0.22162442E+03</pdfrwt>
<pdfrwt beam="2">  1       -1 0.24177383E-01 0.22162442E+03</pdfrwt>
<totfact> 0.11522297E+03</totfact>
</mgrwt>
</event>
<event>
 4    2  0.9414654E-001  0.2845900E+03  0.7546771E-02  0.1093208E+00
         -2   -1    0    0    0  501 -0.00000000000E+00  0.00000000000E+00  0.93130789692E+02  0.93130789692E+02  0.00000000000E+00 0. -1.
          2   -1    0    0  502    0  0.00000000000E+00 -0.00000000000E+00 -0.18523536972E+04  0.18523536972E+04  0.00000000000E+00 0.  1.
          6    1    1    2  502    0  0.32873373641E+02  0.22356609387E+03 -0.17110064080E+03  0.33206458152E+03  0.17300000000E+03 0. -1.
         -6    1    1    2    0  501 -0.32873373641E+02 -0.22356609387E+03 -0.15881222667E+04  0.16134199054E+04  0.17300000000E+03 0.  1.
<mgrwt>
<rscale>  2 0.28458998E+03</rscale>
<asrwt>0</asrwt>
<pdfrwt beam="1">  1        2 0.28497746E+00 0.28458998E+03</pdfrwt>
<pdfrwt beam="2">  1       -2 0.14327815E-01 0.28458998E+03</pdfrwt>
<totfact> 0.32869925E+02</totfact>
</mgrwt>
</event>
<event>
 4    2  0.9414654E-001  0.2068827E+03  0.7546771E-02  0.1144059E+00
          1   -1    0    0  502    0  0.00000000000E+00  0.00000000000E+00  0.34048277862E+03  0.34048277862E+03  0.00000000000E+00 0. -1.
         -1   -1    0    0    0  501 -0.00000000000E+00 -0.00000000000E+00 -0.12580167777E+03  0.12580167777E+03  0.00000000000E+00 0.  1.
          6    1    1    2  502    0 -0.11203760614E+03  0.17861567161E+02  0.10088462690E+03  0.23016986926E+03  0.17300000000E+03 0. -1.
         -6    1    1    2    0  501  0.11203760614E+03 -0.17861567161E+02  0.11379647395E+03  0.23611458713E+03  0.17300000000E+03 0. -1.
<mgrwt>
<rscale>  2 0.20688272E+03</rscale>
<asrwt>0</asrwt>
<pdfrwt beam="1">  1        1 0.52381966E-01 0.20688272E+03</pdfrwt>
<pdfrwt beam="2">  1       -1 0.19354104E-01 0.20688272E+03</pdfrwt>
<totfact> 0.15769654E+03</totfact>
</mgrwt>
</event>
<event>
 4    2  0.9414654E-001  0.2202143E+03  0.7546771E-02  0.1133723E+00
         -1   -1    0    0    0  501 -0.00000000000E+00  0.00000000000E+00  0.44806394505E+03  0.44806394505E+03  0.00000000000E+00 0. -1.
          1   -1    0    0  502    0  0.00000000000E+00 -0.00000000000E+00 -0.12853751941E+04  0.12853751941E+04  0.00000000000E+00 0.  1.
          6    1    1    2  502    0  0.95644957740E+02 -0.97043124100E+02  0.41077203117E+03  0.46607723337E+03  0.17300000000E+03 0. -1.
         -6    1    1    2    0  501 -0.95644957740E+02  0.97043124100E+02 -0.12480832802E+04  0.12673619058E+04  0.17300000000E+03 0.  1.
<mgrwt>
<rscale>  2 0.22021427E+03</rscale>
<asrwt>0</asrwt>
<pdfrwt beam="1">  1        1 0.19775003E+00 0.22021427E+03</pdfrwt>
<pdfrwt beam="2">  1       -1 0.68932916E-01 0.22021427E+03</pdfrwt>
<totfact> 0.22957727E+01</totfact>
</mgrwt>
</event>
<event>
 4    2  0.9414654E-001  0.2943500E+03  0.7546771E-02  0.1088100E+00
          2   -1    0    0  502    0  0.00000000000E+00  0.00000000000E+00  0.62139657150E+02  0.62139657150E+02  0.00000000000E+00 0.  1.
         -2   -1    0    0    0  501 -0.00000000000E+00 -0.00000000000E+00 -0.15737904420E+04  0.15737904420E+04  0.00000000000E+00 0. -1.
          6    1    1    2  502    0  0.80224882315E+02  0.22422513590E+03 -0.47959599203E+03  0.56272040916E+03  0.17300000000E+03 0.  1.
         -6    1    1    2    0  501 -0.80224882315E+02 -0.22422513590E+03 -0.10320547928E+04  0.10732096900E+04  0.17300000000E+03 0. -1.
<mgrwt>
<rscale>  2 0.29435004E+03</rscale>
<asrwt>0</asrwt>
<pdfrwt beam="1">  1        2 0.95599485E-02 0.29435004E+03</pdfrwt>
<pdfrwt beam="2">  1       -2 0.24212158E+00 0.29435004E+03</pdfrwt>
<totfact> 0.53936563E+01</totfact>
</mgrwt>
</event>
<event>
 4    2  0.9414654E-001  0.1807479E+03  0.7546771E-02  0.1167081E+00
          1   -1    0    0  502    0  0.00000000000E+00  0.00000000000E+00  0.11818319292E+04  0.11818319292E+04  0.00000000000E+00 0. -1.
         -1   -1    0    0    0  501 -0.00000000000E+00 -0.00000000000E+00 -0.48404706396E+02  0.48404706396E+02  0.00000000000E+00 0.  1.
          6    1    1    2  502    0  0.33152059883E+02  0.40518542214E+02  0.16386435111E+03  0.24396995082E+03  0.17300000000E+03 0.  1.
         -6    1    1    2    0  501 -0.33152059883E+02 -0.40518542214E+02  0.96956287165E+03  0.98626668474E+03  0.17300000000E+03 0. -1.
<mgrwt>
<rscale>  2 0.18074792E+03</rscale>
<asrwt>0</asrwt>
<pdfrwt beam="1">  1        1 0.18182028E+00 0.18074792E+03</pdfrwt>
<pdfrwt beam="2">  1       -1 0.74468788E-02 0.18074792E+03</pdfrwt>
<totfact> 0.11380205E+03</totfact>
</mgrwt>
</event>
<event>
 4    2  0.9414654E-001  0.3043460E+03  0.7546771E-02  0.1083088E+00
         -2   -1    0    0    0  501 -0.00000000000E+00  0.00000000000E+00  0.79934033878E+02  0.79934033878E+02  0.00000000000E+00 0. -1.
          2   -1    0    0  502    0  0.00000000000E+00 -0.00000000000E+00 -0.14893959199E+04  0.14893959199E+04  0.00000000000E+00 0.  1.
          6    1    1    2  502    0  0.16128490774E+03 -0.19153247568E+03 -0.33504193082E+03  0.45263628457E+03  0.17300000000E+03 0. -1.
         -6    1    1    2    0  501 -0.16128490774E+03  0.19153247568E+03 -0.10744199552E+04  0.11166936692E+04  0.17300000000E+03 0.  1.
<mgrwt>
<rscale>  2 0.30434604E+03</rscale>
<asrwt>0</asrwt>
<pdfrwt beam="1">  1        2 0.22913783E+00 0.30434604E+03</pdfrwt>
<pdfrwt beam="2">  1       -2 0.12297544E-01 0.30434604E+03</pdfrwt>
<totfact> 0.65641259E+02</totfact>
</mgrwt>
</event>
<event>
 4    2  0.9414654E-001  0.3989147E+03  0.7546771E-02  0.1044156E+00
         -2   -1    0    0    0  501 -0.00000000000E+00  0.00000000000E+00  0.13636418499E+04  0.13636418499E+04  0.00000000000E+00 0. -1.
          2   -1    0    0  502    0  0.00000000000E+00 -0.00000000000E+00 -0.13970201529E+03  0.13970201529E+03  0.00000000000E+00 0.  1.
          6    1    1    2  502    0  0.13695886071E+03  0.33233452160E+03  0.91699665496E+03  0.10000079145E+04  0.17300000000E+03 0. -1.
         -6    1    1    2    0  501 -0.13695886071E+03 -0.33233452160E+03  0.30694317968E+03  0.50333595076E+03  0.17300000000E+03 0.  1.
<mgrwt>
<rscale>  2 0.39891473E+03</rscale>
<asrwt>0</asrwt>
<pdfrwt beam="1">  1        2 0.21492619E-01 0.39891473E+03</pdfrwt>
<pdfrwt beam="2">  1       -2 0.20979104E+00 0.39891473E+03</pdfrwt>
<totfact> 0.31533158E+01</totfact>
</mgrwt>
</event>
<event>
 4    2  0.9414654E-001  0.2040783E+03  0.7546771E-02  0.1146343E+00
         -2   -1    0    0    0  501 -0.00000000000E+00  0.00000000000E+00  0.62468507409E+02  0.62468507409E+02  0.00000000000E+00 0.  1.
          2   -1    0    0  502    0  0.00000000000E+00 -0.00000000000E+00 -0.76678643116E+03  0.76678643116E+03  0.00000000000E+00 0. -1.
          6    1    1    2  502    0  0.66174666204E+02 -0.85673029507E+02 -0.50195540389E+03  0.54185531457E+03  0.17300000000E+03 0.  1.
         -6    1    1    2    0  501 -0.66174666204E+02  0.85673029507E+02 -0.20236251987E+03  0.28739962401E+03  0.17300000000E+03 0.  1.
<mgrwt>
<rscale>  2 0.20407830E+03</rscale>
<asrwt>0</asrwt>
<pdfrwt beam="1">  1        2 0.11796714E+00 0.20407830E+03</pdfrwt>
<pdfrwt beam="2">  1       -2 0.96105396E-02 0.20407830E+03</pdfrwt>
<totfact> 0.26279853E+03</totfact>
</mgrwt>
</event>
<event>
 4    2  0.9414654E-001  0.2780257E+03  0.7546771E-02  0.1096772E+00
         -2   -1    0    0    0  501 -0.00000000000E+00  0.00000000000E+00  0.12170409336E+04  0.12170409336E+04  0.00000000000E+00 0.  1.
          2   -1    0    0  502    0  0.00000000000E+00 -0.00000000000E+00 -0.15590201702E+03  0.15590201702E+03  0.00000000000E+00 0. -1.
          6    1    1    2  502    0  0.79913347806E+02  0.20244295184E+03  0.10590221148E+04  0.10949091887E+04  0.17300000000E+03 0.  1.
         -6    1    1    2    0  501 -0.79913347806E+02 -0.20244295184E+03  0.21168017771E+01  0.27803376190E+03  0.17300000000E+03 0. -1.
<mgrwt>
<rscale>  2 0.27802570E+03</rscale>
<asrwt>0</asrwt>
<pdfrwt beam="1">  1        2 0.23984926E-01 0.27802570E+03</pdfrwt>
<pdfrwt beam="2">  1       -2 0.18723706E+00 0.27802570E+03</pdfrwt>
<totfact> 0.39441391E+01</totfact>
</mgrwt>
</event>
<event>
 4    2  0.9414654E-001  0.2292796E+03  0.7546771E-02  0.1127148E+00
         -2   -1    0    0    0  501 -0.00000000000E+00  0.00000000000E+00  0.47552524279E+02  0.47552524279E+02  0.00000000000E+00 0. -1.
          2   -1    0    0  502    0  0.00000000000E+00 -0.00000000000E+00 -0.11284869649E+04  0.11284869649E+04  0.00000000000E+00 0.  1.
          6    1    1    2  502    0 -0.43515493442E+02  0.14403663454E+03 -0.62439723385E+03  0.66516242821E+03  0.17300000000E+03 0. -1.
         -6    1    1    2    0  501  0.43515493442E+02 -0.14403663454E+03 -0.45653720677E+03  0.51087706097E+03  0.17300000000E+03 0.  1.
<mgrwt>
<rscale>  2 0.22927963E+03</rscale>
<asrwt>0</asrwt>
<pdfrwt beam="1">  1        2 0.17361336E+00 0.22927963E+03</pdfrwt>
<pdfrwt beam="2">  1       -2 0.73157736E-02 0.22927963E+03</pdfrwt>
<totfact> 0.23863659E+03</totfact>
</mgrwt>
</event>
<event>
 4    2  0.9414654E-001  0.1757967E+03  0.7546771E-02  0.1171934E+00
         -3   -1    0    0    0  501 -0.00000000000E+00  0.00000000000E+00  0.17805402583E+03  0.17805402583E+03  0.00000000000E+00 0. -1.
          3   -1    0    0  502    0  0.00000000000E+00 -0.00000000000E+00 -0.17673818649E+03  0.17673818649E+03  0.00000000000E+00 0.  1.
          6    1    1    2  502    0  0.28475575685E+02  0.12830482421E+02 -0.23100735507E+02  0.17730799100E+03  0.17300000000E+03 0.  1.
         -6    1    1    2    0  501 -0.28475575685E+02 -0.12830482421E+02  0.24416574845E+02  0.17748422132E+03  0.17300000000E+03 0. -1.
<mgrwt>
<rscale>  2 0.17579670E+03</rscale>
<asrwt>0</asrwt>
<pdfrwt beam="1">  1        3 0.27190490E-01 0.17579670E+03</pdfrwt>
<pdfrwt beam="2">  1       -3 0.27392927E-01 0.17579670E+03</pdfrwt>
<totfact> 0.39351227E+02</totfact>
</mgrwt>
</event>
<event>
 4    2  0.9414654E-001  0.4020724E+03  0.7546771E-02  0.1043064E+00
          1   -1    0    0  502    0  0.00000000000E+00  0.00000000000E+00  0.27772845141E+03  0.27772845141E+03  0.00000000000E+00 0.  1.
         -1   -1    0    0    0  501 -0.00000000000E+00 -0.00000000000E+00 -0.60423241240E+03  0.60423241240E+03  0.00000000000E+00 0. -1.
          6    1    1    2  502    0 -0.21183343934E+03 -0.29471987248E+03 -0.24767406726E+03  0.47223368458E+03  0.17300000000E+03 0.  1.
         -6    1    1    2    0  501  0.21183343934E+03  0.29471987248E+03 -0.78829893723E+02  0.40972717923E+03  0.17300000000E+03 0. -1.
<mgrwt>
<rscale>  2 0.40207239E+03</rscale>
<asrwt>0</asrwt>
<pdfrwt beam="1">  1        1 0.42727454E-01 0.40207239E+03</pdfrwt>
<pdfrwt beam="2">  1       -1 0.92958833E-01 0.40207239E+03</pdfrwt>
<totfact> 0.11369431E+02</totfact>
</mgrwt>
</event>
<event>
 4    2  0.9414654E-001  0.2502261E+03  0.7546771E-02  0.1113162E+00
         -1   -1    0    0    0  501 -0.00000000000E+00  0.00000000000E+00  0.19683478479E+03  0.19683478479E+03  0.00000000000E+00 0.  1.
          1   -1    0    0  502    0  0.00000000000E+00 -0.00000000000E+00 -0.32231981981E+03  0.32231981981E+03  0.00000000000E+00 0. -1.
          6    1    1    2  502    0  0.11050731754E+03 -0.14308129213E+03 -0.92443842447E+02  0.26675641959E+03  0.17300000000E+03 0. -1.
         -6    1    1    2    0  501 -0.11050731754E+03  0.14308129213E+03 -0.33041192571E+02  0.25239818501E+03  0.17300000000E+03 0. -1.
<mgrwt>
<rscale>  2 0.25022614E+03</rscale>
<asrwt>0</asrwt>
<pdfrwt beam="1">  1        1 0.49587665E-01 0.25022614E+03</pdfrwt>
<pdfrwt beam="2">  1       -1 0.30282275E-01 0.25022614E+03</pdfrwt>
<totfact> 0.80591870E+02</totfact>
</mgrwt>
</event>
<event>
 4    2  0.9414654E-001  0.2960301E+03  0.7546771E-02  0.1087242E+00
         -2   -1    0    0    0  501 -0.00000000000E+00  0.00000000000E+00  0.16628666339E+03  0.16628666339E+03  0.00000000000E+00 0. -1.
          2   -1    0    0  502    0  0.00000000000E+00 -0.00000000000E+00 -0.59240366356E+03  0.59240366356E+03  0.00000000000E+00 0.  1.
          6    1    1    2  502    0  0.17482744077E+03  0.16474274723E+03 -0.33909955859E+03  0.45013588776E+03  0.17300000000E+03 0.  1.
         -6    1    1    2    0  501 -0.17482744077E+03 -0.16474274723E+03 -0.87017441575E+02  0.30855443919E+03  0.17300000000E+03 0. -1.
<mgrwt>
<rscale>  2 0.29603008E+03</rscale>
<asrwt>0</asrwt>
<pdfrwt beam="1">  1        2 0.91139028E-01 0.29603008E+03</pdfrwt>
<pdfrwt beam="2">  1       -2 0.25582563E-01 0.29603008E+03</pdfrwt>
<totfact> 0.70100967E+02</totfact>
</mgrwt>
</event>
<event>
 4    2  0.9414654E-001  0.1812776E+03  0.7546771E-02  0.1166572E+00
         -2   -1    0    0    0  501 -0.00000000000E+00  0.00000000000E+00  0.21721310601E+02  0.21721310601E+02  0.00000000000E+00 0. -1.
          2   -1    0    0  502    0  0.00000000000E+00 -0.00000000000E+00 -0.16200341407E+04  0.16200341407E+04  0.00000000000E+00 0.  1.
          6    1    1    2  502    0  0.53300671639E+02 -0.95717311222E+01 -0.10102793867E+04  0.10264141556E+04  0.17300000000E+03 0.  1.
         -6    1    1    2    0  501 -0.53300671639E+02  0.95717311222E+01 -0.58803344340E+03  0.61534129570E+03  0.17300000000E+03 0. -1.
<mgrwt>
<rscale>  2 0.18127763E+03</rscale>
<asrwt>0</asrwt>
<pdfrwt beam="1">  1        2 0.24923608E+00 0.18127763E+03</pdfrwt>
<pdfrwt beam="2">  1       -2 0.33417393E-02 0.18127763E+03</pdfrwt>
<totfact> 0.42233180E+03</totfact>
</mgrwt>
</event>
<event>
 4    2  0.9414654E-001  0.3282087E+03  0.7546771E-02  0.1071932E+00
         -2   -1    0    0    0  501 -0.00000000000E+00  0.00000000000E+00  0.17805799857E+03  0.17805799857E+03  0.00000000000E+00 0.  1.
          2   -1    0    0  502    0  0.00000000000E+00 -0.00000000000E+00 -0.85916254905E+03  0.85916254905E+03  0.00000000000E+00 0. -1.
          6    1    1    2  502    0 -0.11726254593E+03  0.25306412607E+03 -0.58467885205E+02  0.33337583923E+03  0.17300000000E+03 0.  1.
         -6    1    1    2    0  501  0.11726254593E+03 -0.25306412607E+03 -0.62263666527E+03  0.70384470839E+03  0.17300000000E+03 0. -1.
<mgrwt>
<rscale>  2 0.32820871E+03</rscale>
<asrwt>0</asrwt>
<pdfrwt beam="1">  1        2 0.13217886E+00 0.32820871E+03</pdfrwt>
<pdfrwt beam="2">  1       -2 0.27393538E-01 0.32820871E+03</pdfrwt>
<totfact> 0.39074697E+02</totfact>
</mgrwt>
</event>
<event>
 4    2  0.9414654E-001  0.1969514E+03  0.7546771E-02  0.1152337E+00
         -2   -1    0    0    0  501 -0.00000000000E+00  0.00000000000E+00  0.69637822578E+02  0.69637822578E+02  0.00000000000E+00 0. -1.
          2   -1    0    0  502    0  0.00000000000E+00 -0.00000000000E+00 -0.64147896452E+03  0.64147896452E+03  0.00000000000E+00 0.  1.
          6    1    1    2  502    0 -0.40074508103E+02 -0.85175522653E+02 -0.41493435295E+03  0.45930420542E+03  0.17300000000E+03 0.  1.
         -6    1    1    2    0  501  0.40074508103E+02  0.85175522653E+02 -0.15690678899E+03  0.25181258167E+03  0.17300000000E+03 0. -1.
<mgrwt>
<rscale>  2 0.19695135E+03</rscale>
<asrwt>0</asrwt>
<pdfrwt beam="1">  1        2 0.98689071E-01 0.19695135E+03</pdfrwt>
<pdfrwt beam="2">  1       -2 0.10713511E-01 0.19695135E+03</pdfrwt>
<totfact> 0.27411478E+03</totfact>
</mgrwt>
</event>
<event>
 4    2  0.9414654E-001  0.1779190E+03  0.7546771E-02  0.1169832E+00
         -2   -1    0    0    0  501 -0.00000000000E+00  0.00000000000E+00  0.70078096753E+02  0.70078096753E+02  0.00000000000E+00 0.  1.
          2   -1    0    0  502    0  0.00000000000E+00 -0.00000000000E+00 -0.46883642447E+03  0.46883642447E+03  0.00000000000E+00 0. -1.
          6    1    1    2  502    0 -0.39852972605E+02 -0.11742801020E+02 -0.14788230075E+03  0.23135325301E+03  0.17300000000E+03 0.  1.
         -6    1    1    2    0  501  0.39852972605E+02  0.11742801020E+02 -0.25087602697E+03  0.30756126822E+03  0.17300000000E+03 0. -1.
<mgrwt>
<rscale>  2 0.17791895E+03</rscale>
<asrwt>0</asrwt>
<pdfrwt beam="1">  1        2 0.72128683E-01 0.17791895E+03</pdfrwt>
<pdfrwt beam="2">  1       -2 0.10781245E-01 0.17791895E+03</pdfrwt>
<totfact> 0.38565639E+03</totfact>
</mgrwt>
</event>
<event>
 4    2  0.9414654E-001  0.2075765E+03  0.7546771E-02  0.1143500E+00
         -2   -1    0    0    0  501 -0.00000000000E+00  0.00000000000E+00  0.88476550835E+02  0.88476550835E+02  0.00000000000E+00 0. -1.
          2   -1    0    0  502    0  0.00000000000E+00 -0.00000000000E+00 -0.60284214908E+03  0.60284214908E+03  0.00000000000E+00 0.  1.
          6    1    1    2  502    0 -0.11187897693E+03  0.25340021944E+02 -0.40870666333E+03  0.45839847168E+03  0.17300000000E+03 0.  1.
         -6    1    1    2    0  501  0.11187897693E+03 -0.25340021944E+02 -0.10565893491E+03  0.23292022823E+03  0.17300000000E+03 0. -1.
<mgrwt>
<rscale>  2 0.20757655E+03</rscale>
<asrwt>0</asrwt>
<pdfrwt beam="1">  1        2 0.92744947E-01 0.20757655E+03</pdfrwt>
<pdfrwt beam="2">  1       -2 0.13611777E-01 0.20757655E+03</pdfrwt>
<totfact> 0.20053417E+03</totfact>
</mgrwt>
</event>
<event>
 4    2  0.9414654E-001  0.1806751E+03  0.7546771E-02  0.1167151E+00
         -1   -1    0    0    0  501 -0.00000000000E+00  0.00000000000E+00  0.25489231455E+02  0.25489231455E+02  0.00000000000E+00 0.  1.
          1   -1    0    0  502    0  0.00000000000E+00 -0.00000000000E+00 -0.13261270561E+04  0.13261270561E+04  0.00000000000E+00 0. -1.
          6    1    1    2  502    0 -0.28118855067E+02  0.43861318086E+02 -0.52520786129E+03  0.55541586473E+03  0.17300000000E+03 0. -1.
         -6    1    1    2    0  501  0.28118855067E+02 -0.43861318086E+02 -0.77542996336E+03  0.79620042283E+03  0.17300000000E+03 0. -1.
<mgrwt>
<rscale>  2 0.18067508E+03</rscale>
<asrwt>0</asrwt>
<pdfrwt beam="1">  1        1 0.20401952E+00 0.18067508E+03</pdfrwt>
<pdfrwt beam="2">  1       -1 0.39214207E-02 0.18067508E+03</pdfrwt>
<totfact> 0.23660457E+03</totfact>
</mgrwt>
</event>
<event>
 4    2  0.9414654E-001  0.3363581E+03  0.7546771E-02  0.1068358E+00
         -2   -1    0    0    0  501 -0.00000000000E+00  0.00000000000E+00  0.64150232877E+02  0.64150232877E+02  0.00000000000E+00 0. -1.
          2   -1    0    0  502    0  0.00000000000E+00 -0.00000000000E+00 -0.19787490190E+04  0.19787490190E+04  0.00000000000E+00 0.  1.
          6    1    1    2  502    0 -0.78176643837E+02  0.27766202264E+03 -0.62050202239E+03  0.70580418406E+03  0.17300000000E+03 0. -1.
         -6    1    1    2    0  501  0.78176643837E+02 -0.27766202264E+03 -0.12940967638E+04  0.13370950679E+04  0.17300000000E+03 0.  1.
<mgrwt>
<rscale>  2 0.33635812E+03</rscale>
<asrwt>0</asrwt>
<pdfrwt beam="1">  1        2 0.30442291E+00 0.33635812E+03</pdfrwt>
<pdfrwt beam="2">  1       -2 0.98692670E-02 0.33635812E+03</pdfrwt>
<totfact> 0.51235831E+02</totfact>
</mgrwt>
</event>
<event>
 4    2  0.9414654E-001  0.2044705E+03  0.7546771E-02  0.1146021E+00
          2   -1    0    0  502    0  0.00000000000E+00  0.00000000000E+00  0.84872237321E+03  0.84872237321E+03  0.00000000000E+00 0.  1.
         -2   -1    0    0    0  501 -0.00000000000E+00 -0.00000000000E+00 -0.51448711621E+02  0.51448711621E+02  0.00000000000E+00 0. -1.
          6    1    1    2  502    0  0.69571747816E+00 -0.10898950640E+03  0.49146645718E+03  0.53230393109E+03  0.17300000000E+03 0.  1.
         -6    1    1    2    0  501 -0.69571747816E+00  0.10898950640E+03  0.30580720441E+03  0.36786715373E+03  0.17300000000E+03 0.  1.
<mgrwt>
<rscale>  2 0.20447053E+03</rscale>
<asrwt>0</asrwt>
<pdfrwt beam="1">  1        2 0.13057266E+00 0.20447053E+03</pdfrwt>
<pdfrwt beam="2">  1       -2 0.79151870E-02 0.20447053E+03</pdfrwt>
<totfact> 0.31329469E+03</totfact>
</mgrwt>
</event>
<event>
 4    2  0.9414654E-001  0.2863843E+03  0.7546771E-02  0.1092252E+00
         -2   -1    0    0    0  501 -0.00000000000E+00  0.00000000000E+00  0.34026472267E+03  0.34026472267E+03  0.00000000000E+00 0.  1.
          2   -1    0    0  502    0  0.00000000000E+00 -0.00000000000E+00 -0.24137613604E+03  0.24137613604E+03  0.00000000000E+00 0. -1.
          6    1    1    2  502    0 -0.44690177078E+02 -0.22380739802E+03  0.60365290439E+02  0.29267717988E+03  0.17300000000E+03 0. -1.
         -6    1    1    2    0  501  0.44690177078E+02  0.22380739802E+03  0.38523296189E+02  0.28896367883E+03  0.17300000000E+03 0.  1.
<mgrwt>
<rscale>  2 0.28638429E+03</rscale>
<asrwt>0</asrwt>
<pdfrwt beam="1">  1        2 0.37134790E-01 0.28638429E+03</pdfrwt>
<pdfrwt beam="2">  1       -2 0.52348419E-01 0.28638429E+03</pdfrwt>
<totfact> 0.48720907E+02</totfact>
</mgrwt>
</event>
<event>
 4    2  0.9414654E-001  0.1777653E+03  0.7546771E-02  0.1169983E+00
          1   -1    0    0  502    0  0.00000000000E+00  0.00000000000E+00  0.20615085316E+03  0.20615085316E+03  0.00000000000E+00 0.  1.
         -1   -1    0    0    0  501 -0.00000000000E+00 -0.00000000000E+00 -0.17436672216E+03  0.17436672216E+03  0.00000000000E+00 0. -1.
          6    1    1    2  502    0  0.27496012611E+02  0.30256929466E+02  0.82042399175E+02  0.19578423775E+03  0.17300000000E+03 0.  1.
         -6    1    1    2    0  501 -0.27496012611E+02 -0.30256929466E+02 -0.50258268176E+02  0.18473333757E+03  0.17300000000E+03 0. -1.
<mgrwt>
<rscale>  2 0.17776533E+03</rscale>
<asrwt>0</asrwt>
<pdfrwt beam="1">  1        1 0.31715516E-01 0.17776533E+03</pdfrwt>
<pdfrwt beam="2">  1       -1 0.26825650E-01 0.17776533E+03</pdfrwt>
<totfact> 0.17230149E+03</totfact>
</mgrwt>
</event>
<event>
 4    2  0.9414654E-001  0.2071756E+03  0.7546771E-02  0.1143822E+00
         -4   -1    0    0    0  501 -0.00000000000E+00  0.00000000000E+00  0.12936773515E+04  0.12936773515E+04  0.00000000000E+00 0.  1.
          4   -1    0    0  502    0  0.00000000000E+00 -0.00000000000E+00 -0.76322000193E+02  0.76322000193E+02  0.00000000000E+00 0. -1.
          6    1    1    2  502    0 -0.10181520921E+03 -0.51248203402E+02  0.93656179198E+02  0.22736137553E+03  0.17300000000E+03 0. -1.
         -6    1    1    2    0  501  0.10181520921E+03  0.51248203402E+02  0.11236991721E+04  0.11426379761E+04  0.17300000000E+03 0.  1.
<mgrwt>
<rscale>  2 0.20717557E+03</rscale>
<asrwt>0</asrwt>
<pdfrwt beam="1">  1        4 0.11741847E-01 0.20717557E+03</pdfrwt>
<pdfrwt beam="2">  1       -4 0.19902727E+00 0.20717557E+03</pdfrwt>
<totfact> 0.15115176E+01</totfact>
</mgrwt>
</event>
<event>
 4    2  0.9414654E-001  0.2477096E+03  0.7546771E-02  0.1114761E+00
          1   -1    0    0  502    0  0.00000000000E+00  0.00000000000E+00  0.28702761834E+03  0.28702761834E+03  0.00000000000E+00 0.  1.
         -1   -1    0    0    0  501 -0.00000000000E+00 -0.00000000000E+00 -0.22886676663E+03  0.22886676663E+03  0.00000000000E+00 0. -1.
          6    1    1    2  502    0  0.17413401646E+03 -0.33292794439E+02 -0.37152286935E+02  0.25048025526E+03  0.17300000000E+03 0. -1.
         -6    1    1    2    0  501 -0.17413401646E+03  0.33292794439E+02  0.95313138644E+02  0.26541412971E+03  0.17300000000E+03 0.  1.
<mgrwt>
<rscale>  2 0.24770964E+03</rscale>
<asrwt>0</asrwt>
<pdfrwt beam="1">  1        1 0.44158095E-01 0.24770964E+03</pdfrwt>
<pdfrwt beam="2">  1       -1 0.35210272E-01 0.24770964E+03</pdfrwt>
<totfact> 0.71933536E+02</totfact>
</mgrwt>
</event>
<event>
 4    2  0.9414654E-001  0.1782762E+03  0.7546771E-02  0.1169482E+00
         -1   -1    0    0    0  501 -0.00000000000E+00  0.00000000000E+00  0.10366625604E+03  0.10366625604E+03  0.00000000000E+00 0.  1.
          1   -1    0    0  502    0  0.00000000000E+00 -0.00000000000E+00 -0.41183452487E+03  0.41183452487E+03  0.00000000000E+00 0. -1.
          6    1    1    2  502    0  0.33016230575E+02 -0.27628249705E+02 -0.23782289620E+02  0.17985546687E+03  0.17300000000E+03 0.  1.
         -6    1    1    2    0  501 -0.33016230575E+02  0.27628249705E+02 -0.28438597922E+03  0.33564531404E+03  0.17300000000E+03 0. -1.
<mgrwt>
<rscale>  2 0.17827617E+03</rscale>
<asrwt>0</asrwt>
<pdfrwt beam="1">  1        1 0.63359157E-01 0.17827617E+03</pdfrwt>
<pdfrwt beam="2">  1       -1 0.15948655E-01 0.17827617E+03</pdfrwt>
<totfact> 0.16835147E+03</totfact>
</mgrwt>
</event>
<event>
 4    2  0.9414654E-001  0.2106534E+03  0.7546771E-02  0.1141050E+00
         -3   -1    0    0    0  501 -0.00000000000E+00  0.00000000000E+00  0.20197506365E+04  0.20197506365E+04  0.00000000000E+00 0. -1.
          3   -1    0    0  502    0  0.00000000000E+00 -0.00000000000E+00 -0.24582691094E+02  0.24582691094E+02  0.00000000000E+00 0.  1.
          6    1    1    2  502    0  0.11991698880E+03  0.81092695793E+01  0.66437779087E+03  0.69697395465E+03  0.17300000000E+03 0.  1.
         -6    1    1    2    0  501 -0.11991698880E+03 -0.81092695793E+01  0.13307901545E+04  0.13473593729E+04  0.17300000000E+03 0. -1.
<mgrwt>
<rscale>  2 0.21065338E+03</rscale>
<asrwt>0</asrwt>
<pdfrwt beam="1">  1        3 0.37819541E-02 0.21065338E+03</pdfrwt>
<pdfrwt beam="2">  1       -3 0.31073074E+00 0.21065338E+03</pdfrwt>
<totfact> 0.33859878E+01</totfact>
</mgrwt>
</event>
<event>
 4    2  0.9414654E-001  0.1749837E+03  0.7546771E-02  0.1172748E+00
         -1   -1    0    0    0  501 -0.00000000000E+00  0.00000000000E+00  0.12053569920E+02  0.12053569920E+02  0.00000000000E+00 0.  1.
          1   -1    0    0  502    0  0.00000000000E+00 -0.00000000000E+00 -0.29595509184E+04  0.29595509184E+04  0.00000000000E+00 0. -1.
          6    1    1    2  502    0 -0.26182449178E+02  0.21873748559E+01 -0.20329927252E+04  0.20405094280E+04  0.17300000000E+03 0. -1.
         -6    1    1    2    0  501  0.26182449178E+02 -0.21873748559E+01 -0.91450462326E+03  0.93109506025E+03  0.17300000000E+03 0.  1.
<mgrwt>
<rscale>  2 0.17498373E+03</rscale>
<asrwt>0</asrwt>
<pdfrwt beam="1">  1        1 0.45531527E+00 0.17498373E+03</pdfrwt>
<pdfrwt beam="2">  1       -1 0.18543964E-02 0.17498373E+03</pdfrwt>
<totfact> 0.60239182E+02</totfact>
</mgrwt>
</event>
<event>
 4    2  0.9414654E-001  0.1742167E+03  0.7546771E-02  0.1173520E+00
          2   -1    0    0  502    0  0.00000000000E+00  0.00000000000E+00  0.97947718871E+03  0.97947718871E+03  0.00000000000E+00 0.  1.
         -2   -1    0    0    0  501 -0.00000000000E+00 -0.00000000000E+00 -0.92589047452E+02  0.92589047452E+02  0.00000000000E+00 0. -1.
          6    1    1    2  502    0  0.62286396950E+01 -0.19587558912E+02  0.62161201571E+01  0.17432758980E+03  0.17300000000E+03 0. -1.
         -6    1    1    2    0  501 -0.62286396950E+01  0.19587558912E+02  0.88067202110E+03  0.89773864636E+03  0.17300000000E+03 0.  1.
<mgrwt>
<rscale>  2 0.17421673E+03</rscale>
<asrwt>0</asrwt>
<pdfrwt beam="1">  1        2 0.15068879E+00 0.17421673E+03</pdfrwt>
<pdfrwt beam="2">  1       -2 0.14244470E-01 0.17421673E+03</pdfrwt>
<totfact> 0.10133088E+03</totfact>
</mgrwt>
</event>
<event>
 4    2  0.9414654E-001  0.1779885E+03  0.7546771E-02  0.1169764E+00
         -2   -1    0    0    0  501 -0.00000000000E+00  0.00000000000E+00  0.10515378309E+02  0.10515378309E+02  0.00000000000E+00 0. -1.
          2   -1    0    0  502    0  0.00000000000E+00 -0.00000000000E+00 -0.30127211780E+04  0.30127211780E+04  0.00000000000E+00 0.  1.
          6    1    1    2  502    0 -0.39968369369E+02 -0.12386713899E+02 -0.15014524438E+04  0.15119653905E+04  0.17300000000E+03 0. -1.
         -6    1    1    2    0  501  0.39968369369E+02  0.12386713899E+02 -0.15007533559E+04  0.15112711658E+04  0.17300000000E+03 0.  1.
<mgrwt>
<rscale>  2 0.17798849E+03</rscale>
<asrwt>0</asrwt>
<pdfrwt beam="1">  1        2 0.46349637E+00 0.17798849E+03</pdfrwt>
<pdfrwt beam="2">  1       -2 0.16177477E-02 0.17798849E+03</pdfrwt>
<totfact> 0.21912968E+03</totfact>
</mgrwt>
</event>
<event>
 4    2  0.9414654E-001  0.1972396E+03  0.7546771E-02  0.1152089E+00
         -2   -1    0    0    0  501 -0.00000000000E+00  0.00000000000E+00  0.25832553553E+02  0.25832553553E+02  0.00000000000E+00 0.  1.
          2   -1    0    0  502    0  0.00000000000E+00 -0.00000000000E+00 -0.16468270356E+04  0.16468270356E+04  0.00000000000E+00 0. -1.
          6    1    1    2  502    0 -0.81786293064E+02  0.47806706118E+02 -0.10550751858E+04  0.10733532161E+04  0.17300000000E+03 0. -1.
         -6    1    1    2    0  501  0.81786293064E+02 -0.47806706118E+02 -0.56591929625E+03  0.59930637303E+03  0.17300000000E+03 0. -1.
<mgrwt>
<rscale>  2 0.19723965E+03</rscale>
<asrwt>0</asrwt>
<pdfrwt beam="1">  1        2 0.25335799E+00 0.19723965E+03</pdfrwt>
<pdfrwt beam="2">  1       -2 0.39742392E-02 0.19723965E+03</pdfrwt>
<totfact> 0.31595973E+03</totfact>
</mgrwt>
</event>
<event>
 4    2  0.9414654E-001  0.4716580E+03  0.7546771E-02  0.1021453E+00
         -2   -1    0    0    0  501 -0.00000000000E+00  0.00000000000E+00  0.14434173067E+03  0.14434173067E+03  0.00000000000E+00 0. -1.
          2   -1    0    0  502    0  0.00000000000E+00 -0.00000000000E+00 -0.15991464138E+04  0.15991464138E+04  0.00000000000E+00 0.  1.
          6    1    1    2  502    0  0.31119251734E+03 -0.30934038668E+03 -0.56147731662E+03  0.73329259833E+03  0.17300000000E+03 0.  1.
         -6    1    1    2    0  501 -0.31119251734E+03  0.30934038668E+03 -0.89332736650E+03  0.10101955461E+04  0.17300000000E+03 0. -1.
<mgrwt>
<rscale>  2 0.47165799E+03</rscale>
<asrwt>0</asrwt>
<pdfrwt beam="1">  1        2 0.24602253E+00 0.47165799E+03</pdfrwt>
<pdfrwt beam="2">  1       -2 0.22206420E-01 0.47165799E+03</pdfrwt>
<totfact> 0.20670356E+02</totfact>
</mgrwt>
</event>
<event>
 4    2  0.9414654E-001  0.2869617E+03  0.7546771E-02  0.1091946E+00
          1   -1    0    0  502    0  0.00000000000E+00  0.00000000000E+00  0.73785187782E+03  0.73785187782E+03  0.00000000000E+00 0. -1.
         -1   -1    0    0    0  501 -0.00000000000E+00 -0.00000000000E+00 -0.11370798399E+03  0.11370798399E+03  0.00000000000E+00 0.  1.
          6    1    1    2  502    0  0.22875475328E+03  0.94486769591E+01  0.25415044954E+03  0.38332683919E+03  0.17300000000E+03 0.  1.
         -6    1    1    2    0  501 -0.22875475328E+03 -0.94486769591E+01  0.36999344430E+03  0.46823302262E+03  0.17300000000E+03 0. -1.
<mgrwt>
<rscale>  2 0.28696170E+03</rscale>
<asrwt>0</asrwt>
<pdfrwt beam="1">  1        1 0.11351567E+00 0.28696170E+03</pdfrwt>
<pdfrwt beam="2">  1       -1 0.17493536E-01 0.28696170E+03</pdfrwt>
<totfact> 0.65601292E+02</totfact>
</mgrwt>
</event>
<event>
 4    2  0.9414654E-001  0.1771489E+03  0.7546771E-02  0.1170591E+00
         -1   -1    0    0    0  501 -0.00000000000E+00  0.00000000000E+00  0.15897995071E+03  0.15897995071E+03  0.00000000000E+00 0.  1.
          1   -1    0    0  502    0  0.00000000000E+00 -0.00000000000E+00 -0.28704379960E+03  0.28704379960E+03  0.00000000000E+00 0. -1.
          6    1    1    2  502    0 -0.25931172764E+02 -0.27933722834E+02 -0.18866350587E+03  0.25879651667E+03  0.17300000000E+03 0. -1.
         -6    1    1    2    0  501  0.25931172764E+02  0.27933722834E+02  0.60599656971E+02  0.18722723364E+03  0.17300000000E+03 0.  1.
<mgrwt>
<rscale>  2 0.17714886E+03</rscale>
<asrwt>0</asrwt>
<pdfrwt beam="1">  1        1 0.44160584E-01 0.17714886E+03</pdfrwt>
<pdfrwt beam="2">  1       -1 0.24458454E-01 0.17714886E+03</pdfrwt>
<totfact> 0.13287122E+03</totfact>
</mgrwt>
</event>
<event>
 4    2  0.9414654E-001  0.1807636E+03  0.7546771E-02  0.1167066E+00
         -2   -1    0    0    0  501 -0.00000000000E+00  0.00000000000E+00  0.67040888215E+02  0.67040888215E+02  0.00000000000E+00 0.  1.
          2   -1    0    0  502    0  0.00000000000E+00 -0.00000000000E+00 -0.55244096512E+03  0.55244096512E+03  0.00000000000E+00 0. -1.
          6    1    1    2  502    0 -0.20200475135E+02 -0.48357173409E+02 -0.13641753683E+03  0.22646240256E+03  0.17300000000E+03 0.  1.
         -6    1    1    2    0  501  0.20200475135E+02  0.48357173409E+02 -0.34898254008E+03  0.39301945078E+03  0.17300000000E+03 0. -1.
<mgrwt>
<rscale>  2 0.18076359E+03</rscale>
<asrwt>0</asrwt>
<pdfrwt beam="1">  1        2 0.84990916E-01 0.18076359E+03</pdfrwt>
<pdfrwt beam="2">  1       -2 0.10313983E-01 0.18076359E+03</pdfrwt>
<totfact> 0.34491282E+03</totfact>
</mgrwt>
</event>
<event>
 4    2  0.9414654E-001  0.3581640E+03  0.7546771E-02  0.1059313E+00
          2   -1    0    0  502    0  0.00000000000E+00  0.00000000000E+00  0.14865064848E+03  0.14865064848E+03  0.00000000000E+00 0.  1.
         -2   -1    0    0    0  501 -0.00000000000E+00 -0.00000000000E+00 -0.92389022482E+03  0.92389022482E+03  0.00000000000E+00 0. -1.
          6    1    1    2  502    0  0.14019614172E+03  0.28053078949E+03 -0.52532299753E+03  0.63580321935E+03  0.17300000000E+03 0. -1.
         -6    1    1    2    0  501 -0.14019614172E+03 -0.28053078949E+03 -0.24991657881E+03  0.43673765394E+03  0.17300000000E+03 0.  1.
<mgrwt>
<rscale>  2 0.35816404E+03</rscale>
<asrwt>0</asrwt>
<pdfrwt beam="1">  1        2 0.22869331E-01 0.35816404E+03</pdfrwt>
<pdfrwt beam="2">  1       -2 0.14213695E+00 0.35816404E+03</pdfrwt>
<totfact> 0.86536275E+01</totfact>
</mgrwt>
</event>
<event>
 4    2  0.9414654E-001  0.2363249E+03  0.7546771E-02  0.1122266E+00
         -2   -1    0    0    0  501 -0.00000000000E+00  0.00000000000E+00  0.20947062650E+03  0.20947062650E+03  0.00000000000E+00 0.  1.
          2   -1    0    0  502    0  0.00000000000E+00 -0.00000000000E+00 -0.38256119653E+03  0.38256119653E+03  0.00000000000E+00 0. -1.
          6    1    1    2  502    0 -0.57209257518E+02 -0.15049106031E+03 -0.24950487019E+03  0.34365991711E+03  0.17300000000E+03 0. -1.
         -6    1    1    2    0  501  0.57209257518E+02  0.15049106031E+03  0.76414300161E+02  0.24837190592E+03  0.17300000000E+03 0.  1.
<mgrwt>
<rscale>  2 0.23632490E+03</rscale>
<asrwt>0</asrwt>
<pdfrwt beam="1">  1        2 0.58855568E-01 0.23632490E+03</pdfrwt>
<pdfrwt beam="2">  1       -2 0.32226250E-01 0.23632490E+03</pdfrwt>
<totfact> 0.75319206E+02</totfact>
</mgrwt>
</event>
<event>
 4    2  0.9414654E-001  0.2041350E+03  0.7546771E-02  0.1146296E+00
          1   -1    0    0  502    0  0.00000000000E+00  0.00000000000E+00  0.24143001713E+02  0.24143001713E+02  0.00000000000E+00 0. -1.
         -1   -1    0    0    0  501 -0.00000000000E+00 -0.00000000000E+00 -0.17743037437E+04  0.17743037437E+04  0.00000000000E+00 0.  1.
          6    1    1    2  502    0  0.43396497522E+02 -0.99291636600E+02 -0.10234328505E+04  0.10435927771E+04  0.17300000000E+03 0.  1.
         -6    1    1    2    0  501 -0.43396497522E+02  0.99291636600E+02 -0.72672789154E+03  0.75485396829E+03  0.17300000000E+03 0.  1.
<mgrwt>
<rscale>  2 0.20413497E+03</rscale>
<asrwt>0</asrwt>
<pdfrwt beam="1">  1        1 0.37143063E-02 0.20413497E+03</pdfrwt>
<pdfrwt beam="2">  1       -1 0.27296993E+00 0.20413497E+03</pdfrwt>
<totfact> 0.14464993E+02</totfact>
</mgrwt>
</event>
<event>
 4    2  0.9414654E-001  0.2008109E+03  0.7546771E-02  0.1149057E+00
          1   -1    0    0  502    0  0.00000000000E+00  0.00000000000E+00  0.99511172163E+03  0.99511172163E+03  0.00000000000E+00 0.  1.
         -1   -1    0    0    0  501 -0.00000000000E+00 -0.00000000000E+00 -0.41315384576E+02  0.41315384576E+02  0.00000000000E+00 0. -1.
          6    1    1    2  502    0  0.45193629693E+01 -0.10186071900E+03  0.54865913174E+03  0.58425326149E+03  0.17300000000E+03 0.  1.
         -6    1    1    2    0  501 -0.45193629693E+01  0.10186071900E+03  0.40513720531E+03  0.45217384471E+03  0.17300000000E+03 0. -1.
<mgrwt>
<rscale>  2 0.20081093E+03</rscale>
<asrwt>0</asrwt>
<pdfrwt beam="1">  1        1 0.15309409E+00 0.20081093E+03</pdfrwt>
<pdfrwt beam="2">  1       -1 0.63562138E-02 0.20081093E+03</pdfrwt>
<totfact> 0.19684660E+03</totfact>
</mgrwt>
</event>
<event>
 4    2  0.9414654E-001  0.2400671E+03  0.7546771E-02  0.1119748E+00
         -1   -1    0    0    0  501 -0.00000000000E+00  0.00000000000E+00  0.36893551470E+03  0.36893551470E+03  0.00000000000E+00 0. -1.
          1   -1    0    0  502    0  0.00000000000E+00 -0.00000000000E+00 -0.16343794655E+03  0.16343794655E+03  0.00000000000E+00 0.  1.
          6    1    1    2  502    0  0.15050945934E+03 -0.71064200796E+02  0.15871837914E+03  0.28779114278E+03  0.17300000000E+03 0. -1.
         -6    1    1    2    0  501 -0.15050945934E+03  0.71064200796E+02  0.46779189011E+02  0.24458231847E+03  0.17300000000E+03 0.  1.
<mgrwt>
<rscale>  2 0.24006711E+03</rscale>
<asrwt>0</asrwt>
<pdfrwt beam="1">  1        1 0.25144300E-01 0.24006711E+03</pdfrwt>
<pdfrwt beam="2">  1       -1 0.56759310E-01 0.24006711E+03</pdfrwt>
<totfact> 0.61570797E+02</totfact>
</mgrwt>
</event>
<event>
 4    2  0.9414654E-001  0.1746452E+03  0.7546771E-02  0.1173088E+00
          2   -1    0    0  502    0  0.00000000000E+00  0.00000000000E+00  0.87948919329E+03  0.87948919329E+03  0.00000000000E+00 0. -1.
         -2   -1    0    0    0  501 -0.00000000000E+00 -0.00000000000E+00 -0.35749004593E+02  0.35749004593E+02  0.00000000000E+00 0.  1.
          6    1    1    2  502    0 -0.23632774604E+02 -0.36668785480E+01  0.50099256793E+03  0.53056055936E+03  0.17300000000E+03 0. -1.
         -6    1    1    2    0  501  0.23632774604E+02  0.36668785480E+01  0.34274762077E+03  0.38467763852E+03  0.17300000000E+03 0.  1.
<mgrwt>
<rscale>  2 0.17464522E+03</rscale>
<asrwt>0</asrwt>
<pdfrwt beam="1">  1        2 0.13530601E+00 0.17464522E+03</pdfrwt>
<pdfrwt beam="2">  1       -2 0.54998475E-02 0.17464522E+03</pdfrwt>
<totfact> 0.52104750E+03</totfact>
</mgrwt>
</event>
<event>
 4    2  0.9414654E-001  0.2550013E+03  0.7546771E-02  0.1110184E+00
         -1   -1    0    0    0  501 -0.00000000000E+00  0.00000000000E+00  0.75985176642E+02  0.75985176642E+02  0.00000000000E+00 0. -1.
          1   -1    0    0  502    0  0.00000000000E+00 -0.00000000000E+00 -0.12184268242E+04  0.12184268242E+04  0.00000000000E+00 0.  1.
          6    1    1    2  502    0  0.16524344109E+03  0.88268230633E+02 -0.92431616806E+03  0.95884620972E+03  0.17300000000E+03 0.  1.
         -6    1    1    2    0  501 -0.16524344109E+03 -0.88268230633E+02 -0.21812547949E+03  0.33556579111E+03  0.17300000000E+03 0. -1.
<mgrwt>
<rscale>  2 0.25500132E+03</rscale>
<asrwt>0</asrwt>
<pdfrwt beam="1">  1        1 0.18745027E+00 0.25500132E+03</pdfrwt>
<pdfrwt beam="2">  1       -1 0.11690028E-01 0.25500132E+03</pdfrwt>
<totfact> 0.53328392E+02</totfact>
</mgrwt>
</event>
<event>
 4    2  0.9414654E-001  0.2283725E+03  0.7546771E-02  0.1127791E+00
          2   -1    0    0  502    0  0.00000000000E+00  0.00000000000E+00  0.33095427074E+04  0.33095427074E+04  0.00000000000E+00 0. -1.
         -2   -1    0    0    0  501 -0.00000000000E+00 -0.00000000000E+00 -0.16290821166E+02  0.16290821166E+02  0.00000000000E+00 0.  1.
          6    1    1    2  502    0 -0.10646820758E+03 -0.10435279823E+03  0.19471762872E+04  0.19605227566E+04  0.17300000000E+03 0. -1.
         -6    1    1    2    0  501  0.10646820758E+03  0.10435279823E+03  0.13460755990E+04  0.13653107720E+04  0.17300000000E+03 0.  1.
<mgrwt>
<rscale>  2 0.22837247E+03</rscale>
<asrwt>0</asrwt>
<pdfrwt beam="1">  1        2 0.50915988E+00 0.22837247E+03</pdfrwt>
<pdfrwt beam="2">  1       -2 0.25062828E-02 0.22837247E+03</pdfrwt>
<totfact> 0.75337756E+02</totfact>
</mgrwt>
</event>
<event>
 4    2  0.9414654E-001  0.2926553E+03  0.7546771E-02  0.1088971E+00
          2   -1    0    0  502    0  0.00000000000E+00  0.00000000000E+00  0.88473629874E+03  0.88473629874E+03  0.00000000000E+00 0. -1.
         -2   -1    0    0    0  501 -0.00000000000E+00 -0.00000000000E+00 -0.11609362542E+03  0.11609362542E+03  0.00000000000E+00 0.  1.
          6    1    1    2  502    0  0.11882527223E+03 -0.20395747436E+03  0.58829505058E+03  0.65706785281E+03  0.17300000000E+03 0. -1.
         -6    1    1    2    0  501 -0.11882527223E+03  0.20395747436E+03  0.18034762274E+03  0.34376207134E+03  0.17300000000E+03 0.  1.
<mgrwt>
<rscale>  2 0.29265525E+03</rscale>
<asrwt>0</asrwt>
<pdfrwt beam="1">  1        2 0.13611327E+00 0.29265525E+03</pdfrwt>
<pdfrwt beam="2">  1       -2 0.17860558E-01 0.29265525E+03</pdfrwt>
<totfact> 0.79491476E+02</totfact>
</mgrwt>
</event>
<event>
 4    2  0.9414654E-001  0.2071387E+03  0.7546771E-02  0.1143852E+00
         -1   -1    0    0    0  501 -0.00000000000E+00  0.00000000000E+00  0.14527974324E+03  0.14527974324E+03  0.00000000000E+00 0. -1.
          1   -1    0    0  502    0  0.00000000000E+00 -0.00000000000E+00 -0.45985035316E+03  0.45985035316E+03  0.00000000000E+00 0.  1.
          6    1    1    2  502    0  0.90153886903E+02 -0.69639993478E+02 -0.33825729369E+03  0.39664146121E+03  0.17300000000E+03 0.  1.
         -6    1    1    2    0  501 -0.90153886903E+02  0.69639993478E+02  0.23686683778E+02  0.20848863519E+03  0.17300000000E+03 0. -1.
<mgrwt>
<rscale>  2 0.20713873E+03</rscale>
<asrwt>0</asrwt>
<pdfrwt beam="1">  1        1 0.70746206E-01 0.20713873E+03</pdfrwt>
<pdfrwt beam="2">  1       -1 0.22350730E-01 0.20713873E+03</pdfrwt>
<totfact> 0.84934378E+02</totfact>
</mgrwt>
</event>
<event>
 4    2  0.9414654E-001  0.1741340E+03  0.7546771E-02  0.1173604E+00
         -2   -1    0    0    0  501 -0.00000000000E+00  0.00000000000E+00  0.76938393120E+02  0.76938393120E+02  0.00000000000E+00 0. -1.
          2   -1    0    0  502    0  0.00000000000E+00 -0.00000000000E+00 -0.56449198500E+03  0.56449198500E+03  0.00000000000E+00 0.  1.
          6    1    1    2  502    0 -0.11897435538E+02  0.15877573510E+02 -0.41997233894E+03  0.45464206997E+03  0.17300000000E+03 0.  1.
         -6    1    1    2    0  501  0.11897435538E+02 -0.15877573510E+02 -0.67581252944E+02  0.18678830815E+03  0.17300000000E+03 0. -1.
<mgrwt>
<rscale>  2 0.17413399E+03</rscale>
<asrwt>0</asrwt>
<pdfrwt beam="1">  1        2 0.86844923E-01 0.17413399E+03</pdfrwt>
<pdfrwt beam="2">  1       -2 0.11836676E-01 0.17413399E+03</pdfrwt>
<totfact> 0.26989505E+03</totfact>
</mgrwt>
</event>
<event>
 4    2  0.9414654E-001  0.2493893E+03  0.7546771E-02  0.1113691E+00
          2   -1    0    0  502    0  0.00000000000E+00  0.00000000000E+00  0.49661664389E+03  0.49661664389E+03  0.00000000000E+00 0.  1.
         -2   -1    0    0    0  501 -0.00000000000E+00 -0.00000000000E+00 -0.21940611858E+03  0.21940611858E+03  0.00000000000E+00 0. -1.
          6    1    1    2  502    0 -0.12620782427E+02  0.17918347416E+03  0.37314999496E+03  0.44881613195E+03  0.17300000000E+03 0.  1.
         -6    1    1    2    0  501  0.12620782427E+02 -0.17918347416E+03 -0.95939469646E+02  0.26720663052E+03  0.17300000000E+03 0. -1.
<mgrwt>
<rscale>  2 0.24938926E+03</rscale>
<asrwt>0</asrwt>
<pdfrwt beam="1">  1        2 0.76402560E-01 0.24938926E+03</pdfrwt>
<pdfrwt beam="2">  1       -2 0.33754788E-01 0.24938926E+03</pdfrwt>
<totfact> 0.51869663E+02</totfact>
</mgrwt>
</event>
<event>
 4    2  0.9414654E-001  0.2361644E+03  0.7546771E-02  0.1122375E+00
          1   -1    0    0  502    0  0.00000000000E+00  0.00000000000E+00  0.68281088890E+03  0.68281088890E+03  0.00000000000E+00 0. -1.
         -1   -1    0    0    0  501 -0.00000000000E+00 -0.00000000000E+00 -0.82226403346E+02  0.82226403346E+02  0.00000000000E+00 0.  1.
          6    1    1    2  502    0  0.15800534535E+03 -0.29646665795E+02  0.26917806082E+03  0.35809278459E+03  0.17300000000E+03 0.  1.
         -6    1    1    2    0  501 -0.15800534535E+03  0.29646665795E+02  0.33140642474E+03  0.40694450766E+03  0.17300000000E+03 0. -1.
<mgrwt>
<rscale>  2 0.23616438E+03</rscale>
<asrwt>0</asrwt>
<pdfrwt beam="1">  1        1 0.10504783E+00 0.23616438E+03</pdfrwt>
<pdfrwt beam="2">  1       -1 0.12650216E-01 0.23616438E+03</pdfrwt>
<totfact> 0.12326787E+03</totfact>
</mgrwt>
</event>
<event>
 4    2  0.9414654E-001  0.1764420E+03  0.7546771E-02  0.1171292E+00
          2   -1    0    0  502    0  0.00000000000E+00  0.00000000000E+00  0.10459419545E+04  0.10459419545E+04  0.00000000000E+00 0. -1.
         -2   -1    0    0    0  501 -0.00000000000E+00 -0.00000000000E+00 -0.31118831244E+02  0.31118831244E+02  0.00000000000E+00 0.  1.
          6    1    1    2  502    0  0.30401981869E+02  0.16688150537E+02  0.61976496540E+03  0.64439148598E+03  0.17300000000E+03 0. -1.
         -6    1    1    2    0  501 -0.30401981869E+02 -0.16688150537E+02  0.39505815790E+03  0.43266929980E+03  0.17300000000E+03 0.  1.
<mgrwt>
<rscale>  2 0.17644199E+03</rscale>
<asrwt>0</asrwt>
<pdfrwt beam="1">  1        2 0.16091412E+00 0.17644199E+03</pdfrwt>
<pdfrwt beam="2">  1       -2 0.47875133E-02 0.17644199E+03</pdfrwt>
<totfact> 0.50764525E+03</totfact>
</mgrwt>
</event>
<event>
 4    2  0.9414654E-001  0.1815678E+03  0.7546771E-02  0.1166294E+00
          2   -1    0    0  502    0  0.00000000000E+00  0.00000000000E+00  0.59242559363E+03  0.59242559363E+03  0.00000000000E+00 0.  1.
         -2   -1    0    0    0  501 -0.00000000000E+00 -0.00000000000E+00 -0.89665860239E+02  0.89665860239E+02  0.00000000000E+00 0. -1.
          6    1    1    2  502    0  0.55055260553E+02 -0.26047761105E+01  0.46144656671E+03  0.49588284957E+03  0.17300000000E+03 0.  1.
         -6    1    1    2    0  501 -0.55055260553E+02  0.26047761105E+01  0.41313166683E+02  0.18620860430E+03  0.17300000000E+03 0. -1.
<mgrwt>
<rscale>  2 0.18156780E+03</rscale>
<asrwt>0</asrwt>
<pdfrwt beam="1">  1        2 0.91142397E-01 0.18156780E+03</pdfrwt>
<pdfrwt beam="2">  1       -2 0.13794748E-01 0.18156780E+03</pdfrwt>
<totfact> 0.19964362E+03</totfact>
</mgrwt>
</event>
<event>
 4    2  0.9414654E-001  0.1748352E+03  0.7546771E-02  0.1172897E+00
          1   -1    0    0  502    0  0.00000000000E+00  0.00000000000E+00  0.40721840180E+03  0.40721840180E+03  0.00000000000E+00 0. -1.
         -1   -1    0    0    0  501 -0.00000000000E+00 -0.00000000000E+00 -0.20123083840E+03  0.20123083840E+03  0.00000000000E+00 0.  1.
          6    1    1    2  502    0  0.25153479848E+02 -0.23795914440E+01 -0.13789692533E+03  0.22267223001E+03  0.17300000000E+03 0.  1.
         -6    1    1    2    0  501 -0.25153479848E+02  0.23795914440E+01  0.34388448872E+03  0.38577701019E+03  0.17300000000E+03 0. -1.
<mgrwt>
<rscale>  2 0.17483524E+03</rscale>
<asrwt>0</asrwt>
<pdfrwt beam="1">  1        1 0.62648985E-01 0.17483524E+03</pdfrwt>
<pdfrwt beam="2">  1       -1 0.30958591E-01 0.17483524E+03</pdfrwt>
<totfact> 0.57707813E+02</totfact>
</mgrwt>
</event>
<event>
 4    2  0.9414654E-001  0.2859861E+03  0.7546771E-02  0.1092464E+00
          2   -1    0    0  502    0  0.00000000000E+00  0.00000000000E+00  0.16277341138E+03  0.16277341138E+03  0.00000000000E+00 0. -1.
         -2   -1    0    0    0  501 -0.00000000000E+00 -0.00000000000E+00 -0.67464864760E+03  0.67464864760E+03  0.00000000000E+00 0.  1.
          6    1    1    2  502    0  0.16435641698E+03 -0.15762628318E+03 -0.44408342822E+02  0.28941350670E+03  0.17300000000E+03 0. -1.
         -6    1    1    2    0  501 -0.16435641698E+03  0.15762628318E+03 -0.46746689339E+03  0.54800855228E+03  0.17300000000E+03 0. -1.
<mgrwt>
<rscale>  2 0.28598615E+03</rscale>
<asrwt>0</asrwt>
<pdfrwt beam="1">  1        2 0.25042064E-01 0.28598615E+03</pdfrwt>
<pdfrwt beam="2">  1       -2 0.10379210E+00 0.28598615E+03</pdfrwt>
<totfact> 0.16948918E+02</totfact>
</mgrwt>
</event>
<event>
 4    2  0.9414654E-001  0.1907392E+03  0.7546771E-02  0.1157796E+00
         -1   -1    0    0    0  501 -0.00000000000E+00  0.00000000000E+00  0.12180777664E+03  0.12180777664E+03  0.00000000000E+00 0.  1.
          1   -1    0    0  502    0  0.00000000000E+00 -0.00000000000E+00 -0.36387032346E+03  0.36387032346E+03  0.00000000000E+00 0. -1.
          6    1    1    2  502    0 -0.79741098583E+02  0.96859484152E+01 -0.22381849703E+03  0.29406832542E+03  0.17300000000E+03 0. -1.
         -6    1    1    2    0  501  0.79741098583E+02 -0.96859484152E+01 -0.18244049792E+02  0.19160977468E+03  0.17300000000E+03 0.  1.
<mgrwt>
<rscale>  2 0.19073925E+03</rscale>
<asrwt>0</asrwt>
<pdfrwt beam="1">  1        1 0.55980049E-01 0.19073925E+03</pdfrwt>
<pdfrwt beam="2">  1       -1 0.18739658E-01 0.19073925E+03</pdfrwt>
<totfact> 0.15250802E+03</totfact>
</mgrwt>
</event>
<event>
 4    2  0.9414654E-001  0.2108197E+03  0.7546771E-02  0.1140918E+00
          2   -1    0    0  502    0  0.00000000000E+00  0.00000000000E+00  0.72360145207E+03  0.72360145207E+03  0.00000000000E+00 0.  1.
         -2   -1    0    0    0  501 -0.00000000000E+00 -0.00000000000E+00 -0.62295392442E+02  0.62295392442E+02  0.00000000000E+00 0. -1.
          6    1    1    2  502    0 -0.12009897303E+03  0.96019467648E+01  0.28412202545E+03  0.35379412948E+03  0.17300000000E+03 0. -1.
         -6    1    1    2    0  501  0.12009897303E+03 -0.96019467648E+01  0.37718403417E+03  0.43210271503E+03  0.17300000000E+03 0.  1.
<mgrwt>
<rscale>  2 0.21081974E+03</rscale>
<asrwt>0</asrwt>
<pdfrwt beam="1">  1        2 0.11132329E+00 0.21081974E+03</pdfrwt>
<pdfrwt beam="2">  1       -2 0.95839070E-02 0.21081974E+03</pdfrwt>
<totfact> 0.28371083E+03</totfact>
</mgrwt>
</event>
<event>
 4    2  0.9414654E-001  0.2122459E+03  0.7546771E-02  0.1139800E+00
         -2   -1    0    0    0  501 -0.00000000000E+00  0.00000000000E+00  0.95814838837E+02  0.95814838837E+02  0.00000000000E+00 0. -1.
          2   -1    0    0  502    0  0.00000000000E+00 -0.00000000000E+00 -0.52738697001E+03  0.52738697001E+03  0.00000000000E+00 0.  1.
          6    1    1    2  502    0 -0.51500304645E+02 -0.11165595907E+03 -0.11314215214E+03  0.24051919085E+03  0.17300000000E+03 0.  1.
         -6    1    1    2    0  501  0.51500304645E+02  0.11165595907E+03 -0.31842997903E+03  0.38268261800E+03  0.17300000000E+03 0.  1.
<mgrwt>
<rscale>  2 0.21224593E+03</rscale>
<asrwt>0</asrwt>
<pdfrwt beam="1">  1        2 0.81136459E-01 0.21224593E+03</pdfrwt>
<pdfrwt beam="2">  1       -2 0.14740744E-01 0.21224593E+03</pdfrwt>
<totfact> 0.20507201E+03</totfact>
</mgrwt>
</event>
<event>
 4    2  0.9414654E-001  0.2475662E+03  0.7546771E-02  0.1114853E+00
         -2   -1    0    0    0  501 -0.00000000000E+00  0.00000000000E+00  0.15015811112E+04  0.15015811112E+04  0.00000000000E+00 0. -1.
          2   -1    0    0  502    0  0.00000000000E+00 -0.00000000000E+00 -0.75375338723E+02  0.75375338723E+02  0.00000000000E+00 0.  1.
          6    1    1    2  502    0 -0.17701320623E+03 -0.51312558952E+01  0.12469978321E+04  0.12713349669E+04  0.17300000000E+03 0. -1.
         -6    1    1    2    0  501  0.17701320623E+03  0.51312558952E+01  0.17920794044E+03  0.30562148302E+03  0.17300000000E+03 0. -1.
<mgrwt>
<rscale>  2 0.24756616E+03</rscale>
<asrwt>0</asrwt>
<pdfrwt beam="1">  1        2 0.11596207E-01 0.24756616E+03</pdfrwt>
<pdfrwt beam="2">  1       -2 0.23101246E+00 0.24756616E+03</pdfrwt>
<totfact> 0.49729623E+01</totfact>
</mgrwt>
</event>
<event>
 4    2  0.9414654E-001  0.3377432E+03  0.7546771E-02  0.1067761E+00
          3   -1    0    0  502    0  0.00000000000E+00  0.00000000000E+00  0.46848652118E+03  0.46848652118E+03  0.00000000000E+00 0.  1.
         -3   -1    0    0    0  501 -0.00000000000E+00 -0.00000000000E+00 -0.46431708289E+03  0.46431708289E+03  0.00000000000E+00 0. -1.
          6    1    1    2  502    0 -0.29006331763E+03 -0.21749108519E+01 -0.31956400758E+03  0.46496409906E+03  0.17300000000E+03 0. -1.
         -6    1    1    2    0  501  0.29006331763E+03  0.21749108519E+01  0.32373344587E+03  0.46783950501E+03  0.17300000000E+03 0.  1.
<mgrwt>
<rscale>  2 0.33774318E+03</rscale>
<asrwt>0</asrwt>
<pdfrwt beam="1">  1        3 0.72074849E-01 0.33774318E+03</pdfrwt>
<pdfrwt beam="2">  1       -3 0.71433398E-01 0.33774318E+03</pdfrwt>
<totfact> 0.88569220E+00</totfact>
</mgrwt>
</event>
<event>
 4    2  0.9414654E-001  0.1949756E+03  0.7546771E-02  0.1154049E+00
          2   -1    0    0  502    0  0.00000000000E+00  0.00000000000E+00  0.84560608932E+03  0.84560608932E+03  0.00000000000E+00 0.  1.
         -2   -1    0    0    0  501 -0.00000000000E+00 -0.00000000000E+00 -0.56851737950E+02  0.56851737950E+02  0.00000000000E+00 0. -1.
          6    1    1    2  502    0 -0.75746054306E+02 -0.48466633523E+02  0.18797615112E+03  0.27083299780E+03  0.17300000000E+03 0. -1.
         -6    1    1    2    0  501  0.75746054306E+02  0.48466633523E+02  0.60077820025E+03  0.63162482947E+03  0.17300000000E+03 0.  1.
<mgrwt>
<rscale>  2 0.19497559E+03</rscale>
<asrwt>0</asrwt>
<pdfrwt beam="1">  1        2 0.13009324E+00 0.19497559E+03</pdfrwt>
<pdfrwt beam="2">  1       -2 0.87464219E-02 0.19497559E+03</pdfrwt>
<totfact> 0.26903059E+03</totfact>
</mgrwt>
</event>
<event>
 4    2  0.9414654E-001  0.1786942E+03  0.7546771E-02  0.1169073E+00
         -2   -1    0    0    0  501 -0.00000000000E+00  0.00000000000E+00  0.21961378329E+03  0.21961378329E+03  0.00000000000E+00 0.  1.
          2   -1    0    0  502    0  0.00000000000E+00 -0.00000000000E+00 -0.17710094845E+03  0.17710094845E+03  0.00000000000E+00 0. -1.
          6    1    1    2  502    0  0.35622139906E+02 -0.27086623293E+02 -0.62666571610E+02  0.18936399132E+03  0.17300000000E+03 0. -1.
         -6    1    1    2    0  501 -0.35622139906E+02  0.27086623293E+02  0.10517940645E+03  0.20735074042E+03  0.17300000000E+03 0.  1.
<mgrwt>
<rscale>  2 0.17869421E+03</rscale>
<asrwt>0</asrwt>
<pdfrwt beam="1">  1        2 0.27246300E-01 0.17869421E+03</pdfrwt>
<pdfrwt beam="2">  1       -2 0.33786736E-01 0.17869421E+03</pdfrwt>
<totfact> 0.15810643E+03</totfact>
</mgrwt>
</event>
<event>
 4    2  0.9414654E-001  0.1916147E+03  0.7546771E-02  0.1157013E+00
         -1   -1    0    0    0  501 -0.00000000000E+00  0.00000000000E+00  0.52193761483E+02  0.52193761483E+02  0.00000000000E+00 0. -1.
          1   -1    0    0  502    0  0.00000000000E+00 -0.00000000000E+00 -0.10664553650E+04  0.10664553650E+04  0.00000000000E+00 0.  1.
          6    1    1    2  502    0  0.58338411459E+02 -0.58170770067E+02 -0.18081112739E+03  0.26345563674E+03  0.17300000000E+03 0. -1.
         -6    1    1    2    0  501 -0.58338411459E+02  0.58170770067E+02 -0.83345047616E+03  0.85519348978E+03  0.17300000000E+03 0.  1.
<mgrwt>
<rscale>  2 0.19161474E+03</rscale>
<asrwt>0</asrwt>
<pdfrwt beam="1">  1        1 0.16407005E+00 0.19161474E+03</pdfrwt>
<pdfrwt beam="2">  1       -1 0.80298098E-02 0.19161474E+03</pdfrwt>
<totfact> 0.12246843E+03</totfact>
</mgrwt>
</event>
<event>
 4    2  0.9414654E-001  0.2062485E+03  0.7546771E-02  0.1144572E+00
         -1   -1    0    0    0  501 -0.00000000000E+00  0.00000000000E+00  0.11923241713E+03  0.11923241713E+03  0.00000000000E+00 0.  1.
          1   -1    0    0  502    0  0.00000000000E+00 -0.00000000000E+00 -0.41507569458E+03  0.41507569458E+03  0.00000000000E+00 0. -1.
          6    1    1    2  502    0  0.11021476173E+03 -0.21497350921E+02 -0.47793223023E+02  0.21171353751E+03  0.17300000000E+03 0. -1.
         -6    1    1    2    0  501 -0.11021476173E+03  0.21497350921E+02 -0.24805005443E+03  0.32259457420E+03  0.17300000000E+03 0.  1.
<mgrwt>
<rscale>  2 0.20624847E+03</rscale>
<asrwt>0</asrwt>
<pdfrwt beam="1">  1        1 0.63857799E-01 0.20624847E+03</pdfrwt>
<pdfrwt beam="2">  1       -1 0.18343449E-01 0.20624847E+03</pdfrwt>
<totfact> 0.13365505E+03</totfact>
</mgrwt>
</event>
<event>
 4    2  0.9414654E-001  0.1783340E+03  0.7546771E-02  0.1169425E+00
          2   -1    0    0  502    0  0.00000000000E+00  0.00000000000E+00  0.94774467613E+02  0.94774467613E+02  0.00000000000E+00 0.  1.
         -2   -1    0    0    0  501 -0.00000000000E+00 -0.00000000000E+00 -0.34436662750E+03  0.34436662750E+03  0.00000000000E+00 0. -1.
          6    1    1    2  502    0 -0.43208212600E+02  0.26550841799E+01 -0.89693116868E+02  0.19961927342E+03  0.17300000000E+03 0.  1.
         -6    1    1    2    0  501  0.43208212600E+02 -0.26550841799E+01 -0.15989904302E+03  0.23952182169E+03  0.17300000000E+03 0. -1.
<mgrwt>
<rscale>  2 0.17833395E+03</rscale>
<asrwt>0</asrwt>
<pdfrwt beam="1">  1        2 0.14580687E-01 0.17833395E+03</pdfrwt>
<pdfrwt beam="2">  1       -2 0.52979482E-01 0.17833395E+03</pdfrwt>
<totfact> 0.13575198E+03</totfact>
</mgrwt>
</event>
<event>
 4    2  0.9414654E-001  0.2442010E+03  0.7546771E-02  0.1117025E+00
          2   -1    0    0  502    0  0.00000000000E+00  0.00000000000E+00  0.21686706817E+04  0.21686706817E+04  0.00000000000E+00 0. -1.
         -2   -1    0    0    0  501 -0.00000000000E+00 -0.00000000000E+00 -0.36053186098E+02  0.36053186098E+02  0.00000000000E+00 0.  1.
          6    1    1    2  502    0 -0.22971192116E+02 -0.17081402995E+03  0.16032998492E+04  0.16217905274E+04  0.17300000000E+03 0. -1.
         -6    1    1    2    0  501  0.22971192116E+02  0.17081402995E+03  0.52931764642E+03  0.58293334037E+03  0.17300000000E+03 0.  1.
<mgrwt>
<rscale>  2 0.24420096E+03</rscale>
<asrwt>0</asrwt>
<pdfrwt beam="1">  1        2 0.33364154E+00 0.24420096E+03</pdfrwt>
<pdfrwt beam="2">  1       -2 0.55466457E-02 0.24420096E+03</pdfrwt>
<totfact> 0.10143794E+03</totfact>
</mgrwt>
</event>
<event>
 4    2  0.9414654E-001  0.2029271E+03  0.7546771E-02  0.1147293E+00
         -1   -1    0    0    0  501 -0.00000000000E+00  0.00000000000E+00  0.25403669295E+03  0.25403669295E+03  0.00000000000E+00 0. -1.
          1   -1    0    0  502    0  0.00000000000E+00 -0.00000000000E+00 -0.25194827583E+03  0.25194827583E+03  0.00000000000E+00 0.  1.
          6    1    1    2  502    0 -0.99815958257E+02 -0.35877235570E+02 -0.15003555207E+03  0.25236891338E+03  0.17300000000E+03 0.  1.
         -6    1    1    2    0  501  0.99815958257E+02  0.35877235570E+02  0.15212396920E+03  0.25361605541E+03  0.17300000000E+03 0. -1.
<mgrwt>
<rscale>  2 0.20292708E+03</rscale>
<asrwt>0</asrwt>
<pdfrwt beam="1">  1        1 0.38761273E-01 0.20292708E+03</pdfrwt>
<pdfrwt beam="2">  1       -1 0.39082568E-01 0.20292708E+03</pdfrwt>
<totfact> 0.70525414E+02</totfact>
</mgrwt>
</event>
<event>
 4    2  0.9414654E-001  0.1758308E+03  0.7546771E-02  0.1171900E+00
         -2   -1    0    0    0  501 -0.00000000000E+00  0.00000000000E+00  0.41952113679E+03  0.41952113679E+03  0.00000000000E+00 0. -1.
          2   -1    0    0  502    0  0.00000000000E+00 -0.00000000000E+00 -0.10068459879E+03  0.10068459879E+03  0.00000000000E+00 0.  1.
          6    1    1    2  502    0  0.31253740847E+02 -0.32676834864E+01  0.24750258818E+02  0.17756421200E+03  0.17300000000E+03 0.  1.
         -6    1    1    2    0  501 -0.31253740847E+02  0.32676834864E+01  0.29408627919E+03  0.34264152357E+03  0.17300000000E+03 0. -1.
<mgrwt>
<rscale>  2 0.17583081E+03</rscale>
<asrwt>0</asrwt>
<pdfrwt beam="1">  1        2 0.15489938E-01 0.17583081E+03</pdfrwt>
<pdfrwt beam="2">  1       -2 0.64541713E-01 0.17583081E+03</pdfrwt>
<totfact> 0.84250210E+02</totfact>
</mgrwt>
</event>
<event>
 4    2  0.9414654E-001  0.2448188E+03  0.7546771E-02  0.1116624E+00
          2   -1    0    0  502    0  0.00000000000E+00  0.00000000000E+00  0.11085924015E+04  0.11085924015E+04  0.00000000000E+00 0.  1.
         -2   -1    0    0    0  501 -0.00000000000E+00 -0.00000000000E+00 -0.55186527998E+02  0.55186527998E+02  0.00000000000E+00 0. -1.
          6    1    1    2  502    0 -0.45848276207E+02  0.16704847131E+03  0.60964840926E+03  0.65696836995E+03  0.17300000000E+03 0.  1.
         -6    1    1    2    0  501  0.45848276207E+02 -0.16704847131E+03  0.44375746421E+03  0.50681055951E+03  0.17300000000E+03 0. -1.
<mgrwt>
<rscale>  2 0.24481882E+03</rscale>
<asrwt>0</asrwt>
<pdfrwt beam="1">  1        2 0.17055266E+00 0.24481882E+03</pdfrwt>
<pdfrwt beam="2">  1       -2 0.84902359E-02 0.24481882E+03</pdfrwt>
<totfact> 0.19426819E+03</totfact>
</mgrwt>
</event>
<event>
 4    2  0.9414654E-001  0.3166571E+03  0.7546771E-02  0.1077198E+00
          2   -1    0    0  502    0  0.00000000000E+00  0.00000000000E+00  0.68160974562E+03  0.68160974562E+03  0.00000000000E+00 0. -1.
         -2   -1    0    0    0  501 -0.00000000000E+00 -0.00000000000E+00 -0.17180451950E+03  0.17180451950E+03  0.00000000000E+00 0.  1.
          6    1    1    2  502    0  0.26519015846E+03  0.41083540454E+01  0.93127485265E+02  0.33006730712E+03  0.17300000000E+03 0.  1.
         -6    1    1    2    0  501 -0.26519015846E+03 -0.41083540454E+01  0.41667774086E+03  0.52334695800E+03  0.17300000000E+03 0. -1.
<mgrwt>
<rscale>  2 0.31665707E+03</rscale>
<asrwt>0</asrwt>
<pdfrwt beam="1">  1        2 0.10486304E+00 0.31665707E+03</pdfrwt>
<pdfrwt beam="2">  1       -2 0.26431465E-01 0.31665707E+03</pdfrwt>
<totfact> 0.55917397E+02</totfact>
</mgrwt>
</event>
<event>
 4    2  0.9414654E-001  0.2331154E+03  0.7546771E-02  0.1124466E+00
          2   -1    0    0  502    0  0.00000000000E+00  0.00000000000E+00  0.49265559716E+03  0.49265559716E+03  0.00000000000E+00 0. -1.
         -2   -1    0    0    0  501 -0.00000000000E+00 -0.00000000000E+00 -0.11237105739E+03  0.11237105739E+03  0.00000000000E+00 0.  1.
          6    1    1    2  502    0 -0.14149986623E+03 -0.66268832971E+02  0.14913090307E+03  0.27673596914E+03  0.17300000000E+03 0.  1.
         -6    1    1    2    0  501  0.14149986623E+03  0.66268832971E+02  0.23115363669E+03  0.32829068541E+03  0.17300000000E+03 0.  1.
<mgrwt>
<rscale>  2 0.23311536E+03</rscale>
<asrwt>0</asrwt>
<pdfrwt beam="1">  1        2 0.75793168E-01 0.23311536E+03</pdfrwt>
<pdfrwt beam="2">  1       -2 0.17287855E-01 0.23311536E+03</pdfrwt>
<totfact> 0.17011813E+03</totfact>
</mgrwt>
</event>
<event>
 4    2  0.9414654E-001  0.1822410E+03  0.7546771E-02  0.1165652E+00
         -2   -1    0    0    0  501 -0.00000000000E+00  0.00000000000E+00  0.80818755663E+02  0.80818755663E+02  0.00000000000E+00 0.  1.
          2   -1    0    0  502    0  0.00000000000E+00 -0.00000000000E+00 -0.48956007840E+03  0.48956007840E+03  0.00000000000E+00 0. -1.
          6    1    1    2  502    0  0.49823559421E+02  0.28291310106E+02 -0.31865661144E+03  0.36708830180E+03  0.17300000000E+03 0. -1.
         -6    1    1    2    0  501 -0.49823559421E+02 -0.28291310106E+02 -0.90084711300E+02  0.20329053227E+03  0.17300000000E+03 0. -1.
<mgrwt>
<rscale>  2 0.18224101E+03</rscale>
<asrwt>0</asrwt>
<pdfrwt beam="1">  1        2 0.75316934E-01 0.18224101E+03</pdfrwt>
<pdfrwt beam="2">  1       -2 0.12433655E-01 0.18224101E+03</pdfrwt>
<totfact> 0.29286529E+03</totfact>
</mgrwt>
</event>
<event>
 4    2  0.9414654E-001  0.2225152E+03  0.7546771E-02  0.1132022E+00
          1   -1    0    0  502    0  0.00000000000E+00  0.00000000000E+00  0.69067126237E+03  0.69067126237E+03  0.00000000000E+00 0. -1.
         -1   -1    0    0    0  501 -0.00000000000E+00 -0.00000000000E+00 -0.73456728479E+02  0.73456728479E+02  0.00000000000E+00 0.  1.
          6    1    1    2  502    0 -0.12899736818E+03  0.54255816586E+02  0.36788889486E+03  0.42994796615E+03  0.17300000000E+03 0.  1.
         -6    1    1    2    0  501  0.12899736818E+03 -0.54255816586E+02  0.24932563903E+03  0.33418002470E+03  0.17300000000E+03 0. -1.
<mgrwt>
<rscale>  2 0.22251520E+03</rscale>
<asrwt>0</asrwt>
<pdfrwt beam="1">  1        1 0.10625711E+00 0.22251520E+03</pdfrwt>
<pdfrwt beam="2">  1       -1 0.11301036E-01 0.22251520E+03</pdfrwt>
<totfact> 0.14454839E+03</totfact>
</mgrwt>
</event>
<event>
 4    2  0.9414654E-001  0.1755921E+03  0.7546771E-02  0.1172138E+00
         -2   -1    0    0    0  501 -0.00000000000E+00  0.00000000000E+00  0.58079598102E+02  0.58079598102E+02  0.00000000000E+00 0. -1.
          2   -1    0    0  502    0  0.00000000000E+00 -0.00000000000E+00 -0.97491915418E+03  0.97491915418E+03  0.00000000000E+00 0.  1.
          6    1    1    2  502    0 -0.58476094414E+00  0.30054111236E+02 -0.80699946317E+03  0.82588178639E+03  0.17300000000E+03 0.  1.
         -6    1    1    2    0  501  0.58476094414E+00 -0.30054111236E+02 -0.10984009291E+03  0.20711696589E+03  0.17300000000E+03 0. -1.
<mgrwt>
<rscale>  2 0.17559212E+03</rscale>
<asrwt>0</asrwt>
<pdfrwt beam="1">  1        2 0.14998755E+00 0.17559212E+03</pdfrwt>
<pdfrwt beam="2">  1       -2 0.89353233E-02 0.17559212E+03</pdfrwt>
<totfact> 0.21491560E+03</totfact>
</mgrwt>
</event>
<event>
 4    2  0.9414654E-001  0.2292423E+03  0.7546771E-02  0.1127174E+00
         -2   -1    0    0    0  501 -0.00000000000E+00  0.00000000000E+00  0.59340475056E+02  0.59340475056E+02  0.00000000000E+00 0. -1.
          2   -1    0    0  502    0  0.00000000000E+00 -0.00000000000E+00 -0.15884263565E+04  0.15884263565E+04  0.00000000000E+00 0.  1.
          6    1    1    2  502    0  0.50954319682E+02  0.14151565149E+03 -0.13125747037E+04  0.13324430100E+04  0.17300000000E+03 0.  1.
         -6    1    1    2    0  501 -0.50954319682E+02 -0.14151565149E+03 -0.21651117779E+03  0.31532382153E+03  0.17300000000E+03 0. -1.
<mgrwt>
<rscale>  2 0.22924228E+03</rscale>
<asrwt>0</asrwt>
<pdfrwt beam="1">  1        2 0.24437327E+00 0.22924228E+03</pdfrwt>
<pdfrwt beam="2">  1       -2 0.91293043E-02 0.22924228E+03</pdfrwt>
<totfact> 0.94453098E+02</totfact>
</mgrwt>
</event>
<event>
 4    2  0.9414654E-001  0.1749046E+03  0.7546771E-02  0.1172828E+00
         -1   -1    0    0    0  501 -0.00000000000E+00  0.00000000000E+00  0.98445932243E+02  0.98445932243E+02  0.00000000000E+00 0.  1.
          1   -1    0    0  502    0  0.00000000000E+00 -0.00000000000E+00 -0.39590704067E+03  0.39590704067E+03  0.00000000000E+00 0. -1.
          6    1    1    2  502    0 -0.67560347481E+01 -0.24838935711E+02 -0.34091484849E+02  0.17819608882E+03  0.17300000000E+03 0.  1.
         -6    1    1    2    0  501  0.67560347481E+01  0.24838935711E+02 -0.26336962358E+03  0.31615688409E+03  0.17300000000E+03 0. -1.
<mgrwt>
<rscale>  2 0.17490459E+03</rscale>
<asrwt>0</asrwt>
<pdfrwt beam="1">  1        1 0.60908775E-01 0.17490459E+03</pdfrwt>
<pdfrwt beam="2">  1       -1 0.15145528E-01 0.17490459E+03</pdfrwt>
<totfact> 0.19200763E+03</totfact>
</mgrwt>
</event>
<event>
 4    2  0.9414654E-001  0.1754422E+03  0.7546771E-02  0.1172288E+00
         -3   -1    0    0    0  501 -0.00000000000E+00  0.00000000000E+00  0.43955856592E+02  0.43955856592E+02  0.00000000000E+00 0. -1.
          3   -1    0    0  502    0  0.00000000000E+00 -0.00000000000E+00 -0.78060871970E+03  0.78060871970E+03  0.00000000000E+00 0.  1.
          6    1    1    2  502    0  0.28336701220E+02  0.69269318301E+01 -0.23604376546E+03  0.29410306056E+03  0.17300000000E+03 0. -1.
         -6    1    1    2    0  501 -0.28336701220E+02 -0.69269318301E+01 -0.50060909765E+03  0.53046151573E+03  0.17300000000E+03 0.  1.
<mgrwt>
<rscale>  2 0.17544216E+03</rscale>
<asrwt>0</asrwt>
<pdfrwt beam="1">  1        3 0.12009365E+00 0.17544216E+03</pdfrwt>
<pdfrwt beam="2">  1       -3 0.67624393E-02 0.17544216E+03</pdfrwt>
<totfact> 0.20005874E+02</totfact>
</mgrwt>
</event>
<event>
 4    2  0.9414654E-001  0.2194095E+03  0.7546771E-02  0.1134324E+00
          1   -1    0    0  502    0  0.00000000000E+00  0.00000000000E+00  0.34846857432E+03  0.34846857432E+03  0.00000000000E+00 0. -1.
         -1   -1    0    0    0  501 -0.00000000000E+00 -0.00000000000E+00 -0.13861883788E+03  0.13861883788E+03  0.00000000000E+00 0.  1.
          6    1    1    2  502    0 -0.69723801032E+02 -0.11554276862E+03  0.11910563858E+03  0.24965314529E+03  0.17300000000E+03 0.  1.
         -6    1    1    2    0  501  0.69723801032E+02  0.11554276862E+03  0.90744097859E+02  0.23743426692E+03  0.17300000000E+03 0. -1.
<mgrwt>
<rscale>  2 0.21940953E+03</rscale>
<asrwt>0</asrwt>
<pdfrwt beam="1">  1        1 0.53610550E-01 0.21940953E+03</pdfrwt>
<pdfrwt beam="2">  1       -1 0.21325975E-01 0.21940953E+03</pdfrwt>
<totfact> 0.13092831E+03</totfact>
</mgrwt>
</event>
<event>
 4    2  0.9414654E-001  0.1744946E+03  0.7546771E-02  0.1173240E+00
          2   -1    0    0  502    0  0.00000000000E+00  0.00000000000E+00  0.79497295800E+03  0.79497295800E+03  0.00000000000E+00 0. -1.
         -2   -1    0    0    0  501 -0.00000000000E+00 -0.00000000000E+00 -0.54512211446E+02  0.54512211446E+02  0.00000000000E+00 0.  1.
          6    1    1    2  502    0  0.13546048933E+02  0.18326874330E+02  0.13860572198E+03  0.22284504915E+03  0.17300000000E+03 0.  1.
         -6    1    1    2    0  501 -0.13546048933E+02 -0.18326874330E+02  0.60185502457E+03  0.62664012030E+03  0.17300000000E+03 0. -1.
<mgrwt>
<rscale>  2 0.17449461E+03</rscale>
<asrwt>0</asrwt>
<pdfrwt beam="1">  1        2 0.12230352E+00 0.17449461E+03</pdfrwt>
<pdfrwt beam="2">  1       -2 0.83864947E-02 0.17449461E+03</pdfrwt>
<totfact> 0.30995309E+03</totfact>
</mgrwt>
</event>
<event>
 4    2  0.9414654E-001  0.1952113E+03  0.7546771E-02  0.1153843E+00
         -2   -1    0    0    0  501 -0.00000000000E+00  0.00000000000E+00  0.83448046396E+02  0.83448046396E+02  0.00000000000E+00 0.  1.
          2   -1    0    0  502    0  0.00000000000E+00 -0.00000000000E+00 -0.46789617782E+03  0.46789617782E+03  0.00000000000E+00 0. -1.
          6    1    1    2  502    0  0.88834092530E+02 -0.16939890456E+02 -0.14950606297E+03  0.24588517391E+03  0.17300000000E+03 0.  1.
         -6    1    1    2    0  501 -0.88834092530E+02  0.16939890456E+02 -0.23494206845E+03  0.30545905031E+03  0.17300000000E+03 0. -1.
<mgrwt>
<rscale>  2 0.19521131E+03</rscale>
<asrwt>0</asrwt>
<pdfrwt beam="1">  1        2 0.71984026E-01 0.19521131E+03</pdfrwt>
<pdfrwt beam="2">  1       -2 0.12838161E-01 0.19521131E+03</pdfrwt>
<totfact> 0.29301638E+03</totfact>
</mgrwt>
</event>
<event>
 4    2  0.9414654E-001  0.1869913E+03  0.7546771E-02  0.1161203E+00
          2   -1    0    0  502    0  0.00000000000E+00  0.00000000000E+00  0.14837662363E+03  0.14837662363E+03  0.00000000000E+00 0.  1.
         -2   -1    0    0    0  501 -0.00000000000E+00 -0.00000000000E+00 -0.43243480243E+03  0.43243480243E+03  0.00000000000E+00 0. -1.
          6    1    1    2  502    0 -0.69988784546E+02  0.11760683153E+02  0.53871039498E+02  0.19459658920E+03  0.17300000000E+03 0.  1.
         -6    1    1    2    0  501  0.69988784546E+02 -0.11760683153E+02 -0.33792921830E+03  0.38621483686E+03  0.17300000000E+03 0. -1.
<mgrwt>
<rscale>  2 0.18699129E+03</rscale>
<asrwt>0</asrwt>
<pdfrwt beam="1">  1        2 0.22827173E-01 0.18699129E+03</pdfrwt>
<pdfrwt beam="2">  1       -2 0.66528430E-01 0.18699129E+03</pdfrwt>
<totfact> 0.50689424E+02</totfact>
</mgrwt>
</event>
<event>
 4    2  0.9414654E-001  0.2222488E+03  0.7546771E-02  0.1132217E+00
         -4   -1    0    0    0  501 -0.00000000000E+00  0.00000000000E+00  0.89886922985E+03  0.89886922985E+03  0.00000000000E+00 0. -1.
          4   -1    0    0  502    0  0.00000000000E+00 -0.00000000000E+00 -0.56494986211E+02  0.56494986211E+02  0.00000000000E+00 0.  1.
          6    1    1    2  502    0  0.13947837357E+03 -0.33663751385E+01  0.34224065560E+03  0.40807256159E+03  0.17300000000E+03 0. -1.
         -6    1    1    2    0  501 -0.13947837357E+03  0.33663751385E+01  0.50013358804E+03  0.54729165448E+03  0.17300000000E+03 0.  1.
<mgrwt>
<rscale>  2 0.22224885E+03</rscale>
<asrwt>0</asrwt>
<pdfrwt beam="1">  1        4 0.86915370E-02 0.22224885E+03</pdfrwt>
<pdfrwt beam="2">  1       -4 0.13828756E+00 0.22224885E+03</pdfrwt>
<totfact> 0.67576250E+01</totfact>
</mgrwt>
</event>
<event>
 4    2  0.9414654E-001  0.2423507E+03  0.7546771E-02  0.1118237E+00
         -4   -1    0    0    0  501 -0.00000000000E+00  0.00000000000E+00  0.71347767399E+03  0.71347767399E+03  0.00000000000E+00 0.  1.
          4   -1    0    0  502    0  0.00000000000E+00 -0.00000000000E+00 -0.11495857441E+03  0.11495857441E+03  0.00000000000E+00 0. -1.
          6    1    1    2  502    0 -0.11156276568E+03 -0.12790088085E+03  0.78550451052E+02  0.25476275114E+03  0.17300000000E+03 0. -1.
         -6    1    1    2    0  501  0.11156276568E+03  0.12790088085E+03  0.51996864853E+03  0.57367349726E+03  0.17300000000E+03 0.  1.
<mgrwt>
<rscale>  2 0.24235075E+03</rscale>
<asrwt>0</asrwt>
<pdfrwt beam="1">  1        4 0.17685935E-01 0.24235075E+03</pdfrwt>
<pdfrwt beam="2">  1       -4 0.10976579E+00 0.24235075E+03</pdfrwt>
<totfact> 0.35015448E+01</totfact>
</mgrwt>
</event>
<event>
 4    2  0.9414654E-001  0.2963854E+03  0.7546771E-02  0.1087062E+00
         -1   -1    0    0    0  501 -0.00000000000E+00  0.00000000000E+00  0.43685683750E+03  0.43685683750E+03  0.00000000000E+00 0. -1.
          1   -1    0    0  502    0  0.00000000000E+00 -0.00000000000E+00 -0.20466121830E+03  0.20466121830E+03  0.00000000000E+00 0.  1.
          6    1    1    2  502    0 -0.10328683641E+03 -0.21736409183E+03  0.73683014585E+02  0.30540711457E+03  0.17300000000E+03 0.  1.
         -6    1    1    2    0  501  0.10328683641E+03  0.21736409183E+03  0.15851260461E+03  0.33611094123E+03  0.17300000000E+03 0.  1.
<mgrwt>
<rscale>  2 0.29638542E+03</rscale>
<asrwt>0</asrwt>
<pdfrwt beam="1">  1        1 0.31486341E-01 0.29638542E+03</pdfrwt>
<pdfrwt beam="2">  1       -1 0.67208744E-01 0.29638542E+03</pdfrwt>
<totfact> 0.33255916E+02</totfact>
</mgrwt>
</event>
<event>
 4    2  0.9414654E-001  0.1786324E+03  0.7546771E-02  0.1169133E+00
          1   -1    0    0  502    0  0.00000000000E+00  0.00000000000E+00  0.18533909062E+03  0.18533909062E+03  0.00000000000E+00 0. -1.
         -1   -1    0    0    0  501 -0.00000000000E+00 -0.00000000000E+00 -0.18569823019E+03  0.18569823019E+03  0.00000000000E+00 0.  1.
          6    1    1    2  502    0  0.42933220597E+02  0.11716253318E+02  0.49896486778E+02  0.18547019010E+03  0.17300000000E+03 0. -1.
         -6    1    1    2    0  501 -0.42933220597E+02 -0.11716253318E+02 -0.50255626347E+02  0.18556713072E+03  0.17300000000E+03 0.  1.
<mgrwt>
<rscale>  2 0.17863239E+03</rscale>
<asrwt>0</asrwt>
<pdfrwt beam="1">  1        1 0.28513706E-01 0.17863239E+03</pdfrwt>
<pdfrwt beam="2">  1       -1 0.28568958E-01 0.17863239E+03</pdfrwt>
<totfact> 0.17722285E+03</totfact>
</mgrwt>
</event>
<event>
 4    2  0.9414654E-001  0.1750400E+03  0.7546771E-02  0.1172692E+00
         -2   -1    0    0    0  501 -0.00000000000E+00  0.00000000000E+00  0.22651780788E+02  0.22651780788E+02  0.00000000000E+00 0. -1.
          2   -1    0    0  502    0  0.00000000000E+00 -0.00000000000E+00 -0.13559219982E+04  0.13559219982E+04  0.00000000000E+00 0.  1.
          6    1    1    2  502    0  0.20833943894E+02 -0.16611308106E+02 -0.63256032160E+03  0.65633188955E+03  0.17300000000E+03 0.  1.
         -6    1    1    2    0  501 -0.20833943894E+02  0.16611308106E+02 -0.70070989586E+03  0.72224188949E+03  0.17300000000E+03 0. -1.
<mgrwt>
<rscale>  2 0.17503996E+03</rscale>
<asrwt>0</asrwt>
<pdfrwt beam="1">  1        2 0.20860353E+00 0.17503996E+03</pdfrwt>
<pdfrwt beam="2">  1       -2 0.34848869E-02 0.17503996E+03</pdfrwt>
<totfact> 0.54688067E+03</totfact>
</mgrwt>
</event>
<event>
 4    2  0.9414654E-001  0.1784994E+03  0.7546771E-02  0.1169263E+00
          2   -1    0    0  502    0  0.00000000000E+00  0.00000000000E+00  0.23087917931E+04  0.23087917931E+04  0.00000000000E+00 0.  1.
         -2   -1    0    0    0  501 -0.00000000000E+00 -0.00000000000E+00 -0.15130790288E+02  0.15130790288E+02  0.00000000000E+00 0. -1.
          6    1    1    2  502    0  0.22629142357E+01  0.43908141289E+02  0.80227050676E+03  0.82188807734E+03  0.17300000000E+03 0. -1.
         -6    1    1    2    0  501 -0.22629142357E+01 -0.43908141289E+02  0.14913904960E+04  0.15020345060E+04  0.17300000000E+03 0.  1.
<mgrwt>
<rscale>  2 0.17849943E+03</rscale>
<asrwt>0</asrwt>
<pdfrwt beam="1">  1        2 0.35519846E+00 0.17849943E+03</pdfrwt>
<pdfrwt beam="2">  1       -2 0.23278157E-02 0.17849943E+03</pdfrwt>
<totfact> 0.31579162E+03</totfact>
</mgrwt>
</event>
<event>
 4    2  0.9414654E-001  0.1872599E+03  0.7546771E-02  0.1160956E+00
         -1   -1    0    0    0  501 -0.00000000000E+00  0.00000000000E+00  0.15696631381E+03  0.15696631381E+03  0.00000000000E+00 0.  1.
          1   -1    0    0  502    0  0.00000000000E+00 -0.00000000000E+00 -0.22566532327E+03  0.22566532327E+03  0.00000000000E+00 0. -1.
          6    1    1    2  502    0 -0.69632186240E+02 -0.16988771846E+02 -0.53518201305E+02  0.19475743272E+03  0.17300000000E+03 0.  1.
         -6    1    1    2    0  501  0.69632186240E+02  0.16988771846E+02 -0.15180808152E+02  0.18787420436E+03  0.17300000000E+03 0.  1.
<mgrwt>
<rscale>  2 0.18725987E+03</rscale>
<asrwt>0</asrwt>
<pdfrwt beam="1">  1        1 0.34717742E-01 0.18725987E+03</pdfrwt>
<pdfrwt beam="2">  1       -1 0.24148664E-01 0.18725987E+03</pdfrwt>
<totfact> 0.18344842E+03</totfact>
</mgrwt>
</event>
<event>
 4    2  0.9414654E-001  0.1773992E+03  0.7546771E-02  0.1170344E+00
         -2   -1    0    0    0  501 -0.00000000000E+00  0.00000000000E+00  0.11980867956E+03  0.11980867956E+03  0.00000000000E+00 0. -1.
          2   -1    0    0  502    0  0.00000000000E+00 -0.00000000000E+00 -0.26913108790E+03  0.26913108790E+03  0.00000000000E+00 0.  1.
          6    1    1    2  502    0 -0.38797699757E+02 -0.60191237833E+01 -0.10478615217E+03  0.20603550433E+03  0.17300000000E+03 0.  1.
         -6    1    1    2    0  501  0.38797699757E+02  0.60191237833E+01 -0.44536256166E+02  0.18290426313E+03  0.17300000000E+03 0. -1.
<mgrwt>
<rscale>  2 0.17739924E+03</rscale>
<asrwt>0</asrwt>
<pdfrwt beam="1">  1        2 0.41404782E-01 0.17739924E+03</pdfrwt>
<pdfrwt beam="2">  1       -2 0.18432105E-01 0.17739924E+03</pdfrwt>
<totfact> 0.29162363E+03</totfact>
</mgrwt>
</event>
<event>
 4    2  0.9414654E-001  0.1971583E+03  0.7546771E-02  0.1152159E+00
          4   -1    0    0  502    0  0.00000000000E+00  0.00000000000E+00  0.47062026945E+03  0.47062026945E+03  0.00000000000E+00 0.  1.
         -4   -1    0    0    0  501 -0.00000000000E+00 -0.00000000000E+00 -0.82816905040E+02  0.82816905040E+02  0.00000000000E+00 0. -1.
          6    1    1    2  502    0 -0.25093153874E+01  0.94531014879E+02  0.17961402007E+03  0.26670696587E+03  0.17300000000E+03 0.  1.
         -6    1    1    2    0  501  0.25093153874E+01 -0.94531014879E+02  0.20818934433E+03  0.28673020861E+03  0.17300000000E+03 0. -1.
<mgrwt>
<rscale>  2 0.19715834E+03</rscale>
<asrwt>0</asrwt>
<pdfrwt beam="1">  1        4 0.72403117E-01 0.19715834E+03</pdfrwt>
<pdfrwt beam="2">  1       -4 0.12741063E-01 0.19715834E+03</pdfrwt>
<totfact> 0.15747954E+02</totfact>
</mgrwt>
</event>
<event>
 4    2  0.9414654E-001  0.1791305E+03  0.7546771E-02  0.1168647E+00
         -2   -1    0    0    0  501 -0.00000000000E+00  0.00000000000E+00  0.24099348373E+02  0.24099348373E+02  0.00000000000E+00 0. -1.
          2   -1    0    0  502    0  0.00000000000E+00 -0.00000000000E+00 -0.14456445830E+04  0.14456445830E+04  0.00000000000E+00 0.  1.
          6    1    1    2  502    0 -0.32861427140E+02  0.32846023296E+02 -0.50425752370E+03  0.53512931601E+03  0.17300000000E+03 0. -1.
         -6    1    1    2    0  501  0.32861427140E+02 -0.32846023296E+02 -0.91728771091E+03  0.93461461535E+03  0.17300000000E+03 0.  1.
<mgrwt>
<rscale>  2 0.17913050E+03</rscale>
<asrwt>0</asrwt>
<pdfrwt beam="1">  1        2 0.22240682E+00 0.17913050E+03</pdfrwt>
<pdfrwt beam="2">  1       -2 0.37075928E-02 0.17913050E+03</pdfrwt>
<totfact> 0.44675250E+03</totfact>
</mgrwt>
</event>
<event>
 4    2  0.9414654E-001  0.4672968E+03  0.7546771E-02  0.1022686E+00
          2   -1    0    0  502    0  0.00000000000E+00  0.00000000000E+00  0.10852008070E+04  0.10852008070E+04  0.00000000000E+00 0.  1.
         -2   -1    0    0    0  501 -0.00000000000E+00 -0.00000000000E+00 -0.90187802189E+03  0.90187802189E+03  0.00000000000E+00 0. -1.
          6    1    1    2  502    0 -0.42933357104E+03 -0.64109188682E+02  0.96737807003E+03  0.10743307841E+04  0.17300000000E+03 0.  1.
         -6    1    1    2    0  501  0.42933357104E+03  0.64109188682E+02 -0.78405528496E+03  0.91274804474E+03  0.17300000000E+03 0. -1.
<mgrwt>
<rscale>  2 0.46729680E+03</rscale>
<asrwt>0</asrwt>
<pdfrwt beam="1">  1        2 0.16695397E+00 0.46729680E+03</pdfrwt>
<pdfrwt beam="2">  1       -2 0.13875047E+00 0.46729680E+03</pdfrwt>
<totfact> 0.87194972E+00</totfact>
</mgrwt>
</event>
<event>
 4    2  0.9414654E-001  0.4297817E+03  0.7546771E-02  0.1033929E+00
          1   -1    0    0  502    0  0.00000000000E+00  0.00000000000E+00  0.10458425913E+04  0.10458425913E+04  0.00000000000E+00 0.  1.
         -1   -1    0    0    0  501 -0.00000000000E+00 -0.00000000000E+00 -0.30708640363E+03  0.30708640363E+03  0.00000000000E+00 0. -1.
          6    1    1    2  502    0 -0.87289159106E+02 -0.38361947632E+03  0.81030955933E+03  0.91723164023E+03  0.17300000000E+03 0.  1.
         -6    1    1    2    0  501  0.87289159106E+02  0.38361947632E+03 -0.71553371642E+02  0.43569735471E+03  0.17300000000E+03 0. -1.
<mgrwt>
<rscale>  2 0.42978169E+03</rscale>
<asrwt>0</asrwt>
<pdfrwt beam="1">  1        1 0.16089886E+00 0.42978169E+03</pdfrwt>
<pdfrwt beam="2">  1       -1 0.47244063E-01 0.42978169E+03</pdfrwt>
<totfact> 0.66261392E+01</totfact>
</mgrwt>
</event>
<event>
 4    2  0.9414654E-001  0.5075943E+03  0.7546771E-02  0.1011815E+00
          1   -1    0    0  502    0  0.00000000000E+00  0.00000000000E+00  0.28560117933E+04  0.28560117933E+04  0.00000000000E+00 0. -1.
         -1   -1    0    0    0  501 -0.00000000000E+00 -0.00000000000E+00 -0.90307349935E+02  0.90307349935E+02  0.00000000000E+00 0.  1.
          6    1    1    2  502    0  0.46118848871E+03 -0.12258950016E+03  0.13354672263E+04  0.14286793623E+04  0.17300000000E+03 0. -1.
         -6    1    1    2    0  501 -0.46118848871E+03  0.12258950016E+03  0.14302372170E+04  0.15176397809E+04  0.17300000000E+03 0.  1.
<mgrwt>
<rscale>  2 0.50759433E+03</rscale>
<asrwt>0</asrwt>
<pdfrwt beam="1">  1        1 0.43938636E+00 0.50759433E+03</pdfrwt>
<pdfrwt beam="2">  1       -1 0.13893441E-01 0.50759433E+03</pdfrwt>
<totfact> 0.31077884E+01</totfact>
</mgrwt>
</event>
<event>
 4    2  0.9414654E-001  0.1802184E+03  0.7546771E-02  0.1167592E+00
         -2   -1    0    0    0  501 -0.00000000000E+00  0.00000000000E+00  0.12937858071E+03  0.12937858071E+03  0.00000000000E+00 0.  1.
          2   -1    0    0  502    0  0.00000000000E+00 -0.00000000000E+00 -0.43210527475E+03  0.43210527475E+03  0.00000000000E+00 0. -1.
          6    1    1    2  502    0 -0.41699059431E+02  0.28475378423E+02 -0.33309688638E+03  0.37872443075E+03  0.17300000000E+03 0. -1.
         -6    1    1    2    0  501  0.41699059431E+02 -0.28475378423E+02  0.30370192338E+02  0.18275942470E+03  0.17300000000E+03 0.  1.
<mgrwt>
<rscale>  2 0.18021836E+03</rscale>
<asrwt>0</asrwt>
<pdfrwt beam="1">  1        2 0.66477734E-01 0.18021836E+03</pdfrwt>
<pdfrwt beam="2">  1       -2 0.19904397E-01 0.18021836E+03</pdfrwt>
<totfact> 0.15410378E+03</totfact>
</mgrwt>
</event>
<event>
 4    2  0.9414654E-001  0.1993246E+03  0.7546771E-02  0.1150310E+00
         -2   -1    0    0    0  501 -0.00000000000E+00  0.00000000000E+00  0.18892073913E+03  0.18892073913E+03  0.00000000000E+00 0. -1.
          2   -1    0    0  502    0  0.00000000000E+00 -0.00000000000E+00 -0.36500696904E+03  0.36500696904E+03  0.00000000000E+00 0.  1.
          6    1    1    2  502    0 -0.22380417730E+02  0.96438676648E+02 -0.26835545455E+03  0.33428274176E+03  0.17300000000E+03 0.  1.
         -6    1    1    2    0  501  0.22380417730E+02 -0.96438676648E+02  0.92269224640E+02  0.21964496640E+03  0.17300000000E+03 0. -1.
<mgrwt>
<rscale>  2 0.19932461E+03</rscale>
<asrwt>0</asrwt>
<pdfrwt beam="1">  1        2 0.56154918E-01 0.19932461E+03</pdfrwt>
<pdfrwt beam="2">  1       -2 0.29064729E-01 0.19932461E+03</pdfrwt>
<totfact> 0.95509465E+02</totfact>
</mgrwt>
</event>
<event>
 4    2  0.9414654E-001  0.1733401E+03  0.7546771E-02  0.1174409E+00
         -1   -1    0    0    0  501 -0.00000000000E+00  0.00000000000E+00  0.18423355104E+03  0.18423355104E+03  0.00000000000E+00 0.  1.
          1   -1    0    0  502    0  0.00000000000E+00 -0.00000000000E+00 -0.16548759408E+03  0.16548759408E+03  0.00000000000E+00 0. -1.
          6    1    1    2  502    0 -0.45198570528E+01  0.98678489303E+01 -0.11670688834E+02  0.17373257762E+03  0.17300000000E+03 0. -1.
         -6    1    1    2    0  501  0.45198570528E+01 -0.98678489303E+01  0.30416645793E+02  0.17598856750E+03  0.17300000000E+03 0.  1.
<mgrwt>
<rscale>  2 0.17334014E+03</rscale>
<asrwt>0</asrwt>
<pdfrwt beam="1">  1        1 0.25459630E-01 0.17334014E+03</pdfrwt>
<pdfrwt beam="2">  1       -1 0.28343623E-01 0.17334014E+03</pdfrwt>
<totfact> 0.20694525E+03</totfact>
</mgrwt>
</event>
<event>
 4    2  0.9414654E-001  0.1885122E+03  0.7546771E-02  0.1159810E+00
          3   -1    0    0  502    0  0.00000000000E+00  0.00000000000E+00  0.21855413313E+03  0.21855413313E+03  0.00000000000E+00 0.  1.
         -3   -1    0    0    0  501 -0.00000000000E+00 -0.00000000000E+00 -0.18511964608E+03  0.18511964608E+03  0.00000000000E+00 0. -1.
          6    1    1    2  502    0  0.70000526294E+02  0.26604250540E+02  0.87114694234E+02  0.20766759444E+03  0.17300000000E+03 0.  1.
         -6    1    1    2    0  501 -0.70000526294E+02 -0.26604250540E+02 -0.53680207182E+02  0.19600618478E+03  0.17300000000E+03 0. -1.
<mgrwt>
<rscale>  2 0.18851223E+03</rscale>
<asrwt>0</asrwt>
<pdfrwt beam="1">  1        3 0.33623713E-01 0.18851223E+03</pdfrwt>
<pdfrwt beam="2">  1       -3 0.28479945E-01 0.18851223E+03</pdfrwt>
<totfact> 0.24864102E+02</totfact>
</mgrwt>
</event>
<event>
 4    2  0.9414654E-001  0.3308933E+03  0.7546771E-02  0.1070742E+00
         -1   -1    0    0    0  501 -0.00000000000E+00  0.00000000000E+00  0.20737635535E+04  0.20737635535E+04  0.00000000000E+00 0. -1.
          1   -1    0    0  502    0  0.00000000000E+00 -0.00000000000E+00 -0.54279217668E+02  0.54279217668E+02  0.00000000000E+00 0.  1.
          6    1    1    2  502    0  0.23138965059E+03 -0.16130788937E+03  0.83396822384E+03  0.89721424640E+03  0.17300000000E+03 0. -1.
         -6    1    1    2    0  501 -0.23138965059E+03  0.16130788937E+03  0.11855161120E+04  0.12308285247E+04  0.17300000000E+03 0.  1.
<mgrwt>
<rscale>  2 0.33089334E+03</rscale>
<asrwt>0</asrwt>
<pdfrwt beam="1">  1        1 0.83506505E-02 0.33089334E+03</pdfrwt>
<pdfrwt beam="2">  1       -1 0.31904048E+00 0.33089334E+03</pdfrwt>
<totfact> 0.23738948E+01</totfact>
</mgrwt>
</event>
<event>
 4    2  0.9414654E-001  0.3525283E+03  0.7546771E-02  0.1061582E+00
         -2   -1    0    0    0  501 -0.00000000000E+00  0.00000000000E+00  0.28117340910E+03  0.28117340910E+03  0.00000000000E+00 0.  1.
          2   -1    0    0  502    0  0.00000000000E+00 -0.00000000000E+00 -0.47375369452E+03  0.47375369452E+03  0.00000000000E+00 0. -1.
          6    1    1    2  502    0 -0.30652361659E+03 -0.19759547416E+02  0.14462141540E+01  0.35253121674E+03  0.17300000000E+03 0.  1.
         -6    1    1    2    0  501  0.30652361659E+03  0.19759547416E+02 -0.19402649957E+03  0.40239588688E+03  0.17300000000E+03 0. -1.
<mgrwt>
<rscale>  2 0.35252825E+03</rscale>
<asrwt>0</asrwt>
<pdfrwt beam="1">  1        2 0.72885183E-01 0.35252825E+03</pdfrwt>
<pdfrwt beam="2">  1       -2 0.43257448E-01 0.35252825E+03</pdfrwt>
<totfact> 0.33954223E+02</totfact>
</mgrwt>
</event>
<event>
 4    2  0.9414654E-001  0.1904933E+03  0.7546771E-02  0.1158017E+00
         -2   -1    0    0    0  501 -0.00000000000E+00  0.00000000000E+00  0.26988252583E+02  0.26988252583E+02  0.00000000000E+00 0.  1.
          2   -1    0    0  502    0  0.00000000000E+00 -0.00000000000E+00 -0.19792151637E+04  0.19792151637E+04  0.00000000000E+00 0. -1.
          6    1    1    2  502    0  0.76697720455E+02  0.21821129961E+02 -0.15441321022E+04  0.15558379257E+04  0.17300000000E+03 0. -1.
         -6    1    1    2    0  501 -0.76697720455E+02 -0.21821129961E+02 -0.40809480896E+03  0.45036549061E+03  0.17300000000E+03 0.  1.
<mgrwt>
<rscale>  2 0.19049331E+03</rscale>
<asrwt>0</asrwt>
<pdfrwt beam="1">  1        2 0.30449465E+00 0.19049331E+03</pdfrwt>
<pdfrwt beam="2">  1       -2 0.41520387E-02 0.19049331E+03</pdfrwt>
<totfact> 0.19889088E+03</totfact>
</mgrwt>
</event>
<event>
 4    2  0.9414654E-001  0.1976850E+03  0.7546771E-02  0.1151707E+00
          4   -1    0    0  502    0  0.00000000000E+00  0.00000000000E+00  0.20708383112E+03  0.20708383112E+03  0.00000000000E+00 0.  1.
         -4   -1    0    0    0  501 -0.00000000000E+00 -0.00000000000E+00 -0.19585893098E+03  0.19585893098E+03  0.00000000000E+00 0. -1.
          6    1    1    2  502    0 -0.95496346558E+02 -0.55511137593E+01 -0.32871312951E+02  0.20039932706E+03  0.17300000000E+03 0. -1.
         -6    1    1    2    0  501  0.95496346558E+02  0.55511137593E+01  0.44096213086E+02  0.20254343504E+03  0.17300000000E+03 0.  1.
<mgrwt>
<rscale>  2 0.19768502E+03</rscale>
<asrwt>0</asrwt>
<pdfrwt beam="1">  1        4 0.31859051E-01 0.19768502E+03</pdfrwt>
<pdfrwt beam="2">  1       -4 0.30132143E-01 0.19768502E+03</pdfrwt>
<totfact> 0.17735914E+02</totfact>
</mgrwt>
</event>
<event>
 4    2  0.9414654E-001  0.4827820E+03  0.7546771E-02  0.1018373E+00
          1   -1    0    0  502    0  0.00000000000E+00  0.00000000000E+00  0.65780432302E+03  0.65780432302E+03  0.00000000000E+00 0.  1.
         -1   -1    0    0    0  501 -0.00000000000E+00 -0.00000000000E+00 -0.10781434156E+04  0.10781434156E+04  0.00000000000E+00 0. -1.
          6    1    1    2  502    0  0.30661794202E+03  0.33035571644E+03 -0.92135409162E+03  0.10401787461E+04  0.17300000000E+03 0. -1.
         -6    1    1    2    0  501 -0.30661794202E+03 -0.33035571644E+03  0.50101499900E+03  0.69576899254E+03  0.17300000000E+03 0.  1.
<mgrwt>
<rscale>  2 0.48278200E+03</rscale>
<asrwt>0</asrwt>
<pdfrwt beam="1">  1        1 0.10120067E+00 0.48278200E+03</pdfrwt>
<pdfrwt beam="2">  1       -1 0.16586822E+00 0.48278200E+03</pdfrwt>
<totfact> 0.85261349E+00</totfact>
</mgrwt>
</event>
<event>
 4    2  0.9414654E-001  0.1942461E+03  0.7546771E-02  0.1154686E+00
         -2   -1    0    0    0  501 -0.00000000000E+00  0.00000000000E+00  0.22066960799E+02  0.22066960799E+02  0.00000000000E+00 0. -1.
          2   -1    0    0  502    0  0.00000000000E+00 -0.00000000000E+00 -0.18203209022E+04  0.18203209022E+04  0.00000000000E+00 0.  1.
          6    1    1    2  502    0  0.83628228435E+02  0.28440580158E+02 -0.11260452498E+04  0.11426764423E+04  0.17300000000E+03 0.  1.
         -6    1    1    2    0  501 -0.83628228435E+02 -0.28440580158E+02 -0.67220869158E+03  0.69971142068E+03  0.17300000000E+03 0. -1.
<mgrwt>
<rscale>  2 0.19424610E+03</rscale>
<asrwt>0</asrwt>
<pdfrwt beam="1">  1        2 0.28004936E+00 0.19424610E+03</pdfrwt>
<pdfrwt beam="2">  1       -2 0.33949171E-02 0.19424610E+03</pdfrwt>
<totfact> 0.32482070E+03</totfact>
</mgrwt>
</event>
<event>
 4    2  0.9414654E-001  0.1833573E+03  0.7546771E-02  0.1164593E+00
         -2   -1    0    0    0  501 -0.00000000000E+00  0.00000000000E+00  0.32092781418E+03  0.32092781418E+03  0.00000000000E+00 0.  1.
          2   -1    0    0  502    0  0.00000000000E+00 -0.00000000000E+00 -0.11561404089E+03  0.11561404089E+03  0.00000000000E+00 0. -1.
          6    1    1    2  502    0 -0.79069362231E+01  0.60235953253E+02  0.35773538947E+02  0.18681444214E+03  0.17300000000E+03 0. -1.
         -6    1    1    2    0  501  0.79069362231E+01 -0.60235953253E+02  0.16954023435E+03  0.24972741293E+03  0.17300000000E+03 0.  1.
<mgrwt>
<rscale>  2 0.18335727E+03</rscale>
<asrwt>0</asrwt>
<pdfrwt beam="1">  1        2 0.17786776E-01 0.18335727E+03</pdfrwt>
<pdfrwt beam="2">  1       -2 0.49373510E-01 0.18335727E+03</pdfrwt>
<totfact> 0.12396106E+03</totfact>
</mgrwt>
</event>
<event>
 4    2  0.9414654E-001  0.2110001E+03  0.7546771E-02  0.1140776E+00
          2   -1    0    0  502    0  0.00000000000E+00  0.00000000000E+00  0.15872183510E+03  0.15872183510E+03  0.00000000000E+00 0.  1.
         -2   -1    0    0    0  501 -0.00000000000E+00 -0.00000000000E+00 -0.29940766484E+03  0.29940766484E+03  0.00000000000E+00 0. -1.
          6    1    1    2  502    0 -0.64413925514E+02 -0.10219035005E+03 -0.12775258449E+02  0.21138644392E+03  0.17300000000E+03 0.  1.
         -6    1    1    2    0  501  0.64413925514E+02  0.10219035005E+03 -0.12791057129E+03  0.24674305601E+03  0.17300000000E+03 0. -1.
<mgrwt>
<rscale>  2 0.21100005E+03</rscale>
<asrwt>0</asrwt>
<pdfrwt beam="1">  1        2 0.24418744E-01 0.21100005E+03</pdfrwt>
<pdfrwt beam="2">  1       -2 0.46062718E-01 0.21100005E+03</pdfrwt>
<totfact> 0.99486342E+02</totfact>
</mgrwt>
</event>
<event>
 4    2  0.9414654E-001  0.2027150E+03  0.7546771E-02  0.1147468E+00
          1   -1    0    0  502    0  0.00000000000E+00  0.00000000000E+00  0.40540294050E+03  0.40540294050E+03  0.00000000000E+00 0.  1.
         -1   -1    0    0    0  501 -0.00000000000E+00 -0.00000000000E+00 -0.10253856070E+03  0.10253856070E+03  0.00000000000E+00 0. -1.
          6    1    1    2  502    0 -0.84582164958E+02 -0.63326389327E+02  0.17861081018E+03  0.27017623087E+03  0.17300000000E+03 0. -1.
         -6    1    1    2    0  501  0.84582164958E+02  0.63326389327E+02  0.12425356962E+03  0.23776527034E+03  0.17300000000E+03 0. -1.
<mgrwt>
<rscale>  2 0.20271501E+03</rscale>
<asrwt>0</asrwt>
<pdfrwt beam="1">  1        1 0.62369683E-01 0.20271501E+03</pdfrwt>
<pdfrwt beam="2">  1       -1 0.15775163E-01 0.20271501E+03</pdfrwt>
<totfact> 0.17526917E+03</totfact>
</mgrwt>
</event>
<event>
 4    2  0.9414654E-001  0.2058061E+03  0.7546771E-02  0.1144931E+00
          3   -1    0    0  502    0  0.00000000000E+00  0.00000000000E+00  0.33163185719E+03  0.33163185719E+03  0.00000000000E+00 0. -1.
         -3   -1    0    0    0  501 -0.00000000000E+00 -0.00000000000E+00 -0.14692935485E+03  0.14692935485E+03  0.00000000000E+00 0.  1.
          6    1    1    2  502    0  0.11108803552E+03 -0.93062320784E+01  0.17886894626E+03  0.27267243632E+03  0.17300000000E+03 0. -1.
         -6    1    1    2    0  501 -0.11108803552E+03  0.93062320784E+01  0.58335560856E+01  0.20588877572E+03  0.17300000000E+03 0.  1.
<mgrwt>
<rscale>  2 0.20580612E+03</rscale>
<asrwt>0</asrwt>
<pdfrwt beam="1">  1        3 0.51020286E-01 0.20580612E+03</pdfrwt>
<pdfrwt beam="2">  1       -3 0.22604516E-01 0.20580612E+03</pdfrwt>
<totfact> 0.16945635E+02</totfact>
</mgrwt>
</event>
<event>
 4    2  0.9414654E-001  0.2318983E+03  0.7546771E-02  0.1125311E+00
         -2   -1    0    0    0  501 -0.00000000000E+00  0.00000000000E+00  0.19718182923E+03  0.19718182923E+03  0.00000000000E+00 0.  1.
          2   -1    0    0  502    0  0.00000000000E+00 -0.00000000000E+00 -0.43348552400E+03  0.43348552400E+03  0.00000000000E+00 0. -1.
          6    1    1    2  502    0  0.15188779255E+03 -0.27891581076E+02  0.73878484879E+02  0.24338215290E+03  0.17300000000E+03 0.  1.
         -6    1    1    2    0  501 -0.15188779255E+03  0.27891581076E+02 -0.31018217965E+03  0.38728520033E+03  0.17300000000E+03 0. -1.
<mgrwt>
<rscale>  2 0.23189834E+03</rscale>
<asrwt>0</asrwt>
<pdfrwt beam="1">  1        2 0.66690080E-01 0.23189834E+03</pdfrwt>
<pdfrwt beam="2">  1       -2 0.30335667E-01 0.23189834E+03</pdfrwt>
<totfact> 0.73408854E+02</totfact>
</mgrwt>
</event>
<event>
 4    2  0.9414654E-001  0.2460443E+03  0.7546771E-02  0.1115831E+00
         -2   -1    0    0    0  501 -0.00000000000E+00  0.00000000000E+00  0.54215735120E+03  0.54215735120E+03  0.00000000000E+00 0.  1.
          2   -1    0    0  502    0  0.00000000000E+00 -0.00000000000E+00 -0.11189151070E+03  0.11189151070E+03  0.00000000000E+00 0. -1.
          6    1    1    2  502    0 -0.30381613108E+02 -0.17229561438E+03  0.22997675186E+03  0.33678944096E+03  0.17300000000E+03 0.  1.
         -6    1    1    2    0  501  0.30381613108E+02  0.17229561438E+03  0.20028908864E+03  0.31725942094E+03  0.17300000000E+03 0. -1.
<mgrwt>
<rscale>  2 0.24604435E+03</rscale>
<asrwt>0</asrwt>
<pdfrwt beam="1">  1        2 0.17214079E-01 0.24604435E+03</pdfrwt>
<pdfrwt beam="2">  1       -2 0.83408822E-01 0.24604435E+03</pdfrwt>
<totfact> 0.42999612E+02</totfact>
</mgrwt>
</event>
<event>
 4    2  0.9414654E-001  0.1746284E+03  0.7546771E-02  0.1173105E+00
         -1   -1    0    0    0  501 -0.00000000000E+00  0.00000000000E+00  0.25058787204E+02  0.25058787204E+02  0.00000000000E+00 0. -1.
          1   -1    0    0  502    0  0.00000000000E+00 -0.00000000000E+00 -0.12274310435E+04  0.12274310435E+04  0.00000000000E+00 0.  1.
          6    1    1    2  502    0  0.22834659169E+02 -0.66822786264E+01 -0.54329301369E+03  0.57066835660E+03  0.17300000000E+03 0.  1.
         -6    1    1    2    0  501 -0.22834659169E+02  0.66822786264E+01 -0.65907924260E+03  0.68182147409E+03  0.17300000000E+03 0.  1.
<mgrwt>
<rscale>  2 0.17462839E+03</rscale>
<asrwt>0</asrwt>
<pdfrwt beam="1">  1        1 0.18883555E+00 0.17462839E+03</pdfrwt>
<pdfrwt beam="2">  1       -1 0.38551980E-02 0.17462839E+03</pdfrwt>
<totfact> 0.28296070E+03</totfact>
</mgrwt>
</event>
<event>
 4    2  0.9414654E-001  0.1772599E+03  0.7546771E-02  0.1170482E+00
         -2   -1    0    0    0  501 -0.00000000000E+00  0.00000000000E+00  0.19417766199E+02  0.19417766199E+02  0.00000000000E+00 0. -1.
          2   -1    0    0  502    0  0.00000000000E+00 -0.00000000000E+00 -0.20077880415E+04  0.20077880415E+04  0.00000000000E+00 0.  1.
          6    1    1    2  502    0 -0.35164164908E+02  0.15985624304E+02 -0.14406978639E+04  0.14515617085E+04  0.17300000000E+03 0.  1.
         -6    1    1    2    0  501  0.35164164908E+02 -0.15985624304E+02 -0.54767241143E+03  0.57564409918E+03  0.17300000000E+03 0. -1.
<mgrwt>
<rscale>  2 0.17725986E+03</rscale>
<asrwt>0</asrwt>
<pdfrwt beam="1">  1        2 0.30889035E+00 0.17725986E+03</pdfrwt>
<pdfrwt beam="2">  1       -2 0.29873498E-02 0.17725986E+03</pdfrwt>
<totfact> 0.31408022E+03</totfact>
</mgrwt>
</event>
<event>
 4    2  0.9414654E-001  0.1819487E+03  0.7546771E-02  0.1165930E+00
          1   -1    0    0  502    0  0.00000000000E+00  0.00000000000E+00  0.86463519555E+03  0.86463519555E+03  0.00000000000E+00 0.  1.
         -1   -1    0    0    0  501 -0.00000000000E+00 -0.00000000000E+00 -0.53344349395E+02  0.53344349395E+02  0.00000000000E+00 0. -1.
          6    1    1    2  502    0 -0.26654747743E+02  0.49657525524E+02  0.64949130132E+03  0.67449558628E+03  0.17300000000E+03 0.  1.
         -6    1    1    2    0  501  0.26654747743E+02 -0.49657525524E+02  0.16179954483E+03  0.24348395866E+03  0.17300000000E+03 0. -1.
<mgrwt>
<rscale>  2 0.18194874E+03</rscale>
<asrwt>0</asrwt>
<pdfrwt beam="1">  1        1 0.13302079E+00 0.18194874E+03</pdfrwt>
<pdfrwt beam="2">  1       -1 0.82068236E-02 0.18194874E+03</pdfrwt>
<totfact> 0.16815314E+03</totfact>
</mgrwt>
</event>
<event>
 4    2  0.9414654E-001  0.1841967E+03  0.7546771E-02  0.1163802E+00
          2   -1    0    0  502    0  0.00000000000E+00  0.00000000000E+00  0.60062710156E+03  0.60062710156E+03  0.00000000000E+00 0.  1.
         -2   -1    0    0    0  501 -0.00000000000E+00 -0.00000000000E+00 -0.57349852257E+02  0.57349852257E+02  0.00000000000E+00 0. -1.
          6    1    1    2  502    0 -0.34856549677E+02  0.52767938974E+02  0.23131658129E+03  0.29569544335E+03  0.17300000000E+03 0. -1.
         -6    1    1    2    0  501  0.34856549677E+02 -0.52767938974E+02  0.31196066802E+03  0.36228151047E+03  0.17300000000E+03 0.  1.
<mgrwt>
<rscale>  2 0.18419673E+03</rscale>
<asrwt>0</asrwt>
<pdfrwt beam="1">  1        2 0.92404165E-01 0.18419673E+03</pdfrwt>
<pdfrwt beam="2">  1       -2 0.88230546E-02 0.18419673E+03</pdfrwt>
<totfact> 0.40131726E+03</totfact>
</mgrwt>
</event>
<event>
 4    2  0.9414654E-001  0.3208339E+03  0.7546771E-02  0.1075266E+00
          2   -1    0    0  502    0  0.00000000000E+00  0.00000000000E+00  0.33819940237E+03  0.33819940237E+03  0.00000000000E+00 0. -1.
         -2   -1    0    0    0  501 -0.00000000000E+00 -0.00000000000E+00 -0.32854637467E+03  0.32854637467E+03  0.00000000000E+00 0.  1.
          6    1    1    2  502    0  0.25138332092E+03 -0.99054515102E+02  0.95278332384E+02  0.33468243399E+03  0.17300000000E+03 0. -1.
         -6    1    1    2    0  501 -0.25138332092E+03  0.99054515102E+02 -0.85625304687E+02  0.33206334305E+03  0.17300000000E+03 0.  1.
<mgrwt>
<rscale>  2 0.32083387E+03</rscale>
<asrwt>0</asrwt>
<pdfrwt beam="1">  1        2 0.52030678E-01 0.32083387E+03</pdfrwt>
<pdfrwt beam="2">  1       -2 0.50545596E-01 0.32083387E+03</pdfrwt>
<totfact> 0.36213380E+02</totfact>
</mgrwt>
</event>
<event>
 4    2  0.9414654E-001  0.1770756E+03  0.7546771E-02  0.1170664E+00
         -2   -1    0    0    0  501 -0.00000000000E+00  0.00000000000E+00  0.48569393449E+02  0.48569393449E+02  0.00000000000E+00 0.  1.
          2   -1    0    0  502    0  0.00000000000E+00 -0.00000000000E+00 -0.64913525556E+03  0.64913525556E+03  0.00000000000E+00 0. -1.
          6    1    1    2  502    0 -0.35422613019E+02  0.13115060516E+02 -0.27449094118E+03  0.32665125611E+03  0.17300000000E+03 0.  1.
         -6    1    1    2    0  501  0.35422613019E+02 -0.13115060516E+02 -0.32607492093E+03  0.37105339290E+03  0.17300000000E+03 0. -1.
<mgrwt>
<rscale>  2 0.17707559E+03</rscale>
<asrwt>0</asrwt>
<pdfrwt beam="1">  1        2 0.99866961E-01 0.17707559E+03</pdfrwt>
<pdfrwt beam="2">  1       -2 0.74722145E-02 0.17707559E+03</pdfrwt>
<totfact> 0.47418724E+03</totfact>
</mgrwt>
</event>
<event>
 4    2  0.9414654E-001  0.1908914E+03  0.7546771E-02  0.1157660E+00
          1   -1    0    0  502    0  0.00000000000E+00  0.00000000000E+00  0.33268291399E+03  0.33268291399E+03  0.00000000000E+00 0. -1.
         -1   -1    0    0    0  501 -0.00000000000E+00 -0.00000000000E+00 -0.11189109198E+03  0.11189109198E+03  0.00000000000E+00 0.  1.
          6    1    1    2  502    0 -0.58979628213E+02 -0.55063028183E+02  0.78121473668E+02  0.20625832896E+03  0.17300000000E+03 0. -1.
         -6    1    1    2    0  501  0.58979628213E+02  0.55063028183E+02  0.14267034834E+03  0.23831567702E+03  0.17300000000E+03 0. -1.
<mgrwt>
<rscale>  2 0.19089142E+03</rscale>
<asrwt>0</asrwt>
<pdfrwt beam="1">  1        1 0.51181986E-01 0.19089142E+03</pdfrwt>
<pdfrwt beam="2">  1       -1 0.17214014E-01 0.19089142E+03</pdfrwt>
<totfact> 0.19565561E+03</totfact>
</mgrwt>
</event>
<event>
 4    2  0.9414654E-001  0.2239296E+03  0.7546771E-02  0.1130987E+00
          2   -1    0    0  502    0  0.00000000000E+00  0.00000000000E+00  0.40953603875E+03  0.40953603875E+03  0.00000000000E+00 0. -1.
         -2   -1    0    0    0  501 -0.00000000000E+00 -0.00000000000E+00 -0.26082413013E+03  0.26082413013E+03  0.00000000000E+00 0.  1.
          6    1    1    2  502    0 -0.13517947060E+03  0.44067696536E+02 -0.16978698935E+03  0.28101970199E+03  0.17300000000E+03 0.  1.
         -6    1    1    2    0  501  0.13517947060E+03 -0.44067696536E+02  0.31849889797E+03  0.38934046689E+03  0.17300000000E+03 0. -1.
<mgrwt>
<rscale>  2 0.22392957E+03</rscale>
<asrwt>0</asrwt>
<pdfrwt beam="1">  1        2 0.63005545E-01 0.22392957E+03</pdfrwt>
<pdfrwt beam="2">  1       -2 0.40126789E-01 0.22392957E+03</pdfrwt>
<totfact> 0.46361878E+02</totfact>
</mgrwt>
</event>
<event>
 4    2  0.9414654E-001  0.3351757E+03  0.7546771E-02  0.1068869E+00
          1   -1    0    0  502    0  0.00000000000E+00  0.00000000000E+00  0.10159513892E+04  0.10159513892E+04  0.00000000000E+00 0. -1.
         -1   -1    0    0    0  501 -0.00000000000E+00 -0.00000000000E+00 -0.11258773023E+03  0.11258773023E+03  0.00000000000E+00 0.  1.
          6    1    1    2  502    0  0.21592918544E+03  0.18917802199E+03  0.52705521483E+03  0.62460382372E+03  0.17300000000E+03 0. -1.
         -6    1    1    2    0  501 -0.21592918544E+03 -0.18917802199E+03  0.37630844415E+03  0.50393529571E+03  0.17300000000E+03 0.  1.
<mgrwt>
<rscale>  2 0.33517568E+03</rscale>
<asrwt>0</asrwt>
<pdfrwt beam="1">  1        1 0.15630021E+00 0.33517568E+03</pdfrwt>
<pdfrwt beam="2">  1       -1 0.17321190E-01 0.33517568E+03</pdfrwt>
<totfact> 0.39625234E+02</totfact>
</mgrwt>
</event>
<event>
 4    2  0.9414654E-001  0.2256236E+03  0.7546771E-02  0.1129759E+00
          2   -1    0    0  502    0  0.00000000000E+00  0.00000000000E+00  0.50904988568E+03  0.50904988568E+03  0.00000000000E+00 0.  1.
         -2   -1    0    0    0  501 -0.00000000000E+00 -0.00000000000E+00 -0.14717361672E+03  0.14717361672E+03  0.00000000000E+00 0. -1.
          6    1    1    2  502    0 -0.96229438910E+02 -0.10824463222E+03  0.36669599321E+03  0.43054843718E+03  0.17300000000E+03 0.  1.
         -6    1    1    2    0  501  0.96229438910E+02  0.10824463222E+03 -0.48197242495E+01  0.22567506522E+03  0.17300000000E+03 0. -1.
<mgrwt>
<rscale>  2 0.22562359E+03</rscale>
<asrwt>0</asrwt>
<pdfrwt beam="1">  1        2 0.78315366E-01 0.22562359E+03</pdfrwt>
<pdfrwt beam="2">  1       -2 0.22642095E-01 0.22562359E+03</pdfrwt>
<totfact> 0.10335462E+03</totfact>
</mgrwt>
</event>
<event>
 4    2  0.9414654E-001  0.1859722E+03  0.7546771E-02  0.1162145E+00
          1   -1    0    0  502    0  0.00000000000E+00  0.00000000000E+00  0.15135256582E+03  0.15135256582E+03  0.00000000000E+00 0. -1.
         -1   -1    0    0    0  501 -0.00000000000E+00 -0.00000000000E+00 -0.29212531803E+03  0.29212531803E+03  0.00000000000E+00 0.  1.
          6    1    1    2  502    0 -0.55349728969E+02  0.39913341711E+02  0.33088790969E+02  0.18889292054E+03  0.17300000000E+03 0. -1.
         -6    1    1    2    0  501  0.55349728969E+02 -0.39913341711E+02 -0.17386154318E+03  0.25458496331E+03  0.17300000000E+03 0.  1.
<mgrwt>
<rscale>  2 0.18597222E+03</rscale>
<asrwt>0</asrwt>
<pdfrwt beam="1">  1        1 0.23285010E-01 0.18597222E+03</pdfrwt>
<pdfrwt beam="2">  1       -1 0.44942356E-01 0.18597222E+03</pdfrwt>
<totfact> 0.10431322E+03</totfact>
</mgrwt>
</event>
<event>
 4    2  0.9414654E-001  0.1926211E+03  0.7546771E-02  0.1156118E+00
         -1   -1    0    0    0  501 -0.00000000000E+00  0.00000000000E+00  0.21074932767E+02  0.21074932767E+02  0.00000000000E+00 0.  1.
          1   -1    0    0  502    0  0.00000000000E+00 -0.00000000000E+00 -0.17768491832E+04  0.17768491832E+04  0.00000000000E+00 0. -1.
          6    1    1    2  502    0  0.38097426590E+02  0.75647003139E+02 -0.96406019782E+03  0.98311492107E+03  0.17300000000E+03 0.  1.
         -6    1    1    2    0  501 -0.38097426590E+02 -0.75647003139E+02 -0.79171405266E+03  0.81480919495E+03  0.17300000000E+03 0. -1.
<mgrwt>
<rscale>  2 0.19262109E+03</rscale>
<asrwt>0</asrwt>
<pdfrwt beam="1">  1        1 0.27336142E+00 0.19262109E+03</pdfrwt>
<pdfrwt beam="2">  1       -1 0.32422973E-02 0.19262109E+03</pdfrwt>
<totfact> 0.15885588E+03</totfact>
</mgrwt>
</event>
<event>
 4    2  0.9414654E-001  0.2046813E+03  0.7546771E-02  0.1145848E+00
         -2   -1    0    0    0  501 -0.00000000000E+00  0.00000000000E+00  0.20966897322E+02  0.20966897322E+02  0.00000000000E+00 0. -1.
          2   -1    0    0  502    0  0.00000000000E+00 -0.00000000000E+00 -0.24898412918E+04  0.24898412918E+04  0.00000000000E+00 0.  1.
          6    1    1    2  502    0 -0.60735331389E+01 -0.10921782567E+03 -0.67653730103E+03  0.70682185941E+03  0.17300000000E+03 0. -1.
         -6    1    1    2    0  501  0.60735331389E+01  0.10921782567E+03 -0.17923370934E+04  0.18039863297E+04  0.17300000000E+03 0.  1.
<mgrwt>
<rscale>  2 0.20468127E+03</rscale>
<asrwt>0</asrwt>
<pdfrwt beam="1">  1        2 0.38305229E+00 0.20468127E+03</pdfrwt>
<pdfrwt beam="2">  1       -2 0.32256783E-02 0.20468127E+03</pdfrwt>
<totfact> 0.15561931E+03</totfact>
</mgrwt>
</event>
<event>
 4    2  0.9414654E-001  0.1737486E+03  0.7546771E-02  0.1173994E+00
          2   -1    0    0  502    0  0.00000000000E+00  0.00000000000E+00  0.13397944254E+04  0.13397944254E+04  0.00000000000E+00 0.  1.
         -2   -1    0    0    0  501 -0.00000000000E+00 -0.00000000000E+00 -0.22871584707E+02  0.22871584707E+02  0.00000000000E+00 0. -1.
          6    1    1    2  502    0 -0.13230110857E+02 -0.91951337759E+01  0.74145105014E+03  0.76153676606E+03  0.17300000000E+03 0. -1.
         -6    1    1    2    0  501  0.13230110857E+02  0.91951337759E+01  0.57547179058E+03  0.60112924406E+03  0.17300000000E+03 0. -1.
<mgrwt>
<rscale>  2 0.17374863E+03</rscale>
<asrwt>0</asrwt>
<pdfrwt beam="1">  1        2 0.20612216E+00 0.17374863E+03</pdfrwt>
<pdfrwt beam="2">  1       -2 0.35187064E-02 0.17374863E+03</pdfrwt>
<totfact> 0.54988703E+03</totfact>
</mgrwt>
</event>
<event>
 4    2  0.9414654E-001  0.2175953E+03  0.7546771E-02  0.1135689E+00
         -2   -1    0    0    0  501 -0.00000000000E+00  0.00000000000E+00  0.27166457605E+02  0.27166457605E+02  0.00000000000E+00 0.  1.
          2   -1    0    0  502    0  0.00000000000E+00 -0.00000000000E+00 -0.19123290785E+04  0.19123290785E+04  0.00000000000E+00 0. -1.
          6    1    1    2  502    0 -0.89408241190E+02 -0.97081843219E+02 -0.12312532176E+04  0.12503328372E+04  0.17300000000E+03 0.  1.
         -6    1    1    2    0  501  0.89408241190E+02  0.97081843219E+02 -0.65390940333E+03  0.68916269896E+03  0.17300000000E+03 0. -1.
<mgrwt>
<rscale>  2 0.21759531E+03</rscale>
<asrwt>0</asrwt>
<pdfrwt beam="1">  1        2 0.29420455E+00 0.21759531E+03</pdfrwt>
<pdfrwt beam="2">  1       -2 0.41794539E-02 0.21759531E+03</pdfrwt>
<totfact> 0.21299650E+03</totfact>
</mgrwt>
</event>
<event>
 4    2  0.9414654E-001  0.2155232E+03  0.7546771E-02  0.1137265E+00
          2   -1    0    0  502    0  0.00000000000E+00  0.00000000000E+00  0.20516712210E+03  0.20516712210E+03  0.00000000000E+00 0. -1.
         -2   -1    0    0    0  501 -0.00000000000E+00 -0.00000000000E+00 -0.23367735345E+03  0.23367735345E+03  0.00000000000E+00 0.  1.
          6    1    1    2  502    0  0.12756059466E+03 -0.15797014945E+02  0.24461622604E+02  0.21690694312E+03  0.17300000000E+03 0.  1.
         -6    1    1    2    0  501 -0.12756059466E+03  0.15797014945E+02 -0.52971853952E+02  0.22193753243E+03  0.17300000000E+03 0.  1.
<mgrwt>
<rscale>  2 0.21552320E+03</rscale>
<asrwt>0</asrwt>
<pdfrwt beam="1">  1        2 0.31564173E-01 0.21552320E+03</pdfrwt>
<pdfrwt beam="2">  1       -2 0.35950362E-01 0.21552320E+03</pdfrwt>
<totfact> 0.12048212E+03</totfact>
</mgrwt>
</event>
<event>
 4    2  0.9414654E-001  0.1813368E+03  0.7546771E-02  0.1166515E+00
         -2   -1    0    0    0  501 -0.00000000000E+00  0.00000000000E+00  0.10558900418E+03  0.10558900418E+03  0.00000000000E+00 0. -1.
          2   -1    0    0  502    0  0.00000000000E+00 -0.00000000000E+00 -0.31843695455E+03  0.31843695455E+03  0.00000000000E+00 0.  1.
          6    1    1    2  502    0  0.47551726283E+02 -0.26322572986E+02 -0.13788504754E+03  0.22780546713E+03  0.17300000000E+03 0.  1.
         -6    1    1    2    0  501 -0.47551726283E+02  0.26322572986E+02 -0.74962902836E+02  0.19622049160E+03  0.17300000000E+03 0. -1.
<mgrwt>
<rscale>  2 0.18133683E+03</rscale>
<asrwt>0</asrwt>
<pdfrwt beam="1">  1        2 0.48990301E-01 0.18133683E+03</pdfrwt>
<pdfrwt beam="2">  1       -2 0.16244462E-01 0.18133683E+03</pdfrwt>
<totfact> 0.30115877E+03</totfact>
</mgrwt>
</event>
<event>
 4    2  0.9414654E-001  0.1737376E+03  0.7546771E-02  0.1174005E+00
          2   -1    0    0  502    0  0.00000000000E+00  0.00000000000E+00  0.17625087253E+03  0.17625087253E+03  0.00000000000E+00 0.  1.
         -2   -1    0    0    0  501 -0.00000000000E+00 -0.00000000000E+00 -0.17394720491E+03  0.17394720491E+03  0.00000000000E+00 0. -1.
          6    1    1    2  502    0  0.85737188137E+01  0.13499598576E+02  0.22914630454E+02  0.17524219841E+03  0.17300000000E+03 0.  1.
         -6    1    1    2    0  501 -0.85737188137E+01 -0.13499598576E+02 -0.20610962838E+02  0.17495587902E+03  0.17300000000E+03 0. -1.
<mgrwt>
<rscale>  2 0.17373758E+03</rscale>
<asrwt>0</asrwt>
<pdfrwt beam="1">  1        2 0.27115519E-01 0.17373758E+03</pdfrwt>
<pdfrwt beam="2">  1       -2 0.26761109E-01 0.17373758E+03</pdfrwt>
<totfact> 0.24208221E+03</totfact>
</mgrwt>
</event>
<event>
 4    2  0.9414654E-001  0.2184958E+03  0.7546771E-02  0.1135009E+00
         -2   -1    0    0    0  501 -0.00000000000E+00  0.00000000000E+00  0.69679469503E+02  0.69679469503E+02  0.00000000000E+00 0. -1.
          2   -1    0    0  502    0  0.00000000000E+00 -0.00000000000E+00 -0.16755282092E+04  0.16755282092E+04  0.00000000000E+00 0.  1.
          6    1    1    2  502    0 -0.25189055064E+02  0.13106084593E+03 -0.14738018540E+04  0.14899101780E+04  0.17300000000E+03 0.  1.
         -6    1    1    2    0  501  0.25189055064E+02 -0.13106084593E+03 -0.13204688577E+03  0.25529750072E+03  0.17300000000E+03 0. -1.
<mgrwt>
<rscale>  2 0.21849584E+03</rscale>
<asrwt>0</asrwt>
<pdfrwt beam="1">  1        2 0.25777358E+00 0.21849584E+03</pdfrwt>
<pdfrwt beam="2">  1       -2 0.10719918E-01 0.21849584E+03</pdfrwt>
<totfact> 0.65953931E+02</totfact>
</mgrwt>
</event>
<event>
 4    2  0.9414654E-001  0.2315293E+03  0.7546771E-02  0.1125568E+00
         -1   -1    0    0    0  501 -0.00000000000E+00  0.00000000000E+00  0.12748555344E+03  0.12748555344E+03  0.00000000000E+00 0. -1.
          1   -1    0    0  502    0  0.00000000000E+00 -0.00000000000E+00 -0.66237320776E+03  0.66237320776E+03  0.00000000000E+00 0.  1.
          6    1    1    2  502    0  0.13520955999E+03 -0.73452098135E+02 -0.50610122464E+03  0.55654675043E+03  0.17300000000E+03 0.  1.
         -6    1    1    2    0  501 -0.13520955999E+03  0.73452098135E+02 -0.28786429684E+02  0.23331201076E+03  0.17300000000E+03 0.  1.
<mgrwt>
<rscale>  2 0.23152934E+03</rscale>
<asrwt>0</asrwt>
<pdfrwt beam="1">  1        1 0.10190357E+00 0.23152934E+03</pdfrwt>
<pdfrwt beam="2">  1       -1 0.19613162E-01 0.23152934E+03</pdfrwt>
<totfact> 0.63996396E+02</totfact>
</mgrwt>
</event>
<event>
 4    2  0.9414654E-001  0.1817372E+03  0.7546771E-02  0.1166132E+00
         -2   -1    0    0    0  501 -0.00000000000E+00  0.00000000000E+00  0.32411795124E+03  0.32411795124E+03  0.00000000000E+00 0.  1.
          2   -1    0    0  502    0  0.00000000000E+00 -0.00000000000E+00 -0.10194840992E+03  0.10194840992E+03  0.00000000000E+00 0. -1.
          6    1    1    2  502    0 -0.86899360583E+01  0.54990023099E+02  0.10656221559E+03  0.21067492357E+03  0.17300000000E+03 0.  1.
         -6    1    1    2    0  501  0.86899360583E+01 -0.54990023099E+02  0.11560732573E+03  0.21539143760E+03  0.17300000000E+03 0.  1.
<mgrwt>
<rscale>  2 0.18173722E+03</rscale>
<asrwt>0</asrwt>
<pdfrwt beam="1">  1        2 0.15684371E-01 0.18173722E+03</pdfrwt>
<pdfrwt beam="2">  1       -2 0.49864300E-01 0.18173722E+03</pdfrwt>
<totfact> 0.14070066E+03</totfact>
</mgrwt>
</event>
<event>
 4    2  0.9414654E-001  0.2015992E+03  0.7546771E-02  0.1148397E+00
         -1   -1    0    0    0  501 -0.00000000000E+00  0.00000000000E+00  0.37461774124E+02  0.37461774124E+02  0.00000000000E+00 0. -1.
          1   -1    0    0  502    0  0.00000000000E+00 -0.00000000000E+00 -0.14895754559E+04  0.14895754559E+04  0.00000000000E+00 0.  1.
          6    1    1    2  502    0 -0.18221412341E+02  0.10188828593E+03 -0.32809418094E+03  0.38508185395E+03  0.17300000000E+03 0. -1.
         -6    1    1    2    0  501  0.18221412341E+02 -0.10188828593E+03 -0.11240195009E+04  0.11419553761E+04  0.17300000000E+03 0. -1.
<mgrwt>
<rscale>  2 0.20159921E+03</rscale>
<asrwt>0</asrwt>
<pdfrwt beam="1">  1        1 0.22916542E+00 0.20159921E+03</pdfrwt>
<pdfrwt beam="2">  1       -1 0.57633507E-02 0.20159921E+03</pdfrwt>
<totfact> 0.10379802E+03</totfact>
</mgrwt>
</event>
<event>
 4    2  0.9414654E-001  0.1947162E+03  0.7546771E-02  0.1154275E+00
         -1   -1    0    0    0  501 -0.00000000000E+00  0.00000000000E+00  0.11416785598E+03  0.11416785598E+03  0.00000000000E+00 0. -1.
          1   -1    0    0  502    0  0.00000000000E+00 -0.00000000000E+00 -0.33878634869E+03  0.33878634869E+03  0.00000000000E+00 0.  1.
          6    1    1    2  502    0  0.41658435013E+02 -0.79056829914E+02 -0.80477129424E+02  0.21069166078E+03  0.17300000000E+03 0.  1.
         -6    1    1    2    0  501 -0.41658435013E+02  0.79056829914E+02 -0.14414136328E+03  0.24226254389E+03  0.17300000000E+03 0. -1.
<mgrwt>
<rscale>  2 0.19471622E+03</rscale>
<asrwt>0</asrwt>
<pdfrwt beam="1">  1        1 0.52120976E-01 0.19471622E+03</pdfrwt>
<pdfrwt beam="2">  1       -1 0.17564286E-01 0.19471622E+03</pdfrwt>
<totfact> 0.18526449E+03</totfact>
</mgrwt>
</event>
<event>
 4    2  0.9414654E-001  0.3253678E+03  0.7546771E-02  0.1073205E+00
         -1   -1    0    0    0  501 -0.00000000000E+00  0.00000000000E+00  0.62491678199E+02  0.62491678199E+02  0.00000000000E+00 0. -1.
          1   -1    0    0  502    0  0.00000000000E+00 -0.00000000000E+00 -0.23268419970E+04  0.23268419970E+04  0.00000000000E+00 0.  1.
          6    1    1    2  502    0 -0.69395708169E+02  0.26668224560E+03 -0.50916807021E+03  0.60424854833E+03  0.17300000000E+03 0. -1.
         -6    1    1    2    0  501  0.69395708169E+02 -0.26668224560E+03 -0.17551822486E+04  0.17850851269E+04  0.17300000000E+03 0.  1.
<mgrwt>
<rscale>  2 0.32536777E+03</rscale>
<asrwt>0</asrwt>
<pdfrwt beam="1">  1        1 0.35797567E+00 0.32536777E+03</pdfrwt>
<pdfrwt beam="2">  1       -1 0.96141050E-02 0.32536777E+03</pdfrwt>
<totfact> 0.13223277E+02</totfact>
</mgrwt>
</event>
<event>
 4    2  0.9414654E-001  0.1905847E+03  0.7546771E-02  0.1157935E+00
         -2   -1    0    0    0  501 -0.00000000000E+00  0.00000000000E+00  0.21193127596E+02  0.21193127596E+02  0.00000000000E+00 0. -1.
          2   -1    0    0  502    0  0.00000000000E+00 -0.00000000000E+00 -0.17581737897E+04  0.17581737897E+04  0.00000000000E+00 0.  1.
          6    1    1    2  502    0  0.79232511309E+02 -0.10757475515E+02 -0.72727964346E+03  0.75183654734E+03  0.17300000000E+03 0.  1.
         -6    1    1    2    0  501 -0.79232511309E+02  0.10757475515E+02 -0.10097010186E+04  0.10275303699E+04  0.17300000000E+03 0.  1.
<mgrwt>
<rscale>  2 0.19058466E+03</rscale>
<asrwt>0</asrwt>
<pdfrwt beam="1">  1        2 0.27048826E+00 0.19058466E+03</pdfrwt>
<pdfrwt beam="2">  1       -2 0.32604813E-02 0.19058466E+03</pdfrwt>
<totfact> 0.37149417E+03</totfact>
</mgrwt>
</event>
<event>
 4    2  0.9414654E-001  0.1879914E+03  0.7546771E-02  0.1160286E+00
          2   -1    0    0  502    0  0.00000000000E+00  0.00000000000E+00  0.13076513920E+04  0.13076513920E+04  0.00000000000E+00 0. -1.
         -2   -1    0    0    0  501 -0.00000000000E+00 -0.00000000000E+00 -0.44046497460E+02  0.44046497460E+02  0.00000000000E+00 0.  1.
          6    1    1    2  502    0  0.61478505265E+02  0.40399842781E+02  0.21167752823E+03  0.28310445045E+03  0.17300000000E+03 0.  1.
         -6    1    1    2    0  501 -0.61478505265E+02 -0.40399842781E+02  0.10519273664E+04  0.10685934391E+04  0.17300000000E+03 0. -1.
<mgrwt>
<rscale>  2 0.18799137E+03</rscale>
<asrwt>0</asrwt>
<pdfrwt beam="1">  1        2 0.20117711E+00 0.18799137E+03</pdfrwt>
<pdfrwt beam="2">  1       -2 0.67763852E-02 0.18799137E+03</pdfrwt>
<totfact> 0.21286380E+03</totfact>
</mgrwt>
</event>
<event>
 4    2  0.9414654E-001  0.4849035E+03  0.7546771E-02  0.1017796E+00
          2   -1    0    0  502    0  0.00000000000E+00  0.00000000000E+00  0.27279549744E+03  0.27279549744E+03  0.00000000000E+00 0.  1.
         -2   -1    0    0    0  501 -0.00000000000E+00 -0.00000000000E+00 -0.93760611128E+03  0.93760611128E+03  0.00000000000E+00 0. -1.
          6    1    1    2  502    0  0.42454972062E+03 -0.15798717745E+03 -0.16047185949E+03  0.51076670918E+03  0.17300000000E+03 0. -1.
         -6    1    1    2    0  501 -0.42454972062E+03  0.15798717745E+03 -0.50433875435E+03  0.69963489954E+03  0.17300000000E+03 0.  1.
<mgrwt>
<rscale>  2 0.48490351E+03</rscale>
<asrwt>0</asrwt>
<pdfrwt beam="1">  1        2 0.41968539E-01 0.48490351E+03</pdfrwt>
<pdfrwt beam="2">  1       -2 0.14424709E+00 0.48490351E+03</pdfrwt>
<totfact> 0.41830172E+01</totfact>
</mgrwt>
</event>
<event>
 4    2  0.9414654E-001  0.1741202E+03  0.7546771E-02  0.1173618E+00
          1   -1    0    0  502    0  0.00000000000E+00  0.00000000000E+00  0.22979278884E+04  0.22979278884E+04  0.00000000000E+00 0. -1.
         -1   -1    0    0    0  501 -0.00000000000E+00 -0.00000000000E+00 -0.15212139943E+02  0.15212139943E+02  0.00000000000E+00 0.  1.
          6    1    1    2  502    0 -0.87043157288E+01 -0.17694369811E+02  0.15626656273E+04  0.15723363885E+04  0.17300000000E+03 0. -1.
         -6    1    1    2    0  501  0.87043157288E+01  0.17694369811E+02  0.72005012114E+03  0.74080363983E+03  0.17300000000E+03 0.  1.
<mgrwt>
<rscale>  2 0.17412023E+03</rscale>
<asrwt>0</asrwt>
<pdfrwt beam="1">  1        1 0.35352709E+00 0.17412023E+03</pdfrwt>
<pdfrwt beam="2">  1       -1 0.23403311E-02 0.17412023E+03</pdfrwt>
<totfact> 0.11845386E+03</totfact>
</mgrwt>
</event>
<event>
 4    2  0.9414654E-001  0.2329664E+03  0.7546771E-02  0.1124569E+00
          2   -1    0    0  502    0  0.00000000000E+00  0.00000000000E+00  0.19274045688E+04  0.19274045688E+04  0.00000000000E+00 0.  1.
         -2   -1    0    0    0  501 -0.00000000000E+00 -0.00000000000E+00 -0.28160872967E+02  0.28160872967E+02  0.00000000000E+00 0. -1.
          6    1    1    2  502    0  0.15578966331E+03  0.85980604815E+01  0.94117631302E+03  0.96958042370E+03  0.17300000000E+03 0.  1.
         -6    1    1    2    0  501 -0.15578966331E+03 -0.85980604815E+01  0.95806738284E+03  0.98598501809E+03  0.17300000000E+03 0. -1.
<mgrwt>
<rscale>  2 0.23296640E+03</rscale>
<asrwt>0</asrwt>
<pdfrwt beam="1">  1        2 0.29652368E+00 0.23296640E+03</pdfrwt>
<pdfrwt beam="2">  1       -2 0.43324435E-02 0.23296640E+03</pdfrwt>
<totfact> 0.19795024E+03</totfact>
</mgrwt>
</event>
<event>
 4    2  0.9414654E-001  0.2647135E+03  0.7546771E-02  0.1104344E+00
          1   -1    0    0  502    0  0.00000000000E+00  0.00000000000E+00  0.13484736115E+04  0.13484736115E+04  0.00000000000E+00 0.  1.
         -1   -1    0    0    0  501 -0.00000000000E+00 -0.00000000000E+00 -0.52056984612E+02  0.52056984612E+02  0.00000000000E+00 0. -1.
          6    1    1    2  502    0 -0.63446764247E+02  0.19004937361E+03  0.61875143700E+03  0.67299821477E+03  0.17300000000E+03 0.  1.
         -6    1    1    2    0  501  0.63446764247E+02 -0.19004937361E+03  0.67766518989E+03  0.72753238133E+03  0.17300000000E+03 0. -1.
<mgrwt>
<rscale>  2 0.26471354E+03</rscale>
<asrwt>0</asrwt>
<pdfrwt beam="1">  1        1 0.20745745E+00 0.26471354E+03</pdfrwt>
<pdfrwt beam="2">  1       -1 0.80087679E-02 0.26471354E+03</pdfrwt>
<totfact> 0.77888565E+02</totfact>
</mgrwt>
</event>
<event>
 4    2  0.9414654E-001  0.1993138E+03  0.7546771E-02  0.1150319E+00
         -2   -1    0    0    0  501 -0.00000000000E+00  0.00000000000E+00  0.87015523060E+02  0.87015523060E+02  0.00000000000E+00 0.  1.
          2   -1    0    0  502    0  0.00000000000E+00 -0.00000000000E+00 -0.46586044974E+03  0.46586044974E+03  0.00000000000E+00 0. -1.
          6    1    1    2  502    0  0.45337977945E+02  0.87985613584E+02 -0.22852509860E+03  0.30323212418E+03  0.17300000000E+03 0. -1.
         -6    1    1    2    0  501 -0.45337977945E+02 -0.87985613584E+02 -0.15031982808E+03  0.24964384862E+03  0.17300000000E+03 0.  1.
<mgrwt>
<rscale>  2 0.19931382E+03</rscale>
<asrwt>0</asrwt>
<pdfrwt beam="1">  1        2 0.71670838E-01 0.19931382E+03</pdfrwt>
<pdfrwt beam="2">  1       -2 0.13387004E-01 0.19931382E+03</pdfrwt>
<totfact> 0.27524251E+03</totfact>
</mgrwt>
</event>
<event>
 4    2  0.9414654E-001  0.1881104E+03  0.7546771E-02  0.1160177E+00
         -2   -1    0    0    0  501 -0.00000000000E+00  0.00000000000E+00  0.28311565767E+03  0.28311565767E+03  0.00000000000E+00 0.  1.
          2   -1    0    0  502    0  0.00000000000E+00 -0.00000000000E+00 -0.13329632396E+03  0.13329632396E+03  0.00000000000E+00 0. -1.
          6    1    1    2  502    0 -0.32579423483E+02 -0.66295652096E+02  0.12689604215E+03  0.22690997738E+03  0.17300000000E+03 0.  1.
         -6    1    1    2    0  501  0.32579423483E+02  0.66295652096E+02  0.22923291561E+02  0.18950200426E+03  0.17300000000E+03 0. -1.
<mgrwt>
<rscale>  2 0.18811043E+03</rscale>
<asrwt>0</asrwt>
<pdfrwt beam="1">  1        2 0.20507127E-01 0.18811043E+03</pdfrwt>
<pdfrwt beam="2">  1       -2 0.43556255E-01 0.18811043E+03</pdfrwt>
<totfact> 0.13471358E+03</totfact>
</mgrwt>
</event>
<event>
 4    2  0.9414654E-001  0.4637391E+03  0.7546771E-02  0.1023702E+00
         -2   -1    0    0    0  501 -0.00000000000E+00  0.00000000000E+00  0.10794005548E+03  0.10794005548E+03  0.00000000000E+00 0.  1.
          2   -1    0    0  502    0  0.00000000000E+00 -0.00000000000E+00 -0.20193259224E+04  0.20193259224E+04  0.00000000000E+00 0. -1.
          6    1    1    2  502    0 -0.26626212211E+03 -0.33797843186E+03 -0.10786373794E+04  0.11741007343E+04  0.17300000000E+03 0. -1.
         -6    1    1    2    0  501  0.26626212211E+03  0.33797843186E+03 -0.83274848757E+03  0.95316524361E+03  0.17300000000E+03 0.  1.
<mgrwt>
<rscale>  2 0.46373908E+03</rscale>
<asrwt>0</asrwt>
<pdfrwt beam="1">  1        2 0.31066549E+00 0.46373908E+03</pdfrwt>
<pdfrwt beam="2">  1       -2 0.16606164E-01 0.46373908E+03</pdfrwt>
<totfact> 0.20319041E+02</totfact>
</mgrwt>
</event>
<event>
 4    2  0.9414654E-001  0.1854504E+03  0.7546771E-02  0.1162630E+00
          2   -1    0    0  502    0  0.00000000000E+00  0.00000000000E+00  0.43563341249E+03  0.43563341249E+03  0.00000000000E+00 0. -1.
         -2   -1    0    0    0  501 -0.00000000000E+00 -0.00000000000E+00 -0.80649374846E+02  0.80649374846E+02  0.00000000000E+00 0.  1.
          6    1    1    2  502    0  0.63683103548E+02  0.20182391627E+02  0.13998526675E+03  0.23235262322E+03  0.17300000000E+03 0.  1.
         -6    1    1    2    0  501 -0.63683103548E+02 -0.20182391627E+02  0.21499877089E+03  0.28393016411E+03  0.17300000000E+03 0. -1.
<mgrwt>
<rscale>  2 0.18545044E+03</rscale>
<asrwt>0</asrwt>
<pdfrwt beam="1">  1        2 0.67020524E-01 0.18545044E+03</pdfrwt>
<pdfrwt beam="2">  1       -2 0.12407596E-01 0.18545044E+03</pdfrwt>
<totfact> 0.33422550E+03</totfact>
</mgrwt>
</event>
<event>
 4    2  0.9414654E-001  0.2249710E+03  0.7546771E-02  0.1130230E+00
         -2   -1    0    0    0  501 -0.00000000000E+00  0.00000000000E+00  0.12436459456E+02  0.12436459456E+02  0.00000000000E+00 0.  1.
          2   -1    0    0  502    0  0.00000000000E+00 -0.00000000000E+00 -0.52632686808E+04  0.52632686808E+04  0.00000000000E+00 0. -1.
          6    1    1    2  502    0 -0.11263924009E+03  0.89416618278E+02 -0.38816112841E+04  0.38881252669E+04  0.17300000000E+03 0. -1.
         -6    1    1    2    0  501  0.11263924009E+03 -0.89416618278E+02 -0.13692209373E+04  0.13875798734E+04  0.17300000000E+03 0.  1.
<mgrwt>
<rscale>  2 0.22497095E+03</rscale>
<asrwt>0</asrwt>
<pdfrwt beam="1">  1        2 0.80973351E+00 0.22497095E+03</pdfrwt>
<pdfrwt beam="2">  1       -2 0.19133018E-02 0.22497095E+03</pdfrwt>
<totfact> 0.19522159E+01</totfact>
</mgrwt>
</event>
<event>
 4    2  0.9414654E-001  0.1827023E+03  0.7546771E-02  0.1165213E+00
          2   -1    0    0  502    0  0.00000000000E+00  0.00000000000E+00  0.93028005524E+03  0.93028005524E+03  0.00000000000E+00 0. -1.
         -2   -1    0    0    0  501 -0.00000000000E+00 -0.00000000000E+00 -0.53752551904E+02  0.53752551904E+02  0.00000000000E+00 0.  1.
          6    1    1    2  502    0 -0.51994416397E+02  0.27344458822E+02  0.72195840812E+03  0.74471745100E+03  0.17300000000E+03 0. -1.
         -6    1    1    2    0  501  0.51994416397E+02 -0.27344458822E+02  0.15456909521E+03  0.23931515614E+03  0.17300000000E+03 0. -1.
<mgrwt>
<rscale>  2 0.18270232E+03</rscale>
<asrwt>0</asrwt>
<pdfrwt beam="1">  1        2 0.14312000E+00 0.18270232E+03</pdfrwt>
<pdfrwt beam="2">  1       -2 0.82696241E-02 0.18270232E+03</pdfrwt>
<totfact> 0.25866161E+03</totfact>
</mgrwt>
</event>
<event>
 4    2  0.9414654E-001  0.1872266E+03  0.7546771E-02  0.1160987E+00
          1   -1    0    0  502    0  0.00000000000E+00  0.00000000000E+00  0.79939871137E+02  0.79939871137E+02  0.00000000000E+00 0. -1.
         -1   -1    0    0    0  501 -0.00000000000E+00 -0.00000000000E+00 -0.43943660594E+03  0.43943660594E+03  0.00000000000E+00 0.  1.
          6    1    1    2  502    0  0.42235652161E+01  0.71463091877E+02 -0.19172305733E+03  0.26797675779E+03  0.17300000000E+03 0. -1.
         -6    1    1    2    0  501 -0.42235652161E+01 -0.71463091877E+02 -0.16777367747E+03  0.25139971928E+03  0.17300000000E+03 0. -1.
<mgrwt>
<rscale>  2 0.18722663E+03</rscale>
<asrwt>0</asrwt>
<pdfrwt beam="1">  1        1 0.12298442E-01 0.18722663E+03</pdfrwt>
<pdfrwt beam="2">  1       -1 0.67605632E-01 0.18722663E+03</pdfrwt>
<totfact> 0.11073689E+03</totfact>
</mgrwt>
</event>
<event>
 4    2  0.9414654E-001  0.2835605E+03  0.7546771E-02  0.1093760E+00
         -1   -1    0    0    0  501 -0.00000000000E+00  0.00000000000E+00  0.36915160304E+03  0.36915160304E+03  0.00000000000E+00 0.  1.
          1   -1    0    0  502    0  0.00000000000E+00 -0.00000000000E+00 -0.31185172079E+03  0.31185172079E+03  0.00000000000E+00 0. -1.
          6    1    1    2  502    0  0.22308916944E+03 -0.26623321540E+02 -0.15832999749E+03  0.32476909778E+03  0.17300000000E+03 0. -1.
         -6    1    1    2    0  501 -0.22308916944E+03  0.26623321540E+02  0.21562987974E+03  0.35623422605E+03  0.17300000000E+03 0.  1.
<mgrwt>
<rscale>  2 0.28356054E+03</rscale>
<asrwt>0</asrwt>
<pdfrwt beam="1">  1        1 0.47977188E-01 0.28356054E+03</pdfrwt>
<pdfrwt beam="2">  1       -1 0.56792554E-01 0.28356054E+03</pdfrwt>
<totfact> 0.27115354E+02</totfact>
</mgrwt>
</event>
<event>
 4    2  0.9414654E-001  0.2188650E+03  0.7546771E-02  0.1134732E+00
          1   -1    0    0  502    0  0.00000000000E+00  0.00000000000E+00  0.52276908037E+03  0.52276908037E+03  0.00000000000E+00 0.  1.
         -1   -1    0    0    0  501 -0.00000000000E+00 -0.00000000000E+00 -0.13736759548E+03  0.13736759548E+03  0.00000000000E+00 0. -1.
          6    1    1    2  502    0  0.80259376089E+02 -0.10738396599E+03  0.38315617391E+03  0.44126016952E+03  0.17300000000E+03 0.  1.
         -6    1    1    2    0  501 -0.80259376089E+02  0.10738396599E+03  0.22453109714E+01  0.21887650633E+03  0.17300000000E+03 0. -1.
<mgrwt>
<rscale>  2 0.21886499E+03</rscale>
<asrwt>0</asrwt>
<pdfrwt beam="1">  1        1 0.80426011E-01 0.21886499E+03</pdfrwt>
<pdfrwt beam="2">  1       -1 0.21133476E-01 0.21886499E+03</pdfrwt>
<totfact> 0.78594732E+02</totfact>
</mgrwt>
</event>
<event>
 4    2  0.9414654E-001  0.2626637E+03  0.7546771E-02  0.1105553E+00
         -2   -1    0    0    0  501 -0.00000000000E+00  0.00000000000E+00  0.63011777641E+02  0.63011777641E+02  0.00000000000E+00 0. -1.
          2   -1    0    0  502    0  0.00000000000E+00 -0.00000000000E+00 -0.11375709133E+04  0.11375709133E+04  0.00000000000E+00 0.  1.
          6    1    1    2  502    0 -0.16809346909E+03 -0.10396068515E+03 -0.42103119824E+03  0.49624541136E+03  0.17300000000E+03 0. -1.
         -6    1    1    2    0  501  0.16809346909E+03  0.10396068515E+03 -0.65352793738E+03  0.70433727954E+03  0.17300000000E+03 0.  1.
<mgrwt>
<rscale>  2 0.26266374E+03</rscale>
<asrwt>0</asrwt>
<pdfrwt beam="1">  1        2 0.17501091E+00 0.26266374E+03</pdfrwt>
<pdfrwt beam="2">  1       -2 0.96941199E-02 0.26266374E+03</pdfrwt>
<totfact> 0.15149602E+03</totfact>
</mgrwt>
</event>
<event>
 4    2  0.9414654E-001  0.4057631E+03  0.7546771E-02  0.1041802E+00
          1   -1    0    0  502    0  0.00000000000E+00  0.00000000000E+00  0.50983528871E+03  0.50983528871E+03  0.00000000000E+00 0.  1.
         -1   -1    0    0    0  501 -0.00000000000E+00 -0.00000000000E+00 -0.32469235173E+03  0.32469235173E+03  0.00000000000E+00 0. -1.
          6    1    1    2  502    0  0.51582074450E+02 -0.36339238086E+03  0.61875161254E+02  0.41045373485E+03  0.17300000000E+03 0.  1.
         -6    1    1    2    0  501 -0.51582074450E+02  0.36339238086E+03  0.12326777573E+03  0.42407390559E+03  0.17300000000E+03 0. -1.
<mgrwt>
<rscale>  2 0.40576315E+03</rscale>
<asrwt>0</asrwt>
<pdfrwt beam="1">  1        1 0.78436198E-01 0.40576315E+03</pdfrwt>
<pdfrwt beam="2">  1       -1 0.49952669E-01 0.40576315E+03</pdfrwt>
<totfact> 0.18020083E+02</totfact>
</mgrwt>
</event>
<event>
 4    2  0.9414654E-001  0.3279521E+03  0.7546771E-02  0.1072047E+00
          2   -1    0    0  502    0  0.00000000000E+00  0.00000000000E+00  0.32589205436E+03  0.32589205436E+03  0.00000000000E+00 0. -1.
         -2   -1    0    0    0  501 -0.00000000000E+00 -0.00000000000E+00 -0.49219538524E+03  0.49219538524E+03  0.00000000000E+00 0.  1.
          6    1    1    2  502    0  0.11587406415E+03 -0.25337085392E+03  0.15164205378E+03  0.36131413041E+03  0.17300000000E+03 0. -1.
         -6    1    1    2    0  501 -0.11587406415E+03  0.25337085392E+03 -0.31794538466E+03  0.45677330919E+03  0.17300000000E+03 0. -1.
<mgrwt>
<rscale>  2 0.32795211E+03</rscale>
<asrwt>0</asrwt>
<pdfrwt beam="1">  1        2 0.50137239E-01 0.32795211E+03</pdfrwt>
<pdfrwt beam="2">  1       -2 0.75722367E-01 0.32795211E+03</pdfrwt>
<totfact> 0.16128189E+02</totfact>
</mgrwt>
</event>
<event>
 4    2  0.9414654E-001  0.2491775E+03  0.7546771E-02  0.1113826E+00
          1   -1    0    0  502    0  0.00000000000E+00  0.00000000000E+00  0.82240039366E+03  0.82240039366E+03  0.00000000000E+00 0. -1.
         -1   -1    0    0    0  501 -0.00000000000E+00 -0.00000000000E+00 -0.79210830069E+02  0.79210830069E+02  0.00000000000E+00 0.  1.
          6    1    1    2  502    0 -0.12783739642E+03 -0.12576972076E+03  0.27399224350E+03  0.37035276708E+03  0.17300000000E+03 0.  1.
         -6    1    1    2    0  501  0.12783739642E+03  0.12576972076E+03  0.46919732009E+03  0.53125845665E+03  0.17300000000E+03 0. -1.
<mgrwt>
<rscale>  2 0.24917749E+03</rscale>
<asrwt>0</asrwt>
<pdfrwt beam="1">  1        1 0.12652313E+00 0.24917749E+03</pdfrwt>
<pdfrwt beam="2">  1       -1 0.12186282E-01 0.24917749E+03</pdfrwt>
<totfact> 0.98891880E+02</totfact>
</mgrwt>
</event>
<event>
 4    2  0.9414654E-001  0.2887079E+03  0.7546771E-02  0.1091026E+00
         -2   -1    0    0    0  501 -0.00000000000E+00  0.00000000000E+00  0.11777807051E+03  0.11777807051E+03  0.00000000000E+00 0. -1.
          2   -1    0    0  502    0  0.00000000000E+00 -0.00000000000E+00 -0.75192662242E+03  0.75192662242E+03  0.00000000000E+00 0.  1.
          6    1    1    2  502    0  0.23109512661E+03  0.42779725074E+01 -0.21161955266E+03  0.35795962574E+03  0.17300000000E+03 0. -1.
         -6    1    1    2    0  501 -0.23109512661E+03 -0.42779725074E+01 -0.42252899925E+03  0.51174506719E+03  0.17300000000E+03 0.  1.
<mgrwt>
<rscale>  2 0.28870791E+03</rscale>
<asrwt>0</asrwt>
<pdfrwt beam="1">  1        2 0.11568102E+00 0.28870791E+03</pdfrwt>
<pdfrwt beam="2">  1       -2 0.18119703E-01 0.28870791E+03</pdfrwt>
<totfact> 0.95742919E+02</totfact>
</mgrwt>
</event>
<event>
 4    2  0.9414654E-001  0.1839752E+03  0.7546771E-02  0.1164010E+00
         -1   -1    0    0    0  501 -0.00000000000E+00  0.00000000000E+00  0.17815967461E+02  0.17815967461E+02  0.00000000000E+00 0.  1.
          1   -1    0    0  502    0  0.00000000000E+00 -0.00000000000E+00 -0.21873831635E+04  0.21873831635E+04  0.00000000000E+00 0. -1.
          6    1    1    2  502    0  0.29437341634E+02 -0.55238739383E+02 -0.68499274229E+03  0.70926858974E+03  0.17300000000E+03 0.  1.
         -6    1    1    2    0  501 -0.29437341634E+02  0.55238739383E+02 -0.14845744537E+04  0.14959305412E+04  0.17300000000E+03 0. -1.
<mgrwt>
<rscale>  2 0.18397520E+03</rscale>
<asrwt>0</asrwt>
<pdfrwt beam="1">  1        1 0.33652020E+00 0.18397520E+03</pdfrwt>
<pdfrwt beam="2">  1       -1 0.27409204E-02 0.18397520E+03</pdfrwt>
<totfact> 0.11075093E+03</totfact>
</mgrwt>
</event>
<event>
 4    2  0.9414654E-001  0.2378352E+03  0.7546771E-02  0.1121243E+00
          2   -1    0    0  502    0  0.00000000000E+00  0.00000000000E+00  0.60306175589E+03  0.60306175589E+03  0.00000000000E+00 0. -1.
         -2   -1    0    0    0  501 -0.00000000000E+00 -0.00000000000E+00 -0.94090552890E+02  0.94090552890E+02  0.00000000000E+00 0.  1.
          6    1    1    2  502    0  0.11017262719E+03 -0.12041004930E+03  0.27394445189E+03  0.36278251126E+03  0.17300000000E+03 0.  1.
         -6    1    1    2    0  501 -0.11017262719E+03  0.12041004930E+03  0.23502675111E+03  0.33436979752E+03  0.17300000000E+03 0.  1.
<mgrwt>
<rscale>  2 0.23783521E+03</rscale>
<asrwt>0</asrwt>
<pdfrwt beam="1">  1        2 0.92778729E-01 0.23783521E+03</pdfrwt>
<pdfrwt beam="2">  1       -2 0.14475470E-01 0.23783521E+03</pdfrwt>
<totfact> 0.18164056E+03</totfact>
</mgrwt>
</event>
<event>
 4    2  0.9414654E-001  0.2154202E+03  0.7546771E-02  0.1137344E+00
         -1   -1    0    0    0  501 -0.00000000000E+00  0.00000000000E+00  0.11416756390E+03  0.11416756390E+03  0.00000000000E+00 0.  1.
          1   -1    0    0  502    0  0.00000000000E+00 -0.00000000000E+00 -0.43820318132E+03  0.43820318132E+03  0.00000000000E+00 0. -1.
          6    1    1    2  502    0 -0.70457379807E+02 -0.10729688372E+03 -0.87697194168E+02  0.23258689019E+03  0.17300000000E+03 0. -1.
         -6    1    1    2    0  501  0.70457379807E+02  0.10729688372E+03 -0.23633842326E+03  0.31978385502E+03  0.17300000000E+03 0. -1.
<mgrwt>
<rscale>  2 0.21542020E+03</rscale>
<asrwt>0</asrwt>
<pdfrwt beam="1">  1        1 0.67415874E-01 0.21542020E+03</pdfrwt>
<pdfrwt beam="2">  1       -1 0.17564241E-01 0.21542020E+03</pdfrwt>
<totfact> 0.13371293E+03</totfact>
</mgrwt>
</event>
<event>
 4    2  0.9414654E-001  0.4365907E+03  0.7546771E-02  0.1031798E+00
         -2   -1    0    0    0  501 -0.00000000000E+00  0.00000000000E+00  0.48336775015E+03  0.48336775015E+03  0.00000000000E+00 0. -1.
          2   -1    0    0  502    0  0.00000000000E+00 -0.00000000000E+00 -0.57003509516E+03  0.57003509516E+03  0.00000000000E+00 0.  1.
          6    1    1    2  502    0 -0.40028361194E+03 -0.21342546705E+02 -0.33574413673E+03  0.55075911217E+03  0.17300000000E+03 0.  1.
         -6    1    1    2    0  501  0.40028361194E+03  0.21342546705E+02  0.24907679172E+03  0.50264373314E+03  0.17300000000E+03 0. -1.
<mgrwt>
<rscale>  2 0.43659074E+03</rscale>
<asrwt>0</asrwt>
<pdfrwt beam="1">  1        2 0.87697707E-01 0.43659074E+03</pdfrwt>
<pdfrwt beam="2">  1       -2 0.74364269E-01 0.43659074E+03</pdfrwt>
<totfact> 0.88899598E+01</totfact>
</mgrwt>
</event>
<event>
 4    2  0.9414654E-001  0.1732486E+03  0.7546771E-02  0.1174502E+00
          1   -1    0    0  502    0  0.00000000000E+00  0.00000000000E+00  0.48594327943E+03  0.48594327943E+03  0.00000000000E+00 0.  1.
         -1   -1    0    0    0  501 -0.00000000000E+00 -0.00000000000E+00 -0.65062709336E+02  0.65062709336E+02  0.00000000000E+00 0. -1.
          6    1    1    2  502    0 -0.45451320071E+01  0.80873195245E+01  0.14843035822E+03  0.22813731436E+03  0.17300000000E+03 0. -1.
         -6    1    1    2    0  501  0.45451320071E+01 -0.80873195245E+01  0.27245021188E+03  0.32286867441E+03  0.17300000000E+03 0. -1.
<mgrwt>
<rscale>  2 0.17324856E+03</rscale>
<asrwt>0</asrwt>
<pdfrwt beam="1">  1        1 0.74760502E-01 0.17324856E+03</pdfrwt>
<pdfrwt beam="2">  1       -1 0.10009648E-01 0.17324856E+03</pdfrwt>
<totfact> 0.28083904E+03</totfact>
</mgrwt>
</event>
<event>
 4    2  0.9414654E-001  0.1884662E+03  0.7546771E-02  0.1159852E+00
         -2   -1    0    0    0  501 -0.00000000000E+00  0.00000000000E+00  0.13429443864E+02  0.13429443864E+02  0.00000000000E+00 0. -1.
          2   -1    0    0  502    0  0.00000000000E+00 -0.00000000000E+00 -0.36056210979E+04  0.36056210979E+04  0.00000000000E+00 0.  1.
          6    1    1    2  502    0  0.47624553202E+02 -0.57640339982E+02 -0.27301536567E+04  0.27366509635E+04  0.17300000000E+03 0.  1.
         -6    1    1    2    0  501 -0.47624553202E+02  0.57640339982E+02 -0.86203799732E+03  0.88239957824E+03  0.17300000000E+03 0. -1.
<mgrwt>
<rscale>  2 0.18846620E+03</rscale>
<asrwt>0</asrwt>
<pdfrwt beam="1">  1        2 0.55471154E+00 0.18846620E+03</pdfrwt>
<pdfrwt beam="2">  1       -2 0.20660660E-02 0.18846620E+03</pdfrwt>
<totfact> 0.65063764E+02</totfact>
</mgrwt>
</event>
<event>
 4    2  0.9414654E-001  0.1785394E+03  0.7546771E-02  0.1169224E+00
          1   -1    0    0  502    0  0.00000000000E+00  0.00000000000E+00  0.25039079666E+03  0.25039079666E+03  0.00000000000E+00 0.  1.
         -1   -1    0    0    0  501 -0.00000000000E+00 -0.00000000000E+00 -0.15333895039E+03  0.15333895039E+03  0.00000000000E+00 0. -1.
          6    1    1    2  502    0 -0.15679101406E+02  0.41248880729E+02 -0.34649385284E+02  0.18187051516E+03  0.17300000000E+03 0. -1.
         -6    1    1    2    0  501  0.15679101406E+02 -0.41248880729E+02  0.13170123156E+03  0.22185923189E+03  0.17300000000E+03 0.  1.
<mgrwt>
<rscale>  2 0.17853936E+03</rscale>
<asrwt>0</asrwt>
<pdfrwt beam="1">  1        1 0.38521661E-01 0.17853936E+03</pdfrwt>
<pdfrwt beam="2">  1       -1 0.23590608E-01 0.17853936E+03</pdfrwt>
<totfact> 0.16721398E+03</totfact>
</mgrwt>
</event>
<event>
 4    2  0.9414654E-001  0.2848035E+03  0.7546771E-02  0.1093094E+00
          1   -1    0    0  502    0  0.00000000000E+00  0.00000000000E+00  0.87984289823E+02  0.87984289823E+02  0.00000000000E+00 0. -1.
         -1   -1    0    0    0  501 -0.00000000000E+00 -0.00000000000E+00 -0.99862399425E+03  0.99862399425E+03  0.00000000000E+00 0.  1.
          6    1    1    2  502    0  0.28008308476E+02  0.22449847339E+03 -0.30472936184E+03  0.41710072388E+03  0.17300000000E+03 0. -1.
         -6    1    1    2    0  501 -0.28008308476E+02 -0.22449847339E+03 -0.60591034258E+03  0.66950756018E+03  0.17300000000E+03 0.  1.
<mgrwt>
<rscale>  2 0.28480349E+03</rscale>
<asrwt>0</asrwt>
<pdfrwt beam="1">  1        1 0.13536045E-01 0.28480349E+03</pdfrwt>
<pdfrwt beam="2">  1       -1 0.15363445E+00 0.28480349E+03</pdfrwt>
<totfact> 0.15181546E+02</totfact>
</mgrwt>
</event>
<event>
 4    2  0.9414654E-001  0.1778940E+03  0.7546771E-02  0.1169857E+00
         -2   -1    0    0    0  501 -0.00000000000E+00  0.00000000000E+00  0.43293905659E+03  0.43293905659E+03  0.00000000000E+00 0.  1.
          2   -1    0    0  502    0  0.00000000000E+00 -0.00000000000E+00 -0.74192864427E+02  0.74192864427E+02  0.00000000000E+00 0. -1.
          6    1    1    2  502    0 -0.28931574260E+02 -0.29668961155E+02  0.14854770290E+03  0.23176001226E+03  0.17300000000E+03 0.  1.
         -6    1    1    2    0  501  0.28931574260E+02  0.29668961155E+02  0.21019848926E+03  0.27537190876E+03  0.17300000000E+03 0.  1.
<mgrwt>
<rscale>  2 0.17789402E+03</rscale>
<asrwt>0</asrwt>
<pdfrwt beam="1">  1        2 0.11414287E-01 0.17789402E+03</pdfrwt>
<pdfrwt beam="2">  1       -2 0.66606007E-01 0.17789402E+03</pdfrwt>
<totfact> 0.11366455E+03</totfact>
</mgrwt>
</event>
<event>
 4    2  0.9414654E-001  0.2352302E+03  0.7546771E-02  0.1123012E+00
         -2   -1    0    0    0  501 -0.00000000000E+00  0.00000000000E+00  0.55262347840E+02  0.55262347840E+02  0.00000000000E+00 0. -1.
          2   -1    0    0  502    0  0.00000000000E+00 -0.00000000000E+00 -0.13950408711E+04  0.13950408711E+04  0.00000000000E+00 0.  1.
          6    1    1    2  502    0  0.51669852897E+02 -0.15077958883E+03 -0.28463283948E+03  0.36925480555E+03  0.17300000000E+03 0. -1.
         -6    1    1    2    0  501 -0.51669852897E+02  0.15077958883E+03 -0.10551456838E+04  0.10810484134E+04  0.17300000000E+03 0.  1.
<mgrwt>
<rscale>  2 0.23523022E+03</rscale>
<asrwt>0</asrwt>
<pdfrwt beam="1">  1        2 0.21462167E+00 0.23523022E+03</pdfrwt>
<pdfrwt beam="2">  1       -2 0.85018999E-02 0.23523022E+03</pdfrwt>
<totfact> 0.13396286E+03</totfact>
</mgrwt>
</event>
<event>
 4    2  0.9414654E-001  0.2415444E+03  0.7546771E-02  0.1118768E+00
          2   -1    0    0  502    0  0.00000000000E+00  0.00000000000E+00  0.12376889438E+04  0.12376889438E+04  0.00000000000E+00 0.  1.
         -2   -1    0    0    0  501 -0.00000000000E+00 -0.00000000000E+00 -0.47146535673E+02  0.47146535673E+02  0.00000000000E+00 0. -1.
          6    1    1    2  502    0 -0.10809174735E+03  0.12934780947E+03  0.60327790391E+03  0.64983683414E+03  0.17300000000E+03 0. -1.
         -6    1    1    2    0  501  0.10809174735E+03 -0.12934780947E+03  0.58726450421E+03  0.63499864533E+03  0.17300000000E+03 0.  1.
<mgrwt>
<rscale>  2 0.24154437E+03</rscale>
<asrwt>0</asrwt>
<pdfrwt beam="1">  1        2 0.19041366E+00 0.24154437E+03</pdfrwt>
<pdfrwt beam="2">  1       -2 0.72533141E-02 0.24154437E+03</pdfrwt>
<totfact> 0.20960370E+03</totfact>
</mgrwt>
</event>
<event>
 4    2  0.9414654E-001  0.2024379E+03  0.7546771E-02  0.1147698E+00
         -2   -1    0    0    0  501 -0.00000000000E+00  0.00000000000E+00  0.18145606016E+03  0.18145606016E+03  0.00000000000E+00 0.  1.
          2   -1    0    0  502    0  0.00000000000E+00 -0.00000000000E+00 -0.43990781603E+03  0.43990781603E+03  0.00000000000E+00 0. -1.
          6    1    1    2  502    0 -0.10467848454E+03 -0.97228739360E+01  0.87497021665E+02  0.22053763444E+03  0.17300000000E+03 0.  1.
         -6    1    1    2    0  501  0.10467848454E+03  0.97228739360E+01 -0.34594877753E+03  0.40082624175E+03  0.17300000000E+03 0. -1.
<mgrwt>
<rscale>  2 0.20243794E+03</rscale>
<asrwt>0</asrwt>
<pdfrwt beam="1">  1        2 0.67678126E-01 0.20243794E+03</pdfrwt>
<pdfrwt beam="2">  1       -2 0.27916317E-01 0.20243794E+03</pdfrwt>
<totfact> 0.83885239E+02</totfact>
</mgrwt>
</event>
<event>
 4    2  0.9414654E-001  0.1854757E+03  0.7546771E-02  0.1162606E+00
          1   -1    0    0  502    0  0.00000000000E+00  0.00000000000E+00  0.91990631435E+02  0.91990631435E+02  0.00000000000E+00 0.  1.
         -1   -1    0    0    0  501 -0.00000000000E+00 -0.00000000000E+00 -0.38516570781E+03  0.38516570781E+03  0.00000000000E+00 0. -1.
          6    1    1    2  502    0 -0.54000030783E+02  0.39449043393E+02 -0.10590206680E+03  0.21358014445E+03  0.17300000000E+03 0.  1.
         -6    1    1    2    0  501  0.54000030783E+02 -0.39449043393E+02 -0.18727300957E+03  0.26357619480E+03  0.17300000000E+03 0. -1.
<mgrwt>
<rscale>  2 0.18547569E+03</rscale>
<asrwt>0</asrwt>
<pdfrwt beam="1">  1        1 0.14152405E-01 0.18547569E+03</pdfrwt>
<pdfrwt beam="2">  1       -1 0.59256262E-01 0.18547569E+03</pdfrwt>
<totfact> 0.11883196E+03</totfact>
</mgrwt>
</event>
<event>
 4    2  0.9414654E-001  0.1851464E+03  0.7546771E-02  0.1162913E+00
          2   -1    0    0  502    0  0.00000000000E+00  0.00000000000E+00  0.33310219342E+02  0.33310219342E+02  0.00000000000E+00 0.  1.
         -2   -1    0    0    0  501 -0.00000000000E+00 -0.00000000000E+00 -0.10663938735E+04  0.10663938735E+04  0.00000000000E+00 0. -1.
          6    1    1    2  502    0  0.64210841175E+02  0.15072124291E+02 -0.61938280228E+03  0.64646288123E+03  0.17300000000E+03 0.  1.
         -6    1    1    2    0  501 -0.64210841175E+02 -0.15072124291E+02 -0.41370085189E+03  0.45324121162E+03  0.17300000000E+03 0.  1.
<mgrwt>
<rscale>  2 0.18514643E+03</rscale>
<asrwt>0</asrwt>
<pdfrwt beam="1">  1        2 0.51246489E-02 0.18514643E+03</pdfrwt>
<pdfrwt beam="2">  1       -2 0.16406060E+00 0.18514643E+03</pdfrwt>
<totfact> 0.37804785E+02</totfact>
</mgrwt>
</event>
<event>
 4    2  0.9414654E-001  0.1912417E+03  0.7546771E-02  0.1157346E+00
          2   -1    0    0  502    0  0.00000000000E+00  0.00000000000E+00  0.92880320634E+02  0.92880320634E+02  0.00000000000E+00 0.  1.
         -2   -1    0    0    0  501 -0.00000000000E+00 -0.00000000000E+00 -0.44602142683E+03  0.44602142683E+03  0.00000000000E+00 0. -1.
          6    1    1    2  502    0 -0.78553926322E+02  0.21763660786E+02 -0.84344074719E+02  0.20901506934E+03  0.17300000000E+03 0.  1.
         -6    1    1    2    0  501  0.78553926322E+02 -0.21763660786E+02 -0.26879703147E+03  0.32988667812E+03  0.17300000000E+03 0. -1.
<mgrwt>
<rscale>  2 0.19124167E+03</rscale>
<asrwt>0</asrwt>
<pdfrwt beam="1">  1        2 0.14289280E-01 0.19124167E+03</pdfrwt>
<pdfrwt beam="2">  1       -2 0.68618679E-01 0.19124167E+03</pdfrwt>
<totfact> 0.81612847E+02</totfact>
</mgrwt>
</event>
<event>
 4    2  0.9414654E-001  0.2026960E+03  0.7546771E-02  0.1147484E+00
         -2   -1    0    0    0  501 -0.00000000000E+00  0.00000000000E+00  0.31802857023E+03  0.31802857023E+03  0.00000000000E+00 0.  1.
          2   -1    0    0  502    0  0.00000000000E+00 -0.00000000000E+00 -0.12963132754E+03  0.12963132754E+03  0.00000000000E+00 0. -1.
          6    1    1    2  502    0 -0.73099706001E+02  0.76243784982E+02  0.81118650443E+02  0.21832525556E+03  0.17300000000E+03 0. -1.
         -6    1    1    2    0  501  0.73099706001E+02 -0.76243784982E+02  0.10727859224E+03  0.22933464221E+03  0.17300000000E+03 0. -1.
<mgrwt>
<rscale>  2 0.20269603E+03</rscale>
<asrwt>0</asrwt>
<pdfrwt beam="1">  1        2 0.19943281E-01 0.20269603E+03</pdfrwt>
<pdfrwt beam="2">  1       -2 0.48927472E-01 0.20269603E+03</pdfrwt>
<totfact> 0.11096030E+03</totfact>
</mgrwt>
</event>
<event>
 4    2  0.9414654E-001  0.2825548E+03  0.7546771E-02  0.1094302E+00
         -1   -1    0    0    0  501 -0.00000000000E+00  0.00000000000E+00  0.92372041357E+02  0.92372041357E+02  0.00000000000E+00 0.  1.
          1   -1    0    0  502    0  0.00000000000E+00 -0.00000000000E+00 -0.86510592435E+03  0.86510592435E+03  0.00000000000E+00 0. -1.
          6    1    1    2  502    0  0.57505505967E+02  0.21587339330E+03 -0.37175977569E+03  0.46695024999E+03  0.17300000000E+03 0.  1.
         -6    1    1    2    0  501 -0.57505505967E+02 -0.21587339330E+03 -0.40097410731E+03  0.49052771571E+03  0.17300000000E+03 0.  1.
<mgrwt>
<rscale>  2 0.28255478E+03</rscale>
<asrwt>0</asrwt>
<pdfrwt beam="1">  1        1 0.13309321E+00 0.28255478E+03</pdfrwt>
<pdfrwt beam="2">  1       -1 0.14211084E-01 0.28255478E+03</pdfrwt>
<totfact> 0.71540691E+02</totfact>
</mgrwt>
</event>
<event>
 4    2  0.9414654E-001  0.2033669E+03  0.7546771E-02  0.1146929E+00
          1   -1    0    0  502    0  0.00000000000E+00  0.00000000000E+00  0.84234945986E+03  0.84234945986E+03  0.00000000000E+00 0. -1.
         -1   -1    0    0    0  501 -0.00000000000E+00 -0.00000000000E+00 -0.61906855709E+02  0.61906855709E+02  0.00000000000E+00 0.  1.
          6    1    1    2  502    0  0.69490406064E+02 -0.81241408818E+02  0.18456637839E+03  0.27463217414E+03  0.17300000000E+03 0.  1.
         -6    1    1    2    0  501 -0.69490406064E+02  0.81241408818E+02  0.59587622576E+03  0.62962414143E+03  0.17300000000E+03 0. -1.
<mgrwt>
<rscale>  2 0.20336687E+03</rscale>
<asrwt>0</asrwt>
<pdfrwt beam="1">  1        1 0.12959222E+00 0.20336687E+03</pdfrwt>
<pdfrwt beam="2">  1       -1 0.95241322E-02 0.20336687E+03</pdfrwt>
<totfact> 0.13964679E+03</totfact>
</mgrwt>
</event>
<event>
 4    2  0.9414654E-001  0.2703704E+03  0.7546771E-02  0.1101068E+00
         -1   -1    0    0    0  501 -0.00000000000E+00  0.00000000000E+00  0.22733124449E+03  0.22733124449E+03  0.00000000000E+00 0.  1.
          1   -1    0    0  502    0  0.00000000000E+00 -0.00000000000E+00 -0.34145209509E+03  0.34145209509E+03  0.00000000000E+00 0. -1.
          6    1    1    2  502    0 -0.15899992370E+03 -0.13375414468E+03  0.11585644376E+02  0.27061850290E+03  0.17300000000E+03 0.  1.
         -6    1    1    2    0  501  0.15899992370E+03  0.13375414468E+03 -0.12570649498E+03  0.29816483669E+03  0.17300000000E+03 0.  1.
<mgrwt>
<rscale>  2 0.27037039E+03</rscale>
<asrwt>0</asrwt>
<pdfrwt beam="1">  1        1 0.52531091E-01 0.27037039E+03</pdfrwt>
<pdfrwt beam="2">  1       -1 0.34974038E-01 0.27037039E+03</pdfrwt>
<totfact> 0.58420058E+02</totfact>
</mgrwt>
</event>
<event>
 4    2  0.9414654E-001  0.1810506E+03  0.7546771E-02  0.1166790E+00
         -1   -1    0    0    0  501 -0.00000000000E+00  0.00000000000E+00  0.54763451845E+02  0.54763451845E+02  0.00000000000E+00 0.  1.
          1   -1    0    0  502    0  0.00000000000E+00 -0.00000000000E+00 -0.62423097662E+03  0.62423097662E+03  0.00000000000E+00 0. -1.
          6    1    1    2  502    0  0.39277406720E+02  0.36160997762E+02 -0.21588976049E+03  0.28175826717E+03  0.17300000000E+03 0.  1.
         -6    1    1    2    0  501 -0.39277406720E+02 -0.36160997762E+02 -0.35357776429E+03  0.39723616129E+03  0.17300000000E+03 0.  1.
<mgrwt>
<rscale>  2 0.18105064E+03</rscale>
<asrwt>0</asrwt>
<pdfrwt beam="1">  1        1 0.96035536E-01 0.18105064E+03</pdfrwt>
<pdfrwt beam="2">  1       -1 0.84251464E-02 0.18105064E+03</pdfrwt>
<totfact> 0.26126849E+03</totfact>
</mgrwt>
</event>
<event>
 4    2  0.9414654E-001  0.2291645E+03  0.7546771E-02  0.1127229E+00
         -1   -1    0    0    0  501 -0.00000000000E+00  0.00000000000E+00  0.64986517260E+02  0.64986517260E+02  0.00000000000E+00 0.  1.
          1   -1    0    0  502    0  0.00000000000E+00 -0.00000000000E+00 -0.81348694683E+03  0.81348694683E+03  0.00000000000E+00 0. -1.
          6    1    1    2  502    0 -0.61635957759E+02  0.13707063113E+03 -0.33854494304E+03  0.40881417254E+03  0.17300000000E+03 0.  1.
         -6    1    1    2    0  501  0.61635957759E+02 -0.13707063113E+03 -0.40995548652E+03  0.46965929155E+03  0.17300000000E+03 0. -1.
<mgrwt>
<rscale>  2 0.22916446E+03</rscale>
<asrwt>0</asrwt>
<pdfrwt beam="1">  1        1 0.12515183E+00 0.22916446E+03</pdfrwt>
<pdfrwt beam="2">  1       -1 0.99979262E-02 0.22916446E+03</pdfrwt>
<totfact> 0.13687523E+03</totfact>
</mgrwt>
</event>
<event>
 4    2  0.9414654E-001  0.2158116E+03  0.7546771E-02  0.1137045E+00
         -2   -1    0    0    0  501 -0.00000000000E+00  0.00000000000E+00  0.46690766032E+02  0.46690766032E+02  0.00000000000E+00 0. -1.
          2   -1    0    0  502    0  0.00000000000E+00 -0.00000000000E+00 -0.10740568775E+04  0.10740568775E+04  0.00000000000E+00 0.  1.
          6    1    1    2  502    0  0.10241556238E+03 -0.78464507719E+02 -0.36408683388E+03  0.42324206903E+03  0.17300000000E+03 0. -1.
         -6    1    1    2    0  501 -0.10241556238E+03  0.78464507719E+02 -0.66327927753E+03  0.69750557445E+03  0.17300000000E+03 0. -1.
<mgrwt>
<rscale>  2 0.21581155E+03</rscale>
<asrwt>0</asrwt>
<pdfrwt beam="1">  1        2 0.16523951E+00 0.21581155E+03</pdfrwt>
<pdfrwt beam="2">  1       -2 0.71831951E-02 0.21581155E+03</pdfrwt>
<totfact> 0.26399978E+03</totfact>
</mgrwt>
</event>
<event>
 4    2  0.9414654E-001  0.1834953E+03  0.7546771E-02  0.1164463E+00
          2   -1    0    0  502    0  0.00000000000E+00  0.00000000000E+00  0.26508950624E+03  0.26508950624E+03  0.00000000000E+00 0.  1.
         -2   -1    0    0    0  501 -0.00000000000E+00 -0.00000000000E+00 -0.13152423835E+03  0.13152423835E+03  0.00000000000E+00 0. -1.
          6    1    1    2  502    0  0.88407570951E+01 -0.60525712611E+02  0.10349854114E+03  0.21067147147E+03  0.17300000000E+03 0. -1.
         -6    1    1    2    0  501 -0.88407570951E+01  0.60525712611E+02  0.30066726753E+02  0.18594227311E+03  0.17300000000E+03 0. -1.
<mgrwt>
<rscale>  2 0.18349529E+03</rscale>
<asrwt>0</asrwt>
<pdfrwt beam="1">  1        2 0.40783001E-01 0.18349529E+03</pdfrwt>
<pdfrwt beam="2">  1       -2 0.20234498E-01 0.18349529E+03</pdfrwt>
<totfact> 0.25336720E+03</totfact>
</mgrwt>
</event>
<event>
 4    2  0.9414654E-001  0.1738733E+03  0.7546771E-02  0.1173868E+00
          1   -1    0    0  502    0  0.00000000000E+00  0.00000000000E+00  0.87428222314E+03  0.87428222314E+03  0.00000000000E+00 0. -1.
         -1   -1    0    0    0  501 -0.00000000000E+00 -0.00000000000E+00 -0.34633006540E+02  0.34633006540E+02  0.00000000000E+00 0.  1.
          6    1    1    2  502    0 -0.11901235778E+02 -0.12700043580E+02  0.43774689458E+03  0.47101409134E+03  0.17300000000E+03 0. -1.
         -6    1    1    2    0  501  0.11901235778E+02  0.12700043580E+02  0.40190232202E+03  0.43790113834E+03  0.17300000000E+03 0.  1.
<mgrwt>
<rscale>  2 0.17387332E+03</rscale>
<asrwt>0</asrwt>
<pdfrwt beam="1">  1        1 0.13450494E+00 0.17387332E+03</pdfrwt>
<pdfrwt beam="2">  1       -1 0.53281555E-02 0.17387332E+03</pdfrwt>
<totfact> 0.31642016E+03</totfact>
</mgrwt>
</event>
<event>
 4    2  0.9414654E-001  0.1904672E+03  0.7546771E-02  0.1158041E+00
         -2   -1    0    0    0  501 -0.00000000000E+00  0.00000000000E+00  0.55979019197E+02  0.55979019197E+02  0.00000000000E+00 0. -1.
          2   -1    0    0  502    0  0.00000000000E+00 -0.00000000000E+00 -0.97547044839E+03  0.97547044839E+03  0.00000000000E+00 0.  1.
          6    1    1    2  502    0 -0.64468777108E+02 -0.46824634806E+02 -0.75852954630E+03  0.78207726105E+03  0.17300000000E+03 0.  1.
         -6    1    1    2    0  501  0.64468777108E+02  0.46824634806E+02 -0.16096188289E+03  0.24937220653E+03  0.17300000000E+03 0. -1.
<mgrwt>
<rscale>  2 0.19046724E+03</rscale>
<asrwt>0</asrwt>
<pdfrwt beam="1">  1        2 0.15007238E+00 0.19046724E+03</pdfrwt>
<pdfrwt beam="2">  1       -2 0.86121566E-02 0.19046724E+03</pdfrwt>
<totfact> 0.22775151E+03</totfact>
</mgrwt>
</event>
<event>
 4    2  0.9414654E-001  0.2060561E+03  0.7546771E-02  0.1144728E+00
         -2   -1    0    0    0  501 -0.00000000000E+00  0.00000000000E+00  0.22207390315E+03  0.22207390315E+03  0.00000000000E+00 0. -1.
          2   -1    0    0  502    0  0.00000000000E+00 -0.00000000000E+00 -0.20244700306E+03  0.20244700306E+03  0.00000000000E+00 0.  1.
          6    1    1    2  502    0  0.49894115467E+02  0.10020332190E+03 -0.40230739036E+02  0.20994675716E+03  0.17300000000E+03 0.  1.
         -6    1    1    2    0  501 -0.49894115467E+02 -0.10020332190E+03  0.59857639128E+02  0.21457414905E+03  0.17300000000E+03 0. -1.
<mgrwt>
<rscale>  2 0.20605613E+03</rscale>
<asrwt>0</asrwt>
<pdfrwt beam="1">  1        2 0.31145693E-01 0.20605613E+03</pdfrwt>
<pdfrwt beam="2">  1       -2 0.34165216E-01 0.20605613E+03</pdfrwt>
<totfact> 0.13428224E+03</totfact>
</mgrwt>
</event>
<event>
 4    2  0.9414654E-001  0.3337958E+03  0.7546771E-02  0.1069470E+00
          2   -1    0    0  502    0  0.00000000000E+00  0.00000000000E+00  0.91387729866E+02  0.91387729866E+02  0.00000000000E+00 0.  1.
         -2   -1    0    0    0  501 -0.00000000000E+00 -0.00000000000E+00 -0.13287899984E+04  0.13287899984E+04  0.00000000000E+00 0. -1.
          6    1    1    2  502    0 -0.11436118456E+03 -0.26155718366E+03 -0.41477351712E+03  0.53240652828E+03  0.17300000000E+03 0. -1.
         -6    1    1    2    0  501  0.11436118456E+03  0.26155718366E+03 -0.82262875138E+03  0.88777119995E+03  0.17300000000E+03 0.  1.
<mgrwt>
<rscale>  2 0.33379581E+03</rscale>
<asrwt>0</asrwt>
<pdfrwt beam="1">  1        2 0.14059651E-01 0.33379581E+03</pdfrwt>
<pdfrwt beam="2">  1       -2 0.20442923E+00 0.33379581E+03</pdfrwt>
<totfact> 0.56664092E+01</totfact>
</mgrwt>
</event>
<event>
 4    2  0.9414654E-001  0.4129397E+03  0.7546771E-02  0.1039389E+00
          2   -1    0    0  502    0  0.00000000000E+00  0.00000000000E+00  0.27316257689E+04  0.27316257689E+04  0.00000000000E+00 0. -1.
         -2   -1    0    0    0  501 -0.00000000000E+00 -0.00000000000E+00 -0.62661441236E+02  0.62661441236E+02  0.00000000000E+00 0.  1.
          6    1    1    2  502    0 -0.16441201810E+03 -0.33698498538E+03  0.12484903795E+04  0.13150085246E+04  0.17300000000E+03 0.  1.
         -6    1    1    2    0  501  0.16441201810E+03  0.33698498538E+03  0.14204739482E+04  0.14792786856E+04  0.17300000000E+03 0. -1.
<mgrwt>
<rscale>  2 0.41293970E+03</rscale>
<asrwt>0</asrwt>
<pdfrwt beam="1">  1        2 0.42025003E+00 0.41293970E+03</pdfrwt>
<pdfrwt beam="2">  1       -2 0.96402238E-02 0.41293970E+03</pdfrwt>
<totfact> 0.20313378E+02</totfact>
</mgrwt>
</event>
<event>
 4    2  0.9414654E-001  0.2226902E+03  0.7546771E-02  0.1131893E+00
         -1   -1    0    0    0  501 -0.00000000000E+00  0.00000000000E+00  0.17157554916E+03  0.17157554916E+03  0.00000000000E+00 0. -1.
          1   -1    0    0  502    0  0.00000000000E+00 -0.00000000000E+00 -0.36257835549E+03  0.36257835549E+03  0.00000000000E+00 0.  1.
          6    1    1    2  502    0  0.11959237666E+03  0.73209334560E+02  0.24784297745E+02  0.22406517944E+03  0.17300000000E+03 0. -1.
         -6    1    1    2    0  501 -0.11959237666E+03 -0.73209334560E+02 -0.21578710407E+03  0.31008872521E+03  0.17300000000E+03 0.  1.
<mgrwt>
<rscale>  2 0.22269024E+03</rscale>
<asrwt>0</asrwt>
<pdfrwt beam="1">  1        1 0.55781285E-01 0.22269024E+03</pdfrwt>
<pdfrwt beam="2">  1       -1 0.26396239E-01 0.22269024E+03</pdfrwt>
<totfact> 0.87519572E+02</totfact>
</mgrwt>
</event>
<event>
 4    2  0.9414654E-001  0.1790595E+03  0.7546771E-02  0.1168716E+00
          1   -1    0    0  502    0  0.00000000000E+00  0.00000000000E+00  0.10598074532E+04  0.10598074532E+04  0.00000000000E+00 0. -1.
         -1   -1    0    0    0  501 -0.00000000000E+00 -0.00000000000E+00 -0.31672252552E+02  0.31672252552E+02  0.00000000000E+00 0.  1.
          6    1    1    2  502    0 -0.95775662263E+01  0.45183756825E+02  0.62959465982E+03  0.65456224863E+03  0.17300000000E+03 0. -1.
         -6    1    1    2    0  501  0.95775662263E+01 -0.45183756825E+02  0.39854054083E+03  0.43691745712E+03  0.17300000000E+03 0. -1.
<mgrwt>
<rscale>  2 0.17905949E+03</rscale>
<asrwt>0</asrwt>
<pdfrwt beam="1">  1        1 0.16304727E+00 0.17905949E+03</pdfrwt>
<pdfrwt beam="2">  1       -1 0.48726551E-02 0.17905949E+03</pdfrwt>
<totfact> 0.26237416E+03</totfact>
</mgrwt>
</event>
<event>
 4    2  0.9414654E-001  0.2766843E+03  0.7546771E-02  0.1097514E+00
         -1   -1    0    0    0  501 -0.00000000000E+00  0.00000000000E+00  0.31924597350E+03  0.31924597350E+03  0.00000000000E+00 0.  1.
          1   -1    0    0  502    0  0.00000000000E+00 -0.00000000000E+00 -0.24105639665E+03  0.24105639665E+03  0.00000000000E+00 0. -1.
          6    1    1    2  502    0  0.25173845084E+01  0.21591396714E+03  0.59345508518E+02  0.28297715069E+03  0.17300000000E+03 0. -1.
         -6    1    1    2    0  501 -0.25173845084E+01 -0.21591396714E+03  0.18844068331E+02  0.27732521945E+03  0.17300000000E+03 0.  1.
<mgrwt>
<rscale>  2 0.27668426E+03</rscale>
<asrwt>0</asrwt>
<pdfrwt beam="1">  1        1 0.37085600E-01 0.27668426E+03</pdfrwt>
<pdfrwt beam="2">  1       -1 0.49114765E-01 0.27668426E+03</pdfrwt>
<totfact> 0.49329593E+02</totfact>
</mgrwt>
</event>
<event>
 4    2  0.9414654E-001  0.2167588E+03  0.7546771E-02  0.1136323E+00
         -2   -1    0    0    0  501 -0.00000000000E+00  0.00000000000E+00  0.13558305633E+03  0.13558305633E+03  0.00000000000E+00 0.  1.
          2   -1    0    0  502    0  0.00000000000E+00 -0.00000000000E+00 -0.35841912347E+03  0.35841912347E+03  0.00000000000E+00 0. -1.
          6    1    1    2  502    0  0.46092226424E+02 -0.12219198355E+03 -0.66442801164E+02  0.22671351968E+03  0.17300000000E+03 0. -1.
         -6    1    1    2    0  501 -0.46092226424E+02  0.12219198355E+03 -0.15639326597E+03  0.26728866011E+03  0.17300000000E+03 0.  1.
<mgrwt>
<rscale>  2 0.21675879E+03</rscale>
<asrwt>0</asrwt>
<pdfrwt beam="1">  1        2 0.55141403E-01 0.21675879E+03</pdfrwt>
<pdfrwt beam="2">  1       -2 0.20858932E-01 0.21675879E+03</pdfrwt>
<totfact> 0.17485291E+03</totfact>
</mgrwt>
</event>
<event>
 4    2  0.9414654E-001  0.2563511E+03  0.7546771E-02  0.1109356E+00
         -2   -1    0    0    0  501 -0.00000000000E+00  0.00000000000E+00  0.55436127190E+02  0.55436127190E+02  0.00000000000E+00 0.  1.
          2   -1    0    0  502    0  0.00000000000E+00 -0.00000000000E+00 -0.13026954570E+04  0.13026954570E+04  0.00000000000E+00 0. -1.
          6    1    1    2  502    0  0.15028447802E+03  0.11489756308E+03 -0.41989360530E+03  0.49196190310E+03  0.17300000000E+03 0. -1.
         -6    1    1    2    0  501 -0.15028447802E+03 -0.11489756308E+03 -0.82736572448E+03  0.86616968105E+03  0.17300000000E+03 0.  1.
<mgrwt>
<rscale>  2 0.25635108E+03</rscale>
<asrwt>0</asrwt>
<pdfrwt beam="1">  1        2 0.20041468E+00 0.25635108E+03</pdfrwt>
<pdfrwt beam="2">  1       -2 0.85286351E-02 0.25635108E+03</pdfrwt>
<totfact> 0.14963124E+03</totfact>
</mgrwt>
</event>
<event>
 4    2  0.9414654E-001  0.2610377E+03  0.7546771E-02  0.1106521E+00
         -1   -1    0    0    0  501 -0.00000000000E+00  0.00000000000E+00  0.15807011954E+03  0.15807011954E+03  0.00000000000E+00 0.  1.
          1   -1    0    0  502    0  0.00000000000E+00 -0.00000000000E+00 -0.11641540069E+04  0.11641540069E+04  0.00000000000E+00 0. -1.
          6    1    1    2  502    0  0.17874447646E+03 -0.79133240943E+02 -0.10276611257E+04  0.10602962072E+04  0.17300000000E+03 0. -1.
         -6    1    1    2    0  501 -0.17874447646E+03  0.79133240943E+02  0.21577238313E+02  0.26192791929E+03  0.17300000000E+03 0.  1.
<mgrwt>
<rscale>  2 0.26103766E+03</rscale>
<asrwt>0</asrwt>
<pdfrwt beam="1">  1        1 0.17910062E+00 0.26103766E+03</pdfrwt>
<pdfrwt beam="2">  1       -1 0.24318480E-01 0.26103766E+03</pdfrwt>
<totfact> 0.17901762E+02</totfact>
</mgrwt>
</event>
<event>
 4    2  0.9414654E-001  0.1873526E+03  0.7546771E-02  0.1160871E+00
          1   -1    0    0  502    0  0.00000000000E+00  0.00000000000E+00  0.29072394740E+03  0.29072394740E+03  0.00000000000E+00 0. -1.
         -1   -1    0    0    0  501 -0.00000000000E+00 -0.00000000000E+00 -0.17882223026E+03  0.17882223026E+03  0.00000000000E+00 0.  1.
          6    1    1    2  502    0 -0.59582453721E+02  0.40273270089E+02 -0.77854072139E+02  0.20288484819E+03  0.17300000000E+03 0.  1.
         -6    1    1    2    0  501  0.59582453721E+02 -0.40273270089E+02  0.18975578928E+03  0.26666132948E+03  0.17300000000E+03 0. -1.
<mgrwt>
<rscale>  2 0.18735262E+03</rscale>
<asrwt>0</asrwt>
<pdfrwt beam="1">  1        1 0.44726761E-01 0.18735262E+03</pdfrwt>
<pdfrwt beam="2">  1       -1 0.27511112E-01 0.18735262E+03</pdfrwt>
<totfact> 0.10766235E+03</totfact>
</mgrwt>
</event>
<event>
 4    2  0.9414654E-001  0.2060756E+03  0.7546771E-02  0.1144712E+00
         -1   -1    0    0    0  501 -0.00000000000E+00  0.00000000000E+00  0.43461957709E+02  0.43461957709E+02  0.00000000000E+00 0.  1.
          1   -1    0    0  502    0  0.00000000000E+00 -0.00000000000E+00 -0.99767609500E+03  0.99767609500E+03  0.00000000000E+00 0. -1.
          6    1    1    2  502    0  0.88849528938E+02  0.68146248148E+02 -0.40236749623E+03  0.45206941055E+03  0.17300000000E+03 0.  1.
         -6    1    1    2    0  501 -0.88849528938E+02 -0.68146248148E+02 -0.55184664106E+03  0.58906864216E+03  0.17300000000E+03 0. -1.
<mgrwt>
<rscale>  2 0.20607559E+03</rscale>
<asrwt>0</asrwt>
<pdfrwt beam="1">  1        1 0.15348863E+00 0.20607559E+03</pdfrwt>
<pdfrwt beam="2">  1       -1 0.66864552E-02 0.20607559E+03</pdfrwt>
<totfact> 0.18159445E+03</totfact>
</mgrwt>
</event>
<event>
 4    2  0.9414654E-001  0.1907947E+03  0.7546771E-02  0.1157746E+00
         -2   -1    0    0    0  501 -0.00000000000E+00  0.00000000000E+00  0.54166174153E+02  0.54166174153E+02  0.00000000000E+00 0. -1.
          2   -1    0    0  502    0  0.00000000000E+00 -0.00000000000E+00 -0.74328559164E+03  0.74328559164E+03  0.00000000000E+00 0.  1.
          6    1    1    2  502    0 -0.35849967810E+02 -0.72030592741E+02 -0.22112677037E+03  0.29206108104E+03  0.17300000000E+03 0. -1.
         -6    1    1    2    0  501  0.35849967810E+02  0.72030592741E+02 -0.46799264712E+03  0.50539068476E+03  0.17300000000E+03 0.  1.
<mgrwt>
<rscale>  2 0.19079472E+03</rscale>
<asrwt>0</asrwt>
<pdfrwt beam="1">  1        2 0.11435163E+00 0.19079472E+03</pdfrwt>
<pdfrwt beam="2">  1       -2 0.83332573E-02 0.19079472E+03</pdfrwt>
<totfact> 0.34113397E+03</totfact>
</mgrwt>
</event>
<event>
 4    2  0.9414654E-001  0.2022585E+03  0.7546771E-02  0.1147847E+00
         -2   -1    0    0    0  501 -0.00000000000E+00  0.00000000000E+00  0.23686322456E+02  0.23686322456E+02  0.00000000000E+00 0.  1.
          2   -1    0    0  502    0  0.00000000000E+00 -0.00000000000E+00 -0.20583815639E+04  0.20583815639E+04  0.00000000000E+00 0. -1.
          6    1    1    2  502    0  0.92742197467E+02  0.48768745352E+02 -0.59970529438E+03  0.63289410316E+03  0.17300000000E+03 0.  1.
         -6    1    1    2    0  501 -0.92742197467E+02 -0.48768745352E+02 -0.14349899471E+04  0.14491737832E+04  0.17300000000E+03 0. -1.
<mgrwt>
<rscale>  2 0.20225851E+03</rscale>
<asrwt>0</asrwt>
<pdfrwt beam="1">  1        2 0.31667411E+00 0.20225851E+03</pdfrwt>
<pdfrwt beam="2">  1       -2 0.36440494E-02 0.20225851E+03</pdfrwt>
<totfact> 0.21977315E+03</totfact>
</mgrwt>
</event>
<event>
 4    2  0.9414654E-001  0.3144126E+03  0.7546771E-02  0.1078250E+00
          2   -1    0    0  502    0  0.00000000000E+00  0.00000000000E+00  0.50429085878E+03  0.50429085878E+03  0.00000000000E+00 0. -1.
         -2   -1    0    0    0  501 -0.00000000000E+00 -0.00000000000E+00 -0.20292225607E+03  0.20292225607E+03  0.00000000000E+00 0.  1.
          6    1    1    2  502    0 -0.68005904846E+01 -0.26245002652E+03  0.21586074815E+03  0.38138055410E+03  0.17300000000E+03 0. -1.
         -6    1    1    2    0  501  0.68005904846E+01  0.26245002652E+03  0.85507854561E+02  0.32583256075E+03  0.17300000000E+03 0.  1.
<mgrwt>
<rscale>  2 0.31441257E+03</rscale>
<asrwt>0</asrwt>
<pdfrwt beam="1">  1        2 0.77583209E-01 0.31441257E+03</pdfrwt>
<pdfrwt beam="2">  1       -2 0.31218809E-01 0.31441257E+03</pdfrwt>
<totfact> 0.58802030E+02</totfact>
</mgrwt>
</event>
<event>
 4    2  0.9414654E-001  0.2331615E+03  0.7546771E-02  0.1124434E+00
          2   -1    0    0  502    0  0.00000000000E+00  0.00000000000E+00  0.23234297686E+03  0.23234297686E+03  0.00000000000E+00 0. -1.
         -2   -1    0    0    0  501 -0.00000000000E+00 -0.00000000000E+00 -0.25565068416E+03  0.25565068416E+03  0.00000000000E+00 0.  1.
          6    1    1    2  502    0  0.74017934072E+01  0.15614263086E+03  0.59380251211E+02  0.24060407717E+03  0.17300000000E+03 0. -1.
         -6    1    1    2    0  501 -0.74017934072E+01 -0.15614263086E+03 -0.82687958503E+02  0.24738958385E+03  0.17300000000E+03 0.  1.
<mgrwt>
<rscale>  2 0.23316155E+03</rscale>
<asrwt>0</asrwt>
<pdfrwt beam="1">  1        2 0.35745073E-01 0.23316155E+03</pdfrwt>
<pdfrwt beam="2">  1       -2 0.39330875E-01 0.23316155E+03</pdfrwt>
<totfact> 0.88907105E+02</totfact>
</mgrwt>
</event>
<event>
 4    2  0.9414654E-001  0.1929459E+03  0.7546771E-02  0.1155831E+00
         -1   -1    0    0    0  501 -0.00000000000E+00  0.00000000000E+00  0.34009349373E+03  0.34009349373E+03  0.00000000000E+00 0. -1.
          1   -1    0    0  502    0  0.00000000000E+00 -0.00000000000E+00 -0.12742277523E+03  0.12742277523E+03  0.00000000000E+00 0.  1.
          6    1    1    2  502    0 -0.46612861179E+02  0.71598695592E+02  0.19409132694E+03  0.27367786763E+03  0.17300000000E+03 0. -1.
         -6    1    1    2    0  501  0.46612861179E+02 -0.71598695592E+02  0.18579391555E+02  0.19383840133E+03  0.17300000000E+03 0. -1.
<mgrwt>
<rscale>  2 0.19294593E+03</rscale>
<asrwt>0</asrwt>
<pdfrwt beam="1">  1        1 0.19603504E-01 0.19294593E+03</pdfrwt>
<pdfrwt beam="2">  1       -1 0.52322075E-01 0.19294593E+03</pdfrwt>
<totfact> 0.98479917E+02</totfact>
</mgrwt>
</event>
<event>
 4    2  0.9414654E-001  0.1818708E+03  0.7546771E-02  0.1166005E+00
          2   -1    0    0  502    0  0.00000000000E+00  0.00000000000E+00  0.13011270980E+04  0.13011270980E+04  0.00000000000E+00 0.  1.
         -2   -1    0    0    0  501 -0.00000000000E+00 -0.00000000000E+00 -0.26306070667E+02  0.26306070667E+02  0.00000000000E+00 0. -1.
          6    1    1    2  502    0  0.22556326810E+02  0.51373110902E+02  0.75909883040E+03  0.78058184626E+03  0.17300000000E+03 0. -1.
         -6    1    1    2    0  501 -0.22556326810E+02 -0.51373110902E+02  0.51572219691E+03  0.54685132238E+03  0.17300000000E+03 0. -1.
<mgrwt>
<rscale>  2 0.18187079E+03</rscale>
<asrwt>0</asrwt>
<pdfrwt beam="1">  1        2 0.20017335E+00 0.18187079E+03</pdfrwt>
<pdfrwt beam="2">  1       -2 0.40470888E-02 0.18187079E+03</pdfrwt>
<totfact> 0.46891434E+03</totfact>
</mgrwt>
</event>
<event>
 4    2  0.9414654E-001  0.1963830E+03  0.7546771E-02  0.1152827E+00
         -2   -1    0    0    0  501 -0.00000000000E+00  0.00000000000E+00  0.50932804589E+02  0.50932804589E+02  0.00000000000E+00 0.  1.
          2   -1    0    0  502    0  0.00000000000E+00 -0.00000000000E+00 -0.75834988211E+03  0.75834988211E+03  0.00000000000E+00 0. -1.
          6    1    1    2  502    0 -0.85742006204E+02  0.35855084156E+02 -0.33794644650E+03  0.39086324896E+03  0.17300000000E+03 0. -1.
         -6    1    1    2    0  501  0.85742006204E+02 -0.35855084156E+02 -0.36947063102E+03  0.41841943774E+03  0.17300000000E+03 0.  1.
<mgrwt>
<rscale>  2 0.19638299E+03</rscale>
<asrwt>0</asrwt>
<pdfrwt beam="1">  1        2 0.11666921E+00 0.19638299E+03</pdfrwt>
<pdfrwt beam="2">  1       -2 0.78358159E-02 0.19638299E+03</pdfrwt>
<totfact> 0.36661462E+03</totfact>
</mgrwt>
</event>
<event>
 4    2  0.9414654E-001  0.1786607E+03  0.7546771E-02  0.1169106E+00
         -1   -1    0    0    0  501 -0.00000000000E+00  0.00000000000E+00  0.25730121273E+02  0.25730121273E+02  0.00000000000E+00 0. -1.
          1   -1    0    0  502    0  0.00000000000E+00 -0.00000000000E+00 -0.12888973168E+04  0.12888973168E+04  0.00000000000E+00 0.  1.
          6    1    1    2  502    0  0.18505089327E+00  0.44616148593E+02 -0.50428415421E+03  0.53499733004E+03  0.17300000000E+03 0. -1.
         -6    1    1    2    0  501 -0.18505089327E+00 -0.44616148593E+02 -0.75888304135E+03  0.77963010807E+03  0.17300000000E+03 0.  1.
<mgrwt>
<rscale>  2 0.17866067E+03</rscale>
<asrwt>0</asrwt>
<pdfrwt beam="1">  1        1 0.19829186E+00 0.17866067E+03</pdfrwt>
<pdfrwt beam="2">  1       -1 0.39584808E-02 0.17866067E+03</pdfrwt>
<totfact> 0.24719616E+03</totfact>
</mgrwt>
</event>
<event>
 4    2  0.9414654E-001  0.3990015E+03  0.7546771E-02  0.1044126E+00
          2   -1    0    0  502    0  0.00000000000E+00  0.00000000000E+00  0.18354738730E+04  0.18354738730E+04  0.00000000000E+00 0.  1.
         -2   -1    0    0    0  501 -0.00000000000E+00 -0.00000000000E+00 -0.96803704721E+02  0.96803704721E+02  0.00000000000E+00 0. -1.
          6    1    1    2  502    0 -0.95218196262E+01 -0.35941966414E+03  0.11809031299E+04  0.12464888135E+04  0.17300000000E+03 0. -1.
         -6    1    1    2    0  501  0.95218196262E+01  0.35941966414E+03  0.55776703845E+03  0.68578876427E+03  0.17300000000E+03 0. -1.
<mgrwt>
<rscale>  2 0.39900145E+03</rscale>
<asrwt>0</asrwt>
<pdfrwt beam="1">  1        2 0.28238057E+00 0.39900145E+03</pdfrwt>
<pdfrwt beam="2">  1       -2 0.14892879E-01 0.39900145E+03</pdfrwt>
<totfact> 0.30891557E+02</totfact>
</mgrwt>
</event>
<event>
 4    2  0.9414654E-001  0.2143170E+03  0.7546771E-02  0.1138192E+00
          1   -1    0    0  502    0  0.00000000000E+00  0.00000000000E+00  0.20809935489E+04  0.20809935489E+04  0.00000000000E+00 0.  1.
         -1   -1    0    0    0  501 -0.00000000000E+00 -0.00000000000E+00 -0.27401774579E+02  0.27401774579E+02  0.00000000000E+00 0. -1.
          6    1    1    2  502    0 -0.12334297863E+03  0.28093946610E+02  0.56186784417E+03  0.60135449988E+03  0.17300000000E+03 0. -1.
         -6    1    1    2    0  501  0.12334297863E+03 -0.28093946610E+02  0.14917239302E+04  0.15070408236E+04  0.17300000000E+03 0.  1.
<mgrwt>
<rscale>  2 0.21431696E+03</rscale>
<asrwt>0</asrwt>
<pdfrwt beam="1">  1        1 0.32015273E+00 0.21431696E+03</pdfrwt>
<pdfrwt beam="2">  1       -1 0.42156593E-02 0.21431696E+03</pdfrwt>
<totfact> 0.68458826E+02</totfact>
</mgrwt>
</event>
<event>
 4    2  0.9414654E-001  0.1786200E+03  0.7546771E-02  0.1169145E+00
          2   -1    0    0  502    0  0.00000000000E+00  0.00000000000E+00  0.10521890971E+03  0.10521890971E+03  0.00000000000E+00 0.  1.
         -2   -1    0    0    0  501 -0.00000000000E+00 -0.00000000000E+00 -0.33089595486E+03  0.33089595486E+03  0.00000000000E+00 0. -1.
          6    1    1    2  502    0  0.26729908949E+02  0.35519473025E+02 -0.49782219634E+02  0.18542758799E+03  0.17300000000E+03 0. -1.
         -6    1    1    2    0  501 -0.26729908949E+02 -0.35519473025E+02 -0.17589482552E+03  0.25068727658E+03  0.17300000000E+03 0. -1.
<mgrwt>
<rscale>  2 0.17862005E+03</rscale>
<asrwt>0</asrwt>
<pdfrwt beam="1">  1        2 0.16187524E-01 0.17862005E+03</pdfrwt>
<pdfrwt beam="2">  1       -2 0.50907071E-01 0.17862005E+03</pdfrwt>
<totfact> 0.13003971E+03</totfact>
</mgrwt>
</event>
<event>
 4    2  0.9414654E-001  0.1977059E+03  0.7546771E-02  0.1151689E+00
          3   -1    0    0  502    0  0.00000000000E+00  0.00000000000E+00  0.83867685899E+03  0.83867685899E+03  0.00000000000E+00 0. -1.
         -3   -1    0    0    0  501 -0.00000000000E+00 -0.00000000000E+00 -0.50995920452E+02  0.50995920452E+02  0.00000000000E+00 0.  1.
          6    1    1    2  502    0 -0.51374982269E+02  0.80741764972E+02  0.52435122485E+03  0.56038542845E+03  0.17300000000E+03 0. -1.
         -6    1    1    2    0  501  0.51374982269E+02 -0.80741764972E+02  0.26332971369E+03  0.32928735099E+03  0.17300000000E+03 0.  1.
<mgrwt>
<rscale>  2 0.19770590E+03</rscale>
<asrwt>0</asrwt>
<pdfrwt beam="1">  1        3 0.12902720E+00 0.19770590E+03</pdfrwt>
<pdfrwt beam="2">  1       -3 0.78455268E-02 0.19770590E+03</pdfrwt>
<totfact> 0.13391014E+02</totfact>
</mgrwt>
</event>
<event>
 4    2  0.9414654E-001  0.1777591E+03  0.7546771E-02  0.1169990E+00
          2   -1    0    0  502    0  0.00000000000E+00  0.00000000000E+00  0.40614425190E+03  0.40614425190E+03  0.00000000000E+00 0.  1.
         -2   -1    0    0    0  501 -0.00000000000E+00 -0.00000000000E+00 -0.83165433443E+02  0.83165433443E+02  0.00000000000E+00 0. -1.
          6    1    1    2  502    0  0.74348637847E+01  0.40174962648E+02  0.22362732609E+03  0.28567023961E+03  0.17300000000E+03 0.  1.
         -6    1    1    2    0  501 -0.74348637847E+01 -0.40174962648E+02  0.99351492363E+02  0.20363944573E+03  0.17300000000E+03 0. -1.
<mgrwt>
<rscale>  2 0.17775912E+03</rscale>
<asrwt>0</asrwt>
<pdfrwt beam="1">  1        2 0.62483730E-01 0.17775912E+03</pdfrwt>
<pdfrwt beam="2">  1       -2 0.12794682E-01 0.17775912E+03</pdfrwt>
<totfact> 0.34260361E+03</totfact>
</mgrwt>
</event>
<event>
 4    2  0.9414654E-001  0.2424054E+03  0.7546771E-02  0.1118201E+00
          2   -1    0    0  502    0  0.00000000000E+00  0.00000000000E+00  0.48898972037E+03  0.48898972037E+03  0.00000000000E+00 0.  1.
         -2   -1    0    0    0  501 -0.00000000000E+00 -0.00000000000E+00 -0.13802033740E+03  0.13802033740E+03  0.00000000000E+00 0. -1.
          6    1    1    2  502    0 -0.11265961587E+03 -0.12704018787E+03  0.28823906741E+03  0.37661938129E+03  0.17300000000E+03 0. -1.
         -6    1    1    2    0  501  0.11265961587E+03  0.12704018787E+03  0.62730315567E+02  0.25039067649E+03  0.17300000000E+03 0.  1.
<mgrwt>
<rscale>  2 0.24240544E+03</rscale>
<asrwt>0</asrwt>
<pdfrwt beam="1">  1        2 0.75229187E-01 0.24240544E+03</pdfrwt>
<pdfrwt beam="2">  1       -2 0.21233898E-01 0.24240544E+03</pdfrwt>
<totfact> 0.12091745E+03</totfact>
</mgrwt>
</event>
<event>
 4    2  0.9414654E-001  0.2071739E+03  0.7546771E-02  0.1143824E+00
          2   -1    0    0  502    0  0.00000000000E+00  0.00000000000E+00  0.62642650108E+03  0.62642650108E+03  0.00000000000E+00 0. -1.
         -2   -1    0    0    0  501 -0.00000000000E+00 -0.00000000000E+00 -0.72863386768E+02  0.72863386768E+02  0.00000000000E+00 0.  1.
          6    1    1    2  502    0  0.27690247133E+02  0.11056798171E+03  0.19138827684E+03  0.28204698346E+03  0.17300000000E+03 0.  1.
         -6    1    1    2    0  501 -0.27690247133E+02 -0.11056798171E+03  0.36217483747E+03  0.41724290439E+03  0.17300000000E+03 0. -1.
<mgrwt>
<rscale>  2 0.20717391E+03</rscale>
<asrwt>0</asrwt>
<pdfrwt beam="1">  1        2 0.96373304E-01 0.20717391E+03</pdfrwt>
<pdfrwt beam="2">  1       -2 0.11209752E-01 0.20717391E+03</pdfrwt>
<totfact> 0.26250337E+03</totfact>
</mgrwt>
</event>
<event>
 4    2  0.9414654E-001  0.3021426E+03  0.7546771E-02  0.1084174E+00
         -2   -1    0    0    0  501 -0.00000000000E+00  0.00000000000E+00  0.15914837719E+03  0.15914837719E+03  0.00000000000E+00 0. -1.
          2   -1    0    0  502    0  0.00000000000E+00 -0.00000000000E+00 -0.79394452037E+03  0.79394452037E+03  0.00000000000E+00 0.  1.
          6    1    1    2  502    0  0.34445809931E+02 -0.24530518054E+03 -0.56843924834E+03  0.64374942677E+03  0.17300000000E+03 0.  1.
         -6    1    1    2    0  501 -0.34445809931E+02  0.24530518054E+03 -0.66356894850E+02  0.30934347078E+03  0.17300000000E+03 0. -1.
<mgrwt>
<rscale>  2 0.30214259E+03</rscale>
<asrwt>0</asrwt>
<pdfrwt beam="1">  1        2 0.12214531E+00 0.30214259E+03</pdfrwt>
<pdfrwt beam="2">  1       -2 0.24484366E-01 0.30214259E+03</pdfrwt>
<totfact> 0.53019509E+02</totfact>
</mgrwt>
</event>
<event>
 4    2  0.9414654E-001  0.1781957E+03  0.7546771E-02  0.1169561E+00
          2   -1    0    0  502    0  0.00000000000E+00  0.00000000000E+00  0.25620155847E+03  0.25620155847E+03  0.00000000000E+00 0.  1.
         -2   -1    0    0    0  501 -0.00000000000E+00 -0.00000000000E+00 -0.12405591540E+03  0.12405591540E+03  0.00000000000E+00 0. -1.
          6    1    1    2  502    0 -0.12030855149E+02  0.40987173650E+02  0.71877878882E+02  0.19214608857E+03  0.17300000000E+03 0. -1.
         -6    1    1    2    0  501  0.12030855149E+02 -0.40987173650E+02  0.60267764195E+02  0.18811138530E+03  0.17300000000E+03 0.  1.
<mgrwt>
<rscale>  2 0.17819565E+03</rscale>
<asrwt>0</asrwt>
<pdfrwt beam="1">  1        2 0.39415624E-01 0.17819565E+03</pdfrwt>
<pdfrwt beam="2">  1       -2 0.19085526E-01 0.17819565E+03</pdfrwt>
<totfact> 0.28991010E+03</totfact>
</mgrwt>
</event>
<event>
 4    2  0.9414654E-001  0.1849669E+03  0.7546771E-02  0.1163081E+00
         -1   -1    0    0    0  501 -0.00000000000E+00  0.00000000000E+00  0.68612104206E+02  0.68612104206E+02  0.00000000000E+00 0.  1.
          1   -1    0    0  502    0  0.00000000000E+00 -0.00000000000E+00 -0.65632776261E+03  0.65632776261E+03  0.00000000000E+00 0. -1.
          6    1    1    2  502    0  0.39445239184E+02 -0.52228483048E+02 -0.11618927758E+03  0.21843234550E+03  0.17300000000E+03 0.  1.
         -6    1    1    2    0  501 -0.39445239184E+02  0.52228483048E+02 -0.47152638083E+03  0.50650752132E+03  0.17300000000E+03 0. -1.
<mgrwt>
<rscale>  2 0.18496687E+03</rscale>
<asrwt>0</asrwt>
<pdfrwt beam="1">  1        1 0.10097350E+00 0.18496687E+03</pdfrwt>
<pdfrwt beam="2">  1       -1 0.10555709E-01 0.18496687E+03</pdfrwt>
<totfact> 0.17245197E+03</totfact>
</mgrwt>
</event>
<event>
 4    2  0.9414654E-001  0.2439820E+03  0.7546771E-02  0.1117168E+00
         -2   -1    0    0    0  501 -0.00000000000E+00  0.00000000000E+00  0.24586207113E+03  0.24586207113E+03  0.00000000000E+00 0.  1.
          2   -1    0    0  502    0  0.00000000000E+00 -0.00000000000E+00 -0.24213067861E+03  0.24213067861E+03  0.00000000000E+00 0. -1.
          6    1    1    2  502    0 -0.14946293791E+03  0.85200051992E+02  0.37449692022E+01  0.24401074456E+03  0.17300000000E+03 0. -1.
         -6    1    1    2    0  501  0.14946293791E+03 -0.85200051992E+02 -0.13576682661E-01  0.24398200518E+03  0.17300000000E+03 0.  1.
<mgrwt>
<rscale>  2 0.24398200E+03</rscale>
<asrwt>0</asrwt>
<pdfrwt beam="1">  1        2 0.37250874E-01 0.24398200E+03</pdfrwt>
<pdfrwt beam="2">  1       -2 0.37824934E-01 0.24398200E+03</pdfrwt>
<totfact> 0.91606352E+02</totfact>
</mgrwt>
</event>
<event>
 4    2  0.9414654E-001  0.2090575E+03  0.7546771E-02  0.1142315E+00
          2   -1    0    0  502    0  0.00000000000E+00  0.00000000000E+00  0.11091029055E+03  0.11091029055E+03  0.00000000000E+00 0.  1.
         -2   -1    0    0    0  501 -0.00000000000E+00 -0.00000000000E+00 -0.56227822961E+03  0.56227822961E+03  0.00000000000E+00 0. -1.
          6    1    1    2  502    0  0.11528897871E+03  0.22010861571E+02 -0.40979121815E+03  0.46003681278E+03  0.17300000000E+03 0. -1.
         -6    1    1    2    0  501 -0.11528897871E+03 -0.22010861571E+02 -0.41576720907E+02  0.21315170738E+03  0.17300000000E+03 0.  1.
<mgrwt>
<rscale>  2 0.20905747E+03</rscale>
<asrwt>0</asrwt>
<pdfrwt beam="1">  1        2 0.17063122E-01 0.20905747E+03</pdfrwt>
<pdfrwt beam="2">  1       -2 0.86504343E-01 0.20905747E+03</pdfrwt>
<totfact> 0.39988355E+02</totfact>
</mgrwt>
</event>
<event>
 4    2  0.9414654E-001  0.1986314E+03  0.7546771E-02  0.1150899E+00
         -3   -1    0    0    0  501 -0.00000000000E+00  0.00000000000E+00  0.51540351784E+02  0.51540351784E+02  0.00000000000E+00 0.  1.
          3   -1    0    0  502    0  0.00000000000E+00 -0.00000000000E+00 -0.10308260547E+04  0.10308260547E+04  0.00000000000E+00 0. -1.
          6    1    1    2  502    0 -0.97496396505E+02  0.44602656611E+01 -0.21508316559E+03  0.29277159941E+03  0.17300000000E+03 0.  1.
         -6    1    1    2    0  501  0.97496396505E+02 -0.44602656611E+01 -0.76420253733E+03  0.78959480707E+03  0.17300000000E+03 0. -1.
<mgrwt>
<rscale>  2 0.19863142E+03</rscale>
<asrwt>0</asrwt>
<pdfrwt beam="1">  1        3 0.15858863E+00 0.19863142E+03</pdfrwt>
<pdfrwt beam="2">  1       -3 0.79292848E-02 0.19863142E+03</pdfrwt>
<totfact> 0.78928944E+01</totfact>
</mgrwt>
</event>
<event>
 4    2  0.9414654E-001  0.4954756E+03  0.7546771E-02  0.1014967E+00
          2   -1    0    0  502    0  0.00000000000E+00  0.00000000000E+00  0.34233211762E+03  0.34233211762E+03  0.00000000000E+00 0. -1.
         -2   -1    0    0    0  501 -0.00000000000E+00 -0.00000000000E+00 -0.89060633778E+03  0.89060633778E+03  0.00000000000E+00 0.  1.
          6    1    1    2  502    0 -0.12062208310E+03 -0.44834967638E+03 -0.20609385570E+01  0.49547993573E+03  0.17300000000E+03 0. -1.
         -6    1    1    2    0  501  0.12062208310E+03  0.44834967638E+03 -0.54621328160E+03  0.73745851968E+03  0.17300000000E+03 0.  1.
<mgrwt>
<rscale>  2 0.49547565E+03</rscale>
<asrwt>0</asrwt>
<pdfrwt beam="1">  1        2 0.52666480E-01 0.49547565E+03</pdfrwt>
<pdfrwt beam="2">  1       -2 0.13701636E+00 0.49547565E+03</pdfrwt>
<totfact> 0.37153577E+01</totfact>
</mgrwt>
</event>
<event>
 4    2  0.9414654E-001  0.1787128E+03  0.7546771E-02  0.1169055E+00
          2   -1    0    0  502    0  0.00000000000E+00  0.00000000000E+00  0.58285698393E+03  0.58285698393E+03  0.00000000000E+00 0. -1.
         -2   -1    0    0    0  501 -0.00000000000E+00 -0.00000000000E+00 -0.70671403609E+02  0.70671403609E+02  0.00000000000E+00 0.  1.
          6    1    1    2  502    0  0.44787724154E+02 -0.18261939017E+01  0.41096516559E+03  0.44814131984E+03  0.17300000000E+03 0. -1.
         -6    1    1    2    0  501 -0.44787724154E+02  0.18261939017E+01  0.10122041473E+03  0.20538706770E+03  0.17300000000E+03 0.  1.
<mgrwt>
<rscale>  2 0.17871283E+03</rscale>
<asrwt>0</asrwt>
<pdfrwt beam="1">  1        2 0.89670302E-01 0.17871283E+03</pdfrwt>
<pdfrwt beam="2">  1       -2 0.10872524E-01 0.17871283E+03</pdfrwt>
<totfact> 0.29833296E+03</totfact>
</mgrwt>
</event>
<event>
 4    2  0.9414654E-001  0.1777953E+03  0.7546771E-02  0.1169954E+00
         -1   -1    0    0    0  501 -0.00000000000E+00  0.00000000000E+00  0.17801462660E+03  0.17801462660E+03  0.00000000000E+00 0. -1.
          1   -1    0    0  502    0  0.00000000000E+00 -0.00000000000E+00 -0.17996786014E+03  0.17996786014E+03  0.00000000000E+00 0.  1.
          6    1    1    2  502    0  0.69360137265E+01  0.40423496872E+02  0.19657256168E+02  0.17887866029E+03  0.17300000000E+03 0. -1.
         -6    1    1    2    0  501 -0.69360137265E+01 -0.40423496872E+02 -0.21610489708E+02  0.17910382646E+03  0.17300000000E+03 0. -1.
<mgrwt>
<rscale>  2 0.17779530E+03</rscale>
<asrwt>0</asrwt>
<pdfrwt beam="1">  1        1 0.27687363E-01 0.17779530E+03</pdfrwt>
<pdfrwt beam="2">  1       -1 0.27386866E-01 0.17779530E+03</pdfrwt>
<totfact> 0.19736781E+03</totfact>
</mgrwt>
</event>
<event>
 4    2  0.9414654E-001  0.1779198E+03  0.7546771E-02  0.1169832E+00
         -1   -1    0    0    0  501 -0.00000000000E+00  0.00000000000E+00  0.64861086860E+02  0.64861086860E+02  0.00000000000E+00 0. -1.
          1   -1    0    0  502    0  0.00000000000E+00 -0.00000000000E+00 -0.67671914538E+03  0.67671914538E+03  0.00000000000E+00 0.  1.
          6    1    1    2  502    0  0.12811726917E+02  0.39526059123E+02 -0.50171177944E+03  0.53232523829E+03  0.17300000000E+03 0.  1.
         -6    1    1    2    0  501 -0.12811726917E+02 -0.39526059123E+02 -0.11014627908E+03  0.20925499395E+03  0.17300000000E+03 0. -1.
<mgrwt>
<rscale>  2 0.17791978E+03</rscale>
<asrwt>0</asrwt>
<pdfrwt beam="1">  1        1 0.10411064E+00 0.17791978E+03</pdfrwt>
<pdfrwt beam="2">  1       -1 0.99786290E-02 0.17791978E+03</pdfrwt>
<totfact> 0.17992743E+03</totfact>
</mgrwt>
</event>
<event>
 4    2  0.9414654E-001  0.1972848E+03  0.7546771E-02  0.1152050E+00
          2   -1    0    0  502    0  0.00000000000E+00  0.00000000000E+00  0.76381180791E+03  0.76381180791E+03  0.00000000000E+00 0.  1.
         -2   -1    0    0    0  501 -0.00000000000E+00 -0.00000000000E+00 -0.87724935186E+02  0.87724935186E+02  0.00000000000E+00 0. -1.
          6    1    1    2  502    0  0.15524812077E+02  0.93548184803E+02  0.62399387609E+02  0.20691777653E+03  0.17300000000E+03 0. -1.
         -6    1    1    2    0  501 -0.15524812077E+02 -0.93548184803E+02  0.61368748511E+03  0.64461896656E+03  0.17300000000E+03 0.  1.
<mgrwt>
<rscale>  2 0.19728478E+03</rscale>
<asrwt>0</asrwt>
<pdfrwt beam="1">  1        2 0.11750950E+00 0.19728478E+03</pdfrwt>
<pdfrwt beam="2">  1       -2 0.13496144E-01 0.19728478E+03</pdfrwt>
<totfact> 0.15308916E+03</totfact>
</mgrwt>
</event>
<event>
 4    2  0.9414654E-001  0.1951015E+03  0.7546771E-02  0.1153939E+00
         -1   -1    0    0    0  501 -0.00000000000E+00  0.00000000000E+00  0.28858656560E+03  0.28858656560E+03  0.00000000000E+00 0.  1.
          1   -1    0    0  502    0  0.00000000000E+00 -0.00000000000E+00 -0.13213759830E+03  0.13213759830E+03  0.00000000000E+00 0. -1.
          6    1    1    2  502    0 -0.88914859823E+02  0.15157542597E+02  0.87142408409E+02  0.21367826922E+03  0.17300000000E+03 0.  1.
         -6    1    1    2    0  501  0.88914859823E+02 -0.15157542597E+02  0.69306558888E+02  0.20704589467E+03  0.17300000000E+03 0. -1.
<mgrwt>
<rscale>  2 0.19510152E+03</rscale>
<asrwt>0</asrwt>
<pdfrwt beam="1">  1        1 0.20328861E-01 0.19510152E+03</pdfrwt>
<pdfrwt beam="2">  1       -1 0.44397933E-01 0.19510152E+03</pdfrwt>
<totfact> 0.12693753E+03</totfact>
</mgrwt>
</event>
<event>
 4    2  0.9414654E-001  0.3187067E+03  0.7546771E-02  0.1076246E+00
         -2   -1    0    0    0  501 -0.00000000000E+00  0.00000000000E+00  0.36105946159E+02  0.36105946159E+02  0.00000000000E+00 0. -1.
          2   -1    0    0  502    0  0.00000000000E+00 -0.00000000000E+00 -0.28888500194E+04  0.28888500194E+04  0.00000000000E+00 0.  1.
          6    1    1    2  502    0 -0.13603642238E+03  0.23051914074E+03 -0.16630037467E+04  0.16932676823E+04  0.17300000000E+03 0.  1.
         -6    1    1    2    0  501  0.13603642238E+03 -0.23051914074E+03 -0.11897403265E+04  0.12316882832E+04  0.17300000000E+03 0.  1.
<mgrwt>
<rscale>  2 0.31870673E+03</rscale>
<asrwt>0</asrwt>
<pdfrwt beam="1">  1        2 0.44443866E+00 0.31870673E+03</pdfrwt>
<pdfrwt beam="2">  1       -2 0.55547585E-02 0.31870673E+03</pdfrwt>
<totfact> 0.39923044E+02</totfact>
</mgrwt>
</event>
<event>
 4    2  0.9414654E-001  0.1890066E+03  0.7546771E-02  0.1159360E+00
          3   -1    0    0  502    0  0.00000000000E+00  0.00000000000E+00  0.51532213674E+03  0.51532213674E+03  0.00000000000E+00 0. -1.
         -3   -1    0    0    0  501 -0.00000000000E+00 -0.00000000000E+00 -0.81119818718E+02  0.81119818718E+02  0.00000000000E+00 0.  1.
          6    1    1    2  502    0 -0.65039883194E+02 -0.39551429734E+02  0.10337420974E+03  0.21542917453E+03  0.17300000000E+03 0.  1.
         -6    1    1    2    0  501  0.65039883194E+02  0.39551429734E+02  0.33082810828E+03  0.38101278092E+03  0.17300000000E+03 0. -1.
<mgrwt>
<rscale>  2 0.18900662E+03</rscale>
<asrwt>0</asrwt>
<pdfrwt beam="1">  1        3 0.79280327E-01 0.18900662E+03</pdfrwt>
<pdfrwt beam="2">  1       -3 0.12479972E-01 0.18900662E+03</pdfrwt>
<totfact> 0.18795812E+02</totfact>
</mgrwt>
</event>
<event>
 4    2  0.9414654E-001  0.1982591E+03  0.7546771E-02  0.1151216E+00
          2   -1    0    0  502    0  0.00000000000E+00  0.00000000000E+00  0.31056710124E+03  0.31056710124E+03  0.00000000000E+00 0. -1.
         -2   -1    0    0    0  501 -0.00000000000E+00 -0.00000000000E+00 -0.12976752311E+03  0.12976752311E+03  0.00000000000E+00 0.  1.
          6    1    1    2  502    0 -0.10586338258E+02 -0.96257938013E+02  0.55807954497E+02  0.20596404777E+03  0.17300000000E+03 0.  1.
         -6    1    1    2    0  501  0.10586338258E+02  0.96257938013E+02  0.12499162363E+03  0.23437057658E+03  0.17300000000E+03 0. -1.
<mgrwt>
<rscale>  2 0.19825908E+03</rscale>
<asrwt>0</asrwt>
<pdfrwt beam="1">  1        2 0.47779554E-01 0.19825908E+03</pdfrwt>
<pdfrwt beam="2">  1       -2 0.19964234E-01 0.19825908E+03</pdfrwt>
<totfact> 0.21937735E+03</totfact>
</mgrwt>
</event>
<event>
 4    2  0.9414654E-001  0.2082229E+03  0.7546771E-02  0.1142981E+00
          1   -1    0    0  502    0  0.00000000000E+00  0.00000000000E+00  0.73918345226E+03  0.73918345226E+03  0.00000000000E+00 0.  1.
         -1   -1    0    0    0  501 -0.00000000000E+00 -0.00000000000E+00 -0.75734777596E+02  0.75734777596E+02  0.00000000000E+00 0. -1.
          6    1    1    2  502    0  0.64953455633E+02  0.95962557832E+02  0.52522309431E+03  0.56499209083E+03  0.17300000000E+03 0.  1.
         -6    1    1    2    0  501 -0.64953455633E+02 -0.95962557832E+02  0.13822558036E+03  0.24992613903E+03  0.17300000000E+03 0. -1.
<mgrwt>
<rscale>  2 0.20822287E+03</rscale>
<asrwt>0</asrwt>
<pdfrwt beam="1">  1        1 0.11372053E+00 0.20822287E+03</pdfrwt>
<pdfrwt beam="2">  1       -1 0.11651505E-01 0.20822287E+03</pdfrwt>
<totfact> 0.12474247E+03</totfact>
</mgrwt>
</event>
<event>
 4    2  0.9414654E-001  0.1858152E+03  0.7546771E-02  0.1162291E+00
          2   -1    0    0  502    0  0.00000000000E+00  0.00000000000E+00  0.21325638938E+04  0.21325638938E+04  0.00000000000E+00 0. -1.
         -2   -1    0    0    0  501 -0.00000000000E+00 -0.00000000000E+00 -0.20629509412E+02  0.20629509412E+02  0.00000000000E+00 0.  1.
          6    1    1    2  502    0 -0.66118874281E+02  0.15052086715E+02  0.15553708736E+04  0.15664309195E+04  0.17300000000E+03 0. -1.
         -6    1    1    2    0  501  0.66118874281E+02 -0.15052086715E+02  0.55656351075E+03  0.58676248376E+03  0.17300000000E+03 0.  1.
<mgrwt>
<rscale>  2 0.18581515E+03</rscale>
<asrwt>0</asrwt>
<pdfrwt beam="1">  1        2 0.32808658E+00 0.18581515E+03</pdfrwt>
<pdfrwt beam="2">  1       -2 0.31737724E-02 0.18581515E+03</pdfrwt>
<totfact> 0.24722204E+03</totfact>
</mgrwt>
</event>
<event>
 4    2  0.9414654E-001  0.2381597E+03  0.7546771E-02  0.1121025E+00
         -2   -1    0    0    0  501 -0.00000000000E+00  0.00000000000E+00  0.33301305936E+03  0.33301305936E+03  0.00000000000E+00 0. -1.
          2   -1    0    0  502    0  0.00000000000E+00 -0.00000000000E+00 -0.18544487991E+03  0.18544487991E+03  0.00000000000E+00 0.  1.
          6    1    1    2  502    0 -0.15950772622E+03  0.36719698397E+02  0.14780722235E+03  0.28029810194E+03  0.17300000000E+03 0. -1.
         -6    1    1    2    0  501  0.15950772622E+03 -0.36719698397E+02 -0.23904290497E+00  0.23815983733E+03  0.17300000000E+03 0.  1.
<mgrwt>
<rscale>  2 0.23815972E+03</rscale>
<asrwt>0</asrwt>
<pdfrwt beam="1">  1        2 0.28529982E-01 0.23815972E+03</pdfrwt>
<pdfrwt beam="2">  1       -2 0.51232778E-01 0.23815972E+03</pdfrwt>
<totfact> 0.67881526E+02</totfact>
</mgrwt>
</event>
<event>
 4    2  0.9414654E-001  0.2634642E+03  0.7546771E-02  0.1105080E+00
          1   -1    0    0  502    0  0.00000000000E+00  0.00000000000E+00  0.10453469820E+03  0.10453469820E+03  0.00000000000E+00 0.  1.
         -1   -1    0    0    0  501 -0.00000000000E+00 -0.00000000000E+00 -0.86114217413E+03  0.86114217413E+03  0.00000000000E+00 0. -1.
          6    1    1    2  502    0 -0.14719799570E+03 -0.13348087999E+03 -0.14729449699E+03  0.30184278044E+03  0.17300000000E+03 0.  1.
         -6    1    1    2    0  501  0.14719799570E+03  0.13348087999E+03 -0.60931297893E+03  0.66383409189E+03  0.17300000000E+03 0. -1.
<mgrwt>
<rscale>  2 0.26346422E+03</rscale>
<asrwt>0</asrwt>
<pdfrwt beam="1">  1        1 0.16082261E-01 0.26346422E+03</pdfrwt>
<pdfrwt beam="2">  1       -1 0.13248341E+00 0.26346422E+03</pdfrwt>
<totfact> 0.17731292E+02</totfact>
</mgrwt>
</event>
<event>
 4    2  0.9414654E-001  0.2255770E+03  0.7546771E-02  0.1129792E+00
         -2   -1    0    0    0  501 -0.00000000000E+00  0.00000000000E+00  0.40270250343E+03  0.40270250343E+03  0.00000000000E+00 0. -1.
          2   -1    0    0  502    0  0.00000000000E+00 -0.00000000000E+00 -0.14147346203E+03  0.14147346203E+03  0.00000000000E+00 0.  1.
          6    1    1    2  502    0  0.13462163094E+03  0.53226109347E+02  0.21954921002E+03  0.31478065038E+03  0.17300000000E+03 0. -1.
         -6    1    1    2    0  501 -0.13462163094E+03 -0.53226109347E+02  0.41679831380E+02  0.22939531507E+03  0.17300000000E+03 0.  1.
<mgrwt>
<rscale>  2 0.22557704E+03</rscale>
<asrwt>0</asrwt>
<pdfrwt beam="1">  1        2 0.21765148E-01 0.22557704E+03</pdfrwt>
<pdfrwt beam="2">  1       -2 0.61954231E-01 0.22557704E+03</pdfrwt>
<totfact> 0.62265996E+02</totfact>
</mgrwt>
</event>
<event>
 4    2  0.9414654E-001  0.1840188E+03  0.7546771E-02  0.1163969E+00
         -2   -1    0    0    0  501 -0.00000000000E+00  0.00000000000E+00  0.10686934620E+03  0.10686934620E+03  0.00000000000E+00 0.  1.
          2   -1    0    0  502    0  0.00000000000E+00 -0.00000000000E+00 -0.31814017997E+03  0.31814017997E+03  0.00000000000E+00 0. -1.
          6    1    1    2  502    0  0.47719718671E+02 -0.40703094420E+02 -0.11910115971E+03  0.21919853943E+03  0.17300000000E+03 0. -1.
         -6    1    1    2    0  501 -0.47719718671E+02  0.40703094420E+02 -0.92169674058E+02  0.20581098674E+03  0.17300000000E+03 0.  1.
<mgrwt>
<rscale>  2 0.18401879E+03</rscale>
<asrwt>0</asrwt>
<pdfrwt beam="1">  1        2 0.48944642E-01 0.18401879E+03</pdfrwt>
<pdfrwt beam="2">  1       -2 0.16441438E-01 0.18401879E+03</pdfrwt>
<totfact> 0.29565651E+03</totfact>
</mgrwt>
</event>
<event>
 4    2  0.9414654E-001  0.2181227E+03  0.7546771E-02  0.1135290E+00
          2   -1    0    0  502    0  0.00000000000E+00  0.00000000000E+00  0.27964053483E+03  0.27964053483E+03  0.00000000000E+00 0. -1.
         -2   -1    0    0    0  501 -0.00000000000E+00 -0.00000000000E+00 -0.29365428459E+03  0.29365428459E+03  0.00000000000E+00 0.  1.
          6    1    1    2  502    0  0.11409218728E+03  0.68055001831E+02  0.17889842760E+03  0.28210309795E+03  0.17300000000E+03 0. -1.
         -6    1    1    2    0  501 -0.11409218728E+03 -0.68055001831E+02 -0.19291217737E+03  0.29119172147E+03  0.17300000000E+03 0.  1.
<mgrwt>
<rscale>  2 0.21812270E+03</rscale>
<asrwt>0</asrwt>
<pdfrwt beam="1">  1        2 0.43021621E-01 0.21812270E+03</pdfrwt>
<pdfrwt beam="2">  1       -2 0.45177582E-01 0.21812270E+03</pdfrwt>
<totfact> 0.55652814E+02</totfact>
</mgrwt>
</event>
<event>
 4    2  0.9414654E-001  0.1989702E+03  0.7546771E-02  0.1150611E+00
         -1   -1    0    0    0  501 -0.00000000000E+00  0.00000000000E+00  0.22083135705E+02  0.22083135705E+02  0.00000000000E+00 0. -1.
          1   -1    0    0  502    0  0.00000000000E+00 -0.00000000000E+00 -0.23844686595E+04  0.23844686595E+04  0.00000000000E+00 0.  1.
          6    1    1    2  502    0 -0.46385413507E+02  0.86651748867E+02 -0.17806163698E+04  0.17916985764E+04  0.17300000000E+03 0.  1.
         -6    1    1    2    0  501  0.46385413507E+02 -0.86651748867E+02 -0.58176915393E+03  0.61485321877E+03  0.17300000000E+03 0. -1.
<mgrwt>
<rscale>  2 0.19897018E+03</rscale>
<asrwt>0</asrwt>
<pdfrwt beam="1">  1        1 0.36684112E+00 0.19897018E+03</pdfrwt>
<pdfrwt beam="2">  1       -1 0.33974074E-02 0.19897018E+03</pdfrwt>
<totfact> 0.60016273E+02</totfact>
</mgrwt>
</event>
<event>
 4    2  0.9414654E-001  0.2090570E+03  0.7546771E-02  0.1142315E+00
         -1   -1    0    0    0  501 -0.00000000000E+00  0.00000000000E+00  0.35231118619E+03  0.35231118619E+03  0.00000000000E+00 0.  1.
          1   -1    0    0  502    0  0.00000000000E+00 -0.00000000000E+00 -0.14346456839E+03  0.14346456839E+03  0.00000000000E+00 0. -1.
          6    1    1    2  502    0  0.67921249974E+02  0.95721021540E+02  0.13237439548E+02  0.20947563097E+03  0.17300000000E+03 0. -1.
         -6    1    1    2    0  501 -0.67921249974E+02 -0.95721021540E+02  0.19560917825E+03  0.28630012361E+03  0.17300000000E+03 0.  1.
<mgrwt>
<rscale>  2 0.20905695E+03</rscale>
<asrwt>0</asrwt>
<pdfrwt beam="1">  1        1 0.22071472E-01 0.20905695E+03</pdfrwt>
<pdfrwt beam="2">  1       -1 0.54201721E-01 0.20905695E+03</pdfrwt>
<totfact> 0.79273708E+02</totfact>
</mgrwt>
</event>
<event>
 4    2  0.9414654E-001  0.2271915E+03  0.7546771E-02  0.1128632E+00
         -2   -1    0    0    0  501 -0.00000000000E+00  0.00000000000E+00  0.54367677121E+02  0.54367677121E+02  0.00000000000E+00 0. -1.
          2   -1    0    0  502    0  0.00000000000E+00 -0.00000000000E+00 -0.20016068903E+04  0.20016068903E+04  0.00000000000E+00 0.  1.
          6    1    1    2  502    0  0.38938886231E+02  0.14202380334E+03 -0.17189545488E+04  0.17339033245E+04  0.17300000000E+03 0.  1.
         -6    1    1    2    0  501 -0.38938886231E+02 -0.14202380334E+03 -0.22828466435E+03  0.32207124298E+03  0.17300000000E+03 0. -1.
<mgrwt>
<rscale>  2 0.22719154E+03</rscale>
<asrwt>0</asrwt>
<pdfrwt beam="1">  1        2 0.30793953E+00 0.22719154E+03</pdfrwt>
<pdfrwt beam="2">  1       -2 0.83642578E-02 0.22719154E+03</pdfrwt>
<totfact> 0.65912219E+02</totfact>
</mgrwt>
</event>
<event>
 4    2  0.9414654E-001  0.2067494E+03  0.7546771E-02  0.1144166E+00
          1   -1    0    0  502    0  0.00000000000E+00  0.00000000000E+00  0.32428812114E+02  0.32428812114E+02  0.00000000000E+00 0.  1.
         -1   -1    0    0    0  501 -0.00000000000E+00 -0.00000000000E+00 -0.13821755718E+04  0.13821755718E+04  0.00000000000E+00 0. -1.
          6    1    1    2  502    0  0.84172891258E+02 -0.75704982523E+02 -0.82712968321E+03  0.85257775765E+03  0.17300000000E+03 0. -1.
         -6    1    1    2    0  501 -0.84172891258E+02  0.75704982523E+02 -0.52261707651E+03  0.56202662629E+03  0.17300000000E+03 0.  1.
<mgrwt>
<rscale>  2 0.20674941E+03</rscale>
<asrwt>0</asrwt>
<pdfrwt beam="1">  1        1 0.49890491E-02 0.20674941E+03</pdfrwt>
<pdfrwt beam="2">  1       -1 0.21264235E+00 0.20674941E+03</pdfrwt>
<totfact> 0.23080494E+02</totfact>
</mgrwt>
</event>
<event>
 4    2  0.9414654E-001  0.1868955E+03  0.7546771E-02  0.1161292E+00
          1   -1    0    0  502    0  0.00000000000E+00  0.00000000000E+00  0.76558795473E+03  0.76558795473E+03  0.00000000000E+00 0. -1.
         -1   -1    0    0    0  501 -0.00000000000E+00 -0.00000000000E+00 -0.12810149438E+03  0.12810149438E+03  0.00000000000E+00 0.  1.
          6    1    1    2  502    0  0.62893708594E+02 -0.32331332451E+02  0.67728907294E+03  0.70260260601E+03  0.17300000000E+03 0. -1.
         -6    1    1    2    0  501 -0.62893708594E+02  0.32331332451E+02 -0.39802612598E+02  0.19108684311E+03  0.17300000000E+03 0.  1.
<mgrwt>
<rscale>  2 0.18689552E+03</rscale>
<asrwt>0</asrwt>
<pdfrwt beam="1">  1        1 0.11778276E+00 0.18689552E+03</pdfrwt>
<pdfrwt beam="2">  1       -1 0.19707923E-01 0.18689552E+03</pdfrwt>
<totfact> 0.51530529E+02</totfact>
</mgrwt>
</event>
<event>
 4    2  0.9414654E-001  0.1969205E+03  0.7546771E-02  0.1152363E+00
          2   -1    0    0  502    0  0.00000000000E+00  0.00000000000E+00  0.18843587456E+03  0.18843587456E+03  0.00000000000E+00 0. -1.
         -2   -1    0    0    0  501 -0.00000000000E+00 -0.00000000000E+00 -0.23888207767E+03  0.23888207767E+03  0.00000000000E+00 0.  1.
          6    1    1    2  502    0  0.73114270911E+02 -0.59186030998E+02 -0.10474926513E+03  0.22304728517E+03  0.17300000000E+03 0.  1.
         -6    1    1    2    0  501 -0.73114270911E+02  0.59186030998E+02  0.54303062021E+02  0.20427066706E+03  0.17300000000E+03 0. -1.
<mgrwt>
<rscale>  2 0.19692050E+03</rscale>
<asrwt>0</asrwt>
<pdfrwt beam="1">  1        2 0.28990135E-01 0.19692050E+03</pdfrwt>
<pdfrwt beam="2">  1       -2 0.36751089E-01 0.19692050E+03</pdfrwt>
<totfact> 0.12663911E+03</totfact>
</mgrwt>
</event>
<event>
 4    2  0.9414654E-001  0.1917118E+03  0.7546771E-02  0.1156926E+00
         -2   -1    0    0    0  501 -0.00000000000E+00  0.00000000000E+00  0.14778212857E+03  0.14778212857E+03  0.00000000000E+00 0. -1.
          2   -1    0    0  502    0  0.00000000000E+00 -0.00000000000E+00 -0.27696643191E+03  0.27696643191E+03  0.00000000000E+00 0.  1.
          6    1    1    2  502    0 -0.80909202153E+02 -0.16676635593E+02 -0.13243813948E+03  0.23300916281E+03  0.17300000000E+03 0.  1.
         -6    1    1    2    0  501  0.80909202153E+02  0.16676635593E+02  0.32538361284E+01  0.19173939767E+03  0.17300000000E+03 0. -1.
<mgrwt>
<rscale>  2 0.19171179E+03</rscale>
<asrwt>0</asrwt>
<pdfrwt beam="1">  1        2 0.42610220E-01 0.19171179E+03</pdfrwt>
<pdfrwt beam="2">  1       -2 0.22735712E-01 0.19171179E+03</pdfrwt>
<totfact> 0.19811911E+03</totfact>
</mgrwt>
</event>
<event>
 4    2  0.9414654E-001  0.1947499E+03  0.7546771E-02  0.1154246E+00
          2   -1    0    0  502    0  0.00000000000E+00  0.00000000000E+00  0.68774501801E+02  0.68774501801E+02  0.00000000000E+00 0. -1.
         -2   -1    0    0    0  501 -0.00000000000E+00 -0.00000000000E+00 -0.74837958599E+03  0.74837958599E+03  0.00000000000E+00 0.  1.
          6    1    1    2  502    0  0.26664258522E+02 -0.85367060620E+02 -0.54937746657E+03  0.58287487379E+03  0.17300000000E+03 0.  1.
         -6    1    1    2    0  501 -0.26664258522E+02  0.85367060620E+02 -0.13022761762E+03  0.23427921400E+03  0.17300000000E+03 0. -1.
<mgrwt>
<rscale>  2 0.19474989E+03</rscale>
<asrwt>0</asrwt>
<pdfrwt beam="1">  1        2 0.10580693E-01 0.19474989E+03</pdfrwt>
<pdfrwt beam="2">  1       -2 0.11513532E+00 0.19474989E+03</pdfrwt>
<totfact> 0.36539680E+02</totfact>
</mgrwt>
</event>
<event>
 4    2  0.9414654E-001  0.1821015E+03  0.7546771E-02  0.1165785E+00
         -1   -1    0    0    0  501 -0.00000000000E+00  0.00000000000E+00  0.19181622362E+02  0.19181622362E+02  0.00000000000E+00 0. -1.
          1   -1    0    0  502    0  0.00000000000E+00 -0.00000000000E+00 -0.18530166109E+04  0.18530166109E+04  0.00000000000E+00 0.  1.
          6    1    1    2  502    0  0.56830779341E+02 -0.14873218572E+01 -0.11592958358E+04  0.11735108796E+04  0.17300000000E+03 0. -1.
         -6    1    1    2    0  501 -0.56830779341E+02  0.14873218572E+01 -0.67453915271E+03  0.69868735365E+03  0.17300000000E+03 0. -1.
<mgrwt>
<rscale>  2 0.18210148E+03</rscale>
<asrwt>0</asrwt>
<pdfrwt beam="1">  1        1 0.28507948E+00 0.18210148E+03</pdfrwt>
<pdfrwt beam="2">  1       -1 0.29510188E-02 0.18210148E+03</pdfrwt>
<totfact> 0.16304615E+03</totfact>
</mgrwt>
</event>
<event>
 4    2  0.9414654E-001  0.1857251E+03  0.7546771E-02  0.1162375E+00
         -1   -1    0    0    0  501 -0.00000000000E+00  0.00000000000E+00  0.24475941951E+02  0.24475941951E+02  0.00000000000E+00 0.  1.
          1   -1    0    0  502    0  0.00000000000E+00 -0.00000000000E+00 -0.15996903711E+04  0.15996903711E+04  0.00000000000E+00 0. -1.
          6    1    1    2  502    0 -0.67279138260E+02  0.61909096634E+01 -0.10677705680E+04  0.10838024708E+04  0.17300000000E+03 0. -1.
         -6    1    1    2    0  501  0.67279138260E+02 -0.61909096634E+01 -0.50744386124E+03  0.54036384235E+03  0.17300000000E+03 0.  1.
<mgrwt>
<rscale>  2 0.18572509E+03</rscale>
<asrwt>0</asrwt>
<pdfrwt beam="1">  1        1 0.24610629E+00 0.18572509E+03</pdfrwt>
<pdfrwt beam="2">  1       -1 0.37655283E-02 0.18572509E+03</pdfrwt>
<totfact> 0.16588229E+03</totfact>
</mgrwt>
</event>
<event>
 4    2  0.9414654E-001  0.1996703E+03  0.7546771E-02  0.1150017E+00
         -1   -1    0    0    0  501 -0.00000000000E+00  0.00000000000E+00  0.49754818895E+03  0.49754818895E+03  0.00000000000E+00 0. -1.
          1   -1    0    0  502    0  0.00000000000E+00 -0.00000000000E+00 -0.90667503219E+02  0.90667503219E+02  0.00000000000E+00 0.  1.
          6    1    1    2  502    0 -0.99690394022E+02 -0.10337158835E+01  0.10317247414E+03  0.22475053426E+03  0.17300000000E+03 0.  1.
         -6    1    1    2    0  501  0.99690394022E+02  0.10337158835E+01  0.30370821159E+03  0.36346515791E+03  0.17300000000E+03 0. -1.
<mgrwt>
<rscale>  2 0.19967034E+03</rscale>
<asrwt>0</asrwt>
<pdfrwt beam="1">  1        1 0.13948847E-01 0.19967034E+03</pdfrwt>
<pdfrwt beam="2">  1       -1 0.76545873E-01 0.19967034E+03</pdfrwt>
<totfact> 0.73204913E+02</totfact>
</mgrwt>
</event>
<event>
 4    2  0.9414654E-001  0.2028804E+03  0.7546771E-02  0.1147331E+00
         -2   -1    0    0    0  501 -0.00000000000E+00  0.00000000000E+00  0.81714447367E+02  0.81714447367E+02  0.00000000000E+00 0.  1.
          2   -1    0    0  502    0  0.00000000000E+00 -0.00000000000E+00 -0.51059304070E+03  0.51059304070E+03  0.00000000000E+00 0. -1.
          6    1    1    2  502    0  0.98050029478E+02 -0.40219832523E+02 -0.18005602492E+03  0.27125747053E+03  0.17300000000E+03 0.  1.
         -6    1    1    2    0  501 -0.98050029478E+02  0.40219832523E+02 -0.24882256841E+03  0.32105001754E+03  0.17300000000E+03 0. -1.
<mgrwt>
<rscale>  2 0.20288037E+03</rscale>
<asrwt>0</asrwt>
<pdfrwt beam="1">  1        2 0.78552775E-01 0.20288037E+03</pdfrwt>
<pdfrwt beam="2">  1       -2 0.12571453E-01 0.20288037E+03</pdfrwt>
<totfact> 0.27547500E+03</totfact>
</mgrwt>
</event>
<event>
 4    2  0.9414654E-001  0.2181737E+03  0.7546771E-02  0.1135252E+00
          1   -1    0    0  502    0  0.00000000000E+00  0.00000000000E+00  0.87190854803E+03  0.87190854803E+03  0.00000000000E+00 0. -1.
         -1   -1    0    0    0  501 -0.00000000000E+00 -0.00000000000E+00 -0.69606252743E+02  0.69606252743E+02  0.00000000000E+00 0.  1.
          6    1    1    2  502    0  0.31433988558E+02  0.12916141650E+03  0.18251800167E+03  0.28445138088E+03  0.17300000000E+03 0. -1.
         -6    1    1    2    0  501 -0.31433988558E+02 -0.12916141650E+03  0.61978429361E+03  0.65706341989E+03  0.17300000000E+03 0. -1.
<mgrwt>
<rscale>  2 0.21817371E+03</rscale>
<asrwt>0</asrwt>
<pdfrwt beam="1">  1        1 0.13413977E+00 0.21817371E+03</pdfrwt>
<pdfrwt beam="2">  1       -1 0.10708655E-01 0.21817371E+03</pdfrwt>
<totfact> 0.11036055E+03</totfact>
</mgrwt>
</event>
<event>
 4    2  0.9414654E-001  0.2211892E+03  0.7546771E-02  0.1133000E+00
          4   -1    0    0  502    0  0.00000000000E+00  0.00000000000E+00  0.10470301431E+03  0.10470301431E+03  0.00000000000E+00 0.  1.
         -4   -1    0    0    0  501 -0.00000000000E+00 -0.00000000000E+00 -0.46972777675E+03  0.46972777675E+03  0.00000000000E+00 0. -1.
          6    1    1    2  502    0 -0.28012034373E+02  0.13494806218E+03 -0.16173974483E+03  0.27401532551E+03  0.17300000000E+03 0.  1.
         -6    1    1    2    0  501  0.28012034373E+02 -0.13494806218E+03 -0.20328501761E+03  0.30041546555E+03  0.17300000000E+03 0. -1.
<mgrwt>
<rscale>  2 0.22118918E+03</rscale>
<asrwt>0</asrwt>
<pdfrwt beam="1">  1        4 0.16108156E-01 0.22118918E+03</pdfrwt>
<pdfrwt beam="2">  1       -4 0.72265811E-01 0.22118918E+03</pdfrwt>
<totfact> 0.10647090E+02</totfact>
</mgrwt>
</event>
<event>
 4    2  0.9414654E-001  0.1838969E+03  0.7546771E-02  0.1164084E+00
         -1   -1    0    0    0  501 -0.00000000000E+00  0.00000000000E+00  0.30044777616E+03  0.30044777616E+03  0.00000000000E+00 0. -1.
          1   -1    0    0  502    0  0.00000000000E+00 -0.00000000000E+00 -0.11749423064E+03  0.11749423064E+03  0.00000000000E+00 0.  1.
          6    1    1    2  502    0 -0.58212996865E+02 -0.22367356096E+02  0.48647692376E+02  0.19022263166E+03  0.17300000000E+03 0. -1.
         -6    1    1    2    0  501  0.58212996865E+02  0.22367356096E+02  0.13430585315E+03  0.22771937514E+03  0.17300000000E+03 0. -1.
<mgrwt>
<rscale>  2 0.18389685E+03</rscale>
<asrwt>0</asrwt>
<pdfrwt beam="1">  1        1 0.18076036E-01 0.18389685E+03</pdfrwt>
<pdfrwt beam="2">  1       -1 0.46222734E-01 0.18389685E+03</pdfrwt>
<totfact> 0.13709024E+03</totfact>
</mgrwt>
</event>
<event>
 4    2  0.9414654E-001  0.1853688E+03  0.7546771E-02  0.1162706E+00
          2   -1    0    0  502    0  0.00000000000E+00  0.00000000000E+00  0.18705022921E+04  0.18705022921E+04  0.00000000000E+00 0.  1.
         -2   -1    0    0    0  501 -0.00000000000E+00 -0.00000000000E+00 -0.47234442676E+02  0.47234442676E+02  0.00000000000E+00 0. -1.
          6    1    1    2  502    0 -0.65895042350E+02 -0.95100038614E+01  0.16206893563E+03  0.24622740846E+03  0.17300000000E+03 0. -1.
         -6    1    1    2    0  501  0.65895042350E+02  0.95100038614E+01  0.16611989138E+04  0.16715093263E+04  0.17300000000E+03 0.  1.
<mgrwt>
<rscale>  2 0.18536881E+03</rscale>
<asrwt>0</asrwt>
<pdfrwt beam="1">  1        2 0.28776953E+00 0.18536881E+03</pdfrwt>
<pdfrwt beam="2">  1       -2 0.72668388E-02 0.18536881E+03</pdfrwt>
<totfact> 0.96666281E+02</totfact>
</mgrwt>
</event>
<event>
 4    2  0.9414654E-001  0.1735007E+03  0.7546771E-02  0.1174246E+00
          2   -1    0    0  502    0  0.00000000000E+00  0.00000000000E+00  0.27552212958E+03  0.27552212958E+03  0.00000000000E+00 0.  1.
         -2   -1    0    0    0  501 -0.00000000000E+00 -0.00000000000E+00 -0.17511317398E+03  0.17511317398E+03  0.00000000000E+00 0. -1.
          6    1    1    2  502    0  0.12443256482E+02  0.43193972387E+01  0.18838180919E+03  0.25610583331E+03  0.17300000000E+03 0.  1.
         -6    1    1    2    0  501 -0.12443256482E+02 -0.43193972387E+01 -0.87972853589E+02  0.19452947024E+03  0.17300000000E+03 0. -1.
<mgrwt>
<rscale>  2 0.17350070E+03</rscale>
<asrwt>0</asrwt>
<pdfrwt beam="1">  1        2 0.42388020E-01 0.17350070E+03</pdfrwt>
<pdfrwt beam="2">  1       -2 0.26940488E-01 0.17350070E+03</pdfrwt>
<totfact> 0.14749091E+03</totfact>
</mgrwt>
</event>
<event>
 4    2  0.9414654E-001  0.1867782E+03  0.7546771E-02  0.1161400E+00
          1   -1    0    0  502    0  0.00000000000E+00  0.00000000000E+00  0.47795283368E+02  0.47795283368E+02  0.00000000000E+00 0. -1.
         -1   -1    0    0    0  501 -0.00000000000E+00 -0.00000000000E+00 -0.10277886757E+04  0.10277886757E+04  0.00000000000E+00 0.  1.
          6    1    1    2  502    0 -0.65104589639E+02  0.26804671969E+02 -0.77952065768E+03  0.80158502592E+03  0.17300000000E+03 0.  1.
         -6    1    1    2    0  501  0.65104589639E+02 -0.26804671969E+02 -0.20047273468E+03  0.27399893318E+03  0.17300000000E+03 0. -1.
<mgrwt>
<rscale>  2 0.18677821E+03</rscale>
<asrwt>0</asrwt>
<pdfrwt beam="1">  1        1 0.73531206E-02 0.18677821E+03</pdfrwt>
<pdfrwt beam="2">  1       -1 0.15812133E+00 0.18677821E+03</pdfrwt>
<totfact> 0.32156950E+02</totfact>
</mgrwt>
</event>
<event>
 4    2  0.9414654E-001  0.2472839E+03  0.7546771E-02  0.1115033E+00
          1   -1    0    0  502    0  0.00000000000E+00  0.00000000000E+00  0.20501052425E+02  0.20501052425E+02  0.00000000000E+00 0.  1.
         -1   -1    0    0    0  501 -0.00000000000E+00 -0.00000000000E+00 -0.30987089998E+04  0.30987089998E+04  0.00000000000E+00 0. -1.
          6    1    1    2  502    0  0.17536657087E+03 -0.21607608517E+02 -0.18408169044E+04  0.18573519318E+04  0.17300000000E+03 0. -1.
         -6    1    1    2    0  501 -0.17536657087E+03  0.21607608517E+02 -0.12373910430E+04  0.12618581205E+04  0.17300000000E+03 0.  1.
<mgrwt>
<rscale>  2 0.24728389E+03</rscale>
<asrwt>0</asrwt>
<pdfrwt beam="1">  1        1 0.31540052E-02 0.24728389E+03</pdfrwt>
<pdfrwt beam="2">  1       -1 0.47672490E+00 0.24728389E+03</pdfrwt>
<totfact> 0.84241027E+00</totfact>
</mgrwt>
</event>
<event>
 4    2  0.9414654E-001  0.2588406E+03  0.7546771E-02  0.1107842E+00
         -1   -1    0    0    0  501 -0.00000000000E+00  0.00000000000E+00  0.78093324983E+02  0.78093324983E+02  0.00000000000E+00 0.  1.
          1   -1    0    0  502    0  0.00000000000E+00 -0.00000000000E+00 -0.10600872126E+04  0.10600872126E+04  0.00000000000E+00 0. -1.
          6    1    1    2  502    0 -0.19219800819E+03  0.11374665063E+02 -0.24247941265E+03  0.35467551778E+03  0.17300000000E+03 0.  1.
         -6    1    1    2    0  501  0.19219800819E+03 -0.11374665063E+02 -0.73951447492E+03  0.78350501975E+03  0.17300000000E+03 0. -1.
<mgrwt>
<rscale>  2 0.25884060E+03</rscale>
<asrwt>0</asrwt>
<pdfrwt beam="1">  1        1 0.16309034E+00 0.25884060E+03</pdfrwt>
<pdfrwt beam="2">  1       -1 0.12014358E-01 0.25884060E+03</pdfrwt>
<totfact> 0.66232389E+02</totfact>
</mgrwt>
</event>
<event>
 4    2  0.9414654E-001  0.1770840E+03  0.7546771E-02  0.1170655E+00
         -2   -1    0    0    0  501 -0.00000000000E+00  0.00000000000E+00  0.87271175446E+02  0.87271175446E+02  0.00000000000E+00 0. -1.
          2   -1    0    0  502    0  0.00000000000E+00 -0.00000000000E+00 -0.49681158967E+03  0.49681158967E+03  0.00000000000E+00 0.  1.
          6    1    1    2  502    0 -0.29527011074E+02  0.23619978691E+02 -0.35840094454E+03  0.39976241047E+03  0.17300000000E+03 0.  1.
         -6    1    1    2    0  501  0.29527011074E+02 -0.23619978691E+02 -0.51139469677E+02  0.18432035464E+03  0.17300000000E+03 0. -1.
<mgrwt>
<rscale>  2 0.17708401E+03</rscale>
<asrwt>0</asrwt>
<pdfrwt beam="1">  1        2 0.76432552E-01 0.17708401E+03</pdfrwt>
<pdfrwt beam="2">  1       -2 0.13426335E-01 0.17708401E+03</pdfrwt>
<totfact> 0.25420850E+03</totfact>
</mgrwt>
</event>
<event>
 4    2  0.9414654E-001  0.2225068E+03  0.7546771E-02  0.1132028E+00
         -1   -1    0    0    0  501 -0.00000000000E+00  0.00000000000E+00  0.97081539506E+02  0.97081539506E+02  0.00000000000E+00 0. -1.
          1   -1    0    0  502    0  0.00000000000E+00 -0.00000000000E+00 -0.74153067485E+03  0.74153067485E+03  0.00000000000E+00 0.  1.
          6    1    1    2  502    0  0.11473807826E+03 -0.80096497219E+02 -0.87913281389E+02  0.23924468754E+03  0.17300000000E+03 0. -1.
         -6    1    1    2    0  501 -0.11473807826E+03  0.80096497219E+02 -0.55653585396E+03  0.59936752682E+03  0.17300000000E+03 0.  1.
<mgrwt>
<rscale>  2 0.22250680E+03</rscale>
<asrwt>0</asrwt>
<pdfrwt beam="1">  1        1 0.11408164E+00 0.22250680E+03</pdfrwt>
<pdfrwt beam="2">  1       -1 0.14935622E-01 0.22250680E+03</pdfrwt>
<totfact> 0.84060699E+02</totfact>
</mgrwt>
</event>
<event>
 4    2  0.9414654E-001  0.1986203E+03  0.7546771E-02  0.1150908E+00
         -3   -1    0    0    0  501 -0.00000000000E+00  0.00000000000E+00  0.10192598097E+03  0.10192598097E+03  0.00000000000E+00 0.  1.
          3   -1    0    0  502    0  0.00000000000E+00 -0.00000000000E+00 -0.38707623894E+03  0.38707623894E+03  0.00000000000E+00 0. -1.
          6    1    1    2  502    0 -0.60867344241E+02 -0.76264060243E+02 -0.14041310883E+03  0.24324037825E+03  0.17300000000E+03 0. -1.
         -6    1    1    2    0  501  0.60867344241E+02  0.76264060243E+02 -0.14473714914E+03  0.24576184167E+03  0.17300000000E+03 0. -1.
<mgrwt>
<rscale>  2 0.19862034E+03</rscale>
<asrwt>0</asrwt>
<pdfrwt beam="1">  1        3 0.59550190E-01 0.19862034E+03</pdfrwt>
<pdfrwt beam="2">  1       -3 0.15680920E-01 0.19862034E+03</pdfrwt>
<totfact> 0.23472311E+02</totfact>
</mgrwt>
</event>
<event>
 4    2  0.9414654E-001  0.2120393E+03  0.7546771E-02  0.1139961E+00
          3   -1    0    0  502    0  0.00000000000E+00  0.00000000000E+00  0.12288323012E+04  0.12288323012E+04  0.00000000000E+00 0.  1.
         -3   -1    0    0    0  501 -0.00000000000E+00 -0.00000000000E+00 -0.43136205616E+02  0.43136205616E+02  0.00000000000E+00 0. -1.
          6    1    1    2  502    0  0.10199500884E+03 -0.68034331208E+02  0.84063753749E+03  0.86696719747E+03  0.17300000000E+03 0. -1.
         -6    1    1    2    0  501 -0.10199500884E+03  0.68034331208E+02  0.34505855804E+03  0.40500130929E+03  0.17300000000E+03 0. -1.
<mgrwt>
<rscale>  2 0.21203927E+03</rscale>
<asrwt>0</asrwt>
<pdfrwt beam="1">  1        3 0.18905110E+00 0.21203927E+03</pdfrwt>
<pdfrwt beam="2">  1       -3 0.66363402E-02 0.21203927E+03</pdfrwt>
<totfact> 0.66746458E+01</totfact>
</mgrwt>
</event>
<event>
 4    2  0.9414654E-001  0.2669436E+03  0.7546771E-02  0.1103042E+00
         -1   -1    0    0    0  501 -0.00000000000E+00  0.00000000000E+00  0.80883499403E+03  0.80883499403E+03  0.00000000000E+00 0.  1.
          1   -1    0    0  502    0  0.00000000000E+00 -0.00000000000E+00 -0.18556483522E+03  0.18556483522E+03  0.00000000000E+00 0. -1.
          6    1    1    2  502    0  0.19035350817E+03 -0.71382183996E+02 -0.48699360816E+02  0.27134940945E+03  0.17300000000E+03 0. -1.
         -6    1    1    2    0  501 -0.19035350817E+03  0.71382183996E+02  0.67196951962E+03  0.72305041980E+03  0.17300000000E+03 0. -1.
<mgrwt>
<rscale>  2 0.26694358E+03</rscale>
<asrwt>0</asrwt>
<pdfrwt beam="1">  1        1 0.28548437E-01 0.26694358E+03</pdfrwt>
<pdfrwt beam="2">  1       -1 0.12443615E+00 0.26694358E+03</pdfrwt>
<totfact> 0.98573430E+01</totfact>
</mgrwt>
</event>
<event>
 4    2  0.9414654E-001  0.1776672E+03  0.7546771E-02  0.1170080E+00
         -2   -1    0    0    0  501 -0.00000000000E+00  0.00000000000E+00  0.17856509211E+03  0.17856509211E+03  0.00000000000E+00 0.  1.
          2   -1    0    0  502    0  0.00000000000E+00 -0.00000000000E+00 -0.21677113377E+03  0.21677113377E+03  0.00000000000E+00 0. -1.
          6    1    1    2  502    0 -0.32039152602E+02 -0.24701036892E+02 -0.10401145774E+03  0.20587382511E+03  0.17300000000E+03 0. -1.
         -6    1    1    2    0  501  0.32039152602E+02  0.24701036892E+02  0.65805416075E+02  0.18946240078E+03  0.17300000000E+03 0.  1.
<mgrwt>
<rscale>  2 0.17766724E+03</rscale>
<asrwt>0</asrwt>
<pdfrwt beam="1">  1        2 0.33349405E-01 0.17766724E+03</pdfrwt>
<pdfrwt beam="2">  1       -2 0.27471553E-01 0.17766724E+03</pdfrwt>
<totfact> 0.18449874E+03</totfact>
</mgrwt>
</event>
<event>
 4    2  0.9414654E-001  0.1855948E+03  0.7546771E-02  0.1162496E+00
          3   -1    0    0  502    0  0.00000000000E+00  0.00000000000E+00  0.20619258880E+03  0.20619258880E+03  0.00000000000E+00 0.  1.
         -3   -1    0    0    0  501 -0.00000000000E+00 -0.00000000000E+00 -0.23401628393E+03  0.23401628393E+03  0.00000000000E+00 0. -1.
          6    1    1    2  502    0  0.57859468361E+02  0.34186574111E+02  0.10382668907E+03  0.21266269370E+03  0.17300000000E+03 0.  1.
         -6    1    1    2    0  501 -0.57859468361E+02 -0.34186574111E+02 -0.13165038421E+03  0.22754617903E+03  0.17300000000E+03 0. -1.
<mgrwt>
<rscale>  2 0.18559483E+03</rscale>
<asrwt>0</asrwt>
<pdfrwt beam="1">  1        3 0.31721937E-01 0.18559483E+03</pdfrwt>
<pdfrwt beam="2">  1       -3 0.36002505E-01 0.18559483E+03</pdfrwt>
<totfact> 0.17831785E+02</totfact>
</mgrwt>
</event>
<event>
 4    2  0.9414654E-001  0.2308218E+03  0.7546771E-02  0.1126063E+00
         -2   -1    0    0    0  501 -0.00000000000E+00  0.00000000000E+00  0.58537558306E+02  0.58537558306E+02  0.00000000000E+00 0.  1.
          2   -1    0    0  502    0  0.00000000000E+00 -0.00000000000E+00 -0.93681710689E+03  0.93681710689E+03  0.00000000000E+00 0. -1.
          6    1    1    2  502    0  0.15102419609E+03 -0.23267907663E+02 -0.35519284842E+03  0.42360437073E+03  0.17300000000E+03 0. -1.
         -6    1    1    2    0  501 -0.15102419609E+03  0.23267907663E+02 -0.52308670017E+03  0.57175029447E+03  0.17300000000E+03 0. -1.
<mgrwt>
<rscale>  2 0.23082180E+03</rscale>
<asrwt>0</asrwt>
<pdfrwt beam="1">  1        2 0.14412571E+00 0.23082180E+03</pdfrwt>
<pdfrwt beam="2">  1       -2 0.90057780E-02 0.23082180E+03</pdfrwt>
<totfact> 0.22492937E+03</totfact>
</mgrwt>
</event>
<event>
 4    2  0.9414654E-001  0.1791486E+03  0.7546771E-02  0.1168630E+00
          2   -1    0    0  502    0  0.00000000000E+00  0.00000000000E+00  0.30815350359E+03  0.30815350359E+03  0.00000000000E+00 0. -1.
         -2   -1    0    0    0  501 -0.00000000000E+00 -0.00000000000E+00 -0.10564837901E+03  0.10564837901E+03  0.00000000000E+00 0.  1.
          6    1    1    2  502    0 -0.39786714237E+02 -0.24129868066E+02  0.76613716213E+02  0.19484325668E+03  0.17300000000E+03 0.  1.
         -6    1    1    2    0  501  0.39786714237E+02  0.24129868066E+02  0.12589140837E+03  0.21895862592E+03  0.17300000000E+03 0. -1.
<mgrwt>
<rscale>  2 0.17914863E+03</rscale>
<asrwt>0</asrwt>
<pdfrwt beam="1">  1        2 0.47408231E-01 0.17914863E+03</pdfrwt>
<pdfrwt beam="2">  1       -2 0.16253597E-01 0.17914863E+03</pdfrwt>
<totfact> 0.31147509E+03</totfact>
</mgrwt>
</event>
<event>
 4    2  0.9414654E-001  0.2273925E+03  0.7546771E-02  0.1128489E+00
          2   -1    0    0  502    0  0.00000000000E+00  0.00000000000E+00  0.55148957215E+03  0.55148957215E+03  0.00000000000E+00 0. -1.
         -2   -1    0    0    0  501 -0.00000000000E+00 -0.00000000000E+00 -0.22604721864E+03  0.22604721864E+03  0.00000000000E+00 0.  1.
          6    1    1    2  502    0 -0.12527531749E+03  0.78002746431E+02 -0.13468589378E+03  0.26428700991E+03  0.17300000000E+03 0.  1.
         -6    1    1    2    0  501  0.12527531749E+03 -0.78002746431E+02  0.46012824729E+03  0.51324978088E+03  0.17300000000E+03 0. -1.
<mgrwt>
<rscale>  2 0.22739247E+03</rscale>
<asrwt>0</asrwt>
<pdfrwt beam="1">  1        2 0.84844549E-01 0.22739247E+03</pdfrwt>
<pdfrwt beam="2">  1       -2 0.34776495E-01 0.22739247E+03</pdfrwt>
<totfact> 0.43630122E+02</totfact>
</mgrwt>
</event>
<event>
 4    2  0.9414654E-001  0.1734795E+03  0.7546771E-02  0.1174267E+00
          2   -1    0    0  502    0  0.00000000000E+00  0.00000000000E+00  0.43815316397E+02  0.43815316397E+02  0.00000000000E+00 0. -1.
         -2   -1    0    0    0  501 -0.00000000000E+00 -0.00000000000E+00 -0.81774800088E+03  0.81774800088E+03  0.00000000000E+00 0.  1.
          6    1    1    2  502    0 -0.14349204883E+01  0.12809418534E+02 -0.55930853773E+03  0.58559472383E+03  0.17300000000E+03 0.  1.
         -6    1    1    2    0  501  0.14349204883E+01 -0.12809418534E+02 -0.21462414676E+03  0.27596859345E+03  0.17300000000E+03 0. -1.
<mgrwt>
<rscale>  2 0.17347951E+03</rscale>
<asrwt>0</asrwt>
<pdfrwt beam="1">  1        2 0.67408175E-02 0.17347951E+03</pdfrwt>
<pdfrwt beam="2">  1       -2 0.12580739E+00 0.17347951E+03</pdfrwt>
<totfact> 0.51882577E+02</totfact>
</mgrwt>
</event>
<event>
 4    2  0.9414654E-001  0.2726650E+03  0.7546771E-02  0.1099764E+00
          1   -1    0    0  502    0  0.00000000000E+00  0.00000000000E+00  0.61998521059E+03  0.61998521059E+03  0.00000000000E+00 0. -1.
         -1   -1    0    0    0  501 -0.00000000000E+00 -0.00000000000E+00 -0.13118370913E+03  0.13118370913E+03  0.00000000000E+00 0.  1.
          6    1    1    2  502    0  0.17820904709E+03 -0.11251097596E+03  0.35447463816E+03  0.44721186621E+03  0.17300000000E+03 0. -1.
         -6    1    1    2    0  501 -0.17820904709E+03  0.11251097596E+03  0.13432686330E+03  0.30395705351E+03  0.17300000000E+03 0.  1.
<mgrwt>
<rscale>  2 0.27266497E+03</rscale>
<asrwt>0</asrwt>
<pdfrwt beam="1">  1        1 0.95382339E-01 0.27266497E+03</pdfrwt>
<pdfrwt beam="2">  1       -1 0.20182109E-01 0.27266497E+03</pdfrwt>
<totfact> 0.66981594E+02</totfact>
</mgrwt>
</event>
<event>
 4    2  0.9414654E-001  0.1921894E+03  0.7546771E-02  0.1156501E+00
         -1   -1    0    0    0  501 -0.00000000000E+00  0.00000000000E+00  0.41324754049E+03  0.41324754049E+03  0.00000000000E+00 0. -1.
          1   -1    0    0  502    0  0.00000000000E+00 -0.00000000000E+00 -0.91976743080E+02  0.91976743080E+02  0.00000000000E+00 0.  1.
          6    1    1    2  502    0  0.54232501074E+02 -0.63769962512E+02  0.20306672059E+03  0.27959410814E+03  0.17300000000E+03 0.  1.
         -6    1    1    2    0  501 -0.54232501074E+02  0.63769962512E+02  0.11820407682E+03  0.22563017544E+03  0.17300000000E+03 0.  1.
<mgrwt>
<rscale>  2 0.19218942E+03</rscale>
<asrwt>0</asrwt>
<pdfrwt beam="1">  1        1 0.14150268E-01 0.19218942E+03</pdfrwt>
<pdfrwt beam="2">  1       -1 0.63576544E-01 0.19218942E+03</pdfrwt>
<totfact> 0.10387629E+03</totfact>
</mgrwt>
</event>
<event>
 4    2  0.9414654E-001  0.2408427E+03  0.7546771E-02  0.1119233E+00
         -1   -1    0    0    0  501 -0.00000000000E+00  0.00000000000E+00  0.27205582892E+03  0.27205582892E+03  0.00000000000E+00 0. -1.
          1   -1    0    0  502    0  0.00000000000E+00 -0.00000000000E+00 -0.46610587551E+03  0.46610587551E+03  0.00000000000E+00 0.  1.
          6    1    1    2  502    0 -0.14477230811E+03  0.84363343612E+02 -0.36888768054E+03  0.44054888014E+03  0.17300000000E+03 0.  1.
         -6    1    1    2    0  501  0.14477230811E+03 -0.84363343612E+02  0.17483763395E+03  0.29761282430E+03  0.17300000000E+03 0. -1.
<mgrwt>
<rscale>  2 0.24084268E+03</rscale>
<asrwt>0</asrwt>
<pdfrwt beam="1">  1        1 0.71708595E-01 0.24084268E+03</pdfrwt>
<pdfrwt beam="2">  1       -1 0.41854743E-01 0.24084268E+03</pdfrwt>
<totfact> 0.28534129E+02</totfact>
</mgrwt>
</event>
<event>
 4    2  0.9414654E-001  0.2250067E+03  0.7546771E-02  0.1130204E+00
         -2   -1    0    0    0  501 -0.00000000000E+00  0.00000000000E+00  0.44441872311E+02  0.44441872311E+02  0.00000000000E+00 0.  1.
          2   -1    0    0  502    0  0.00000000000E+00 -0.00000000000E+00 -0.15756009741E+04  0.15756009741E+04  0.00000000000E+00 0. -1.
          6    1    1    2  502    0 -0.13283925726E+03 -0.55251686302E+02 -0.11918822425E+04  0.12129349929E+04  0.17300000000E+03 0. -1.
         -6    1    1    2    0  501  0.13283925726E+03  0.55251686302E+02 -0.33927685929E+03  0.40710785347E+03  0.17300000000E+03 0.  1.
<mgrwt>
<rscale>  2 0.22500670E+03</rscale>
<asrwt>0</asrwt>
<pdfrwt beam="1">  1        2 0.24240018E+00 0.22500670E+03</pdfrwt>
<pdfrwt beam="2">  1       -2 0.68372102E-02 0.22500670E+03</pdfrwt>
<totfact> 0.15075644E+03</totfact>
</mgrwt>
</event>
<event>
 4    2  0.9414654E-001  0.1994698E+03  0.7546771E-02  0.1150187E+00
         -1   -1    0    0    0  501 -0.00000000000E+00  0.00000000000E+00  0.65630729026E+02  0.65630729026E+02  0.00000000000E+00 0.  1.
          1   -1    0    0  502    0  0.00000000000E+00 -0.00000000000E+00 -0.60991205777E+03  0.60991205777E+03  0.00000000000E+00 0. -1.
          6    1    1    2  502    0  0.97843112858E+02 -0.16909846894E+02 -0.24594535067E+03  0.31666596465E+03  0.17300000000E+03 0.  1.
         -6    1    1    2    0  501 -0.97843112858E+02  0.16909846894E+02 -0.29833597808E+03  0.35887682214E+03  0.17300000000E+03 0. -1.
<mgrwt>
<rscale>  2 0.19946984E+03</rscale>
<asrwt>0</asrwt>
<pdfrwt beam="1">  1        1 0.93832627E-01 0.19946984E+03</pdfrwt>
<pdfrwt beam="2">  1       -1 0.10097035E-01 0.19946984E+03</pdfrwt>
<totfact> 0.20493341E+03</totfact>
</mgrwt>
</event>
<event>
 4    2  0.9414654E-001  0.1779636E+03  0.7546771E-02  0.1169789E+00
          2   -1    0    0  502    0  0.00000000000E+00  0.00000000000E+00  0.22907473657E+03  0.22907473657E+03  0.00000000000E+00 0. -1.
         -2   -1    0    0    0  501 -0.00000000000E+00 -0.00000000000E+00 -0.15203163988E+03  0.15203163988E+03  0.00000000000E+00 0.  1.
          6    1    1    2  502    0  0.40193287943E+02 -0.11248396539E+02  0.95880380499E+02  0.20214864379E+03  0.17300000000E+03 0. -1.
         -6    1    1    2    0  501 -0.40193287943E+02  0.11248396539E+02 -0.18837283807E+02  0.17895773267E+03  0.17300000000E+03 0.  1.
<mgrwt>
<rscale>  2 0.17796355E+03</rscale>
<asrwt>0</asrwt>
<pdfrwt beam="1">  1        2 0.35242267E-01 0.17796355E+03</pdfrwt>
<pdfrwt beam="2">  1       -2 0.23389483E-01 0.17796355E+03</pdfrwt>
<totfact> 0.23071328E+03</totfact>
</mgrwt>
</event>
<event>
 4    2  0.9414654E-001  0.3373807E+03  0.7546771E-02  0.1067917E+00
          2   -1    0    0  502    0  0.00000000000E+00  0.00000000000E+00  0.86602354475E+03  0.86602354475E+03  0.00000000000E+00 0. -1.
         -2   -1    0    0    0  501 -0.00000000000E+00 -0.00000000000E+00 -0.13319525568E+03  0.13319525568E+03  0.00000000000E+00 0.  1.
          6    1    1    2  502    0  0.20565291380E+03  0.20396957462E+03  0.30897766481E+03  0.45748541581E+03  0.17300000000E+03 0.  1.
         -6    1    1    2    0  501 -0.20565291380E+03 -0.20396957462E+03  0.42385062427E+03  0.54173338462E+03  0.17300000000E+03 0.  1.
<mgrwt>
<rscale>  2 0.33738066E+03</rscale>
<asrwt>0</asrwt>
<pdfrwt beam="1">  1        2 0.13323439E+00 0.33738066E+03</pdfrwt>
<pdfrwt beam="2">  1       -2 0.20491578E-01 0.33738066E+03</pdfrwt>
<totfact> 0.64509147E+02</totfact>
</mgrwt>
</event>
<event>
 4    2  0.9414654E-001  0.1960005E+03  0.7546771E-02  0.1153158E+00
         -2   -1    0    0    0  501 -0.00000000000E+00  0.00000000000E+00  0.33354396269E+02  0.33354396269E+02  0.00000000000E+00 0.  1.
          2   -1    0    0  502    0  0.00000000000E+00 -0.00000000000E+00 -0.13948408054E+04  0.13948408054E+04  0.00000000000E+00 0. -1.
          6    1    1    2  502    0 -0.92125819700E+02 -0.11973135865E+00 -0.97885055633E+03  0.99828081852E+03  0.17300000000E+03 0. -1.
         -6    1    1    2    0  501  0.92125819700E+02  0.11973135865E+00 -0.38263585279E+03  0.42991438314E+03  0.17300000000E+03 0.  1.
<mgrwt>
<rscale>  2 0.19600046E+03</rscale>
<asrwt>0</asrwt>
<pdfrwt beam="1">  1        2 0.21459085E+00 0.19600046E+03</pdfrwt>
<pdfrwt beam="2">  1       -2 0.51314466E-02 0.19600046E+03</pdfrwt>
<totfact> 0.29206377E+03</totfact>
</mgrwt>
</event>
<event>
 4    2  0.9414654E-001  0.2073526E+03  0.7546771E-02  0.1143680E+00
         -1   -1    0    0    0  501 -0.00000000000E+00  0.00000000000E+00  0.10268068653E+04  0.10268068653E+04  0.00000000000E+00 0.  1.
          1   -1    0    0  502    0  0.00000000000E+00 -0.00000000000E+00 -0.42079085592E+02  0.42079085592E+02  0.00000000000E+00 0. -1.
          6    1    1    2  502    0 -0.11036526307E+03  0.29759125186E+02  0.52979983927E+03  0.56893142514E+03  0.17300000000E+03 0. -1.
         -6    1    1    2    0  501  0.11036526307E+03 -0.29759125186E+02  0.45492794043E+03  0.49995452574E+03  0.17300000000E+03 0.  1.
<mgrwt>
<rscale>  2 0.20735259E+03</rscale>
<asrwt>0</asrwt>
<pdfrwt beam="1">  1        1 0.64737062E-02 0.20735259E+03</pdfrwt>
<pdfrwt beam="2">  1       -1 0.15797027E+00 0.20735259E+03</pdfrwt>
<totfact> 0.38347165E+02</totfact>
</mgrwt>
</event>
<event>
 4    2  0.9414654E-001  0.2015469E+03  0.7546771E-02  0.1148440E+00
         -2   -1    0    0    0  501 -0.00000000000E+00  0.00000000000E+00  0.52441011538E+02  0.52441011538E+02  0.00000000000E+00 0. -1.
          2   -1    0    0  502    0  0.00000000000E+00 -0.00000000000E+00 -0.78441390871E+03  0.78441390871E+03  0.00000000000E+00 0.  1.
          6    1    1    2  502    0 -0.86255993771E+02  0.57026855503E+02 -0.31919997408E+03  0.37750467833E+03  0.17300000000E+03 0. -1.
         -6    1    1    2    0  501  0.86255993771E+02 -0.57026855503E+02 -0.41277292309E+03  0.45935024191E+03  0.17300000000E+03 0. -1.
<mgrwt>
<rscale>  2 0.20154691E+03</rscale>
<asrwt>0</asrwt>
<pdfrwt beam="1">  1        2 0.12067907E+00 0.20154691E+03</pdfrwt>
<pdfrwt beam="2">  1       -2 0.80678476E-02 0.20154691E+03</pdfrwt>
<totfact> 0.33611448E+03</totfact>
</mgrwt>
</event>
<event>
 4    2  0.9414654E-001  0.1904890E+03  0.7546771E-02  0.1158021E+00
          2   -1    0    0  502    0  0.00000000000E+00  0.00000000000E+00  0.92493549242E+03  0.92493549242E+03  0.00000000000E+00 0. -1.
         -2   -1    0    0    0  501 -0.00000000000E+00 -0.00000000000E+00 -0.41636825082E+02  0.41636825082E+02  0.00000000000E+00 0.  1.
          6    1    1    2  502    0 -0.79694294062E+02 -0.24221463952E+01  0.32547584156E+03  0.37712142705E+03  0.17300000000E+03 0. -1.
         -6    1    1    2    0  501  0.79694294062E+02  0.24221463952E+01  0.55782282577E+03  0.58945089045E+03  0.17300000000E+03 0. -1.
<mgrwt>
<rscale>  2 0.19048897E+03</rscale>
<asrwt>0</asrwt>
<pdfrwt beam="1">  1        2 0.14229775E+00 0.19048897E+03</pdfrwt>
<pdfrwt beam="2">  1       -2 0.64056661E-02 0.19048897E+03</pdfrwt>
<totfact> 0.38730217E+03</totfact>
</mgrwt>
</event>
<event>
 4    2  0.9414654E-001  0.3159580E+03  0.7546771E-02  0.1077525E+00
         -2   -1    0    0    0  501 -0.00000000000E+00  0.00000000000E+00  0.10855567404E+03  0.10855567404E+03  0.00000000000E+00 0.  1.
          2   -1    0    0  502    0  0.00000000000E+00 -0.00000000000E+00 -0.95442036502E+03  0.95442036502E+03  0.00000000000E+00 0. -1.
          6    1    1    2  502    0 -0.23982678694E+03 -0.11128153114E+03 -0.32143740659E+03  0.45072327792E+03  0.17300000000E+03 0.  1.
         -6    1    1    2    0  501  0.23982678694E+03  0.11128153114E+03 -0.52442728439E+03  0.61225276114E+03  0.17300000000E+03 0.  1.
<mgrwt>
<rscale>  2 0.31595801E+03</rscale>
<asrwt>0</asrwt>
<pdfrwt beam="1">  1        2 0.14683390E+00 0.31595801E+03</pdfrwt>
<pdfrwt beam="2">  1       -2 0.16700873E-01 0.31595801E+03</pdfrwt>
<totfact> 0.80211825E+02</totfact>
</mgrwt>
</event>
<event>
 4    2  0.9414654E-001  0.1784746E+03  0.7546771E-02  0.1169288E+00
          3   -1    0    0  502    0  0.00000000000E+00  0.00000000000E+00  0.44154558859E+02  0.44154558859E+02  0.00000000000E+00 0. -1.
         -3   -1    0    0    0  501 -0.00000000000E+00 -0.00000000000E+00 -0.73250433922E+03  0.73250433922E+03  0.00000000000E+00 0.  1.
          6    1    1    2  502    0 -0.27515244311E+02  0.34162512530E+02 -0.29636565071E+03  0.34595630483E+03  0.17300000000E+03 0. -1.
         -6    1    1    2    0  501  0.27515244311E+02 -0.34162512530E+02 -0.39198412966E+03  0.43070259325E+03  0.17300000000E+03 0.  1.
<mgrwt>
<rscale>  2 0.17847455E+03</rscale>
<asrwt>0</asrwt>
<pdfrwt beam="1">  1        3 0.67930098E-02 0.17847455E+03</pdfrwt>
<pdfrwt beam="2">  1       -3 0.11269296E+00 0.17847455E+03</pdfrwt>
<totfact> 0.23045376E+02</totfact>
</mgrwt>
</event>
<event>
 4    2  0.9414654E-001  0.2709177E+03  0.7546771E-02  0.1100756E+00
          2   -1    0    0  502    0  0.00000000000E+00  0.00000000000E+00  0.99795780945E+03  0.99795780945E+03  0.00000000000E+00 0.  1.
         -2   -1    0    0    0  501 -0.00000000000E+00 -0.00000000000E+00 -0.93007024528E+02  0.93007024528E+02  0.00000000000E+00 0. -1.
          6    1    1    2  502    0  0.19160708832E+03 -0.82183494742E+02  0.20295902223E+03  0.33850962735E+03  0.17300000000E+03 0.  1.
         -6    1    1    2    0  501 -0.19160708832E+03  0.82183494742E+02  0.70199176269E+03  0.75245520663E+03  0.17300000000E+03 0. -1.
<mgrwt>
<rscale>  2 0.27091771E+03</rscale>
<asrwt>0</asrwt>
<pdfrwt beam="1">  1        2 0.15353196E+00 0.27091771E+03</pdfrwt>
<pdfrwt beam="2">  1       -2 0.14308774E-01 0.27091771E+03</pdfrwt>
<totfact> 0.97684956E+02</totfact>
</mgrwt>
</event>
<event>
 4    2  0.9414654E-001  0.1844991E+03  0.7546771E-02  0.1163518E+00
          2   -1    0    0  502    0  0.00000000000E+00  0.00000000000E+00  0.21752609852E+03  0.21752609852E+03  0.00000000000E+00 0. -1.
         -2   -1    0    0    0  501 -0.00000000000E+00 -0.00000000000E+00 -0.15767252376E+03  0.15767252376E+03  0.00000000000E+00 0.  1.
          6    1    1    2  502    0  0.64109955134E+02 -0.91884441619E+00  0.13657358443E+02  0.18500392986E+03  0.17300000000E+03 0. -1.
         -6    1    1    2    0  501 -0.64109955134E+02  0.91884441619E+00  0.46196216320E+02  0.19019469242E+03  0.17300000000E+03 0. -1.
<mgrwt>
<rscale>  2 0.18449913E+03</rscale>
<asrwt>0</asrwt>
<pdfrwt beam="1">  1        2 0.33465554E-01 0.18449913E+03</pdfrwt>
<pdfrwt beam="2">  1       -2 0.24257311E-01 0.18449913E+03</pdfrwt>
<totfact> 0.22927542E+03</totfact>
</mgrwt>
</event>
<event>
 4    2  0.9414654E-001  0.2187415E+03  0.7546771E-02  0.1134825E+00
         -1   -1    0    0    0  501 -0.00000000000E+00  0.00000000000E+00  0.11720251190E+03  0.11720251190E+03  0.00000000000E+00 0.  1.
          1   -1    0    0  502    0  0.00000000000E+00 -0.00000000000E+00 -0.41015594616E+03  0.41015594616E+03  0.00000000000E+00 0. -1.
          6    1    1    2  502    0 -0.96540534485E+02  0.92729433517E+02 -0.16445535068E+03  0.27366655807E+03  0.17300000000E+03 0. -1.
         -6    1    1    2    0  501  0.96540534485E+02 -0.92729433517E+02 -0.12849808358E+03  0.25369189999E+03  0.17300000000E+03 0.  1.
<mgrwt>
<rscale>  2 0.21874145E+03</rscale>
<asrwt>0</asrwt>
<pdfrwt beam="1">  1        1 0.63100915E-01 0.21874145E+03</pdfrwt>
<pdfrwt beam="2">  1       -1 0.18031156E-01 0.21874145E+03</pdfrwt>
<totfact> 0.13963872E+03</totfact>
</mgrwt>
</event>
<event>
 4    2  0.9414654E-001  0.4638022E+03  0.7546771E-02  0.1023684E+00
         -1   -1    0    0    0  501 -0.00000000000E+00  0.00000000000E+00  0.31281552048E+03  0.31281552048E+03  0.00000000000E+00 0. -1.
          1   -1    0    0  502    0  0.00000000000E+00 -0.00000000000E+00 -0.81942968832E+03  0.81942968832E+03  0.00000000000E+00 0.  1.
          6    1    1    2  502    0  0.17164923966E+03 -0.39461376587E+03 -0.26292838601E+02  0.46454687497E+03  0.17300000000E+03 0.  1.
         -6    1    1    2    0  501 -0.17164923966E+03  0.39461376587E+03 -0.48032132923E+03  0.66769833383E+03  0.17300000000E+03 0. -1.
<mgrwt>
<rscale>  2 0.46380221E+03</rscale>
<asrwt>0</asrwt>
<pdfrwt beam="1">  1        1 0.12606610E+00 0.46380221E+03</pdfrwt>
<pdfrwt beam="2">  1       -1 0.48125466E-01 0.46380221E+03</pdfrwt>
<totfact> 0.96187145E+01</totfact>
</mgrwt>
</event>
<event>
 4    2  0.9414654E-001  0.1846654E+03  0.7546771E-02  0.1163363E+00
          1   -1    0    0  502    0  0.00000000000E+00  0.00000000000E+00  0.47968744246E+03  0.47968744246E+03  0.00000000000E+00 0. -1.
         -1   -1    0    0    0  501 -0.00000000000E+00 -0.00000000000E+00 -0.78855312519E+02  0.78855312519E+02  0.00000000000E+00 0.  1.
          6    1    1    2  502    0  0.50532902228E+02  0.40233633414E+02  0.28804966321E+03  0.34216067562E+03  0.17300000000E+03 0. -1.
         -6    1    1    2    0  501 -0.50532902228E+02 -0.40233633414E+02  0.11278246673E+03  0.21638207936E+03  0.17300000000E+03 0.  1.
<mgrwt>
<rscale>  2 0.18466543E+03</rscale>
<asrwt>0</asrwt>
<pdfrwt beam="1">  1        1 0.73798066E-01 0.18466543E+03</pdfrwt>
<pdfrwt beam="2">  1       -1 0.12131587E-01 0.18466543E+03</pdfrwt>
<totfact> 0.21261139E+03</totfact>
</mgrwt>
</event>
<event>
 4    2  0.9414654E-001  0.2346650E+03  0.7546771E-02  0.1123399E+00
          2   -1    0    0  502    0  0.00000000000E+00  0.00000000000E+00  0.22086225525E+03  0.22086225525E+03  0.00000000000E+00 0. -1.
         -2   -1    0    0    0  501 -0.00000000000E+00 -0.00000000000E+00 -0.25851561407E+03  0.25851561407E+03  0.00000000000E+00 0.  1.
          6    1    1    2  502    0 -0.15421020864E+03  0.36849646737E+02  0.26353517183E+02  0.23614019730E+03  0.17300000000E+03 0. -1.
         -6    1    1    2    0  501  0.15421020864E+03 -0.36849646737E+02 -0.64006876000E+02  0.24323767202E+03  0.17300000000E+03 0.  1.
<mgrwt>
<rscale>  2 0.23466505E+03</rscale>
<asrwt>0</asrwt>
<pdfrwt beam="1">  1        2 0.33978808E-01 0.23466505E+03</pdfrwt>
<pdfrwt beam="2">  1       -2 0.39771633E-01 0.23466505E+03</pdfrwt>
<totfact> 0.91981554E+02</totfact>
</mgrwt>
</event>
<event>
 4    2  0.9414654E-001  0.1880983E+03  0.7546771E-02  0.1160188E+00
         -1   -1    0    0    0  501 -0.00000000000E+00  0.00000000000E+00  0.34564371395E+02  0.34564371395E+02  0.00000000000E+00 0. -1.
          1   -1    0    0  502    0  0.00000000000E+00 -0.00000000000E+00 -0.10788709506E+04  0.10788709506E+04  0.00000000000E+00 0.  1.
          6    1    1    2  502    0 -0.67273769738E+02 -0.30433531890E+02 -0.64813278752E+03  0.67487559611E+03  0.17300000000E+03 0.  1.
         -6    1    1    2    0  501  0.67273769738E+02  0.30433531890E+02 -0.39617379172E+03  0.43855972593E+03  0.17300000000E+03 0. -1.
<mgrwt>
<rscale>  2 0.18809827E+03</rscale>
<asrwt>0</asrwt>
<pdfrwt beam="1">  1        1 0.16598015E+00 0.18809827E+03</pdfrwt>
<pdfrwt beam="2">  1       -1 0.53175955E-02 0.18809827E+03</pdfrwt>
<totfact> 0.22330714E+03</totfact>
</mgrwt>
</event>
<event>
 4    2  0.9414654E-001  0.2067927E+03  0.7546771E-02  0.1144131E+00
         -4   -1    0    0    0  501 -0.00000000000E+00  0.00000000000E+00  0.16930851536E+03  0.16930851536E+03  0.00000000000E+00 0. -1.
          4   -1    0    0  502    0  0.00000000000E+00 -0.00000000000E+00 -0.28739017236E+03  0.28739017236E+03  0.00000000000E+00 0.  1.
          6    1    1    2  502    0  0.71841235621E+02  0.87596056983E+02 -0.13851813629E+03  0.24889858661E+03  0.17300000000E+03 0.  1.
         -6    1    1    2    0  501 -0.71841235621E+02 -0.87596056983E+02  0.20436479296E+02  0.20780010111E+03  0.17300000000E+03 0. -1.
<mgrwt>
<rscale>  2 0.20679273E+03</rscale>
<asrwt>0</asrwt>
<pdfrwt beam="1">  1        4 0.44213872E-01 0.20679273E+03</pdfrwt>
<pdfrwt beam="2">  1       -4 0.26047464E-01 0.20679273E+03</pdfrwt>
<totfact> 0.12338209E+02</totfact>
</mgrwt>
</event>
<event>
 4    2  0.9414654E-001  0.1814592E+03  0.7546771E-02  0.1166398E+00
          1   -1    0    0  502    0  0.00000000000E+00  0.00000000000E+00  0.89053765648E+03  0.89053765648E+03  0.00000000000E+00 0.  1.
         -1   -1    0    0    0  501 -0.00000000000E+00 -0.00000000000E+00 -0.79178351774E+02  0.79178351774E+02  0.00000000000E+00 0. -1.
          6    1    1    2  502    0  0.53625587193E+02 -0.11078984701E+02  0.51693831521E+02  0.18867882690E+03  0.17300000000E+03 0. -1.
         -6    1    1    2    0  501 -0.53625587193E+02  0.11078984701E+02  0.75966547318E+03  0.78103718135E+03  0.17300000000E+03 0.  1.
<mgrwt>
<rscale>  2 0.18145922E+03</rscale>
<asrwt>0</asrwt>
<pdfrwt beam="1">  1        1 0.13700579E+00 0.18145922E+03</pdfrwt>
<pdfrwt beam="2">  1       -1 0.12181286E-01 0.18145922E+03</pdfrwt>
<totfact> 0.87412896E+02</totfact>
</mgrwt>
</event>
<event>
 4    2  0.9414654E-001  0.1867182E+03  0.7546771E-02  0.1161455E+00
         -1   -1    0    0    0  501 -0.00000000000E+00  0.00000000000E+00  0.15236200211E+04  0.15236200211E+04  0.00000000000E+00 0.  1.
          1   -1    0    0  502    0  0.00000000000E+00 -0.00000000000E+00 -0.27852485722E+02  0.27852485722E+02  0.00000000000E+00 0. -1.
          6    1    1    2  502    0  0.36266241166E+02 -0.60161766321E+02  0.10755831659E+04  0.10916697418E+04  0.17300000000E+03 0.  1.
         -6    1    1    2    0  501 -0.36266241166E+02  0.60161766321E+02  0.42018436945E+03  0.45980276500E+03  0.17300000000E+03 0. -1.
<mgrwt>
<rscale>  2 0.18671818E+03</rscale>
<asrwt>0</asrwt>
<pdfrwt beam="1">  1        1 0.42849990E-02 0.18671818E+03</pdfrwt>
<pdfrwt beam="2">  1       -1 0.23440302E+00 0.18671818E+03</pdfrwt>
<totfact> 0.20688403E+02</totfact>
</mgrwt>
</event>
<event>
 4    2  0.9414654E-001  0.1846229E+03  0.7546771E-02  0.1163402E+00
          1   -1    0    0  502    0  0.00000000000E+00  0.00000000000E+00  0.39836619411E+03  0.39836619411E+03  0.00000000000E+00 0. -1.
         -1   -1    0    0    0  501 -0.00000000000E+00 -0.00000000000E+00 -0.12507978601E+03  0.12507978601E+03  0.00000000000E+00 0.  1.
          6    1    1    2  502    0 -0.61787630453E+02 -0.18409672453E+02  0.28375112997E+03  0.33852670660E+03  0.17300000000E+03 0. -1.
         -6    1    1    2    0  501  0.61787630453E+02  0.18409672453E+02 -0.10464721873E+02  0.18491927352E+03  0.17300000000E+03 0.  1.
<mgrwt>
<rscale>  2 0.18462293E+03</rscale>
<asrwt>0</asrwt>
<pdfrwt beam="1">  1        1 0.61287106E-01 0.18462293E+03</pdfrwt>
<pdfrwt beam="2">  1       -1 0.19243044E-01 0.18462293E+03</pdfrwt>
<totfact> 0.13019381E+03</totfact>
</mgrwt>
</event>
<event>
 4    2  0.9414654E-001  0.3214770E+03  0.7546771E-02  0.1074972E+00
         -1   -1    0    0    0  501 -0.00000000000E+00  0.00000000000E+00  0.15722006383E+03  0.15722006383E+03  0.00000000000E+00 0. -1.
          1   -1    0    0  502    0  0.00000000000E+00 -0.00000000000E+00 -0.65753956299E+03  0.65753956299E+03  0.00000000000E+00 0.  1.
          6    1    1    2  502    0  0.92228622950E+02  0.25477897613E+03 -0.25721042285E+03  0.41170942082E+03  0.17300000000E+03 0.  1.
         -6    1    1    2    0  501 -0.92228622950E+02 -0.25477897613E+03 -0.24310907631E+03  0.40305020599E+03  0.17300000000E+03 0. -1.
<mgrwt>
<rscale>  2 0.32147698E+03</rscale>
<asrwt>0</asrwt>
<pdfrwt beam="1">  1        1 0.10115993E+00 0.32147698E+03</pdfrwt>
<pdfrwt beam="2">  1       -1 0.24187702E-01 0.32147698E+03</pdfrwt>
<totfact> 0.45562007E+02</totfact>
</mgrwt>
</event>
<event>
 4    2  0.9414654E-001  0.1747820E+03  0.7546771E-02  0.1172951E+00
         -1   -1    0    0    0  501 -0.00000000000E+00  0.00000000000E+00  0.67847501751E+02  0.67847501751E+02  0.00000000000E+00 0.  1.
          1   -1    0    0  502    0  0.00000000000E+00 -0.00000000000E+00 -0.10428526386E+04  0.10428526386E+04  0.00000000000E+00 0. -1.
          6    1    1    2  502    0  0.18340611208E+02 -0.16833940487E+02 -0.90613692830E+03  0.92283958108E+03  0.17300000000E+03 0. -1.
         -6    1    1    2    0  501 -0.18340611208E+02  0.16833940487E+02 -0.68868208505E+02  0.18786055923E+03  0.17300000000E+03 0.  1.
<mgrwt>
<rscale>  2 0.17478203E+03</rscale>
<asrwt>0</asrwt>
<pdfrwt beam="1">  1        1 0.16043886E+00 0.17478203E+03</pdfrwt>
<pdfrwt beam="2">  1       -1 0.10438078E-01 0.17478203E+03</pdfrwt>
<totfact> 0.85312503E+02</totfact>
</mgrwt>
</event>
<event>
 4    2  0.9414654E-001  0.1767354E+03  0.7546771E-02  0.1171000E+00
          2   -1    0    0  502    0  0.00000000000E+00  0.00000000000E+00  0.62951405203E+03  0.62951405203E+03  0.00000000000E+00 0. -1.
         -2   -1    0    0    0  501 -0.00000000000E+00 -0.00000000000E+00 -0.49823947969E+02  0.49823947969E+02  0.00000000000E+00 0.  1.
          6    1    1    2  502    0  0.35569162378E+02  0.64208128204E+01  0.26802072393E+03  0.32104594781E+03  0.17300000000E+03 0.  1.
         -6    1    1    2    0  501 -0.35569162378E+02 -0.64208128204E+01  0.31166938013E+03  0.35829205219E+03  0.17300000000E+03 0. -1.
<mgrwt>
<rscale>  2 0.17673537E+03</rscale>
<asrwt>0</asrwt>
<pdfrwt beam="1">  1        2 0.96848310E-01 0.17673537E+03</pdfrwt>
<pdfrwt beam="2">  1       -2 0.76652232E-02 0.17673537E+03</pdfrwt>
<totfact> 0.47243859E+03</totfact>
</mgrwt>
</event>
<event>
 4    2  0.9414654E-001  0.2240432E+03  0.7546771E-02  0.1130904E+00
         -1   -1    0    0    0  501 -0.00000000000E+00  0.00000000000E+00  0.94321159237E+02  0.94321159237E+02  0.00000000000E+00 0. -1.
          1   -1    0    0  502    0  0.00000000000E+00 -0.00000000000E+00 -0.59368177796E+03  0.59368177796E+03  0.00000000000E+00 0.  1.
          6    1    1    2  502    0 -0.27849893809E+02  0.13960918409E+03 -0.36040532514E+03  0.42436698653E+03  0.17300000000E+03 0.  1.
         -6    1    1    2    0  501  0.27849893809E+02 -0.13960918409E+03 -0.13895529358E+03  0.26363595067E+03  0.17300000000E+03 0. -1.
<mgrwt>
<rscale>  2 0.22404317E+03</rscale>
<asrwt>0</asrwt>
<pdfrwt beam="1">  1        1 0.91335660E-01 0.22404317E+03</pdfrwt>
<pdfrwt beam="2">  1       -1 0.14510947E-01 0.22404317E+03</pdfrwt>
<totfact> 0.12095113E+03</totfact>
</mgrwt>
</event>
<event>
 4    2  0.9414654E-001  0.1797868E+03  0.7546771E-02  0.1168010E+00
          2   -1    0    0  502    0  0.00000000000E+00  0.00000000000E+00  0.19159437773E+03  0.19159437773E+03  0.00000000000E+00 0.  1.
         -2   -1    0    0    0  501 -0.00000000000E+00 -0.00000000000E+00 -0.17191693429E+03  0.17191693429E+03  0.00000000000E+00 0. -1.
          6    1    1    2  502    0 -0.37752019993E+02  0.31129832391E+02  0.34675067298E+02  0.18310008676E+03  0.17300000000E+03 0.  1.
         -6    1    1    2    0  501  0.37752019993E+02 -0.31129832391E+02 -0.14997623864E+02  0.18041122526E+03  0.17300000000E+03 0.  1.
<mgrwt>
<rscale>  2 0.17978677E+03</rscale>
<asrwt>0</asrwt>
<pdfrwt beam="1">  1        2 0.29476058E-01 0.17978677E+03</pdfrwt>
<pdfrwt beam="2">  1       -2 0.26448759E-01 0.17978677E+03</pdfrwt>
<totfact> 0.22584520E+03</totfact>
</mgrwt>
</event>
<event>
 4    2  0.9414654E-001  0.2159353E+03  0.7546771E-02  0.1136950E+00
         -2   -1    0    0    0  501 -0.00000000000E+00  0.00000000000E+00  0.39225206978E+02  0.39225206978E+02  0.00000000000E+00 0. -1.
          2   -1    0    0  502    0  0.00000000000E+00 -0.00000000000E+00 -0.12121494922E+04  0.12121494922E+04  0.00000000000E+00 0.  1.
          6    1    1    2  502    0 -0.41655738343E+02 -0.12232689306E+03 -0.49948717954E+03  0.54416496748E+03  0.17300000000E+03 0.  1.
         -6    1    1    2    0  501  0.41655738343E+02  0.12232689306E+03 -0.67343710567E+03  0.70720973169E+03  0.17300000000E+03 0. -1.
<mgrwt>
<rscale>  2 0.21593534E+03</rscale>
<asrwt>0</asrwt>
<pdfrwt beam="1">  1        2 0.18648451E+00 0.21593534E+03</pdfrwt>
<pdfrwt beam="2">  1       -2 0.60346482E-02 0.21593534E+03</pdfrwt>
<totfact> 0.28761299E+03</totfact>
</mgrwt>
</event>
<event>
 4    2  0.9414654E-001  0.1870130E+03  0.7546771E-02  0.1161183E+00
         -2   -1    0    0    0  501 -0.00000000000E+00  0.00000000000E+00  0.22628227655E+02  0.22628227655E+02  0.00000000000E+00 0. -1.
          2   -1    0    0  502    0  0.00000000000E+00 -0.00000000000E+00 -0.15479560042E+04  0.15479560042E+04  0.00000000000E+00 0.  1.
          6    1    1    2  502    0  0.28743635199E+02  0.64951229932E+02 -0.79339506954E+03  0.81513777683E+03  0.17300000000E+03 0. -1.
         -6    1    1    2    0  501 -0.28743635199E+02 -0.64951229932E+02 -0.73193270696E+03  0.75544645498E+03  0.17300000000E+03 0.  1.
<mgrwt>
<rscale>  2 0.18701299E+03</rscale>
<asrwt>0</asrwt>
<pdfrwt beam="1">  1        2 0.23814708E+00 0.18701299E+03</pdfrwt>
<pdfrwt beam="2">  1       -2 0.34812657E-02 0.18701299E+03</pdfrwt>
<totfact> 0.43363850E+03</totfact>
</mgrwt>
</event>
<event>
 4    2  0.9414654E-001  0.2605862E+03  0.7546771E-02  0.1106792E+00
         -2   -1    0    0    0  501 -0.00000000000E+00  0.00000000000E+00  0.33261306973E+03  0.33261306973E+03  0.00000000000E+00 0.  1.
          2   -1    0    0  502    0  0.00000000000E+00 -0.00000000000E+00 -0.71659409475E+03  0.71659409475E+03  0.00000000000E+00 0. -1.
          6    1    1    2  502    0  0.18266851622E+03  0.67884919285E+02  0.25163354997E+03  0.36224935135E+03  0.17300000000E+03 0.  1.
         -6    1    1    2    0  501 -0.18266851622E+03 -0.67884919285E+02 -0.63561457499E+03  0.68695781313E+03  0.17300000000E+03 0. -1.
<mgrwt>
<rscale>  2 0.26058616E+03</rscale>
<asrwt>0</asrwt>
<pdfrwt beam="1">  1        2 0.11024524E+00 0.26058616E+03</pdfrwt>
<pdfrwt beam="2">  1       -2 0.51171242E-01 0.26058616E+03</pdfrwt>
<totfact> 0.15126833E+02</totfact>
</mgrwt>
</event>
<event>
 4    2  0.9414654E-001  0.3260255E+03  0.7546771E-02  0.1072909E+00
         -1   -1    0    0    0  501 -0.00000000000E+00  0.00000000000E+00  0.73866630321E+03  0.73866630321E+03  0.00000000000E+00 0.  1.
          1   -1    0    0  502    0  0.00000000000E+00 -0.00000000000E+00 -0.16553665506E+03  0.16553665506E+03  0.00000000000E+00 0. -1.
          6    1    1    2  502    0  0.25772883415E+03 -0.99696899100E+02  0.45002189087E+03  0.55570884994E+03  0.17300000000E+03 0. -1.
         -6    1    1    2    0  501 -0.25772883415E+03  0.99696899100E+02  0.12310775728E+03  0.34849410833E+03  0.17300000000E+03 0.  1.
<mgrwt>
<rscale>  2 0.32602550E+03</rscale>
<asrwt>0</asrwt>
<pdfrwt beam="1">  1        1 0.25467178E-01 0.32602550E+03</pdfrwt>
<pdfrwt beam="2">  1       -1 0.11364097E+00 0.32602550E+03</pdfrwt>
<totfact> 0.14055625E+02</totfact>
</mgrwt>
</event>
<event>
 4    2  0.9414654E-001  0.2456106E+03  0.7546771E-02  0.1116111E+00
         -2   -1    0    0    0  501 -0.00000000000E+00  0.00000000000E+00  0.67740738446E+02  0.67740738446E+02  0.00000000000E+00 0. -1.
          2   -1    0    0  502    0  0.00000000000E+00 -0.00000000000E+00 -0.10669665288E+04  0.10669665288E+04  0.00000000000E+00 0.  1.
          6    1    1    2  502    0 -0.14884706990E+03 -0.90774978691E+02 -0.26889364628E+03  0.36418174032E+03  0.17300000000E+03 0. -1.
         -6    1    1    2    0  501  0.14884706990E+03  0.90774978691E+02 -0.73033214409E+03  0.77052552694E+03  0.17300000000E+03 0. -1.
<mgrwt>
<rscale>  2 0.24561056E+03</rscale>
<asrwt>0</asrwt>
<pdfrwt beam="1">  1        2 0.16414868E+00 0.24561056E+03</pdfrwt>
<pdfrwt beam="2">  1       -2 0.10421653E-01 0.24561056E+03</pdfrwt>
<totfact> 0.14854035E+03</totfact>
</mgrwt>
</event>
<event>
 4    2  0.9414654E-001  0.2566549E+03  0.7546771E-02  0.1109170E+00
          2   -1    0    0  502    0  0.00000000000E+00  0.00000000000E+00  0.44155412636E+03  0.44155412636E+03  0.00000000000E+00 0.  1.
         -2   -1    0    0    0  501 -0.00000000000E+00 -0.00000000000E+00 -0.46789673349E+03  0.46789673349E+03  0.00000000000E+00 0. -1.
          6    1    1    2  502    0 -0.16336518991E+03  0.96200657328E+02 -0.38846872221E+03  0.46559606944E+03  0.17300000000E+03 0. -1.
         -6    1    1    2    0  501  0.16336518991E+03 -0.96200657328E+02  0.36212611508E+03  0.44385479041E+03  0.17300000000E+03 0.  1.
<mgrwt>
<rscale>  2 0.25665493E+03</rscale>
<asrwt>0</asrwt>
<pdfrwt beam="1">  1        2 0.67931404E-01 0.25665493E+03</pdfrwt>
<pdfrwt beam="2">  1       -2 0.71984112E-01 0.25665493E+03</pdfrwt>
<totfact> 0.12999628E+02</totfact>
</mgrwt>
</event>
<event>
 4    2  0.9414654E-001  0.1796023E+03  0.7546771E-02  0.1168189E+00
         -3   -1    0    0    0  501 -0.00000000000E+00  0.00000000000E+00  0.47403750967E+02  0.47403750967E+02  0.00000000000E+00 0.  1.
          3   -1    0    0  502    0  0.00000000000E+00 -0.00000000000E+00 -0.92588792741E+03  0.92588792741E+03  0.00000000000E+00 0. -1.
          6    1    1    2  502    0 -0.38041636297E+02 -0.29678455543E+02 -0.18869796904E+03  0.26050700631E+03  0.17300000000E+03 0.  1.
         -6    1    1    2    0  501  0.38041636297E+02  0.29678455543E+02 -0.68978620740E+03  0.71278467206E+03  0.17300000000E+03 0. -1.
<mgrwt>
<rscale>  2 0.17960227E+03</rscale>
<asrwt>0</asrwt>
<pdfrwt beam="1">  1        3 0.14244429E+00 0.17960227E+03</pdfrwt>
<pdfrwt beam="2">  1       -3 0.72928850E-02 0.17960227E+03</pdfrwt>
<totfact> 0.11741866E+02</totfact>
</mgrwt>
</event>
<event>
 4    2  0.9414654E-001  0.2197781E+03  0.7546771E-02  0.1134049E+00
          1   -1    0    0  502    0  0.00000000000E+00  0.00000000000E+00  0.47081070012E+03  0.47081070012E+03  0.00000000000E+00 0.  1.
         -1   -1    0    0    0  501 -0.00000000000E+00 -0.00000000000E+00 -0.12373880187E+03  0.12373880187E+03  0.00000000000E+00 0. -1.
          6    1    1    2  502    0 -0.73057730004E+02 -0.11417528297E+03  0.50649141402E+02  0.22553882743E+03  0.17300000000E+03 0. -1.
         -6    1    1    2    0  501  0.73057730004E+02  0.11417528297E+03  0.29642275686E+03  0.36901067456E+03  0.17300000000E+03 0. -1.
<mgrwt>
<rscale>  2 0.21977813E+03</rscale>
<asrwt>0</asrwt>
<pdfrwt beam="1">  1        1 0.72432415E-01 0.21977813E+03</pdfrwt>
<pdfrwt beam="2">  1       -1 0.19036739E-01 0.21977813E+03</pdfrwt>
<totfact> 0.10698712E+03</totfact>
</mgrwt>
</event>
<event>
 4    2  0.9414654E-001  0.1767012E+03  0.7546771E-02  0.1171034E+00
          4   -1    0    0  502    0  0.00000000000E+00  0.00000000000E+00  0.56656289108E+03  0.56656289108E+03  0.00000000000E+00 0.  1.
         -4   -1    0    0    0  501 -0.00000000000E+00 -0.00000000000E+00 -0.13524690813E+03  0.13524690813E+03  0.00000000000E+00 0. -1.
          6    1    1    2  502    0  0.12994629439E+02 -0.33548036378E+02  0.48576870520E+03  0.51690866320E+03  0.17300000000E+03 0.  1.
         -6    1    1    2    0  501 -0.12994629439E+02  0.33548036378E+02 -0.54452722250E+02  0.18490113601E+03  0.17300000000E+03 0. -1.
<mgrwt>
<rscale>  2 0.17670125E+03</rscale>
<asrwt>0</asrwt>
<pdfrwt beam="1">  1        4 0.87163520E-01 0.17670125E+03</pdfrwt>
<pdfrwt beam="2">  1       -4 0.20807217E-01 0.17670125E+03</pdfrwt>
<totfact> 0.43051178E+01</totfact>
</mgrwt>
</event>
<event>
 4    2  0.9414654E-001  0.4287713E+03  0.7546771E-02  0.1034249E+00
         -2   -1    0    0    0  501 -0.00000000000E+00  0.00000000000E+00  0.13074497265E+03  0.13074497265E+03  0.00000000000E+00 0.  1.
          2   -1    0    0  502    0  0.00000000000E+00 -0.00000000000E+00 -0.14219121269E+04  0.14219121269E+04  0.00000000000E+00 0. -1.
          6    1    1    2  502    0 -0.23708196617E+03 -0.31258269515E+03 -0.72736465591E+03  0.84433651032E+03  0.17300000000E+03 0.  1.
         -6    1    1    2    0  501  0.23708196617E+03  0.31258269515E+03 -0.56380249835E+03  0.70832058923E+03  0.17300000000E+03 0. -1.
<mgrwt>
<rscale>  2 0.42877127E+03</rscale>
<asrwt>0</asrwt>
<pdfrwt beam="1">  1        2 0.21875570E+00 0.42877127E+03</pdfrwt>
<pdfrwt beam="2">  1       -2 0.20114612E-01 0.42877127E+03</pdfrwt>
<totfact> 0.30862966E+02</totfact>
</mgrwt>
</event>
<event>
 4    2  0.9414654E-001  0.2767940E+03  0.7546771E-02  0.1097453E+00
          2   -1    0    0  502    0  0.00000000000E+00  0.00000000000E+00  0.11637970248E+04  0.11637970248E+04  0.00000000000E+00 0.  1.
         -2   -1    0    0    0  501 -0.00000000000E+00 -0.00000000000E+00 -0.70227139007E+02  0.70227139007E+02  0.00000000000E+00 0. -1.
          6    1    1    2  502    0  0.21570217091E+03  0.12588704530E+02  0.70114512669E+03  0.75380328382E+03  0.17300000000E+03 0. -1.
         -6    1    1    2    0  501 -0.21570217091E+03 -0.12588704530E+02  0.39242475909E+03  0.48022087998E+03  0.17300000000E+03 0. -1.
<mgrwt>
<rscale>  2 0.27679397E+03</rscale>
<asrwt>0</asrwt>
<pdfrwt beam="1">  1        2 0.17904568E+00 0.27679397E+03</pdfrwt>
<pdfrwt beam="2">  1       -2 0.10804176E-01 0.27679397E+03</pdfrwt>
<totfact> 0.12296264E+03</totfact>
</mgrwt>
</event>
<event>
 4    2  0.9414654E-001  0.1905666E+03  0.7546771E-02  0.1157951E+00
         -1   -1    0    0    0  501 -0.00000000000E+00  0.00000000000E+00  0.59099172352E+03  0.59099172352E+03  0.00000000000E+00 0.  1.
          1   -1    0    0  502    0  0.00000000000E+00 -0.00000000000E+00 -0.12710984940E+03  0.12710984940E+03  0.00000000000E+00 0. -1.
          6    1    1    2  502    0  0.10652258565E+02 -0.79203391069E+02 -0.26119044856E+02  0.19234825779E+03  0.17300000000E+03 0. -1.
         -6    1    1    2    0  501 -0.10652258565E+02  0.79203391069E+02  0.49000091897E+03  0.52575331513E+03  0.17300000000E+03 0.  1.
<mgrwt>
<rscale>  2 0.19056665E+03</rscale>
<asrwt>0</asrwt>
<pdfrwt beam="1">  1        1 0.19555362E-01 0.19056665E+03</pdfrwt>
<pdfrwt beam="2">  1       -1 0.90921802E-01 0.19056665E+03</pdfrwt>
<totfact> 0.32925863E+02</totfact>
</mgrwt>
</event>
<event>
 4    2  0.9414654E-001  0.1943734E+03  0.7546771E-02  0.1154575E+00
         -2   -1    0    0    0  501 -0.00000000000E+00  0.00000000000E+00  0.58018446837E+02  0.58018446837E+02  0.00000000000E+00 0.  1.
          2   -1    0    0  502    0  0.00000000000E+00 -0.00000000000E+00 -0.89366364863E+03  0.89366364863E+03  0.00000000000E+00 0. -1.
          6    1    1    2  502    0 -0.80645323009E+02  0.36720104594E+02 -0.66568297604E+03  0.69348025119E+03  0.17300000000E+03 0. -1.
         -6    1    1    2    0  501  0.80645323009E+02 -0.36720104594E+02 -0.16996222576E+03  0.25820184428E+03  0.17300000000E+03 0.  1.
<mgrwt>
<rscale>  2 0.19437344E+03</rscale>
<asrwt>0</asrwt>
<pdfrwt beam="1">  1        2 0.13748672E+00 0.19437344E+03</pdfrwt>
<pdfrwt beam="2">  1       -2 0.89259149E-02 0.19437344E+03</pdfrwt>
<totfact> 0.24242148E+03</totfact>
</mgrwt>
</event>
<event>
 4    2  0.9414654E-001  0.1992259E+03  0.7546771E-02  0.1150394E+00
          1   -1    0    0  502    0  0.00000000000E+00  0.00000000000E+00  0.16136336350E+04  0.16136336350E+04  0.00000000000E+00 0. -1.
         -1   -1    0    0    0  501 -0.00000000000E+00 -0.00000000000E+00 -0.37467796318E+02  0.37467796318E+02  0.00000000000E+00 0.  1.
          6    1    1    2  502    0  0.44696321668E+02  0.88114630240E+02  0.30423020570E+03  0.36365776122E+03  0.17300000000E+03 0.  1.
         -6    1    1    2    0  501 -0.44696321668E+02 -0.88114630240E+02  0.12719356330E+04  0.12874436701E+04  0.17300000000E+03 0. -1.
<mgrwt>
<rscale>  2 0.19922587E+03</rscale>
<asrwt>0</asrwt>
<pdfrwt beam="1">  1        1 0.24825127E+00 0.19922587E+03</pdfrwt>
<pdfrwt beam="2">  1       -1 0.57642776E-02 0.19922587E+03</pdfrwt>
<totfact> 0.86108506E+02</totfact>
</mgrwt>
</event>
<event>
 4    2  0.9414654E-001  0.1735847E+03  0.7546771E-02  0.1174160E+00
          1   -1    0    0  502    0  0.00000000000E+00  0.00000000000E+00  0.50789483652E+03  0.50789483652E+03  0.00000000000E+00 0.  1.
         -1   -1    0    0    0  501 -0.00000000000E+00 -0.00000000000E+00 -0.99238250844E+02  0.99238250844E+02  0.00000000000E+00 0. -1.
          6    1    1    2  502    0  0.12760794662E+02  0.63097503771E+01  0.11813348786E+02  0.17398622371E+03  0.17300000000E+03 0. -1.
         -6    1    1    2    0  501 -0.12760794662E+02 -0.63097503771E+01  0.39684323689E+03  0.43314686365E+03  0.17300000000E+03 0.  1.
<mgrwt>
<rscale>  2 0.17358471E+03</rscale>
<asrwt>0</asrwt>
<pdfrwt beam="1">  1        1 0.78137665E-01 0.17358471E+03</pdfrwt>
<pdfrwt beam="2">  1       -1 0.15267424E-01 0.17358471E+03</pdfrwt>
<totfact> 0.13739856E+03</totfact>
</mgrwt>
</event>
<event>
 4    2  0.9414654E-001  0.1791883E+03  0.7546771E-02  0.1168591E+00
         -2   -1    0    0    0  501 -0.00000000000E+00  0.00000000000E+00  0.94163039996E+02  0.94163039996E+02  0.00000000000E+00 0.  1.
          2   -1    0    0  502    0  0.00000000000E+00 -0.00000000000E+00 -0.39942390009E+03  0.39942390009E+03  0.00000000000E+00 0. -1.
          6    1    1    2  502    0  0.46640623715E+02  0.20208809235E+01 -0.24702736397E+03  0.30517363957E+03  0.17300000000E+03 0.  1.
         -6    1    1    2    0  501 -0.46640623715E+02 -0.20208809235E+01 -0.58233496126E+02  0.18841330052E+03  0.17300000000E+03 0.  1.
<mgrwt>
<rscale>  2 0.17918826E+03</rscale>
<asrwt>0</asrwt>
<pdfrwt beam="1">  1        2 0.61449830E-01 0.17918826E+03</pdfrwt>
<pdfrwt beam="2">  1       -2 0.14486622E-01 0.17918826E+03</pdfrwt>
<totfact> 0.28507547E+03</totfact>
</mgrwt>
</event>
<event>
 4    2  0.9414654E-001  0.1938189E+03  0.7546771E-02  0.1155061E+00
          2   -1    0    0  502    0  0.00000000000E+00  0.00000000000E+00  0.10846421963E+03  0.10846421963E+03  0.00000000000E+00 0.  1.
         -2   -1    0    0    0  501 -0.00000000000E+00 -0.00000000000E+00 -0.35581617455E+03  0.35581617455E+03  0.00000000000E+00 0. -1.
          6    1    1    2  502    0  0.83377663156E+02  0.26170861532E+02 -0.16155519700E+03  0.25232088773E+03  0.17300000000E+03 0. -1.
         -6    1    1    2    0  501 -0.83377663156E+02 -0.26170861532E+02 -0.85796757913E+02  0.21195950645E+03  0.17300000000E+03 0. -1.
<mgrwt>
<rscale>  2 0.19381886E+03</rscale>
<asrwt>0</asrwt>
<pdfrwt beam="1">  1        2 0.16686803E-01 0.19381886E+03</pdfrwt>
<pdfrwt beam="2">  1       -2 0.54740950E-01 0.19381886E+03</pdfrwt>
<totfact> 0.10872684E+03</totfact>
</mgrwt>
</event>
<event>
 4    2  0.9414654E-001  0.1757084E+03  0.7546771E-02  0.1172022E+00
          2   -1    0    0  502    0  0.00000000000E+00  0.00000000000E+00  0.83430423602E+02  0.83430423602E+02  0.00000000000E+00 0. -1.
         -2   -1    0    0    0  501 -0.00000000000E+00 -0.00000000000E+00 -0.37242491554E+03  0.37242491554E+03  0.00000000000E+00 0.  1.
          6    1    1    2  502    0  0.68355404373E+01  0.29961783067E+02 -0.12629619330E+03  0.21638891261E+03  0.17300000000E+03 0.  1.
         -6    1    1    2    0  501 -0.68355404373E+01 -0.29961783067E+02 -0.16269829864E+03  0.23946642654E+03  0.17300000000E+03 0.  1.
<mgrwt>
<rscale>  2 0.17570838E+03</rscale>
<asrwt>0</asrwt>
<pdfrwt beam="1">  1        2 0.12835450E-01 0.17570838E+03</pdfrwt>
<pdfrwt beam="2">  1       -2 0.57296140E-01 0.17570838E+03</pdfrwt>
<totfact> 0.13475858E+03</totfact>
</mgrwt>
</event>
<event>
 4    2  0.9414654E-001  0.1787696E+03  0.7546771E-02  0.1168999E+00
          1   -1    0    0  502    0  0.00000000000E+00  0.00000000000E+00  0.18339621286E+04  0.18339621286E+04  0.00000000000E+00 0. -1.
         -1   -1    0    0    0  501 -0.00000000000E+00 -0.00000000000E+00 -0.17817531901E+02  0.17817531901E+02  0.00000000000E+00 0.  1.
          6    1    1    2  502    0 -0.42661172198E+02  0.14477496993E+02  0.77081533219E+03  0.79127419386E+03  0.17300000000E+03 0. -1.
         -6    1    1    2    0  501  0.42661172198E+02 -0.14477496993E+02  0.10453292645E+04  0.10605054666E+04  0.17300000000E+03 0.  1.
<mgrwt>
<rscale>  2 0.17876961E+03</rscale>
<asrwt>0</asrwt>
<pdfrwt beam="1">  1        1 0.28214787E+00 0.17876961E+03</pdfrwt>
<pdfrwt beam="2">  1       -1 0.27411602E-02 0.17876961E+03</pdfrwt>
<totfact> 0.18685667E+03</totfact>
</mgrwt>
</event>
<event>
 4    2  0.9414654E-001  0.1757137E+03  0.7546771E-02  0.1172017E+00
          2   -1    0    0  502    0  0.00000000000E+00  0.00000000000E+00  0.41115399198E+03  0.41115399198E+03  0.00000000000E+00 0. -1.
         -2   -1    0    0    0  501 -0.00000000000E+00 -0.00000000000E+00 -0.85380563197E+02  0.85380563197E+02  0.00000000000E+00 0.  1.
          6    1    1    2  502    0 -0.15093000583E+02 -0.26805263166E+02  0.24905923809E+03  0.30480456833E+03  0.17300000000E+03 0. -1.
         -6    1    1    2    0  501  0.15093000583E+02  0.26805263166E+02  0.76714190690E+02  0.19172998684E+03  0.17300000000E+03 0.  1.
<mgrwt>
<rscale>  2 0.17571375E+03</rscale>
<asrwt>0</asrwt>
<pdfrwt beam="1">  1        2 0.63254459E-01 0.17571375E+03</pdfrwt>
<pdfrwt beam="2">  1       -2 0.13135471E-01 0.17571375E+03</pdfrwt>
<totfact> 0.32386049E+03</totfact>
</mgrwt>
</event>
<event>
 4    2  0.9414654E-001  0.3871586E+03  0.7546771E-02  0.1048319E+00
         -2   -1    0    0    0  501 -0.00000000000E+00  0.00000000000E+00  0.22825509802E+03  0.22825509802E+03  0.00000000000E+00 0.  1.
          2   -1    0    0  502    0  0.00000000000E+00 -0.00000000000E+00 -0.65825219539E+03  0.65825219539E+03  0.00000000000E+00 0. -1.
          6    1    1    2  502    0 -0.25694139867E+03 -0.23225833654E+03 -0.23662304337E+03  0.45374252820E+03  0.17300000000E+03 0. -1.
         -6    1    1    2    0  501  0.25694139867E+03  0.23225833654E+03 -0.19337405401E+03  0.43276476521E+03  0.17300000000E+03 0.  1.
<mgrwt>
<rscale>  2 0.38715865E+03</rscale>
<asrwt>0</asrwt>
<pdfrwt beam="1">  1        2 0.10126957E+00 0.38715865E+03</pdfrwt>
<pdfrwt beam="2">  1       -2 0.35116169E-01 0.38715865E+03</pdfrwt>
<totfact> 0.34485512E+02</totfact>
</mgrwt>
</event>
<event>
 4    2  0.9414654E-001  0.2103148E+03  0.7546771E-02  0.1141317E+00
         -2   -1    0    0    0  501 -0.00000000000E+00  0.00000000000E+00  0.23445389478E+02  0.23445389478E+02  0.00000000000E+00 0. -1.
          2   -1    0    0  502    0  0.00000000000E+00 -0.00000000000E+00 -0.33100759765E+04  0.33100759765E+04  0.00000000000E+00 0.  1.
          6    1    1    2  502    0  0.64306642813E+02  0.10083639808E+03 -0.55029632309E+03  0.58911659855E+03  0.17300000000E+03 0. -1.
         -6    1    1    2    0  501 -0.64306642813E+02 -0.10083639808E+03 -0.27363342640E+04  0.27444047675E+04  0.17300000000E+03 0.  1.
<mgrwt>
<rscale>  2 0.21031482E+03</rscale>
<asrwt>0</asrwt>
<pdfrwt beam="1">  1        2 0.50924235E+00 0.21031482E+03</pdfrwt>
<pdfrwt beam="2">  1       -2 0.36069838E-02 0.21031482E+03</pdfrwt>
<totfact> 0.44048422E+02</totfact>
</mgrwt>
</event>
<event>
 4    2  0.9414654E-001  0.1944385E+03  0.7546771E-02  0.1154518E+00
          3   -1    0    0  502    0  0.00000000000E+00  0.00000000000E+00  0.18008737436E+03  0.18008737436E+03  0.00000000000E+00 0.  1.
         -3   -1    0    0    0  501 -0.00000000000E+00 -0.00000000000E+00 -0.33485155757E+03  0.33485155757E+03  0.00000000000E+00 0. -1.
          6    1    1    2  502    0  0.57521300447E+02  0.67591520407E+02  0.79875910161E+02  0.21020579121E+03  0.17300000000E+03 0.  1.
         -6    1    1    2    0  501 -0.57521300447E+02 -0.67591520407E+02 -0.23464009337E+03  0.30473314072E+03  0.17300000000E+03 0. -1.
<mgrwt>
<rscale>  2 0.19443846E+03</rscale>
<asrwt>0</asrwt>
<pdfrwt beam="1">  1        3 0.27705750E-01 0.19443846E+03</pdfrwt>
<pdfrwt beam="2">  1       -3 0.51515623E-01 0.19443846E+03</pdfrwt>
<totfact> 0.11403892E+02</totfact>
</mgrwt>
</event>
<event>
 4    2  0.9414654E-001  0.1790163E+03  0.7546771E-02  0.1168758E+00
          1   -1    0    0  502    0  0.00000000000E+00  0.00000000000E+00  0.10859547867E+03  0.10859547867E+03  0.00000000000E+00 0. -1.
         -1   -1    0    0    0  501 -0.00000000000E+00 -0.00000000000E+00 -0.29663059974E+03  0.29663059974E+03  0.00000000000E+00 0.  1.
          6    1    1    2  502    0 -0.34286166870E+02  0.30697100622E+02 -0.79477641043E+02  0.19586614983E+03  0.17300000000E+03 0. -1.
         -6    1    1    2    0  501  0.34286166870E+02 -0.30697100622E+02 -0.10855748002E+03  0.20935992858E+03  0.17300000000E+03 0. -1.
<mgrwt>
<rscale>  2 0.17901635E+03</rscale>
<asrwt>0</asrwt>
<pdfrwt beam="1">  1        1 0.16706997E-01 0.17901635E+03</pdfrwt>
<pdfrwt beam="2">  1       -1 0.45635476E-01 0.17901635E+03</pdfrwt>
<totfact> 0.15522562E+03</totfact>
</mgrwt>
</event>
<event>
 4    2  0.9414654E-001  0.1747925E+03  0.7546771E-02  0.1172940E+00
         -1   -1    0    0    0  501 -0.00000000000E+00  0.00000000000E+00  0.66116239181E+01  0.66116239181E+01  0.00000000000E+00 0.  1.
          1   -1    0    0  502    0  0.00000000000E+00 -0.00000000000E+00 -0.46731648319E+04  0.46731648319E+04  0.00000000000E+00 0. -1.
          6    1    1    2  502    0  0.38823362332E+01  0.24664894943E+02 -0.25804523010E+04  0.25863655015E+04  0.17300000000E+03 0. -1.
         -6    1    1    2    0  501 -0.38823362332E+01 -0.24664894943E+02 -0.20861009069E+04  0.20934109543E+04  0.17300000000E+03 0.  1.
<mgrwt>
<rscale>  2 0.17479253E+03</rscale>
<asrwt>0</asrwt>
<pdfrwt beam="1">  1        1 0.71894908E+00 0.17479253E+03</pdfrwt>
<pdfrwt beam="2">  1       -1 0.10171720E-02 0.17479253E+03</pdfrwt>
<totfact> 0.56639931E+01</totfact>
</mgrwt>
</event>
<event>
 4    2  0.9414654E-001  0.3476079E+03  0.7546771E-02  0.1063601E+00
         -2   -1    0    0    0  501 -0.00000000000E+00  0.00000000000E+00  0.57551002589E+02  0.57551002589E+02  0.00000000000E+00 0. -1.
          2   -1    0    0  502    0  0.00000000000E+00 -0.00000000000E+00 -0.23117246958E+04  0.23117246958E+04  0.00000000000E+00 0.  1.
          6    1    1    2  502    0 -0.25794576697E+03  0.15609686503E+03 -0.76819500447E+03  0.84318136534E+03  0.17300000000E+03 0. -1.
         -6    1    1    2    0  501  0.25794576697E+03 -0.15609686503E+03 -0.14859786887E+04  0.15260943330E+04  0.17300000000E+03 0.  1.
<mgrwt>
<rscale>  2 0.34760790E+03</rscale>
<asrwt>0</asrwt>
<pdfrwt beam="1">  1        2 0.35564993E+00 0.34760790E+03</pdfrwt>
<pdfrwt beam="2">  1       -2 0.88540009E-02 0.34760790E+03</pdfrwt>
<totfact> 0.40346685E+02</totfact>
</mgrwt>
</event>
<event>
 4    2  0.9414654E-001  0.3753539E+03  0.7546771E-02  0.1052664E+00
          2   -1    0    0  502    0  0.00000000000E+00  0.00000000000E+00  0.15980803466E+04  0.15980803466E+04  0.00000000000E+00 0. -1.
         -2   -1    0    0    0  501 -0.00000000000E+00 -0.00000000000E+00 -0.98500102216E+02  0.98500102216E+02  0.00000000000E+00 0.  1.
          6    1    1    2  502    0  0.32010321983E+03 -0.92170781985E+02  0.10246042832E+04  0.10911940531E+04  0.17300000000E+03 0. -1.
         -6    1    1    2    0  501 -0.32010321983E+03  0.92170781985E+02  0.47497596119E+03  0.60538639571E+03  0.17300000000E+03 0.  1.
<mgrwt>
<rscale>  2 0.37535387E+03</rscale>
<asrwt>0</asrwt>
<pdfrwt beam="1">  1        2 0.24585850E+00 0.37535387E+03</pdfrwt>
<pdfrwt beam="2">  1       -2 0.15153863E-01 0.37535387E+03</pdfrwt>
<totfact> 0.40316412E+02</totfact>
</mgrwt>
</event>
<event>
 4    2  0.9414654E-001  0.2030807E+03  0.7546771E-02  0.1147166E+00
         -2   -1    0    0    0  501 -0.00000000000E+00  0.00000000000E+00  0.81670839788E+02  0.81670839788E+02  0.00000000000E+00 0. -1.
          2   -1    0    0  502    0  0.00000000000E+00 -0.00000000000E+00 -0.63946775351E+03  0.63946775351E+03  0.00000000000E+00 0.  1.
          6    1    1    2  502    0 -0.12513014102E+02  0.10562285361E+03 -0.44425761769E+03  0.48847373891E+03  0.17300000000E+03 0.  1.
         -6    1    1    2    0  501  0.12513014102E+02 -0.10562285361E+03 -0.11353929603E+03  0.23266485439E+03  0.17300000000E+03 0. -1.
<mgrwt>
<rscale>  2 0.20308068E+03</rscale>
<asrwt>0</asrwt>
<pdfrwt beam="1">  1        2 0.98379658E-01 0.20308068E+03</pdfrwt>
<pdfrwt beam="2">  1       -2 0.12564744E-01 0.20308068E+03</pdfrwt>
<totfact> 0.21313071E+03</totfact>
</mgrwt>
</event>
<event>
 4    2  0.9414654E-001  0.1983290E+03  0.7546771E-02  0.1151157E+00
         -2   -1    0    0    0  501 -0.00000000000E+00  0.00000000000E+00  0.92838688248E+03  0.92838688248E+03  0.00000000000E+00 0. -1.
          2   -1    0    0  502    0  0.00000000000E+00 -0.00000000000E+00 -0.58203426788E+02  0.58203426788E+02  0.00000000000E+00 0.  1.
          6    1    1    2  502    0  0.92108767116E+02 -0.30354009112E+02  0.17779151769E+03  0.26635355190E+03  0.17300000000E+03 0.  1.
         -6    1    1    2    0  501 -0.92108767116E+02  0.30354009112E+02  0.69239193801E+03  0.72023675737E+03  0.17300000000E+03 0. -1.
<mgrwt>
<rscale>  2 0.19832900E+03</rscale>
<asrwt>0</asrwt>
<pdfrwt beam="1">  1        2 0.89543740E-02 0.19832900E+03</pdfrwt>
<pdfrwt beam="2">  1       -2 0.14282874E+00 0.19832900E+03</pdfrwt>
<totfact> 0.26446724E+02</totfact>
</mgrwt>
</event>
<event>
 4    2  0.9414654E-001  0.2389203E+03  0.7546771E-02  0.1120514E+00
          1   -1    0    0  502    0  0.00000000000E+00  0.00000000000E+00  0.79231854353E+03  0.79231854353E+03  0.00000000000E+00 0.  1.
         -1   -1    0    0    0  501 -0.00000000000E+00 -0.00000000000E+00 -0.73728771372E+02  0.73728771372E+02  0.00000000000E+00 0. -1.
          6    1    1    2  502    0  0.31435788637E+02 -0.16175818036E+03  0.42472553841E+03  0.48731376001E+03  0.17300000000E+03 0. -1.
         -6    1    1    2    0  501 -0.31435788637E+02  0.16175818036E+03  0.29386423375E+03  0.37873355489E+03  0.17300000000E+03 0.  1.
<mgrwt>
<rscale>  2 0.23892032E+03</rscale>
<asrwt>0</asrwt>
<pdfrwt beam="1">  1        1 0.12189515E+00 0.23892032E+03</pdfrwt>
<pdfrwt beam="2">  1       -1 0.11342888E-01 0.23892032E+03</pdfrwt>
<totfact> 0.11719503E+03</totfact>
</mgrwt>
</event>
<event>
 4    2  0.9414654E-001  0.1847437E+03  0.7546771E-02  0.1163289E+00
         -1   -1    0    0    0  501 -0.00000000000E+00  0.00000000000E+00  0.70388618776E+03  0.70388618776E+03  0.00000000000E+00 0.  1.
          1   -1    0    0  502    0  0.00000000000E+00 -0.00000000000E+00 -0.49327679055E+02  0.49327679055E+02  0.00000000000E+00 0. -1.
          6    1    1    2  502    0 -0.64534860731E+02  0.60410803843E+01  0.37640652904E+03  0.41929955641E+03  0.17300000000E+03 0. -1.
         -6    1    1    2    0  501  0.64534860731E+02 -0.60410803843E+01  0.27815197967E+03  0.33391431041E+03  0.17300000000E+03 0.  1.
<mgrwt>
<rscale>  2 0.18474372E+03</rscale>
<asrwt>0</asrwt>
<pdfrwt beam="1">  1        1 0.75888742E-02 0.18474372E+03</pdfrwt>
<pdfrwt beam="2">  1       -1 0.10829018E+00 0.18474372E+03</pdfrwt>
<totfact> 0.78188143E+02</totfact>
</mgrwt>
</event>
<event>
 4    2  0.9414654E-001  0.1780957E+03  0.7546771E-02  0.1169659E+00
          2   -1    0    0  502    0  0.00000000000E+00  0.00000000000E+00  0.61709748737E+03  0.61709748737E+03  0.00000000000E+00 0.  1.
         -2   -1    0    0    0  501 -0.00000000000E+00 -0.00000000000E+00 -0.57361669267E+02  0.57361669267E+02  0.00000000000E+00 0. -1.
          6    1    1    2  502    0 -0.41177977814E+02 -0.96669139729E+01  0.38859609258E+03  0.42746344668E+03  0.17300000000E+03 0.  1.
         -6    1    1    2    0  501  0.41177977814E+02  0.96669139729E+01  0.17113972552E+03  0.24699570995E+03  0.17300000000E+03 0. -1.
<mgrwt>
<rscale>  2 0.17809569E+03</rscale>
<asrwt>0</asrwt>
<pdfrwt beam="1">  1        2 0.94938070E-01 0.17809569E+03</pdfrwt>
<pdfrwt beam="2">  1       -2 0.88248726E-02 0.17809569E+03</pdfrwt>
<totfact> 0.38835791E+03</totfact>
</mgrwt>
</event>
<event>
 4    2  0.9414654E-001  0.2760405E+03  0.7546771E-02  0.1097871E+00
         -3   -1    0    0    0  501 -0.00000000000E+00  0.00000000000E+00  0.42170576571E+03  0.42170576571E+03  0.00000000000E+00 0. -1.
          3   -1    0    0  502    0  0.00000000000E+00 -0.00000000000E+00 -0.27009018966E+03  0.27009018966E+03  0.00000000000E+00 0.  1.
          6    1    1    2  502    0  0.21466281682E+03  0.13756098835E+02 -0.12319578660E+03  0.30228390135E+03  0.17300000000E+03 0.  1.
         -6    1    1    2    0  501 -0.21466281682E+03 -0.13756098835E+02  0.27481136266E+03  0.38951205402E+03  0.17300000000E+03 0. -1.
<mgrwt>
<rscale>  2 0.27604050E+03</rscale>
<asrwt>0</asrwt>
<pdfrwt beam="1">  1        3 0.41552337E-01 0.27604050E+03</pdfrwt>
<pdfrwt beam="2">  1       -3 0.64877810E-01 0.27604050E+03</pdfrwt>
<totfact> 0.33590431E+01</totfact>
</mgrwt>
</event>
<event>
 4    2  0.9414654E-001  0.2747571E+03  0.7546771E-02  0.1098587E+00
          2   -1    0    0  502    0  0.00000000000E+00  0.00000000000E+00  0.93175412077E+03  0.93175412077E+03  0.00000000000E+00 0.  1.
         -2   -1    0    0    0  501 -0.00000000000E+00 -0.00000000000E+00 -0.11246256481E+03  0.11246256481E+03  0.00000000000E+00 0. -1.
          6    1    1    2  502    0 -0.19533898240E+03  0.86053200575E+02  0.13358160677E+03  0.30550862024E+03  0.17300000000E+03 0. -1.
         -6    1    1    2    0  501  0.19533898240E+03 -0.86053200575E+02  0.68570994919E+03  0.73870806534E+03  0.17300000000E+03 0.  1.
<mgrwt>
<rscale>  2 0.27475711E+03</rscale>
<asrwt>0</asrwt>
<pdfrwt beam="1">  1        2 0.14334678E+00 0.27475711E+03</pdfrwt>
<pdfrwt beam="2">  1       -2 0.17301934E-01 0.27475711E+03</pdfrwt>
<totfact> 0.78268410E+02</totfact>
</mgrwt>
</event>
<event>
 4    2  0.9414654E-001  0.4077359E+03  0.7546771E-02  0.1041133E+00
         -1   -1    0    0    0  501 -0.00000000000E+00  0.00000000000E+00  0.31934844216E+03  0.31934844216E+03  0.00000000000E+00 0. -1.
          1   -1    0    0  502    0  0.00000000000E+00 -0.00000000000E+00 -0.75990204667E+03  0.75990204667E+03  0.00000000000E+00 0.  1.
          6    1    1    2  502    0  0.32534141561E+03  0.17456376309E+03 -0.52310669838E+03  0.66324140551E+03  0.17300000000E+03 0.  1.
         -6    1    1    2    0  501 -0.32534141561E+03 -0.17456376309E+03  0.82553093875E+02  0.41600908332E+03  0.17300000000E+03 0. -1.
<mgrwt>
<rscale>  2 0.40773588E+03</rscale>
<asrwt>0</asrwt>
<pdfrwt beam="1">  1        1 0.11690801E+00 0.40773588E+03</pdfrwt>
<pdfrwt beam="2">  1       -1 0.49130530E-01 0.40773588E+03</pdfrwt>
<totfact> 0.10486830E+02</totfact>
</mgrwt>
</event>
<event>
 4    2  0.9414654E-001  0.3521245E+03  0.7546771E-02  0.1061746E+00
         -1   -1    0    0    0  501 -0.00000000000E+00  0.00000000000E+00  0.47950946845E+03  0.47950946845E+03  0.00000000000E+00 0.  1.
          1   -1    0    0  502    0  0.00000000000E+00 -0.00000000000E+00 -0.40633875809E+03  0.40633875809E+03  0.00000000000E+00 0. -1.
          6    1    1    2  502    0  0.31331720204E+02 -0.30509172433E+03  0.30367778263E+03  0.46498584130E+03  0.17300000000E+03 0.  1.
         -6    1    1    2    0  501 -0.31331720204E+02  0.30509172433E+03 -0.23050707226E+03  0.42086238524E+03  0.17300000000E+03 0. -1.
<mgrwt>
<rscale>  2 0.35212446E+03</rscale>
<asrwt>0</asrwt>
<pdfrwt beam="1">  1        1 0.62513655E-01 0.35212446E+03</pdfrwt>
<pdfrwt beam="2">  1       -1 0.73770688E-01 0.35212446E+03</pdfrwt>
<totfact> 0.11441210E+02</totfact>
</mgrwt>
</event>
