<event>
 4    2  0.3171963E-007  0.6773608E+03  0.7818608E-02  0.1010858E+00
         -2   -1    0    0    0  501 -0.00000000000E+00  0.00000000000E+00  0.15324685324E+03  0.15324685326E+03  0.25500000000E-02 0.  1.
          2   -1    0    0  501    0  0.00000000000E+00 -0.00000000000E+00 -0.14469497739E+04  0.14469497739E+04  0.25500000000E-02 0. -1.
    8880023    1    1    2    0    0 -0.11540622087E+03  0.10811481934E+03 -0.11584501023E+04  0.13419479333E+04  0.65864270000E+03 0.  0.
    8880022    1    1    2    0    0  0.11540622087E+03 -0.10811481934E+03 -0.13525281837E+03  0.25824869384E+03  0.15294330000E+03 0.  0.
<mgrwt>
<rscale>  0 0.51135164E+03</rscale>
<asrwt>0</asrwt>
<pdfrwt beam="1">  1        2 0.22260765E+00 0.67736077E+03</pdfrwt>
<pdfrwt beam="2">  1       -2 0.23576440E-01 0.67736077E+03</pdfrwt>
<totfact> 0.22092025E+02</totfact>
</mgrwt>
</event>
<event>
 4    2  0.3171963E-007  0.7388567E+03  0.7818608E-02  0.9863290E-01
          2   -1    0    0  501    0  0.00000000000E+00  0.00000000000E+00  0.16151745821E+04  0.16151745821E+04  0.25500000000E-02 0. -1.
         -2   -1    0    0    0  501 -0.00000000000E+00 -0.00000000000E+00 -0.34122376588E+03  0.34122376589E+03  0.25500000000E-02 0.  1.
    8880023    1    1    2    0    0 -0.32667836708E+03  0.73350190897E+02  0.13868451631E+04  0.15713843320E+04  0.65864270000E+03 0.  0.
    8880022    1    1    2    0    0  0.32667836708E+03 -0.73350190897E+02 -0.11289434683E+03  0.38501401609E+03  0.15294330000E+03 0.  0.
<mgrwt>
<rscale>  0 0.62073871E+03</rscale>
<asrwt>0</asrwt>
<pdfrwt beam="1">  1        2 0.24848840E+00 0.73885669E+03</pdfrwt>
<pdfrwt beam="2">  1       -2 0.52495963E-01 0.73885669E+03</pdfrwt>
<totfact> 0.38411649E+01</totfact>
</mgrwt>
</event>
<event>
 4    2  0.3171963E-007  0.6691069E+03  0.7818608E-02  0.1016311E+00
          2   -1    0    0  501    0  0.00000000000E+00  0.00000000000E+00  0.21494885800E+04  0.21494885800E+04  0.25500000000E-02 0. -1.
         -2   -1    0    0    0  501 -0.00000000000E+00 -0.00000000000E+00 -0.88577831117E+02  0.88577831154E+02  0.25500000000E-02 0.  1.
    8880023    1    1    2    0    0 -0.23420180455E+02 -0.11552176508E+03  0.17307439473E+04  0.18555803945E+04  0.65864270000E+03 0.  0.
    8880022    1    1    2    0    0  0.23420180455E+02  0.11552176508E+03  0.33016680161E+03  0.38248601668E+03  0.15294330000E+03 0.  0.
<mgrwt>
<rscale>  0 0.49041530E+03</rscale>
<asrwt>0</asrwt>
<pdfrwt beam="1">  1        2 0.33069054E+00 0.66910686E+03</pdfrwt>
<pdfrwt beam="2">  1       -2 0.13627359E-01 0.66910686E+03</pdfrwt>
<totfact> 0.23506356E+02</totfact>
</mgrwt>
</event>
<event>
 4    2  0.3171963E-007  0.7630949E+03  0.7818608E-02  0.9797160E-01
         -2   -1    0    0    0  501 -0.00000000000E+00  0.00000000000E+00  0.96692406047E+03  0.96692406047E+03  0.25500000000E-02 0.  1.
          2   -1    0    0  501    0  0.00000000000E+00 -0.00000000000E+00 -0.93389216659E+03  0.93389216659E+03  0.25500000000E-02 0. -1.
    8880023    1    1    2    0    0 -0.35265331132E+03  0.15536791082E+03 -0.71490085423E+03  0.10456562453E+04  0.65864270000E+03 0. -1.
    8880022    1    1    2    0    0  0.35265331132E+03 -0.15536791082E+03  0.74793274811E+03  0.85515998176E+03  0.15294330000E+03 0.  0.
<mgrwt>
<rscale>  0 0.65515168E+03</rscale>
<asrwt>0</asrwt>
<pdfrwt beam="1">  1        2 0.14367572E+00 0.76309485E+03</pdfrwt>
<pdfrwt beam="2">  1       -2 0.14875755E+00 0.76309485E+03</pdfrwt>
<totfact> 0.86587239E+00</totfact>
</mgrwt>
</event>
<event>
 4    2  0.3171963E-007  0.7727726E+03  0.7818608E-02  0.9773097E-01
         -2   -1    0    0    0  501 -0.00000000000E+00  0.00000000000E+00  0.85727787194E+03  0.85727787195E+03  0.25500000000E-02 0.  1.
          2   -1    0    0  501    0  0.00000000000E+00 -0.00000000000E+00 -0.87613226014E+03  0.87613226014E+03  0.25500000000E-02 0. -1.
    8880023    1    1    2    0    0  0.36854376459E+03  0.16596010975E+03  0.60017069246E+03  0.97845916154E+03  0.65864270000E+03 0.  1.
    8880022    1    1    2    0    0 -0.36854376459E+03 -0.16596010975E+03 -0.61902508065E+03  0.75495097055E+03  0.15294330000E+03 0.  0.
<mgrwt>
<rscale>  0 0.66826536E+03</rscale>
<asrwt>0</asrwt>
<pdfrwt beam="1">  1        2 0.13478958E+00 0.77277259E+03</pdfrwt>
<pdfrwt beam="2">  1       -2 0.13188890E+00 0.77277259E+03</pdfrwt>
<totfact> 0.12916956E+01</totfact>
</mgrwt>
</event>
<event>
 4    2  0.3171963E-007  0.6789069E+03  0.7818608E-02  0.1009949E+00
          2   -1    0    0  501    0  0.00000000000E+00  0.00000000000E+00  0.70229015999E+03  0.70229015999E+03  0.25500000000E-02 0. -1.
         -2   -1    0    0    0  501 -0.00000000000E+00 -0.00000000000E+00 -0.29300166878E+03  0.29300166880E+03  0.25500000000E-02 0.  1.
    8880023    1    1    2    0    0  0.25348860855E+02  0.16267104386E+03  0.34514280537E+03  0.76160238683E+03  0.65864270000E+03 0.  0.
    8880022    1    1    2    0    0 -0.25348860855E+02 -0.16267104386E+03  0.64145685830E+02  0.23368944196E+03  0.15294330000E+03 0.  1.
<mgrwt>
<rscale>  0 0.51494981E+03</rscale>
<asrwt>0</asrwt>
<pdfrwt beam="1">  1        2 0.10804464E+00 0.67890694E+03</pdfrwt>
<pdfrwt beam="2">  1       -2 0.45077180E-01 0.67890694E+03</pdfrwt>
<totfact> 0.19297146E+02</totfact>
</mgrwt>
</event>
<event>
 4    2  0.3171963E-007  0.7180969E+03  0.7818608E-02  0.9929079E-01
          2   -1    0    0  501    0  0.00000000000E+00  0.00000000000E+00  0.16255610051E+04  0.16255610051E+04  0.25500000000E-02 0. -1.
         -2   -1    0    0    0  501 -0.00000000000E+00 -0.00000000000E+00 -0.19670842264E+03  0.19670842265E+03  0.25500000000E-02 0.  1.
    8880023    1    1    2    0    0 -0.12547156350E+02 -0.28582417269E+03  0.12747916103E+04  0.14631325110E+04  0.65864270000E+03 0.  1.
    8880022    1    1    2    0    0  0.12547156350E+02  0.28582417269E+03  0.15406097222E+03  0.35913691680E+03  0.15294330000E+03 0.  0.
<mgrwt>
<rscale>  0 0.58872465E+03</rscale>
<asrwt>0</asrwt>
<pdfrwt beam="1">  1        2 0.25008631E+00 0.71809686E+03</pdfrwt>
<pdfrwt beam="2">  1       -2 0.30262835E-01 0.71809686E+03</pdfrwt>
<totfact> 0.11127100E+02</totfact>
</mgrwt>
</event>
<event>
 4    2  0.3171963E-007  0.9207514E+03  0.7818608E-02  0.9493508E-01
          2   -1    0    0  501    0  0.00000000000E+00  0.00000000000E+00  0.11540886323E+04  0.11540886323E+04  0.25500000000E-02 0. -1.
         -2   -1    0    0    0  501 -0.00000000000E+00 -0.00000000000E+00 -0.89532181350E+03  0.89532181350E+03  0.25500000000E-02 0.  1.
    8880023    1    1    2    0    0  0.47072687889E+03 -0.43862176995E+03  0.78050260981E+03  0.12070490387E+04  0.65864270000E+03 0.  0.
    8880022    1    1    2    0    0 -0.47072687889E+03  0.43862176995E+03 -0.52173579101E+03  0.84236140713E+03  0.15294330000E+03 0.  0.
<mgrwt>
<rscale>  0 0.84764151E+03</rscale>
<asrwt>0</asrwt>
<pdfrwt beam="1">  1        2 0.17755210E+00 0.92075136E+03</pdfrwt>
<pdfrwt beam="2">  1       -2 0.13774182E+00 0.92075136E+03</pdfrwt>
<totfact> 0.75600851E+00</totfact>
</mgrwt>
</event>
<event>
 4    2  0.3171963E-007  0.7273897E+03  0.7818608E-02  0.9898331E-01
          2   -1    0    0  501    0  0.00000000000E+00  0.00000000000E+00  0.69755511203E+03  0.69755511204E+03  0.25500000000E-02 0. -1.
         -2   -1    0    0    0  501 -0.00000000000E+00 -0.00000000000E+00 -0.12687976933E+04  0.12687976933E+04  0.25500000000E-02 0.  1.
    8880023    1    1    2    0    0  0.23947731471E+03  0.19477225135E+03  0.47239658146E+03  0.86732597712E+03  0.65864270000E+03 0.  0.
    8880022    1    1    2    0    0 -0.23947731471E+03 -0.19477225135E+03 -0.10436391627E+04  0.10990268282E+04  0.15294330000E+03 0.  0.
<mgrwt>
<rscale>  0 0.60342224E+03</rscale>
<asrwt>0</asrwt>
<pdfrwt beam="1">  1        2 0.10731617E+00 0.72738973E+03</pdfrwt>
<pdfrwt beam="2">  1       -2 0.19519964E+00 0.72738973E+03</pdfrwt>
<totfact> 0.60246261E+00</totfact>
</mgrwt>
</event>
<event>
 4    2  0.3171963E-007  0.7666507E+03  0.7818608E-02  0.9788184E-01
         -2   -1    0    0    0  501 -0.00000000000E+00  0.00000000000E+00  0.48042469860E+03  0.48042469861E+03  0.25500000000E-02 0.  1.
          2   -1    0    0  501    0  0.00000000000E+00 -0.00000000000E+00 -0.20856190315E+04  0.20856190315E+04  0.25500000000E-02 0. -1.
    8880023    1    1    2    0    0  0.21522767922E+03 -0.32805514315E+03 -0.19020994315E+04  0.20507890151E+04  0.65864270000E+03 0.  0.
    8880022    1    1    2    0    0 -0.21522767922E+03  0.32805514315E+03  0.29690509854E+03  0.51525471507E+03  0.15294330000E+03 0.  0.
<mgrwt>
<rscale>  0 0.66000527E+03</rscale>
<asrwt>0</asrwt>
<pdfrwt beam="1">  1        2 0.32086446E+00 0.76665073E+03</pdfrwt>
<pdfrwt beam="2">  1       -2 0.73911494E-01 0.76665073E+03</pdfrwt>
<totfact> 0.10216787E+01</totfact>
</mgrwt>
</event>
<event>
 4    2  0.3171963E-007  0.1188263E+04  0.7818608E-02  0.9168617E-01
          2   -1    0    0  501    0  0.00000000000E+00  0.00000000000E+00  0.21923152640E+04  0.21923152640E+04  0.25500000000E-02 0. -1.
         -2   -1    0    0    0  501 -0.00000000000E+00 -0.00000000000E+00 -0.96421821238E+03  0.96421821239E+03  0.25500000000E-02 0.  1.
    8880023    1    1    2    0    0 -0.85262825351E+03  0.50118240041E+03  0.16805708828E+04  0.20582243404E+04  0.65864270000E+03 0.  0.
    8880022    1    1    2    0    0  0.85262825351E+03 -0.50118240041E+03 -0.45247383120E+03  0.10983091359E+04  0.15294330000E+03 0.  0.
<mgrwt>
<rscale>  0 0.11383309E+04</rscale>
<asrwt>0</asrwt>
<pdfrwt beam="1">  1        2 0.33727927E+00 0.11882630E+04</pdfrwt>
<pdfrwt beam="2">  1       -2 0.14834126E+00 0.11882630E+04</pdfrwt>
<totfact> 0.15710752E+00</totfact>
</mgrwt>
</event>
<event>
 4    2  0.3171963E-007  0.8289494E+03  0.7818608E-02  0.9651380E-01
         -2   -1    0    0    0  501 -0.00000000000E+00  0.00000000000E+00  0.99988333613E+03  0.99988333614E+03  0.25500000000E-02 0.  1.
          2   -1    0    0  501    0  0.00000000000E+00 -0.00000000000E+00 -0.10007315724E+04  0.10007315724E+04  0.25500000000E-02 0. -1.
    8880023    1    1    2    0    0  0.50284468263E+03  0.22229487078E+02 -0.72792091000E+03  0.11031890058E+04  0.65864270000E+03 0.  0.
    8880022    1    1    2    0    0 -0.50284468263E+03 -0.22229487078E+02  0.72707267377E+03  0.89742590274E+03  0.15294330000E+03 0.  0.
<mgrwt>
<rscale>  0 0.73986884E+03</rscale>
<asrwt>0</asrwt>
<pdfrwt beam="1">  1        2 0.15395871E+00 0.82894941E+03</pdfrwt>
<pdfrwt beam="2">  1       -2 0.15382820E+00 0.82894941E+03</pdfrwt>
<totfact> 0.71130008E+00</totfact>
</mgrwt>
</event>
<event>
 4    2  0.3171963E-007  0.8919408E+03  0.7818608E-02  0.9539095E-01
          2   -1    0    0  501    0  0.00000000000E+00  0.00000000000E+00  0.22501554922E+04  0.22501554922E+04  0.25500000000E-02 0. -1.
         -2   -1    0    0    0  501 -0.00000000000E+00 -0.00000000000E+00 -0.36942850534E+03  0.36942850535E+03  0.25500000000E-02 0.  1.
    8880023    1    1    2    0    0 -0.45919414657E+03  0.38844427083E+03  0.17798598922E+04  0.19908439562E+04  0.65864270000E+03 0.  1.
    8880022    1    1    2    0    0  0.45919414657E+03 -0.38844427083E+03  0.10086709464E+03  0.62874004134E+03  0.15294330000E+03 0.  0.
<mgrwt>
<rscale>  0 0.81461863E+03</rscale>
<asrwt>0</asrwt>
<pdfrwt beam="1">  1        2 0.34617777E+00 0.89194082E+03</pdfrwt>
<pdfrwt beam="2">  1       -2 0.56835155E-01 0.89194082E+03</pdfrwt>
<totfact> 0.14333615E+01</totfact>
</mgrwt>
</event>
<event>
 4    2  0.3171963E-007  0.9262172E+03  0.7818608E-02  0.9485191E-01
          2   -1    0    0  501    0  0.00000000000E+00  0.00000000000E+00  0.19023590155E+04  0.19023590155E+04  0.25500000000E-02 0. -1.
         -2   -1    0    0    0  501 -0.00000000000E+00 -0.00000000000E+00 -0.36054991219E+03  0.36054991220E+03  0.25500000000E-02 0.  1.
    8880023    1    1    2    0    0 -0.31397846006E+03  0.57051349011E+03  0.11873291227E+04  0.15058647906E+04  0.65864270000E+03 0. -1.
    8880022    1    1    2    0    0  0.31397846006E+03 -0.57051349011E+03  0.35447998056E+03  0.75704413703E+03  0.15294330000E+03 0.  1.
<mgrwt>
<rscale>  0 0.85384469E+03</rscale>
<asrwt>0</asrwt>
<pdfrwt beam="1">  1        2 0.29267061E+00 0.92621721E+03</pdfrwt>
<pdfrwt beam="2">  1       -2 0.55469218E-01 0.92621721E+03</pdfrwt>
<totfact> 0.23359464E+01</totfact>
</mgrwt>
</event>
<event>
 4    2  0.3171963E-007  0.8843865E+03  0.7818608E-02  0.9551576E-01
          2   -1    0    0  501    0  0.00000000000E+00  0.00000000000E+00  0.53648045236E+03  0.53648045236E+03  0.25500000000E-02 0. -1.
         -2   -1    0    0    0  501 -0.00000000000E+00 -0.00000000000E+00 -0.12198076366E+04  0.12198076366E+04  0.25500000000E-02 0.  1.
    8880023    1    1    2    0    0 -0.10453319489E+03  0.58086325561E+03 -0.63194709384E+02  0.88664146537E+03  0.65864270000E+03 0.  0.
    8880022    1    1    2    0    0  0.10453319489E+03 -0.58086325561E+03 -0.62013247487E+03  0.86964662361E+03  0.15294330000E+03 0.  0.
<mgrwt>
<rscale>  0 0.80585836E+03</rscale>
<asrwt>0</asrwt>
<pdfrwt beam="1">  1        2 0.82535454E-01 0.88438652E+03</pdfrwt>
<pdfrwt beam="2">  1       -2 0.18766271E+00 0.88438652E+03</pdfrwt>
<totfact> 0.91521063E+00</totfact>
</mgrwt>
</event>
<event>
 4    2  0.3171963E-007  0.8352279E+03  0.7818608E-02  0.9639245E-01
         -2   -1    0    0    0  501 -0.00000000000E+00  0.00000000000E+00  0.27804029874E+03  0.27804029876E+03  0.25500000000E-02 0.  1.
          2   -1    0    0  501    0  0.00000000000E+00 -0.00000000000E+00 -0.25049211421E+04  0.25049211421E+04  0.25500000000E-02 0. -1.
    8880023    1    1    2    0    0  0.29573406740E+03 -0.41992479952E+03 -0.20580856061E+04  0.22211082919E+04  0.65864270000E+03 0. -1.
    8880022    1    1    2    0    0 -0.29573406740E+03  0.41992479952E+03 -0.16879523723E+03  0.56185314897E+03  0.15294330000E+03 0.  0.
<mgrwt>
<rscale>  0 0.74752268E+03</rscale>
<asrwt>0</asrwt>
<pdfrwt beam="1">  1        2 0.38537247E+00 0.83522792E+03</pdfrwt>
<pdfrwt beam="2">  1       -2 0.42775432E-01 0.83522792E+03</pdfrwt>
<totfact> 0.18515237E+01</totfact>
</mgrwt>
</event>
<event>
 4    2  0.3171963E-007  0.7090825E+03  0.7818608E-02  0.9961424E-01
          2   -1    0    0  501    0  0.00000000000E+00  0.00000000000E+00  0.31872763105E+04  0.31872763105E+04  0.25500000000E-02 0. -1.
         -2   -1    0    0    0  501 -0.00000000000E+00 -0.00000000000E+00 -0.11303753857E+03  0.11303753860E+03  0.25500000000E-02 0.  1.
    8880023    1    1    2    0    0 -0.25750256987E+03 -0.51770151898E+02  0.28083547955E+04  0.28964900459E+04  0.65864270000E+03 0. -1.
    8880022    1    1    2    0    0  0.25750256987E+03  0.51770151898E+02  0.26588397637E+03  0.40382380319E+03  0.15294330000E+03 0.  0.
<mgrwt>
<rscale>  0 0.57374569E+03</rscale>
<asrwt>0</asrwt>
<pdfrwt beam="1">  1        2 0.49035011E+00 0.70908246E+03</pdfrwt>
<pdfrwt beam="2">  1       -2 0.17390394E-01 0.70908246E+03</pdfrwt>
<totfact> 0.38483951E+01</totfact>
</mgrwt>
</event>
<event>
 4    2  0.3171963E-007  0.6940924E+03  0.7818608E-02  0.1002265E+00
          2   -1    0    0  501    0  0.00000000000E+00  0.00000000000E+00  0.30234853583E+04  0.30234853583E+04  0.25500000000E-02 0. -1.
         -2   -1    0    0    0  501 -0.00000000000E+00 -0.00000000000E+00 -0.10703295711E+03  0.10703295714E+03  0.25500000000E-02 0.  1.
    8880023    1    1    2    0    0  0.20263226609E+03 -0.83031267412E+02  0.26968210563E+04  0.27847096873E+04  0.65864270000E+03 0.  0.
    8880022    1    1    2    0    0 -0.20263226609E+03  0.83031267412E+02  0.21963134492E+03  0.34580862817E+03  0.15294330000E+03 0.  0.
<mgrwt>
<rscale>  0 0.54668092E+03</rscale>
<asrwt>0</asrwt>
<pdfrwt beam="1">  1        2 0.46515157E+00 0.69409238E+03</pdfrwt>
<pdfrwt beam="2">  1       -2 0.16466610E-01 0.69409238E+03</pdfrwt>
<totfact> 0.53580778E+01</totfact>
</mgrwt>
</event>
<event>
 4    2  0.3171963E-007  0.8043416E+03  0.7818608E-02  0.9701486E-01
          2   -1    0    0  501    0  0.00000000000E+00  0.00000000000E+00  0.79277520872E+03  0.79277520872E+03  0.25500000000E-02 0. -1.
         -2   -1    0    0    0  501 -0.00000000000E+00 -0.00000000000E+00 -0.71642541565E+03  0.71642541565E+03  0.25500000000E-02 0.  1.
    8880023    1    1    2    0    0 -0.16644308411E+03 -0.43064135542E+03  0.42601142443E+03  0.91019295606E+03  0.65864270000E+03 0. -1.
    8880022    1    1    2    0    0  0.16644308411E+03  0.43064135542E+03 -0.34966163136E+03  0.59900766832E+03  0.15294330000E+03 0.  0.
<mgrwt>
<rscale>  0 0.70928387E+03</rscale>
<asrwt>0</asrwt>
<pdfrwt beam="1">  1        2 0.12196542E+00 0.80434165E+03</pdfrwt>
<pdfrwt beam="2">  1       -2 0.11021929E+00 0.80434165E+03</pdfrwt>
<totfact> 0.23010192E+01</totfact>
</mgrwt>
</event>
<event>
 4    2  0.3171963E-007  0.8443286E+03  0.7818608E-02  0.9622072E-01
          2   -1    0    0  501    0  0.00000000000E+00  0.00000000000E+00  0.96817777804E+03  0.96817777804E+03  0.25500000000E-02 0. -1.
         -2   -1    0    0    0  501 -0.00000000000E+00 -0.00000000000E+00 -0.10251684098E+04  0.10251684098E+04  0.25500000000E-02 0.  1.
    8880023    1    1    2    0    0 -0.37325978611E+03  0.37384186769E+03  0.67274350236E+03  0.10795715058E+04  0.65864270000E+03 0. -1.
    8880022    1    1    2    0    0  0.37325978611E+03 -0.37384186769E+03 -0.72973413409E+03  0.91377468199E+03  0.15294330000E+03 0.  0.
<mgrwt>
<rscale>  0 0.75852400E+03</rscale>
<asrwt>0</asrwt>
<pdfrwt beam="1">  1        2 0.14895043E+00 0.84432862E+03</pdfrwt>
<pdfrwt beam="2">  1       -2 0.15771822E+00 0.84432862E+03</pdfrwt>
<totfact> 0.69684975E+00</totfact>
</mgrwt>
</event>
<event>
 4    2  0.3171963E-007  0.9583081E+03  0.7818608E-02  0.9438260E-01
         -2   -1    0    0    0  501 -0.00000000000E+00  0.00000000000E+00  0.37537738200E+03  0.37537738201E+03  0.25500000000E-02 0.  1.
          2   -1    0    0  501    0  0.00000000000E+00 -0.00000000000E+00 -0.25570682981E+04  0.25570682981E+04  0.25500000000E-02 0. -1.
    8880023    1    1    2    0    0 -0.28914543521E+03  0.63319752110E+03 -0.19671512792E+04  0.21881587111E+04  0.65864270000E+03 0. -1.
    8880022    1    1    2    0    0  0.28914543521E+03 -0.63319752110E+03 -0.21453963690E+03  0.74428696901E+03  0.15294330000E+03 0.  0.
<mgrwt>
<rscale>  0 0.88992821E+03</rscale>
<asrwt>0</asrwt>
<pdfrwt beam="1">  1        2 0.39339511E+00 0.95830809E+03</pdfrwt>
<pdfrwt beam="2">  1       -2 0.57750368E-01 0.95830809E+03</pdfrwt>
<totfact> 0.92195763E+00</totfact>
</mgrwt>
</event>
<event>
 4    2  0.3171963E-007  0.7349279E+03  0.7818608E-02  0.9874976E-01
          2   -1    0    0  501    0  0.00000000000E+00  0.00000000000E+00  0.13537794907E+04  0.13537794907E+04  0.25500000000E-02 0. -1.
         -2   -1    0    0    0  501 -0.00000000000E+00 -0.00000000000E+00 -0.26472086646E+03  0.26472086647E+03  0.25500000000E-02 0.  1.
    8880023    1    1    2    0    0  0.31727352471E+03  0.75141912148E+02  0.10111716614E+04  0.12500348521E+04  0.65864270000E+03 0. -1.
    8880022    1    1    2    0    0 -0.31727352471E+03 -0.75141912148E+02  0.77886962900E+02  0.36846550510E+03  0.15294330000E+03 0.  0.
<mgrwt>
<rscale>  0 0.61489538E+03</rscale>
<asrwt>0</asrwt>
<pdfrwt beam="1">  1        2 0.20827377E+00 0.73492789E+03</pdfrwt>
<pdfrwt beam="2">  1       -2 0.40726287E-01 0.73492789E+03</pdfrwt>
<totfact> 0.89458560E+01</totfact>
</mgrwt>
</event>
<event>
 4    2  0.3171963E-007  0.6642919E+03  0.7818608E-02  0.1020135E+00
          2   -1    0    0  501    0  0.00000000000E+00  0.00000000000E+00  0.36011918977E+04  0.36011918977E+04  0.25500000000E-02 0. -1.
         -2   -1    0    0    0  501 -0.00000000000E+00 -0.00000000000E+00 -0.19890386729E+03  0.19890386731E+03  0.25500000000E-02 0.  1.
    8880023    1    1    2    0    0 -0.99159962126E+01 -0.85879147770E+02  0.35241962120E+04  0.35862574785E+04  0.65864270000E+03 0. -1.
    8880022    1    1    2    0    0  0.99159962126E+01  0.85879147770E+02 -0.12190818164E+03  0.21383828649E+03  0.15294330000E+03 0.  0.
<mgrwt>
<rscale>  0 0.47637930E+03</rscale>
<asrwt>0</asrwt>
<pdfrwt beam="1">  1        2 0.55402947E+00 0.66429192E+03</pdfrwt>
<pdfrwt beam="2">  1       -2 0.30600598E-01 0.66429192E+03</pdfrwt>
<totfact> 0.75244815E+00</totfact>
</mgrwt>
</event>
<event>
 4    2  0.3171963E-007  0.7142907E+03  0.7818608E-02  0.9942400E-01
         -2   -1    0    0    0  501 -0.00000000000E+00  0.00000000000E+00  0.21643809549E+03  0.21643809551E+03  0.25500000000E-02 0.  1.
          2   -1    0    0  501    0  0.00000000000E+00 -0.00000000000E+00 -0.22801270072E+04  0.22801270072E+04  0.25500000000E-02 0. -1.
    8880023    1    1    2    0    0 -0.12840697731E+03  0.24477067712E+03 -0.20603428346E+04  0.21806475732E+04  0.65864270000E+03 0.  0.
    8880022    1    1    2    0    0  0.12840697731E+03 -0.24477067712E+03 -0.33460771127E+01  0.31591752951E+03  0.15294330000E+03 0.  0.
<mgrwt>
<rscale>  0 0.58249687E+03</rscale>
<asrwt>0</asrwt>
<pdfrwt beam="1">  1        2 0.35078875E+00 0.71429073E+03</pdfrwt>
<pdfrwt beam="2">  1       -2 0.33298170E-01 0.71429073E+03</pdfrwt>
<totfact> 0.40830327E+01</totfact>
</mgrwt>
</event>
<event>
 4    2  0.3171963E-007  0.7721689E+03  0.7818608E-02  0.9774565E-01
         -2   -1    0    0    0  501 -0.00000000000E+00  0.00000000000E+00  0.25203348684E+04  0.25203348684E+04  0.25500000000E-02 0.  1.
          2   -1    0    0  501    0  0.00000000000E+00 -0.00000000000E+00 -0.19525198366E+03  0.19525198367E+03  0.25500000000E-02 0. -1.
    8880023    1    1    2    0    0  0.32786538048E+03 -0.23439042379E+03  0.72760435908E+03  0.10609679015E+04  0.65864270000E+03 0. -1.
    8880022    1    1    2    0    0 -0.32786538048E+03  0.23439042379E+03  0.15974785257E+04  0.16546189505E+04  0.15294330000E+03 0.  0.
<mgrwt>
<rscale>  0 0.66745594E+03</rscale>
<asrwt>0</asrwt>
<pdfrwt beam="1">  1        2 0.30038766E-01 0.77216888E+03</pdfrwt>
<pdfrwt beam="2">  1       -2 0.38774383E+00 0.77216888E+03</pdfrwt>
<totfact> 0.16728936E+00</totfact>
</mgrwt>
</event>
<event>
 4    2  0.3171963E-007  0.1480859E+04  0.7818608E-02  0.8923272E-01
         -2   -1    0    0    0  501 -0.00000000000E+00  0.00000000000E+00  0.72868668890E+03  0.72868668890E+03  0.25500000000E-02 0.  1.
          2   -1    0    0  501    0  0.00000000000E+00 -0.00000000000E+00 -0.27799423518E+04  0.27799423518E+04  0.25500000000E-02 0. -1.
    8880023    1    1    2    0    0 -0.11811552551E+04 -0.60332740401E+03 -0.82147262509E+03  0.16934459463E+04  0.65864270000E+03 0.  0.
    8880022    1    1    2    0    0  0.11811552551E+04  0.60332740401E+03 -0.12297830379E+04  0.18151830944E+04  0.15294330000E+03 0.  0.
<mgrwt>
<rscale>  0 0.14429942E+04</rscale>
<asrwt>0</asrwt>
<pdfrwt beam="1">  1        2 0.42768343E+00 0.14808585E+04</pdfrwt>
<pdfrwt beam="2">  1       -2 0.11210565E+00 0.14808585E+04</pdfrwt>
<totfact> 0.14240226E+00</totfact>
</mgrwt>
</event>
<event>
 4    2  0.3171963E-007  0.6750669E+03  0.7818608E-02  0.1012264E+00
         -2   -1    0    0    0  501 -0.00000000000E+00  0.00000000000E+00  0.24368884281E+03  0.24368884282E+03  0.25500000000E-02 0.  1.
          2   -1    0    0  501    0  0.00000000000E+00 -0.00000000000E+00 -0.16680976549E+04  0.16680976549E+04  0.25500000000E-02 0. -1.
    8880023    1    1    2    0    0 -0.14322657529E+03 -0.37300214511E+02 -0.15313906976E+04  0.16735808414E+04  0.65864270000E+03 0. -1.
    8880022    1    1    2    0    0  0.14322657529E+03  0.37300214511E+02  0.10698188547E+03  0.23820565633E+03  0.15294330000E+03 0.  0.
<mgrwt>
<rscale>  0 0.50584630E+03</rscale>
<asrwt>0</asrwt>
<pdfrwt beam="1">  1        2 0.25663040E+00 0.67506693E+03</pdfrwt>
<pdfrwt beam="2">  1       -2 0.37490592E-01 0.67506693E+03</pdfrwt>
<totfact> 0.70672596E+01</totfact>
</mgrwt>
</event>
<event>
 4    2  0.3171963E-007  0.7773251E+03  0.7818608E-02  0.9762158E-01
         -2   -1    0    0    0  501 -0.00000000000E+00  0.00000000000E+00  0.45033860347E+03  0.45033860347E+03  0.25500000000E-02 0.  1.
          2   -1    0    0  501    0  0.00000000000E+00 -0.00000000000E+00 -0.15931839509E+04  0.15931839509E+04  0.25500000000E-02 0. -1.
    8880023    1    1    2    0    0 -0.36297356576E+03  0.19665771988E+03 -0.13493627822E+04  0.15572457072E+04  0.65864270000E+03 0. -1.
    8880022    1    1    2    0    0  0.36297356576E+03 -0.19665771988E+03  0.20651743479E+03  0.48627684719E+03  0.15294330000E+03 0.  0.
<mgrwt>
<rscale>  0 0.67433490E+03</rscale>
<asrwt>0</asrwt>
<pdfrwt beam="1">  1        2 0.24510522E+00 0.77732508E+03</pdfrwt>
<pdfrwt beam="2">  1       -2 0.69282863E-01 0.77732508E+03</pdfrwt>
<totfact> 0.21862959E+01</totfact>
</mgrwt>
</event>
<event>
 4    2  0.3566071E-007  0.6645406E+03  0.7818608E-02  0.1019922E+00
          2   -1    0    0  501    0  0.00000000000E+00  0.00000000000E+00  0.20477845081E+04  0.20477845081E+04  0.25500000000E-02 0. -1.
         -2   -1    0    0    0  501 -0.00000000000E+00 -0.00000000000E+00 -0.68473443912E+03  0.68473443912E+03  0.25500000000E-02 0.  1.
    8880023    1    1    2    0    0  0.88213692305E+02  0.47268667564E+01  0.19811736648E+04  0.20896562624E+04  0.65864270000E+03 0. -1.
    8880022    1    1    2    0    0 -0.88213692305E+02 -0.47268667564E+01 -0.61812359581E+03  0.64286268479E+03  0.15294330000E+03 0.  0.
<mgrwt>
<rscale>  0 0.47714777E+03</rscale>
<asrwt>0</asrwt>
<pdfrwt beam="1">  1        2 0.31504377E+00 0.66454060E+03</pdfrwt>
<pdfrwt beam="2">  1       -2 0.10534376E+00 0.66454060E+03</pdfrwt>
<totfact> 0.48274471E+00</totfact>
</mgrwt>
</event>
<event>
 4    2  0.3171963E-007  0.6733324E+03  0.7818608E-02  0.1013379E+00
          2   -1    0    0  501    0  0.00000000000E+00  0.00000000000E+00  0.15979705423E+04  0.15979705423E+04  0.25500000000E-02 0. -1.
         -2   -1    0    0    0  501 -0.00000000000E+00 -0.00000000000E+00 -0.19190907216E+03  0.19190907218E+03  0.25500000000E-02 0.  1.
    8880023    1    1    2    0    0 -0.12529048468E+03 -0.62198289268E+02  0.14306316932E+04  0.15811652604E+04  0.65864270000E+03 0. -1.
    8880022    1    1    2    0    0  0.12529048468E+03  0.62198289268E+02 -0.24570223053E+02  0.20871435412E+03  0.15294330000E+03 0.  0.
<mgrwt>
<rscale>  0 0.50153660E+03</rscale>
<asrwt>0</asrwt>
<pdfrwt beam="1">  1        2 0.24584162E+00 0.67333241E+03</pdfrwt>
<pdfrwt beam="2">  1       -2 0.29524473E-01 0.67333241E+03</pdfrwt>
<totfact> 0.12114905E+02</totfact>
</mgrwt>
</event>
<event>
 4    2  0.3171963E-007  0.1002705E+04  0.7818608E-02  0.9378027E-01
         -2   -1    0    0    0  501 -0.00000000000E+00  0.00000000000E+00  0.33706516250E+03  0.33706516251E+03  0.25500000000E-02 0.  1.
          2   -1    0    0  501    0  0.00000000000E+00 -0.00000000000E+00 -0.25900738108E+04  0.25900738108E+04  0.25500000000E-02 0. -1.
    8880023    1    1    2    0    0  0.74789790761E+03  0.11070903362E+03 -0.17152387280E+04  0.19868220530E+04  0.65864270000E+03 0.  0.
    8880022    1    1    2    0    0 -0.74789790761E+03 -0.11070903362E+03 -0.53776992036E+03  0.94031692029E+03  0.15294330000E+03 0.  0.
<mgrwt>
<rscale>  0 0.93906263E+03</rscale>
<asrwt>0</asrwt>
<pdfrwt beam="1">  1        2 0.39847288E+00 0.10027053E+04</pdfrwt>
<pdfrwt beam="2">  1       -2 0.51856180E-01 0.10027053E+04</pdfrwt>
<totfact> 0.10978184E+01</totfact>
</mgrwt>
</event>
<event>
 4    2  0.3171963E-007  0.6780075E+03  0.7818608E-02  0.1010474E+00
          2   -1    0    0  501    0  0.00000000000E+00  0.00000000000E+00  0.17393873316E+04  0.17393873316E+04  0.25500000000E-02 0. -1.
         -2   -1    0    0    0  501 -0.00000000000E+00 -0.00000000000E+00 -0.14860912813E+03  0.14860912815E+03  0.25500000000E-02 0.  1.
    8880023    1    1    2    0    0 -0.13335443774E+03 -0.90002862439E+02  0.15038093453E+04  0.16495868194E+04  0.65864270000E+03 0.  0.
    8880022    1    1    2    0    0  0.13335443774E+03  0.90002862439E+02  0.86968858111E+02  0.23840964034E+03  0.15294330000E+03 0.  0.
<mgrwt>
<rscale>  0 0.51286708E+03</rscale>
<asrwt>0</asrwt>
<pdfrwt beam="1">  1        2 0.26759807E+00 0.67800747E+03</pdfrwt>
<pdfrwt beam="2">  1       -2 0.22862941E-01 0.67800747E+03</pdfrwt>
<totfact> 0.16109144E+02</totfact>
</mgrwt>
</event>
<event>
 4    2  0.3171963E-007  0.1089631E+04  0.7818608E-02  0.9272689E-01
          2   -1    0    0  501    0  0.00000000000E+00  0.00000000000E+00  0.23429566100E+04  0.23429566100E+04  0.25500000000E-02 0. -1.
         -2   -1    0    0    0  501 -0.00000000000E+00 -0.00000000000E+00 -0.60062728255E+03  0.60062728255E+03  0.25500000000E-02 0.  1.
    8880023    1    1    2    0    0 -0.19525037471E+03  0.84579184478E+03  0.17507459158E+04  0.20621367611E+04  0.65864270000E+03 0. -1.
    8880022    1    1    2    0    0  0.19525037471E+03 -0.84579184478E+03 -0.84165883836E+01  0.88144713143E+03  0.15294330000E+03 0.  0.
<mgrwt>
<rscale>  0 0.10333652E+04</rscale>
<asrwt>0</asrwt>
<pdfrwt beam="1">  1        2 0.36045486E+00 0.10896315E+04</pdfrwt>
<pdfrwt beam="2">  1       -2 0.92404198E-01 0.10896315E+04</pdfrwt>
<totfact> 0.42399428E+00</totfact>
</mgrwt>
</event>
<event>
 4    2  0.3171963E-007  0.7228772E+03  0.7818608E-02  0.9912968E-01
          2   -1    0    0  501    0  0.00000000000E+00  0.00000000000E+00  0.91804936100E+03  0.91804936100E+03  0.25500000000E-02 0. -1.
         -2   -1    0    0    0  501 -0.00000000000E+00 -0.00000000000E+00 -0.41341569592E+03  0.41341569593E+03  0.25500000000E-02 0.  1.
    8880023    1    1    2    0    0  0.28008117703E+03  0.10146783512E+03  0.64459295023E+03  0.96853057000E+03  0.65864270000E+03 0. -1.
    8880022    1    1    2    0    0 -0.28008117703E+03 -0.10146783512E+03 -0.13995928514E+03  0.36293448693E+03  0.15294330000E+03 0.  0.
<mgrwt>
<rscale>  0 0.59636889E+03</rscale>
<asrwt>0</asrwt>
<pdfrwt beam="1">  1        2 0.14123836E+00 0.72287716E+03</pdfrwt>
<pdfrwt beam="2">  1       -2 0.63602415E-01 0.72287716E+03</pdfrwt>
<totfact> 0.66285698E+01</totfact>
</mgrwt>
</event>
<event>
 4    2  0.3171963E-007  0.7988529E+03  0.7818608E-02  0.9713282E-01
         -2   -1    0    0    0  501 -0.00000000000E+00  0.00000000000E+00  0.47439349503E+03  0.47439349504E+03  0.25500000000E-02 0.  1.
          2   -1    0    0  501    0  0.00000000000E+00 -0.00000000000E+00 -0.10627959739E+04  0.10627959739E+04  0.25500000000E-02 0. -1.
    8880023    1    1    2    0    0  0.44441718205E+03  0.82759017545E+02 -0.68258479409E+03  0.10507558680E+04  0.65864270000E+03 0. -1.
    8880022    1    1    2    0    0 -0.44441718205E+03 -0.82759017545E+02  0.94182315183E+02  0.48643360101E+03  0.15294330000E+03 0.  0.
<mgrwt>
<rscale>  0 0.70231470E+03</rscale>
<asrwt>0</asrwt>
<pdfrwt beam="1">  1        2 0.16350707E+00 0.79885286E+03</pdfrwt>
<pdfrwt beam="2">  1       -2 0.72983615E-01 0.79885286E+03</pdfrwt>
<totfact> 0.39443499E+01</totfact>
</mgrwt>
</event>
<event>
 4    2  0.3171963E-007  0.8375310E+03  0.7818608E-02  0.9634854E-01
          2   -1    0    0  501    0  0.00000000000E+00  0.00000000000E+00  0.35345686970E+04  0.35345686970E+04  0.25500000000E-02 0. -1.
         -2   -1    0    0    0  501 -0.00000000000E+00 -0.00000000000E+00 -0.50545774369E+03  0.50545774370E+03  0.25500000000E-02 0.  1.
    8880023    1    1    2    0    0 -0.21113080605E+03  0.47230464978E+03  0.33221490250E+04  0.34260957736E+04  0.65864270000E+03 0. -1.
    8880022    1    1    2    0    0  0.21113080605E+03 -0.47230464978E+03 -0.29303807171E+03  0.61393066706E+03  0.15294330000E+03 0.  0.
<mgrwt>
<rscale>  0 0.75031677E+03</rscale>
<asrwt>0</asrwt>
<pdfrwt beam="1">  1        2 0.54377980E+00 0.83753096E+03</pdfrwt>
<pdfrwt beam="2">  1       -2 0.77762730E-01 0.83753096E+03</pdfrwt>
<totfact> 0.12103792E+00</totfact>
</mgrwt>
</event>
<event>
 4    2  0.3171963E-007  0.7545441E+03  0.7818608E-02  0.9819443E-01
          2   -1    0    0  501    0  0.00000000000E+00  0.00000000000E+00  0.17645636571E+04  0.17645636571E+04  0.25500000000E-02 0. -1.
         -2   -1    0    0    0  501 -0.00000000000E+00 -0.00000000000E+00 -0.62964669716E+03  0.62964669716E+03  0.25500000000E-02 0.  1.
    8880023    1    1    2    0    0  0.35811304519E+03  0.85332584406E+02  0.16075986307E+04  0.17758688484E+04  0.65864270000E+03 0. -1.
    8880022    1    1    2    0    0 -0.35811304519E+03 -0.85332584406E+02 -0.47268167070E+03  0.61834150590E+03  0.15294330000E+03 0.  0.
<mgrwt>
<rscale>  0 0.64329503E+03</rscale>
<asrwt>0</asrwt>
<pdfrwt beam="1">  1        2 0.27147133E+00 0.75454411E+03</pdfrwt>
<pdfrwt beam="2">  1       -2 0.96868723E-01 0.75454411E+03</pdfrwt>
<totfact> 0.82761769E+00</totfact>
</mgrwt>
</event>
<event>
 4    2  0.3171963E-007  0.8322489E+03  0.7818608E-02  0.9644972E-01
          2   -1    0    0  501    0  0.00000000000E+00  0.00000000000E+00  0.11162421819E+04  0.11162421819E+04  0.25500000000E-02 0. -1.
         -2   -1    0    0    0  501 -0.00000000000E+00 -0.00000000000E+00 -0.53811089772E+03  0.53811089773E+03  0.25500000000E-02 0.  1.
    8880023    1    1    2    0    0 -0.27277242067E+03  0.42944527567E+03  0.72438423450E+03  0.11033452604E+04  0.65864270000E+03 0.  0.
    8880022    1    1    2    0    0  0.27277242067E+03 -0.42944527567E+03 -0.14625295036E+03  0.55100781916E+03  0.15294330000E+03 0.  0.
<mgrwt>
<rscale>  0 0.74389791E+03</rscale>
<asrwt>0</asrwt>
<pdfrwt beam="1">  1        2 0.17172956E+00 0.83224891E+03</pdfrwt>
<pdfrwt beam="2">  1       -2 0.82786293E-01 0.83224891E+03</pdfrwt>
<totfact> 0.27497707E+01</totfact>
</mgrwt>
</event>
<event>
 4    2  0.3171963E-007  0.6622302E+03  0.7818608E-02  0.1021980E+00
         -2   -1    0    0    0  501 -0.00000000000E+00  0.00000000000E+00  0.52413729097E+03  0.52413729097E+03  0.25500000000E-02 0.  1.
          2   -1    0    0  501    0  0.00000000000E+00 -0.00000000000E+00 -0.27344655960E+04  0.27344655960E+04  0.25500000000E-02 0. -1.
    8880023    1    1    2    0    0 -0.17956061173E+02  0.66454516632E+02 -0.26796215142E+04  0.27602391723E+04  0.65864270000E+03 0. -1.
    8880022    1    1    2    0    0  0.17956061173E+02 -0.66454516632E+02  0.46929320915E+03  0.49836371465E+03  0.15294330000E+03 0.  0.
<mgrwt>
<rscale>  0 0.46978969E+03</rscale>
<asrwt>0</asrwt>
<pdfrwt beam="1">  1        2 0.42068701E+00 0.66223019E+03</pdfrwt>
<pdfrwt beam="2">  1       -2 0.80636508E-01 0.66223019E+03</pdfrwt>
<totfact> 0.37031515E+00</totfact>
</mgrwt>
</event>
<event>
 4    2  0.3171963E-007  0.7071777E+03  0.7818608E-02  0.9968634E-01
          2   -1    0    0  501    0  0.00000000000E+00  0.00000000000E+00  0.15581127647E+04  0.15581127647E+04  0.25500000000E-02 0. -1.
         -2   -1    0    0    0  501 -0.00000000000E+00 -0.00000000000E+00 -0.24644455932E+03  0.24644455933E+03  0.25500000000E-02 0.  1.
    8880023    1    1    2    0    0 -0.24329793187E+03 -0.84239170211E+02  0.13280945706E+04  0.15046380017E+04  0.65864270000E+03 0. -1.
    8880022    1    1    2    0    0  0.24329793187E+03  0.84239170211E+02 -0.16426365167E+02  0.29991932238E+03  0.15294330000E+03 0.  0.
<mgrwt>
<rscale>  0 0.57047216E+03</rscale>
<asrwt>0</asrwt>
<pdfrwt beam="1">  1        2 0.23970965E+00 0.70717772E+03</pdfrwt>
<pdfrwt beam="2">  1       -2 0.37914548E-01 0.70717772E+03</pdfrwt>
<totfact> 0.79197136E+01</totfact>
</mgrwt>
</event>
<event>
 4    2  0.3171963E-007  0.9341546E+03  0.7818608E-02  0.9473288E-01
          2   -1    0    0  501    0  0.00000000000E+00  0.00000000000E+00  0.88208022807E+03  0.88208022807E+03  0.25500000000E-02 0. -1.
         -2   -1    0    0    0  501 -0.00000000000E+00 -0.00000000000E+00 -0.78683716716E+03  0.78683716716E+03  0.25500000000E-02 0.  1.
    8880023    1    1    2    0    0 -0.29409096793E+03 -0.59358660471E+03  0.25941268591E+03  0.96950487497E+03  0.65864270000E+03 0.  0.
    8880022    1    1    2    0    0  0.29409096793E+03  0.59358660471E+03 -0.16416962500E+03  0.69941252026E+03  0.15294330000E+03 0.  0.
<mgrwt>
<rscale>  0 0.86282134E+03</rscale>
<asrwt>0</asrwt>
<pdfrwt beam="1">  1        2 0.13570465E+00 0.93415457E+03</pdfrwt>
<pdfrwt beam="2">  1       -2 0.12105187E+00 0.93415457E+03</pdfrwt>
<totfact> 0.15640632E+01</totfact>
</mgrwt>
</event>
<event>
 4    2  0.3339612E-007  0.7055594E+03  0.7818608E-02  0.9974876E-01
         -2   -1    0    0    0  501 -0.00000000000E+00  0.00000000000E+00  0.14573808452E+04  0.14573808452E+04  0.25500000000E-02 0.  1.
          2   -1    0    0  501    0  0.00000000000E+00 -0.00000000000E+00 -0.13033057644E+04  0.13033057644E+04  0.25500000000E-02 0. -1.
    8880023    1    1    2    0    0 -0.15918640847E+03 -0.19663062890E+03 -0.11905668449E+04  0.13839304662E+04  0.65864270000E+03 0. -1.
    8880022    1    1    2    0    0  0.15918640847E+03  0.19663062890E+03  0.13446419258E+04  0.13767561434E+04  0.15294330000E+03 0.  0.
<mgrwt>
<rscale>  0 0.56765750E+03</rscale>
<asrwt>0</asrwt>
<pdfrwt beam="1">  1        2 0.20050858E+00 0.70555944E+03</pdfrwt>
<pdfrwt beam="2">  1       -2 0.22421244E+00 0.70555944E+03</pdfrwt>
<totfact> 0.15935175E+00</totfact>
</mgrwt>
</event>
<event>
 4    2  0.3171963E-007  0.7233625E+03  0.7818608E-02  0.9911368E-01
         -2   -1    0    0    0  501 -0.00000000000E+00  0.00000000000E+00  0.16568370083E+03  0.16568370085E+03  0.25500000000E-02 0.  1.
          2   -1    0    0  501    0  0.00000000000E+00 -0.00000000000E+00 -0.21777173342E+04  0.21777173342E+04  0.25500000000E-02 0. -1.
    8880023    1    1    2    0    0 -0.11008245649E+03 -0.27807365080E+03 -0.18153131823E+04  0.19541277488E+04  0.65864270000E+03 0.  0.
    8880022    1    1    2    0    0  0.11008245649E+03  0.27807365080E+03 -0.19672045101E+03  0.38927328621E+03  0.15294330000E+03 0.  0.
<mgrwt>
<rscale>  0 0.59713476E+03</rscale>
<asrwt>0</asrwt>
<pdfrwt beam="1">  1        2 0.33503341E+00 0.72336250E+03</pdfrwt>
<pdfrwt beam="2">  1       -2 0.25489802E-01 0.72336250E+03</pdfrwt>
<totfact> 0.76081676E+01</totfact>
</mgrwt>
</event>
<event>
 4    2  0.3171963E-007  0.6864814E+03  0.7818608E-02  0.1005872E+00
          2   -1    0    0  501    0  0.00000000000E+00  0.00000000000E+00  0.36071106585E+03  0.36071106586E+03  0.25500000000E-02 0. -1.
         -2   -1    0    0    0  501 -0.00000000000E+00 -0.00000000000E+00 -0.61651588884E+03  0.61651588885E+03  0.25500000000E-02 0.  1.
    8880023    1    1    2    0    0  0.11835312558E+03 -0.15309793804E+03 -0.12408602702E+03  0.69760589829E+03  0.65864270000E+03 0.  1.
    8880022    1    1    2    0    0 -0.11835312558E+03  0.15309793804E+03 -0.13171879597E+03  0.27962105642E+03  0.15294330000E+03 0. -1.
<mgrwt>
<rscale>  0 0.53148805E+03</rscale>
<asrwt>0</asrwt>
<pdfrwt beam="1">  1        2 0.55494010E-01 0.68648135E+03</pdfrwt>
<pdfrwt beam="2">  1       -2 0.94848598E-01 0.68648135E+03</pdfrwt>
<totfact> 0.84723866E+01</totfact>
</mgrwt>
</event>
<event>
 4    2  0.3171963E-007  0.8172339E+03  0.7818608E-02  0.9674701E-01
          2   -1    0    0  501    0  0.00000000000E+00  0.00000000000E+00  0.23899154258E+04  0.23899154258E+04  0.25500000000E-02 0. -1.
         -2   -1    0    0    0  501 -0.00000000000E+00 -0.00000000000E+00 -0.21622009292E+03  0.21622009293E+03  0.25500000000E-02 0.  1.
    8880023    1    1    2    0    0  0.45880146330E+03 -0.15350009655E+03  0.80801459169E+03  0.11492427285E+04  0.65864270000E+03 0.  0.
    8880022    1    1    2    0    0 -0.45880146330E+03  0.15350009655E+03  0.13656807412E+04  0.14568927902E+04  0.15294330000E+03 0.  0.
<mgrwt>
<rscale>  0 0.72543244E+03</rscale>
<asrwt>0</asrwt>
<pdfrwt beam="1">  1        2 0.36767930E+00 0.81723391E+03</pdfrwt>
<pdfrwt beam="2">  1       -2 0.33264630E-01 0.81723391E+03</pdfrwt>
<totfact> 0.35051023E+01</totfact>
</mgrwt>
</event>
<event>
 4    2  0.3171963E-007  0.7205009E+03  0.7818608E-02  0.9920895E-01
          2   -1    0    0  501    0  0.00000000000E+00  0.00000000000E+00  0.36840365433E+04  0.36840365433E+04  0.25500000000E-02 0. -1.
         -2   -1    0    0    0  501 -0.00000000000E+00 -0.00000000000E+00 -0.11426603500E+03  0.11426603503E+03  0.25500000000E-02 0.  1.
    8880023    1    1    2    0    0 -0.63509433973E+02 -0.28509268050E+03  0.32836330318E+04  0.33617506420E+04  0.65864270000E+03 0.  0.
    8880022    1    1    2    0    0  0.63509433973E+02  0.28509268050E+03  0.28613747640E+03  0.43655193631E+03  0.15294330000E+03 0.  0.
<mgrwt>
<rscale>  0 0.59259235E+03</rscale>
<asrwt>0</asrwt>
<pdfrwt beam="1">  1        2 0.56677491E+00 0.72050086E+03</pdfrwt>
<pdfrwt beam="2">  1       -2 0.17579388E-01 0.72050086E+03</pdfrwt>
<totfact> 0.17478063E+01</totfact>
</mgrwt>
</event>
<event>
 4    2  0.3171963E-007  0.1078279E+04  0.7818608E-02  0.9285634E-01
         -2   -1    0    0    0  501 -0.00000000000E+00  0.00000000000E+00  0.53911656410E+03  0.53911656410E+03  0.25500000000E-02 0.  1.
          2   -1    0    0  501    0  0.00000000000E+00 -0.00000000000E+00 -0.23295604098E+04  0.23295604098E+04  0.25500000000E-02 0. -1.
    8880023    1    1    2    0    0  0.23150972559E+03 -0.82175384583E+03 -0.16772974238E+04  0.19939942303E+04  0.65864270000E+03 0. -1.
    8880022    1    1    2    0    0 -0.23150972559E+03  0.82175384583E+03 -0.11314642188E+03  0.87468274362E+03  0.15294330000E+03 0.  0.
<mgrwt>
<rscale>  0 0.10211629E+04</rscale>
<asrwt>0</asrwt>
<pdfrwt beam="1">  1        2 0.35839390E+00 0.10782793E+04</pdfrwt>
<pdfrwt beam="2">  1       -2 0.82941011E-01 0.10782793E+04</pdfrwt>
<totfact> 0.55417172E+00</totfact>
</mgrwt>
</event>
<event>
 4    2  0.3171963E-007  0.8326355E+03  0.7818608E-02  0.9644226E-01
         -2   -1    0    0    0  501 -0.00000000000E+00  0.00000000000E+00  0.88149678735E+03  0.88149678735E+03  0.25500000000E-02 0.  1.
          2   -1    0    0  501    0  0.00000000000E+00 -0.00000000000E+00 -0.72911061297E+03  0.72911061297E+03  0.25500000000E-02 0. -1.
    8880023    1    1    2    0    0 -0.48997050086E+03  0.13928587949E+03 -0.32704781450E+03  0.89456253396E+03  0.65864270000E+03 0. -1.
    8880022    1    1    2    0    0  0.48997050086E+03 -0.13928587949E+03  0.47943398887E+03  0.71604486636E+03  0.15294330000E+03 0.  0.
<mgrwt>
<rscale>  0 0.74436897E+03</rscale>
<asrwt>0</asrwt>
<pdfrwt beam="1">  1        2 0.11217086E+00 0.83263549E+03</pdfrwt>
<pdfrwt beam="2">  1       -2 0.13561489E+00 0.83263549E+03</pdfrwt>
<totfact> 0.15268141E+01</totfact>
</mgrwt>
</event>
<event>
 4    2  0.3171963E-007  0.7155426E+03  0.7818608E-02  0.9937967E-01
          2   -1    0    0  501    0  0.00000000000E+00  0.00000000000E+00  0.20776506458E+04  0.20776506458E+04  0.25500000000E-02 0. -1.
         -2   -1    0    0    0  501 -0.00000000000E+00 -0.00000000000E+00 -0.22932091363E+03  0.22932091365E+03  0.25500000000E-02 0.  1.
    8880023    1    1    2    0    0  0.16027963380E+03 -0.22913184473E+03  0.18549576749E+04  0.19881823722E+04  0.65864270000E+03 0. -1.
    8880022    1    1    2    0    0 -0.16027963380E+03  0.22913184473E+03 -0.66279426819E+01  0.31878918727E+03  0.15294330000E+03 0.  0.
<mgrwt>
<rscale>  0 0.58455992E+03</rscale>
<asrwt>0</asrwt>
<pdfrwt beam="1">  1        2 0.31963857E+00 0.71554257E+03</pdfrwt>
<pdfrwt beam="2">  1       -2 0.35280140E-01 0.71554257E+03</pdfrwt>
<totfact> 0.47273357E+01</totfact>
</mgrwt>
</event>
<event>
 4    2  0.3171963E-007  0.7066894E+03  0.7818608E-02  0.9970506E-01
          2   -1    0    0  501    0  0.00000000000E+00  0.00000000000E+00  0.15858542955E+04  0.15858542955E+04  0.25500000000E-02 0. -1.
         -2   -1    0    0    0  501 -0.00000000000E+00 -0.00000000000E+00 -0.62828236972E+03  0.62828236973E+03  0.25500000000E-02 0.  1.
    8880023    1    1    2    0    0  0.24166382143E+03  0.84842476553E+02  0.14644184751E+04  0.16260170125E+04  0.65864270000E+03 0. -1.
    8880022    1    1    2    0    0 -0.24166382143E+03 -0.84842476553E+02 -0.50684654930E+03  0.58811965276E+03  0.15294330000E+03 0.  0.
<mgrwt>
<rscale>  0 0.56962607E+03</rscale>
<asrwt>0</asrwt>
<pdfrwt beam="1">  1        2 0.24397758E+00 0.70668936E+03</pdfrwt>
<pdfrwt beam="2">  1       -2 0.96658828E-01 0.70668936E+03</pdfrwt>
<totfact> 0.10495304E+01</totfact>
</mgrwt>
</event>
<event>
 4    2  0.3171963E-007  0.7588728E+03  0.7818608E-02  0.9808034E-01
          2   -1    0    0  501    0  0.00000000000E+00  0.00000000000E+00  0.55057046163E+03  0.55057046164E+03  0.25500000000E-02 0. -1.
         -2   -1    0    0    0  501 -0.00000000000E+00 -0.00000000000E+00 -0.10366493154E+04  0.10366493154E+04  0.25500000000E-02 0.  1.
    8880023    1    1    2    0    0 -0.36949640060E+03 -0.74499450532E+02  0.20431869919E+03  0.78589700043E+03  0.65864270000E+03 0. -1.
    8880022    1    1    2    0    0  0.36949640060E+03  0.74499450532E+02 -0.69039755299E+03  0.80132277664E+03  0.15294330000E+03 0.  0.
<mgrwt>
<rscale>  0 0.64933149E+03</rscale>
<asrwt>0</asrwt>
<pdfrwt beam="1">  1        2 0.84703148E-01 0.75887282E+03</pdfrwt>
<pdfrwt beam="2">  1       -2 0.15948451E+00 0.75887282E+03</pdfrwt>
<totfact> 0.14166974E+01</totfact>
</mgrwt>
</event>
<event>
 4    2  0.3171963E-007  0.6641146E+03  0.7818608E-02  0.1020288E+00
          2   -1    0    0  501    0  0.00000000000E+00  0.00000000000E+00  0.22228514774E+03  0.22228514776E+03  0.25500000000E-02 0. -1.
         -2   -1    0    0    0  501 -0.00000000000E+00 -0.00000000000E+00 -0.84608621316E+03  0.84608621317E+03  0.25500000000E-02 0.  1.
    8880023    1    1    2    0    0 -0.85074809264E+02  0.49546113933E+00 -0.37044843039E+03  0.76044737786E+03  0.65864270000E+03 0. -1.
    8880022    1    1    2    0    0  0.85074809264E+02 -0.49546113933E+00 -0.25335263503E+03  0.30792398306E+03  0.15294330000E+03 0.  0.
<mgrwt>
<rscale>  0 0.47582797E+03</rscale>
<asrwt>0</asrwt>
<pdfrwt beam="1">  1        2 0.34197716E-01 0.66411458E+03</pdfrwt>
<pdfrwt beam="2">  1       -2 0.13016711E+00 0.66411458E+03</pdfrwt>
<totfact> 0.67409213E+01</totfact>
</mgrwt>
</event>
<event>
 4    2  0.3171963E-007  0.7657677E+03  0.7818608E-02  0.9790398E-01
          2   -1    0    0  501    0  0.00000000000E+00  0.00000000000E+00  0.17309771160E+04  0.17309771160E+04  0.25500000000E-02 0. -1.
         -2   -1    0    0    0  501 -0.00000000000E+00 -0.00000000000E+00 -0.29131138041E+03  0.29131138042E+03  0.25500000000E-02 0.  1.
    8880023    1    1    2    0    0  0.93894274840E+02  0.37917524280E+03  0.14065346689E+04  0.16014805590E+04  0.65864270000E+03 0. -1.
    8880022    1    1    2    0    0 -0.93894274840E+02 -0.37917524280E+03  0.33131066622E+02  0.42080793741E+03  0.15294330000E+03 0.  0.
<mgrwt>
<rscale>  0 0.65880398E+03</rscale>
<asrwt>0</asrwt>
<pdfrwt beam="1">  1        2 0.26630417E+00 0.76576772E+03</pdfrwt>
<pdfrwt beam="2">  1       -2 0.44817136E-01 0.76576772E+03</pdfrwt>
<totfact> 0.45564920E+01</totfact>
</mgrwt>
</event>
<event>
 4    2  0.3171963E-007  0.1020075E+04  0.7818608E-02  0.9355752E-01
         -2   -1    0    0    0  501 -0.00000000000E+00  0.00000000000E+00  0.91757952997E+03  0.91757952997E+03  0.25500000000E-02 0.  1.
          2   -1    0    0  501    0  0.00000000000E+00 -0.00000000000E+00 -0.93160586026E+03  0.93160586027E+03  0.25500000000E-02 0. -1.
    8880023    1    1    2    0    0 -0.67487210714E+03 -0.38896058138E+03 -0.18617024800E+03  0.10369244246E+04  0.65864270000E+03 0.  0.
    8880022    1    1    2    0    0  0.67487210714E+03  0.38896058138E+03  0.17214391770E+03  0.81226096563E+03  0.15294330000E+03 0.  0.
<mgrwt>
<rscale>  0 0.95808316E+03</rscale>
<asrwt>0</asrwt>
<pdfrwt beam="1">  1        2 0.14332398E+00 0.10200749E+04</pdfrwt>
<pdfrwt beam="2">  1       -2 0.14116608E+00 0.10200749E+04</pdfrwt>
<totfact> 0.97158791E+00</totfact>
</mgrwt>
</event>
<event>
 4    2  0.3171963E-007  0.6800071E+03  0.7818608E-02  0.1009320E+00
         -2   -1    0    0    0  501 -0.00000000000E+00  0.00000000000E+00  0.12241861397E+03  0.12241861400E+03  0.25500000000E-02 0.  1.
          2   -1    0    0  501    0  0.00000000000E+00 -0.00000000000E+00 -0.21492501117E+04  0.21492501117E+04  0.25500000000E-02 0. -1.
    8880023    1    1    2    0    0 -0.12739271592E+03  0.11122305236E+03 -0.18831359166E+04  0.20021514823E+04  0.65864270000E+03 0. -1.
    8880022    1    1    2    0    0  0.12739271592E+03 -0.11122305236E+03 -0.14369558117E+03  0.26951724343E+03  0.15294330000E+03 0.  0.
<mgrwt>
<rscale>  0 0.51745936E+03</rscale>
<asrwt>0</asrwt>
<pdfrwt beam="1">  1        2 0.33065384E+00 0.68000712E+03</pdfrwt>
<pdfrwt beam="2">  1       -2 0.18833634E-01 0.68000712E+03</pdfrwt>
<totfact> 0.13543969E+02</totfact>
</mgrwt>
</event>
<event>
 4    2  0.3171963E-007  0.7120083E+03  0.7818608E-02  0.9950618E-01
         -2   -1    0    0    0  501 -0.00000000000E+00  0.00000000000E+00  0.57813511049E+03  0.57813511049E+03  0.25500000000E-02 0.  1.
          2   -1    0    0  501    0  0.00000000000E+00 -0.00000000000E+00 -0.17529224787E+04  0.17529224787E+04  0.25500000000E-02 0. -1.
    8880023    1    1    2    0    0  0.26976368140E+03 -0.19316080710E+02 -0.16306852620E+04  0.17793510572E+04  0.65864270000E+03 0. -1.
    8880022    1    1    2    0    0 -0.26976368140E+03  0.19316080710E+02  0.45589789384E+03  0.55170653195E+03  0.15294330000E+03 0.  0.
<mgrwt>
<rscale>  0 0.57869618E+03</rscale>
<asrwt>0</asrwt>
<pdfrwt beam="1">  1        2 0.26968038E+00 0.71200826E+03</pdfrwt>
<pdfrwt beam="2">  1       -2 0.88943864E-01 0.71200826E+03</pdfrwt>
<totfact> 0.10305215E+01</totfact>
</mgrwt>
</event>
<event>
 4    2  0.3171963E-007  0.7845079E+03  0.7818608E-02  0.9745352E-01
          2   -1    0    0  501    0  0.00000000000E+00  0.00000000000E+00  0.17910498074E+04  0.17910498074E+04  0.25500000000E-02 0. -1.
         -2   -1    0    0    0  501 -0.00000000000E+00 -0.00000000000E+00 -0.83539075114E+03  0.83539075114E+03  0.25500000000E-02 0.  1.
    8880023    1    1    2    0    0 -0.19359727978E+03 -0.37968745806E+03  0.16330103103E+04  0.18116774968E+04  0.65864270000E+03 0. -1.
    8880022    1    1    2    0    0  0.19359727978E+03  0.37968745806E+03 -0.67735125401E+03  0.81476306180E+03  0.15294330000E+03 0.  0.
<mgrwt>
<rscale>  0 0.68379555E+03</rscale>
<asrwt>0</asrwt>
<pdfrwt beam="1">  1        2 0.27554612E+00 0.78450792E+03</pdfrwt>
<pdfrwt beam="2">  1       -2 0.12852165E+00 0.78450792E+03</pdfrwt>
<totfact> 0.40033656E+00</totfact>
</mgrwt>
</event>
<event>
 4    2  0.3171963E-007  0.9073410E+03  0.7818608E-02  0.9514348E-01
         -2   -1    0    0    0  501 -0.00000000000E+00  0.00000000000E+00  0.20571342804E+03  0.20571342806E+03  0.25500000000E-02 0.  1.
          2   -1    0    0  501    0  0.00000000000E+00 -0.00000000000E+00 -0.32691479835E+04  0.32691479835E+04  0.25500000000E-02 0. -1.
    8880023    1    1    2    0    0 -0.54310624768E+02  0.62169751453E+03 -0.23263683458E+04  0.24970497252E+04  0.65864270000E+03 0.  0.
    8880022    1    1    2    0    0  0.54310624768E+02 -0.62169751453E+03 -0.73706620964E+03  0.97781168634E+03  0.15294330000E+03 0.  0.
<mgrwt>
<rscale>  0 0.83234200E+03</rscale>
<asrwt>0</asrwt>
<pdfrwt beam="1">  1        2 0.50294580E+00 0.90734098E+03</pdfrwt>
<pdfrwt beam="2">  1       -2 0.31648222E-01 0.90734098E+03</pdfrwt>
<totfact> 0.11299321E+01</totfact>
</mgrwt>
</event>
<event>
 4    2  0.3171963E-007  0.6628127E+03  0.7818608E-02  0.1021443E+00
          2   -1    0    0  501    0  0.00000000000E+00  0.00000000000E+00  0.17901524164E+04  0.17901524164E+04  0.25500000000E-02 0. -1.
         -2   -1    0    0    0  501 -0.00000000000E+00 -0.00000000000E+00 -0.37609929859E+03  0.37609929860E+03  0.25500000000E-02 0.  1.
    8880023    1    1    2    0    0  0.59975335919E+02  0.43742672485E+02  0.17049858945E+04  0.18292888151E+04  0.65864270000E+03 0. -1.
    8880022    1    1    2    0    0 -0.59975335919E+02 -0.43742672485E+02 -0.29093277672E+03  0.33696289988E+03  0.15294330000E+03 0.  0.
<mgrwt>
<rscale>  0 0.47169288E+03</rscale>
<asrwt>0</asrwt>
<pdfrwt beam="1">  1        2 0.27540806E+00 0.66281269E+03</pdfrwt>
<pdfrwt beam="2">  1       -2 0.57861431E-01 0.66281269E+03</pdfrwt>
<totfact> 0.25439853E+01</totfact>
</mgrwt>
</event>
<event>
 4    2  0.3171963E-007  0.7209636E+03  0.7818608E-02  0.9919339E-01
         -2   -1    0    0    0  501 -0.00000000000E+00  0.00000000000E+00  0.28555571731E+03  0.28555571732E+03  0.25500000000E-02 0.  1.
          2   -1    0    0  501    0  0.00000000000E+00 -0.00000000000E+00 -0.21857134551E+04  0.21857134551E+04  0.25500000000E-02 0. -1.
    8880023    1    1    2    0    0 -0.15325617881E+03 -0.24998175770E+03 -0.19998664109E+04  0.21258537587E+04  0.65864270000E+03 0. -1.
    8880022    1    1    2    0    0  0.15325617881E+03  0.24998175770E+03  0.99708673140E+02  0.34541541373E+03  0.15294330000E+03 0.  0.
<mgrwt>
<rscale>  0 0.59333133E+03</rscale>
<asrwt>0</asrwt>
<pdfrwt beam="1">  1        2 0.33626360E+00 0.72096362E+03</pdfrwt>
<pdfrwt beam="2">  1       -2 0.43931650E-01 0.72096362E+03</pdfrwt>
<totfact> 0.26910322E+01</totfact>
</mgrwt>
</event>
<event>
 4    2  0.3171963E-007  0.7233595E+03  0.7818608E-02  0.9911378E-01
          2   -1    0    0  501    0  0.00000000000E+00  0.00000000000E+00  0.11688509869E+04  0.11688509869E+04  0.25500000000E-02 0. -1.
         -2   -1    0    0    0  501 -0.00000000000E+00 -0.00000000000E+00 -0.55414327257E+03  0.55414327258E+03  0.25500000000E-02 0.  1.
    8880023    1    1    2    0    0 -0.16845147592E+03  0.24710907955E+03  0.98562680678E+03  0.12225830055E+04  0.65864270000E+03 0. -1.
    8880022    1    1    2    0    0  0.16845147592E+03 -0.24710907955E+03 -0.37091909244E+03  0.50041125396E+03  0.15294330000E+03 0.  0.
<mgrwt>
<rscale>  0 0.59713007E+03</rscale>
<asrwt>0</asrwt>
<pdfrwt beam="1">  1        2 0.17982323E+00 0.72335953E+03</pdfrwt>
<pdfrwt beam="2">  1       -2 0.85252812E-01 0.72335953E+03</pdfrwt>
<totfact> 0.24174266E+01</totfact>
</mgrwt>
</event>
<event>
 4    2  0.3171963E-007  0.9235294E+03  0.7818608E-02  0.9489268E-01
          2   -1    0    0  501    0  0.00000000000E+00  0.00000000000E+00  0.71015062643E+03  0.71015062644E+03  0.25500000000E-02 0. -1.
         -2   -1    0    0    0  501 -0.00000000000E+00 -0.00000000000E+00 -0.12415204546E+04  0.12415204546E+04  0.25500000000E-02 0.  1.
    8880023    1    1    2    0    0  0.63473603163E+03  0.12730458743E+03  0.21875798728E+03  0.94908458585E+03  0.65864270000E+03 0. -1.
    8880022    1    1    2    0    0 -0.63473603163E+03 -0.12730458743E+03 -0.75012781548E+03  0.10025864952E+04  0.15294330000E+03 0.  0.
<mgrwt>
<rscale>  0 0.85079654E+03</rscale>
<asrwt>0</asrwt>
<pdfrwt beam="1">  1        2 0.10925394E+00 0.92352937E+03</pdfrwt>
<pdfrwt beam="2">  1       -2 0.19100315E+00 0.92352937E+03</pdfrwt>
<totfact> 0.61414753E+00</totfact>
</mgrwt>
</event>
<event>
 4    2  0.3171963E-007  0.6886625E+03  0.7818608E-02  0.1004795E+00
          2   -1    0    0  501    0  0.00000000000E+00  0.00000000000E+00  0.13840788787E+04  0.13840788787E+04  0.25500000000E-02 0. -1.
         -2   -1    0    0    0  501 -0.00000000000E+00 -0.00000000000E+00 -0.28703183159E+03  0.28703183160E+03  0.25500000000E-02 0.  1.
    8880023    1    1    2    0    0 -0.25006610414E+01  0.20109581491E+03  0.12116429497E+04  0.13936766569E+04  0.65864270000E+03 0.  0.
    8880022    1    1    2    0    0  0.25006610414E+01 -0.20109581491E+03 -0.11459590262E+03  0.27743405341E+03  0.15294330000E+03 0.  1.
<mgrwt>
<rscale>  0 0.53596846E+03</rscale>
<asrwt>0</asrwt>
<pdfrwt beam="1">  1        2 0.21293521E+00 0.68866246E+03</pdfrwt>
<pdfrwt beam="2">  1       -2 0.44158744E-01 0.68866246E+03</pdfrwt>
<totfact> 0.73640147E+01</totfact>
</mgrwt>
</event>
<event>
 4    2  0.3171963E-007  0.1211072E+04  0.7818608E-02  0.9146434E-01
          2   -1    0    0  501    0  0.00000000000E+00  0.00000000000E+00  0.96196507901E+03  0.96196507902E+03  0.25500000000E-02 0. -1.
         -2   -1    0    0    0  501 -0.00000000000E+00 -0.00000000000E+00 -0.19933729034E+04  0.19933729034E+04  0.25500000000E-02 0.  1.
    8880023    1    1    2    0    0 -0.95998762914E+03 -0.33363031024E+03  0.32463737393E+03  0.12538281632E+04  0.65864270000E+03 0.  0.
    8880022    1    1    2    0    0  0.95998762914E+03  0.33363031024E+03 -0.13560451984E+04  0.17015098193E+04  0.15294330000E+03 0.  0.
<mgrwt>
<rscale>  0 0.11623843E+04</rscale>
<asrwt>0</asrwt>
<pdfrwt beam="1">  1        2 0.14799463E+00 0.12110721E+04</pdfrwt>
<pdfrwt beam="2">  1       -2 0.30667275E+00 0.12110721E+04</pdfrwt>
<totfact> 0.75419216E-01</totfact>
</mgrwt>
</event>
<event>
 4    2  0.3171963E-007  0.7188744E+03  0.7818608E-02  0.9926413E-01
         -2   -1    0    0    0  501 -0.00000000000E+00  0.00000000000E+00  0.12909012751E+03  0.12909012753E+03  0.25500000000E-02 0.  1.
          2   -1    0    0  501    0  0.00000000000E+00 -0.00000000000E+00 -0.34203532775E+04  0.34203532775E+04  0.25500000000E-02 0. -1.
    8880023    1    1    2    0    0 -0.25763843870E+03  0.12881233771E+03 -0.30755018165E+04  0.31584001984E+04  0.65864270000E+03 0. -1.
    8880022    1    1    2    0    0  0.25763843870E+03 -0.12881233771E+03 -0.21576133350E+03  0.39104320668E+03  0.15294330000E+03 0.  0.
<mgrwt>
<rscale>  0 0.58998095E+03</rscale>
<asrwt>0</asrwt>
<pdfrwt beam="1">  1        2 0.52620813E+00 0.71887439E+03</pdfrwt>
<pdfrwt beam="2">  1       -2 0.19860022E-01 0.71887439E+03</pdfrwt>
<totfact> 0.21527869E+01</totfact>
</mgrwt>
</event>
<event>
 4    2  0.3171963E-007  0.9039916E+03  0.7818608E-02  0.9519654E-01
         -2   -1    0    0    0  501 -0.00000000000E+00  0.00000000000E+00  0.38391622988E+03  0.38391622989E+03  0.25500000000E-02 0.  1.
          2   -1    0    0  501    0  0.00000000000E+00 -0.00000000000E+00 -0.22786984232E+04  0.22786984232E+04  0.25500000000E-02 0. -1.
    8880023    1    1    2    0    0  0.47445182575E+03  0.39785175996E+03 -0.18047517681E+04  0.20184968934E+04  0.65864270000E+03 0.  0.
    8880022    1    1    2    0    0 -0.47445182575E+03 -0.39785175996E+03 -0.90030425192E+02  0.64411775969E+03  0.15294330000E+03 0.  0.
<mgrwt>
<rscale>  0 0.82850194E+03</rscale>
<asrwt>0</asrwt>
<pdfrwt beam="1">  1        2 0.35056898E+00 0.90399157E+03</pdfrwt>
<pdfrwt beam="2">  1       -2 0.59064037E-01 0.90399157E+03</pdfrwt>
<totfact> 0.12725617E+01</totfact>
</mgrwt>
</event>
<event>
 4    2  0.3171963E-007  0.7109890E+03  0.7818608E-02  0.9954347E-01
          2   -1    0    0  501    0  0.00000000000E+00  0.00000000000E+00  0.83922262698E+03  0.83922262699E+03  0.25500000000E-02 0. -1.
         -2   -1    0    0    0  501 -0.00000000000E+00 -0.00000000000E+00 -0.76689235488E+03  0.76689235488E+03  0.25500000000E-02 0.  1.
    8880023    1    1    2    0    0  0.26181210346E+03  0.56121019059E+02  0.64225228080E+03  0.95811969229E+03  0.65864270000E+03 0. -1.
    8880022    1    1    2    0    0 -0.26181210346E+03 -0.56121019059E+02 -0.56992200870E+03  0.64799528958E+03  0.15294330000E+03 0.  0.
<mgrwt>
<rscale>  0 0.57698190E+03</rscale>
<asrwt>0</asrwt>
<pdfrwt beam="1">  1        2 0.12911117E+00 0.71098900E+03</pdfrwt>
<pdfrwt beam="2">  1       -2 0.11798344E+00 0.71098900E+03</pdfrwt>
<totfact> 0.18226749E+01</totfact>
</mgrwt>
</event>
<event>
 4    2  0.3171963E-007  0.7307163E+03  0.7818608E-02  0.9887865E-01
          2   -1    0    0  501    0  0.00000000000E+00  0.00000000000E+00  0.75708954533E+03  0.75708954534E+03  0.25500000000E-02 0. -1.
         -2   -1    0    0    0  501 -0.00000000000E+00 -0.00000000000E+00 -0.52647566861E+03  0.52647566862E+03  0.25500000000E-02 0.  1.
    8880023    1    1    2    0    0  0.88153691916E+02 -0.30391607981E+03  0.46038697470E+03  0.86365643036E+03  0.65864270000E+03 0.  0.
    8880022    1    1    2    0    0 -0.88153691916E+02  0.30391607981E+03 -0.22977309798E+03  0.41990878359E+03  0.15294330000E+03 0.  0.
<mgrwt>
<rscale>  0 0.60853019E+03</rscale>
<asrwt>0</asrwt>
<pdfrwt beam="1">  1        2 0.11647531E+00 0.73071627E+03</pdfrwt>
<pdfrwt beam="2">  1       -2 0.80996257E-01 0.73071627E+03</pdfrwt>
<totfact> 0.50535414E+01</totfact>
</mgrwt>
</event>
<event>
 4    2  0.3171963E-007  0.1480734E+04  0.7818608E-02  0.8923362E-01
         -2   -1    0    0    0  501 -0.00000000000E+00  0.00000000000E+00  0.98275404532E+03  0.98275404532E+03  0.25500000000E-02 0.  1.
          2   -1    0    0  501    0  0.00000000000E+00 -0.00000000000E+00 -0.27313212496E+04  0.27313212496E+04  0.25500000000E-02 0. -1.
    8880023    1    1    2    0    0  0.84993752182E+03  0.10180217166E+04 -0.18565619565E+04  0.23747409356E+04  0.65864270000E+03 0.  0.
    8880022    1    1    2    0    0 -0.84993752182E+03 -0.10180217166E+04  0.10799475225E+03  0.13393343593E+04  0.15294330000E+03 0.  0.
<mgrwt>
<rscale>  0 0.14428655E+04</rscale>
<asrwt>0</asrwt>
<pdfrwt beam="1">  1        2 0.42020327E+00 0.14807337E+04</pdfrwt>
<pdfrwt beam="2">  1       -2 0.15119293E+00 0.14807337E+04</pdfrwt>
<totfact> 0.70720006E-01</totfact>
</mgrwt>
</event>
<event>
 4    2  0.3171963E-007  0.8655128E+03  0.7818608E-02  0.9583831E-01
         -2   -1    0    0    0  501 -0.00000000000E+00  0.00000000000E+00  0.90557382990E+03  0.90557382990E+03  0.25500000000E-02 0.  1.
          2   -1    0    0  501    0  0.00000000000E+00 -0.00000000000E+00 -0.64539841994E+03  0.64539841995E+03  0.25500000000E-02 0. -1.
    8880023    1    1    2    0    0  0.50829561766E+03 -0.23861646295E+03 -0.92556483280E+02  0.87044767803E+03  0.65864270000E+03 0.  0.
    8880022    1    1    2    0    0 -0.50829561766E+03  0.23861646295E+03  0.35273189324E+03  0.68052457182E+03  0.15294330000E+03 0.  0.
<mgrwt>
<rscale>  0 0.78375632E+03</rscale>
<asrwt>0</asrwt>
<pdfrwt beam="1">  1        2 0.99292065E-01 0.86551283E+03</pdfrwt>
<pdfrwt beam="2">  1       -2 0.13931905E+00 0.86551283E+03</pdfrwt>
<totfact> 0.16560411E+01</totfact>
</mgrwt>
</event>
<event>
 4    2  0.3171963E-007  0.9983597E+03  0.7818608E-02  0.9383707E-01
          2   -1    0    0  501    0  0.00000000000E+00  0.00000000000E+00  0.24555761948E+04  0.24555761948E+04  0.25500000000E-02 0. -1.
         -2   -1    0    0    0  501 -0.00000000000E+00 -0.00000000000E+00 -0.37146729903E+03  0.37146729903E+03  0.25500000000E-02 0.  1.
    8880023    1    1    2    0    0 -0.63735689236E+03 -0.39583853349E+03  0.16973815358E+04  0.19692197026E+04  0.65864270000E+03 0.  0.
    8880022    1    1    2    0    0  0.63735689236E+03  0.39583853349E+03  0.38672736001E+03  0.85782379125E+03  0.15294330000E+03 0.  0.
<mgrwt>
<rscale>  0 0.93428766E+03</rscale>
<asrwt>0</asrwt>
<pdfrwt beam="1">  1        2 0.37778097E+00 0.99835973E+03</pdfrwt>
<pdfrwt beam="2">  1       -2 0.57148813E-01 0.99835973E+03</pdfrwt>
<totfact> 0.10718312E+01</totfact>
</mgrwt>
</event>
<event>
 4    2  0.3171963E-007  0.7651594E+03  0.7818608E-02  0.9791929E-01
         -2   -1    0    0    0  501 -0.00000000000E+00  0.00000000000E+00  0.33267190929E+03  0.33267190930E+03  0.25500000000E-02 0.  1.
          2   -1    0    0  501    0  0.00000000000E+00 -0.00000000000E+00 -0.11488176038E+04  0.11488176038E+04  0.25500000000E-02 0. -1.
    8880023    1    1    2    0    0 -0.36402861095E+03 -0.13835408159E+03 -0.72331173572E+03  0.10529239074E+04  0.65864270000E+03 0. -1.
    8880022    1    1    2    0    0  0.36402861095E+03  0.13835408159E+03 -0.92833958815E+02  0.42856560572E+03  0.15294330000E+03 0. -1.
<mgrwt>
<rscale>  0 0.65797486E+03</rscale>
<asrwt>0</asrwt>
<pdfrwt beam="1">  1        2 0.17674117E+00 0.76515939E+03</pdfrwt>
<pdfrwt beam="2">  1       -2 0.51180294E-01 0.76515939E+03</pdfrwt>
<totfact> 0.74438932E+01</totfact>
</mgrwt>
</event>
<event>
 4    2  0.3171963E-007  0.1136460E+04  0.7818608E-02  0.9221508E-01
         -2   -1    0    0    0  501 -0.00000000000E+00  0.00000000000E+00  0.39180339550E+03  0.39180339551E+03  0.25500000000E-02 0.  1.
          2   -1    0    0  501    0  0.00000000000E+00 -0.00000000000E+00 -0.32279473118E+04  0.32279473118E+04  0.25500000000E-02 0. -1.
    8880023    1    1    2    0    0  0.81479166627E+03 -0.44027937253E+03 -0.83771226288E+03  0.14118439811E+04  0.65864270000E+03 0.  1.
    8880022    1    1    2    0    0 -0.81479166627E+03  0.44027937253E+03 -0.19984316534E+04  0.22079067262E+04  0.15294330000E+03 0.  0.
<mgrwt>
<rscale>  0 0.10834159E+04</rscale>
<asrwt>0</asrwt>
<pdfrwt beam="1">  1        2 0.49660726E+00 0.11364601E+04</pdfrwt>
<pdfrwt beam="2">  1       -2 0.60277448E-01 0.11364601E+04</pdfrwt>
<totfact> 0.32171843E+00</totfact>
</mgrwt>
</event>
<event>
 4    2  0.3171963E-007  0.9371218E+03  0.7818608E-02  0.9468890E-01
          2   -1    0    0  501    0  0.00000000000E+00  0.00000000000E+00  0.29352704032E+04  0.29352704032E+04  0.25500000000E-02 0. -1.
         -2   -1    0    0    0  501 -0.00000000000E+00 -0.00000000000E+00 -0.75644519152E+03  0.75644519153E+03  0.25500000000E-02 0.  1.
    8880023    1    1    2    0    0 -0.38895019686E+03 -0.54139152929E+03  0.26830492663E+04  0.28419976452E+04  0.65864270000E+03 0.  0.
    8880022    1    1    2    0    0  0.38895019686E+03  0.54139152929E+03 -0.50422405457E+03  0.84971794958E+03  0.15294330000E+03 0.  0.
<mgrwt>
<rscale>  0 0.86616789E+03</rscale>
<asrwt>0</asrwt>
<pdfrwt beam="1">  1        2 0.45158006E+00 0.93712179E+03</pdfrwt>
<pdfrwt beam="2">  1       -2 0.11637618E+00 0.93712179E+03</pdfrwt>
<totfact> 0.11244807E+00</totfact>
</mgrwt>
</event>
<event>
 4    2  0.3171963E-007  0.7028269E+03  0.7818608E-02  0.9985670E-01
          2   -1    0    0  501    0  0.00000000000E+00  0.00000000000E+00  0.28957942886E+04  0.28957942886E+04  0.25500000000E-02 0. -1.
         -2   -1    0    0    0  501 -0.00000000000E+00 -0.00000000000E+00 -0.13264254007E+03  0.13264254010E+03  0.25500000000E-02 0.  1.
    8880023    1    1    2    0    0 -0.15430767086E+01 -0.24526112314E+03  0.26066578170E+04  0.26997463919E+04  0.65864270000E+03 0.  0.
    8880022    1    1    2    0    0  0.15430767086E+01  0.24526112314E+03  0.15649393157E+03  0.32869043680E+03  0.15294330000E+03 0.  1.
<mgrwt>
<rscale>  0 0.56283054E+03</rscale>
<asrwt>0</asrwt>
<pdfrwt beam="1">  1        2 0.44550685E+00 0.70282687E+03</pdfrwt>
<pdfrwt beam="2">  1       -2 0.20406543E-01 0.70282687E+03</pdfrwt>
<totfact> 0.44128489E+01</totfact>
</mgrwt>
</event>
<event>
 4    2  0.3171963E-007  0.8387951E+03  0.7818608E-02  0.9632456E-01
          2   -1    0    0  501    0  0.00000000000E+00  0.00000000000E+00  0.11890392887E+04  0.11890392887E+04  0.25500000000E-02 0. -1.
         -2   -1    0    0    0  501 -0.00000000000E+00 -0.00000000000E+00 -0.66128065645E+03  0.66128065646E+03  0.25500000000E-02 0.  1.
    8880023    1    1    2    0    0 -0.27645347735E+03 -0.43970492967E+03  0.87102060199E+03  0.12092369684E+04  0.65864270000E+03 0. -1.
    8880022    1    1    2    0    0  0.27645347735E+03  0.43970492967E+03 -0.34326196971E+03  0.64108297683E+03  0.15294330000E+03 0.  0.
<mgrwt>
<rscale>  0 0.75184745E+03</rscale>
<asrwt>0</asrwt>
<pdfrwt beam="1">  1        2 0.18292912E+00 0.83879506E+03</pdfrwt>
<pdfrwt beam="2">  1       -2 0.10173549E+00 0.83879506E+03</pdfrwt>
<totfact> 0.15387605E+01</totfact>
</mgrwt>
</event>
<event>
 4    2  0.3171963E-007  0.7342177E+03  0.7818608E-02  0.9877122E-01
          2   -1    0    0  501    0  0.00000000000E+00  0.00000000000E+00  0.15937579107E+04  0.15937579107E+04  0.25500000000E-02 0. -1.
         -2   -1    0    0    0  501 -0.00000000000E+00 -0.00000000000E+00 -0.24795321881E+03  0.24795321883E+03  0.25500000000E-02 0.  1.
    8880023    1    1    2    0    0 -0.32211311540E+03 -0.38840715789E+02  0.12820432763E+04  0.14773999556E+04  0.65864270000E+03 0.  0.
    8880022    1    1    2    0    0  0.32211311540E+03  0.38840715789E+02  0.63761415620E+02  0.36431117394E+03  0.15294330000E+03 0.  0.
<mgrwt>
<rscale>  0 0.61382967E+03</rscale>
<asrwt>0</asrwt>
<pdfrwt beam="1">  1        2 0.24519353E+00 0.73421772E+03</pdfrwt>
<pdfrwt beam="2">  1       -2 0.38146649E-01 0.73421772E+03</pdfrwt>
<totfact> 0.74598079E+01</totfact>
</mgrwt>
</event>
<event>
 4    2  0.3171963E-007  0.8648284E+03  0.7818608E-02  0.9585032E-01
         -2   -1    0    0    0  501 -0.00000000000E+00  0.00000000000E+00  0.30491190168E+03  0.30491190169E+03  0.25500000000E-02 0.  1.
          2   -1    0    0  501    0  0.00000000000E+00 -0.00000000000E+00 -0.20211981731E+04  0.20211981731E+04  0.25500000000E-02 0. -1.
    8880023    1    1    2    0    0 -0.30966621582E+03  0.46714538036E+03 -0.14470754972E+04  0.16858100938E+04  0.65864270000E+03 0.  0.
    8880022    1    1    2    0    0  0.30966621582E+03 -0.46714538036E+03 -0.26921077419E+03  0.64029998092E+03  0.15294330000E+03 0. -1.
<mgrwt>
<rscale>  0 0.78294856E+03</rscale>
<asrwt>0</asrwt>
<pdfrwt beam="1">  1        2 0.31095356E+00 0.86482841E+03</pdfrwt>
<pdfrwt beam="2">  1       -2 0.46909525E-01 0.86482841E+03</pdfrwt>
<totfact> 0.28533057E+01</totfact>
</mgrwt>
</event>
<event>
 4    2  0.3171963E-007  0.6621142E+03  0.7818608E-02  0.1022088E+00
         -2   -1    0    0    0  501 -0.00000000000E+00  0.00000000000E+00  0.18184172847E+04  0.18184172847E+04  0.25500000000E-02 0.  1.
          2   -1    0    0  501    0  0.00000000000E+00 -0.00000000000E+00 -0.20919041021E+03  0.20919041023E+03  0.25500000000E-02 0. -1.
    8880023    1    1    2    0    0  0.27922196259E+02 -0.61687289812E+02  0.33423772568E+03  0.74169403011E+03  0.65864270000E+03 0. -1.
    8880022    1    1    2    0    0 -0.27922196259E+02  0.61687289812E+02  0.12749891488E+04  0.12859136648E+04  0.15294330000E+03 0.  0.
<mgrwt>
<rscale>  0 0.46940647E+03</rscale>
<asrwt>0</asrwt>
<pdfrwt beam="1">  1        2 0.32183142E-01 0.66211417E+03</pdfrwt>
<pdfrwt beam="2">  1       -2 0.27975649E+00 0.66211417E+03</pdfrwt>
<totfact> 0.72563392E+00</totfact>
</mgrwt>
</event>
<event>
 4    2  0.3171963E-007  0.8795317E+03  0.7818608E-02  0.9559723E-01
          2   -1    0    0  501    0  0.00000000000E+00  0.00000000000E+00  0.79438209571E+03  0.79438209572E+03  0.25500000000E-02 0. -1.
         -2   -1    0    0    0  501 -0.00000000000E+00 -0.00000000000E+00 -0.84018145963E+03  0.84018145963E+03  0.25500000000E-02 0.  1.
    8880023    1    1    2    0    0 -0.56103983090E+03  0.15811413822E+03  0.31258175015E+03  0.93342558854E+03  0.65864270000E+03 0.  0.
    8880022    1    1    2    0    0  0.56103983090E+03 -0.15811413822E+03 -0.35838111406E+03  0.70113796680E+03  0.15294330000E+03 0.  0.
<mgrwt>
<rscale>  0 0.80020357E+03</rscale>
<asrwt>0</asrwt>
<pdfrwt beam="1">  1        2 0.12221263E+00 0.87953168E+03</pdfrwt>
<pdfrwt beam="2">  1       -2 0.12925869E+00 0.87953168E+03</pdfrwt>
<totfact> 0.15361177E+01</totfact>
</mgrwt>
</event>
<event>
 4    2  0.4518628E-007  0.1179778E+04  0.7818608E-02  0.9177035E-01
          2   -1    0    0  501    0  0.00000000000E+00  0.00000000000E+00  0.23383630062E+04  0.23383630062E+04  0.25500000000E-02 0. -1.
         -2   -1    0    0    0  501 -0.00000000000E+00 -0.00000000000E+00 -0.14371450662E+04  0.14371450662E+04  0.25500000000E-02 0.  1.
    8880023    1    1    2    0    0 -0.28943515785E+03  0.93503630600E+03  0.19837652788E+04  0.23080728956E+04  0.65864270000E+03 0.  0.
    8880022    1    1    2    0    0  0.28943515785E+03 -0.93503630600E+03 -0.10825473388E+04  0.14674351767E+04  0.15294330000E+03 0.  0.
<mgrwt>
<rscale>  0 0.11293644E+04</rscale>
<asrwt>0</asrwt>
<pdfrwt beam="1">  1        2 0.35974815E+00 0.11797779E+04</pdfrwt>
<pdfrwt beam="2">  1       -2 0.22109924E+00 0.11797779E+04</pdfrwt>
<totfact> 0.40978413E-01</totfact>
</mgrwt>
</event>
<event>
 4    2  0.3171963E-007  0.9037261E+03  0.7818608E-02  0.9520076E-01
         -2   -1    0    0    0  501 -0.00000000000E+00  0.00000000000E+00  0.13708419732E+04  0.13708419732E+04  0.25500000000E-02 0.  1.
          2   -1    0    0  501    0  0.00000000000E+00 -0.00000000000E+00 -0.11741664437E+04  0.11741664437E+04  0.25500000000E-02 0. -1.
    8880023    1    1    2    0    0 -0.61783256198E+03 -0.34548180797E+02 -0.90071018490E+03  0.12759309131E+04  0.65864270000E+03 0.  0.
    8880022    1    1    2    0    0  0.61783256198E+03  0.34548180797E+02  0.10973857145E+04  0.12690775038E+04  0.15294330000E+03 0.  0.
<mgrwt>
<rscale>  0 0.82819724E+03</rscale>
<asrwt>0</asrwt>
<pdfrwt beam="1">  1        2 0.18064099E+00 0.90372610E+03</pdfrwt>
<pdfrwt beam="2">  1       -2 0.21089876E+00 0.90372610E+03</pdfrwt>
<totfact> 0.22296960E+00</totfact>
</mgrwt>
</event>
<event>
 4    2  0.3171963E-007  0.8464245E+03  0.7818608E-02  0.9618183E-01
         -2   -1    0    0    0  501 -0.00000000000E+00  0.00000000000E+00  0.59338960444E+03  0.59338960444E+03  0.25500000000E-02 0.  1.
          2   -1    0    0  501    0  0.00000000000E+00 -0.00000000000E+00 -0.89792222288E+03  0.89792222288E+03  0.25500000000E-02 0. -1.
    8880023    1    1    2    0    0  0.51557650814E+03  0.12963427502E+03 -0.38931524152E+03  0.93166557549E+03  0.65864270000E+03 0. -1.
    8880022    1    1    2    0    0 -0.51557650814E+03 -0.12963427502E+03  0.84782623081E+02  0.55964625184E+03  0.15294330000E+03 0.  1.
<mgrwt>
<rscale>  0 0.76104291E+03</rscale>
<asrwt>0</asrwt>
<pdfrwt beam="1">  1        2 0.13814188E+00 0.84642447E+03</pdfrwt>
<pdfrwt beam="2">  1       -2 0.91290709E-01 0.84642447E+03</pdfrwt>
<totfact> 0.30278009E+01</totfact>
</mgrwt>
</event>
<event>
 4    2  0.3171963E-007  0.6778235E+03  0.7818608E-02  0.1010583E+00
          2   -1    0    0  501    0  0.00000000000E+00  0.00000000000E+00  0.71722152881E+03  0.71722152881E+03  0.25500000000E-02 0. -1.
         -2   -1    0    0    0  501 -0.00000000000E+00 -0.00000000000E+00 -0.39016483363E+03  0.39016483364E+03  0.25500000000E-02 0.  1.
    8880023    1    1    2    0    0  0.54946368523E+02  0.15038432234E+03  0.48666427059E+03  0.83443805423E+03  0.65864270000E+03 0. -1.
    8880022    1    1    2    0    0 -0.54946368523E+02 -0.15038432234E+03 -0.15960757541E+03  0.27294830822E+03  0.15294330000E+03 0.  0.
<mgrwt>
<rscale>  0 0.51243763E+03</rscale>
<asrwt>0</asrwt>
<pdfrwt beam="1">  1        2 0.11034177E+00 0.67782354E+03</pdfrwt>
<pdfrwt beam="2">  1       -2 0.60025360E-01 0.67782354E+03</pdfrwt>
<totfact> 0.10449424E+02</totfact>
</mgrwt>
</event>
<event>
 4    2  0.3171963E-007  0.7383730E+03  0.7818608E-02  0.9864712E-01
         -2   -1    0    0    0  501 -0.00000000000E+00  0.00000000000E+00  0.26134571981E+03  0.26134571982E+03  0.25500000000E-02 0.  1.
          2   -1    0    0  501    0  0.00000000000E+00 -0.00000000000E+00 -0.17633575203E+04  0.17633575203E+04  0.25500000000E-02 0. -1.
    8880023    1    1    2    0    0  0.22892060880E+03 -0.24285768800E+03 -0.35289967824E+03  0.81837209808E+03  0.65864270000E+03 0.  1.
    8880022    1    1    2    0    0 -0.22892060880E+03  0.24285768800E+03 -0.11491121223E+04  0.12063311421E+04  0.15294330000E+03 0.  0.
<mgrwt>
<rscale>  0 0.62002399E+03</rscale>
<asrwt>0</asrwt>
<pdfrwt beam="1">  1        2 0.27128576E+00 0.73837301E+03</pdfrwt>
<pdfrwt beam="2">  1       -2 0.40207035E-01 0.73837301E+03</pdfrwt>
<totfact> 0.54355348E+01</totfact>
</mgrwt>
</event>
<event>
 4    2  0.3171963E-007  0.9486854E+03  0.7818608E-02  0.9452008E-01
         -2   -1    0    0    0  501 -0.00000000000E+00  0.00000000000E+00  0.91412277753E+03  0.91412277754E+03  0.25500000000E-02 0.  1.
          2   -1    0    0  501    0  0.00000000000E+00 -0.00000000000E+00 -0.18147795597E+04  0.18147795597E+04  0.25500000000E-02 0. -1.
    8880023    1    1    2    0    0  0.67862790367E+03 -0.75218821702E+02 -0.15217898753E+04  0.17932786548E+04  0.65864270000E+03 0.  0.
    8880022    1    1    2    0    0 -0.67862790367E+03  0.75218821702E+02  0.62113309315E+03  0.93562368247E+03  0.15294330000E+03 0.  0.
<mgrwt>
<rscale>  0 0.87916462E+03</rscale>
<asrwt>0</asrwt>
<pdfrwt beam="1">  1        2 0.27919685E+00 0.94868536E+03</pdfrwt>
<pdfrwt beam="2">  1       -2 0.14063427E+00 0.94868536E+03</pdfrwt>
<totfact> 0.30128201E+00</totfact>
</mgrwt>
</event>
<event>
 4    2  0.3171963E-007  0.6861493E+03  0.7818608E-02  0.1006039E+00
         -2   -1    0    0    0  501 -0.00000000000E+00  0.00000000000E+00  0.11771798399E+03  0.11771798402E+03  0.25500000000E-02 0.  1.
          2   -1    0    0  501    0  0.00000000000E+00 -0.00000000000E+00 -0.20572999767E+04  0.20572999767E+04  0.25500000000E-02 0. -1.
    8880023    1    1    2    0    0  0.10949226840E+03 -0.15812049578E+03 -0.16936497021E+04  0.18273615318E+04  0.65864270000E+03 0. -1.
    8880022    1    1    2    0    0 -0.10949226840E+03  0.15812049578E+03 -0.24593229057E+03  0.34765642894E+03  0.15294330000E+03 0.  1.
<mgrwt>
<rscale>  0 0.53079604E+03</rscale>
<asrwt>0</asrwt>
<pdfrwt beam="1">  1        2 0.31650766E+00 0.68614929E+03</pdfrwt>
<pdfrwt beam="2">  1       -2 0.18110461E-01 0.68614929E+03</pdfrwt>
<totfact> 0.16259493E+02</totfact>
</mgrwt>
</event>
<event>
 4    2  0.3171963E-007  0.9601137E+03  0.7818608E-02  0.9435710E-01
         -2   -1    0    0    0  501 -0.00000000000E+00  0.00000000000E+00  0.11524611687E+04  0.11524611687E+04  0.25500000000E-02 0.  1.
          2   -1    0    0  501    0  0.00000000000E+00 -0.00000000000E+00 -0.15140284683E+04  0.15140284683E+04  0.25500000000E-02 0. -1.
    8880023    1    1    2    0    0 -0.15859897111E+03 -0.68033404364E+03  0.83506333528E+03  0.12724578676E+04  0.65864270000E+03 0.  0.
    8880022    1    1    2    0    0  0.15859897111E+03  0.68033404364E+03 -0.11966306349E+04  0.13940317694E+04  0.15294330000E+03 0.  0.
<mgrwt>
<rscale>  0 0.89194289E+03</rscale>
<asrwt>0</asrwt>
<pdfrwt beam="1">  1        2 0.23292746E+00 0.96011367E+03</pdfrwt>
<pdfrwt beam="2">  1       -2 0.17730172E+00 0.96011367E+03</pdfrwt>
<totfact> 0.23548168E+00</totfact>
</mgrwt>
</event>
<event>
 4    2  0.3171963E-007  0.8993668E+03  0.7818608E-02  0.9527049E-01
         -2   -1    0    0    0  501 -0.00000000000E+00  0.00000000000E+00  0.36643452705E+03  0.36643452706E+03  0.25500000000E-02 0.  1.
          2   -1    0    0  501    0  0.00000000000E+00 -0.00000000000E+00 -0.17533235290E+04  0.17533235290E+04  0.25500000000E-02 0. -1.
    8880023    1    1    2    0    0 -0.58806309479E+03 -0.17097451212E+03 -0.11148930430E+04  0.14324270281E+04  0.65864270000E+03 0.  0.
    8880022    1    1    2    0    0  0.58806309479E+03  0.17097451212E+03 -0.27199595888E+03  0.68733102790E+03  0.15294330000E+03 0.  0.
<mgrwt>
<rscale>  0 0.82318663E+03</rscale>
<asrwt>0</asrwt>
<pdfrwt beam="1">  1        2 0.26974208E+00 0.89936683E+03</pdfrwt>
<pdfrwt beam="2">  1       -2 0.56374544E-01 0.89936683E+03</pdfrwt>
<totfact> 0.27338777E+01</totfact>
</mgrwt>
</event>
<event>
 4    2  0.3171963E-007  0.8428336E+03  0.7818608E-02  0.9624860E-01
         -2   -1    0    0    0  501 -0.00000000000E+00  0.00000000000E+00  0.16041695792E+04  0.16041695792E+04  0.25500000000E-02 0.  1.
          2   -1    0    0  501    0  0.00000000000E+00 -0.00000000000E+00 -0.67952548797E+03  0.67952548797E+03  0.25500000000E-02 0. -1.
    8880023    1    1    2    0    0  0.21682093953E+03  0.47911065013E+03 -0.33746219914E+03  0.90788175276E+03  0.65864270000E+03 0.  0.
    8880022    1    1    2    0    0 -0.21682093953E+03 -0.47911065013E+03  0.12621062904E+04  0.13758133144E+04  0.15294330000E+03 0.  1.
<mgrwt>
<rscale>  0 0.75672399E+03</rscale>
<asrwt>0</asrwt>
<pdfrwt beam="1">  1        2 0.10454238E+00 0.84283364E+03</pdfrwt>
<pdfrwt beam="2">  1       -2 0.24679532E+00 0.84283364E+03</pdfrwt>
<totfact> 0.29086001E+00</totfact>
</mgrwt>
</event>
<event>
 4    2  0.3171963E-007  0.1449308E+04  0.7818608E-02  0.8946286E-01
         -2   -1    0    0    0  501 -0.00000000000E+00  0.00000000000E+00  0.10276940779E+04  0.10276940779E+04  0.25500000000E-02 0.  1.
          2   -1    0    0  501    0  0.00000000000E+00 -0.00000000000E+00 -0.19028402830E+04  0.19028402830E+04  0.25500000000E-02 0. -1.
    8880023    1    1    2    0    0 -0.17238543533E+03  0.12794404158E+04 -0.19208779805E+03  0.14619823679E+04  0.65864270000E+03 0.  0.
    8880022    1    1    2    0    0  0.17238543533E+03 -0.12794404158E+04 -0.68305840702E+03  0.14685519930E+04  0.15294330000E+03 0.  0.
<mgrwt>
<rscale>  0 0.14104539E+04</rscale>
<asrwt>0</asrwt>
<pdfrwt beam="1">  1        2 0.29274466E+00 0.14493084E+04</pdfrwt>
<pdfrwt beam="2">  1       -2 0.15810678E+00 0.14493084E+04</pdfrwt>
<totfact> 0.18664242E+00</totfact>
</mgrwt>
</event>
<event>
 4    2  0.3171963E-007  0.6920066E+03  0.7818608E-02  0.1003213E+00
          2   -1    0    0  501    0  0.00000000000E+00  0.00000000000E+00  0.15006259948E+04  0.15006259948E+04  0.25500000000E-02 0. -1.
         -2   -1    0    0    0  501 -0.00000000000E+00 -0.00000000000E+00 -0.25333371691E+03  0.25333371693E+03  0.25500000000E-02 0.  1.
    8880023    1    1    2    0    0 -0.13511814263E+03  0.16372541150E+03  0.13129993209E+04  0.14841968690E+04  0.65864270000E+03 0. -1.
    8880022    1    1    2    0    0  0.13511814263E+03 -0.16372541150E+03 -0.65707043009E+02  0.26976284279E+03  0.15294330000E+03 0.  0.
<mgrwt>
<rscale>  0 0.54263523E+03</rscale>
<asrwt>0</asrwt>
<pdfrwt beam="1">  1        2 0.23086553E+00 0.69200660E+03</pdfrwt>
<pdfrwt beam="2">  1       -2 0.38974419E-01 0.69200660E+03</pdfrwt>
<totfact> 0.80921862E+01</totfact>
</mgrwt>
</event>
<event>
 4    2  0.3171963E-007  0.8082550E+03  0.7818608E-02  0.9693223E-01
          2   -1    0    0  501    0  0.00000000000E+00  0.00000000000E+00  0.72854958372E+03  0.72854958372E+03  0.25500000000E-02 0. -1.
         -2   -1    0    0    0  501 -0.00000000000E+00 -0.00000000000E+00 -0.67777613220E+03  0.67777613221E+03  0.25500000000E-02 0.  1.
    8880023    1    1    2    0    0 -0.32789419513E+03  0.33459134684E+03  0.28976446563E+03  0.85862659194E+03  0.65864270000E+03 0.  1.
    8880022    1    1    2    0    0  0.32789419513E+03 -0.33459134684E+03 -0.23899101412E+03  0.54769912399E+03  0.15294330000E+03 0. -1.
<mgrwt>
<rscale>  0 0.71421715E+03</rscale>
<asrwt>0</asrwt>
<pdfrwt beam="1">  1        2 0.11208455E+00 0.80825502E+03</pdfrwt>
<pdfrwt beam="2">  1       -2 0.10427325E+00 0.80825502E+03</pdfrwt>
<totfact> 0.29354274E+01</totfact>
</mgrwt>
</event>
<event>
 4    2  0.3171963E-007  0.1391093E+04  0.7818608E-02  0.8990635E-01
         -2   -1    0    0    0  501 -0.00000000000E+00  0.00000000000E+00  0.14610155059E+04  0.14610155059E+04  0.25500000000E-02 0.  1.
          2   -1    0    0  501    0  0.00000000000E+00 -0.00000000000E+00 -0.15509821769E+04  0.15509821769E+04  0.25500000000E-02 0. -1.
    8880023    1    1    2    0    0 -0.11854380504E+04 -0.30994655051E+03 -0.78268764639E+03  0.15961642752E+04  0.65864270000E+03 0.  0.
    8880022    1    1    2    0    0  0.11854380504E+04  0.30994655051E+03  0.69272097534E+03  0.14158334076E+04  0.15294330000E+03 0.  0.
<mgrwt>
<rscale>  0 0.13502557E+04</rscale>
<asrwt>0</asrwt>
<pdfrwt beam="1">  1        2 0.23861264E+00 0.13910933E+04</pdfrwt>
<pdfrwt beam="2">  1       -2 0.22477162E+00 0.13910933E+04</pdfrwt>
<totfact> 0.10413581E+00</totfact>
</mgrwt>
</event>
<event>
 4    2  0.3171963E-007  0.1041709E+04  0.7818608E-02  0.9328915E-01
         -2   -1    0    0    0  501 -0.00000000000E+00  0.00000000000E+00  0.79713413932E+03  0.79713413932E+03  0.25500000000E-02 0.  1.
          2   -1    0    0  501    0  0.00000000000E+00 -0.00000000000E+00 -0.31672744644E+04  0.31672744644E+04  0.25500000000E-02 0. -1.
    8880023    1    1    2    0    0 -0.21157208314E+03 -0.77883533892E+03 -0.28351681710E+04  0.30204860528E+04  0.65864270000E+03 0.  0.
    8880022    1    1    2    0    0  0.21157208314E+03  0.77883533892E+03  0.46502784591E+03  0.94392255085E+03  0.15294330000E+03 0.  0.
<mgrwt>
<rscale>  0 0.98163888E+03</rscale>
<asrwt>0</asrwt>
<pdfrwt beam="1">  1        2 0.48727299E+00 0.10417089E+04</pdfrwt>
<pdfrwt beam="2">  1       -2 0.12263602E+00 0.10417089E+04</pdfrwt>
<totfact> 0.69525380E-01</totfact>
</mgrwt>
</event>
<event>
 4    2  0.3171963E-007  0.1843523E+04  0.7818608E-02  0.8698835E-01
          2   -1    0    0  501    0  0.00000000000E+00  0.00000000000E+00  0.15339269629E+04  0.15339269629E+04  0.25500000000E-02 0. -1.
         -2   -1    0    0    0  501 -0.00000000000E+00 -0.00000000000E+00 -0.22304373474E+04  0.22304373474E+04  0.25500000000E-02 0.  1.
    8880023    1    1    2    0    0 -0.11552520282E+03 -0.17179701933E+04  0.13040852374E+03  0.18481299323E+04  0.65864270000E+03 0.  1.
    8880022    1    1    2    0    0  0.11552520282E+03  0.17179701933E+04 -0.82691890824E+03  0.19162343779E+04  0.15294330000E+03 0.  0.
<mgrwt>
<rscale>  0 0.18141029E+04</rscale>
<asrwt>0</asrwt>
<pdfrwt beam="1">  1        2 0.23598876E+00 0.18435232E+04</pdfrwt>
<pdfrwt beam="2">  1       -2 0.34314421E+00 0.18435232E+04</pdfrwt>
<totfact> 0.18962305E-01</totfact>
</mgrwt>
</event>
<event>
 4    2  0.3171963E-007  0.8698994E+03  0.7818608E-02  0.9576191E-01
          2   -1    0    0  501    0  0.00000000000E+00  0.00000000000E+00  0.20889417670E+04  0.20889417670E+04  0.25500000000E-02 0. -1.
         -2   -1    0    0    0  501 -0.00000000000E+00 -0.00000000000E+00 -0.33263246320E+03  0.33263246321E+03  0.25500000000E-02 0.  1.
    8880023    1    1    2    0    0 -0.14849172117E+03  0.54851160433E+03  0.15860782686E+04  0.18089691130E+04  0.65864270000E+03 0.  0.
    8880022    1    1    2    0    0  0.14849172117E+03 -0.54851160433E+03  0.17023103525E+03  0.61260511728E+03  0.15294330000E+03 0.  0.
<mgrwt>
<rscale>  0 0.78892250E+03</rscale>
<asrwt>0</asrwt>
<pdfrwt beam="1">  1        2 0.32137565E+00 0.86989941E+03</pdfrwt>
<pdfrwt beam="2">  1       -2 0.51174226E-01 0.86989941E+03</pdfrwt>
<totfact> 0.21932350E+01</totfact>
</mgrwt>
</event>
<event>
 4    2  0.3171963E-007  0.8854386E+03  0.7818608E-02  0.9549824E-01
         -2   -1    0    0    0  501 -0.00000000000E+00  0.00000000000E+00  0.31766237804E+03  0.31766237805E+03  0.25500000000E-02 0.  1.
          2   -1    0    0  501    0  0.00000000000E+00 -0.00000000000E+00 -0.19546256480E+04  0.19546256480E+04  0.25500000000E-02 0. -1.
    8880023    1    1    2    0    0  0.40078796584E+03 -0.43538515662E+03 -0.60329151766E+03  0.10714299276E+04  0.65864270000E+03 0.  0.
    8880022    1    1    2    0    0 -0.40078796584E+03  0.43538515662E+03 -0.10336717523E+04  0.12008580984E+04  0.15294330000E+03 0.  0.
<mgrwt>
<rscale>  0 0.80708113E+03</rscale>
<asrwt>0</asrwt>
<pdfrwt beam="1">  1        2 0.30071163E+00 0.88543855E+03</pdfrwt>
<pdfrwt beam="2">  1       -2 0.48871136E-01 0.88543855E+03</pdfrwt>
<totfact> 0.28502241E+01</totfact>
</mgrwt>
</event>
<event>
 4    2  0.3171963E-007  0.1332681E+04  0.7818608E-02  0.9037839E-01
         -2   -1    0    0    0  501 -0.00000000000E+00  0.00000000000E+00  0.12302971750E+04  0.12302971750E+04  0.25500000000E-02 0.  1.
          2   -1    0    0  501    0  0.00000000000E+00 -0.00000000000E+00 -0.17288437017E+04  0.17288437017E+04  0.25500000000E-02 0. -1.
    8880023    1    1    2    0    0  0.11420749311E+04 -0.19466496373E+03 -0.10212339929E+04  0.16789754825E+04  0.65864270000E+03 0. -1.
    8880022    1    1    2    0    0 -0.11420749311E+04  0.19466496373E+03  0.52268746616E+03  0.12801653942E+04  0.15294330000E+03 0.  0.
<mgrwt>
<rscale>  0 0.12896179E+04</rscale>
<asrwt>0</asrwt>
<pdfrwt beam="1">  1        2 0.26597595E+00 0.13326814E+04</pdfrwt>
<pdfrwt beam="2">  1       -2 0.18927649E+00 0.13326814E+04</pdfrwt>
<totfact> 0.14171175E+00</totfact>
</mgrwt>
</event>
<event>
 4    2  0.3171963E-007  0.1186927E+04  0.7818608E-02  0.9169936E-01
         -2   -1    0    0    0  501 -0.00000000000E+00  0.00000000000E+00  0.12199381883E+04  0.12199381883E+04  0.25500000000E-02 0.  1.
          2   -1    0    0  501    0  0.00000000000E+00 -0.00000000000E+00 -0.22120478050E+04  0.22120478050E+04  0.25500000000E-02 0. -1.
    8880023    1    1    2    0    0  0.11557733960E+03 -0.98062616447E+03 -0.17938029028E+04  0.21509358094E+04  0.65864270000E+03 0.  0.
    8880022    1    1    2    0    0 -0.11557733960E+03  0.98062616447E+03  0.80169328600E+03  0.12810501839E+04  0.15294330000E+03 0.  0.
<mgrwt>
<rscale>  0 0.11369199E+04</rscale>
<asrwt>0</asrwt>
<pdfrwt beam="1">  1        2 0.34031505E+00 0.11869271E+04</pdfrwt>
<pdfrwt beam="2">  1       -2 0.18768280E+00 0.11869271E+04</pdfrwt>
<totfact> 0.79615696E-01</totfact>
</mgrwt>
</event>
<event>
 4    2  0.3171963E-007  0.1050780E+04  0.7818608E-02  0.9317945E-01
          2   -1    0    0  501    0  0.00000000000E+00  0.00000000000E+00  0.15696067774E+04  0.15696067774E+04  0.25500000000E-02 0. -1.
         -2   -1    0    0    0  501 -0.00000000000E+00 -0.00000000000E+00 -0.78826442695E+03  0.78826442695E+03  0.25500000000E-02 0.  1.
    8880023    1    1    2    0    0  0.76381432106E+03 -0.29481400505E+03 -0.20113526616E+03  0.10698566335E+04  0.65864270000E+03 0.  0.
    8880022    1    1    2    0    0 -0.76381432106E+03  0.29481400505E+03  0.98247761656E+03  0.12880145708E+04  0.15294330000E+03 0.  0.
<mgrwt>
<rscale>  0 0.99147485E+03</rscale>
<asrwt>0</asrwt>
<pdfrwt beam="1">  1        2 0.24147797E+00 0.10507796E+04</pdfrwt>
<pdfrwt beam="2">  1       -2 0.12127145E+00 0.10507796E+04</pdfrwt>
<totfact> 0.59331946E+00</totfact>
</mgrwt>
</event>
<event>
 4    2  0.5005883E-007  0.7223444E+03  0.7818608E-02  0.9914732E-01
          2   -1    0    0  501    0  0.00000000000E+00  0.00000000000E+00  0.14606614665E+04  0.14606614665E+04  0.25500000000E-02 0. -1.
         -2   -1    0    0    0  501 -0.00000000000E+00 -0.00000000000E+00 -0.14319180960E+04  0.14319180960E+04  0.25500000000E-02 0.  1.
    8880023    1    1    2    0    0  0.63557340809E+02 -0.28970963566E+03  0.13493123319E+04  0.15304983450E+04  0.65864270000E+03 0. -1.
    8880022    1    1    2    0    0 -0.63557340809E+02  0.28970963566E+03 -0.13205689613E+04  0.13620812176E+04  0.15294330000E+03 0.  0.
<mgrwt>
<rscale>  0 0.59552607E+03</rscale>
<asrwt>0</asrwt>
<pdfrwt beam="1">  1        2 0.22471715E+00 0.72234439E+03</pdfrwt>
<pdfrwt beam="2">  1       -2 0.22029509E+00 0.72234439E+03</pdfrwt>
<totfact> 0.13683787E+00</totfact>
</mgrwt>
</event>
<event>
 4    2  0.3171963E-007  0.1248799E+04  0.7818608E-02  0.9111087E-01
          2   -1    0    0  501    0  0.00000000000E+00  0.00000000000E+00  0.20255841018E+04  0.20255841019E+04  0.25500000000E-02 0. -1.
         -2   -1    0    0    0  501 -0.00000000000E+00 -0.00000000000E+00 -0.75533921017E+03  0.75533921017E+03  0.25500000000E-02 0.  1.
    8880023    1    1    2    0    0  0.92210428372E+03 -0.52479667308E+03  0.11580645038E+04  0.17031181577E+04  0.65864270000E+03 0.  0.
    8880022    1    1    2    0    0 -0.92210428372E+03  0.52479667308E+03  0.11218038793E+03  0.10778051543E+04  0.15294330000E+03 0.  0.
<mgrwt>
<rscale>  0 0.12020238E+04</rscale>
<asrwt>0</asrwt>
<pdfrwt beam="1">  1        2 0.31162832E+00 0.12487986E+04</pdfrwt>
<pdfrwt beam="2">  1       -2 0.11620603E+00 0.12487986E+04</pdfrwt>
<totfact> 0.36124336E+00</totfact>
</mgrwt>
</event>
<event>
 4    2  0.3171963E-007  0.6781144E+03  0.7818608E-02  0.1010411E+00
         -2   -1    0    0    0  501 -0.00000000000E+00  0.00000000000E+00  0.29293223607E+03  0.29293223608E+03  0.25500000000E-02 0.  1.
          2   -1    0    0  501    0  0.00000000000E+00 -0.00000000000E+00 -0.81742302324E+03  0.81742302325E+03  0.25500000000E-02 0. -1.
    8880023    1    1    2    0    0  0.32247092316E+02 -0.15807910534E+03 -0.18212463834E+03  0.70214561785E+03  0.65864270000E+03 0.  0.
    8880022    1    1    2    0    0 -0.32247092316E+02  0.15807910534E+03 -0.34236614884E+03  0.40820964148E+03  0.15294330000E+03 0.  0.
<mgrwt>
<rscale>  0 0.51311609E+03</rscale>
<asrwt>0</asrwt>
<pdfrwt beam="1">  1        2 0.12575739E+00 0.67811436E+03</pdfrwt>
<pdfrwt beam="2">  1       -2 0.45066498E-01 0.67811436E+03</pdfrwt>
<totfact> 0.15862428E+02</totfact>
</mgrwt>
</event>
<event>
 4    2  0.3171963E-007  0.7686462E+03  0.7818608E-02  0.9783217E-01
         -2   -1    0    0    0  501 -0.00000000000E+00  0.00000000000E+00  0.23194659469E+03  0.23194659470E+03  0.25500000000E-02 0.  1.
          2   -1    0    0  501    0  0.00000000000E+00 -0.00000000000E+00 -0.21117715778E+04  0.21117715778E+04  0.25500000000E-02 0. -1.
    8880023    1    1    2    0    0 -0.38500160665E+03 -0.93704747128E+02 -0.17304523314E+04  0.18934841679E+04  0.65864270000E+03 0. -1.
    8880022    1    1    2    0    0  0.38500160665E+03  0.93704747128E+02 -0.14937265171E+03  0.45023400455E+03  0.15294330000E+03 0.  0.
<mgrwt>
<rscale>  0 0.66271070E+03</rscale>
<asrwt>0</asrwt>
<pdfrwt beam="1">  1        2 0.32488792E+00 0.76864623E+03</pdfrwt>
<pdfrwt beam="2">  1       -2 0.35684093E-01 0.76864623E+03</pdfrwt>
<totfact> 0.44015874E+01</totfact>
</mgrwt>
</event>
<event>
 4    2  0.3171963E-007  0.7564158E+03  0.7818608E-02  0.9814476E-01
         -2   -1    0    0    0  501 -0.00000000000E+00  0.00000000000E+00  0.71504522052E+03  0.71504522052E+03  0.25500000000E-02 0.  1.
          2   -1    0    0  501    0  0.00000000000E+00 -0.00000000000E+00 -0.81854151712E+03  0.81854151712E+03  0.25500000000E-02 0. -1.
    8880023    1    1    2    0    0 -0.26364002515E+03 -0.26239028898E+03 -0.54806394933E+03  0.93409797421E+03  0.65864270000E+03 0. -1.
    8880022    1    1    2    0    0  0.26364002515E+03  0.26239028898E+03  0.44456765273E+03  0.59948876343E+03  0.15294330000E+03 0.  0.
<mgrwt>
<rscale>  0 0.64591413E+03</rscale>
<asrwt>0</asrwt>
<pdfrwt beam="1">  1        2 0.12592946E+00 0.75641585E+03</pdfrwt>
<pdfrwt beam="2">  1       -2 0.11000696E+00 0.75641585E+03</pdfrwt>
<totfact> 0.22251701E+01</totfact>
</mgrwt>
</event>
<event>
 4    2  0.3171963E-007  0.6659945E+03  0.7818608E-02  0.1018713E+00
          2   -1    0    0  501    0  0.00000000000E+00  0.00000000000E+00  0.16357306379E+04  0.16357306379E+04  0.25500000000E-02 0. -1.
         -2   -1    0    0    0  501 -0.00000000000E+00 -0.00000000000E+00 -0.22262083920E+03  0.22262083921E+03  0.25500000000E-02 0.  1.
    8880023    1    1    2    0    0  0.96046024819E+02 -0.22663458615E+02  0.15113009558E+04  0.16515384514E+04  0.65864270000E+03 0. -1.
    8880022    1    1    2    0    0 -0.96046024819E+02  0.22663458615E+02 -0.98191157113E+02  0.20681302568E+03  0.15294330000E+03 0.  0.
<mgrwt>
<rscale>  0 0.48153833E+03</rscale>
<asrwt>0</asrwt>
<pdfrwt beam="1">  1        2 0.25165087E+00 0.66599450E+03</pdfrwt>
<pdfrwt beam="2">  1       -2 0.34249360E-01 0.66599450E+03</pdfrwt>
<totfact> 0.87569681E+01</totfact>
</mgrwt>
</event>
<event>
 4    2  0.3171963E-007  0.7245507E+03  0.7818608E-02  0.9907478E-01
          2   -1    0    0  501    0  0.00000000000E+00  0.00000000000E+00  0.31478749521E+04  0.31478749521E+04  0.25500000000E-02 0. -1.
         -2   -1    0    0    0  501 -0.00000000000E+00 -0.00000000000E+00 -0.71149878994E+03  0.71149878994E+03  0.25500000000E-02 0.  1.
    8880023    1    1    2    0    0  0.11443521916E+03  0.27940666944E+03  0.30628140970E+04  0.31473487105E+04  0.65864270000E+03 0. -1.
    8880022    1    1    2    0    0 -0.11443521916E+03 -0.27940666944E+03 -0.62643793485E+03  0.71202503155E+03  0.15294330000E+03 0.  0.
<mgrwt>
<rscale>  0 0.59900220E+03</rscale>
<asrwt>0</asrwt>
<pdfrwt beam="1">  1        2 0.48428846E+00 0.72455070E+03</pdfrwt>
<pdfrwt beam="2">  1       -2 0.10946135E+00 0.72455070E+03</pdfrwt>
<totfact> 0.10068004E+00</totfact>
</mgrwt>
</event>
<event>
 4    2  0.3171963E-007  0.7732507E+03  0.7818608E-02  0.9771937E-01
          2   -1    0    0  501    0  0.00000000000E+00  0.00000000000E+00  0.34380187164E+03  0.34380187165E+03  0.25500000000E-02 0. -1.
         -2   -1    0    0    0  501 -0.00000000000E+00 -0.00000000000E+00 -0.13439988632E+04  0.13439988632E+04  0.25500000000E-02 0.  1.
    8880023    1    1    2    0    0 -0.25179824303E+03 -0.31733916487E+03 -0.23429187776E+03  0.80796620659E+03  0.65864270000E+03 0. -1.
    8880022    1    1    2    0    0  0.25179824303E+03  0.31733916487E+03 -0.76590511379E+03  0.87983452825E+03  0.15294330000E+03 0.  0.
<mgrwt>
<rscale>  0 0.66890568E+03</rscale>
<asrwt>0</asrwt>
<pdfrwt beam="1">  1        2 0.52892596E-01 0.77325074E+03</pdfrwt>
<pdfrwt beam="2">  1       -2 0.20676905E+00 0.77325074E+03</pdfrwt>
<totfact> 0.11517451E+01</totfact>
</mgrwt>
</event>
<event>
 4    2  0.3171963E-007  0.7611381E+03  0.7818608E-02  0.9802170E-01
         -2   -1    0    0    0  501 -0.00000000000E+00  0.00000000000E+00  0.16800783856E+03  0.16800783858E+03  0.25500000000E-02 0.  1.
          2   -1    0    0  501    0  0.00000000000E+00 -0.00000000000E+00 -0.29204710378E+04  0.29204710378E+04  0.25500000000E-02 0. -1.
    8880023    1    1    2    0    0 -0.36947705936E+03  0.94908731650E+02 -0.84507240897E+03  0.11373119833E+04  0.65864270000E+03 0.  0.
    8880022    1    1    2    0    0  0.36947705936E+03 -0.94908731650E+02 -0.19073907903E+04  0.19511668931E+04  0.15294330000E+03 0.  0.
<mgrwt>
<rscale>  0 0.65246219E+03</rscale>
<asrwt>0</asrwt>
<pdfrwt beam="1">  1        2 0.44930320E+00 0.76113808E+03</pdfrwt>
<pdfrwt beam="2">  1       -2 0.25847362E-01 0.76113808E+03</pdfrwt>
<totfact> 0.27734469E+01</totfact>
</mgrwt>
</event>
<event>
 4    2  0.3171963E-007  0.6679577E+03  0.7818608E-02  0.1017171E+00
          2   -1    0    0  501    0  0.00000000000E+00  0.00000000000E+00  0.40883459392E+03  0.40883459393E+03  0.25500000000E-02 0. -1.
         -2   -1    0    0    0  501 -0.00000000000E+00 -0.00000000000E+00 -0.47424380125E+03  0.47424380126E+03  0.25500000000E-02 0.  1.
    8880023    1    1    2    0    0  0.26911522493E+02  0.10785636730E+03 -0.13525903803E+03  0.68151481249E+03  0.65864270000E+03 0.  1.
    8880022    1    1    2    0    0 -0.26911522493E+02 -0.10785636730E+03  0.69849830692E+02  0.20156358270E+03  0.15294330000E+03 0.  0.
<mgrwt>
<rscale>  0 0.48721371E+03</rscale>
<asrwt>0</asrwt>
<pdfrwt beam="1">  1        2 0.62897630E-01 0.66795766E+03</pdfrwt>
<pdfrwt beam="2">  1       -2 0.72960585E-01 0.66795766E+03</pdfrwt>
<totfact> 0.13351603E+02</totfact>
</mgrwt>
</event>
<event>
 4    2  0.3171963E-007  0.1001408E+04  0.7818608E-02  0.9379717E-01
         -2   -1    0    0    0  501 -0.00000000000E+00  0.00000000000E+00  0.11306702743E+04  0.11306702743E+04  0.25500000000E-02 0.  1.
          2   -1    0    0  501    0  0.00000000000E+00 -0.00000000000E+00 -0.95689836520E+03  0.95689836521E+03  0.25500000000E-02 0. -1.
    8880023    1    1    2    0    0 -0.47943179854E+03  0.58236893556E+03 -0.44903362366E+03  0.10974742949E+04  0.65864270000E+03 0.  0.
    8880022    1    1    2    0    0  0.47943179854E+03 -0.58236893556E+03  0.62280553275E+03  0.99009434460E+03  0.15294330000E+03 0.  0.
<mgrwt>
<rscale>  0 0.93763819E+03</rscale>
<asrwt>0</asrwt>
<pdfrwt beam="1">  1        2 0.14721513E+00 0.10014083E+04</pdfrwt>
<pdfrwt beam="2">  1       -2 0.17394927E+00 0.10014083E+04</pdfrwt>
<totfact> 0.53220962E+00</totfact>
</mgrwt>
</event>
<event>
 4    2  0.3171963E-007  0.8726371E+03  0.7818608E-02  0.9571468E-01
          2   -1    0    0  501    0  0.00000000000E+00  0.00000000000E+00  0.16075113897E+04  0.16075113897E+04  0.25500000000E-02 0. -1.
         -2   -1    0    0    0  501 -0.00000000000E+00 -0.00000000000E+00 -0.55759769640E+03  0.55759769641E+03  0.25500000000E-02 0.  1.
    8880023    1    1    2    0    0 -0.52541353739E+03 -0.22721319856E+03  0.12632559743E+04  0.15353537331E+04  0.65864270000E+03 0. -1.
    8880022    1    1    2    0    0  0.52541353739E+03  0.22721319856E+03 -0.21334228094E+03  0.62975535307E+03  0.15294330000E+03 0.  0.
<mgrwt>
<rscale>  0 0.79213740E+03</rscale>
<asrwt>0</asrwt>
<pdfrwt beam="1">  1        2 0.24730945E+00 0.87263705E+03</pdfrwt>
<pdfrwt beam="2">  1       -2 0.85784260E-01 0.87263705E+03</pdfrwt>
<totfact> 0.13174997E+01</totfact>
</mgrwt>
</event>
<event>
 4    2  0.3171963E-007  0.8355328E+03  0.7818608E-02  0.9638662E-01
         -2   -1    0    0    0  501 -0.00000000000E+00  0.00000000000E+00  0.77794485375E+03  0.77794485375E+03  0.25500000000E-02 0.  1.
          2   -1    0    0  501    0  0.00000000000E+00 -0.00000000000E+00 -0.61438115195E+03  0.61438115196E+03  0.25500000000E-02 0. -1.
    8880023    1    1    2    0    0  0.30588856640E+03  0.41320338968E+03  0.14636071355E+02  0.83566098218E+03  0.65864270000E+03 0. -1.
    8880022    1    1    2    0    0 -0.30588856640E+03 -0.41320338968E+03  0.14892763044E+03  0.55666502353E+03  0.15294330000E+03 0.  1.
<mgrwt>
<rscale>  0 0.74789297E+03</rscale>
<asrwt>0</asrwt>
<pdfrwt beam="1">  1        2 0.94520177E-01 0.83553280E+03</pdfrwt>
<pdfrwt beam="2">  1       -2 0.11968382E+00 0.83553280E+03</pdfrwt>
<totfact> 0.25913350E+01</totfact>
</mgrwt>
</event>
<event>
 4    2  0.3171963E-007  0.7845810E+03  0.7818608E-02  0.9745184E-01
         -2   -1    0    0    0  501 -0.00000000000E+00  0.00000000000E+00  0.10416958107E+04  0.10416958107E+04  0.25500000000E-02 0.  1.
          2   -1    0    0  501    0  0.00000000000E+00 -0.00000000000E+00 -0.79738572226E+03  0.79738572226E+03  0.25500000000E-02 0. -1.
    8880023    1    1    2    0    0  0.14955304749E+03 -0.39923803270E+03 -0.52662863372E+03  0.94493652956E+03  0.65864270000E+03 0. -1.
    8880022    1    1    2    0    0 -0.14955304749E+03  0.39923803270E+03  0.77093872212E+03  0.89414500337E+03  0.15294330000E+03 0.  0.
<mgrwt>
<rscale>  0 0.68389110E+03</rscale>
<asrwt>0</asrwt>
<pdfrwt beam="1">  1        2 0.12267473E+00 0.78458099E+03</pdfrwt>
<pdfrwt beam="2">  1       -2 0.16026089E+00 0.78458099E+03</pdfrwt>
<totfact> 0.87887375E+00</totfact>
</mgrwt>
</event>
<event>
 4    2  0.3171963E-007  0.7296115E+03  0.7818608E-02  0.9891312E-01
          2   -1    0    0  501    0  0.00000000000E+00  0.00000000000E+00  0.79456371285E+03  0.79456371285E+03  0.25500000000E-02 0. -1.
         -2   -1    0    0    0  501 -0.00000000000E+00 -0.00000000000E+00 -0.47888624587E+03  0.47888624588E+03  0.25500000000E-02 0.  1.
    8880023    1    1    2    0    0  0.85750505798E+01 -0.31376607508E+03  0.49426495536E+03  0.88126655089E+03  0.65864270000E+03 0. -1.
    8880022    1    1    2    0    0 -0.85750505798E+01  0.31376607508E+03 -0.17858748838E+03  0.39218340784E+03  0.15294330000E+03 0.  0.
<mgrwt>
<rscale>  0 0.60684193E+03</rscale>
<asrwt>0</asrwt>
<pdfrwt beam="1">  1        2 0.12224057E+00 0.72961146E+03</pdfrwt>
<pdfrwt beam="2">  1       -2 0.73674808E-01 0.72961146E+03</pdfrwt>
<totfact> 0.58607576E+01</totfact>
</mgrwt>
</event>
<event>
 4    2  0.3171963E-007  0.9671709E+03  0.7818608E-02  0.9425828E-01
         -2   -1    0    0    0  501 -0.00000000000E+00  0.00000000000E+00  0.75309752454E+03  0.75309752455E+03  0.25500000000E-02 0.  1.
          2   -1    0    0  501    0  0.00000000000E+00 -0.00000000000E+00 -0.14917557854E+04  0.14917557854E+04  0.25500000000E-02 0. -1.
    8880023    1    1    2    0    0  0.24926233400E+03 -0.66293104378E+03 -0.10749833001E+04  0.14460320127E+04  0.65864270000E+03 0. -1.
    8880022    1    1    2    0    0 -0.24926233400E+03  0.66293104378E+03  0.33632503923E+03  0.79882129728E+03  0.15294330000E+03 0.  0.
<mgrwt>
<rscale>  0 0.89980295E+03</rscale>
<asrwt>0</asrwt>
<pdfrwt beam="1">  1        2 0.22950089E+00 0.96717087E+03</pdfrwt>
<pdfrwt beam="2">  1       -2 0.11586116E+00 0.96717087E+03</pdfrwt>
<totfact> 0.74120623E+00</totfact>
</mgrwt>
</event>
<event>
 4    2  0.3171963E-007  0.7444208E+03  0.7818608E-02  0.9847252E-01
         -2   -1    0    0    0  501 -0.00000000000E+00  0.00000000000E+00  0.50802116554E+03  0.50802116555E+03  0.25500000000E-02 0.  1.
          2   -1    0    0  501    0  0.00000000000E+00 -0.00000000000E+00 -0.16719685074E+04  0.16719685074E+04  0.25500000000E-02 0. -1.
    8880023    1    1    2    0    0 -0.22848869964E+03 -0.26104609395E+03 -0.14992269441E+04  0.16738708986E+04  0.65864270000E+03 0. -1.
    8880022    1    1    2    0    0  0.22848869964E+03  0.26104609395E+03  0.33527960225E+03  0.50611877433E+03  0.15294330000E+03 0.  0.
<mgrwt>
<rscale>  0 0.62887238E+03</rscale>
<asrwt>0</asrwt>
<pdfrwt beam="1">  1        2 0.25722592E+00 0.74442082E+03</pdfrwt>
<pdfrwt beam="2">  1       -2 0.78157103E-01 0.74442082E+03</pdfrwt>
<totfact> 0.15227167E+01</totfact>
</mgrwt>
</event>
<event>
 4    2  0.3171963E-007  0.7836081E+03  0.7818608E-02  0.9747429E-01
          2   -1    0    0  501    0  0.00000000000E+00  0.00000000000E+00  0.20751837259E+04  0.20751837259E+04  0.25500000000E-02 0. -1.
         -2   -1    0    0    0  501 -0.00000000000E+00 -0.00000000000E+00 -0.69891346648E+03  0.69891346648E+03  0.25500000000E-02 0.  1.
    8880023    1    1    2    0    0  0.28260943655E+03  0.31680175679E+03  0.19163165714E+04  0.20703407581E+04  0.65864270000E+03 0. -1.
    8880022    1    1    2    0    0 -0.28260943655E+03 -0.31680175679E+03 -0.54004631194E+03  0.70375643428E+03  0.15294330000E+03 0.  0.
<mgrwt>
<rscale>  0 0.68261774E+03</rscale>
<asrwt>0</asrwt>
<pdfrwt beam="1">  1        2 0.31925903E+00 0.78360810E+03</pdfrwt>
<pdfrwt beam="2">  1       -2 0.10752515E+00 0.78360810E+03</pdfrwt>
<totfact> 0.43476080E+00</totfact>
</mgrwt>
</event>
<event>
 4    2  0.3171963E-007  0.7262147E+03  0.7818608E-02  0.9902092E-01
          2   -1    0    0  501    0  0.00000000000E+00  0.00000000000E+00  0.26737652405E+03  0.26737652406E+03  0.25500000000E-02 0. -1.
         -2   -1    0    0    0  501 -0.00000000000E+00 -0.00000000000E+00 -0.11123727090E+04  0.11123727090E+04  0.25500000000E-02 0.  1.
    8880023    1    1    2    0    0  0.26710741098E+03 -0.14910157880E+03 -0.43776655168E+03  0.84795483950E+03  0.65864270000E+03 0.  0.
    8880022    1    1    2    0    0 -0.26710741098E+03  0.14910157880E+03 -0.40722963326E+03  0.53179439356E+03  0.15294330000E+03 0. -1.
<mgrwt>
<rscale>  0 0.60159994E+03</rscale>
<asrwt>0</asrwt>
<pdfrwt beam="1">  1        2 0.41134851E-01 0.72621475E+03</pdfrwt>
<pdfrwt beam="2">  1       -2 0.17113426E+00 0.72621475E+03</pdfrwt>
<totfact> 0.26510954E+01</totfact>
</mgrwt>
</event>
<event>
 4    2  0.3171963E-007  0.7746640E+03  0.7818608E-02  0.9768524E-01
          2   -1    0    0  501    0  0.00000000000E+00  0.00000000000E+00  0.11948123798E+04  0.11948123798E+04  0.25500000000E-02 0. -1.
         -2   -1    0    0    0  501 -0.00000000000E+00 -0.00000000000E+00 -0.53076648824E+03  0.53076648824E+03  0.25500000000E-02 0.  1.
    8880023    1    1    2    0    0 -0.36795312340E+03 -0.17579685092E+03  0.93378568094E+03  0.12132847720E+04  0.65864270000E+03 0.  1.
    8880022    1    1    2    0    0  0.36795312340E+03  0.17579685092E+03 -0.26973978940E+03  0.51229409601E+03  0.15294330000E+03 0.  0.
<mgrwt>
<rscale>  0 0.67079425E+03</rscale>
<asrwt>0</asrwt>
<pdfrwt beam="1">  1        2 0.18381729E+00 0.77466395E+03</pdfrwt>
<pdfrwt beam="2">  1       -2 0.81656383E-01 0.77466395E+03</pdfrwt>
<totfact> 0.25585027E+01</totfact>
</mgrwt>
</event>
<event>
 4    2  0.3171963E-007  0.6960630E+03  0.7818608E-02  0.1001394E+00
          2   -1    0    0  501    0  0.00000000000E+00  0.00000000000E+00  0.43127992204E+03  0.43127992205E+03  0.25500000000E-02 0. -1.
         -2   -1    0    0    0  501 -0.00000000000E+00 -0.00000000000E+00 -0.56826830888E+03  0.56826830889E+03  0.25500000000E-02 0.  1.
    8880023    1    1    2    0    0 -0.63198646148E+02  0.21610034536E+03 -0.19157017355E+03  0.72194374143E+03  0.65864270000E+03 0.  1.
    8880022    1    1    2    0    0  0.63198646148E+02 -0.21610034536E+03  0.54581786710E+02  0.27760448951E+03  0.15294330000E+03 0. -1.
<mgrwt>
<rscale>  0 0.55043081E+03</rscale>
<asrwt>0</asrwt>
<pdfrwt beam="1">  1        2 0.66350757E-01 0.69606295E+03</pdfrwt>
<pdfrwt beam="2">  1       -2 0.87425893E-01 0.69606295E+03</pdfrwt>
<totfact> 0.83632688E+01</totfact>
</mgrwt>
</event>
<event>
 4    2  0.3171963E-007  0.7907797E+03  0.7818608E-02  0.9731099E-01
          2   -1    0    0  501    0  0.00000000000E+00  0.00000000000E+00  0.69513549465E+03  0.69513549466E+03  0.25500000000E-02 0. -1.
         -2   -1    0    0    0  501 -0.00000000000E+00 -0.00000000000E+00 -0.61314122306E+03  0.61314122306E+03  0.25500000000E-02 0.  1.
    8880023    1    1    2    0    0  0.20821391718E+03  0.38492774289E+03  0.22669237754E+03  0.82263117060E+03  0.65864270000E+03 0. -1.
    8880022    1    1    2    0    0 -0.20821391718E+03 -0.38492774289E+03 -0.14469810594E+03  0.48564554711E+03  0.15294330000E+03 0.  1.
<mgrwt>
<rscale>  0 0.69195007E+03</rscale>
<asrwt>0</asrwt>
<pdfrwt beam="1">  1        2 0.10694392E+00 0.79077975E+03</pdfrwt>
<pdfrwt beam="2">  1       -2 0.94329419E-01 0.79077975E+03</pdfrwt>
<totfact> 0.39557845E+01</totfact>
</mgrwt>
</event>
<event>
 4    2  0.3171963E-007  0.7399228E+03  0.7818608E-02  0.9860172E-01
          2   -1    0    0  501    0  0.00000000000E+00  0.00000000000E+00  0.21556976559E+04  0.21556976559E+04  0.25500000000E-02 0. -1.
         -2   -1    0    0    0  501 -0.00000000000E+00 -0.00000000000E+00 -0.19091404389E+03  0.19091404391E+03  0.25500000000E-02 0.  1.
    8880023    1    1    2    0    0 -0.10078928292E+03  0.32174062592E+03  0.17906040375E+04  0.19374592990E+04  0.65864270000E+03 0.  0.
    8880022    1    1    2    0    0  0.10078928292E+03 -0.32174062592E+03  0.17417957456E+03  0.40915240086E+03  0.15294330000E+03 0.  0.
<mgrwt>
<rscale>  0 0.62230956E+03</rscale>
<asrwt>0</asrwt>
<pdfrwt beam="1">  1        2 0.33164582E+00 0.73992278E+03</pdfrwt>
<pdfrwt beam="2">  1       -2 0.29371389E-01 0.73992278E+03</pdfrwt>
<totfact> 0.60249566E+01</totfact>
</mgrwt>
</event>
<event>
 4    2  0.3171963E-007  0.9876147E+03  0.7818608E-02  0.9397944E-01
         -2   -1    0    0    0  501 -0.00000000000E+00  0.00000000000E+00  0.17368681925E+04  0.17368681925E+04  0.25500000000E-02 0.  1.
          2   -1    0    0  501    0  0.00000000000E+00 -0.00000000000E+00 -0.10605682420E+04  0.10605682420E+04  0.25500000000E-02 0. -1.
    8880023    1    1    2    0    0  0.70472321658E+03 -0.21198527322E+03 -0.71282830652E+03  0.12179930086E+04  0.65864270000E+03 0.  0.
    8880022    1    1    2    0    0 -0.70472321658E+03  0.21198527322E+03  0.13891282570E+04  0.15794434259E+04  0.15294330000E+03 0.  0.
<mgrwt>
<rscale>  0 0.92245093E+03</rscale>
<asrwt>0</asrwt>
<pdfrwt beam="1">  1        2 0.16316435E+00 0.98761469E+03</pdfrwt>
<pdfrwt beam="2">  1       -2 0.26721049E+00 0.98761469E+03</pdfrwt>
<totfact> 0.11628724E+00</totfact>
</mgrwt>
</event>
<event>
 4    2  0.3171963E-007  0.8046845E+03  0.7818608E-02  0.9700757E-01
         -2   -1    0    0    0  501 -0.00000000000E+00  0.00000000000E+00  0.48512294464E+03  0.48512294465E+03  0.25500000000E-02 0.  1.
          2   -1    0    0  501    0  0.00000000000E+00 -0.00000000000E+00 -0.11420946940E+04  0.11420946940E+04  0.25500000000E-02 0. -1.
    8880023    1    1    2    0    0 -0.39063055605E+03 -0.24721401058E+03  0.59205660118E+01  0.80470631768E+03  0.65864270000E+03 0.  1.
    8880022    1    1    2    0    0  0.39063055605E+03  0.24721401058E+03 -0.66289231539E+03  0.82251132099E+03  0.15294330000E+03 0.  0.
<mgrwt>
<rscale>  0 0.70971728E+03</rscale>
<asrwt>0</asrwt>
<pdfrwt beam="1">  1        2 0.17570688E+00 0.80468454E+03</pdfrwt>
<pdfrwt beam="2">  1       -2 0.74634299E-01 0.80468454E+03</pdfrwt>
<totfact> 0.33548466E+01</totfact>
</mgrwt>
</event>
<event>
 4    2  0.3171963E-007  0.8139611E+03  0.7818608E-02  0.9681384E-01
         -2   -1    0    0    0  501 -0.00000000000E+00  0.00000000000E+00  0.35615164441E+03  0.35615164442E+03  0.25500000000E-02 0.  1.
          2   -1    0    0  501    0  0.00000000000E+00 -0.00000000000E+00 -0.24930862431E+04  0.24930862431E+04  0.25500000000E-02 0. -1.
    8880023    1    1    2    0    0  0.45795340318E+03  0.13784487025E+03 -0.21975806586E+04  0.23434789278E+04  0.65864270000E+03 0. -1.
    8880022    1    1    2    0    0 -0.45795340318E+03 -0.13784487025E+03  0.60646059919E+02  0.50575895972E+03  0.15294330000E+03 0.  0.
<mgrwt>
<rscale>  0 0.72136059E+03</rscale>
<asrwt>0</asrwt>
<pdfrwt beam="1">  1        2 0.38355172E+00 0.81396114E+03</pdfrwt>
<pdfrwt beam="2">  1       -2 0.54792562E-01 0.81396114E+03</pdfrwt>
<totfact> 0.11422146E+01</totfact>
</mgrwt>
</event>
<event>
 4    2  0.3171963E-007  0.6716162E+03  0.7818608E-02  0.1014530E+00
         -2   -1    0    0    0  501 -0.00000000000E+00  0.00000000000E+00  0.68947477980E+03  0.68947477980E+03  0.25500000000E-02 0.  1.
          2   -1    0    0  501    0  0.00000000000E+00 -0.00000000000E+00 -0.18857176154E+04  0.18857176154E+04  0.25500000000E-02 0. -1.
    8880023    1    1    2    0    0  0.11031407545E+03 -0.71337054674E+02 -0.18092478464E+04  0.19298824178E+04  0.65864270000E+03 0. -1.
    8880022    1    1    2    0    0 -0.11031407545E+03  0.71337054674E+02  0.61300501081E+03  0.64530997738E+03  0.15294330000E+03 0.  0.
<mgrwt>
<rscale>  0 0.49713372E+03</rscale>
<asrwt>0</asrwt>
<pdfrwt beam="1">  1        2 0.29011040E+00 0.67161624E+03</pdfrwt>
<pdfrwt beam="2">  1       -2 0.10607304E+00 0.67161624E+03</pdfrwt>
<totfact> 0.58081138E+00</totfact>
</mgrwt>
</event>
<event>
 4    2  0.3171963E-007  0.6999877E+03  0.7818608E-02  0.9997252E-01
         -2   -1    0    0    0  501 -0.00000000000E+00  0.00000000000E+00  0.35298321328E+03  0.35298321329E+03  0.25500000000E-02 0.  1.
          2   -1    0    0  501    0  0.00000000000E+00 -0.00000000000E+00 -0.18165342609E+04  0.18165342609E+04  0.25500000000E-02 0. -1.
    8880023    1    1    2    0    0  0.15317374843E+03 -0.18086002756E+03 -0.16760569172E+04  0.18163561167E+04  0.65864270000E+03 0. -1.
    8880022    1    1    2    0    0 -0.15317374843E+03  0.18086002756E+03  0.21250586960E+03  0.35316135746E+03  0.15294330000E+03 0.  0.
<mgrwt>
<rscale>  0 0.55770882E+03</rscale>
<asrwt>0</asrwt>
<pdfrwt beam="1">  1        2 0.27946680E+00 0.69998768E+03</pdfrwt>
<pdfrwt beam="2">  1       -2 0.54305111E-01 0.69998768E+03</pdfrwt>
<totfact> 0.27938899E+01</totfact>
</mgrwt>
</event>
<event>
 4    2  0.3171963E-007  0.9137280E+03  0.7818608E-02  0.9504344E-01
         -2   -1    0    0    0  501 -0.00000000000E+00  0.00000000000E+00  0.97878488944E+03  0.97878488944E+03  0.25500000000E-02 0.  1.
          2   -1    0    0  501    0  0.00000000000E+00 -0.00000000000E+00 -0.84624864742E+03  0.84624864742E+03  0.25500000000E-02 0. -1.
    8880023    1    1    2    0    0 -0.54391519143E+03  0.32441459602E+03 -0.38643112483E+03  0.99208255003E+03  0.65864270000E+03 0. -1.
    8880022    1    1    2    0    0  0.54391519143E+03 -0.32441459602E+03  0.51896736685E+03  0.83295098683E+03  0.15294330000E+03 0.  0.
<mgrwt>
<rscale>  0 0.83964337E+03</rscale>
<asrwt>0</asrwt>
<pdfrwt beam="1">  1        2 0.13019210E+00 0.91372795E+03</pdfrwt>
<pdfrwt beam="2">  1       -2 0.15058229E+00 0.91372795E+03</pdfrwt>
<totfact> 0.94642774E+00</totfact>
</mgrwt>
</event>
<event>
 4    2  0.3171963E-007  0.8650338E+03  0.7818608E-02  0.9584671E-01
         -2   -1    0    0    0  501 -0.00000000000E+00  0.00000000000E+00  0.24844710542E+03  0.24844710543E+03  0.25500000000E-02 0.  1.
          2   -1    0    0  501    0  0.00000000000E+00 -0.00000000000E+00 -0.24689726215E+04  0.24689726215E+04  0.25500000000E-02 0. -1.
    8880023    1    1    2    0    0 -0.55977977459E+03 -0.33464519764E+02 -0.18091319845E+04  0.20053034717E+04  0.65864270000E+03 0. -1.
    8880022    1    1    2    0    0  0.55977977459E+03  0.33464519764E+02 -0.41139353165E+03  0.71211625527E+03  0.15294330000E+03 0.  0.
<mgrwt>
<rscale>  0 0.78319101E+03</rscale>
<asrwt>0</asrwt>
<pdfrwt beam="1">  1        2 0.37984192E+00 0.86503380E+03</pdfrwt>
<pdfrwt beam="2">  1       -2 0.38222633E-01 0.86503380E+03</pdfrwt>
<totfact> 0.24094854E+01</totfact>
</mgrwt>
</event>
<event>
 4    2  0.3171963E-007  0.8440434E+03  0.7818608E-02  0.9622603E-01
         -2   -1    0    0    0  501 -0.00000000000E+00  0.00000000000E+00  0.24777919566E+03  0.24777919567E+03  0.25500000000E-02 0.  1.
          2   -1    0    0  501    0  0.00000000000E+00 -0.00000000000E+00 -0.22984973842E+04  0.22984973842E+04  0.25500000000E-02 0. -1.
    8880023    1    1    2    0    0  0.48064489531E+03 -0.21812744001E+03 -0.16896448776E+04  0.18887321446E+04  0.65864270000E+03 0.  0.
    8880022    1    1    2    0    0 -0.48064489531E+03  0.21812744001E+03 -0.36107331102E+03  0.65754443532E+03  0.15294330000E+03 0.  0.
<mgrwt>
<rscale>  0 0.75818083E+03</rscale>
<asrwt>0</asrwt>
<pdfrwt beam="1">  1        2 0.35361497E+00 0.84404342E+03</pdfrwt>
<pdfrwt beam="2">  1       -2 0.38119878E-01 0.84404342E+03</pdfrwt>
<totfact> 0.30282192E+01</totfact>
</mgrwt>
</event>
<event>
 4    2  0.3171963E-007  0.1129554E+04  0.7818608E-02  0.9228843E-01
          2   -1    0    0  501    0  0.00000000000E+00  0.00000000000E+00  0.10075978451E+04  0.10075978451E+04  0.25500000000E-02 0. -1.
         -2   -1    0    0    0  501 -0.00000000000E+00 -0.00000000000E+00 -0.12813634295E+04  0.12813634295E+04  0.25500000000E-02 0.  1.
    8880023    1    1    2    0    0 -0.72421968180E+03 -0.56354990005E+03  0.33378509636E+03  0.11778392650E+04  0.65864270000E+03 0.  0.
    8880022    1    1    2    0    0  0.72421968180E+03  0.56354990005E+03 -0.60755068081E+03  0.11111220096E+04  0.15294330000E+03 0.  0.
<mgrwt>
<rscale>  0 0.10760615E+04</rscale>
<asrwt>0</asrwt>
<pdfrwt beam="1">  1        2 0.15501505E+00 0.11295543E+04</pdfrwt>
<pdfrwt beam="2">  1       -2 0.19713284E+00 0.11295543E+04</pdfrwt>
<totfact> 0.33872433E+00</totfact>
</mgrwt>
</event>
<event>
 4    2  0.3171963E-007  0.6640798E+03  0.7818608E-02  0.1020318E+00
          2   -1    0    0  501    0  0.00000000000E+00  0.00000000000E+00  0.11028320309E+04  0.11028320309E+04  0.25500000000E-02 0. -1.
         -2   -1    0    0    0  501 -0.00000000000E+00 -0.00000000000E+00 -0.19498582100E+03  0.19498582102E+03  0.25500000000E-02 0.  1.
    8880023    1    1    2    0    0 -0.65594352174E+02  0.53750266595E+02  0.90551104374E+03  0.11229212647E+04  0.65864270000E+03 0.  0.
    8880022    1    1    2    0    0  0.65594352174E+02 -0.53750266595E+02  0.23351661707E+01  0.17489658719E+03  0.15294330000E+03 0.  0.
<mgrwt>
<rscale>  0 0.47571937E+03</rscale>
<asrwt>0</asrwt>
<pdfrwt beam="1">  1        2 0.16966647E+00 0.66407975E+03</pdfrwt>
<pdfrwt beam="2">  1       -2 0.29997819E-01 0.66407975E+03</pdfrwt>
<totfact> 0.22593764E+02</totfact>
</mgrwt>
</event>
<event>
 4    2  0.3171963E-007  0.6846944E+03  0.7818608E-02  0.1006784E+00
         -2   -1    0    0    0  501 -0.00000000000E+00  0.00000000000E+00  0.20042119621E+04  0.20042119621E+04  0.25500000000E-02 0.  1.
          2   -1    0    0  501    0  0.00000000000E+00 -0.00000000000E+00 -0.23308359460E+03  0.23308359462E+03  0.25500000000E-02 0. -1.
    8880023    1    1    2    0    0 -0.84032263573E+02  0.16713717369E+03  0.30184619295E+03  0.74827641057E+03  0.65864270000E+03 0. -1.
    8880022    1    1    2    0    0  0.84032263573E+02 -0.16713717369E+03  0.14692821746E+04  0.14890191462E+04  0.15294330000E+03 0.  0.
<mgrwt>
<rscale>  0 0.52773143E+03</rscale>
<asrwt>0</asrwt>
<pdfrwt beam="1">  1        2 0.35859016E-01 0.68469443E+03</pdfrwt>
<pdfrwt beam="2">  1       -2 0.30834029E+00 0.68469443E+03</pdfrwt>
<totfact> 0.43192009E+00</totfact>
</mgrwt>
</event>
<event>
 4    2  0.3171963E-007  0.7048536E+03  0.7818608E-02  0.9977632E-01
         -2   -1    0    0    0  501 -0.00000000000E+00  0.00000000000E+00  0.71709445498E+03  0.71709445499E+03  0.25500000000E-02 0.  1.
          2   -1    0    0  501    0  0.00000000000E+00 -0.00000000000E+00 -0.91614970689E+03  0.91614970689E+03  0.25500000000E-02 0. -1.
    8880023    1    1    2    0    0  0.38840468830E+02  0.24799160664E+03 -0.73727093006E+03  0.10199936517E+04  0.65864270000E+03 0.  0.
    8880022    1    1    2    0    0 -0.38840468830E+02 -0.24799160664E+03  0.53821567815E+03  0.61325051016E+03  0.15294330000E+03 0.  1.
<mgrwt>
<rscale>  0 0.56641985E+03</rscale>
<asrwt>0</asrwt>
<pdfrwt beam="1">  1        2 0.14094611E+00 0.70485362E+03</pdfrwt>
<pdfrwt beam="2">  1       -2 0.11032222E+00 0.70485362E+03</pdfrwt>
<totfact> 0.19038297E+01</totfact>
</mgrwt>
</event>
<event>
 4    2  0.3171963E-007  0.9687102E+03  0.7818608E-02  0.9423690E-01
          2   -1    0    0  501    0  0.00000000000E+00  0.00000000000E+00  0.19252023931E+04  0.19252023931E+04  0.25500000000E-02 0. -1.
         -2   -1    0    0    0  501 -0.00000000000E+00 -0.00000000000E+00 -0.13178834758E+04  0.13178834758E+04  0.25500000000E-02 0.  1.
    8880023    1    1    2    0    0 -0.37392479266E+03 -0.60396151090E+03  0.16848314619E+04  0.19434650804E+04  0.65864270000E+03 0. -1.
    8880022    1    1    2    0    0  0.37392479266E+03  0.60396151090E+03 -0.10775125446E+04  0.12996207885E+04  0.15294330000E+03 0.  0.
<mgrwt>
<rscale>  0 0.90151443E+03</rscale>
<asrwt>0</asrwt>
<pdfrwt beam="1">  1        2 0.29618498E+00 0.96871021E+03</pdfrwt>
<pdfrwt beam="2">  1       -2 0.20275130E+00 0.96871021E+03</pdfrwt>
<totfact> 0.94062781E-01</totfact>
</mgrwt>
</event>
<event>
 4    2  0.3171963E-007  0.8106064E+03  0.7818608E-02  0.9688315E-01
         -2   -1    0    0    0  501 -0.00000000000E+00  0.00000000000E+00  0.47065977008E+03  0.47065977009E+03  0.25500000000E-02 0.  1.
          2   -1    0    0  501    0  0.00000000000E+00 -0.00000000000E+00 -0.15996498532E+04  0.15996498532E+04  0.25500000000E-02 0. -1.
    8880023    1    1    2    0    0 -0.47245966557E+03  0.73770089261E+01 -0.13109931836E+04  0.15413584559E+04  0.65864270000E+03 0. -1.
    8880022    1    1    2    0    0  0.47245966557E+03 -0.73770089261E+01  0.18200310050E+03  0.52895116737E+03  0.15294330000E+03 0.  0.
<mgrwt>
<rscale>  0 0.71716782E+03</rscale>
<asrwt>0</asrwt>
<pdfrwt beam="1">  1        2 0.24609998E+00 0.81060642E+03</pdfrwt>
<pdfrwt beam="2">  1       -2 0.72409196E-01 0.81060642E+03</pdfrwt>
<totfact> 0.19608734E+01</totfact>
</mgrwt>
</event>
<event>
 4    2  0.3171963E-007  0.7424566E+03  0.7818608E-02  0.9852848E-01
          2   -1    0    0  501    0  0.00000000000E+00  0.00000000000E+00  0.17511471846E+04  0.17511471846E+04  0.25500000000E-02 0. -1.
         -2   -1    0    0    0  501 -0.00000000000E+00 -0.00000000000E+00 -0.30384914234E+03  0.30384914235E+03  0.25500000000E-02 0.  1.
    8880023    1    1    2    0    0  0.14687512386E+03  0.30961142619E+03  0.15022713164E+04  0.16757269621E+04  0.65864270000E+03 0.  0.
    8880022    1    1    2    0    0 -0.14687512386E+03 -0.30961142619E+03 -0.54973274112E+02  0.37926936486E+03  0.15294330000E+03 0.  0.
<mgrwt>
<rscale>  0 0.62601906E+03</rscale>
<asrwt>0</asrwt>
<pdfrwt beam="1">  1        2 0.26940726E+00 0.74245656E+03</pdfrwt>
<pdfrwt beam="2">  1       -2 0.46746022E-01 0.74245656E+03</pdfrwt>
<totfact> 0.40940146E+01</totfact>
</mgrwt>
</event>
<event>
 4    2  0.3171963E-007  0.7445531E+03  0.7818608E-02  0.9846877E-01
          2   -1    0    0  501    0  0.00000000000E+00  0.00000000000E+00  0.79655328842E+03  0.79655328842E+03  0.25500000000E-02 0. -1.
         -2   -1    0    0    0  501 -0.00000000000E+00 -0.00000000000E+00 -0.96742627718E+03  0.96742627719E+03  0.25500000000E-02 0.  1.
    8880023    1    1    2    0    0 -0.34674404014E+03  0.17822371244E+02  0.56593945566E+03  0.93522550223E+03  0.65864270000E+03 0. -1.
    8880022    1    1    2    0    0  0.34674404014E+03 -0.17822371244E+02 -0.73681244443E+03  0.82875406338E+03  0.15294330000E+03 0.  0.
<mgrwt>
<rscale>  0 0.62906381E+03</rscale>
<asrwt>0</asrwt>
<pdfrwt beam="1">  1        2 0.12254666E+00 0.74455307E+03</pdfrwt>
<pdfrwt beam="2">  1       -2 0.14883481E+00 0.74455307E+03</pdfrwt>
<totfact> 0.10773789E+01</totfact>
</mgrwt>
</event>
<event>
 4    2  0.3171963E-007  0.8332455E+03  0.7818608E-02  0.9643050E-01
         -2   -1    0    0    0  501 -0.00000000000E+00  0.00000000000E+00  0.21234781945E+03  0.21234781946E+03  0.25500000000E-02 0.  1.
          2   -1    0    0  501    0  0.00000000000E+00 -0.00000000000E+00 -0.24066288713E+04  0.24066288713E+04  0.25500000000E-02 0. -1.
    8880023    1    1    2    0    0 -0.50791153956E+03  0.50137232730E+02 -0.16952902127E+04  0.18889962906E+04  0.65864270000E+03 0. -1.
    8880022    1    1    2    0    0  0.50791153956E+03 -0.50137232730E+02 -0.49899083910E+03  0.72998040018E+03  0.15294330000E+03 0.  1.
<mgrwt>
<rscale>  0 0.74511189E+03</rscale>
<asrwt>0</asrwt>
<pdfrwt beam="1">  1        2 0.37025058E+00 0.83324551E+03</pdfrwt>
<pdfrwt beam="2">  1       -2 0.32668897E-01 0.83324551E+03</pdfrwt>
<totfact> 0.35419802E+01</totfact>
</mgrwt>
</event>
<event>
 4    2  0.3171963E-007  0.7060846E+03  0.7818608E-02  0.9972838E-01
         -2   -1    0    0    0  501 -0.00000000000E+00  0.00000000000E+00  0.29858528964E+03  0.29858528965E+03  0.25500000000E-02 0.  1.
          2   -1    0    0  501    0  0.00000000000E+00 -0.00000000000E+00 -0.16279971594E+04  0.16279971594E+04  0.25500000000E-02 0. -1.
    8880023    1    1    2    0    0 -0.25169391225E+03 -0.37355200854E+02 -0.14447706349E+04  0.16080788632E+04  0.65864270000E+03 0.  0.
    8880022    1    1    2    0    0  0.25169391225E+03  0.37355200854E+02  0.11535876514E+03  0.31850358586E+03  0.15294330000E+03 0.  1.
<mgrwt>
<rscale>  0 0.56857435E+03</rscale>
<asrwt>0</asrwt>
<pdfrwt beam="1">  1        2 0.25046110E+00 0.70608459E+03</pdfrwt>
<pdfrwt beam="2">  1       -2 0.45936199E-01 0.70608459E+03</pdfrwt>
<totfact> 0.49725972E+01</totfact>
</mgrwt>
</event>
<event>
 4    2  0.3171963E-007  0.7213725E+03  0.7818608E-02  0.9917969E-01
          2   -1    0    0  501    0  0.00000000000E+00  0.00000000000E+00  0.26263045665E+04  0.26263045665E+04  0.25500000000E-02 0. -1.
         -2   -1    0    0    0  501 -0.00000000000E+00 -0.00000000000E+00 -0.30166589421E+03  0.30166589423E+03  0.25500000000E-02 0.  1.
    8880023    1    1    2    0    0  0.24138267196E+03  0.16823342034E+03  0.24646296483E+04  0.25680299039E+04  0.65864270000E+03 0.  0.
    8880022    1    1    2    0    0 -0.24138267196E+03 -0.16823342034E+03 -0.13999097601E+03  0.35994055678E+03  0.15294330000E+03 0.  0.
<mgrwt>
<rscale>  0 0.59398284E+03</rscale>
<asrwt>0</asrwt>
<pdfrwt beam="1">  1        2 0.40404688E+00 0.72137250E+03</pdfrwt>
<pdfrwt beam="2">  1       -2 0.46410135E-01 0.72137250E+03</pdfrwt>
<totfact> 0.13648852E+01</totfact>
</mgrwt>
</event>
<event>
 4    2  0.3171963E-007  0.7137914E+03  0.7818608E-02  0.9944183E-01
         -2   -1    0    0    0  501 -0.00000000000E+00  0.00000000000E+00  0.15638399992E+04  0.15638399992E+04  0.25500000000E-02 0.  1.
          2   -1    0    0  501    0  0.00000000000E+00 -0.00000000000E+00 -0.43744457768E+03  0.43744457768E+03  0.25500000000E-02 0. -1.
    8880023    1    1    2    0    0 -0.26778367581E+03  0.63085819033E+02 -0.11287762640E+03  0.72266138848E+03  0.65864270000E+03 0. -1.
    8880022    1    1    2    0    0  0.26778367581E+03 -0.63085819033E+02  0.12392730479E+04  0.12786231884E+04  0.15294330000E+03 0.  0.
<mgrwt>
<rscale>  0 0.58166976E+03</rscale>
<asrwt>0</asrwt>
<pdfrwt beam="1">  1        2 0.67299165E-01 0.71379137E+03</pdfrwt>
<pdfrwt beam="2">  1       -2 0.24059077E+00 0.71379137E+03</pdfrwt>
<totfact> 0.54417350E+00</totfact>
</mgrwt>
</event>
<event>
 4    2  0.3171963E-007  0.7485618E+03  0.7818608E-02  0.9835674E-01
         -2   -1    0    0    0  501 -0.00000000000E+00  0.00000000000E+00  0.26026606433E+03  0.26026606434E+03  0.25500000000E-02 0.  1.
          2   -1    0    0  501    0  0.00000000000E+00 -0.00000000000E+00 -0.31514556635E+04  0.31514556635E+04  0.25500000000E-02 0. -1.
    8880023    1    1    2    0    0 -0.19329754237E+03 -0.29861444951E+03 -0.29285638519E+04  0.30227191352E+04  0.65864270000E+03 0. -1.
    8880022    1    1    2    0    0  0.19329754237E+03  0.29861444951E+03  0.37374252687E+02  0.38900259269E+03  0.15294330000E+03 0.  0.
<mgrwt>
<rscale>  0 0.63482705E+03</rscale>
<asrwt>0</asrwt>
<pdfrwt beam="1">  1        2 0.48483931E+00 0.74856178E+03</pdfrwt>
<pdfrwt beam="2">  1       -2 0.40040935E-01 0.74856178E+03</pdfrwt>
<totfact> 0.87980124E+00</totfact>
</mgrwt>
</event>
<event>
 4    2  0.3171963E-007  0.9681871E+03  0.7818608E-02  0.9424416E-01
          2   -1    0    0  501    0  0.00000000000E+00  0.00000000000E+00  0.22098567191E+04  0.22098567191E+04  0.25500000000E-02 0. -1.
         -2   -1    0    0    0  501 -0.00000000000E+00 -0.00000000000E+00 -0.47631188339E+03  0.47631188339E+03  0.25500000000E-02 0.  1.
    8880023    1    1    2    0    0 -0.41572737059E+03  0.57510591742E+03  0.17037522200E+04  0.19596320818E+04  0.65864270000E+03 0.  0.
    8880022    1    1    2    0    0  0.41572737059E+03 -0.57510591742E+03  0.29792615783E+02  0.72653652068E+03  0.15294330000E+03 0.  0.
<mgrwt>
<rscale>  0 0.90093295E+03</rscale>
<asrwt>0</asrwt>
<pdfrwt beam="1">  1        2 0.33997795E+00 0.96818710E+03</pdfrwt>
<pdfrwt beam="2">  1       -2 0.73278752E-01 0.96818710E+03</pdfrwt>
<totfact> 0.86527982E+00</totfact>
</mgrwt>
</event>
<event>
 4    2  0.3848144E-007  0.1035632E+04  0.7818608E-02  0.9336357E-01
         -2   -1    0    0    0  501 -0.00000000000E+00  0.00000000000E+00  0.14839768534E+04  0.14839768534E+04  0.25500000000E-02 0.  1.
          2   -1    0    0  501    0  0.00000000000E+00 -0.00000000000E+00 -0.19195050871E+04  0.19195050871E+04  0.25500000000E-02 0. -1.
    8880023    1    1    2    0    0 -0.79917743641E+03 -0.62111244453E+01 -0.16461420310E+04  0.19448179723E+04  0.65864270000E+03 0.  0.
    8880022    1    1    2    0    0  0.79917743641E+03  0.62111244453E+01  0.12106137973E+04  0.14586639682E+04  0.15294330000E+03 0.  0.
<mgrwt>
<rscale>  0 0.97503615E+03</rscale>
<asrwt>0</asrwt>
<pdfrwt beam="1">  1        2 0.29530848E+00 0.10356319E+04</pdfrwt>
<pdfrwt beam="2">  1       -2 0.22830413E+00 0.10356319E+04</pdfrwt>
<totfact> 0.64520350E-01</totfact>
</mgrwt>
</event>
<event>
 4    2  0.3171963E-007  0.7212638E+03  0.7818608E-02  0.9918333E-01
          2   -1    0    0  501    0  0.00000000000E+00  0.00000000000E+00  0.65620894485E+03  0.65620894485E+03  0.25500000000E-02 0. -1.
         -2   -1    0    0    0  501 -0.00000000000E+00 -0.00000000000E+00 -0.43206805497E+03  0.43206805498E+03  0.25500000000E-02 0.  1.
    8880023    1    1    2    0    0  0.14559013616E+03  0.25537170332E+03  0.22941377187E+03  0.75686992250E+03  0.65864270000E+03 0.  1.
    8880022    1    1    2    0    0 -0.14559013616E+03 -0.25537170332E+03 -0.52728819887E+01  0.33140707733E+03  0.15294330000E+03 0. -1.
<mgrwt>
<rscale>  0 0.59380969E+03</rscale>
<asrwt>0</asrwt>
<pdfrwt beam="1">  1        2 0.10095522E+00 0.72126375E+03</pdfrwt>
<pdfrwt beam="2">  1       -2 0.66472009E-01 0.72126375E+03</pdfrwt>
<totfact> 0.93691591E+01</totfact>
</mgrwt>
</event>
<event>
 4    2  0.3171963E-007  0.1643646E+04  0.7818608E-02  0.8814344E-01
         -2   -1    0    0    0  501 -0.00000000000E+00  0.00000000000E+00  0.99861523472E+03  0.99861523472E+03  0.25500000000E-02 0.  1.
          2   -1    0    0  501    0  0.00000000000E+00 -0.00000000000E+00 -0.28606966931E+04  0.28606966931E+04  0.25500000000E-02 0. -1.
    8880023    1    1    2    0    0 -0.13002494830E+04 -0.75968041501E+03 -0.16533380486E+04  0.23313300839E+04  0.65864270000E+03 0.  0.
    8880022    1    1    2    0    0  0.13002494830E+04  0.75968041501E+03 -0.20874340976E+03  0.15279818439E+04  0.15294330000E+03 0.  0.
<mgrwt>
<rscale>  0 0.16101379E+04</rscale>
<asrwt>0</asrwt>
<pdfrwt beam="1">  1        2 0.44010718E+00 0.16436463E+04</pdfrwt>
<pdfrwt beam="2">  1       -2 0.15363311E+00 0.16436463E+04</pdfrwt>
<totfact> 0.55644597E-01</totfact>
</mgrwt>
</event>
<event>
 4    2  0.3171963E-007  0.7811128E+03  0.7818608E-02  0.9753229E-01
          2   -1    0    0  501    0  0.00000000000E+00  0.00000000000E+00  0.10375708122E+04  0.10375708122E+04  0.25500000000E-02 0. -1.
         -2   -1    0    0    0  501 -0.00000000000E+00 -0.00000000000E+00 -0.98982858597E+03  0.98982858597E+03  0.25500000000E-02 0.  1.
    8880023    1    1    2    0    0  0.40197802567E+03  0.12141119676E+03  0.82167467525E+03  0.11337047632E+04  0.65864270000E+03 0. -1.
    8880022    1    1    2    0    0 -0.40197802567E+03 -0.12141119676E+03 -0.77393244907E+03  0.89369463496E+03  0.15294330000E+03 0.  0.
<mgrwt>
<rscale>  0 0.67934073E+03</rscale>
<asrwt>0</asrwt>
<pdfrwt beam="1">  1        2 0.15962628E+00 0.78111281E+03</pdfrwt>
<pdfrwt beam="2">  1       -2 0.15228132E+00 0.78111281E+03</pdfrwt>
<totfact> 0.69641131E+00</totfact>
</mgrwt>
</event>
<event>
 4    2  0.3171963E-007  0.8463394E+03  0.7818608E-02  0.9618341E-01
          2   -1    0    0  501    0  0.00000000000E+00  0.00000000000E+00  0.30422871047E+04  0.30422871047E+04  0.25500000000E-02 0. -1.
         -2   -1    0    0    0  501 -0.00000000000E+00 -0.00000000000E+00 -0.76149976526E+03  0.76149976527E+03  0.25500000000E-02 0.  1.
    8880023    1    1    2    0    0  0.38935300698E+03  0.36177959968E+03  0.28720649921E+04  0.29941689611E+04  0.65864270000E+03 0. -1.
    8880022    1    1    2    0    0 -0.38935300698E+03 -0.36177959968E+03 -0.59127765264E+03  0.80961790884E+03  0.15294330000E+03 0.  0.
<mgrwt>
<rscale>  0 0.76094082E+03</rscale>
<asrwt>0</asrwt>
<pdfrwt beam="1">  1        2 0.46804417E+00 0.84633944E+03</pdfrwt>
<pdfrwt beam="2">  1       -2 0.11715381E+00 0.84633944E+03</pdfrwt>
<totfact> 0.96714421E-01</totfact>
</mgrwt>
</event>
<event>
 4    2  0.3171963E-007  0.6714915E+03  0.7818608E-02  0.1014615E+00
          2   -1    0    0  501    0  0.00000000000E+00  0.00000000000E+00  0.60009083303E+03  0.60009083304E+03  0.25500000000E-02 0. -1.
         -2   -1    0    0    0  501 -0.00000000000E+00 -0.00000000000E+00 -0.55011926132E+03  0.55011926132E+03  0.25500000000E-02 0.  1.
    8880023    1    1    2    0    0  0.13034200964E+03 -0.10081141267E+02  0.37413159706E+03  0.76868415300E+03  0.65864270000E+03 0.  0.
    8880022    1    1    2    0    0 -0.13034200964E+03  0.10081141267E+02 -0.32416002535E+03  0.38152594136E+03  0.15294330000E+03 0.  0.
<mgrwt>
<rscale>  0 0.49680800E+03</rscale>
<asrwt>0</asrwt>
<pdfrwt beam="1">  1        2 0.92321667E-01 0.67149153E+03</pdfrwt>
<pdfrwt beam="2">  1       -2 0.84633732E-01 0.67149153E+03</pdfrwt>
<totfact> 0.61408316E+01</totfact>
</mgrwt>
</event>
<event>
 4    2  0.3171963E-007  0.7502638E+03  0.7818608E-02  0.9830999E-01
         -2   -1    0    0    0  501 -0.00000000000E+00  0.00000000000E+00  0.21331880991E+03  0.21331880992E+03  0.25500000000E-02 0.  1.
          2   -1    0    0  501    0  0.00000000000E+00 -0.00000000000E+00 -0.37159933990E+04  0.37159933990E+04  0.25500000000E-02 0. -1.
    8880023    1    1    2    0    0 -0.13269268071E+03  0.33388355700E+03 -0.34554746710E+04  0.35359865646E+04  0.65864270000E+03 0. -1.
    8880022    1    1    2    0    0  0.13269268071E+03 -0.33388355700E+03 -0.47199918074E+02  0.39332564426E+03  0.15294330000E+03 0.  0.
<mgrwt>
<rscale>  0 0.63725188E+03</rscale>
<asrwt>0</asrwt>
<pdfrwt beam="1">  1        2 0.57169124E+00 0.75026381E+03</pdfrwt>
<pdfrwt beam="2">  1       -2 0.32818281E-01 0.75026381E+03</pdfrwt>
<totfact> 0.53691141E+00</totfact>
</mgrwt>
</event>
<event>
 4    2  0.3171963E-007  0.7055495E+03  0.7818608E-02  0.9974914E-01
          2   -1    0    0  501    0  0.00000000000E+00  0.00000000000E+00  0.41002679034E+03  0.41002679034E+03  0.25500000000E-02 0. -1.
         -2   -1    0    0    0  501 -0.00000000000E+00 -0.00000000000E+00 -0.84363660410E+03  0.84363660411E+03  0.25500000000E-02 0.  1.
    8880023    1    1    2    0    0 -0.22264970077E+03  0.12007092546E+03  0.27332050837E+02  0.70607872342E+03  0.65864270000E+03 0.  0.
    8880022    1    1    2    0    0  0.22264970077E+03 -0.12007092546E+03 -0.46094186460E+03  0.54758467104E+03  0.15294330000E+03 0. -1.
<mgrwt>
<rscale>  0 0.56764015E+03</rscale>
<asrwt>0</asrwt>
<pdfrwt beam="1">  1        2 0.63081045E-01 0.70554952E+03</pdfrwt>
<pdfrwt beam="2">  1       -2 0.12979025E+00 0.70554952E+03</pdfrwt>
<totfact> 0.34228956E+01</totfact>
</mgrwt>
</event>
<event>
 4    2  0.3171963E-007  0.6636713E+03  0.7818608E-02  0.1020675E+00
          2   -1    0    0  501    0  0.00000000000E+00  0.00000000000E+00  0.27845817101E+04  0.27845817101E+04  0.25500000000E-02 0. -1.
         -2   -1    0    0    0  501 -0.00000000000E+00 -0.00000000000E+00 -0.22979388206E+03  0.22979388207E+03  0.25500000000E-02 0.  1.
    8880023    1    1    2    0    0  0.49179994185E+01 -0.81395648912E+02  0.27048721473E+04  0.27851019690E+04  0.65864270000E+03 0. -1.
    8880022    1    1    2    0    0 -0.49179994185E+01  0.81395648912E+02 -0.15008431924E+03  0.22927362316E+03  0.15294330000E+03 0.  0.
<mgrwt>
<rscale>  0 0.47443777E+03</rscale>
<asrwt>0</asrwt>
<pdfrwt beam="1">  1        2 0.42839718E+00 0.66367134E+03</pdfrwt>
<pdfrwt beam="2">  1       -2 0.35352906E-01 0.66367134E+03</pdfrwt>
<totfact> 0.18983789E+01</totfact>
</mgrwt>
</event>
<event>
 4    2  0.3171963E-007  0.8111158E+03  0.7818608E-02  0.9687257E-01
         -2   -1    0    0    0  501 -0.00000000000E+00  0.00000000000E+00  0.29269723674E+03  0.29269723675E+03  0.25500000000E-02 0.  1.
          2   -1    0    0  501    0  0.00000000000E+00 -0.00000000000E+00 -0.24427308715E+04  0.24427308715E+04  0.25500000000E-02 0. -1.
    8880023    1    1    2    0    0 -0.16595076738E+03  0.44334979382E+03 -0.20806081301E+04  0.22331231704E+04  0.65864270000E+03 0. -1.
    8880022    1    1    2    0    0  0.16595076738E+03 -0.44334979382E+03 -0.69425504657E+02  0.50230493784E+03  0.15294330000E+03 0.  0.
<mgrwt>
<rscale>  0 0.71780577E+03</rscale>
<asrwt>0</asrwt>
<pdfrwt beam="1">  1        2 0.37580473E+00 0.81111584E+03</pdfrwt>
<pdfrwt beam="2">  1       -2 0.45030346E-01 0.81111584E+03</pdfrwt>
<totfact> 0.18193308E+01</totfact>
</mgrwt>
</event>
<event>
 4    2  0.3171963E-007  0.9779485E+03  0.7818608E-02  0.9410994E-01
         -2   -1    0    0    0  501 -0.00000000000E+00  0.00000000000E+00  0.62086003850E+03  0.62086003850E+03  0.25500000000E-02 0.  1.
          2   -1    0    0  501    0  0.00000000000E+00 -0.00000000000E+00 -0.22827431961E+04  0.22827431961E+04  0.25500000000E-02 0. -1.
    8880023    1    1    2    0    0 -0.51765962559E+03 -0.50458062500E+03 -0.18919200036E+04  0.21297287624E+04  0.65864270000E+03 0.  0.
    8880022    1    1    2    0    0  0.51765962559E+03  0.50458062500E+03  0.23003684606E+03  0.77387447215E+03  0.15294330000E+03 0.  0.
<mgrwt>
<rscale>  0 0.91176427E+03</rscale>
<asrwt>0</asrwt>
<pdfrwt beam="1">  1        2 0.35119126E+00 0.97794852E+03</pdfrwt>
<pdfrwt beam="2">  1       -2 0.95516930E-01 0.97794852E+03</pdfrwt>
<totfact> 0.43013448E+00</totfact>
</mgrwt>
</event>
<event>
 4    2  0.8144486E-007  0.7819062E+03  0.7818608E-02  0.9751378E-01
          2   -1    0    0  501    0  0.00000000000E+00  0.00000000000E+00  0.25588883115E+04  0.25588883115E+04  0.25500000000E-02 0. -1.
         -2   -1    0    0    0  501 -0.00000000000E+00 -0.00000000000E+00 -0.12521457957E+04  0.12521457957E+04  0.25500000000E-02 0.  1.
    8880023    1    1    2    0    0  0.39795598378E+03 -0.13855723160E+03  0.24559886563E+04  0.25774517566E+04  0.65864270000E+03 0. -1.
    8880022    1    1    2    0    0 -0.39795598378E+03  0.13855723160E+03 -0.11492461404E+04  0.12335823506E+04  0.15294330000E+03 0.  0.
<mgrwt>
<rscale>  0 0.68038439E+03</rscale>
<asrwt>0</asrwt>
<pdfrwt beam="1">  1        2 0.39367512E+00 0.78190618E+03</pdfrwt>
<pdfrwt beam="2">  1       -2 0.19263781E+00 0.78190618E+03</pdfrwt>
<totfact> 0.50334423E-01</totfact>
</mgrwt>
</event>
<event>
 4    2  0.3171963E-007  0.7214761E+03  0.7818608E-02  0.9917623E-01
          2   -1    0    0  501    0  0.00000000000E+00  0.00000000000E+00  0.14196983736E+04  0.14196983736E+04  0.25500000000E-02 0. -1.
         -2   -1    0    0    0  501 -0.00000000000E+00 -0.00000000000E+00 -0.55832969555E+03  0.55832969556E+03  0.25500000000E-02 0.  1.
    8880023    1    1    2    0    0 -0.10992877101E+03 -0.27319088720E+03  0.12645290837E+04  0.14558714247E+04  0.65864270000E+03 0. -1.
    8880022    1    1    2    0    0  0.10992877101E+03  0.27319088720E+03 -0.40316040570E+03  0.52215664439E+03  0.15294330000E+03 0.  0.
<mgrwt>
<rscale>  0 0.59414774E+03</rscale>
<asrwt>0</asrwt>
<pdfrwt beam="1">  1        2 0.21841513E+00 0.72147613E+03</pdfrwt>
<pdfrwt beam="2">  1       -2 0.85896878E-01 0.72147613E+03</pdfrwt>
<totfact> 0.17024486E+01</totfact>
</mgrwt>
</event>
<event>
 4    2  0.3171963E-007  0.8478791E+03  0.7818608E-02  0.9615499E-01
          2   -1    0    0  501    0  0.00000000000E+00  0.00000000000E+00  0.99259622682E+03  0.99259622683E+03  0.25500000000E-02 0. -1.
         -2   -1    0    0    0  501 -0.00000000000E+00 -0.00000000000E+00 -0.53732195351E+03  0.53732195351E+03  0.25500000000E-02 0.  1.
    8880023    1    1    2    0    0  0.38206072791E+03  0.37298583983E+03  0.47932513599E+03  0.97398748903E+03  0.65864270000E+03 0. -1.
    8880022    1    1    2    0    0 -0.38206072791E+03 -0.37298583983E+03 -0.24050862679E+02  0.55593069131E+03  0.15294330000E+03 0.  0.
<mgrwt>
<rscale>  0 0.76278813E+03</rscale>
<asrwt>0</asrwt>
<pdfrwt beam="1">  1        2 0.15270711E+00 0.84787914E+03</pdfrwt>
<pdfrwt beam="2">  1       -2 0.82664917E-01 0.84787914E+03</pdfrwt>
<totfact> 0.32924778E+01</totfact>
</mgrwt>
</event>
<event>
 4    2  0.3171963E-007  0.6893719E+03  0.7818608E-02  0.1004453E+00
          2   -1    0    0  501    0  0.00000000000E+00  0.00000000000E+00  0.12282903508E+04  0.12282903508E+04  0.25500000000E-02 0. -1.
         -2   -1    0    0    0  501 -0.00000000000E+00 -0.00000000000E+00 -0.37815228655E+03  0.37815228656E+03  0.25500000000E-02 0.  1.
    8880023    1    1    2    0    0 -0.90311408346E+02  0.18239327616E+03  0.10681330090E+04  0.12712756542E+04  0.65864270000E+03 0. -1.
    8880022    1    1    2    0    0  0.90311408346E+02 -0.18239327616E+03 -0.21799494476E+03  0.33516698320E+03  0.15294330000E+03 0.  0.
<mgrwt>
<rscale>  0 0.53740256E+03</rscale>
<asrwt>0</asrwt>
<pdfrwt beam="1">  1        2 0.18896775E+00 0.68937193E+03</pdfrwt>
<pdfrwt beam="2">  1       -2 0.58177274E-01 0.68937193E+03</pdfrwt>
<totfact> 0.51575430E+01</totfact>
</mgrwt>
</event>
<event>
 4    2  0.3171963E-007  0.9259074E+03  0.7818608E-02  0.9485660E-01
          2   -1    0    0  501    0  0.00000000000E+00  0.00000000000E+00  0.15451455424E+04  0.15451455424E+04  0.25500000000E-02 0. -1.
         -2   -1    0    0    0  501 -0.00000000000E+00 -0.00000000000E+00 -0.74847422224E+03  0.74847422225E+03  0.25500000000E-02 0.  1.
    8880023    1    1    2    0    0 -0.64346054966E+03 -0.97225214754E+02  0.11978504650E+04  0.15139848626E+04  0.65864270000E+03 0. -1.
    8880022    1    1    2    0    0  0.64346054966E+03  0.97225214754E+02 -0.40117914480E+03  0.77963490211E+03  0.15294330000E+03 0.  0.
<mgrwt>
<rscale>  0 0.85349352E+03</rscale>
<asrwt>0</asrwt>
<pdfrwt beam="1">  1        2 0.23771470E+00 0.92590735E+03</pdfrwt>
<pdfrwt beam="2">  1       -2 0.11514988E+00 0.92590735E+03</pdfrwt>
<totfact> 0.70566521E+00</totfact>
</mgrwt>
</event>
<event>
 4    2  0.3171963E-007  0.7529539E+03  0.7818608E-02  0.9823703E-01
         -2   -1    0    0    0  501 -0.00000000000E+00  0.00000000000E+00  0.51345649490E+03  0.51345649491E+03  0.25500000000E-02 0.  1.
          2   -1    0    0  501    0  0.00000000000E+00 -0.00000000000E+00 -0.10285425311E+04  0.10285425311E+04  0.25500000000E-02 0. -1.
    8880023    1    1    2    0    0 -0.21201411308E+03  0.29695025028E+03 -0.76552816258E+03  0.10737658075E+04  0.65864270000E+03 0.  0.
    8880022    1    1    2    0    0  0.21201411308E+03 -0.29695025028E+03  0.25044212638E+03  0.46823321856E+03  0.15294330000E+03 0.  0.
<mgrwt>
<rscale>  0 0.64105887E+03</rscale>
<asrwt>0</asrwt>
<pdfrwt beam="1">  1        2 0.15823731E+00 0.75295394E+03</pdfrwt>
<pdfrwt beam="2">  1       -2 0.78993307E-01 0.75295394E+03</pdfrwt>
<totfact> 0.34899102E+01</totfact>
</mgrwt>
</event>
<event>
 4    2  0.3171963E-007  0.7498621E+03  0.7818608E-02  0.9832098E-01
          2   -1    0    0  501    0  0.00000000000E+00  0.00000000000E+00  0.51536476732E+03  0.51536476733E+03  0.25500000000E-02 0. -1.
         -2   -1    0    0    0  501 -0.00000000000E+00 -0.00000000000E+00 -0.13697852454E+04  0.13697852454E+04  0.25500000000E-02 0.  1.
    8880023    1    1    2    0    0  0.24556576652E+03 -0.26111387249E+03  0.18731668565E+03  0.77290409954E+03  0.65864270000E+03 0. -1.
    8880022    1    1    2    0    0 -0.24556576652E+03  0.26111387249E+03 -0.10417371638E+04  0.11122459132E+04  0.15294330000E+03 0.  0.
<mgrwt>
<rscale>  0 0.63668076E+03</rscale>
<asrwt>0</asrwt>
<pdfrwt beam="1">  1        2 0.79286888E-01 0.74986212E+03</pdfrwt>
<pdfrwt beam="2">  1       -2 0.21073619E+00 0.74986212E+03</pdfrwt>
<totfact> 0.68759387E+00</totfact>
</mgrwt>
</event>
<event>
 4    2  0.3171963E-007  0.8644353E+03  0.7818608E-02  0.9585722E-01
          2   -1    0    0  501    0  0.00000000000E+00  0.00000000000E+00  0.18821390335E+04  0.18821390335E+04  0.25500000000E-02 0. -1.
         -2   -1    0    0    0  501 -0.00000000000E+00 -0.00000000000E+00 -0.34516588143E+03  0.34516588144E+03  0.25500000000E-02 0.  1.
    8880023    1    1    2    0    0  0.35983971446E+03 -0.42889797753E+03  0.13760420651E+04  0.16250354047E+04  0.65864270000E+03 0. -1.
    8880022    1    1    2    0    0 -0.35983971446E+03  0.42889797753E+03  0.16093108697E+03  0.60226951027E+03  0.15294330000E+03 0. -1.
<mgrwt>
<rscale>  0 0.78248434E+03</rscale>
<asrwt>0</asrwt>
<pdfrwt beam="1">  1        2 0.28955985E+00 0.86443525E+03</pdfrwt>
<pdfrwt beam="2">  1       -2 0.53102444E-01 0.86443525E+03</pdfrwt>
<totfact> 0.26408049E+01</totfact>
</mgrwt>
</event>
<event>
 4    2  0.3171963E-007  0.7259625E+03  0.7818608E-02  0.9902904E-01
         -2   -1    0    0    0  501 -0.00000000000E+00  0.00000000000E+00  0.27725530559E+03  0.27725530560E+03  0.25500000000E-02 0.  1.
          2   -1    0    0  501    0  0.00000000000E+00 -0.00000000000E+00 -0.13647891863E+04  0.13647891863E+04  0.25500000000E-02 0. -1.
    8880023    1    1    2    0    0 -0.25703732419E+03  0.16475182142E+03 -0.10789758250E+04  0.13004654497E+04  0.65864270000E+03 0.  0.
    8880022    1    1    2    0    0  0.25703732419E+03 -0.16475182142E+03 -0.85580556363E+01  0.34157904212E+03  0.15294330000E+03 0.  0.
<mgrwt>
<rscale>  0 0.60120746E+03</rscale>
<asrwt>0</asrwt>
<pdfrwt beam="1">  1        2 0.20996756E+00 0.72596250E+03</pdfrwt>
<pdfrwt beam="2">  1       -2 0.42654663E-01 0.72596250E+03</pdfrwt>
<totfact> 0.80582755E+01</totfact>
</mgrwt>
</event>
<event>
 4    2  0.3171963E-007  0.9006666E+03  0.7818608E-02  0.9524962E-01
         -2   -1    0    0    0  501 -0.00000000000E+00  0.00000000000E+00  0.61951180079E+03  0.61951180080E+03  0.25500000000E-02 0.  1.
          2   -1    0    0  501    0  0.00000000000E+00 -0.00000000000E+00 -0.21927827125E+04  0.21927827125E+04  0.25500000000E-02 0. -1.
    8880023    1    1    2    0    0 -0.88559988589E+02 -0.60790399612E+03  0.20585337293E+03  0.92389174554E+03  0.65864270000E+03 0.  0.
    8880022    1    1    2    0    0  0.88559988589E+02  0.60790399612E+03 -0.17791242847E+04  0.18884027678E+04  0.15294330000E+03 0.  0.
<mgrwt>
<rscale>  0 0.82468206E+03</rscale>
<asrwt>0</asrwt>
<pdfrwt beam="1">  1        2 0.33735118E+00 0.90066661E+03</pdfrwt>
<pdfrwt beam="2">  1       -2 0.95309509E-01 0.90066661E+03</pdfrwt>
<totfact> 0.49031539E+00</totfact>
</mgrwt>
</event>
<event>
 4    2  0.3171963E-007  0.7493053E+03  0.7818608E-02  0.9833626E-01
         -2   -1    0    0    0  501 -0.00000000000E+00  0.00000000000E+00  0.31511009788E+03  0.31511009790E+03  0.25500000000E-02 0.  1.
          2   -1    0    0  501    0  0.00000000000E+00 -0.00000000000E+00 -0.12054871954E+04  0.12054871954E+04  0.25500000000E-02 0. -1.
    8880023    1    1    2    0    0  0.28567496008E+03  0.21456465056E+03 -0.84491415675E+03  0.11293087756E+04  0.65864270000E+03 0. -1.
    8880022    1    1    2    0    0 -0.28567496008E+03 -0.21456465056E+03 -0.45462940757E+02  0.39128851770E+03  0.15294330000E+03 0.  0.
<mgrwt>
<rscale>  0 0.63588784E+03</rscale>
<asrwt>0</asrwt>
<pdfrwt beam="1">  1        2 0.18545957E+00 0.74930526E+03</pdfrwt>
<pdfrwt beam="2">  1       -2 0.48478477E-01 0.74930526E+03</pdfrwt>
<totfact> 0.77002874E+01</totfact>
</mgrwt>
</event>
<event>
 4    2  0.3171963E-007  0.1493981E+04  0.7818608E-02  0.8913898E-01
         -2   -1    0    0    0  501 -0.00000000000E+00  0.00000000000E+00  0.10715977176E+04  0.10715977176E+04  0.25500000000E-02 0.  1.
          2   -1    0    0  501    0  0.00000000000E+00 -0.00000000000E+00 -0.41018764442E+04  0.41018764442E+04  0.25500000000E-02 0. -1.
    8880023    1    1    2    0    0 -0.13184250231E+04 -0.24479544643E+03  0.34938082235E+03  0.15342902325E+04  0.65864270000E+03 0.  0.
    8880022    1    1    2    0    0  0.13184250231E+04  0.24479544643E+03 -0.33796595489E+04  0.36391839294E+04  0.15294330000E+03 0.  0.
<mgrwt>
<rscale>  0 0.14565128E+04</rscale>
<asrwt>0</asrwt>
<pdfrwt beam="1">  1        2 0.63105791E+00 0.14939811E+04</pdfrwt>
<pdfrwt beam="2">  1       -2 0.16486119E+00 0.14939811E+04</pdfrwt>
<totfact> 0.62940773E-02</totfact>
</mgrwt>
</event>
<event>
 4    2  0.3171963E-007  0.6821767E+03  0.7818608E-02  0.1008118E+00
         -2   -1    0    0    0  501 -0.00000000000E+00  0.00000000000E+00  0.15751069409E+03  0.15751069411E+03  0.25500000000E-02 0.  1.
          2   -1    0    0  501    0  0.00000000000E+00 -0.00000000000E+00 -0.19574437153E+04  0.19574437153E+04  0.25500000000E-02 0. -1.
    8880023    1    1    2    0    0 -0.12641525774E+03  0.12479589750E+03 -0.17458420193E+04  0.18743877390E+04  0.65864270000E+03 0.  0.
    8880022    1    1    2    0    0  0.12641525774E+03 -0.12479589750E+03 -0.54091001916E+02  0.24056667044E+03  0.15294330000E+03 0.  0.
<mgrwt>
<rscale>  0 0.52229413E+03</rscale>
<asrwt>0</asrwt>
<pdfrwt beam="1">  1        2 0.30114517E+00 0.68217669E+03</pdfrwt>
<pdfrwt beam="2">  1       -2 0.24232416E-01 0.68217669E+03</pdfrwt>
<totfact> 0.11047217E+02</totfact>
</mgrwt>
</event>
<event>
 4    2  0.3171963E-007  0.7140969E+03  0.7818608E-02  0.9943091E-01
          2   -1    0    0  501    0  0.00000000000E+00  0.00000000000E+00  0.34242459152E+03  0.34242459153E+03  0.25500000000E-02 0. -1.
         -2   -1    0    0    0  501 -0.00000000000E+00 -0.00000000000E+00 -0.98290784978E+03  0.98290784979E+03  0.25500000000E-02 0.  1.
    8880023    1    1    2    0    0  0.22886465173E+03  0.15409442406E+03 -0.13088235436E+03  0.72599209175E+03  0.65864270000E+03 0. -1.
    8880022    1    1    2    0    0 -0.22886465173E+03 -0.15409442406E+03 -0.50960090391E+03  0.59934034956E+03  0.15294330000E+03 0.  1.
<mgrwt>
<rscale>  0 0.58217605E+03</rscale>
<asrwt>0</asrwt>
<pdfrwt beam="1">  1        2 0.52680707E-01 0.71409686E+03</pdfrwt>
<pdfrwt beam="2">  1       -2 0.15121659E+00 0.71409686E+03</pdfrwt>
<totfact> 0.28192284E+01</totfact>
</mgrwt>
</event>
<event>
 4    2  0.3171963E-007  0.6882607E+03  0.7818608E-02  0.1004990E+00
         -2   -1    0    0    0  501 -0.00000000000E+00  0.00000000000E+00  0.14211928223E+03  0.14211928225E+03  0.25500000000E-02 0.  1.
          2   -1    0    0  501    0  0.00000000000E+00 -0.00000000000E+00 -0.27109594874E+04  0.27109594874E+04  0.25500000000E-02 0. -1.
    8880023    1    1    2    0    0  0.19971156071E+03 -0.28012126822E+01 -0.24989343165E+04  0.25919829241E+04  0.65864270000E+03 0. -1.
    8880022    1    1    2    0    0 -0.19971156071E+03  0.28012126822E+01 -0.69905888638E+02  0.26109584554E+03  0.15294330000E+03 0.  0.
<mgrwt>
<rscale>  0 0.53515136E+03</rscale>
<asrwt>0</asrwt>
<pdfrwt beam="1">  1        2 0.41707065E+00 0.68826068E+03</pdfrwt>
<pdfrwt beam="2">  1       -2 0.21864507E-01 0.68826068E+03</pdfrwt>
<totfact> 0.50353162E+01</totfact>
</mgrwt>
</event>
<event>
 4    2  0.3171963E-007  0.6825939E+03  0.7818608E-02  0.1007893E+00
          2   -1    0    0  501    0  0.00000000000E+00  0.00000000000E+00  0.23607756317E+04  0.23607756317E+04  0.25500000000E-02 0. -1.
         -2   -1    0    0    0  501 -0.00000000000E+00 -0.00000000000E+00 -0.13328437329E+03  0.13328437332E+03  0.25500000000E-02 0.  1.
    8880023    1    1    2    0    0 -0.57290581277E+02  0.16982952264E+03  0.21341028495E+04  0.22406091708E+04  0.65864270000E+03 0. -1.
    8880022    1    1    2    0    0  0.57290581277E+02 -0.16982952264E+03  0.93388408887E+02  0.25345083427E+03  0.15294330000E+03 0.  0.
<mgrwt>
<rscale>  0 0.52320757E+03</rscale>
<asrwt>0</asrwt>
<pdfrwt beam="1">  1        2 0.36319625E+00 0.68259394E+03</pdfrwt>
<pdfrwt beam="2">  1       -2 0.20505288E-01 0.68259394E+03</pdfrwt>
<totfact> 0.89220569E+01</totfact>
</mgrwt>
</event>
<event>
 4    2  0.3171963E-007  0.6983238E+03  0.7818608E-02  0.1000423E+00
         -2   -1    0    0    0  501 -0.00000000000E+00  0.00000000000E+00  0.37303354076E+03  0.37303354077E+03  0.25500000000E-02 0.  1.
          2   -1    0    0  501    0  0.00000000000E+00 -0.00000000000E+00 -0.95597368518E+03  0.95597368519E+03  0.25500000000E-02 0. -1.
    8880023    1    1    2    0    0 -0.23189784664E+03  0.83248232556E+01 -0.73364205099E+03  0.10128606909E+04  0.65864270000E+03 0. -1.
    8880022    1    1    2    0    0  0.23189784664E+03 -0.83248232556E+01  0.15070190657E+03  0.31614653503E+03  0.15294330000E+03 0.  0.
<mgrwt>
<rscale>  0 0.55465279E+03</rscale>
<asrwt>0</asrwt>
<pdfrwt beam="1">  1        2 0.14707287E+00 0.69832379E+03</pdfrwt>
<pdfrwt beam="2">  1       -2 0.57389776E-01 0.69832379E+03</pdfrwt>
<totfact> 0.77926828E+01</totfact>
</mgrwt>
</event>
<event>
 4    2  0.3171963E-007  0.9409753E+03  0.7818608E-02  0.9463219E-01
          2   -1    0    0  501    0  0.00000000000E+00  0.00000000000E+00  0.27159321531E+04  0.27159321531E+04  0.25500000000E-02 0. -1.
         -2   -1    0    0    0  501 -0.00000000000E+00 -0.00000000000E+00 -0.35322294502E+03  0.35322294503E+03  0.25500000000E-02 0.  1.
    8880023    1    1    2    0    0 -0.91853326048E+02 -0.66572305992E+03  0.21515507563E+04  0.23483196309E+04  0.65864270000E+03 0.  0.
    8880022    1    1    2    0    0  0.91853326048E+02  0.66572305992E+03  0.21115845185E+03  0.72083546723E+03  0.15294330000E+03 0.  1.
<mgrwt>
<rscale>  0 0.87050680E+03</rscale>
<asrwt>0</asrwt>
<pdfrwt beam="1">  1        2 0.41783571E+00 0.94097526E+03</pdfrwt>
<pdfrwt beam="2">  1       -2 0.54341992E-01 0.94097526E+03</pdfrwt>
<totfact> 0.84845283E+00</totfact>
</mgrwt>
</event>
<event>
 4    2  0.3171963E-007  0.8955245E+03  0.7818608E-02  0.9533255E-01
          2   -1    0    0  501    0  0.00000000000E+00  0.00000000000E+00  0.57529893334E+03  0.57529893335E+03  0.25500000000E-02 0. -1.
         -2   -1    0    0    0  501 -0.00000000000E+00 -0.00000000000E+00 -0.23477677653E+04  0.23477677653E+04  0.25500000000E-02 0.  1.
    8880023    1    1    2    0    0  0.83989527240E+02  0.60091566171E+03  0.14400292578E+03  0.90702862252E+03  0.65864270000E+03 0. -1.
    8880022    1    1    2    0    0 -0.83989527240E+02 -0.60091566171E+03 -0.19164717577E+04  0.20160380761E+04  0.15294330000E+03 0.  0.
<mgrwt>
<rscale>  0 0.81875860E+03</rscale>
<asrwt>0</asrwt>
<pdfrwt beam="1">  1        2 0.88507529E-01 0.89552447E+03</pdfrwt>
<pdfrwt beam="2">  1       -2 0.36119504E+00 0.89552447E+03</pdfrwt>
<totfact> 0.71088599E-01</totfact>
</mgrwt>
</event>
<event>
 4    2  0.3171963E-007  0.1078258E+04  0.7818608E-02  0.9285658E-01
          2   -1    0    0  501    0  0.00000000000E+00  0.00000000000E+00  0.16544240456E+04  0.16544240456E+04  0.25500000000E-02 0. -1.
         -2   -1    0    0    0  501 -0.00000000000E+00 -0.00000000000E+00 -0.14654776736E+04  0.14654776736E+04  0.25500000000E-02 0.  1.
    8880023    1    1    2    0    0  0.26619477722E+03  0.81115437233E+03  0.13137277364E+04  0.16995651935E+04  0.65864270000E+03 0. -1.
    8880022    1    1    2    0    0 -0.26619477722E+03 -0.81115437233E+03 -0.11247813644E+04  0.14203365256E+04  0.15294330000E+03 0.  0.
<mgrwt>
<rscale>  0 0.10211404E+04</rscale>
<asrwt>0</asrwt>
<pdfrwt beam="1">  1        2 0.25452678E+00 0.10782584E+04</pdfrwt>
<pdfrwt beam="2">  1       -2 0.22545810E+00 0.10782584E+04</pdfrwt>
<totfact> 0.93577008E-01</totfact>
</mgrwt>
</event>
<event>
 4    2  0.3171963E-007  0.8440969E+03  0.7818608E-02  0.9622503E-01
         -2   -1    0    0    0  501 -0.00000000000E+00  0.00000000000E+00  0.51209631983E+03  0.51209631984E+03  0.25500000000E-02 0.  1.
          2   -1    0    0  501    0  0.00000000000E+00 -0.00000000000E+00 -0.16914040449E+04  0.16914040449E+04  0.25500000000E-02 0. -1.
    8880023    1    1    2    0    0  0.20284817864E+03  0.48738276506E+03 -0.13805875015E+04  0.16181845998E+04  0.65864270000E+03 0.  0.
    8880022    1    1    2    0    0 -0.20284817864E+03 -0.48738276506E+03  0.20127977649E+03  0.58531576495E+03  0.15294330000E+03 0.  1.
<mgrwt>
<rscale>  0 0.75824516E+03</rscale>
<asrwt>0</asrwt>
<pdfrwt beam="1">  1        2 0.26021600E+00 0.84409688E+03</pdfrwt>
<pdfrwt beam="2">  1       -2 0.78784050E-01 0.84409688E+03</pdfrwt>
<totfact> 0.14411259E+01</totfact>
</mgrwt>
</event>
<event>
 4    2  0.3171963E-007  0.9124782E+03  0.7818608E-02  0.9506290E-01
          2   -1    0    0  501    0  0.00000000000E+00  0.00000000000E+00  0.10449645491E+04  0.10449645491E+04  0.25500000000E-02 0. -1.
         -2   -1    0    0    0  501 -0.00000000000E+00 -0.00000000000E+00 -0.16732542022E+04  0.16732542022E+04  0.25500000000E-02 0.  1.
    8880023    1    1    2    0    0  0.59756672647E+02 -0.62867752246E+03  0.75862190270E+03  0.11866438744E+04  0.65864270000E+03 0. -1.
    8880022    1    1    2    0    0 -0.59756672647E+02  0.62867752246E+03 -0.13869115558E+04  0.15315748770E+04  0.15294330000E+03 0.  0.
<mgrwt>
<rscale>  0 0.83821686E+03</rscale>
<asrwt>0</asrwt>
<pdfrwt beam="1">  1        2 0.16076378E+00 0.91247822E+03</pdfrwt>
<pdfrwt beam="2">  1       -2 0.25742372E+00 0.91247822E+03</pdfrwt>
<totfact> 0.13776649E+00</totfact>
</mgrwt>
</event>
<event>
 4    2  0.3171963E-007  0.6902540E+03  0.7818608E-02  0.1004032E+00
          2   -1    0    0  501    0  0.00000000000E+00  0.00000000000E+00  0.95513513310E+03  0.95513513310E+03  0.25500000000E-02 0. -1.
         -2   -1    0    0    0  501 -0.00000000000E+00 -0.00000000000E+00 -0.26754229346E+03  0.26754229347E+03  0.25500000000E-02 0.  1.
    8880023    1    1    2    0    0 -0.20034079471E+03 -0.50039892565E+02  0.67494052316E+03  0.96539905787E+03  0.65864270000E+03 0.  0.
    8880022    1    1    2    0    0  0.20034079471E+03  0.50039892565E+02  0.12652316476E+02  0.25727836870E+03  0.15294330000E+03 0.  0.
<mgrwt>
<rscale>  0 0.53917045E+03</rscale>
<asrwt>0</asrwt>
<pdfrwt beam="1">  1        2 0.14694387E+00 0.69025403E+03</pdfrwt>
<pdfrwt beam="2">  1       -2 0.41160352E-01 0.69025403E+03</pdfrwt>
<totfact> 0.15292965E+02</totfact>
</mgrwt>
</event>
<event>
 4    2  0.3171963E-007  0.7804088E+03  0.7818608E-02  0.9754878E-01
         -2   -1    0    0    0  501 -0.00000000000E+00  0.00000000000E+00  0.53306642099E+03  0.53306642100E+03  0.25500000000E-02 0.  1.
          2   -1    0    0  501    0  0.00000000000E+00 -0.00000000000E+00 -0.18719657141E+04  0.18719657141E+04  0.25500000000E-02 0. -1.
    8880023    1    1    2    0    0 -0.24339166271E+03 -0.34057045747E+03 -0.16743072245E+04  0.18472527240E+04  0.65864270000E+03 0.  0.
    8880022    1    1    2    0    0  0.24339166271E+03  0.34057045747E+03  0.33540793141E+03  0.55777941110E+03  0.15294330000E+03 0.  0.
<mgrwt>
<rscale>  0 0.67841327E+03</rscale>
<asrwt>0</asrwt>
<pdfrwt beam="1">  1        2 0.28799472E+00 0.78040883E+03</pdfrwt>
<pdfrwt beam="2">  1       -2 0.82010220E-01 0.78040883E+03</pdfrwt>
<totfact> 0.10573001E+01</totfact>
</mgrwt>
</event>
<event>
 4    2  0.3171963E-007  0.1266555E+04  0.7818608E-02  0.9094994E-01
         -2   -1    0    0    0  501 -0.00000000000E+00  0.00000000000E+00  0.72993822641E+03  0.72993822641E+03  0.25500000000E-02 0.  1.
          2   -1    0    0  501    0  0.00000000000E+00 -0.00000000000E+00 -0.21438944165E+04  0.21438944165E+04  0.25500000000E-02 0. -1.
    8880023    1    1    2    0    0  0.10433939760E+04  0.28579557519E+03 -0.27600434488E+03  0.12962787912E+04  0.65864270000E+03 0.  0.
    8880022    1    1    2    0    0 -0.10433939760E+04 -0.28579557519E+03 -0.11379518452E+04  0.15775538517E+04  0.15294330000E+03 0.  0.
<mgrwt>
<rscale>  0 0.12206235E+04</rscale>
<asrwt>0</asrwt>
<pdfrwt beam="1">  1        2 0.32982991E+00 0.12665545E+04</pdfrwt>
<pdfrwt beam="2">  1       -2 0.11229819E+00 0.12665545E+04</pdfrwt>
<totfact> 0.33703808E+00</totfact>
</mgrwt>
</event>
<event>
 4    2  0.3171963E-007  0.1137149E+04  0.7818608E-02  0.9220780E-01
          2   -1    0    0  501    0  0.00000000000E+00  0.00000000000E+00  0.12406934024E+04  0.12406934025E+04  0.25500000000E-02 0. -1.
         -2   -1    0    0    0  501 -0.00000000000E+00 -0.00000000000E+00 -0.16150946531E+04  0.16150946531E+04  0.25500000000E-02 0.  1.
    8880023    1    1    2    0    0  0.65076383761E+03  0.66015533247E+03  0.77135738592E+03  0.13740818965E+04  0.65864270000E+03 0. -1.
    8880022    1    1    2    0    0 -0.65076383761E+03 -0.66015533247E+03 -0.11457586366E+04  0.14817061590E+04  0.15294330000E+03 0.  0.
<mgrwt>
<rscale>  0 0.10841496E+04</rscale>
<asrwt>0</asrwt>
<pdfrwt beam="1">  1        2 0.19087591E+00 0.11371494E+04</pdfrwt>
<pdfrwt beam="2">  1       -2 0.24847610E+00 0.11371494E+04</pdfrwt>
<totfact> 0.11521867E+00</totfact>
</mgrwt>
</event>
<event>
 4    2  0.3171963E-007  0.6701454E+03  0.7818608E-02  0.1015559E+00
         -2   -1    0    0    0  501 -0.00000000000E+00  0.00000000000E+00  0.43952975695E+03  0.43952975696E+03  0.25500000000E-02 0.  1.
          2   -1    0    0  501    0  0.00000000000E+00 -0.00000000000E+00 -0.43228677966E+03  0.43228677967E+03  0.25500000000E-02 0. -1.
    8880023    1    1    2    0    0 -0.17750827680E+02 -0.12235012707E+03  0.44636032729E+02  0.67163027564E+03  0.65864270000E+03 0.  1.
    8880022    1    1    2    0    0  0.17750827680E+02  0.12235012707E+03 -0.37393055443E+02  0.20018626099E+03  0.15294330000E+03 0. -1.
<mgrwt>
<rscale>  0 0.49323898E+03</rscale>
<asrwt>0</asrwt>
<pdfrwt beam="1">  1        2 0.66505658E-01 0.67014540E+03</pdfrwt>
<pdfrwt beam="2">  1       -2 0.67619963E-01 0.67014540E+03</pdfrwt>
<totfact> 0.14795969E+02</totfact>
</mgrwt>
</event>
<event>
 4    2  0.3171963E-007  0.7861191E+03  0.7818608E-02  0.9741655E-01
          2   -1    0    0  501    0  0.00000000000E+00  0.00000000000E+00  0.11343153868E+04  0.11343153868E+04  0.25500000000E-02 0. -1.
         -2   -1    0    0    0  501 -0.00000000000E+00 -0.00000000000E+00 -0.11074325368E+04  0.11074325368E+04  0.25500000000E-02 0.  1.
    8880023    1    1    2    0    0 -0.19271688033E+03 -0.38344916797E+03  0.93752742261E+03  0.12234953759E+04  0.65864270000E+03 0. -1.
    8880022    1    1    2    0    0  0.19271688033E+03  0.38344916797E+03 -0.91064457260E+03  0.10182525477E+04  0.15294330000E+03 0.  0.
<mgrwt>
<rscale>  0 0.68589946E+03</rscale>
<asrwt>0</asrwt>
<pdfrwt beam="1">  1        2 0.17451006E+00 0.78611912E+03</pdfrwt>
<pdfrwt beam="2">  1       -2 0.17037424E+00 0.78611912E+03</pdfrwt>
<totfact> 0.44709976E+00</totfact>
</mgrwt>
</event>
<event>
 4    2  0.3171963E-007  0.6892011E+03  0.7818608E-02  0.1004535E+00
          2   -1    0    0  501    0  0.00000000000E+00  0.00000000000E+00  0.91219694809E+03  0.91219694809E+03  0.25500000000E-02 0. -1.
         -2   -1    0    0    0  501 -0.00000000000E+00 -0.00000000000E+00 -0.37454036568E+03  0.37454036569E+03  0.25500000000E-02 0.  1.
    8880023    1    1    2    0    0 -0.15305617171E+03  0.13327328095E+03  0.70226431351E+03  0.98395799271E+03  0.65864270000E+03 0. -1.
    8880022    1    1    2    0    0  0.15305617171E+03 -0.13327328095E+03 -0.16460773111E+03  0.30277932107E+03  0.15294330000E+03 0.  0.
<mgrwt>
<rscale>  0 0.53705826E+03</rscale>
<asrwt>0</asrwt>
<pdfrwt beam="1">  1        2 0.14033799E+00 0.68920111E+03</pdfrwt>
<pdfrwt beam="2">  1       -2 0.57621595E-01 0.68920111E+03</pdfrwt>
<totfact> 0.82635440E+01</totfact>
</mgrwt>
</event>
<event>
 4    2  0.3223540E-007  0.9277057E+03  0.7818608E-02  0.9482944E-01
         -2   -1    0    0    0  501 -0.00000000000E+00  0.00000000000E+00  0.12439874488E+04  0.12439874488E+04  0.25500000000E-02 0.  1.
          2   -1    0    0  501    0  0.00000000000E+00 -0.00000000000E+00 -0.21180745189E+04  0.21180745189E+04  0.25500000000E-02 0. -1.
    8880023    1    1    2    0    0 -0.49951750223E+03  0.42108187802E+03 -0.19125577335E+04  0.21256798849E+04  0.65864270000E+03 0.  0.
    8880022    1    1    2    0    0  0.49951750223E+03 -0.42108187802E+03  0.10384706633E+04  0.12363820828E+04  0.15294330000E+03 0.  0.
<mgrwt>
<rscale>  0 0.85553088E+03</rscale>
<asrwt>0</asrwt>
<pdfrwt beam="1">  1        2 0.32585762E+00 0.92770571E+03</pdfrwt>
<pdfrwt beam="2">  1       -2 0.19138268E+00 0.92770571E+03</pdfrwt>
<totfact> 0.88103982E-01</totfact>
</mgrwt>
</event>
<event>
 4    2  0.3171963E-007  0.7740583E+03  0.7818608E-02  0.9769984E-01
         -2   -1    0    0    0  501 -0.00000000000E+00  0.00000000000E+00  0.40003005757E+03  0.40003005758E+03  0.25500000000E-02 0.  1.
          2   -1    0    0  501    0  0.00000000000E+00 -0.00000000000E+00 -0.11537378518E+04  0.11537378518E+04  0.25500000000E-02 0. -1.
    8880023    1    1    2    0    0  0.20801110910E+03 -0.34941011599E+03 -0.80442953130E+03  0.11163660366E+04  0.65864270000E+03 0. -1.
    8880022    1    1    2    0    0 -0.20801110910E+03  0.34941011599E+03  0.50721737067E+02  0.43740187276E+03  0.15294330000E+03 0.  0.
<mgrwt>
<rscale>  0 0.66998559E+03</rscale>
<asrwt>0</asrwt>
<pdfrwt beam="1">  1        2 0.17749813E+00 0.77405830E+03</pdfrwt>
<pdfrwt beam="2">  1       -2 0.61543086E-01 0.77405830E+03</pdfrwt>
<totfact> 0.50302636E+01</totfact>
</mgrwt>
</event>
<event>
 4    2  0.3171963E-007  0.6646992E+03  0.7818608E-02  0.1019787E+00
          2   -1    0    0  501    0  0.00000000000E+00  0.00000000000E+00  0.16316394117E+04  0.16316394117E+04  0.25500000000E-02 0. -1.
         -2   -1    0    0    0  501 -0.00000000000E+00 -0.00000000000E+00 -0.13738308605E+03  0.13738308608E+03  0.25500000000E-02 0.  1.
    8880023    1    1    2    0    0  0.22441383509E+02  0.86666890667E+02  0.14361612932E+04  0.15825246387E+04  0.65864270000E+03 0.  0.
    8880022    1    1    2    0    0 -0.22441383509E+02 -0.86666890667E+02  0.58095032390E+02  0.18649785906E+03  0.15294330000E+03 0.  0.
<mgrwt>
<rscale>  0 0.47763501E+03</rscale>
<asrwt>0</asrwt>
<pdfrwt beam="1">  1        2 0.25102145E+00 0.66469916E+03</pdfrwt>
<pdfrwt beam="2">  1       -2 0.21135859E-01 0.66469916E+03</pdfrwt>
<totfact> 0.21220529E+02</totfact>
</mgrwt>
</event>
<event>
 4    2  0.3171963E-007  0.7293753E+03  0.7818608E-02  0.9892053E-01
         -2   -1    0    0    0  501 -0.00000000000E+00  0.00000000000E+00  0.13937053522E+04  0.13937053522E+04  0.25500000000E-02 0.  1.
          2   -1    0    0  501    0  0.00000000000E+00 -0.00000000000E+00 -0.25638006013E+03  0.25638006014E+03  0.25500000000E-02 0. -1.
    8880023    1    1    2    0    0  0.94402201030E+02 -0.29877478462E+03  0.39386486895E+03  0.82892574380E+03  0.65864270000E+03 0. -1.
    8880022    1    1    2    0    0 -0.94402201030E+02  0.29877478462E+03  0.74346042315E+03  0.82115966857E+03  0.15294330000E+03 0.  0.
<mgrwt>
<rscale>  0 0.60648004E+03</rscale>
<asrwt>0</asrwt>
<pdfrwt beam="1">  1        2 0.39443085E-01 0.72937532E+03</pdfrwt>
<pdfrwt beam="2">  1       -2 0.21441621E+00 0.72937532E+03</pdfrwt>
<totfact> 0.14333334E+01</totfact>
</mgrwt>
</event>
<event>
 4    2  0.3171963E-007  0.7123116E+03  0.7818608E-02  0.9949515E-01
         -2   -1    0    0    0  501 -0.00000000000E+00  0.00000000000E+00  0.20496863076E+03  0.20496863078E+03  0.25500000000E-02 0.  1.
          2   -1    0    0  501    0  0.00000000000E+00 -0.00000000000E+00 -0.18257405187E+04  0.18257405187E+04  0.25500000000E-02 0. -1.
    8880023    1    1    2    0    0 -0.14263747449E+03 -0.23072100465E+03 -0.15579082538E+04  0.17130283024E+04  0.65864270000E+03 0. -1.
    8880022    1    1    2    0    0  0.14263747449E+03  0.23072100465E+03 -0.62863634122E+02  0.31768084712E+03  0.15294330000E+03 0.  0.
<mgrwt>
<rscale>  0 0.57920432E+03</rscale>
<asrwt>0</asrwt>
<pdfrwt beam="1">  1        2 0.28088315E+00 0.71231162E+03</pdfrwt>
<pdfrwt beam="2">  1       -2 0.31533637E-01 0.71231162E+03</pdfrwt>
<totfact> 0.80173256E+01</totfact>
</mgrwt>
</event>
<event>
 4    2  0.3171963E-007  0.1259357E+04  0.7818608E-02  0.9101477E-01
         -2   -1    0    0    0  501 -0.00000000000E+00  0.00000000000E+00  0.78375120671E+03  0.78375120671E+03  0.25500000000E-02 0.  1.
          2   -1    0    0  501    0  0.00000000000E+00 -0.00000000000E+00 -0.31644367394E+04  0.31644367394E+04  0.25500000000E-02 0. -1.
    8880023    1    1    2    0    0 -0.17688600849E+03  0.10587163963E+04 -0.25564416847E+04  0.28498023372E+04  0.65864270000E+03 0.  0.
    8880022    1    1    2    0    0  0.17688600849E+03 -0.10587163963E+04  0.17575615204E+03  0.10983856089E+04  0.15294330000E+03 0.  0.
<mgrwt>
<rscale>  0 0.12130877E+04</rscale>
<asrwt>0</asrwt>
<pdfrwt beam="1">  1        2 0.48683641E+00 0.12593567E+04</pdfrwt>
<pdfrwt beam="2">  1       -2 0.12057711E+00 0.12593567E+04</pdfrwt>
<totfact> 0.70515118E-01</totfact>
</mgrwt>
</event>
<event>
 4    2  0.3171963E-007  0.8750318E+03  0.7818608E-02  0.9567365E-01
         -2   -1    0    0    0  501 -0.00000000000E+00  0.00000000000E+00  0.83689955812E+03  0.83689955813E+03  0.25500000000E-02 0.  1.
          2   -1    0    0  501    0  0.00000000000E+00 -0.00000000000E+00 -0.94638661735E+03  0.94638661735E+03  0.25500000000E-02 0. -1.
    8880023    1    1    2    0    0  0.50385032566E+03  0.27929419489E+03 -0.55759509811E+03  0.10375899468E+04  0.65864270000E+03 0. -1.
    8880022    1    1    2    0    0 -0.50385032566E+03 -0.27929419489E+03  0.44810803888E+03  0.74569622870E+03  0.15294330000E+03 0.  0.
<mgrwt>
<rscale>  0 0.79494388E+03</rscale>
<asrwt>0</asrwt>
<pdfrwt beam="1">  1        2 0.14559794E+00 0.87503177E+03</pdfrwt>
<pdfrwt beam="2">  1       -2 0.12875378E+00 0.87503177E+03</pdfrwt>
<totfact> 0.12190419E+01</totfact>
</mgrwt>
</event>
<event>
 4    2  0.3171963E-007  0.7306121E+03  0.7818608E-02  0.9888189E-01
         -2   -1    0    0    0  501 -0.00000000000E+00  0.00000000000E+00  0.64641108997E+03  0.64641108998E+03  0.25500000000E-02 0.  1.
          2   -1    0    0  501    0  0.00000000000E+00 -0.00000000000E+00 -0.18043472554E+04  0.18043472554E+04  0.25500000000E-02 0. -1.
    8880023    1    1    2    0    0 -0.24594276141E+03  0.19873612478E+03 -0.16740055357E+04  0.18264962713E+04  0.65864270000E+03 0. -1.
    8880022    1    1    2    0    0  0.24594276141E+03 -0.19873612478E+03  0.51606937029E+03  0.62426207409E+03  0.15294330000E+03 0.  0.
<mgrwt>
<rscale>  0 0.60837141E+03</rscale>
<asrwt>0</asrwt>
<pdfrwt beam="1">  1        2 0.27759188E+00 0.73061214E+03</pdfrwt>
<pdfrwt beam="2">  1       -2 0.99447860E-01 0.73061214E+03</pdfrwt>
<totfact> 0.74270517E+00</totfact>
</mgrwt>
</event>
<event>
 4    2  0.3171963E-007  0.6951084E+03  0.7818608E-02  0.1001813E+00
          2   -1    0    0  501    0  0.00000000000E+00  0.00000000000E+00  0.37517491559E+03  0.37517491559E+03  0.25500000000E-02 0. -1.
         -2   -1    0    0    0  501 -0.00000000000E+00 -0.00000000000E+00 -0.69724824419E+03  0.69724824419E+03  0.25500000000E-02 0.  1.
    8880023    1    1    2    0    0 -0.16971113906E+03 -0.14340035429E+03 -0.62228905253E+02  0.69788836876E+03  0.65864270000E+03 0.  0.
    8880022    1    1    2    0    0  0.16971113906E+03  0.14340035429E+03 -0.25984442335E+03  0.37453479103E+03  0.15294330000E+03 0.  0.
<mgrwt>
<rscale>  0 0.54862287E+03</rscale>
<asrwt>0</asrwt>
<pdfrwt beam="1">  1        2 0.57719218E-01 0.69510844E+03</pdfrwt>
<pdfrwt beam="2">  1       -2 0.10726896E+00 0.69510844E+03</pdfrwt>
<totfact> 0.60523412E+01</totfact>
</mgrwt>
</event>
<event>
 4    2  0.3171963E-007  0.8646070E+03  0.7818608E-02  0.9585420E-01
          2   -1    0    0  501    0  0.00000000000E+00  0.00000000000E+00  0.11472238051E+04  0.11472238051E+04  0.25500000000E-02 0. -1.
         -2   -1    0    0    0  501 -0.00000000000E+00 -0.00000000000E+00 -0.59864229675E+03  0.59864229675E+03  0.25500000000E-02 0.  1.
    8880023    1    1    2    0    0  0.46743421298E+03  0.30861028515E+03 -0.10576746479E+03  0.87105224552E+03  0.65864270000E+03 0.  0.
    8880022    1    1    2    0    0 -0.46743421298E+03 -0.30861028515E+03  0.65434897316E+03  0.87481385634E+03  0.15294330000E+03 0.  0.
<mgrwt>
<rscale>  0 0.78268715E+03</rscale>
<asrwt>0</asrwt>
<pdfrwt beam="1">  1        2 0.17649597E+00 0.86460700E+03</pdfrwt>
<pdfrwt beam="2">  1       -2 0.92098816E-01 0.86460700E+03</pdfrwt>
<totfact> 0.20553232E+01</totfact>
</mgrwt>
</event>
<event>
 4    2  0.3171963E-007  0.8881037E+03  0.7818608E-02  0.9545405E-01
         -2   -1    0    0    0  501 -0.00000000000E+00  0.00000000000E+00  0.12136818114E+04  0.12136818114E+04  0.25500000000E-02 0.  1.
          2   -1    0    0  501    0  0.00000000000E+00 -0.00000000000E+00 -0.13232138660E+04  0.13232138660E+04  0.25500000000E-02 0. -1.
    8880023    1    1    2    0    0  0.57085540379E+03  0.17041756172E+03 -0.10736067407E+04  0.13933268379E+04  0.65864270000E+03 0.  0.
    8880022    1    1    2    0    0 -0.57085540379E+03 -0.17041756172E+03  0.96407468605E+03  0.11435688395E+04  0.15294330000E+03 0.  0.
<mgrwt>
<rscale>  0 0.81017475E+03</rscale>
<asrwt>0</asrwt>
<pdfrwt beam="1">  1        2 0.20357136E+00 0.88810373E+03</pdfrwt>
<pdfrwt beam="2">  1       -2 0.18672028E+00 0.88810373E+03</pdfrwt>
<totfact> 0.26301050E+00</totfact>
</mgrwt>
</event>
<event>
 4    2  0.3171963E-007  0.6837989E+03  0.7818608E-02  0.1007252E+00
          2   -1    0    0  501    0  0.00000000000E+00  0.00000000000E+00  0.24254254299E+04  0.24254254299E+04  0.25500000000E-02 0. -1.
         -2   -1    0    0    0  501 -0.00000000000E+00 -0.00000000000E+00 -0.75941718308E+03  0.75941718308E+03  0.25500000000E-02 0.  1.
    8880023    1    1    2    0    0  0.10670677022E+03 -0.14961401382E+03  0.23567224288E+04  0.24539196198E+04  0.65864270000E+03 0. -1.
    8880022    1    1    2    0    0 -0.10670677022E+03  0.14961401382E+03 -0.69071418189E+03  0.73092299323E+03  0.15294330000E+03 0.  0.
<mgrwt>
<rscale>  0 0.52581750E+03</rscale>
<asrwt>0</asrwt>
<pdfrwt beam="1">  1        2 0.37314238E+00 0.68379887E+03</pdfrwt>
<pdfrwt beam="2">  1       -2 0.11683341E+00 0.68379887E+03</pdfrwt>
<totfact> 0.23170617E+00</totfact>
</mgrwt>
</event>
<event>
 4    2  0.3171963E-007  0.1579188E+04  0.7818608E-02  0.8855652E-01
         -2   -1    0    0    0  501 -0.00000000000E+00  0.00000000000E+00  0.17614357543E+04  0.17614357543E+04  0.25500000000E-02 0.  1.
          2   -1    0    0  501    0  0.00000000000E+00 -0.00000000000E+00 -0.17065081554E+04  0.17065081554E+04  0.25500000000E-02 0. -1.
    8880023    1    1    2    0    0 -0.90318861037E+02  0.14324334324E+04  0.87749708531E+03  0.18066085287E+04  0.65864270000E+03 0.  0.
    8880022    1    1    2    0    0  0.90318861037E+02 -0.14324334324E+04 -0.82256948645E+03  0.16613353810E+04  0.15294330000E+03 0.  0.
<mgrwt>
<rscale>  0 0.15440887E+04</rscale>
<asrwt>0</asrwt>
<pdfrwt beam="1">  1        2 0.26253972E+00 0.15791875E+04</pdfrwt>
<pdfrwt beam="2">  1       -2 0.27099011E+00 0.15791875E+04</pdfrwt>
<totfact> 0.43283849E-01</totfact>
</mgrwt>
</event>
<event>
 4    2  0.3171963E-007  0.9927887E+03  0.7818608E-02  0.9391054E-01
         -2   -1    0    0    0  501 -0.00000000000E+00  0.00000000000E+00  0.98748215642E+03  0.98748215643E+03  0.25500000000E-02 0.  1.
          2   -1    0    0  501    0  0.00000000000E+00 -0.00000000000E+00 -0.83434149955E+03  0.83434149956E+03  0.25500000000E-02 0. -1.
    8880023    1    1    2    0    0  0.54893630608E+02  0.74081434444E+03 -0.15191803501E+03  0.10043448109E+04  0.65864270000E+03 0. -1.
    8880022    1    1    2    0    0 -0.54893630608E+02 -0.74081434444E+03  0.30505869189E+03  0.81747884506E+03  0.15294330000E+03 0.  1.
<mgrwt>
<rscale>  0 0.92815606E+03</rscale>
<asrwt>0</asrwt>
<pdfrwt beam="1">  1        2 0.12836023E+00 0.99278870E+03</pdfrwt>
<pdfrwt beam="2">  1       -2 0.15192033E+00 0.99278870E+03</pdfrwt>
<totfact> 0.93571820E+00</totfact>
</mgrwt>
</event>
<event>
 4    2  0.3171963E-007  0.9756449E+03  0.7818608E-02  0.9414139E-01
          2   -1    0    0  501    0  0.00000000000E+00  0.00000000000E+00  0.12489318655E+04  0.12489318655E+04  0.25500000000E-02 0. -1.
         -2   -1    0    0    0  501 -0.00000000000E+00 -0.00000000000E+00 -0.75135424921E+03  0.75135424922E+03  0.25500000000E-02 0.  1.
    8880023    1    1    2    0    0 -0.61964436207E+03 -0.36621519110E+03  0.74109496581E+03  0.12251957624E+04  0.65864270000E+03 0. -1.
    8880022    1    1    2    0    0  0.61964436207E+03  0.36621519110E+03 -0.24351734955E+03  0.77509035227E+03  0.15294330000E+03 0.  0.
<mgrwt>
<rscale>  0 0.90921179E+03</rscale>
<asrwt>0</asrwt>
<pdfrwt beam="1">  1        2 0.19214336E+00 0.97564487E+03</pdfrwt>
<pdfrwt beam="2">  1       -2 0.11559296E+00 0.97564487E+03</pdfrwt>
<totfact> 0.10266922E+01</totfact>
</mgrwt>
</event>
<event>
 4    2  0.3171963E-007  0.7102950E+03  0.7818608E-02  0.9956907E-01
          2   -1    0    0  501    0  0.00000000000E+00  0.00000000000E+00  0.35172163785E+04  0.35172163785E+04  0.25500000000E-02 0. -1.
         -2   -1    0    0    0  501 -0.00000000000E+00 -0.00000000000E+00 -0.74952041534E+02  0.74952041577E+02  0.25500000000E-02 0.  1.
    8880023    1    1    2    0    0  0.25460161325E+03 -0.76725150571E+02  0.26190023865E+04  0.27136124331E+04  0.65864270000E+03 0. -1.
    8880022    1    1    2    0    0 -0.25460161325E+03  0.76725150571E+02  0.82326195053E+03  0.87855598706E+03  0.15294330000E+03 0. -1.
<mgrwt>
<rscale>  0 0.57580837E+03</rscale>
<asrwt>0</asrwt>
<pdfrwt beam="1">  1        2 0.54111031E+00 0.71029496E+03</pdfrwt>
<pdfrwt beam="2">  1       -2 0.11531081E-01 0.71029496E+03</pdfrwt>
<totfact> 0.46560146E+01</totfact>
</mgrwt>
</event>
<event>
 4    2  0.3171963E-007  0.7264636E+03  0.7818608E-02  0.9901293E-01
         -2   -1    0    0    0  501 -0.00000000000E+00  0.00000000000E+00  0.64296624973E+03  0.64296624973E+03  0.25500000000E-02 0.  1.
          2   -1    0    0  501    0  0.00000000000E+00 -0.00000000000E+00 -0.10322533011E+04  0.10322533011E+04  0.25500000000E-02 0. -1.
    8880023    1    1    2    0    0  0.12096177078E+03 -0.28161574013E+03 -0.83906805769E+03  0.11098579129E+04  0.65864270000E+03 0. -1.
    8880022    1    1    2    0    0 -0.12096177078E+03  0.28161574013E+03  0.44978100628E+03  0.56536163799E+03  0.15294330000E+03 0.  0.
<mgrwt>
<rscale>  0 0.60198673E+03</rscale>
<asrwt>0</asrwt>
<pdfrwt beam="1">  1        2 0.15880820E+00 0.72646361E+03</pdfrwt>
<pdfrwt beam="2">  1       -2 0.98917885E-01 0.72646361E+03</pdfrwt>
<totfact> 0.20754153E+01</totfact>
</mgrwt>
</event>
<event>
 4    2  0.3171963E-007  0.6715434E+03  0.7818608E-02  0.1014580E+00
          2   -1    0    0  501    0  0.00000000000E+00  0.00000000000E+00  0.17143835586E+03  0.17143835588E+03  0.25500000000E-02 0. -1.
         -2   -1    0    0    0  501 -0.00000000000E+00 -0.00000000000E+00 -0.20332941355E+04  0.20332941355E+04  0.25500000000E-02 0.  1.
    8880023    1    1    2    0    0 -0.12564534616E+02  0.13039335625E+03 -0.52395759625E+03  0.85176408930E+03  0.65864270000E+03 0. -1.
    8880022    1    1    2    0    0  0.12564534616E+02 -0.13039335625E+03 -0.13378981834E+04  0.13529684020E+04  0.15294330000E+03 0.  0.
<mgrwt>
<rscale>  0 0.49694350E+03</rscale>
<asrwt>0</asrwt>
<pdfrwt beam="1">  1        2 0.26375133E-01 0.67154337E+03</pdfrwt>
<pdfrwt beam="2">  1       -2 0.31281446E+00 0.67154337E+03</pdfrwt>
<totfact> 0.57513944E+00</totfact>
</mgrwt>
</event>
<event>
 4    2  0.3171963E-007  0.6918739E+03  0.7818608E-02  0.1003274E+00
         -2   -1    0    0    0  501 -0.00000000000E+00  0.00000000000E+00  0.31121475096E+03  0.31121475097E+03  0.25500000000E-02 0.  1.
          2   -1    0    0  501    0  0.00000000000E+00 -0.00000000000E+00 -0.28050898143E+04  0.28050898143E+04  0.25500000000E-02 0. -1.
    8880023    1    1    2    0    0 -0.19969516081E+03 -0.70718604476E+02 -0.26976440265E+04  0.27849547174E+04  0.65864270000E+03 0. -1.
    8880022    1    1    2    0    0  0.19969516081E+03  0.70718604476E+02  0.20376896318E+03  0.33134984780E+03  0.15294330000E+03 0.  0.
<mgrwt>
<rscale>  0 0.54237503E+03</rscale>
<asrwt>0</asrwt>
<pdfrwt beam="1">  1        2 0.43155226E+00 0.69187389E+03</pdfrwt>
<pdfrwt beam="2">  1       -2 0.47879194E-01 0.69187389E+03</pdfrwt>
<totfact> 0.10140767E+01</totfact>
</mgrwt>
</event>
<event>
 4    2  0.3171963E-007  0.7439385E+03  0.7818608E-02  0.9848620E-01
         -2   -1    0    0    0  501 -0.00000000000E+00  0.00000000000E+00  0.41064564828E+03  0.41064564828E+03  0.25500000000E-02 0.  1.
          2   -1    0    0  501    0  0.00000000000E+00 -0.00000000000E+00 -0.19516902348E+04  0.19516902348E+04  0.25500000000E-02 0. -1.
    8880023    1    1    2    0    0  0.25146477345E+03  0.23748634949E+03 -0.17701784689E+04  0.19201500765E+04  0.65864270000E+03 0.  0.
    8880022    1    1    2    0    0 -0.25146477345E+03 -0.23748634949E+03  0.22913388233E+03  0.44218580657E+03  0.15294330000E+03 0.  0.
<mgrwt>
<rscale>  0 0.62817353E+03</rscale>
<asrwt>0</asrwt>
<pdfrwt beam="1">  1        2 0.30026003E+00 0.74393851E+03</pdfrwt>
<pdfrwt beam="2">  1       -2 0.63176254E-01 0.74393851E+03</pdfrwt>
<totfact> 0.17059124E+01</totfact>
</mgrwt>
</event>
<event>
 4    2  0.3171963E-007  0.1028613E+04  0.7818608E-02  0.9345045E-01
         -2   -1    0    0    0  501 -0.00000000000E+00  0.00000000000E+00  0.47345232753E+03  0.47345232754E+03  0.25500000000E-02 0.  1.
          2   -1    0    0  501    0  0.00000000000E+00 -0.00000000000E+00 -0.23969928557E+04  0.23969928557E+04  0.25500000000E-02 0. -1.
    8880023    1    1    2    0    0 -0.47314060771E+03 -0.63274997272E+03 -0.17758691168E+04  0.20522562922E+04  0.65864270000E+03 0.  0.
    8880022    1    1    2    0    0  0.47314060771E+03  0.63274997272E+03 -0.14767141136E+03  0.81818889102E+03  0.15294330000E+03 0.  0.
<mgrwt>
<rscale>  0 0.96739663E+03</rscale>
<asrwt>0</asrwt>
<pdfrwt beam="1">  1        2 0.36876813E+00 0.10286130E+04</pdfrwt>
<pdfrwt beam="2">  1       -2 0.72838821E-01 0.10286130E+04</pdfrwt>
<totfact> 0.68356827E+00</totfact>
</mgrwt>
</event>
<event>
 4    2  0.3171963E-007  0.7894793E+03  0.7818608E-02  0.9734023E-01
          2   -1    0    0  501    0  0.00000000000E+00  0.00000000000E+00  0.21835120296E+04  0.21835120296E+04  0.25500000000E-02 0. -1.
         -2   -1    0    0    0  501 -0.00000000000E+00 -0.00000000000E+00 -0.20233274170E+03  0.20233274172E+03  0.25500000000E-02 0.  1.
    8880023    1    1    2    0    0 -0.36212860434E+03  0.24151650770E+03  0.16120376617E+04  0.17949771527E+04  0.65864270000E+03 0.  0.
    8880022    1    1    2    0    0  0.36212860434E+03 -0.24151650770E+03  0.36914162622E+03  0.59086761867E+03  0.15294330000E+03 0.  0.
<mgrwt>
<rscale>  0 0.69026692E+03</rscale>
<asrwt>0</asrwt>
<pdfrwt beam="1">  1        2 0.33592494E+00 0.78947929E+03</pdfrwt>
<pdfrwt beam="2">  1       -2 0.31128113E-01 0.78947929E+03</pdfrwt>
<totfact> 0.51900858E+01</totfact>
</mgrwt>
</event>
<event>
 4    2  0.3171963E-007  0.1031686E+04  0.7818608E-02  0.9341229E-01
          2   -1    0    0  501    0  0.00000000000E+00  0.00000000000E+00  0.13896499554E+04  0.13896499554E+04  0.25500000000E-02 0. -1.
         -2   -1    0    0    0  501 -0.00000000000E+00 -0.00000000000E+00 -0.62795160761E+03  0.62795160762E+03  0.25500000000E-02 0.  1.
    8880023    1    1    2    0    0  0.72096938259E+03  0.33281835248E+03  0.59818435636E+03  0.11925601187E+04  0.65864270000E+03 0.  1.
    8880022    1    1    2    0    0 -0.72096938259E+03 -0.33281835248E+03  0.16351399144E+03  0.82504144428E+03  0.15294330000E+03 0. -1.
<mgrwt>
<rscale>  0 0.97074269E+03</rscale>
<asrwt>0</asrwt>
<pdfrwt beam="1">  1        2 0.21379230E+00 0.10316856E+04</pdfrwt>
<pdfrwt beam="2">  1       -2 0.96607941E-01 0.10316856E+04</pdfrwt>
<totfact> 0.13042142E+01</totfact>
</mgrwt>
</event>
<event>
 4    2  0.3171963E-007  0.8370226E+03  0.7818608E-02  0.9635820E-01
         -2   -1    0    0    0  501 -0.00000000000E+00  0.00000000000E+00  0.55454413425E+03  0.55454413426E+03  0.25500000000E-02 0.  1.
          2   -1    0    0  501    0  0.00000000000E+00 -0.00000000000E+00 -0.16894809930E+04  0.16894809930E+04  0.25500000000E-02 0. -1.
    8880023    1    1    2    0    0  0.44728371797E+03  0.25832902049E+03 -0.14095768001E+04  0.16393637695E+04  0.65864270000E+03 0. -1.
    8880022    1    1    2    0    0 -0.44728371797E+03 -0.25832902049E+03  0.27463994133E+03  0.60466135776E+03  0.15294330000E+03 0.  0.
<mgrwt>
<rscale>  0 0.74970061E+03</rscale>
<asrwt>0</asrwt>
<pdfrwt beam="1">  1        2 0.25992015E+00 0.83702259E+03</pdfrwt>
<pdfrwt beam="2">  1       -2 0.85314483E-01 0.83702259E+03</pdfrwt>
<totfact> 0.12073571E+01</totfact>
</mgrwt>
</event>
<event>
 4    2  0.3171963E-007  0.7020760E+03  0.7818608E-02  0.9988696E-01
         -2   -1    0    0    0  501 -0.00000000000E+00  0.00000000000E+00  0.13094655048E+04  0.13094655048E+04  0.25500000000E-02 0.  1.
          2   -1    0    0  501    0  0.00000000000E+00 -0.00000000000E+00 -0.72872912171E+03  0.72872912172E+03  0.25500000000E-02 0. -1.
    8880023    1    1    2    0    0  0.15507471177E+03  0.18722268037E+03 -0.53715630206E+03  0.88399524738E+03  0.65864270000E+03 0. -1.
    8880022    1    1    2    0    0 -0.15507471177E+03 -0.18722268037E+03  0.11178926851E+04  0.11541993791E+04  0.15294330000E+03 0.  0.
<mgrwt>
<rscale>  0 0.56148696E+03</rscale>
<asrwt>0</asrwt>
<pdfrwt beam="1">  1        2 0.11211217E+00 0.70207600E+03</pdfrwt>
<pdfrwt beam="2">  1       -2 0.20145623E+00 0.70207600E+03</pdfrwt>
<totfact> 0.52058715E+00</totfact>
</mgrwt>
</event>
<event>
 4    2  0.3171963E-007  0.9560215E+03  0.7818608E-02  0.9441503E-01
          2   -1    0    0  501    0  0.00000000000E+00  0.00000000000E+00  0.92140286140E+03  0.92140286140E+03  0.25500000000E-02 0. -1.
         -2   -1    0    0    0  501 -0.00000000000E+00 -0.00000000000E+00 -0.89402488500E+03  0.89402488501E+03  0.25500000000E-02 0.  1.
    8880023    1    1    2    0    0 -0.18661567681E+03  0.66733909300E+03  0.37288315592E+03  0.10261671063E+04  0.65864270000E+03 0.  0.
    8880022    1    1    2    0    0  0.18661567681E+03 -0.66733909300E+03 -0.34550517953E+03  0.78926064008E+03  0.15294330000E+03 0.  0.
<mgrwt>
<rscale>  0 0.88737458E+03</rscale>
<asrwt>0</asrwt>
<pdfrwt beam="1">  1        2 0.14175429E+00 0.95602149E+03</pdfrwt>
<pdfrwt beam="2">  1       -2 0.13754229E+00 0.95602149E+03</pdfrwt>
<totfact> 0.10620287E+01</totfact>
</mgrwt>
</event>
<event>
 4    2  0.3171963E-007  0.9070786E+03  0.7818608E-02  0.9514762E-01
          2   -1    0    0  501    0  0.00000000000E+00  0.00000000000E+00  0.28675849974E+04  0.28675849974E+04  0.25500000000E-02 0. -1.
         -2   -1    0    0    0  501 -0.00000000000E+00 -0.00000000000E+00 -0.31132738050E+03  0.31132738052E+03  0.25500000000E-02 0.  1.
    8880023    1    1    2    0    0 -0.18172041053E+03  0.59662300740E+03  0.23261767768E+04  0.24967759058E+04  0.65864270000E+03 0.  0.
    8880022    1    1    2    0    0  0.18172041053E+03 -0.59662300740E+03  0.23008084004E+03  0.68213647207E+03  0.15294330000E+03 0.  0.
<mgrwt>
<rscale>  0 0.83204143E+03</rscale>
<asrwt>0</asrwt>
<pdfrwt beam="1">  1        2 0.44116690E+00 0.90707857E+03</pdfrwt>
<pdfrwt beam="2">  1       -2 0.47896522E-01 0.90707857E+03</pdfrwt>
<totfact> 0.89750137E+00</totfact>
</mgrwt>
</event>
<event>
 4    2  0.3171963E-007  0.8514631E+03  0.7818608E-02  0.9608933E-01
          2   -1    0    0  501    0  0.00000000000E+00  0.00000000000E+00  0.10917552407E+04  0.10917552407E+04  0.25500000000E-02 0. -1.
         -2   -1    0    0    0  501 -0.00000000000E+00 -0.00000000000E+00 -0.69528714848E+03  0.69528714848E+03  0.25500000000E-02 0.  1.
    8880023    1    1    2    0    0 -0.18395258147E+03  0.50728761851E+03  0.74105101287E+03  0.11287807981E+04  0.65864270000E+03 0. -1.
    8880022    1    1    2    0    0  0.18395258147E+03 -0.50728761851E+03 -0.34458292066E+03  0.65826159112E+03  0.15294330000E+03 0.  0.
<mgrwt>
<rscale>  0 0.76707745E+03</rscale>
<asrwt>0</asrwt>
<pdfrwt beam="1">  1        2 0.16796234E+00 0.85146314E+03</pdfrwt>
<pdfrwt beam="2">  1       -2 0.10696725E+00 0.85146314E+03</pdfrwt>
<totfact> 0.15604572E+01</totfact>
</mgrwt>
</event>
<event>
 4    2  0.3171963E-007  0.9666553E+03  0.7818608E-02  0.9426545E-01
          2   -1    0    0  501    0  0.00000000000E+00  0.00000000000E+00  0.34814222720E+04  0.34814222720E+04  0.25500000000E-02 0. -1.
         -2   -1    0    0    0  501 -0.00000000000E+00 -0.00000000000E+00 -0.22890270427E+03  0.22890270428E+03  0.25500000000E-02 0.  1.
    8880023    1    1    2    0    0  0.44431735510E+03 -0.55063086284E+03  0.24267513710E+04  0.26121915477E+04  0.65864270000E+03 0. -1.
    8880022    1    1    2    0    0 -0.44431735510E+03  0.55063086284E+03  0.82576819680E+03  0.10981334286E+04  0.15294330000E+03 0.  0.
<mgrwt>
<rscale>  0 0.89922949E+03</rscale>
<asrwt>0</asrwt>
<pdfrwt beam="1">  1        2 0.53560338E+00 0.96665530E+03</pdfrwt>
<pdfrwt beam="2">  1       -2 0.35215804E-01 0.96665530E+03</pdfrwt>
<totfact> 0.66043852E+00</totfact>
</mgrwt>
</event>
<event>
 4    2  0.3171963E-007  0.6862207E+03  0.7818608E-02  0.1006003E+00
         -2   -1    0    0    0  501 -0.00000000000E+00  0.00000000000E+00  0.27905096726E+03  0.27905096727E+03  0.25500000000E-02 0.  1.
          2   -1    0    0  501    0  0.00000000000E+00 -0.00000000000E+00 -0.79272856349E+03  0.79272856349E+03  0.25500000000E-02 0. -1.
    8880023    1    1    2    0    0 -0.45283937956E+02  0.18718435960E+03 -0.43954216719E+03  0.81492094249E+03  0.65864270000E+03 0.  1.
    8880022    1    1    2    0    0  0.45283937956E+02 -0.18718435960E+03 -0.74135429038E+02  0.25685858827E+03  0.15294330000E+03 0. -1.
<mgrwt>
<rscale>  0 0.53094504E+03</rscale>
<asrwt>0</asrwt>
<pdfrwt beam="1">  1        2 0.12195824E+00 0.68622068E+03</pdfrwt>
<pdfrwt beam="2">  1       -2 0.42930918E-01 0.68622068E+03</pdfrwt>
<totfact> 0.18180245E+02</totfact>
</mgrwt>
</event>
<event>
 4    2  0.3171963E-007  0.6739098E+03  0.7818608E-02  0.1013002E+00
          2   -1    0    0  501    0  0.00000000000E+00  0.00000000000E+00  0.41951902919E+03  0.41951902920E+03  0.25500000000E-02 0. -1.
         -2   -1    0    0    0  501 -0.00000000000E+00 -0.00000000000E+00 -0.11994601130E+04  0.11994601130E+04  0.25500000000E-02 0.  1.
    8880023    1    1    2    0    0  0.46839031877E+02  0.13472311999E+03  0.12912409465E+03  0.68616867609E+03  0.65864270000E+03 0. -1.
    8880022    1    1    2    0    0 -0.46839031877E+02 -0.13472311999E+03 -0.90906517841E+03  0.93281046606E+03  0.15294330000E+03 0.  0.
<mgrwt>
<rscale>  0 0.50298617E+03</rscale>
<asrwt>0</asrwt>
<pdfrwt beam="1">  1        2 0.64541390E-01 0.67390980E+03</pdfrwt>
<pdfrwt beam="2">  1       -2 0.18453232E+00 0.67390980E+03</pdfrwt>
<totfact> 0.13026775E+01</totfact>
</mgrwt>
</event>
<event>
 4    2  0.3171963E-007  0.8002848E+03  0.7818608E-02  0.9710181E-01
         -2   -1    0    0    0  501 -0.00000000000E+00  0.00000000000E+00  0.90508072992E+03  0.90508072992E+03  0.25500000000E-02 0.  1.
          2   -1    0    0  501    0  0.00000000000E+00 -0.00000000000E+00 -0.12840213291E+04  0.12840213291E+04  0.25500000000E-02 0. -1.
    8880023    1    1    2    0    0  0.45309315633E+03 -0.36771720978E+02 -0.10772261760E+04  0.13419657254E+04  0.65864270000E+03 0. -1.
    8880022    1    1    2    0    0 -0.45309315633E+03  0.36771720978E+02  0.69828557684E+03  0.84713633354E+03  0.15294330000E+03 0.  0.
<mgrwt>
<rscale>  0 0.70413867E+03</rscale>
<asrwt>0</asrwt>
<pdfrwt beam="1">  1        2 0.19754174E+00 0.80028481E+03</pdfrwt>
<pdfrwt beam="2">  1       -2 0.13924319E+00 0.80028481E+03</pdfrwt>
<totfact> 0.62455858E+00</totfact>
</mgrwt>
</event>
<event>
 4    2  0.3171963E-007  0.1417370E+04  0.7818608E-02  0.8970302E-01
          2   -1    0    0  501    0  0.00000000000E+00  0.00000000000E+00  0.15240346740E+04  0.15240346740E+04  0.25500000000E-02 0. -1.
         -2   -1    0    0    0  501 -0.00000000000E+00 -0.00000000000E+00 -0.13146070157E+04  0.13146070157E+04  0.25500000000E-02 0.  1.
    8880023    1    1    2    0    0 -0.85256692827E+02 -0.12521415940E+04 -0.34396672243E+03  0.14585097146E+04  0.65864270000E+03 0.  1.
    8880022    1    1    2    0    0  0.85256692827E+02  0.12521415940E+04  0.55339438069E+03  0.13801319751E+04  0.15294330000E+03 0.  0.
<mgrwt>
<rscale>  0 0.13774541E+04</rscale>
<asrwt>0</asrwt>
<pdfrwt beam="1">  1        2 0.23446687E+00 0.14173699E+04</pdfrwt>
<pdfrwt beam="2">  1       -2 0.20224723E+00 0.14173699E+04</pdfrwt>
<totfact> 0.15011117E+00</totfact>
</mgrwt>
</event>
<event>
 4    2  0.3171963E-007  0.6795140E+03  0.7818608E-02  0.1009600E+00
         -2   -1    0    0    0  501 -0.00000000000E+00  0.00000000000E+00  0.52101375523E+03  0.52101375523E+03  0.25500000000E-02 0.  1.
          2   -1    0    0  501    0  0.00000000000E+00 -0.00000000000E+00 -0.95683821419E+03  0.95683821419E+03  0.25500000000E-02 0. -1.
    8880023    1    1    2    0    0 -0.14897050289E+03  0.75742201725E+02 -0.79958206238E+03  0.10493191948E+04  0.65864270000E+03 0. -1.
    8880022    1    1    2    0    0  0.14897050289E+03 -0.75742201725E+02  0.36375760342E+03  0.42853277461E+03  0.15294330000E+03 0.  0.
<mgrwt>
<rscale>  0 0.51633960E+03</rscale>
<asrwt>0</asrwt>
<pdfrwt beam="1">  1        2 0.14720588E+00 0.67951402E+03</pdfrwt>
<pdfrwt beam="2">  1       -2 0.80155963E-01 0.67951402E+03</pdfrwt>
<totfact> 0.37803432E+01</totfact>
</mgrwt>
</event>
<event>
 4    2  0.3171963E-007  0.8722282E+03  0.7818608E-02  0.9572171E-01
         -2   -1    0    0    0  501 -0.00000000000E+00  0.00000000000E+00  0.25463237619E+03  0.25463237620E+03  0.25500000000E-02 0.  1.
          2   -1    0    0  501    0  0.00000000000E+00 -0.00000000000E+00 -0.26648520076E+04  0.26648520076E+04  0.25500000000E-02 0. -1.
    8880023    1    1    2    0    0 -0.56079410460E+03  0.11172171775E+03 -0.20468229487E+04  0.22249193602E+04  0.65864270000E+03 0.  0.
    8880022    1    1    2    0    0  0.56079410460E+03 -0.11172171775E+03 -0.36339668278E+03  0.69456502363E+03  0.15294330000E+03 0. -1.
<mgrwt>
<rscale>  0 0.79165767E+03</rscale>
<asrwt>0</asrwt>
<pdfrwt beam="1">  1        2 0.40997721E+00 0.87222817E+03</pdfrwt>
<pdfrwt beam="2">  1       -2 0.39174214E-01 0.87222817E+03</pdfrwt>
<totfact> 0.17711876E+01</totfact>
</mgrwt>
</event>
<event>
 4    2  0.3592970E-007  0.6715004E+03  0.7818608E-02  0.1014609E+00
          2   -1    0    0  501    0  0.00000000000E+00  0.00000000000E+00  0.17769713075E+04  0.17769713075E+04  0.25500000000E-02 0. -1.
         -2   -1    0    0    0  501 -0.00000000000E+00 -0.00000000000E+00 -0.65104291846E+03  0.65104291847E+03  0.25500000000E-02 0.  1.
    8880023    1    1    2    0    0  0.11045887340E+03 -0.70010269250E+02  0.16956643853E+04  0.18237846678E+04  0.65864270000E+03 0. -1.
    8880022    1    1    2    0    0 -0.11045887340E+03  0.70010269250E+02 -0.56973599628E+03  0.60422955819E+03  0.15294330000E+03 0.  0.
<mgrwt>
<rscale>  0 0.49683123E+03</rscale>
<asrwt>0</asrwt>
<pdfrwt beam="1">  1        2 0.27338021E+00 0.67150041E+03</pdfrwt>
<pdfrwt beam="2">  1       -2 0.10016045E+00 0.67150041E+03</pdfrwt>
<totfact> 0.76306114E+00</totfact>
</mgrwt>
</event>
<event>
 4    2  0.3171963E-007  0.7113746E+03  0.7818608E-02  0.9952931E-01
          2   -1    0    0  501    0  0.00000000000E+00  0.00000000000E+00  0.73651073161E+03  0.73651073162E+03  0.25500000000E-02 0. -1.
         -2   -1    0    0    0  501 -0.00000000000E+00 -0.00000000000E+00 -0.23712851441E+04  0.23712851441E+04  0.25500000000E-02 0.  1.
    8880023    1    1    2    0    0  0.99012090059E+02  0.24988049384E+03  0.55127759308E+03  0.89997824756E+03  0.65864270000E+03 0. -1.
    8880022    1    1    2    0    0 -0.99012090059E+02 -0.24988049384E+03 -0.21860520056E+04  0.22078176282E+04  0.15294330000E+03 0.  0.
<mgrwt>
<rscale>  0 0.57763176E+03</rscale>
<asrwt>0</asrwt>
<pdfrwt beam="1">  1        2 0.11330934E+00 0.71137463E+03</pdfrwt>
<pdfrwt beam="2">  1       -2 0.36481309E+00 0.71137463E+03</pdfrwt>
<totfact> 0.51376167E-01</totfact>
</mgrwt>
</event>
<event>
 4    2  0.3171963E-007  0.7624416E+03  0.7818608E-02  0.9798827E-01
         -2   -1    0    0    0  501 -0.00000000000E+00  0.00000000000E+00  0.50005073233E+03  0.50005073234E+03  0.25500000000E-02 0.  1.
          2   -1    0    0  501    0  0.00000000000E+00 -0.00000000000E+00 -0.10038067204E+04  0.10038067204E+04  0.25500000000E-02 0. -1.
    8880023    1    1    2    0    0  0.11288265933E+03 -0.36710274098E+03 -0.71002968022E+03  0.10418537663E+04  0.65864270000E+03 0. -1.
    8880022    1    1    2    0    0 -0.11288265933E+03  0.36710274098E+03  0.20627369216E+03  0.46200368647E+03  0.15294330000E+03 0.  0.
<mgrwt>
<rscale>  0 0.65425526E+03</rscale>
<asrwt>0</asrwt>
<pdfrwt beam="1">  1        2 0.15443180E+00 0.76244155E+03</pdfrwt>
<pdfrwt beam="2">  1       -2 0.76930882E-01 0.76244155E+03</pdfrwt>
<totfact> 0.38352902E+01</totfact>
</mgrwt>
</event>
<event>
 4    2  0.3171963E-007  0.6690593E+03  0.7818608E-02  0.1016346E+00
         -2   -1    0    0    0  501 -0.00000000000E+00  0.00000000000E+00  0.15670949849E+03  0.15670949851E+03  0.25500000000E-02 0.  1.
          2   -1    0    0  501    0  0.00000000000E+00 -0.00000000000E+00 -0.21742625333E+04  0.21742625333E+04  0.25500000000E-02 0. -1.
    8880023    1    1    2    0    0  0.11517103306E+03 -0.23786745790E+02 -0.20302236363E+04  0.21376268139E+04  0.65864270000E+03 0. -1.
    8880022    1    1    2    0    0 -0.11517103306E+03  0.23786745790E+02  0.12670601422E+02  0.19334521790E+03  0.15294330000E+03 0.  0.
<mgrwt>
<rscale>  0 0.49028452E+03</rscale>
<asrwt>0</asrwt>
<pdfrwt beam="1">  1        2 0.33450191E+00 0.66905933E+03</pdfrwt>
<pdfrwt beam="2">  1       -2 0.24109155E-01 0.66905933E+03</pdfrwt>
<totfact> 0.85042995E+01</totfact>
</mgrwt>
</event>
<event>
 4    2  0.3171963E-007  0.8315272E+03  0.7818608E-02  0.9646368E-01
          2   -1    0    0  501    0  0.00000000000E+00  0.00000000000E+00  0.33283484752E+03  0.33283484753E+03  0.25500000000E-02 0. -1.
         -2   -1    0    0    0  501 -0.00000000000E+00 -0.00000000000E+00 -0.20104716767E+04  0.20104716767E+04  0.25500000000E-02 0.  1.
    8880023    1    1    2    0    0 -0.50050645695E+03  0.84383191093E+02 -0.32904162621E+03  0.89426273233E+03  0.65864270000E+03 0.  0.
    8880022    1    1    2    0    0  0.50050645695E+03 -0.84383191093E+02 -0.13485952030E+04  0.14490437919E+04  0.15294330000E+03 0.  0.
<mgrwt>
<rscale>  0 0.74301790E+03</rscale>
<asrwt>0</asrwt>
<pdfrwt beam="1">  1        2 0.51205362E-01 0.83152717E+03</pdfrwt>
<pdfrwt beam="2">  1       -2 0.30930333E+00 0.83152717E+03</pdfrwt>
<totfact> 0.28084904E+00</totfact>
</mgrwt>
</event>
<event>
 4    2  0.3171963E-007  0.6705660E+03  0.7818608E-02  0.1015260E+00
         -2   -1    0    0    0  501 -0.00000000000E+00  0.00000000000E+00  0.26749206886E+03  0.26749206887E+03  0.25500000000E-02 0.  1.
          2   -1    0    0  501    0  0.00000000000E+00 -0.00000000000E+00 -0.16293060905E+04  0.16293060905E+04  0.25500000000E-02 0. -1.
    8880023    1    1    2    0    0  0.64099829069E+02 -0.10835012333E+03 -0.15081562689E+04  0.16505132763E+04  0.65864270000E+03 0. -1.
    8880022    1    1    2    0    0 -0.64099829069E+02  0.10835012333E+03  0.14634224727E+03  0.24628488314E+03  0.15294330000E+03 0.  0.
<mgrwt>
<rscale>  0 0.49436479E+03</rscale>
<asrwt>0</asrwt>
<pdfrwt beam="1">  1        2 0.25066247E+00 0.67056599E+03</pdfrwt>
<pdfrwt beam="2">  1       -2 0.41152627E-01 0.67056599E+03</pdfrwt>
<totfact> 0.61966042E+01</totfact>
</mgrwt>
</event>
<event>
 4    2  0.3171963E-007  0.9906273E+03  0.7818608E-02  0.9393924E-01
         -2   -1    0    0    0  501 -0.00000000000E+00  0.00000000000E+00  0.45710544645E+03  0.45710544646E+03  0.25500000000E-02 0.  1.
          2   -1    0    0  501    0  0.00000000000E+00 -0.00000000000E+00 -0.21205222951E+04  0.21205222951E+04  0.25500000000E-02 0. -1.
    8880023    1    1    2    0    0 -0.68885037397E+03  0.27021745199E+03 -0.32844831586E+03  0.10436574206E+04  0.65864270000E+03 0.  0.
    8880022    1    1    2    0    0  0.68885037397E+03 -0.27021745199E+03 -0.13349685328E+04  0.15339703210E+04  0.15294330000E+03 0.  0.
<mgrwt>
<rscale>  0 0.92577407E+03</rscale>
<asrwt>0</asrwt>
<pdfrwt beam="1">  1        2 0.32623419E+00 0.99062733E+03</pdfrwt>
<pdfrwt beam="2">  1       -2 0.70323916E-01 0.99062733E+03</pdfrwt>
<totfact> 0.10590891E+01</totfact>
</mgrwt>
</event>
<event>
 4    2  0.3171963E-007  0.8610133E+03  0.7818608E-02  0.9591763E-01
         -2   -1    0    0    0  501 -0.00000000000E+00  0.00000000000E+00  0.79352802042E+03  0.79352802043E+03  0.25500000000E-02 0.  1.
          2   -1    0    0  501    0  0.00000000000E+00 -0.00000000000E+00 -0.92053941987E+03  0.92053941987E+03  0.25500000000E-02 0. -1.
    8880023    1    1    2    0    0  0.13110749101E+02 -0.55440224547E+03  0.38572673470E+03  0.94346651326E+03  0.65864270000E+03 0.  1.
    8880022    1    1    2    0    0 -0.13110749101E+02  0.55440224547E+03 -0.51273813415E+03  0.77060092703E+03  0.15294330000E+03 0.  0.
<mgrwt>
<rscale>  0 0.77843735E+03</rscale>
<asrwt>0</asrwt>
<pdfrwt beam="1">  1        2 0.14162145E+00 0.86101333E+03</pdfrwt>
<pdfrwt beam="2">  1       -2 0.12208123E+00 0.86101333E+03</pdfrwt>
<totfact> 0.14516792E+01</totfact>
</mgrwt>
</event>
<event>
 4    2  0.3171963E-007  0.7797577E+03  0.7818608E-02  0.9756406E-01
         -2   -1    0    0    0  501 -0.00000000000E+00  0.00000000000E+00  0.24148090138E+03  0.24148090139E+03  0.25500000000E-02 0.  1.
          2   -1    0    0  501    0  0.00000000000E+00 -0.00000000000E+00 -0.16338922574E+04  0.16338922574E+04  0.25500000000E-02 0. -1.
    8880023    1    1    2    0    0 -0.16497085775E+02 -0.41706083941E+03 -0.10798796441E+04  0.13319767827E+04  0.65864270000E+03 0.  0.
    8880022    1    1    2    0    0  0.16497085775E+02  0.41706083941E+03 -0.31253171196E+03  0.54339637614E+03  0.15294330000E+03 0.  0.
<mgrwt>
<rscale>  0 0.67755430E+03</rscale>
<asrwt>0</asrwt>
<pdfrwt beam="1">  1        2 0.25136803E+00 0.77975772E+03</pdfrwt>
<pdfrwt beam="2">  1       -2 0.37150909E-01 0.77975772E+03</pdfrwt>
<totfact> 0.74273496E+01</totfact>
</mgrwt>
</event>
<event>
 4    2  0.3171963E-007  0.8557242E+03  0.7818608E-02  0.9601215E-01
          2   -1    0    0  501    0  0.00000000000E+00  0.00000000000E+00  0.12279872996E+04  0.12279872996E+04  0.25500000000E-02 0. -1.
         -2   -1    0    0    0  501 -0.00000000000E+00 -0.00000000000E+00 -0.64950613157E+03  0.64950613158E+03  0.25500000000E-02 0.  1.
    8880023    1    1    2    0    0 -0.51750194779E+01  0.54628464409E+03  0.88635242778E+03  0.12320245638E+04  0.65864270000E+03 0. -1.
    8880022    1    1    2    0    0  0.51750194779E+01 -0.54628464409E+03 -0.30787125976E+03  0.64546886741E+03  0.15294330000E+03 0.  0.
<mgrwt>
<rscale>  0 0.77215816E+03</rscale>
<asrwt>0</asrwt>
<pdfrwt beam="1">  1        2 0.18892112E+00 0.85572420E+03</pdfrwt>
<pdfrwt beam="2">  1       -2 0.99924021E-01 0.85572420E+03</pdfrwt>
<totfact> 0.15202369E+01</totfact>
</mgrwt>
</event>
<event>
 4    2  0.3171963E-007  0.8106658E+03  0.7818608E-02  0.9688192E-01
         -2   -1    0    0    0  501 -0.00000000000E+00  0.00000000000E+00  0.43922519383E+03  0.43922519384E+03  0.25500000000E-02 0.  1.
          2   -1    0    0  501    0  0.00000000000E+00 -0.00000000000E+00 -0.26668520225E+04  0.26668520225E+04  0.25500000000E-02 0. -1.
    8880023    1    1    2    0    0 -0.15179276819E+03  0.44757984059E+03  0.13277946079E+02  0.81077448671E+03  0.65864270000E+03 0.  1.
    8880022    1    1    2    0    0  0.15179276819E+03 -0.44757984059E+03 -0.22409047747E+04  0.22953027296E+04  0.15294330000E+03 0.  0.
<mgrwt>
<rscale>  0 0.71724215E+03</rscale>
<asrwt>0</asrwt>
<pdfrwt beam="1">  1        2 0.41028492E+00 0.81066575E+03</pdfrwt>
<pdfrwt beam="2">  1       -2 0.67573108E-01 0.81066575E+03</pdfrwt>
<totfact> 0.58220599E+00</totfact>
</mgrwt>
</event>
<event>
 4    2  0.3171963E-007  0.8784831E+03  0.7818608E-02  0.9561495E-01
         -2   -1    0    0    0  501 -0.00000000000E+00  0.00000000000E+00  0.93689031916E+03  0.93689031917E+03  0.25500000000E-02 0.  1.
          2   -1    0    0  501    0  0.00000000000E+00 -0.00000000000E+00 -0.91671633780E+03  0.91671633780E+03  0.25500000000E-02 0. -1.
    8880023    1    1    2    0    0 -0.30111052754E+03 -0.49724721716E+03 -0.54064383363E+03  0.10315174773E+04  0.65864270000E+03 0.  0.
    8880022    1    1    2    0    0  0.30111052754E+03  0.49724721716E+03  0.56081781499E+03  0.82208917971E+03  0.15294330000E+03 0.  0.
<mgrwt>
<rscale>  0 0.79897953E+03</rscale>
<asrwt>0</asrwt>
<pdfrwt beam="1">  1        2 0.14103328E+00 0.87848310E+03</pdfrwt>
<pdfrwt beam="2">  1       -2 0.14413697E+00 0.87848310E+03</pdfrwt>
<totfact> 0.95377958E+00</totfact>
</mgrwt>
</event>
<event>
 4    2  0.3171963E-007  0.1104603E+04  0.7818608E-02  0.9255949E-01
          2   -1    0    0  501    0  0.00000000000E+00  0.00000000000E+00  0.15829400273E+04  0.15829400273E+04  0.25500000000E-02 0. -1.
         -2   -1    0    0    0  501 -0.00000000000E+00 -0.00000000000E+00 -0.11581227664E+04  0.11581227664E+04  0.25500000000E-02 0.  1.
    8880023    1    1    2    0    0 -0.61036682573E+03  0.64326425750E+03  0.11431682215E+04  0.15896478717E+04  0.65864270000E+03 0. -1.
    8880022    1    1    2    0    0  0.61036682573E+03 -0.64326425750E+03 -0.71835096060E+03  0.11514149220E+04  0.15294330000E+03 0.  0.
<mgrwt>
<rscale>  0 0.10494142E+04</rscale>
<asrwt>0</asrwt>
<pdfrwt beam="1">  1        2 0.24352924E+00 0.11046025E+04</pdfrwt>
<pdfrwt beam="2">  1       -2 0.17817273E+00 0.11046025E+04</pdfrwt>
<totfact> 0.20873913E+00</totfact>
</mgrwt>
</event>
<event>
 4    2  0.3171963E-007  0.8397008E+03  0.7818608E-02  0.9630745E-01
          2   -1    0    0  501    0  0.00000000000E+00  0.00000000000E+00  0.80978647663E+03  0.80978647663E+03  0.25500000000E-02 0. -1.
         -2   -1    0    0    0  501 -0.00000000000E+00 -0.00000000000E+00 -0.79585762355E+03  0.79585762356E+03  0.25500000000E-02 0.  1.
    8880023    1    1    2    0    0  0.32980088315E+03  0.40313599159E+03  0.40923902109E+03  0.93411671267E+03  0.65864270000E+03 0. -1.
    8880022    1    1    2    0    0 -0.32980088315E+03 -0.40313599159E+03 -0.39531016801E+03  0.67152738752E+03  0.15294330000E+03 0.  0.
<mgrwt>
<rscale>  0 0.75294293E+03</rscale>
<asrwt>0</asrwt>
<pdfrwt beam="1">  1        2 0.12458254E+00 0.83970081E+03</pdfrwt>
<pdfrwt beam="2">  1       -2 0.12243963E+00 0.83970081E+03</pdfrwt>
<totfact> 0.17221795E+01</totfact>
</mgrwt>
</event>
<event>
 4    2  0.3171963E-007  0.9496733E+03  0.7818608E-02  0.9450584E-01
          2   -1    0    0  501    0  0.00000000000E+00  0.00000000000E+00  0.43785434712E+03  0.43785434713E+03  0.25500000000E-02 0. -1.
         -2   -1    0    0    0  501 -0.00000000000E+00 -0.00000000000E+00 -0.23309058318E+04  0.23309058318E+04  0.25500000000E-02 0.  1.
    8880023    1    1    2    0    0  0.39396697457E+03  0.55933813518E+03 -0.24943970763E+03  0.98188568607E+03  0.65864270000E+03 0.  0.
    8880022    1    1    2    0    0 -0.39396697457E+03 -0.55933813518E+03 -0.16436117770E+04  0.17868744928E+04  0.15294330000E+03 0.  0.
<mgrwt>
<rscale>  0 0.88027176E+03</rscale>
<asrwt>0</asrwt>
<pdfrwt beam="1">  1        2 0.67362209E-01 0.94967328E+03</pdfrwt>
<pdfrwt beam="2">  1       -2 0.35860089E+00 0.94967328E+03</pdfrwt>
<totfact> 0.10080063E+00</totfact>
</mgrwt>
</event>
<event>
 4    2  0.3171963E-007  0.7161914E+03  0.7818608E-02  0.9935690E-01
          2   -1    0    0  501    0  0.00000000000E+00  0.00000000000E+00  0.17850291424E+04  0.17850291424E+04  0.25500000000E-02 0. -1.
         -2   -1    0    0    0  501 -0.00000000000E+00 -0.00000000000E+00 -0.65619405257E+03  0.65619405258E+03  0.25500000000E-02 0.  1.
    8880023    1    1    2    0    0  0.27415055164E+03  0.62939983298E+02  0.16673828208E+04  0.18146888560E+04  0.65864270000E+03 0. -1.
    8880022    1    1    2    0    0 -0.27415055164E+03 -0.62939983298E+02 -0.53854773097E+03  0.62653433905E+03  0.15294330000E+03 0.  0.
<mgrwt>
<rscale>  0 0.58562348E+03</rscale>
<asrwt>0</asrwt>
<pdfrwt beam="1">  1        2 0.27461987E+00 0.71619144E+03</pdfrwt>
<pdfrwt beam="2">  1       -2 0.10095293E+00 0.71619144E+03</pdfrwt>
<totfact> 0.73595179E+00</totfact>
</mgrwt>
</event>
<event>
 4    2  0.3171963E-007  0.6918642E+03  0.7818608E-02  0.1003279E+00
          2   -1    0    0  501    0  0.00000000000E+00  0.00000000000E+00  0.11858430092E+04  0.11858430092E+04  0.25500000000E-02 0. -1.
         -2   -1    0    0    0  501 -0.00000000000E+00 -0.00000000000E+00 -0.67846278494E+03  0.67846278494E+03  0.25500000000E-02 0.  1.
    8880023    1    1    2    0    0  0.72817881464E+02  0.19890565728E+03  0.10526583471E+04  0.12596688876E+04  0.65864270000E+03 0. -1.
    8880022    1    1    2    0    0 -0.72817881464E+02 -0.19890565728E+03 -0.54527812291E+03  0.60463690650E+03  0.15294330000E+03 0.  0.
<mgrwt>
<rscale>  0 0.54235606E+03</rscale>
<asrwt>0</asrwt>
<pdfrwt beam="1">  1        2 0.18243739E+00 0.69186423E+03</pdfrwt>
<pdfrwt beam="2">  1       -2 0.10437889E+00 0.69186423E+03</pdfrwt>
<totfact> 0.14783165E+01</totfact>
</mgrwt>
</event>
<event>
 4    2  0.3171963E-007  0.6757222E+03  0.7818608E-02  0.1011855E+00
         -2   -1    0    0    0  501 -0.00000000000E+00  0.00000000000E+00  0.69863364949E+03  0.69863364949E+03  0.25500000000E-02 0.  1.
          2   -1    0    0  501    0  0.00000000000E+00 -0.00000000000E+00 -0.57771094402E+03  0.57771094403E+03  0.25500000000E-02 0. -1.
    8880023    1    1    2    0    0  0.16538568166E+02  0.15005582619E+03 -0.34833332068E+03  0.76022140444E+03  0.65864270000E+03 0. -1.
    8880022    1    1    2    0    0 -0.16538568166E+02 -0.15005582619E+03  0.46925602615E+03  0.51612318908E+03  0.15294330000E+03 0.  0.
<mgrwt>
<rscale>  0 0.50744052E+03</rscale>
<asrwt>0</asrwt>
<pdfrwt beam="1">  1        2 0.88878607E-01 0.67572219E+03</pdfrwt>
<pdfrwt beam="2">  1       -2 0.10748210E+00 0.67572219E+03</pdfrwt>
<totfact> 0.36741376E+01</totfact>
</mgrwt>
</event>
<event>
 4    2  0.3171963E-007  0.8560746E+03  0.7818608E-02  0.9600584E-01
          2   -1    0    0  501    0  0.00000000000E+00  0.00000000000E+00  0.36839693587E+04  0.36839693587E+04  0.25500000000E-02 0. -1.
         -2   -1    0    0    0  501 -0.00000000000E+00 -0.00000000000E+00 -0.34985374264E+03  0.34985374265E+03  0.25500000000E-02 0.  1.
    8880023    1    1    2    0    0 -0.54617079676E+03  0.27404051228E+02  0.33580732311E+04  0.34654753719E+04  0.65864270000E+03 0. -1.
    8880022    1    1    2    0    0  0.54617079676E+03 -0.27404051228E+02 -0.23957615075E+02  0.56834772947E+03  0.15294330000E+03 0.  0.
<mgrwt>
<rscale>  0 0.77257508E+03</rscale>
<asrwt>0</asrwt>
<pdfrwt beam="1">  1        2 0.56676451E+00 0.85607460E+03</pdfrwt>
<pdfrwt beam="2">  1       -2 0.53823653E-01 0.85607460E+03</pdfrwt>
<totfact> 0.20883067E+00</totfact>
</mgrwt>
</event>
<event>
 4    2  0.3171963E-007  0.6682779E+03  0.7818608E-02  0.1016929E+00
          2   -1    0    0  501    0  0.00000000000E+00  0.00000000000E+00  0.26457335936E+04  0.26457335936E+04  0.25500000000E-02 0. -1.
         -2   -1    0    0    0  501 -0.00000000000E+00 -0.00000000000E+00 -0.23549273702E+03  0.23549273704E+03  0.25500000000E-02 0.  1.
    8880023    1    1    2    0    0 -0.83096425455E+02 -0.76681633884E+02  0.25557958468E+04  0.26417205957E+04  0.65864270000E+03 0. -1.
    8880022    1    1    2    0    0  0.83096425455E+02  0.76681633884E+02 -0.14555499020E+03  0.23950573497E+03  0.15294330000E+03 0.  0.
<mgrwt>
<rscale>  0 0.48811425E+03</rscale>
<asrwt>0</asrwt>
<pdfrwt beam="1">  1        2 0.40703596E+00 0.66827786E+03</pdfrwt>
<pdfrwt beam="2">  1       -2 0.36229650E-01 0.66827786E+03</pdfrwt>
<totfact> 0.21799705E+01</totfact>
</mgrwt>
</event>
<event>
 4    2  0.3171963E-007  0.7076368E+03  0.7818608E-02  0.9966883E-01
          2   -1    0    0  501    0  0.00000000000E+00  0.00000000000E+00  0.15905990891E+04  0.15905990891E+04  0.25500000000E-02 0. -1.
         -2   -1    0    0    0  501 -0.00000000000E+00 -0.00000000000E+00 -0.38325914880E+03  0.38325914881E+03  0.25500000000E-02 0.  1.
    8880023    1    1    2    0    0 -0.21288556372E+03 -0.14703542394E+03  0.14328811864E+04  0.15980921061E+04  0.65864270000E+03 0. -1.
    8880022    1    1    2    0    0  0.21288556372E+03  0.14703542394E+03 -0.22554124604E+03  0.37576613181E+03  0.15294330000E+03 0.  0.
<mgrwt>
<rscale>  0 0.57126501E+03</rscale>
<asrwt>0</asrwt>
<pdfrwt beam="1">  1        2 0.24470755E+00 0.70763683E+03</pdfrwt>
<pdfrwt beam="2">  1       -2 0.58962945E-01 0.70763683E+03</pdfrwt>
<totfact> 0.31240857E+01</totfact>
</mgrwt>
</event>
<event>
 4    2  0.3171963E-007  0.9771684E+03  0.7818608E-02  0.9412057E-01
         -2   -1    0    0    0  501 -0.00000000000E+00  0.00000000000E+00  0.29770119048E+04  0.29770119048E+04  0.25500000000E-02 0.  1.
          2   -1    0    0  501    0  0.00000000000E+00 -0.00000000000E+00 -0.67785411979E+03  0.67785411980E+03  0.25500000000E-02 0. -1.
    8880023    1    1    2    0    0 -0.23588530785E+03  0.68220676885E+03 -0.24371669955E+03  0.10071027702E+04  0.65864270000E+03 0.  0.
    8880022    1    1    2    0    0  0.23588530785E+03 -0.68220676885E+03  0.25428744845E+04  0.26477632543E+04  0.15294330000E+03 0.  0.
<mgrwt>
<rscale>  0 0.91090018E+03</rscale>
<asrwt>0</asrwt>
<pdfrwt beam="1">  1        2 0.10428525E+00 0.97716844E+03</pdfrwt>
<pdfrwt beam="2">  1       -2 0.45800183E+00 0.97716844E+03</pdfrwt>
<totfact> 0.13406239E-01</totfact>
</mgrwt>
</event>
<event>
 4    2  0.3171963E-007  0.7192093E+03  0.7818608E-02  0.9925271E-01
         -2   -1    0    0    0  501 -0.00000000000E+00  0.00000000000E+00  0.17024788208E+04  0.17024788208E+04  0.25500000000E-02 0.  1.
          2   -1    0    0  501    0  0.00000000000E+00 -0.00000000000E+00 -0.24375296406E+03  0.24375296407E+03  0.25500000000E-02 0. -1.
    8880023    1    1    2    0    0 -0.28487194175E+03  0.47956086349E+02  0.36861580343E+03  0.80817054278E+03  0.65864270000E+03 0.  0.
    8880022    1    1    2    0    0  0.28487194175E+03 -0.47956086349E+02  0.10901100534E+04  0.11380612421E+04  0.15294330000E+03 0.  1.
<mgrwt>
<rscale>  0 0.59052048E+03</rscale>
<asrwt>0</asrwt>
<pdfrwt beam="1">  1        2 0.37500456E-01 0.71920930E+03</pdfrwt>
<pdfrwt beam="2">  1       -2 0.26191982E+00 0.71920930E+03</pdfrwt>
<totfact> 0.77655262E+00</totfact>
</mgrwt>
</event>
<event>
 4    2  0.3171963E-007  0.9259398E+03  0.7818608E-02  0.9485611E-01
          2   -1    0    0  501    0  0.00000000000E+00  0.00000000000E+00  0.14407305304E+04  0.14407305304E+04  0.25500000000E-02 0. -1.
         -2   -1    0    0    0  501 -0.00000000000E+00 -0.00000000000E+00 -0.93086210009E+03  0.93086210009E+03  0.25500000000E-02 0.  1.
    8880023    1    1    2    0    0  0.65078178852E+03 -0.61100116116E+01  0.11291805835E+04  0.14602784888E+04  0.65864270000E+03 0.  0.
    8880022    1    1    2    0    0 -0.65078178852E+03  0.61100116116E+01 -0.61931215325E+03  0.91131414160E+03  0.15294330000E+03 0.  0.
<mgrwt>
<rscale>  0 0.85353027E+03</rscale>
<asrwt>0</asrwt>
<pdfrwt beam="1">  1        2 0.22165085E+00 0.92593978E+03</pdfrwt>
<pdfrwt beam="2">  1       -2 0.14320955E+00 0.92593978E+03</pdfrwt>
<totfact> 0.46482267E+00</totfact>
</mgrwt>
</event>
<event>
 4    2  0.3171963E-007  0.7500840E+03  0.7818608E-02  0.9831490E-01
         -2   -1    0    0    0  501 -0.00000000000E+00  0.00000000000E+00  0.10808297057E+04  0.10808297057E+04  0.25500000000E-02 0.  1.
          2   -1    0    0  501    0  0.00000000000E+00 -0.00000000000E+00 -0.95629070835E+03  0.95629070835E+03  0.25500000000E-02 0. -1.
    8880023    1    1    2    0    0  0.32408155223E+03 -0.15423007279E+03 -0.76156775907E+03  0.10689300378E+04  0.65864270000E+03 0. -1.
    8880022    1    1    2    0    0 -0.32408155223E+03  0.15423007279E+03  0.88610675645E+03  0.96819037626E+03  0.15294330000E+03 0.  0.
<mgrwt>
<rscale>  0 0.63699628E+03</rscale>
<asrwt>0</asrwt>
<pdfrwt beam="1">  1        2 0.14712165E+00 0.75008398E+03</pdfrwt>
<pdfrwt beam="2">  1       -2 0.16628149E+00 0.75008398E+03</pdfrwt>
<totfact> 0.62120519E+00</totfact>
</mgrwt>
</event>
<event>
 4    2  0.3171963E-007  0.6824002E+03  0.7818608E-02  0.1007997E+00
          2   -1    0    0  501    0  0.00000000000E+00  0.00000000000E+00  0.15786815287E+04  0.15786815287E+04  0.25500000000E-02 0. -1.
         -2   -1    0    0    0  501 -0.00000000000E+00 -0.00000000000E+00 -0.19640120112E+03  0.19640120113E+03  0.25500000000E-02 0.  1.
    8880023    1    1    2    0    0 -0.15993015721E+03  0.79260430699E+02  0.13805766617E+04  0.15400201285E+04  0.65864270000E+03 0. -1.
    8880022    1    1    2    0    0  0.15993015721E+03 -0.79260430699E+02  0.17036658733E+01  0.23506260134E+03  0.15294330000E+03 0.  0.
<mgrwt>
<rscale>  0 0.52278414E+03</rscale>
<asrwt>0</asrwt>
<pdfrwt beam="1">  1        2 0.24287408E+00 0.68240023E+03</pdfrwt>
<pdfrwt beam="2">  1       -2 0.30215570E-01 0.68240023E+03</pdfrwt>
<totfact> 0.11883015E+02</totfact>
</mgrwt>
</event>
<event>
 4    2  0.3171963E-007  0.1592502E+04  0.7818608E-02  0.8846936E-01
          2   -1    0    0  501    0  0.00000000000E+00  0.00000000000E+00  0.19906215532E+04  0.19906215532E+04  0.25500000000E-02 0. -1.
         -2   -1    0    0    0  501 -0.00000000000E+00 -0.00000000000E+00 -0.16598189721E+04  0.16598189721E+04  0.25500000000E-02 0.  1.
    8880023    1    1    2    0    0 -0.39353304823E+03 -0.13954866397E+04 -0.82167711002E+03  0.17919862446E+04  0.65864270000E+03 0.  0.
    8880022    1    1    2    0    0  0.39353304823E+03  0.13954866397E+04  0.11524796912E+04  0.18584542806E+04  0.15294330000E+03 0.  0.
<mgrwt>
<rscale>  0 0.15577444E+04</rscale>
<asrwt>0</asrwt>
<pdfrwt beam="1">  1        2 0.30624947E+00 0.15925016E+04</pdfrwt>
<pdfrwt beam="2">  1       -2 0.25535677E+00 0.15925016E+04</pdfrwt>
<totfact> 0.37394224E-01</totfact>
</mgrwt>
</event>
<event>
 4    2  0.3171963E-007  0.6870376E+03  0.7818608E-02  0.1005594E+00
          2   -1    0    0  501    0  0.00000000000E+00  0.00000000000E+00  0.29479747597E+04  0.29479747598E+04  0.25500000000E-02 0. -1.
         -2   -1    0    0    0  501 -0.00000000000E+00 -0.00000000000E+00 -0.25991989853E+03  0.25991989854E+03  0.25500000000E-02 0.  1.
    8880023    1    1    2    0    0 -0.35198731279E+02 -0.19227977879E+03  0.28366166166E+04  0.29186322995E+04  0.65864270000E+03 0. -1.
    8880022    1    1    2    0    0  0.35198731279E+02  0.19227977879E+03 -0.14856175539E+03  0.28926235876E+03  0.15294330000E+03 0.  0.
<mgrwt>
<rscale>  0 0.53264130E+03</rscale>
<asrwt>0</asrwt>
<pdfrwt beam="1">  1        2 0.45353458E+00 0.68703760E+03</pdfrwt>
<pdfrwt beam="2">  1       -2 0.39987677E-01 0.68703760E+03</pdfrwt>
<totfact> 0.11915438E+01</totfact>
</mgrwt>
</event>
<event>
 4    2  0.3171963E-007  0.7893458E+03  0.7818608E-02  0.9734325E-01
          2   -1    0    0  501    0  0.00000000000E+00  0.00000000000E+00  0.13358960693E+04  0.13358960693E+04  0.25500000000E-02 0. -1.
         -2   -1    0    0    0  501 -0.00000000000E+00 -0.00000000000E+00 -0.44836983176E+03  0.44836983177E+03  0.25500000000E-02 0.  1.
    8880023    1    1    2    0    0 -0.13209372625E+03  0.41449704749E+03  0.10336077123E+04  0.13005428344E+04  0.65864270000E+03 0.  0.
    8880022    1    1    2    0    0  0.13209372625E+03 -0.41449704749E+03 -0.14608147482E+03  0.48372306663E+03  0.15294330000E+03 0.  0.
<mgrwt>
<rscale>  0 0.69009389E+03</rscale>
<asrwt>0</asrwt>
<pdfrwt beam="1">  1        2 0.20552247E+00 0.78934578E+03</pdfrwt>
<pdfrwt beam="2">  1       -2 0.68979974E-01 0.78934578E+03</pdfrwt>
<totfact> 0.30736970E+01</totfact>
</mgrwt>
</event>
<event>
 4    2  0.3171963E-007  0.7974370E+03  0.7818608E-02  0.9716365E-01
          2   -1    0    0  501    0  0.00000000000E+00  0.00000000000E+00  0.29891997642E+04  0.29891997642E+04  0.25500000000E-02 0. -1.
         -2   -1    0    0    0  501 -0.00000000000E+00 -0.00000000000E+00 -0.16891043184E+03  0.16891043186E+03  0.25500000000E-02 0.  1.
    8880023    1    1    2    0    0 -0.42813930327E+03  0.13708501343E+03  0.23818694682E+04  0.25118136741E+04  0.65864270000E+03 0. -1.
    8880022    1    1    2    0    0  0.42813930327E+03 -0.13708501343E+03  0.43841986418E+03  0.64629652191E+03  0.15294330000E+03 0.  1.
<mgrwt>
<rscale>  0 0.70050708E+03</rscale>
<asrwt>0</asrwt>
<pdfrwt beam="1">  1        2 0.45987685E+00 0.79743700E+03</pdfrwt>
<pdfrwt beam="2">  1       -2 0.25986222E-01 0.79743700E+03</pdfrwt>
<totfact> 0.24811942E+01</totfact>
</mgrwt>
</event>
<event>
 4    2  0.3171963E-007  0.7328901E+03  0.7818608E-02  0.9881164E-01
          2   -1    0    0  501    0  0.00000000000E+00  0.00000000000E+00  0.19064059602E+04  0.19064059602E+04  0.25500000000E-02 0. -1.
         -2   -1    0    0    0  501 -0.00000000000E+00 -0.00000000000E+00 -0.30800681761E+03  0.30800681762E+03  0.25500000000E-02 0.  1.
    8880023    1    1    2    0    0  0.28742672958E+03  0.14388742192E+03  0.16940796972E+04  0.18458152513E+04  0.65864270000E+03 0.  0.
    8880022    1    1    2    0    0 -0.28742672958E+03 -0.14388742192E+03 -0.95680554592E+02  0.36859752658E+03  0.15294330000E+03 0.  0.
<mgrwt>
<rscale>  0 0.61182925E+03</rscale>
<asrwt>0</asrwt>
<pdfrwt beam="1">  1        2 0.29329322E+00 0.73289012E+03</pdfrwt>
<pdfrwt beam="2">  1       -2 0.47385664E-01 0.73289012E+03</pdfrwt>
<totfact> 0.32823177E+01</totfact>
</mgrwt>
</event>
<event>
 4    2  0.3171963E-007  0.8131049E+03  0.7818608E-02  0.9683145E-01
          2   -1    0    0  501    0  0.00000000000E+00  0.00000000000E+00  0.66075480980E+03  0.66075480980E+03  0.25500000000E-02 0. -1.
         -2   -1    0    0    0  501 -0.00000000000E+00 -0.00000000000E+00 -0.11755029686E+04  0.11755029686E+04  0.25500000000E-02 0.  1.
    8880023    1    1    2    0    0  0.34552339044E+03  0.32854666188E+03 -0.89374937100E+03  0.12082745825E+04  0.65864270000E+03 0.  0.
    8880022    1    1    2    0    0 -0.34552339044E+03 -0.32854666188E+03  0.37900121223E+03  0.62798319584E+03  0.15294330000E+03 0.  0.
<mgrwt>
<rscale>  0 0.72029227E+03</rscale>
<asrwt>0</asrwt>
<pdfrwt beam="1">  1        2 0.10165459E+00 0.81310487E+03</pdfrwt>
<pdfrwt beam="2">  1       -2 0.18084661E+00 0.81310487E+03</pdfrwt>
<totfact> 0.79671525E+00</totfact>
</mgrwt>
</event>
<event>
 4    2  0.3171963E-007  0.6696614E+03  0.7818608E-02  0.1015907E+00
          2   -1    0    0  501    0  0.00000000000E+00  0.00000000000E+00  0.36322325136E+04  0.36322325136E+04  0.25500000000E-02 0. -1.
         -2   -1    0    0    0  501 -0.00000000000E+00 -0.00000000000E+00 -0.33735522830E+03  0.33735522831E+03  0.25500000000E-02 0.  1.
    8880023    1    1    2    0    0  0.76408709327E+02  0.93797247324E+02  0.35700548070E+04  0.36323185083E+04  0.65864270000E+03 0. -1.
    8880022    1    1    2    0    0 -0.76408709327E+02 -0.93797247324E+02 -0.27517752172E+03  0.33726923361E+03  0.15294330000E+03 0.  0.
<mgrwt>
<rscale>  0 0.49193102E+03</rscale>
<asrwt>0</asrwt>
<pdfrwt beam="1">  1        2 0.55880503E+00 0.66966142E+03</pdfrwt>
<pdfrwt beam="2">  1       -2 0.51900802E-01 0.66966142E+03</pdfrwt>
<totfact> 0.25539877E+00</totfact>
</mgrwt>
</event>
<event>
 4    2  0.3171963E-007  0.8098752E+03  0.7818608E-02  0.9689837E-01
          2   -1    0    0  501    0  0.00000000000E+00  0.00000000000E+00  0.85222448395E+03  0.85222448395E+03  0.25500000000E-02 0. -1.
         -2   -1    0    0    0  501 -0.00000000000E+00 -0.00000000000E+00 -0.79495611635E+03  0.79495611635E+03  0.25500000000E-02 0.  1.
    8880023    1    1    2    0    0  0.39080037001E+03  0.26336794695E+03  0.52554093762E+03  0.96544864600E+03  0.65864270000E+03 0.  0.
    8880022    1    1    2    0    0 -0.39080037001E+03 -0.26336794695E+03 -0.46827257002E+03  0.68173195431E+03  0.15294330000E+03 0.  0.
<mgrwt>
<rscale>  0 0.71625129E+03</rscale>
<asrwt>0</asrwt>
<pdfrwt beam="1">  1        2 0.13111146E+00 0.80987518E+03</pdfrwt>
<pdfrwt beam="2">  1       -2 0.12230094E+00 0.80987518E+03</pdfrwt>
<totfact> 0.16164496E+01</totfact>
</mgrwt>
</event>
<event>
 4    2  0.3171963E-007  0.7549485E+03  0.7818608E-02  0.9818365E-01
          2   -1    0    0  501    0  0.00000000000E+00  0.00000000000E+00  0.11102872693E+04  0.11102872693E+04  0.25500000000E-02 0. -1.
         -2   -1    0    0    0  501 -0.00000000000E+00 -0.00000000000E+00 -0.88893001535E+03  0.88893001536E+03  0.25500000000E-02 0.  1.
    8880023    1    1    2    0    0 -0.36399140570E+03 -0.60393147184E+02  0.92265432914E+03  0.11921569918E+04  0.65864270000E+03 0. -1.
    8880022    1    1    2    0    0  0.36399140570E+03  0.60393147184E+02 -0.70129707520E+03  0.80706029289E+03  0.15294330000E+03 0.  0.
<mgrwt>
<rscale>  0 0.64386211E+03</rscale>
<asrwt>0</asrwt>
<pdfrwt beam="1">  1        2 0.17081343E+00 0.75494853E+03</pdfrwt>
<pdfrwt beam="2">  1       -2 0.13675846E+00 0.75494853E+03</pdfrwt>
<totfact> 0.83454529E+00</totfact>
</mgrwt>
</event>
<event>
 4    2  0.3171963E-007  0.6960724E+03  0.7818608E-02  0.1001390E+00
          2   -1    0    0  501    0  0.00000000000E+00  0.00000000000E+00  0.34552109215E+04  0.34552109215E+04  0.25500000000E-02 0. -1.
         -2   -1    0    0    0  501 -0.00000000000E+00 -0.00000000000E+00 -0.17252374684E+03  0.17252374686E+03  0.25500000000E-02 0.  1.
    8880023    1    1    2    0    0  0.16717195762E+03  0.15086446551E+03  0.32825340439E+04  0.33555247735E+04  0.65864270000E+03 0. -1.
    8880022    1    1    2    0    0 -0.16717195762E+03 -0.15086446551E+03  0.15313077828E+00  0.27220989481E+03  0.15294330000E+03 0.  0.
<mgrwt>
<rscale>  0 0.55044859E+03</rscale>
<asrwt>0</asrwt>
<pdfrwt beam="1">  1        2 0.53157083E+00 0.69607238E+03</pdfrwt>
<pdfrwt beam="2">  1       -2 0.26542119E-01 0.69607238E+03</pdfrwt>
<totfact> 0.12222151E+01</totfact>
</mgrwt>
</event>
<event>
 4    2  0.3171963E-007  0.7399994E+03  0.7818608E-02  0.9859949E-01
         -2   -1    0    0    0  501 -0.00000000000E+00  0.00000000000E+00  0.52714699327E+03  0.52714699327E+03  0.25500000000E-02 0.  1.
          2   -1    0    0  501    0  0.00000000000E+00 -0.00000000000E+00 -0.14925688411E+04  0.14925688411E+04  0.25500000000E-02 0. -1.
    8880023    1    1    2    0    0 -0.27704158504E+03 -0.19244983389E+03 -0.13159637033E+04  0.15097548321E+04  0.65864270000E+03 0. -1.
    8880022    1    1    2    0    0  0.27704158504E+03  0.19244983389E+03  0.35054185546E+03  0.50996100228E+03  0.15294330000E+03 0.  0.
<mgrwt>
<rscale>  0 0.62242230E+03</rscale>
<asrwt>0</asrwt>
<pdfrwt beam="1">  1        2 0.22962597E+00 0.73999945E+03</pdfrwt>
<pdfrwt beam="2">  1       -2 0.81099538E-01 0.73999945E+03</pdfrwt>
<totfact> 0.17614331E+01</totfact>
</mgrwt>
</event>
<event>
 4    2  0.3171963E-007  0.7210500E+03  0.7818608E-02  0.9919049E-01
         -2   -1    0    0    0  501 -0.00000000000E+00  0.00000000000E+00  0.29856782780E+03  0.29856782781E+03  0.25500000000E-02 0.  1.
          2   -1    0    0  501    0  0.00000000000E+00 -0.00000000000E+00 -0.13677949376E+04  0.13677949376E+04  0.25500000000E-02 0. -1.
    8880023    1    1    2    0    0  0.13447776001E+03  0.26080377410E+03 -0.11195534720E+04  0.13316580115E+04  0.65864270000E+03 0.  0.
    8880022    1    1    2    0    0 -0.13447776001E+03 -0.26080377410E+03  0.50326362277E+02  0.33470475389E+03  0.15294330000E+03 0.  0.
<mgrwt>
<rscale>  0 0.59346906E+03</rscale>
<asrwt>0</asrwt>
<pdfrwt beam="1">  1        2 0.21042999E+00 0.72104999E+03</pdfrwt>
<pdfrwt beam="2">  1       -2 0.45933513E-01 0.72104999E+03</pdfrwt>
<totfact> 0.69317126E+01</totfact>
</mgrwt>
</event>
<event>
 4    2  0.3171963E-007  0.7603647E+03  0.7818608E-02  0.9804164E-01
          2   -1    0    0  501    0  0.00000000000E+00  0.00000000000E+00  0.23521086297E+04  0.23521086297E+04  0.25500000000E-02 0. -1.
         -2   -1    0    0    0  501 -0.00000000000E+00 -0.00000000000E+00 -0.34092497292E+03  0.34092497293E+03  0.25500000000E-02 0.  1.
    8880023    1    1    2    0    0  0.43814239523E+02  0.37739186674E+03  0.21340350394E+04  0.22654491970E+04  0.65864270000E+03 0.  0.
    8880022    1    1    2    0    0 -0.43814239523E+02 -0.37739186674E+03 -0.12285138264E+03  0.42758440558E+03  0.15294330000E+03 0.  0.
<mgrwt>
<rscale>  0 0.65139548E+03</rscale>
<asrwt>0</asrwt>
<pdfrwt beam="1">  1        2 0.36186287E+00 0.76036472E+03</pdfrwt>
<pdfrwt beam="2">  1       -2 0.52449995E-01 0.76036472E+03</pdfrwt>
<totfact> 0.15129687E+01</totfact>
</mgrwt>
</event>
<event>
 4    2  0.3171963E-007  0.7954295E+03  0.7818608E-02  0.9720767E-01
          2   -1    0    0  501    0  0.00000000000E+00  0.00000000000E+00  0.85787852211E+03  0.85787852211E+03  0.25500000000E-02 0. -1.
         -2   -1    0    0    0  501 -0.00000000000E+00 -0.00000000000E+00 -0.13071226125E+04  0.13071226125E+04  0.25500000000E-02 0.  1.
    8880023    1    1    2    0    0 -0.31073005841E+03 -0.31991371607E+03  0.61207872395E+03  0.10036675373E+04  0.65864270000E+03 0. -1.
    8880022    1    1    2    0    0  0.31073005841E+03  0.31991371607E+03 -0.10613228144E+04  0.11613335973E+04  0.15294330000E+03 0.  0.
<mgrwt>
<rscale>  0 0.69793694E+03</rscale>
<asrwt>0</asrwt>
<pdfrwt beam="1">  1        2 0.13198131E+00 0.79542955E+03</pdfrwt>
<pdfrwt beam="2">  1       -2 0.20109579E+00 0.79542955E+03</pdfrwt>
<totfact> 0.41671953E+00</totfact>
</mgrwt>
</event>
<event>
 4    2  0.3171963E-007  0.6675034E+03  0.7818608E-02  0.1017520E+00
         -2   -1    0    0    0  501 -0.00000000000E+00  0.00000000000E+00  0.36853898962E+03  0.36853898963E+03  0.25500000000E-02 0.  1.
          2   -1    0    0  501    0  0.00000000000E+00 -0.00000000000E+00 -0.28345080241E+04  0.28345080241E+04  0.25500000000E-02 0. -1.
    8880023    1    1    2    0    0  0.10811827761E+03  0.78080256579E+01 -0.27681216699E+04  0.28474652435E+04  0.65864270000E+03 0. -1.
    8880022    1    1    2    0    0 -0.10811827761E+03 -0.78080256579E+01  0.30215263543E+03  0.35558177024E+03  0.15294330000E+03 0.  0.
<mgrwt>
<rscale>  0 0.48592437E+03</rscale>
<asrwt>0</asrwt>
<pdfrwt beam="1">  1        2 0.43607814E+00 0.66750336E+03</pdfrwt>
<pdfrwt beam="2">  1       -2 0.56698308E-01 0.66750336E+03</pdfrwt>
<totfact> 0.69230558E+00</totfact>
</mgrwt>
</event>
<event>
 4    2  0.3171963E-007  0.8075115E+03  0.7818608E-02  0.9694784E-01
         -2   -1    0    0    0  501 -0.00000000000E+00  0.00000000000E+00  0.12101429069E+04  0.12101429069E+04  0.25500000000E-02 0.  1.
          2   -1    0    0  501    0  0.00000000000E+00 -0.00000000000E+00 -0.56263240417E+03  0.56263240418E+03  0.25500000000E-02 0. -1.
    8880023    1    1    2    0    0 -0.41152471967E+03  0.22116059815E+03 -0.16398750974E+03  0.82399436569E+03  0.65864270000E+03 0. -1.
    8880022    1    1    2    0    0  0.41152471967E+03 -0.22116059815E+03  0.81149801247E+03  0.94878094539E+03  0.15294330000E+03 0.  0.
<mgrwt>
<rscale>  0 0.71328204E+03</rscale>
<asrwt>0</asrwt>
<pdfrwt beam="1">  1        2 0.86558831E-01 0.80751149E+03</pdfrwt>
<pdfrwt beam="2">  1       -2 0.18617583E+00 0.80751149E+03</pdfrwt>
<totfact> 0.89171814E+00</totfact>
</mgrwt>
</event>
<event>
 4    2  0.3171963E-007  0.7153363E+03  0.7818608E-02  0.9938694E-01
          2   -1    0    0  501    0  0.00000000000E+00  0.00000000000E+00  0.82111772517E+03  0.82111772518E+03  0.25500000000E-02 0. -1.
         -2   -1    0    0    0  501 -0.00000000000E+00 -0.00000000000E+00 -0.43285080473E+03  0.43285080473E+03  0.25500000000E-02 0.  1.
    8880023    1    1    2    0    0  0.25469806620E+03 -0.11412554658E+03  0.54492044932E+03  0.89924648882E+03  0.65864270000E+03 0. -1.
    8880022    1    1    2    0    0 -0.25469806620E+03  0.11412554658E+03 -0.15665352887E+03  0.35472204109E+03  0.15294330000E+03 0.  0.
<mgrwt>
<rscale>  0 0.58422092E+03</rscale>
<asrwt>0</asrwt>
<pdfrwt beam="1">  1        2 0.12632580E+00 0.71533625E+03</pdfrwt>
<pdfrwt beam="2">  1       -2 0.66592431E-01 0.71533625E+03</pdfrwt>
<totfact> 0.70024423E+01</totfact>
</mgrwt>
</event>
<event>
 4    2  0.3171963E-007  0.1168783E+04  0.7818608E-02  0.9188081E-01
          2   -1    0    0  501    0  0.00000000000E+00  0.00000000000E+00  0.20443672187E+04  0.20443672187E+04  0.25500000000E-02 0. -1.
         -2   -1    0    0    0  501 -0.00000000000E+00 -0.00000000000E+00 -0.82630956383E+03  0.82630956383E+03  0.25500000000E-02 0.  1.
    8880023    1    1    2    0    0 -0.88713511600E+03 -0.38109661150E+03  0.14535260380E+04  0.18651518680E+04  0.65864270000E+03 0. -1.
    8880022    1    1    2    0    0  0.88713511600E+03  0.38109661150E+03 -0.23546838309E+03  0.10055249146E+04  0.15294330000E+03 0.  0.
<mgrwt>
<rscale>  0 0.11177300E+04</rscale>
<asrwt>0</asrwt>
<pdfrwt beam="1">  1        2 0.31451803E+00 0.11687829E+04</pdfrwt>
<pdfrwt beam="2">  1       -2 0.12712455E+00 0.11687829E+04</pdfrwt>
<totfact> 0.28400697E+00</totfact>
</mgrwt>
</event>
<event>
 4    2  0.3171963E-007  0.8240306E+03  0.7818608E-02  0.9661060E-01
          2   -1    0    0  501    0  0.00000000000E+00  0.00000000000E+00  0.26544972784E+04  0.26544972784E+04  0.25500000000E-02 0. -1.
         -2   -1    0    0    0  501 -0.00000000000E+00 -0.00000000000E+00 -0.29195261957E+03  0.29195261958E+03  0.25500000000E-02 0.  1.
    8880023    1    1    2    0    0 -0.29369001815E+03 -0.39870096102E+03  0.22765421337E+04  0.24210887170E+04  0.65864270000E+03 0. -1.
    8880022    1    1    2    0    0  0.29369001815E+03  0.39870096102E+03  0.86002525121E+02  0.52536118092E+03  0.15294330000E+03 0. -1.
<mgrwt>
<rscale>  0 0.73383323E+03</rscale>
<asrwt>0</asrwt>
<pdfrwt beam="1">  1        2 0.40838420E+00 0.82403064E+03</pdfrwt>
<pdfrwt beam="2">  1       -2 0.44915788E-01 0.82403064E+03</pdfrwt>
<totfact> 0.13809500E+01</totfact>
</mgrwt>
</event>
<event>
 4    2  0.3171963E-007  0.6797177E+03  0.7818608E-02  0.1009484E+00
          2   -1    0    0  501    0  0.00000000000E+00  0.00000000000E+00  0.53595673682E+03  0.53595673682E+03  0.25500000000E-02 0. -1.
         -2   -1    0    0    0  501 -0.00000000000E+00 -0.00000000000E+00 -0.10084010965E+04  0.10084010965E+04  0.25500000000E-02 0.  1.
    8880023    1    1    2    0    0  0.86986310641E+02  0.14366378183E+03  0.29723028771E+03  0.74186383565E+03  0.65864270000E+03 0. -1.
    8880022    1    1    2    0    0 -0.86986310641E+02 -0.14366378183E+03 -0.76967464736E+03  0.80249399764E+03  0.15294330000E+03 0.  0.
<mgrwt>
<rscale>  0 0.51680304E+03</rscale>
<asrwt>0</asrwt>
<pdfrwt beam="1">  1        2 0.82454883E-01 0.67971767E+03</pdfrwt>
<pdfrwt beam="2">  1       -2 0.15513863E+00 0.67971767E+03</pdfrwt>
<totfact> 0.15877688E+01</totfact>
</mgrwt>
</event>
<event>
 4    2  0.3171963E-007  0.6647874E+03  0.7818608E-02  0.1019712E+00
          2   -1    0    0  501    0  0.00000000000E+00  0.00000000000E+00  0.21271462738E+04  0.21271462738E+04  0.25500000000E-02 0. -1.
         -2   -1    0    0    0  501 -0.00000000000E+00 -0.00000000000E+00 -0.52212420461E+03  0.52212420462E+03  0.25500000000E-02 0.  1.
    8880023    1    1    2    0    0  0.22983789576E+02  0.87199911621E+02  0.20580164954E+04  0.21627237875E+04  0.65864270000E+03 0. -1.
    8880022    1    1    2    0    0 -0.22983789576E+02 -0.87199911621E+02 -0.45299442629E+03  0.48654669091E+03  0.15294330000E+03 0.  0.
<mgrwt>
<rscale>  0 0.47790523E+03</rscale>
<asrwt>0</asrwt>
<pdfrwt beam="1">  1        2 0.32725327E+00 0.66478740E+03</pdfrwt>
<pdfrwt beam="2">  1       -2 0.80326802E-01 0.66478740E+03</pdfrwt>
<totfact> 0.81909810E+00</totfact>
</mgrwt>
</event>
<event>
 4    2  0.3171963E-007  0.1619743E+04  0.7818608E-02  0.8829405E-01
          2   -1    0    0  501    0  0.00000000000E+00  0.00000000000E+00  0.19377715495E+04  0.19377715495E+04  0.25500000000E-02 0. -1.
         -2   -1    0    0    0  501 -0.00000000000E+00 -0.00000000000E+00 -0.26495498359E+04  0.26495498359E+04  0.25500000000E-02 0.  1.
    8880023    1    1    2    0    0 -0.14744354773E+04 -0.12568502463E+03 -0.20318225080E+04  0.25984359935E+04  0.65864270000E+03 0.  0.
    8880022    1    1    2    0    0  0.14744354773E+04  0.12568502463E+03  0.13200442215E+04  0.19888853919E+04  0.15294330000E+03 0.  0.
<mgrwt>
<rscale>  0 0.15856629E+04</rscale>
<asrwt>0</asrwt>
<pdfrwt beam="1">  1        2 0.29811870E+00 0.16197429E+04</pdfrwt>
<pdfrwt beam="2">  1       -2 0.40762305E+00 0.16197429E+04</pdfrwt>
<totfact> 0.44288469E-02</totfact>
</mgrwt>
</event>
<event>
 4    2  0.3171963E-007  0.8383150E+03  0.7818608E-02  0.9633366E-01
         -2   -1    0    0    0  501 -0.00000000000E+00  0.00000000000E+00  0.52087056035E+03  0.52087056036E+03  0.25500000000E-02 0.  1.
          2   -1    0    0  501    0  0.00000000000E+00 -0.00000000000E+00 -0.18753381981E+04  0.18753381981E+04  0.25500000000E-02 0. -1.
    8880023    1    1    2    0    0  0.43573267530E+03  0.28124526503E+03 -0.15969617453E+04  0.18036238205E+04  0.65864270000E+03 0.  0.
    8880022    1    1    2    0    0 -0.43573267530E+03 -0.28124526503E+03  0.24249410764E+03  0.59258493794E+03  0.15294330000E+03 0.  0.
<mgrwt>
<rscale>  0 0.75126642E+03</rscale>
<asrwt>0</asrwt>
<pdfrwt beam="1">  1        2 0.28851357E+00 0.83831502E+03</pdfrwt>
<pdfrwt beam="2">  1       -2 0.80133933E-01 0.83831502E+03</pdfrwt>
<totfact> 0.11006406E+01</totfact>
</mgrwt>
</event>
<event>
 4    2  0.3171963E-007  0.7230056E+03  0.7818608E-02  0.9912544E-01
         -2   -1    0    0    0  501 -0.00000000000E+00  0.00000000000E+00  0.13859689020E+04  0.13859689020E+04  0.25500000000E-02 0.  1.
          2   -1    0    0  501    0  0.00000000000E+00 -0.00000000000E+00 -0.40564796910E+03  0.40564796911E+03  0.25500000000E-02 0. -1.
    8880023    1    1    2    0    0  0.29054284979E+03 -0.67170046444E+02 -0.33557008142E+02  0.72378397451E+03  0.65864270000E+03 0. -1.
    8880022    1    1    2    0    0 -0.29054284979E+03  0.67170046444E+02  0.10138779411E+04  0.10678328966E+04  0.15294330000E+03 0.  0.
<mgrwt>
<rscale>  0 0.59657182E+03</rscale>
<asrwt>0</asrwt>
<pdfrwt beam="1">  1        2 0.62407380E-01 0.72300565E+03</pdfrwt>
<pdfrwt beam="2">  1       -2 0.21322599E+00 0.72300565E+03</pdfrwt>
<totfact> 0.87483610E+00</totfact>
</mgrwt>
</event>
<event>
 4    2  0.3171963E-007  0.6619681E+03  0.7818608E-02  0.1022225E+00
          2   -1    0    0  501    0  0.00000000000E+00  0.00000000000E+00  0.22100103292E+04  0.22100103292E+04  0.25500000000E-02 0. -1.
         -2   -1    0    0    0  501 -0.00000000000E+00 -0.00000000000E+00 -0.16462099215E+03  0.16462099217E+03  0.25500000000E-02 0.  1.
    8880023    1    1    2    0    0  0.28997027942E+02 -0.59587527468E+02  0.20979098647E+04  0.21998698843E+04  0.65864270000E+03 0.  0.
    8880022    1    1    2    0    0 -0.28997027942E+02  0.59587527468E+02 -0.52520527645E+02  0.17476143710E+03  0.15294330000E+03 0.  1.
<mgrwt>
<rscale>  0 0.46892185E+03</rscale>
<asrwt>0</asrwt>
<pdfrwt beam="1">  1        2 0.34000154E+00 0.66196806E+03</pdfrwt>
<pdfrwt beam="2">  1       -2 0.25326311E-01 0.66196806E+03</pdfrwt>
<totfact> 0.74468015E+01</totfact>
</mgrwt>
</event>
<event>
 4    2  0.3171963E-007  0.7605891E+03  0.7818608E-02  0.9803585E-01
         -2   -1    0    0    0  501 -0.00000000000E+00  0.00000000000E+00  0.37569728322E+03  0.37569728323E+03  0.25500000000E-02 0.  1.
          2   -1    0    0  501    0  0.00000000000E+00 -0.00000000000E+00 -0.23050819863E+04  0.23050819863E+04  0.25500000000E-02 0. -1.
    8880023    1    1    2    0    0 -0.12772235519E+03  0.35829124992E+03 -0.21024327840E+04  0.22357816166E+04  0.65864270000E+03 0. -1.
    8880022    1    1    2    0    0  0.12772235519E+03 -0.35829124992E+03  0.17304808090E+03  0.44499765291E+03  0.15294330000E+03 0.  0.
<mgrwt>
<rscale>  0 0.65170524E+03</rscale>
<asrwt>0</asrwt>
<pdfrwt beam="1">  1        2 0.35462799E+00 0.76058913E+03</pdfrwt>
<pdfrwt beam="2">  1       -2 0.57799584E-01 0.76058913E+03</pdfrwt>
<totfact> 0.13135588E+01</totfact>
</mgrwt>
</event>
<event>
 4    2  0.3171963E-007  0.6982852E+03  0.7818608E-02  0.1000439E+00
          2   -1    0    0  501    0  0.00000000000E+00  0.00000000000E+00  0.76003947870E+03  0.76003947870E+03  0.25500000000E-02 0. -1.
         -2   -1    0    0    0  501 -0.00000000000E+00 -0.00000000000E+00 -0.34720001667E+03  0.34720001668E+03  0.25500000000E-02 0.  1.
    8880023    1    1    2    0    0  0.11182201018E+03  0.20319425620E+03  0.44429096145E+03  0.82764529383E+03  0.65864270000E+03 0.  1.
    8880022    1    1    2    0    0 -0.11182201018E+03 -0.20319425620E+03 -0.31451499420E+02  0.27959420155E+03  0.15294330000E+03 0.  0.
<mgrwt>
<rscale>  0 0.55458148E+03</rscale>
<asrwt>0</asrwt>
<pdfrwt beam="1">  1        2 0.11692915E+00 0.69828524E+03</pdfrwt>
<pdfrwt beam="2">  1       -2 0.53415387E-01 0.69828524E+03</pdfrwt>
<totfact> 0.12354998E+02</totfact>
</mgrwt>
</event>
<event>
 4    2  0.3171963E-007  0.7165389E+03  0.7818608E-02  0.9934476E-01
          2   -1    0    0  501    0  0.00000000000E+00  0.00000000000E+00  0.17782016147E+04  0.17782016147E+04  0.25500000000E-02 0. -1.
         -2   -1    0    0    0  501 -0.00000000000E+00 -0.00000000000E+00 -0.24437671225E+03  0.24437671226E+03  0.25500000000E-02 0.  1.
    8880023    1    1    2    0    0 -0.25247565325E+03  0.12599156288E+03  0.15432551583E+04  0.17014889124E+04  0.65864270000E+03 0. -1.
    8880022    1    1    2    0    0  0.25247565325E+03 -0.12599156288E+03 -0.94302557747E+01  0.32108941456E+03  0.15294330000E+03 0.  0.
<mgrwt>
<rscale>  0 0.58619147E+03</rscale>
<asrwt>0</asrwt>
<pdfrwt beam="1">  1        2 0.27356949E+00 0.71653893E+03</pdfrwt>
<pdfrwt beam="2">  1       -2 0.37596416E-01 0.71653893E+03</pdfrwt>
<totfact> 0.60920216E+01</totfact>
</mgrwt>
</event>
<event>
 4    2  0.3171963E-007  0.8081530E+03  0.7818608E-02  0.9693437E-01
         -2   -1    0    0    0  501 -0.00000000000E+00  0.00000000000E+00  0.32426931164E+03  0.32426931165E+03  0.25500000000E-02 0.  1.
          2   -1    0    0  501    0  0.00000000000E+00 -0.00000000000E+00 -0.13075269700E+04  0.13075269700E+04  0.25500000000E-02 0. -1.
    8880023    1    1    2    0    0  0.46828943115E+03  0.24632854450E+01 -0.64858541751E+03  0.10362308185E+04  0.65864270000E+03 0.  0.
    8880022    1    1    2    0    0 -0.46828943115E+03 -0.24632854450E+01 -0.33467224081E+03  0.59556546314E+03  0.15294330000E+03 0.  1.
<mgrwt>
<rscale>  0 0.71408890E+03</rscale>
<asrwt>0</asrwt>
<pdfrwt beam="1">  1        2 0.20115799E+00 0.80815300E+03</pdfrwt>
<pdfrwt beam="2">  1       -2 0.49887587E-01 0.80815300E+03</pdfrwt>
<totfact> 0.63020258E+01</totfact>
</mgrwt>
</event>
<event>
 4    2  0.4301620E-007  0.9451359E+03  0.7818608E-02  0.9457147E-01
          2   -1    0    0  501    0  0.00000000000E+00  0.00000000000E+00  0.36874216589E+04  0.36874216589E+04  0.25500000000E-02 0. -1.
         -2   -1    0    0    0  501 -0.00000000000E+00 -0.00000000000E+00 -0.91325997875E+03  0.91325997875E+03  0.25500000000E-02 0.  1.
    8880023    1    1    2    0    0  0.44278963746E+03 -0.51323378478E+03  0.34824605752E+04  0.36084364267E+04  0.65864270000E+03 0.  0.
    8880022    1    1    2    0    0 -0.44278963746E+03  0.51323378478E+03 -0.70829889511E+03  0.99224521098E+03  0.15294330000E+03 0.  0.
<mgrwt>
<rscale>  0 0.87518265E+03</rscale>
<asrwt>0</asrwt>
<pdfrwt beam="1">  1        2 0.56729565E+00 0.94513586E+03</pdfrwt>
<pdfrwt beam="2">  1       -2 0.14050153E+00 0.94513586E+03</pdfrwt>
<totfact> 0.22256235E-01</totfact>
</mgrwt>
</event>
<event>
 4    2  0.3171963E-007  0.6635449E+03  0.7818608E-02  0.1020787E+00
         -2   -1    0    0    0  501 -0.00000000000E+00  0.00000000000E+00  0.55959796595E+03  0.55959796596E+03  0.25500000000E-02 0.  1.
          2   -1    0    0  501    0  0.00000000000E+00 -0.00000000000E+00 -0.41821414486E+03  0.41821414486E+03  0.25500000000E-02 0. -1.
    8880023    1    1    2    0    0 -0.69176057278E+02 -0.41186088464E+02 -0.11014407549E+03  0.67262437096E+03  0.65864270000E+03 0. -1.
    8880022    1    1    2    0    0  0.69176057278E+02  0.41186088464E+02  0.25152789659E+03  0.30518773986E+03  0.15294330000E+03 0.  0.
<mgrwt>
<rscale>  0 0.47403792E+03</rscale>
<asrwt>0</asrwt>
<pdfrwt beam="1">  1        2 0.64340638E-01 0.66354489E+03</pdfrwt>
<pdfrwt beam="2">  1       -2 0.86091994E-01 0.66354489E+03</pdfrwt>
<totfact> 0.89857280E+01</totfact>
</mgrwt>
</event>
<event>
 4    2  0.3171963E-007  0.8948666E+03  0.7818608E-02  0.9534323E-01
         -2   -1    0    0    0  501 -0.00000000000E+00  0.00000000000E+00  0.11237770775E+04  0.11237770775E+04  0.25500000000E-02 0.  1.
          2   -1    0    0  501    0  0.00000000000E+00 -0.00000000000E+00 -0.75701362226E+03  0.75701362227E+03  0.25500000000E-02 0. -1.
    8880023    1    1    2    0    0  0.49884471984E+03  0.34370038593E+03 -0.32184070228E+03  0.95098246761E+03  0.65864270000E+03 0.  0.
    8880022    1    1    2    0    0 -0.49884471984E+03 -0.34370038593E+03  0.68860415747E+03  0.92980823211E+03  0.15294330000E+03 0.  0.
<mgrwt>
<rscale>  0 0.81799933E+03</rscale>
<asrwt>0</asrwt>
<pdfrwt beam="1">  1        2 0.11646363E+00 0.89486659E+03</pdfrwt>
<pdfrwt beam="2">  1       -2 0.17288878E+00 0.89486659E+03</pdfrwt>
<totfact> 0.75474542E+00</totfact>
</mgrwt>
</event>
<event>
 4    2  0.3171963E-007  0.7817280E+03  0.7818608E-02  0.9751793E-01
         -2   -1    0    0    0  501 -0.00000000000E+00  0.00000000000E+00  0.16141183819E+03  0.16141183821E+03  0.25500000000E-02 0.  1.
          2   -1    0    0  501    0  0.00000000000E+00 -0.00000000000E+00 -0.29646176173E+04  0.29646176173E+04  0.25500000000E-02 0. -1.
    8880023    1    1    2    0    0  0.42002284122E+03  0.29483932461E+02 -0.10070483236E+04  0.12748509802E+04  0.65864270000E+03 0.  0.
    8880022    1    1    2    0    0 -0.42002284122E+03 -0.29483932461E+02 -0.17961574555E+04  0.18511784753E+04  0.15294330000E+03 0.  0.
<mgrwt>
<rscale>  0 0.68015017E+03</rscale>
<asrwt>0</asrwt>
<pdfrwt beam="1">  1        2 0.45609498E+00 0.78172802E+03</pdfrwt>
<pdfrwt beam="2">  1       -2 0.24832593E-01 0.78172802E+03</pdfrwt>
<totfact> 0.27949733E+01</totfact>
</mgrwt>
</event>
<event>
 4    2  0.3171963E-007  0.1901454E+04  0.7818608E-02  0.8668399E-01
         -2   -1    0    0    0  501 -0.00000000000E+00  0.00000000000E+00  0.11563130103E+04  0.11563130103E+04  0.25500000000E-02 0.  1.
          2   -1    0    0  501    0  0.00000000000E+00 -0.00000000000E+00 -0.39012639244E+04  0.39012639244E+04  0.25500000000E-02 0. -1.
    8880023    1    1    2    0    0  0.16826750196E+04 -0.59187942250E+03 -0.26541797526E+04  0.32649956872E+04  0.65864270000E+03 0.  0.
    8880022    1    1    2    0    0 -0.16826750196E+04  0.59187942250E+03 -0.90771161543E+02  0.17925812475E+04  0.15294330000E+03 0.  0.
<mgrwt>
<rscale>  0 0.18730297E+04</rscale>
<asrwt>0</asrwt>
<pdfrwt beam="1">  1        2 0.60019444E+00 0.19014538E+04</pdfrwt>
<pdfrwt beam="2">  1       -2 0.17789431E+00 0.19014538E+04</pdfrwt>
<totfact> 0.69900609E-02</totfact>
</mgrwt>
</event>
<event>
 4    2  0.3171963E-007  0.6921389E+03  0.7818608E-02  0.1003152E+00
          2   -1    0    0  501    0  0.00000000000E+00  0.00000000000E+00  0.42865621950E+04  0.42865621950E+04  0.25500000000E-02 0. -1.
         -2   -1    0    0    0  501 -0.00000000000E+00 -0.00000000000E+00 -0.21055214070E+03  0.21055214072E+03  0.25500000000E-02 0.  1.
    8880023    1    1    2    0    0 -0.13969947338E+03  0.16040615143E+03  0.41637036517E+04  0.42208392982E+04  0.65864270000E+03 0. -1.
    8880022    1    1    2    0    0  0.13969947338E+03 -0.16040615143E+03 -0.87693597405E+02  0.27627503745E+03  0.15294330000E+03 0.  0.
<mgrwt>
<rscale>  0 0.54289434E+03</rscale>
<asrwt>0</asrwt>
<pdfrwt beam="1">  1        2 0.65947110E+00 0.69213892E+03</pdfrwt>
<pdfrwt beam="2">  1       -2 0.32392637E-01 0.69213892E+03</pdfrwt>
<totfact> 0.19735744E+00</totfact>
</mgrwt>
</event>
<event>
 4    2  0.3171963E-007  0.7122424E+03  0.7818608E-02  0.9949766E-01
         -2   -1    0    0    0  501 -0.00000000000E+00  0.00000000000E+00  0.55193811143E+03  0.55193811143E+03  0.25500000000E-02 0.  1.
          2   -1    0    0  501    0  0.00000000000E+00 -0.00000000000E+00 -0.82180929423E+03  0.82180929423E+03  0.25500000000E-02 0. -1.
    8880023    1    1    2    0    0 -0.27020083142E+03 -0.21692249338E+02 -0.59175831123E+03  0.92599522037E+03  0.65864270000E+03 0. -1.
    8880022    1    1    2    0    0  0.27020083142E+03  0.21692249338E+02  0.32188712842E+03  0.44775218530E+03  0.15294330000E+03 0.  0.
<mgrwt>
<rscale>  0 0.57908848E+03</rscale>
<asrwt>0</asrwt>
<pdfrwt beam="1">  1        2 0.12643220E+00 0.71224241E+03</pdfrwt>
<pdfrwt beam="2">  1       -2 0.84913556E-01 0.71224241E+03</pdfrwt>
<totfact> 0.40824160E+01</totfact>
</mgrwt>
</event>
<event>
 4    2  0.3171963E-007  0.7618489E+03  0.7818608E-02  0.9800344E-01
          2   -1    0    0  501    0  0.00000000000E+00  0.00000000000E+00  0.40765984417E+03  0.40765984417E+03  0.25500000000E-02 0. -1.
         -2   -1    0    0    0  501 -0.00000000000E+00 -0.00000000000E+00 -0.13511987631E+04  0.13511987631E+04  0.25500000000E-02 0.  1.
    8880023    1    1    2    0    0  0.32417038501E+03 -0.20375751607E+03 -0.36749223012E+02  0.76273473470E+03  0.65864270000E+03 0. -1.
    8880022    1    1    2    0    0 -0.32417038501E+03  0.20375751607E+03 -0.90678969596E+03  0.99612387261E+03  0.15294330000E+03 0.  0.
<mgrwt>
<rscale>  0 0.65344077E+03</rscale>
<asrwt>0</asrwt>
<pdfrwt beam="1">  1        2 0.62716900E-01 0.76184892E+03</pdfrwt>
<pdfrwt beam="2">  1       -2 0.20787673E+00 0.76184892E+03</pdfrwt>
<totfact> 0.93695175E+00</totfact>
</mgrwt>
</event>
<event>
 4    2  0.3171963E-007  0.7826308E+03  0.7818608E-02  0.9749693E-01
          2   -1    0    0  501    0  0.00000000000E+00  0.00000000000E+00  0.19967734583E+04  0.19967734583E+04  0.25500000000E-02 0. -1.
         -2   -1    0    0    0  501 -0.00000000000E+00 -0.00000000000E+00 -0.49757651357E+03  0.49757651358E+03  0.25500000000E-02 0.  1.
    8880023    1    1    2    0    0 -0.39799724245E+03  0.14247442628E+03  0.17936457272E+04  0.19569557910E+04  0.65864270000E+03 0.  0.
    8880022    1    1    2    0    0  0.39799724245E+03 -0.14247442628E+03 -0.29444878243E+03  0.53739418087E+03  0.15294330000E+03 0.  0.
<mgrwt>
<rscale>  0 0.68133619E+03</rscale>
<asrwt>0</asrwt>
<pdfrwt beam="1">  1        2 0.30719591E+00 0.78263080E+03</pdfrwt>
<pdfrwt beam="2">  1       -2 0.76550234E-01 0.78263080E+03</pdfrwt>
<totfact> 0.10546441E+01</totfact>
</mgrwt>
</event>
<event>
 4    2  0.3171963E-007  0.7071584E+03  0.7818608E-02  0.9968708E-01
          2   -1    0    0  501    0  0.00000000000E+00  0.00000000000E+00  0.12522357183E+04  0.12522357183E+04  0.25500000000E-02 0. -1.
         -2   -1    0    0    0  501 -0.00000000000E+00 -0.00000000000E+00 -0.36700214979E+03  0.36700214980E+03  0.25500000000E-02 0.  1.
    8880023    1    1    2    0    0  0.23581506265E+03 -0.10321835019E+03  0.10587321721E+04  0.12731797949E+04  0.65864270000E+03 0. -1.
    8880022    1    1    2    0    0 -0.23581506265E+03  0.10321835019E+03 -0.17349860358E+03  0.34605807323E+03  0.15294330000E+03 0.  0.
<mgrwt>
<rscale>  0 0.57043871E+03</rscale>
<asrwt>0</asrwt>
<pdfrwt beam="1">  1        2 0.19265165E+00 0.70715838E+03</pdfrwt>
<pdfrwt beam="2">  1       -2 0.56461869E-01 0.70715838E+03</pdfrwt>
<totfact> 0.53068796E+01</totfact>
</mgrwt>
</event>
<event>
 4    2  0.3171963E-007  0.8195896E+03  0.7818608E-02  0.9669938E-01
         -2   -1    0    0    0  501 -0.00000000000E+00  0.00000000000E+00  0.41058463447E+03  0.41058463447E+03  0.25500000000E-02 0.  1.
          2   -1    0    0  501    0  0.00000000000E+00 -0.00000000000E+00 -0.12715876913E+04  0.12715876913E+04  0.25500000000E-02 0. -1.
    8880023    1    1    2    0    0  0.44738967164E+03  0.19431773968E+03 -0.83546070469E+03  0.11703511001E+04  0.65864270000E+03 0. -1.
    8880022    1    1    2    0    0 -0.44738967164E+03 -0.19431773968E+03 -0.25542352146E+02  0.51182122564E+03  0.15294330000E+03 0.  0.
<mgrwt>
<rscale>  0 0.72835236E+03</rscale>
<asrwt>0</asrwt>
<pdfrwt beam="1">  1        2 0.19562887E+00 0.81958960E+03</pdfrwt>
<pdfrwt beam="2">  1       -2 0.63166867E-01 0.81958960E+03</pdfrwt>
<totfact> 0.40366249E+01</totfact>
</mgrwt>
</event>
<event>
 4    2  0.3171963E-007  0.7888049E+03  0.7818608E-02  0.9735546E-01
         -2   -1    0    0    0  501 -0.00000000000E+00  0.00000000000E+00  0.10297291790E+04  0.10297291790E+04  0.25500000000E-02 0.  1.
          2   -1    0    0  501    0  0.00000000000E+00 -0.00000000000E+00 -0.10465281980E+04  0.10465281981E+04  0.25500000000E-02 0. -1.
    8880023    1    1    2    0    0 -0.40961817207E+03 -0.14358256739E+03 -0.82800923986E+03  0.11435963047E+04  0.65864270000E+03 0.  0.
    8880022    1    1    2    0    0  0.40961817207E+03  0.14358256739E+03  0.81121022078E+03  0.93266107234E+03  0.15294330000E+03 0.  0.
<mgrwt>
<rscale>  0 0.68939255E+03</rscale>
<asrwt>0</asrwt>
<pdfrwt beam="1">  1        2 0.16100434E+00 0.78880492E+03</pdfrwt>
<pdfrwt beam="2">  1       -2 0.15841987E+00 0.78880492E+03</pdfrwt>
<totfact> 0.61775301E+00</totfact>
</mgrwt>
</event>
<event>
 4    2  0.3171963E-007  0.6734399E+03  0.7818608E-02  0.1013308E+00
         -2   -1    0    0    0  501 -0.00000000000E+00  0.00000000000E+00  0.45065401454E+03  0.45065401455E+03  0.25500000000E-02 0.  1.
          2   -1    0    0  501    0  0.00000000000E+00 -0.00000000000E+00 -0.20135690531E+04  0.20135690531E+04  0.25500000000E-02 0. -1.
    8880023    1    1    2    0    0  0.13520180774E+03 -0.37835482208E+02 -0.19291053848E+04  0.20432740503E+04  0.65864270000E+03 0. -1.
    8880022    1    1    2    0    0 -0.13520180774E+03  0.37835482208E+02  0.36619034626E+03  0.42094901738E+03  0.15294330000E+03 0.  0.
<mgrwt>
<rscale>  0 0.50180754E+03</rscale>
<asrwt>0</asrwt>
<pdfrwt beam="1">  1        2 0.30977985E+00 0.67343987E+03</pdfrwt>
<pdfrwt beam="2">  1       -2 0.69331388E-01 0.67343987E+03</pdfrwt>
<totfact> 0.13059791E+01</totfact>
</mgrwt>
</event>
<event>
 4    2  0.3171963E-007  0.1093696E+04  0.7818608E-02  0.9268108E-01
          2   -1    0    0  501    0  0.00000000000E+00  0.00000000000E+00  0.22631829345E+04  0.22631829345E+04  0.25500000000E-02 0. -1.
         -2   -1    0    0    0  501 -0.00000000000E+00 -0.00000000000E+00 -0.50952030677E+03  0.50952030678E+03  0.25500000000E-02 0.  1.
    8880023    1    1    2    0    0 -0.59732283663E+02  0.87108671561E+03  0.14891928653E+04  0.18476649069E+04  0.65864270000E+03 0.  0.
    8880022    1    1    2    0    0  0.59732283663E+02 -0.87108671561E+03  0.26446976242E+03  0.92503833438E+03  0.15294330000E+03 0.  0.
<mgrwt>
<rscale>  0 0.10377268E+04</rscale>
<asrwt>0</asrwt>
<pdfrwt beam="1">  1        2 0.34818199E+00 0.10936957E+04</pdfrwt>
<pdfrwt beam="2">  1       -2 0.78387740E-01 0.10936957E+04</pdfrwt>
<totfact> 0.68500841E+00</totfact>
</mgrwt>
</event>
<event>
 4    2  0.3171963E-007  0.1041211E+04  0.7818608E-02  0.9329523E-01
          2   -1    0    0  501    0  0.00000000000E+00  0.00000000000E+00  0.13458049339E+04  0.13458049339E+04  0.25500000000E-02 0. -1.
         -2   -1    0    0    0  501 -0.00000000000E+00 -0.00000000000E+00 -0.12606851589E+04  0.12606851589E+04  0.25500000000E-02 0.  1.
    8880023    1    1    2    0    0  0.74042340057E+03 -0.31950396298E+03  0.95332447697E+03  0.14117178752E+04  0.65864270000E+03 0.  0.
    8880022    1    1    2    0    0 -0.74042340057E+03  0.31950396298E+03 -0.86820470191E+03  0.11947722176E+04  0.15294330000E+03 0.  0.
<mgrwt>
<rscale>  0 0.98109802E+03</rscale>
<asrwt>0</asrwt>
<pdfrwt beam="1">  1        2 0.20704691E+00 0.10412107E+04</pdfrwt>
<pdfrwt beam="2">  1       -2 0.19395156E+00 0.10412107E+04</pdfrwt>
<totfact> 0.22392291E+00</totfact>
</mgrwt>
</event>
<event>
 4    2  0.3171963E-007  0.8772370E+03  0.7818608E-02  0.9563608E-01
          2   -1    0    0  501    0  0.00000000000E+00  0.00000000000E+00  0.14174900337E+04  0.14174900337E+04  0.25500000000E-02 0. -1.
         -2   -1    0    0    0  501 -0.00000000000E+00 -0.00000000000E+00 -0.75060818261E+03  0.75060818261E+03  0.25500000000E-02 0.  1.
    8880023    1    1    2    0    0 -0.57933937732E+03  0.10021708950E+02  0.11157856389E+04  0.14193387006E+04  0.65864270000E+03 0.  0.
    8880022    1    1    2    0    0  0.57933937732E+03 -0.10021708950E+02 -0.44890378776E+03  0.74875951576E+03  0.15294330000E+03 0.  1.
<mgrwt>
<rscale>  0 0.79752369E+03</rscale>
<asrwt>0</asrwt>
<pdfrwt beam="1">  1        2 0.21807539E+00 0.87723700E+03</pdfrwt>
<pdfrwt beam="2">  1       -2 0.11547818E+00 0.87723700E+03</pdfrwt>
<totfact> 0.83127540E+00</totfact>
</mgrwt>
</event>
<event>
 4    2  0.3171963E-007  0.7531285E+03  0.7818608E-02  0.9823233E-01
         -2   -1    0    0    0  501 -0.00000000000E+00  0.00000000000E+00  0.12177869261E+04  0.12177869261E+04  0.25500000000E-02 0.  1.
          2   -1    0    0  501    0  0.00000000000E+00 -0.00000000000E+00 -0.32957595408E+03  0.32957595409E+03  0.25500000000E-02 0. -1.
    8880023    1    1    2    0    0  0.14776069420E+03  0.33400467021E+03  0.24487367403E+03  0.79193791737E+03  0.65864270000E+03 0.  0.
    8880022    1    1    2    0    0 -0.14776069420E+03 -0.33400467021E+03  0.64333729799E+03  0.75542496283E+03  0.15294330000E+03 0. -1.
<mgrwt>
<rscale>  0 0.64130486E+03</rscale>
<asrwt>0</asrwt>
<pdfrwt beam="1">  1        2 0.50703992E-01 0.75312851E+03</pdfrwt>
<pdfrwt beam="2">  1       -2 0.18735184E+00 0.75312851E+03</pdfrwt>
<totfact> 0.16214826E+01</totfact>
</mgrwt>
</event>
<event>
 4    2  0.3171963E-007  0.9950495E+03  0.7818608E-02  0.9388063E-01
          2   -1    0    0  501    0  0.00000000000E+00  0.00000000000E+00  0.10547909239E+04  0.10547909239E+04  0.25500000000E-02 0. -1.
         -2   -1    0    0    0  501 -0.00000000000E+00 -0.00000000000E+00 -0.10129227385E+04  0.10129227385E+04  0.25500000000E-02 0.  1.
    8880023    1    1    2    0    0 -0.46409125975E+03 -0.58389431010E+03  0.56468367741E+03  0.11441115000E+04  0.65864270000E+03 0. -1.
    8880022    1    1    2    0    0  0.46409125975E+03  0.58389431010E+03 -0.52281549202E+03  0.92360216244E+03  0.15294330000E+03 0.  1.
<mgrwt>
<rscale>  0 0.93064571E+03</rscale>
<asrwt>0</asrwt>
<pdfrwt beam="1">  1        2 0.16227553E+00 0.99504948E+03</pdfrwt>
<pdfrwt beam="2">  1       -2 0.15583427E+00 0.99504948E+03</pdfrwt>
<totfact> 0.62373605E+00</totfact>
</mgrwt>
</event>
<event>
 4    2  0.3171963E-007  0.1202178E+04  0.7818608E-02  0.9155008E-01
          2   -1    0    0  501    0  0.00000000000E+00  0.00000000000E+00  0.13427151897E+04  0.13427151897E+04  0.25500000000E-02 0. -1.
         -2   -1    0    0    0  501 -0.00000000000E+00 -0.00000000000E+00 -0.15556556886E+04  0.15556556886E+04  0.25500000000E-02 0.  1.
    8880023    1    1    2    0    0 -0.34150923915E+03 -0.94593522605E+03  0.81482735864E+03  0.14523001904E+04  0.65864270000E+03 0.  0.
    8880022    1    1    2    0    0  0.34150923915E+03  0.94593522605E+03 -0.10277678576E+04  0.14460706879E+04  0.15294330000E+03 0.  0.
<mgrwt>
<rscale>  0 0.11530135E+04</rscale>
<asrwt>0</asrwt>
<pdfrwt beam="1">  1        2 0.20657157E+00 0.12021781E+04</pdfrwt>
<pdfrwt beam="2">  1       -2 0.23933164E+00 0.12021781E+04</pdfrwt>
<totfact> 0.11339640E+00</totfact>
</mgrwt>
</event>
<event>
 4    2  0.6854234E-007  0.7255914E+03  0.7818608E-02  0.9904102E-01
         -2   -1    0    0    0  501 -0.00000000000E+00  0.00000000000E+00  0.91918332613E+03  0.91918332614E+03  0.25500000000E-02 0.  1.
          2   -1    0    0  501    0  0.00000000000E+00 -0.00000000000E+00 -0.39052622757E+04  0.39052622757E+04  0.25500000000E-02 0. -1.
    8880023    1    1    2    0    0  0.11095924683E+03 -0.28347960508E+03 -0.38384942472E+04  0.39064716732E+04  0.65864270000E+03 0. -1.
    8880022    1    1    2    0    0 -0.11095924683E+03  0.28347960508E+03  0.85241529768E+03  0.91797392865E+03  0.15294330000E+03 0.  0.
<mgrwt>
<rscale>  0 0.60062916E+03</rscale>
<asrwt>0</asrwt>
<pdfrwt beam="1">  1        2 0.60080957E+00 0.72559138E+03</pdfrwt>
<pdfrwt beam="2">  1       -2 0.14141282E+00 0.72559138E+03</pdfrwt>
<totfact> 0.15933843E-01</totfact>
</mgrwt>
</event>
<event>
 4    2  0.3171963E-007  0.7390260E+03  0.7818608E-02  0.9862793E-01
         -2   -1    0    0    0  501 -0.00000000000E+00  0.00000000000E+00  0.20909692674E+03  0.20909692676E+03  0.25500000000E-02 0.  1.
          2   -1    0    0  501    0  0.00000000000E+00 -0.00000000000E+00 -0.23528803316E+04  0.23528803316E+04  0.25500000000E-02 0. -1.
    8880023    1    1    2    0    0 -0.32130733957E+03 -0.95450495698E+02 -0.20538007745E+04  0.21827178085E+04  0.65864270000E+03 0.  0.
    8880022    1    1    2    0    0  0.32130733957E+03  0.95450495698E+02 -0.89982630347E+02  0.37925944994E+03  0.15294330000E+03 0.  0.
<mgrwt>
<rscale>  0 0.62098857E+03</rscale>
<asrwt>0</asrwt>
<pdfrwt beam="1">  1        2 0.36198157E+00 0.73902599E+03</pdfrwt>
<pdfrwt beam="2">  1       -2 0.32168760E-01 0.73902599E+03</pdfrwt>
<totfact> 0.39562173E+01</totfact>
</mgrwt>
</event>
<event>
 4    2  0.3171963E-007  0.8556547E+03  0.7818608E-02  0.9601340E-01
          2   -1    0    0  501    0  0.00000000000E+00  0.00000000000E+00  0.11576658472E+04  0.11576658472E+04  0.25500000000E-02 0. -1.
         -2   -1    0    0    0  501 -0.00000000000E+00 -0.00000000000E+00 -0.94839118104E+03  0.94839118105E+03  0.25500000000E-02 0.  1.
    8880023    1    1    2    0    0  0.54063982984E+03  0.77739315312E+02  0.88015940381E+03  0.12275282519E+04  0.65864270000E+03 0.  0.
    8880022    1    1    2    0    0 -0.54063982984E+03 -0.77739315312E+02 -0.67088473763E+03  0.87852877640E+03  0.15294330000E+03 0.  1.
<mgrwt>
<rscale>  0 0.77207550E+03</rscale>
<asrwt>0</asrwt>
<pdfrwt beam="1">  1        2 0.17810244E+00 0.85565474E+03</pdfrwt>
<pdfrwt beam="2">  1       -2 0.14590633E+00 0.85565474E+03</pdfrwt>
<totfact> 0.65197722E+00</totfact>
</mgrwt>
</event>
<event>
 4    2  0.3171963E-007  0.8746699E+03  0.7818608E-02  0.9567983E-01
          2   -1    0    0  501    0  0.00000000000E+00  0.00000000000E+00  0.32419169115E+04  0.32419169115E+04  0.25500000000E-02 0. -1.
         -2   -1    0    0    0  501 -0.00000000000E+00 -0.00000000000E+00 -0.39528534698E+03  0.39528534698E+03  0.25500000000E-02 0.  1.
    8880023    1    1    2    0    0  0.16441564646E+03  0.55154763707E+03  0.29097398850E+04  0.30383603646E+04  0.65864270000E+03 0.  0.
    8880022    1    1    2    0    0 -0.16441564646E+03 -0.55154763707E+03 -0.63108320431E+02  0.59884189389E+03  0.15294330000E+03 0.  0.
<mgrwt>
<rscale>  0 0.79452017E+03</rscale>
<asrwt>0</asrwt>
<pdfrwt beam="1">  1        2 0.49875645E+00 0.87466994E+03</pdfrwt>
<pdfrwt beam="2">  1       -2 0.60813131E-01 0.87466994E+03</pdfrwt>
<totfact> 0.32181467E+00</totfact>
</mgrwt>
</event>
<event>
 4    2  0.3171963E-007  0.7709323E+03  0.7818608E-02  0.9777585E-01
          2   -1    0    0  501    0  0.00000000000E+00  0.00000000000E+00  0.18945724894E+04  0.18945724894E+04  0.25500000000E-02 0. -1.
         -2   -1    0    0    0  501 -0.00000000000E+00 -0.00000000000E+00 -0.23792828930E+03  0.23792828931E+03  0.25500000000E-02 0.  1.
    8880023    1    1    2    0    0  0.37381869989E+03  0.14417366507E+03  0.14798735948E+04  0.16686409227E+04  0.65864270000E+03 0. -1.
    8880022    1    1    2    0    0 -0.37381869989E+03 -0.14417366507E+03  0.17677060526E+03  0.46385985597E+03  0.15294330000E+03 0.  0.
<mgrwt>
<rscale>  0 0.66579459E+03</rscale>
<asrwt>0</asrwt>
<pdfrwt beam="1">  1        2 0.29147268E+00 0.77093234E+03</pdfrwt>
<pdfrwt beam="2">  1       -2 0.36604354E-01 0.77093234E+03</pdfrwt>
<totfact> 0.55084214E+01</totfact>
</mgrwt>
</event>
<event>
 4    2  0.3171963E-007  0.1126008E+04  0.7818608E-02  0.9232637E-01
          2   -1    0    0  501    0  0.00000000000E+00  0.00000000000E+00  0.12744161867E+04  0.12744161868E+04  0.25500000000E-02 0. -1.
         -2   -1    0    0    0  501 -0.00000000000E+00 -0.00000000000E+00 -0.12144800066E+04  0.12144800066E+04  0.25500000000E-02 0.  1.
    8880023    1    1    2    0    0  0.91211517601E+03  0.46150631266E+02  0.73349264714E+03  0.13438398881E+04  0.65864270000E+03 0.  0.
    8880022    1    1    2    0    0 -0.91211517601E+03 -0.46150631266E+02 -0.67355646701E+03  0.11450563053E+04  0.15294330000E+03 0.  0.
<mgrwt>
<rscale>  0 0.10722816E+04</rscale>
<asrwt>0</asrwt>
<pdfrwt beam="1">  1        2 0.19606403E+00 0.11260081E+04</pdfrwt>
<pdfrwt beam="2">  1       -2 0.18684308E+00 0.11260081E+04</pdfrwt>
<totfact> 0.27246390E+00</totfact>
</mgrwt>
</event>
<event>
 4    2  0.3171963E-007  0.8163466E+03  0.7818608E-02  0.9676506E-01
         -2   -1    0    0    0  501 -0.00000000000E+00  0.00000000000E+00  0.12880029478E+04  0.12880029478E+04  0.25500000000E-02 0.  1.
          2   -1    0    0  501    0  0.00000000000E+00 -0.00000000000E+00 -0.12448585970E+04  0.12448585970E+04  0.25500000000E-02 0. -1.
    8880023    1    1    2    0    0 -0.45616370902E+03  0.15660865390E+03 -0.10489934260E+04  0.13292136826E+04  0.65864270000E+03 0.  0.
    8880022    1    1    2    0    0  0.45616370902E+03 -0.15660865390E+03  0.10921377768E+04  0.12036478623E+04  0.15294330000E+03 0.  0.
<mgrwt>
<rscale>  0 0.72433027E+03</rscale>
<asrwt>0</asrwt>
<pdfrwt beam="1">  1        2 0.19151671E+00 0.81634662E+03</pdfrwt>
<pdfrwt beam="2">  1       -2 0.19815430E+00 0.81634662E+03</pdfrwt>
<totfact> 0.24775204E+00</totfact>
</mgrwt>
</event>
<event>
 4    2  0.3171963E-007  0.7921887E+03  0.7818608E-02  0.9727947E-01
         -2   -1    0    0    0  501 -0.00000000000E+00  0.00000000000E+00  0.50499011508E+03  0.50499011509E+03  0.25500000000E-02 0.  1.
          2   -1    0    0  501    0  0.00000000000E+00 -0.00000000000E+00 -0.85661087521E+03  0.85661087522E+03  0.25500000000E-02 0. -1.
    8880023    1    1    2    0    0 -0.28289056195E+03  0.33723227470E+03 -0.40995115239E+03  0.89197692276E+03  0.65864270000E+03 0. -1.
    8880022    1    1    2    0    0  0.28289056195E+03 -0.33723227470E+03  0.58330392257E+02  0.46962406754E+03  0.15294330000E+03 0.  1.
<mgrwt>
<rscale>  0 0.69376922E+03</rscale>
<asrwt>0</asrwt>
<pdfrwt beam="1">  1        2 0.13178629E+00 0.79218867E+03</pdfrwt>
<pdfrwt beam="2">  1       -2 0.77690787E-01 0.79218867E+03</pdfrwt>
<totfact> 0.46857470E+01</totfact>
</mgrwt>
</event>
<event>
 4    2  0.3171963E-007  0.6683886E+03  0.7818608E-02  0.1016845E+00
         -2   -1    0    0    0  501 -0.00000000000E+00  0.00000000000E+00  0.66153087772E+03  0.66153087772E+03  0.25500000000E-02 0.  1.
          2   -1    0    0  501    0  0.00000000000E+00 -0.00000000000E+00 -0.88218734690E+03  0.88218734690E+03  0.25500000000E-02 0. -1.
    8880023    1    1    2    0    0  0.11315422145E+03  0.11370277086E+02 -0.73603434598E+03  0.99422830666E+03  0.65864270000E+03 0. -1.
    8880022    1    1    2    0    0 -0.11315422145E+03 -0.11370277086E+02  0.51537787680E+03  0.54948991796E+03  0.15294330000E+03 0.  0.
<mgrwt>
<rscale>  0 0.48842425E+03</rscale>
<asrwt>0</asrwt>
<pdfrwt beam="1">  1        2 0.13572113E+00 0.66838863E+03</pdfrwt>
<pdfrwt beam="2">  1       -2 0.10177398E+00 0.66838863E+03</pdfrwt>
<totfact> 0.24448359E+01</totfact>
</mgrwt>
</event>
<event>
 4    2  0.3171963E-007  0.1058641E+04  0.7818608E-02  0.9308565E-01
         -2   -1    0    0    0  501 -0.00000000000E+00  0.00000000000E+00  0.18897147110E+04  0.18897147110E+04  0.25500000000E-02 0.  1.
          2   -1    0    0  501    0  0.00000000000E+00 -0.00000000000E+00 -0.53989735466E+03  0.53989735467E+03  0.25500000000E-02 0. -1.
    8880023    1    1    2    0    0 -0.82644615383E+03 -0.62432295045E+02  0.11507385790E+04  0.15636241621E+04  0.65864270000E+03 0.  1.
    8880022    1    1    2    0    0  0.82644615383E+03  0.62432295045E+02  0.19907877734E+03  0.86598790364E+03  0.15294330000E+03 0.  0.
<mgrwt>
<rscale>  0 0.99998166E+03</rscale>
<asrwt>0</asrwt>
<pdfrwt beam="1">  1        2 0.83061131E-01 0.10586412E+04</pdfrwt>
<pdfrwt beam="2">  1       -2 0.29072534E+00 0.10586412E+04</pdfrwt>
<totfact> 0.20353923E+00</totfact>
</mgrwt>
</event>
<event>
 4    2  0.3171963E-007  0.7031027E+03  0.7818608E-02  0.9984565E-01
          2   -1    0    0  501    0  0.00000000000E+00  0.00000000000E+00  0.58439149297E+03  0.58439149298E+03  0.25500000000E-02 0. -1.
         -2   -1    0    0    0  501 -0.00000000000E+00 -0.00000000000E+00 -0.60445292298E+03  0.60445292299E+03  0.25500000000E-02 0.  1.
    8880023    1    1    2    0    0 -0.19532355147E+03 -0.14963945194E+03  0.29352463913E+03  0.76191218351E+03  0.65864270000E+03 0. -1.
    8880022    1    1    2    0    0  0.19532355147E+03  0.14963945194E+03 -0.31358606914E+03  0.42693223246E+03  0.15294330000E+03 0.  0.
<mgrwt>
<rscale>  0 0.56332227E+03</rscale>
<asrwt>0</asrwt>
<pdfrwt beam="1">  1        2 0.89906384E-01 0.70310274E+03</pdfrwt>
<pdfrwt beam="2">  1       -2 0.92992757E-01 0.70310274E+03</pdfrwt>
<totfact> 0.50940963E+01</totfact>
</mgrwt>
</event>
<event>
 4    2  0.3171963E-007  0.8816485E+03  0.7818608E-02  0.9556158E-01
         -2   -1    0    0    0  501 -0.00000000000E+00  0.00000000000E+00  0.36310730206E+03  0.36310730207E+03  0.25500000000E-02 0.  1.
          2   -1    0    0  501    0  0.00000000000E+00 -0.00000000000E+00 -0.18185803683E+04  0.18185803683E+04  0.25500000000E-02 0. -1.
    8880023    1    1    2    0    0 -0.28985141613E+03  0.50939180985E+03 -0.12741121609E+04  0.15494082303E+04  0.65864270000E+03 0. -1.
    8880022    1    1    2    0    0  0.28985141613E+03 -0.50939180985E+03 -0.18136090543E+03  0.63227944013E+03  0.15294330000E+03 0.  1.
<mgrwt>
<rscale>  0 0.80267165E+03</rscale>
<asrwt>0</asrwt>
<pdfrwt beam="1">  1        2 0.27978159E+00 0.88164849E+03</pdfrwt>
<pdfrwt beam="2">  1       -2 0.55862663E-01 0.88164849E+03</pdfrwt>
<totfact> 0.25707145E+01</totfact>
</mgrwt>
</event>
<event>
 4    2  0.3171963E-007  0.6818012E+03  0.7818608E-02  0.1008323E+00
         -2   -1    0    0    0  501 -0.00000000000E+00  0.00000000000E+00  0.18552211197E+03  0.18552211199E+03  0.25500000000E-02 0.  1.
          2   -1    0    0  501    0  0.00000000000E+00 -0.00000000000E+00 -0.19376904124E+04  0.19376904124E+04  0.25500000000E-02 0. -1.
    8880023    1    1    2    0    0 -0.65584412879E+02 -0.16352801587E+03 -0.17623920431E+04  0.18896768631E+04  0.65864270000E+03 0. -1.
    8880022    1    1    2    0    0  0.65584412879E+02  0.16352801587E+03  0.10223742606E+02  0.23353566133E+03  0.15294330000E+03 0.  0.
<mgrwt>
<rscale>  0 0.52146781E+03</rscale>
<asrwt>0</asrwt>
<pdfrwt beam="1">  1        2 0.29810620E+00 0.68180124E+03</pdfrwt>
<pdfrwt beam="2">  1       -2 0.28541865E-01 0.68180124E+03</pdfrwt>
<totfact> 0.84131504E+01</totfact>
</mgrwt>
</event>
<event>
 4    2  0.3171963E-007  0.1069737E+04  0.7818608E-02  0.9295523E-01
          2   -1    0    0  501    0  0.00000000000E+00  0.00000000000E+00  0.15658079632E+04  0.15658079632E+04  0.25500000000E-02 0. -1.
         -2   -1    0    0    0  501 -0.00000000000E+00 -0.00000000000E+00 -0.88746688689E+03  0.88746688690E+03  0.25500000000E-02 0.  1.
    8880023    1    1    2    0    0 -0.32128782766E+03 -0.77929513961E+03 -0.34003757767E+03  0.11224805314E+04  0.65864270000E+03 0.  0.
    8880022    1    1    2    0    0  0.32128782766E+03  0.77929513961E+03  0.10183786539E+04  0.13307943187E+04  0.15294330000E+03 0.  0.
<mgrwt>
<rscale>  0 0.10119608E+04</rscale>
<asrwt>0</asrwt>
<pdfrwt beam="1">  1        2 0.24089353E+00 0.10697369E+04</pdfrwt>
<pdfrwt beam="2">  1       -2 0.13653337E+00 0.10697369E+04</pdfrwt>
<totfact> 0.44043393E+00</totfact>
</mgrwt>
</event>
<event>
 4    2  0.3171963E-007  0.7493569E+03  0.7818608E-02  0.9833484E-01
         -2   -1    0    0    0  501 -0.00000000000E+00  0.00000000000E+00  0.25104958083E+03  0.25104958084E+03  0.25500000000E-02 0.  1.
          2   -1    0    0  501    0  0.00000000000E+00 -0.00000000000E+00 -0.19387870910E+04  0.19387870910E+04  0.25500000000E-02 0. -1.
    8880023    1    1    2    0    0 -0.14109376567E+03  0.32835676218E+03 -0.16336979410E+04  0.17973605044E+04  0.65864270000E+03 0. -1.
    8880022    1    1    2    0    0  0.14109376567E+03 -0.32835676218E+03 -0.54039569159E+02  0.39247616746E+03  0.15294330000E+03 0.  0.
<mgrwt>
<rscale>  0 0.63596148E+03</rscale>
<asrwt>0</asrwt>
<pdfrwt beam="1">  1        2 0.29827493E+00 0.74935694E+03</pdfrwt>
<pdfrwt beam="2">  1       -2 0.38623014E-01 0.74935694E+03</pdfrwt>
<totfact> 0.47100698E+01</totfact>
</mgrwt>
</event>
<event>
 4    2  0.3171963E-007  0.1139143E+04  0.7818608E-02  0.9218677E-01
          2   -1    0    0  501    0  0.00000000000E+00  0.00000000000E+00  0.36338725551E+04  0.36338725551E+04  0.25500000000E-02 0. -1.
         -2   -1    0    0    0  501 -0.00000000000E+00 -0.00000000000E+00 -0.48295204278E+03  0.48295204279E+03  0.25500000000E-02 0.  1.
    8880023    1    1    2    0    0 -0.86859841198E+03  0.33071805082E+03  0.29380298120E+04  0.31511374157E+04  0.65864270000E+03 0.  0.
    8880022    1    1    2    0    0  0.86859841198E+03 -0.33071805082E+03  0.21289070030E+03  0.96568718212E+03  0.15294330000E+03 0.  0.
<mgrwt>
<rscale>  0 0.10862713E+04</rscale>
<asrwt>0</asrwt>
<pdfrwt beam="1">  1        2 0.55905731E+00 0.11391435E+04</pdfrwt>
<pdfrwt beam="2">  1       -2 0.74300315E-01 0.11391435E+04</pdfrwt>
<totfact> 0.10816764E+00</totfact>
</mgrwt>
</event>
<event>
 4    2  0.3171963E-007  0.7184210E+03  0.7818608E-02  0.9927965E-01
         -2   -1    0    0    0  501 -0.00000000000E+00  0.00000000000E+00  0.36807536446E+03  0.36807536447E+03  0.25500000000E-02 0.  1.
          2   -1    0    0  501    0  0.00000000000E+00 -0.00000000000E+00 -0.21093674454E+04  0.21093674454E+04  0.25500000000E-02 0. -1.
    8880023    1    1    2    0    0 -0.26208217961E+03  0.11675368854E+03 -0.19587161148E+04  0.20863119415E+04  0.65864270000E+03 0.  0.
    8880022    1    1    2    0    0  0.26208217961E+03 -0.11675368854E+03  0.21742403388E+03  0.39113086835E+03  0.15294330000E+03 0.  0.
<mgrwt>
<rscale>  0 0.58924898E+03</rscale>
<asrwt>0</asrwt>
<pdfrwt beam="1">  1        2 0.32451806E+00 0.71842098E+03</pdfrwt>
<pdfrwt beam="2">  1       -2 0.56626980E-01 0.71842098E+03</pdfrwt>
<totfact> 0.17690748E+01</totfact>
</mgrwt>
</event>
<event>
 4    2  0.3171963E-007  0.7881069E+03  0.7818608E-02  0.9737127E-01
          2   -1    0    0  501    0  0.00000000000E+00  0.00000000000E+00  0.42278726684E+03  0.42278726685E+03  0.25500000000E-02 0. -1.
         -2   -1    0    0    0  501 -0.00000000000E+00 -0.00000000000E+00 -0.13214422959E+04  0.13214422959E+04  0.25500000000E-02 0.  1.
    8880023    1    1    2    0    0 -0.33975675758E+03  0.26808132863E+03 -0.62765644122E+02  0.79060229283E+03  0.65864270000E+03 0. -1.
    8880022    1    1    2    0    0  0.33975675758E+03 -0.26808132863E+03 -0.83588938492E+03  0.95362726991E+03  0.15294330000E+03 0.  0.
<mgrwt>
<rscale>  0 0.68848635E+03</rscale>
<asrwt>0</asrwt>
<pdfrwt beam="1">  1        2 0.65044196E-01 0.78810688E+03</pdfrwt>
<pdfrwt beam="2">  1       -2 0.20329881E+00 0.78810688E+03</pdfrwt>
<totfact> 0.95953694E+00</totfact>
</mgrwt>
</event>
<event>
 4    2  0.3171963E-007  0.1119138E+04  0.7818608E-02  0.9240042E-01
         -2   -1    0    0    0  501 -0.00000000000E+00  0.00000000000E+00  0.71519063772E+03  0.71519063772E+03  0.25500000000E-02 0.  1.
          2   -1    0    0  501    0  0.00000000000E+00 -0.00000000000E+00 -0.15252861557E+04  0.15252861557E+04  0.25500000000E-02 0. -1.
    8880023    1    1    2    0    0  0.77835830682E+03 -0.46132216053E+03 -0.69067458694E+03  0.13151050836E+04  0.65864270000E+03 0.  0.
    8880022    1    1    2    0    0 -0.77835830682E+03  0.46132216053E+03 -0.11942093105E+03  0.92537170984E+03  0.15294330000E+03 0.  0.
<mgrwt>
<rscale>  0 0.10649521E+04</rscale>
<asrwt>0</asrwt>
<pdfrwt beam="1">  1        2 0.23465941E+00 0.11191381E+04</pdfrwt>
<pdfrwt beam="2">  1       -2 0.11002933E+00 0.11191381E+04</pdfrwt>
<totfact> 0.79308157E+00</totfact>
</mgrwt>
</event>
<event>
 4    2  0.3171963E-007  0.8705412E+03  0.7818608E-02  0.9575081E-01
         -2   -1    0    0    0  501 -0.00000000000E+00  0.00000000000E+00  0.45322625168E+03  0.45322625169E+03  0.25500000000E-02 0.  1.
          2   -1    0    0  501    0  0.00000000000E+00 -0.00000000000E+00 -0.21590378669E+04  0.21590378669E+04  0.25500000000E-02 0. -1.
    8880023    1    1    2    0    0 -0.56030341602E+03  0.10045820447E+03 -0.18148478352E+04  0.20128374599E+04  0.65864270000E+03 0.  0.
    8880022    1    1    2    0    0  0.56030341602E+03 -0.10045820447E+03  0.10903621998E+03  0.59942665868E+03  0.15294330000E+03 0.  0.
<mgrwt>
<rscale>  0 0.78967681E+03</rscale>
<asrwt>0</asrwt>
<pdfrwt beam="1">  1        2 0.33215967E+00 0.87054120E+03</pdfrwt>
<pdfrwt beam="2">  1       -2 0.69727117E-01 0.87054120E+03</pdfrwt>
<totfact> 0.10426930E+01</totfact>
</mgrwt>
</event>
<event>
 4    2  0.3171963E-007  0.7355087E+03  0.7818608E-02  0.9873228E-01
         -2   -1    0    0    0  501 -0.00000000000E+00  0.00000000000E+00  0.29376317184E+04  0.29376317184E+04  0.25500000000E-02 0.  1.
          2   -1    0    0  501    0  0.00000000000E+00 -0.00000000000E+00 -0.61804712275E+03  0.61804712275E+03  0.25500000000E-02 0. -1.
    8880023    1    1    2    0    0  0.20941924161E+01 -0.32735060637E+03 -0.38285801962E+03  0.82918832275E+03  0.65864270000E+03 0. -1.
    8880022    1    1    2    0    0 -0.20941924161E+01  0.32735060637E+03  0.27024426152E+04  0.27264905184E+04  0.15294330000E+03 0.  0.
<mgrwt>
<rscale>  0 0.61576473E+03</rscale>
<asrwt>0</asrwt>
<pdfrwt beam="1">  1        2 0.95084173E-01 0.73550868E+03</pdfrwt>
<pdfrwt beam="2">  1       -2 0.45194334E+00 0.73550868E+03</pdfrwt>
<totfact> 0.17264075E-01</totfact>
</mgrwt>
</event>
<event>
 4    2  0.3171963E-007  0.6676350E+03  0.7818608E-02  0.1017418E+00
         -2   -1    0    0    0  501 -0.00000000000E+00  0.00000000000E+00  0.68150942446E+02  0.68150942494E+02  0.25500000000E-02 0.  1.
          2   -1    0    0  501    0  0.00000000000E+00 -0.00000000000E+00 -0.30145761447E+04  0.30145761447E+04  0.25500000000E-02 0. -1.
    8880023    1    1    2    0    0  0.88947809461E+02 -0.63361178215E+02 -0.17766501043E+04  0.18979520940E+04  0.65864270000E+03 0.  0.
    8880022    1    1    2    0    0 -0.88947809461E+02  0.63361178215E+02 -0.11697750980E+04  0.11847749932E+04  0.15294330000E+03 0.  1.
<mgrwt>
<rscale>  0 0.48629955E+03</rscale>
<asrwt>0</asrwt>
<pdfrwt beam="1">  1        2 0.46378084E+00 0.66763505E+03</pdfrwt>
<pdfrwt beam="2">  1       -2 0.10484763E-01 0.66763505E+03</pdfrwt>
<totfact> 0.11560762E+02</totfact>
</mgrwt>
</event>
<event>
 4    2  0.3171963E-007  0.6968912E+03  0.7818608E-02  0.1001035E+00
         -2   -1    0    0    0  501 -0.00000000000E+00  0.00000000000E+00  0.15380362764E+04  0.15380362764E+04  0.25500000000E-02 0.  1.
          2   -1    0    0  501    0  0.00000000000E+00 -0.00000000000E+00 -0.31958962039E+03  0.31958962040E+03  0.25500000000E-02 0. -1.
    8880023    1    1    2    0    0  0.15839543194E+03 -0.16357893211E+03  0.97586362629E+02  0.70369061691E+03  0.65864270000E+03 0.  0.
    8880022    1    1    2    0    0 -0.15839543194E+03  0.16357893211E+03  0.11208602934E+04  0.11539352799E+04  0.15294330000E+03 0.  0.
<mgrwt>
<rscale>  0 0.55198720E+03</rscale>
<asrwt>0</asrwt>
<pdfrwt beam="1">  1        2 0.49167634E-01 0.69689123E+03</pdfrwt>
<pdfrwt beam="2">  1       -2 0.23662097E+00 0.69689123E+03</pdfrwt>
<totfact> 0.81977662E+00</totfact>
</mgrwt>
</event>
<event>
 4    2  0.3171963E-007  0.7116569E+03  0.7818608E-02  0.9951899E-01
         -2   -1    0    0    0  501 -0.00000000000E+00  0.00000000000E+00  0.10938173386E+04  0.10938173386E+04  0.25500000000E-02 0.  1.
          2   -1    0    0  501    0  0.00000000000E+00 -0.00000000000E+00 -0.10589948255E+04  0.10589948255E+04  0.25500000000E-02 0. -1.
    8880023    1    1    2    0    0  0.17099215517E+03  0.20834340330E+03 -0.91186114387E+03  0.11566962621E+04  0.65864270000E+03 0. -1.
    8880022    1    1    2    0    0 -0.17099215517E+03 -0.20834340330E+03  0.94668365695E+03  0.99611590198E+03  0.15294330000E+03 0.  0.
<mgrwt>
<rscale>  0 0.57810640E+03</rscale>
<asrwt>0</asrwt>
<pdfrwt beam="1">  1        2 0.16292228E+00 0.71165687E+03</pdfrwt>
<pdfrwt beam="2">  1       -2 0.16827959E+00 0.71165687E+03</pdfrwt>
<totfact> 0.51994544E+00</totfact>
</mgrwt>
</event>
<event>
 4    2  0.3171963E-007  0.9753424E+03  0.7818608E-02  0.9414553E-01
          2   -1    0    0  501    0  0.00000000000E+00  0.00000000000E+00  0.23224164042E+04  0.23224164042E+04  0.25500000000E-02 0. -1.
         -2   -1    0    0    0  501 -0.00000000000E+00 -0.00000000000E+00 -0.89586569300E+03  0.89586569300E+03  0.25500000000E-02 0.  1.
    8880023    1    1    2    0    0  0.28742369315E+03 -0.65944692238E+03  0.20396167512E+04  0.22608249205E+04  0.65864270000E+03 0. -1.
    8880022    1    1    2    0    0 -0.28742369315E+03  0.65944692238E+03 -0.61306604004E+03  0.95745717673E+03  0.15294330000E+03 0.  0.
<mgrwt>
<rscale>  0 0.90887650E+03</rscale>
<asrwt>0</asrwt>
<pdfrwt beam="1">  1        2 0.35729483E+00 0.97534242E+03</pdfrwt>
<pdfrwt beam="2">  1       -2 0.13782549E+00 0.97534242E+03</pdfrwt>
<totfact> 0.16577077E+00</totfact>
</mgrwt>
</event>
<event>
 4    2  0.3171963E-007  0.6989984E+03  0.7818608E-02  0.1000138E+00
          2   -1    0    0  501    0  0.00000000000E+00  0.00000000000E+00  0.30764845221E+04  0.30764845221E+04  0.25500000000E-02 0. -1.
         -2   -1    0    0    0  501 -0.00000000000E+00 -0.00000000000E+00 -0.10079950584E+03  0.10079950587E+03  0.25500000000E-02 0.  1.
    8880023    1    1    2    0    0 -0.18793255349E+03 -0.13953468605E+03  0.26827825597E+04  0.27723493723E+04  0.65864270000E+03 0. -1.
    8880022    1    1    2    0    0  0.18793255349E+03  0.13953468605E+03  0.29290245656E+03  0.40493465565E+03  0.15294330000E+03 0.  0.
<mgrwt>
<rscale>  0 0.55589691E+03</rscale>
<asrwt>0</asrwt>
<pdfrwt beam="1">  1        2 0.47330525E+00 0.69899841E+03</pdfrwt>
<pdfrwt beam="2">  1       -2 0.15507618E-01 0.69899841E+03</pdfrwt>
<totfact> 0.54997222E+01</totfact>
</mgrwt>
</event>
<event>
 4    2  0.3171963E-007  0.6904456E+03  0.7818608E-02  0.1003942E+00
          2   -1    0    0  501    0  0.00000000000E+00  0.00000000000E+00  0.16230954467E+04  0.16230954467E+04  0.25500000000E-02 0. -1.
         -2   -1    0    0    0  501 -0.00000000000E+00 -0.00000000000E+00 -0.34738546142E+03  0.34738546143E+03  0.25500000000E-02 0.  1.
    8880023    1    1    2    0    0  0.20633215606E+03 -0.18220166929E+02  0.14856542625E+04  0.16382563069E+04  0.65864270000E+03 0.  0.
    8880022    1    1    2    0    0 -0.20633215606E+03  0.18220166929E+02 -0.20994427724E+03  0.33222460123E+03  0.15294330000E+03 0.  0.
<mgrwt>
<rscale>  0 0.53955224E+03</rscale>
<asrwt>0</asrwt>
<pdfrwt beam="1">  1        2 0.24970699E+00 0.69044561E+03</pdfrwt>
<pdfrwt beam="2">  1       -2 0.53443917E-01 0.69044561E+03</pdfrwt>
<totfact> 0.36867450E+01</totfact>
</mgrwt>
</event>
<event>
 4    2  0.3171963E-007  0.7217964E+03  0.7818608E-02  0.9916554E-01
          2   -1    0    0  501    0  0.00000000000E+00  0.00000000000E+00  0.35863266118E+04  0.35863266118E+04  0.25500000000E-02 0. -1.
         -2   -1    0    0    0  501 -0.00000000000E+00 -0.00000000000E+00 -0.12557102539E+03  0.12557102541E+03  0.25500000000E-02 0.  1.
    8880023    1    1    2    0    0 -0.29392629149E+03 -0.28057373920E+02  0.32237215805E+04  0.33035391501E+04  0.65864270000E+03 0. -1.
    8880022    1    1    2    0    0  0.29392629149E+03  0.28057373920E+02  0.23703400590E+03  0.40835848715E+03  0.15294330000E+03 0.  0.
<mgrwt>
<rscale>  0 0.59465690E+03</rscale>
<asrwt>0</asrwt>
<pdfrwt beam="1">  1        2 0.55174255E+00 0.72179643E+03</pdfrwt>
<pdfrwt beam="2">  1       -2 0.19318619E-01 0.72179643E+03</pdfrwt>
<totfact> 0.17396785E+01</totfact>
</mgrwt>
</event>
<event>
 4    2  0.3171963E-007  0.7420202E+03  0.7818608E-02  0.9854101E-01
          2   -1    0    0  501    0  0.00000000000E+00  0.00000000000E+00  0.11144291307E+04  0.11144291307E+04  0.25500000000E-02 0. -1.
         -2   -1    0    0    0  501 -0.00000000000E+00 -0.00000000000E+00 -0.41778063661E+03  0.41778063661E+03  0.25500000000E-02 0.  1.
    8880023    1    1    2    0    0 -0.10968924282E+03 -0.32365427237E+03  0.84938689636E+03  0.11278528822E+04  0.65864270000E+03 0.  0.
    8880022    1    1    2    0    0  0.10968924282E+03  0.32365427237E+03 -0.15273840222E+03  0.40435688512E+03  0.15294330000E+03 0.  0.
<mgrwt>
<rscale>  0 0.62538263E+03</rscale>
<asrwt>0</asrwt>
<pdfrwt beam="1">  1        2 0.17145063E+00 0.74202023E+03</pdfrwt>
<pdfrwt beam="2">  1       -2 0.64273945E-01 0.74202023E+03</pdfrwt>
<totfact> 0.48573549E+01</totfact>
</mgrwt>
</event>
<event>
 4    2  0.3227923E-007  0.7525518E+03  0.7818608E-02  0.9824786E-01
         -2   -1    0    0    0  501 -0.00000000000E+00  0.00000000000E+00  0.63906876797E+03  0.63906876798E+03  0.25500000000E-02 0.  1.
          2   -1    0    0  501    0  0.00000000000E+00 -0.00000000000E+00 -0.25244233898E+04  0.25244233898E+04  0.25500000000E-02 0. -1.
    8880023    1    1    2    0    0 -0.35865309829E+03  0.62385279368E+02 -0.23997708510E+04  0.25150018512E+04  0.65864270000E+03 0. -1.
    8880022    1    1    2    0    0  0.35865309829E+03 -0.62385279368E+02  0.51441622912E+03  0.64849030663E+03  0.15294330000E+03 0.  0.
<mgrwt>
<rscale>  0 0.64049168E+03</rscale>
<asrwt>0</asrwt>
<pdfrwt beam="1">  1        2 0.38837282E+00 0.75255178E+03</pdfrwt>
<pdfrwt beam="2">  1       -2 0.98318273E-01 0.75255178E+03</pdfrwt>
<totfact> 0.30433803E+00</totfact>
</mgrwt>
</event>
<event>
 4    2  0.3171963E-007  0.7718615E+03  0.7818608E-02  0.9775314E-01
         -2   -1    0    0    0  501 -0.00000000000E+00  0.00000000000E+00  0.83696518524E+03  0.83696518525E+03  0.25500000000E-02 0.  1.
          2   -1    0    0  501    0  0.00000000000E+00 -0.00000000000E+00 -0.75969011935E+03  0.75969011935E+03  0.25500000000E-02 0. -1.
    8880023    1    1    2    0    0 -0.61650160941E+02 -0.39769240410E+03 -0.46742170621E+03  0.90235982198E+03  0.65864270000E+03 0. -1.
    8880022    1    1    2    0    0  0.61650160941E+02  0.39769240410E+03  0.54469677210E+03  0.69429548262E+03  0.15294330000E+03 0.  0.
<mgrwt>
<rscale>  0 0.66704341E+03</rscale>
<asrwt>0</asrwt>
<pdfrwt beam="1">  1        2 0.11687540E+00 0.77186151E+03</pdfrwt>
<pdfrwt beam="2">  1       -2 0.12876387E+00 0.77186151E+03</pdfrwt>
<totfact> 0.16612352E+01</totfact>
</mgrwt>
</event>
<event>
 4    2  0.3171963E-007  0.9338219E+03  0.7818608E-02  0.9473783E-01
          2   -1    0    0  501    0  0.00000000000E+00  0.00000000000E+00  0.25828367619E+04  0.25828367619E+04  0.25500000000E-02 0. -1.
         -2   -1    0    0    0  501 -0.00000000000E+00 -0.00000000000E+00 -0.25672728984E+03  0.25672728985E+03  0.25500000000E-02 0.  1.
    8880023    1    1    2    0    0 -0.66002664754E+03  0.50772821926E+02  0.11508555536E+04  0.14820566002E+04  0.65864270000E+03 0.  0.
    8880022    1    1    2    0    0  0.66002664754E+03 -0.50772821926E+02  0.11752539185E+04  0.13575074515E+04  0.15294330000E+03 0.  0.
<mgrwt>
<rscale>  0 0.86244579E+03</rscale>
<asrwt>0</asrwt>
<pdfrwt beam="1">  1        2 0.39735951E+00 0.93382186E+03</pdfrwt>
<pdfrwt beam="2">  1       -2 0.39496505E-01 0.93382186E+03</pdfrwt>
<totfact> 0.19292940E+01</totfact>
</mgrwt>
</event>
<event>
 4    2  0.3171963E-007  0.6814152E+03  0.7818608E-02  0.1008534E+00
         -2   -1    0    0    0  501 -0.00000000000E+00  0.00000000000E+00  0.22253271419E+03  0.22253271420E+03  0.25500000000E-02 0.  1.
          2   -1    0    0  501    0  0.00000000000E+00 -0.00000000000E+00 -0.16176611493E+04  0.16176611493E+04  0.25500000000E-02 0. -1.
    8880023    1    1    2    0    0  0.50310528360E+02 -0.16728801575E+03 -0.14495458905E+04  0.16017209259E+04  0.65864270000E+03 0. -1.
    8880022    1    1    2    0    0 -0.50310528360E+02  0.16728801575E+03  0.54417455453E+02  0.23847293757E+03  0.15294330000E+03 0.  0.
<mgrwt>
<rscale>  0 0.52061369E+03</rscale>
<asrwt>0</asrwt>
<pdfrwt beam="1">  1        2 0.24887094E+00 0.68141517E+03</pdfrwt>
<pdfrwt beam="2">  1       -2 0.34235803E-01 0.68141517E+03</pdfrwt>
<totfact> 0.89506466E+01</totfact>
</mgrwt>
</event>
<event>
 4    2  0.3171963E-007  0.6775891E+03  0.7818608E-02  0.1010722E+00
          2   -1    0    0  501    0  0.00000000000E+00  0.00000000000E+00  0.16441818443E+04  0.16441818443E+04  0.25500000000E-02 0. -1.
         -2   -1    0    0    0  501 -0.00000000000E+00 -0.00000000000E+00 -0.23792030613E+03  0.23792030614E+03  0.25500000000E-02 0.  1.
    8880023    1    1    2    0    0  0.15895657706E+03  0.70436612045E+01  0.14972074948E+04  0.16433980940E+04  0.65864270000E+03 0. -1.
    8880022    1    1    2    0    0 -0.15895657706E+03 -0.70436612045E+01 -0.90945956588E+02  0.23870405650E+03  0.15294330000E+03 0.  0.
<mgrwt>
<rscale>  0 0.51188849E+03</rscale>
<asrwt>0</asrwt>
<pdfrwt beam="1">  1        2 0.25295105E+00 0.67758912E+03</pdfrwt>
<pdfrwt beam="2">  1       -2 0.36603124E-01 0.67758912E+03</pdfrwt>
<totfact> 0.76240084E+01</totfact>
</mgrwt>
</event>
<event>
 4    2  0.3171963E-007  0.7786077E+03  0.7818608E-02  0.9759118E-01
          2   -1    0    0  501    0  0.00000000000E+00  0.00000000000E+00  0.56022093243E+03  0.56022093244E+03  0.25500000000E-02 0. -1.
         -2   -1    0    0    0  501 -0.00000000000E+00 -0.00000000000E+00 -0.97893557990E+03  0.97893557991E+03  0.25500000000E-02 0.  1.
    8880023    1    1    2    0    0 -0.30902848433E+03 -0.27734659050E+03  0.17563238219E+03  0.79817083092E+03  0.65864270000E+03 0.  0.
    8880022    1    1    2    0    0  0.30902848433E+03  0.27734659050E+03 -0.59434702967E+03  0.74098568143E+03  0.15294330000E+03 0.  0.
<mgrwt>
<rscale>  0 0.67603435E+03</rscale>
<asrwt>0</asrwt>
<pdfrwt beam="1">  1        2 0.86187836E-01 0.77860769E+03</pdfrwt>
<pdfrwt beam="2">  1       -2 0.15060547E+00 0.77860769E+03</pdfrwt>
<totfact> 0.16148943E+01</totfact>
</mgrwt>
</event>
<event>
 4    2  0.3171963E-007  0.1151813E+04  0.7818608E-02  0.9205449E-01
          2   -1    0    0  501    0  0.00000000000E+00  0.00000000000E+00  0.23443350870E+04  0.23443350870E+04  0.25500000000E-02 0. -1.
         -2   -1    0    0    0  501 -0.00000000000E+00 -0.00000000000E+00 -0.49960744615E+03  0.49960744616E+03  0.25500000000E-02 0.  1.
    8880023    1    1    2    0    0 -0.92010468081E+03  0.21510362307E+03  0.68463286805E+03  0.13399233421E+04  0.65864270000E+03 0.  0.
    8880022    1    1    2    0    0  0.92010468081E+03 -0.21510362307E+03  0.11600947728E+04  0.15040191911E+04  0.15294330000E+03 0.  0.
<mgrwt>
<rscale>  0 0.10997358E+04</rscale>
<asrwt>0</asrwt>
<pdfrwt beam="1">  1        2 0.36066693E+00 0.11518127E+04</pdfrwt>
<pdfrwt beam="2">  1       -2 0.76862686E-01 0.11518127E+04</pdfrwt>
<totfact> 0.64039277E+00</totfact>
</mgrwt>
</event>
<event>
 4    2  0.3171963E-007  0.6748758E+03  0.7818608E-02  0.1012385E+00
          2   -1    0    0  501    0  0.00000000000E+00  0.00000000000E+00  0.23266948245E+04  0.23266948245E+04  0.25500000000E-02 0. -1.
         -2   -1    0    0    0  501 -0.00000000000E+00 -0.00000000000E+00 -0.10709095110E+03  0.10709095113E+03  0.25500000000E-02 0.  1.
    8880023    1    1    2    0    0  0.12725933603E+03 -0.73838833419E+02  0.20614630414E+04  0.21691212943E+04  0.65864270000E+03 0. -1.
    8880022    1    1    2    0    0 -0.12725933603E+03  0.73838833419E+02  0.15814083197E+03  0.26466448133E+03  0.15294330000E+03 0.  0.
<mgrwt>
<rscale>  0 0.50537784E+03</rscale>
<asrwt>0</asrwt>
<pdfrwt beam="1">  1        2 0.35795303E+00 0.67487578E+03</pdfrwt>
<pdfrwt beam="2">  1       -2 0.16475532E-01 0.67487578E+03</pdfrwt>
<totfact> 0.13617839E+02</totfact>
</mgrwt>
</event>
<event>
 4    2  0.3171963E-007  0.6880460E+03  0.7818608E-02  0.1005095E+00
         -2   -1    0    0    0  501 -0.00000000000E+00  0.00000000000E+00  0.20645554255E+03  0.20645554257E+03  0.25500000000E-02 0.  1.
          2   -1    0    0  501    0  0.00000000000E+00 -0.00000000000E+00 -0.17690591233E+04  0.17690591233E+04  0.25500000000E-02 0. -1.
    8880023    1    1    2    0    0 -0.19540448218E+03 -0.37604780274E+02 -0.15806321871E+04  0.17238924991E+04  0.65864270000E+03 0. -1.
    8880022    1    1    2    0    0  0.19540448218E+03  0.37604780274E+02  0.18028606380E+02  0.25162216679E+03  0.15294330000E+03 0.  0.
<mgrwt>
<rscale>  0 0.53471320E+03</rscale>
<asrwt>0</asrwt>
<pdfrwt beam="1">  1        2 0.27216293E+00 0.68804596E+03</pdfrwt>
<pdfrwt beam="2">  1       -2 0.31762392E-01 0.68804596E+03</pdfrwt>
<totfact> 0.85149118E+01</totfact>
</mgrwt>
</event>
<event>
 4    2  0.3171963E-007  0.7445758E+03  0.7818608E-02  0.9846813E-01
         -2   -1    0    0    0  501 -0.00000000000E+00  0.00000000000E+00  0.43085618669E+03  0.43085618670E+03  0.25500000000E-02 0.  1.
          2   -1    0    0  501    0  0.00000000000E+00 -0.00000000000E+00 -0.16288091652E+04  0.16288091652E+04  0.25500000000E-02 0. -1.
    8880023    1    1    2    0    0  0.30223635621E+03  0.17098557572E+03 -0.14318881851E+04  0.16139073279E+04  0.65864270000E+03 0. -1.
    8880022    1    1    2    0    0 -0.30223635621E+03 -0.17098557572E+03  0.23393520655E+03  0.44575802404E+03  0.15294330000E+03 0.  0.
<mgrwt>
<rscale>  0 0.62909667E+03</rscale>
<asrwt>0</asrwt>
<pdfrwt beam="1">  1        2 0.25058602E+00 0.74457578E+03</pdfrwt>
<pdfrwt beam="2">  1       -2 0.66285568E-01 0.74457578E+03</pdfrwt>
<totfact> 0.23091562E+01</totfact>
</mgrwt>
</event>
<event>
 4    2  0.3171963E-007  0.7172307E+03  0.7818608E-02  0.9932070E-01
         -2   -1    0    0    0  501 -0.00000000000E+00  0.00000000000E+00  0.68914115009E+03  0.68914115010E+03  0.25500000000E-02 0.  1.
          2   -1    0    0  501    0  0.00000000000E+00 -0.00000000000E+00 -0.47367237589E+03  0.47367237590E+03  0.25500000000E-02 0. -1.
    8880023    1    1    2    0    0  0.25425695453E+03  0.12634528754E+03  0.36793134725E+03  0.80609764493E+03  0.65864270000E+03 0.  0.
    8880022    1    1    2    0    0 -0.25425695453E+03 -0.12634528754E+03 -0.15246257305E+03  0.35671588107E+03  0.15294330000E+03 0.  0.
<mgrwt>
<rscale>  0 0.58731901E+03</rscale>
<asrwt>0</asrwt>
<pdfrwt beam="1">  1        2 0.72872673E-01 0.71723074E+03</pdfrwt>
<pdfrwt beam="2">  1       -2 0.10602172E+00 0.71723074E+03</pdfrwt>
<totfact> 0.47742029E+01</totfact>
</mgrwt>
</event>
<event>
 4    2  0.3171963E-007  0.1613694E+04  0.7818608E-02  0.8833263E-01
          2   -1    0    0  501    0  0.00000000000E+00  0.00000000000E+00  0.39641229889E+04  0.39641229889E+04  0.25500000000E-02 0. -1.
         -2   -1    0    0    0  501 -0.00000000000E+00 -0.00000000000E+00 -0.30293746953E+04  0.30293746953E+04  0.25500000000E-02 0.  1.
    8880023    1    1    2    0    0  0.68245062595E+03 -0.13055491513E+04 -0.26568449706E+04  0.31085097470E+04  0.65864270000E+03 0.  0.
    8880022    1    1    2    0    0 -0.68245062595E+03  0.13055491513E+04  0.35915932642E+04  0.38849879371E+04  0.15294330000E+03 0.  0.
<mgrwt>
<rscale>  0 0.15794659E+04</rscale>
<asrwt>0</asrwt>
<pdfrwt beam="1">  1        2 0.60986507E+00 0.16136938E+04</pdfrwt>
<pdfrwt beam="2">  1       -2 0.46605765E+00 0.16136938E+04</pdfrwt>
<totfact> 0.92729920E-04</totfact>
</mgrwt>
</event>
<event>
 4    2  0.3171963E-007  0.7279779E+03  0.7818608E-02  0.9896461E-01
          2   -1    0    0  501    0  0.00000000000E+00  0.00000000000E+00  0.18517421058E+04  0.18517421058E+04  0.25500000000E-02 0. -1.
         -2   -1    0    0    0  501 -0.00000000000E+00 -0.00000000000E+00 -0.17114373761E+03  0.17114373763E+03  0.25500000000E-02 0.  1.
    8880023    1    1    2    0    0 -0.28419453500E+03 -0.12399640452E+03  0.13986484429E+04  0.15767591177E+04  0.65864270000E+03 0. -1.
    8880022    1    1    2    0    0  0.28419453500E+03  0.12399640452E+03  0.28194992531E+03  0.44612672578E+03  0.15294330000E+03 0.  0.
<mgrwt>
<rscale>  0 0.60433085E+03</rscale>
<asrwt>0</asrwt>
<pdfrwt beam="1">  1        2 0.28488340E+00 0.72797792E+03</pdfrwt>
<pdfrwt beam="2">  1       -2 0.26329806E-01 0.72797792E+03</pdfrwt>
<totfact> 0.10802609E+02</totfact>
</mgrwt>
</event>
<event>
 4    2  0.3171963E-007  0.8134342E+03  0.7818608E-02  0.9682467E-01
          2   -1    0    0  501    0  0.00000000000E+00  0.00000000000E+00  0.10837752828E+04  0.10837752828E+04  0.25500000000E-02 0. -1.
         -2   -1    0    0    0  501 -0.00000000000E+00 -0.00000000000E+00 -0.86189955675E+03  0.86189955675E+03  0.25500000000E-02 0.  1.
    8880023    1    1    2    0    0  0.12676399370E+03 -0.46021287136E+03  0.82693566480E+03  0.11599559462E+04  0.65864270000E+03 0.  0.
    8880022    1    1    2    0    0 -0.12676399370E+03  0.46021287136E+03 -0.60505993870E+03  0.78571889344E+03  0.15294330000E+03 0.  0.
<mgrwt>
<rscale>  0 0.72070331E+03</rscale>
<asrwt>0</asrwt>
<pdfrwt beam="1">  1        2 0.16673466E+00 0.81343420E+03</pdfrwt>
<pdfrwt beam="2">  1       -2 0.13259993E+00 0.81343420E+03</pdfrwt>
<totfact> 0.93089875E+00</totfact>
</mgrwt>
</event>
<event>
 4    2  0.3171963E-007  0.6908298E+03  0.7818608E-02  0.1003761E+00
         -2   -1    0    0    0  501 -0.00000000000E+00  0.00000000000E+00  0.10666318825E+04  0.10666318825E+04  0.25500000000E-02 0.  1.
          2   -1    0    0  501    0  0.00000000000E+00 -0.00000000000E+00 -0.37191208638E+03  0.37191208639E+03  0.25500000000E-02 0. -1.
    8880023    1    1    2    0    0 -0.15587202487E+02 -0.20782850396E+03 -0.68487092203E+01  0.69086377747E+03  0.65864270000E+03 0.  0.
    8880022    1    1    2    0    0  0.15587202487E+02  0.20782850396E+03  0.70156850538E+03  0.74768019146E+03  0.15294330000E+03 0.  0.
<mgrwt>
<rscale>  0 0.54031566E+03</rscale>
<asrwt>0</asrwt>
<pdfrwt beam="1">  1        2 0.57217245E-01 0.69082983E+03</pdfrwt>
<pdfrwt beam="2">  1       -2 0.16409721E+00 0.69082983E+03</pdfrwt>
<totfact> 0.20672386E+01</totfact>
</mgrwt>
</event>
<event>
 4    2  0.3171963E-007  0.1199463E+04  0.7818608E-02  0.9157645E-01
         -2   -1    0    0    0  501 -0.00000000000E+00  0.00000000000E+00  0.12384001212E+04  0.12384001212E+04  0.25500000000E-02 0.  1.
          2   -1    0    0  501    0  0.00000000000E+00 -0.00000000000E+00 -0.10177481384E+04  0.10177481384E+04  0.25500000000E-02 0. -1.
    8880023    1    1    2    0    0  0.69308813735E+03 -0.72424429661E+03 -0.69294213571E+02  0.12014628008E+04  0.65864270000E+03 0.  1.
    8880022    1    1    2    0    0 -0.69308813735E+03  0.72424429661E+03  0.28994619637E+03  0.10546854589E+04  0.15294330000E+03 0. -1.
<mgrwt>
<rscale>  0 0.11501506E+04</rscale>
<asrwt>0</asrwt>
<pdfrwt beam="1">  1        2 0.15657664E+00 0.11994629E+04</pdfrwt>
<pdfrwt beam="2">  1       -2 0.19052310E+00 0.11994629E+04</pdfrwt>
<totfact> 0.36692049E+00</totfact>
</mgrwt>
</event>
<event>
 4    2  0.3171963E-007  0.7478559E+03  0.7818608E-02  0.9837627E-01
         -2   -1    0    0    0  501 -0.00000000000E+00  0.00000000000E+00  0.39621216410E+03  0.39621216411E+03  0.25500000000E-02 0.  1.
          2   -1    0    0  501    0  0.00000000000E+00 -0.00000000000E+00 -0.90483221910E+03  0.90483221910E+03  0.25500000000E-02 0. -1.
    8880023    1    1    2    0    0 -0.32720216328E+03  0.13570908730E+03 -0.52681343483E+03  0.91477910635E+03  0.65864270000E+03 0. -1.
    8880022    1    1    2    0    0  0.32720216328E+03 -0.13570908730E+03  0.18193379834E+02  0.38626527687E+03  0.15294330000E+03 0.  1.
<mgrwt>
<rscale>  0 0.63381758E+03</rscale>
<asrwt>0</asrwt>
<pdfrwt beam="1">  1        2 0.13920496E+00 0.74785588E+03</pdfrwt>
<pdfrwt beam="2">  1       -2 0.60955718E-01 0.74785588E+03</pdfrwt>
<totfact> 0.73905317E+01</totfact>
</mgrwt>
</event>
<event>
 4    2  0.3171963E-007  0.7373239E+03  0.7818608E-02  0.9867812E-01
          2   -1    0    0  501    0  0.00000000000E+00  0.00000000000E+00  0.12211781796E+04  0.12211781796E+04  0.25500000000E-02 0. -1.
         -2   -1    0    0    0  501 -0.00000000000E+00 -0.00000000000E+00 -0.70160266671E+03  0.70160266672E+03  0.25500000000E-02 0.  1.
    8880023    1    1    2    0    0 -0.23206891718E+03 -0.23660180059E+03  0.10474902525E+04  0.12809693321E+04  0.65864270000E+03 0.  0.
    8880022    1    1    2    0    0  0.23206891718E+03  0.23660180059E+03 -0.52791473968E+03  0.64181151419E+03  0.15294330000E+03 0.  0.
<mgrwt>
<rscale>  0 0.61846939E+03</rscale>
<asrwt>0</asrwt>
<pdfrwt beam="1">  1        2 0.18787356E+00 0.73732395E+03</pdfrwt>
<pdfrwt beam="2">  1       -2 0.10793887E+00 0.73732395E+03</pdfrwt>
<totfact> 0.12924673E+01</totfact>
</mgrwt>
</event>
<event>
 4    2  0.3171963E-007  0.6829409E+03  0.7818608E-02  0.1007707E+00
          2   -1    0    0  501    0  0.00000000000E+00  0.00000000000E+00  0.21758032269E+04  0.21758032269E+04  0.25500000000E-02 0. -1.
         -2   -1    0    0    0  501 -0.00000000000E+00 -0.00000000000E+00 -0.43652612109E+03  0.43652612109E+03  0.25500000000E-02 0.  1.
    8880023    1    1    2    0    0 -0.40009233140E+02 -0.17606048432E+03  0.20846541973E+04  0.21936707505E+04  0.65864270000E+03 0. -1.
    8880022    1    1    2    0    0  0.40009233140E+02  0.17606048432E+03 -0.34537709153E+03  0.41865859748E+03  0.15294330000E+03 0.  0.
<mgrwt>
<rscale>  0 0.52396326E+03</rscale>
<asrwt>0</asrwt>
<pdfrwt beam="1">  1        2 0.33473896E+00 0.68294088E+03</pdfrwt>
<pdfrwt beam="2">  1       -2 0.67157865E-01 0.68294088E+03</pdfrwt>
<totfact> 0.11392565E+01</totfact>
</mgrwt>
</event>
<event>
 4    2  0.3171963E-007  0.6739129E+03  0.7818608E-02  0.1013000E+00
          2   -1    0    0  501    0  0.00000000000E+00  0.00000000000E+00  0.57969934373E+03  0.57969934373E+03  0.25500000000E-02 0. -1.
         -2   -1    0    0    0  501 -0.00000000000E+00 -0.00000000000E+00 -0.68482649921E+03  0.68482649922E+03  0.25500000000E-02 0.  1.
    8880023    1    1    2    0    0 -0.79647483496E+02 -0.11834160174E+03  0.35310951350E+03  0.76081863221E+03  0.65864270000E+03 0. -1.
    8880022    1    1    2    0    0  0.79647483496E+02  0.11834160174E+03 -0.45823666899E+03  0.50370721074E+03  0.15294330000E+03 0.  0.
<mgrwt>
<rscale>  0 0.50299403E+03</rscale>
<asrwt>0</asrwt>
<pdfrwt beam="1">  1        2 0.89184515E-01 0.67391295E+03</pdfrwt>
<pdfrwt beam="2">  1       -2 0.10535792E+00 0.67391295E+03</pdfrwt>
<totfact> 0.38394455E+01</totfact>
</mgrwt>
</event>
<event>
 4    2  0.3171963E-007  0.6853401E+03  0.7818608E-02  0.1006451E+00
         -2   -1    0    0    0  501 -0.00000000000E+00  0.00000000000E+00  0.82537850525E+03  0.82537850525E+03  0.25500000000E-02 0.  1.
          2   -1    0    0  501    0  0.00000000000E+00 -0.00000000000E+00 -0.81110532790E+03  0.81110532791E+03  0.25500000000E-02 0. -1.
    8880023    1    1    2    0    0  0.18445226833E+03  0.43107577228E+02 -0.64041788290E+03  0.93799049756E+03  0.65864270000E+03 0. -1.
    8880022    1    1    2    0    0 -0.18445226833E+03 -0.43107577228E+02  0.65469106024E+03  0.69849333560E+03  0.15294330000E+03 0.  0.
<mgrwt>
<rscale>  0 0.52909826E+03</rscale>
<asrwt>0</asrwt>
<pdfrwt beam="1">  1        2 0.12478544E+00 0.68534014E+03</pdfrwt>
<pdfrwt beam="2">  1       -2 0.12698131E+00 0.68534014E+03</pdfrwt>
<totfact> 0.15930354E+01</totfact>
</mgrwt>
</event>
<event>
 4    2  0.3171963E-007  0.9229900E+03  0.7818608E-02  0.9490090E-01
          2   -1    0    0  501    0  0.00000000000E+00  0.00000000000E+00  0.30591204620E+04  0.30591204620E+04  0.25500000000E-02 0. -1.
         -2   -1    0    0    0  501 -0.00000000000E+00 -0.00000000000E+00 -0.32057654895E+03  0.32057654896E+03  0.25500000000E-02 0.  1.
    8880023    1    1    2    0    0  0.44521751310E+03 -0.46891536486E+03  0.25144101801E+04  0.26784639280E+04  0.65864270000E+03 0. -1.
    8880022    1    1    2    0    0 -0.44521751310E+03  0.46891536486E+03  0.22413373289E+03  0.70123308294E+03  0.15294330000E+03 0.  0.
<mgrwt>
<rscale>  0 0.85018429E+03</rscale>
<asrwt>0</asrwt>
<pdfrwt beam="1">  1        2 0.47063391E+00 0.92298996E+03</pdfrwt>
<pdfrwt beam="2">  1       -2 0.49319470E-01 0.92298996E+03</pdfrwt>
<totfact> 0.64433782E+00</totfact>
</mgrwt>
</event>
<event>
 4    2  0.3171963E-007  0.6931262E+03  0.7818608E-02  0.1002701E+00
          2   -1    0    0  501    0  0.00000000000E+00  0.00000000000E+00  0.20325920548E+04  0.20325920548E+04  0.25500000000E-02 0. -1.
         -2   -1    0    0    0  501 -0.00000000000E+00 -0.00000000000E+00 -0.26957148843E+03  0.26957148844E+03  0.25500000000E-02 0.  1.
    8880023    1    1    2    0    0  0.17961039719E+03 -0.11980758289E+03  0.18867794349E+04  0.20100648233E+04  0.65864270000E+03 0. -1.
    8880022    1    1    2    0    0 -0.17961039719E+03  0.11980758289E+03 -0.12375886844E+03  0.29209872001E+03  0.15294330000E+03 0.  0.
<mgrwt>
<rscale>  0 0.54481705E+03</rscale>
<asrwt>0</asrwt>
<pdfrwt beam="1">  1        2 0.31270647E+00 0.69312622E+03</pdfrwt>
<pdfrwt beam="2">  1       -2 0.41472536E-01 0.69312622E+03</pdfrwt>
<totfact> 0.36709755E+01</totfact>
</mgrwt>
</event>
<event>
 4    2  0.3171963E-007  0.7194975E+03  0.7818608E-02  0.9924290E-01
         -2   -1    0    0    0  501 -0.00000000000E+00  0.00000000000E+00  0.26470730415E+03  0.26470730416E+03  0.25500000000E-02 0.  1.
          2   -1    0    0  501    0  0.00000000000E+00 -0.00000000000E+00 -0.22124331304E+04  0.22124331304E+04  0.25500000000E-02 0. -1.
    8880023    1    1    2    0    0  0.12774615024E+03 -0.25989880838E+03 -0.20177864933E+04  0.21422275809E+04  0.65864270000E+03 0.  0.
    8880022    1    1    2    0    0 -0.12774615024E+03  0.25989880838E+03  0.70060667028E+02  0.33491285370E+03  0.15294330000E+03 0.  0.
<mgrwt>
<rscale>  0 0.59098403E+03</rscale>
<asrwt>0</asrwt>
<pdfrwt beam="1">  1        2 0.34037432E+00 0.71949752E+03</pdfrwt>
<pdfrwt beam="2">  1       -2 0.40724202E-01 0.71949752E+03</pdfrwt>
<totfact> 0.30209638E+01</totfact>
</mgrwt>
</event>
<event>
 4    2  0.3171963E-007  0.7108950E+03  0.7818608E-02  0.9954693E-01
         -2   -1    0    0    0  501 -0.00000000000E+00  0.00000000000E+00  0.94527716031E+03  0.94527716031E+03  0.25500000000E-02 0.  1.
          2   -1    0    0  501    0  0.00000000000E+00 -0.00000000000E+00 -0.35617293321E+03  0.35617293322E+03  0.25500000000E-02 0. -1.
    8880023    1    1    2    0    0 -0.22717055613E+02 -0.26654337607E+03  0.92328624530E+02  0.71686555024E+03  0.65864270000E+03 0.  0.
    8880022    1    1    2    0    0  0.22717055613E+02  0.26654337607E+03  0.49677560257E+03  0.58458454330E+03  0.15294330000E+03 0.  0.
<mgrwt>
<rscale>  0 0.57682319E+03</rscale>
<asrwt>0</asrwt>
<pdfrwt beam="1">  1        2 0.54795836E-01 0.71089496E+03</pdfrwt>
<pdfrwt beam="2">  1       -2 0.14542726E+00 0.71089496E+03</pdfrwt>
<totfact> 0.29908079E+01</totfact>
</mgrwt>
</event>
<event>
 4    2  0.3171963E-007  0.6683222E+03  0.7818608E-02  0.1016895E+00
         -2   -1    0    0    0  501 -0.00000000000E+00  0.00000000000E+00  0.28833625959E+03  0.28833625960E+03  0.25500000000E-02 0.  1.
          2   -1    0    0  501    0  0.00000000000E+00 -0.00000000000E+00 -0.84725456049E+03  0.84725456049E+03  0.25500000000E-02 0. -1.
    8880023    1    1    2    0    0  0.10062713839E+03  0.52139735665E+02 -0.64306630414E+03  0.92746366549E+03  0.65864270000E+03 0.  0.
    8880022    1    1    2    0    0 -0.10062713839E+03 -0.52139735665E+02  0.84148003244E+02  0.20812715460E+03  0.15294330000E+03 0.  1.
<mgrwt>
<rscale>  0 0.48823847E+03</rscale>
<asrwt>0</asrwt>
<pdfrwt beam="1">  1        2 0.13034685E+00 0.66832221E+03</pdfrwt>
<pdfrwt beam="2">  1       -2 0.44359425E-01 0.66832221E+03</pdfrwt>
<totfact> 0.15610042E+02</totfact>
</mgrwt>
</event>
<event>
 4    2  0.3171963E-007  0.8632282E+03  0.7818608E-02  0.9587847E-01
         -2   -1    0    0    0  501 -0.00000000000E+00  0.00000000000E+00  0.43283419076E+03  0.43283419077E+03  0.25500000000E-02 0.  1.
          2   -1    0    0  501    0  0.00000000000E+00 -0.00000000000E+00 -0.17299435134E+04  0.17299435134E+04  0.25500000000E-02 0. -1.
    8880023    1    1    2    0    0 -0.22614268412E+02 -0.55753149490E+03 -0.13274167046E+04  0.15834134289E+04  0.65864270000E+03 0.  0.
    8880022    1    1    2    0    0  0.22614268412E+02  0.55753149490E+03  0.30307382042E+02  0.57936427519E+03  0.15294330000E+03 0.  0.
<mgrwt>
<rscale>  0 0.78105820E+03</rscale>
<asrwt>0</asrwt>
<pdfrwt beam="1">  1        2 0.26614515E+00 0.86322823E+03</pdfrwt>
<pdfrwt beam="2">  1       -2 0.66589876E-01 0.86322823E+03</pdfrwt>
<totfact> 0.19838103E+01</totfact>
</mgrwt>
</event>
<event>
 4    2  0.3171963E-007  0.7590123E+03  0.7818608E-02  0.9807671E-01
          2   -1    0    0  501    0  0.00000000000E+00  0.00000000000E+00  0.29677657307E+04  0.29677657307E+04  0.25500000000E-02 0. -1.
         -2   -1    0    0    0  501 -0.00000000000E+00 -0.00000000000E+00 -0.53029656017E+03  0.53029656017E+03  0.25500000000E-02 0.  1.
    8880023    1    1    2    0    0  0.16849079951E+03  0.33749123389E+03  0.28315478666E+04  0.29315120688E+04  0.65864270000E+03 0. -1.
    8880022    1    1    2    0    0 -0.16849079951E+03 -0.33749123389E+03 -0.39407869603E+03  0.56655022209E+03  0.15294330000E+03 0.  0.
<mgrwt>
<rscale>  0 0.64952482E+03</rscale>
<asrwt>0</asrwt>
<pdfrwt beam="1">  1        2 0.45657935E+00 0.75901231E+03</pdfrwt>
<pdfrwt beam="2">  1       -2 0.81584085E-01 0.75901231E+03</pdfrwt>
<totfact> 0.25668017E+00</totfact>
</mgrwt>
</event>
<event>
 4    2  0.3171963E-007  0.8058645E+03  0.7818608E-02  0.9698256E-01
         -2   -1    0    0    0  501 -0.00000000000E+00  0.00000000000E+00  0.52700943496E+03  0.52700943497E+03  0.25500000000E-02 0.  1.
          2   -1    0    0  501    0  0.00000000000E+00 -0.00000000000E+00 -0.83293312689E+03  0.83293312690E+03  0.25500000000E-02 0. -1.
    8880023    1    1    2    0    0  0.21185813071E+02 -0.46385181677E+03 -0.32920485316E+03  0.87051329008E+03  0.65864270000E+03 0. -1.
    8880022    1    1    2    0    0 -0.21185813071E+02  0.46385181677E+03  0.23281161226E+02  0.48942927179E+03  0.15294330000E+03 0. -1.
<mgrwt>
<rscale>  0 0.71120699E+03</rscale>
<asrwt>0</asrwt>
<pdfrwt beam="1">  1        2 0.12814356E+00 0.80586448E+03</pdfrwt>
<pdfrwt beam="2">  1       -2 0.81078375E-01 0.80586448E+03</pdfrwt>
<totfact> 0.44178268E+01</totfact>
</mgrwt>
</event>
<event>
 4    2  0.3171963E-007  0.6794852E+03  0.7818608E-02  0.1009616E+00
          2   -1    0    0  501    0  0.00000000000E+00  0.00000000000E+00  0.17872291710E+04  0.17872291710E+04  0.25500000000E-02 0. -1.
         -2   -1    0    0    0  501 -0.00000000000E+00 -0.00000000000E+00 -0.32297861589E+03  0.32297861590E+03  0.25500000000E-02 0.  1.
    8880023    1    1    2    0    0  0.13590402696E+02  0.16644888076E+03  0.16708133743E+04  0.18036955029E+04  0.65864270000E+03 0. -1.
    8880022    1    1    2    0    0 -0.13590402696E+02 -0.16644888076E+03 -0.20656281924E+03  0.30651228403E+03  0.15294330000E+03 0.  0.
<mgrwt>
<rscale>  0 0.51627391E+03</rscale>
<asrwt>0</asrwt>
<pdfrwt beam="1">  1        2 0.27495834E+00 0.67948520E+03</pdfrwt>
<pdfrwt beam="2">  1       -2 0.49689017E-01 0.67948520E+03</pdfrwt>
<totfact> 0.34865300E+01</totfact>
</mgrwt>
</event>
<event>
 4    2  0.3171963E-007  0.7353753E+03  0.7818608E-02  0.9873629E-01
          2   -1    0    0  501    0  0.00000000000E+00  0.00000000000E+00  0.18261008819E+04  0.18261008819E+04  0.25500000000E-02 0. -1.
         -2   -1    0    0    0  501 -0.00000000000E+00 -0.00000000000E+00 -0.23062542949E+03  0.23062542950E+03  0.25500000000E-02 0.  1.
    8880023    1    1    2    0    0 -0.27174019024E+03  0.18199960246E+03  0.15190312788E+04  0.16876708265E+04  0.65864270000E+03 0. -1.
    8880022    1    1    2    0    0  0.27174019024E+03 -0.18199960246E+03  0.76444173661E+02  0.36905548498E+03  0.15294330000E+03 0.  0.
<mgrwt>
<rscale>  0 0.61556523E+03</rscale>
<asrwt>0</asrwt>
<pdfrwt beam="1">  1        2 0.28093859E+00 0.73537527E+03</pdfrwt>
<pdfrwt beam="2">  1       -2 0.35480836E-01 0.73537527E+03</pdfrwt>
<totfact> 0.63970325E+01</totfact>
</mgrwt>
</event>
<event>
 4    2  0.3171963E-007  0.6885144E+03  0.7818608E-02  0.1004867E+00
          2   -1    0    0  501    0  0.00000000000E+00  0.00000000000E+00  0.11276600414E+04  0.11276600414E+04  0.25500000000E-02 0. -1.
         -2   -1    0    0    0  501 -0.00000000000E+00 -0.00000000000E+00 -0.43027234073E+03  0.43027234074E+03  0.25500000000E-02 0.  1.
    8880023    1    1    2    0    0  0.78364258852E+02  0.18466415667E+03  0.96806025718E+03  0.11879363096E+04  0.65864270000E+03 0. -1.
    8880022    1    1    2    0    0 -0.78364258852E+02 -0.18466415667E+03 -0.27067255653E+03  0.36999607254E+03  0.15294330000E+03 0.  0.
<mgrwt>
<rscale>  0 0.53566768E+03</rscale>
<asrwt>0</asrwt>
<pdfrwt beam="1">  1        2 0.17348616E+00 0.68851435E+03</pdfrwt>
<pdfrwt beam="2">  1       -2 0.66195746E-01 0.68851435E+03</pdfrwt>
<totfact> 0.44993942E+01</totfact>
</mgrwt>
</event>
<event>
 4    2  0.3171963E-007  0.1070319E+04  0.7818608E-02  0.9294845E-01
          2   -1    0    0  501    0  0.00000000000E+00  0.00000000000E+00  0.95278679820E+03  0.95278679820E+03  0.25500000000E-02 0. -1.
         -2   -1    0    0    0  501 -0.00000000000E+00 -0.00000000000E+00 -0.10894522139E+04  0.10894522139E+04  0.25500000000E-02 0.  1.
    8880023    1    1    2    0    0 -0.67965407610E+03  0.49984213674E+03 -0.40413116082E+03  0.11440734357E+04  0.65864270000E+03 0.  1.
    8880022    1    1    2    0    0  0.67965407610E+03 -0.49984213674E+03  0.26746574513E+03  0.89816557641E+03  0.15294330000E+03 0.  0.
<mgrwt>
<rscale>  0 0.10125881E+04</rscale>
<asrwt>0</asrwt>
<pdfrwt beam="1">  1        2 0.14658258E+00 0.10703187E+04</pdfrwt>
<pdfrwt beam="2">  1       -2 0.16760803E+00 0.10703187E+04</pdfrwt>
<totfact> 0.59021579E+00</totfact>
</mgrwt>
</event>
<event>
 4    2  0.3171963E-007  0.8537377E+03  0.7818608E-02  0.9604801E-01
          2   -1    0    0  501    0  0.00000000000E+00  0.00000000000E+00  0.14178449593E+04  0.14178449593E+04  0.25500000000E-02 0. -1.
         -2   -1    0    0    0  501 -0.00000000000E+00 -0.00000000000E+00 -0.11395586718E+04  0.11395586718E+04  0.25500000000E-02 0.  1.
    8880023    1    1    2    0    0  0.19561301142E+03 -0.50674792041E+03  0.12023694034E+04  0.14746390384E+04  0.65864270000E+03 0.  0.
    8880022    1    1    2    0    0 -0.19561301142E+03  0.50674792041E+03 -0.92408311594E+03  0.10827645927E+04  0.15294330000E+03 0.  0.
<mgrwt>
<rscale>  0 0.76979208E+03</rscale>
<asrwt>0</asrwt>
<pdfrwt beam="1">  1        2 0.21813000E+00 0.85373773E+03</pdfrwt>
<pdfrwt beam="2">  1       -2 0.17531672E+00 0.85373773E+03</pdfrwt>
<totfact> 0.27941399E+00</totfact>
</mgrwt>
</event>
<event>
 4    2  0.3171963E-007  0.7295531E+03  0.7818608E-02  0.9891495E-01
          2   -1    0    0  501    0  0.00000000000E+00  0.00000000000E+00  0.93917305764E+03  0.93917305764E+03  0.25500000000E-02 0. -1.
         -2   -1    0    0    0  501 -0.00000000000E+00 -0.00000000000E+00 -0.31406386164E+03  0.31406386165E+03  0.25500000000E-02 0.  1.
    8880023    1    1    2    0    0  0.10607211798E+03 -0.29527325328E+03  0.49063827480E+03  0.87918923519E+03  0.65864270000E+03 0.  0.
    8880022    1    1    2    0    0 -0.10607211798E+03  0.29527325328E+03  0.13447092121E+03  0.37404768410E+03  0.15294330000E+03 0.  0.
<mgrwt>
<rscale>  0 0.60675260E+03</rscale>
<asrwt>0</asrwt>
<pdfrwt beam="1">  1        2 0.14448816E+00 0.72955315E+03</pdfrwt>
<pdfrwt beam="2">  1       -2 0.48317518E-01 0.72955315E+03</pdfrwt>
<totfact> 0.11356805E+02</totfact>
</mgrwt>
</event>
<event>
 4    2  0.3171963E-007  0.8380115E+03  0.7818608E-02  0.9633941E-01
          2   -1    0    0  501    0  0.00000000000E+00  0.00000000000E+00  0.18031263469E+04  0.18031263469E+04  0.25500000000E-02 0. -1.
         -2   -1    0    0    0  501 -0.00000000000E+00 -0.00000000000E+00 -0.49092352893E+03  0.49092352894E+03  0.25500000000E-02 0.  1.
    8880023    1    1    2    0    0  0.51333694629E+03 -0.70272192829E+02 -0.38934338344E+02  0.83891542510E+03  0.65864270000E+03 0.  0.
    8880022    1    1    2    0    0 -0.51333694629E+03  0.70272192829E+02  0.13511371563E+04  0.14551344507E+04  0.15294330000E+03 0.  0.
<mgrwt>
<rscale>  0 0.75089885E+03</rscale>
<asrwt>0</asrwt>
<pdfrwt beam="1">  1        2 0.27740405E+00 0.83801146E+03</pdfrwt>
<pdfrwt beam="2">  1       -2 0.75526697E-01 0.83801146E+03</pdfrwt>
<totfact> 0.13763406E+01</totfact>
</mgrwt>
</event>
<event>
 4    2  0.3171963E-007  0.7249018E+03  0.7818608E-02  0.9906336E-01
         -2   -1    0    0    0  501 -0.00000000000E+00  0.00000000000E+00  0.20857160906E+03  0.20857160907E+03  0.25500000000E-02 0.  1.
          2   -1    0    0  501    0  0.00000000000E+00 -0.00000000000E+00 -0.31228326323E+04  0.31228326323E+04  0.25500000000E-02 0. -1.
    8880023    1    1    2    0    0 -0.12128787535E+03  0.27741965412E+03 -0.29028592305E+04  0.29920017265E+04  0.65864270000E+03 0. -1.
    8880022    1    1    2    0    0  0.12128787535E+03 -0.27741965412E+03 -0.11401792759E+02  0.33940251486E+03  0.15294330000E+03 0.  0.
<mgrwt>
<rscale>  0 0.59955199E+03</rscale>
<asrwt>0</asrwt>
<pdfrwt beam="1">  1        2 0.48043575E+00 0.72490180E+03</pdfrwt>
<pdfrwt beam="2">  1       -2 0.32087942E-01 0.72490180E+03</pdfrwt>
<totfact> 0.14064031E+01</totfact>
</mgrwt>
</event>
<event>
 4    2  0.3171963E-007  0.6673297E+03  0.7818608E-02  0.1017654E+00
         -2   -1    0    0    0  501 -0.00000000000E+00  0.00000000000E+00  0.44848754832E+03  0.44848754833E+03  0.25500000000E-02 0.  1.
          2   -1    0    0  501    0  0.00000000000E+00 -0.00000000000E+00 -0.51509517280E+03  0.51509517280E+03  0.25500000000E-02 0. -1.
    8880023    1    1    2    0    0  0.96901594775E+02  0.46138830931E+02 -0.23951408297E+03  0.70901051684E+03  0.65864270000E+03 0. -1.
    8880022    1    1    2    0    0 -0.96901594775E+02 -0.46138830931E+02  0.17290645850E+03  0.25457220429E+03  0.15294330000E+03 0.  0.
<mgrwt>
<rscale>  0 0.48542779E+03</rscale>
<asrwt>0</asrwt>
<pdfrwt beam="1">  1        2 0.79245411E-01 0.66732969E+03</pdfrwt>
<pdfrwt beam="2">  1       -2 0.68998084E-01 0.66732969E+03</pdfrwt>
<totfact> 0.11585156E+02</totfact>
</mgrwt>
</event>
<event>
 4    2  0.3171963E-007  0.7735329E+03  0.7818608E-02  0.9771254E-01
          2   -1    0    0  501    0  0.00000000000E+00  0.00000000000E+00  0.87714938450E+03  0.87714938450E+03  0.25500000000E-02 0. -1.
         -2   -1    0    0    0  501 -0.00000000000E+00 -0.00000000000E+00 -0.60101733958E+03  0.60101733958E+03  0.25500000000E-02 0.  1.
    8880023    1    1    2    0    0  0.33106904645E+03  0.23438467087E+03  0.56440811670E+03  0.95755397546E+03  0.65864270000E+03 0.  0.
    8880022    1    1    2    0    0 -0.33106904645E+03 -0.23438467087E+03 -0.28827607178E+03  0.52061274863E+03  0.15294330000E+03 0.  0.
<mgrwt>
<rscale>  0 0.66928317E+03</rscale>
<asrwt>0</asrwt>
<pdfrwt beam="1">  1        2 0.13494606E+00 0.77353287E+03</pdfrwt>
<pdfrwt beam="2">  1       -2 0.92464207E-01 0.77353287E+03</pdfrwt>
<totfact> 0.30554225E+01</totfact>
</mgrwt>
</event>
<event>
 4    2  0.3171963E-007  0.8250533E+03  0.7818608E-02  0.9659035E-01
         -2   -1    0    0    0  501 -0.00000000000E+00  0.00000000000E+00  0.49468630488E+03  0.49468630489E+03  0.25500000000E-02 0.  1.
          2   -1    0    0  501    0  0.00000000000E+00 -0.00000000000E+00 -0.14472557845E+04  0.14472557845E+04  0.25500000000E-02 0. -1.
    8880023    1    1    2    0    0  0.16703989315E+03 -0.46797482108E+03 -0.11241815432E+04  0.13944522607E+04  0.65864270000E+03 0. -1.
    8880022    1    1    2    0    0 -0.16703989315E+03  0.46797482108E+03  0.17161206363E+03  0.54748982864E+03  0.15294330000E+03 0.  0.
<mgrwt>
<rscale>  0 0.73509106E+03</rscale>
<asrwt>0</asrwt>
<pdfrwt beam="1">  1        2 0.22265473E+00 0.82505331E+03</pdfrwt>
<pdfrwt beam="2">  1       -2 0.76105586E-01 0.82505331E+03</pdfrwt>
<totfact> 0.21320084E+01</totfact>
</mgrwt>
</event>
<event>
 4    2  0.3171963E-007  0.6679456E+03  0.7818608E-02  0.1017180E+00
          2   -1    0    0  501    0  0.00000000000E+00  0.00000000000E+00  0.24641151090E+04  0.24641151090E+04  0.25500000000E-02 0. -1.
         -2   -1    0    0    0  501 -0.00000000000E+00 -0.00000000000E+00 -0.91182537300E+02  0.91182537336E+02  0.25500000000E-02 0.  1.
    8880023    1    1    2    0    0  0.95865653072E+02 -0.56132730795E+02  0.21997673555E+04  0.22989405672E+04  0.65864270000E+03 0. -1.
    8880022    1    1    2    0    0 -0.95865653072E+02  0.56132730795E+02  0.17316521617E+03  0.25635707911E+03  0.15294330000E+03 0.  0.
<mgrwt>
<rscale>  0 0.48717965E+03</rscale>
<asrwt>0</asrwt>
<pdfrwt beam="1">  1        2 0.37909461E+00 0.66794559E+03</pdfrwt>
<pdfrwt beam="2">  1       -2 0.14028083E-01 0.66794559E+03</pdfrwt>
<totfact> 0.14989965E+02</totfact>
</mgrwt>
</event>
<event>
 4    2  0.3171963E-007  0.8011920E+03  0.7818608E-02  0.9708225E-01
         -2   -1    0    0    0  501 -0.00000000000E+00  0.00000000000E+00  0.55204619015E+03  0.55204619016E+03  0.25500000000E-02 0.  1.
          2   -1    0    0  501    0  0.00000000000E+00 -0.00000000000E+00 -0.10835198540E+04  0.10835198540E+04  0.25500000000E-02 0. -1.
    8880023    1    1    2    0    0 -0.33190654094E+03  0.31294809096E+03 -0.75874900866E+03  0.11034530910E+04  0.65864270000E+03 0. -1.
    8880022    1    1    2    0    0  0.33190654094E+03 -0.31294809096E+03  0.22727534483E+03  0.53211295317E+03  0.15294330000E+03 0.  0.
<mgrwt>
<rscale>  0 0.70529210E+03</rscale>
<asrwt>0</asrwt>
<pdfrwt beam="1">  1        2 0.16669536E+00 0.80119203E+03</pdfrwt>
<pdfrwt beam="2">  1       -2 0.84930183E-01 0.80119203E+03</pdfrwt>
<totfact> 0.27252267E+01</totfact>
</mgrwt>
</event>
<event>
 4    2  0.3171963E-007  0.1320189E+04  0.7818608E-02  0.9048319E-01
         -2   -1    0    0    0  501 -0.00000000000E+00  0.00000000000E+00  0.72968223963E+03  0.72968223964E+03  0.25500000000E-02 0.  1.
          2   -1    0    0  501    0  0.00000000000E+00 -0.00000000000E+00 -0.21583439821E+04  0.21583439821E+04  0.25500000000E-02 0. -1.
    8880023    1    1    2    0    0  0.33958041938E+03  0.10925996469E+04 -0.51978057809E+03  0.14188272993E+04  0.65864270000E+03 0.  0.
    8880022    1    1    2    0    0 -0.33958041938E+03 -0.10925996469E+04 -0.90888116440E+03  0.14691989224E+04  0.15294330000E+03 0.  0.
<mgrwt>
<rscale>  0 0.12766143E+04</rscale>
<asrwt>0</asrwt>
<pdfrwt beam="1">  1        2 0.33205292E+00 0.13201890E+04</pdfrwt>
<pdfrwt beam="2">  1       -2 0.11225881E+00 0.13201890E+04</pdfrwt>
<totfact> 0.32937066E+00</totfact>
</mgrwt>
</event>
<event>
 4    2  0.3171963E-007  0.6909457E+03  0.7818608E-02  0.1003706E+00
          2   -1    0    0  501    0  0.00000000000E+00  0.00000000000E+00  0.23936974429E+04  0.23936974429E+04  0.25500000000E-02 0. -1.
         -2   -1    0    0    0  501 -0.00000000000E+00 -0.00000000000E+00 -0.98853756205E+02  0.98853756238E+02  0.25500000000E-02 0.  1.
    8880023    1    1    2    0    0  0.47281682371E+02 -0.20337209194E+03  0.18869366385E+04  0.20094615820E+04  0.65864270000E+03 0. -1.
    8880022    1    1    2    0    0 -0.47281682371E+02  0.20337209194E+03  0.40790704814E+03  0.48308961716E+03  0.15294330000E+03 0. -1.
<mgrwt>
<rscale>  0 0.54054530E+03</rscale>
<asrwt>0</asrwt>
<pdfrwt beam="1">  1        2 0.36826114E+00 0.69094571E+03</pdfrwt>
<pdfrwt beam="2">  1       -2 0.15208271E-01 0.69094571E+03</pdfrwt>
<totfact> 0.14289559E+02</totfact>
</mgrwt>
</event>
<event>
 4    2  0.3171963E-007  0.1088163E+04  0.7818608E-02  0.9274350E-01
          2   -1    0    0  501    0  0.00000000000E+00  0.00000000000E+00  0.16004052579E+04  0.16004052579E+04  0.25500000000E-02 0. -1.
         -2   -1    0    0    0  501 -0.00000000000E+00 -0.00000000000E+00 -0.17366038458E+04  0.17366038458E+04  0.25500000000E-02 0.  1.
    8880023    1    1    2    0    0  0.74651153007E+03  0.43932905811E+03  0.12736997981E+04  0.16752345710E+04  0.65864270000E+03 0.  0.
    8880022    1    1    2    0    0 -0.74651153007E+03 -0.43932905811E+03 -0.14098983860E+04  0.16617745328E+04  0.15294330000E+03 0.  0.
<mgrwt>
<rscale>  0 0.10317889E+04</rscale>
<asrwt>0</asrwt>
<pdfrwt beam="1">  1        2 0.24621619E+00 0.10881634E+04</pdfrwt>
<pdfrwt beam="2">  1       -2 0.26716982E+00 0.10881634E+04</pdfrwt>
<totfact> 0.55537384E-01</totfact>
</mgrwt>
</event>
<event>
 4    2  0.3171963E-007  0.1071662E+04  0.7818608E-02  0.9293282E-01
         -2   -1    0    0    0  501 -0.00000000000E+00  0.00000000000E+00  0.10506447249E+04  0.10506447249E+04  0.25500000000E-02 0.  1.
          2   -1    0    0  501    0  0.00000000000E+00 -0.00000000000E+00 -0.14488078959E+04  0.14488078959E+04  0.25500000000E-02 0. -1.
    8880023    1    1    2    0    0  0.25493530724E+03  0.80601373148E+03 -0.98780820393E+03  0.14574722640E+04  0.65864270000E+03 0.  0.
    8880022    1    1    2    0    0 -0.25493530724E+03 -0.80601373148E+03  0.58964503296E+03  0.10419803569E+04  0.15294330000E+03 0.  0.
<mgrwt>
<rscale>  0 0.10140366E+04</rscale>
<asrwt>0</asrwt>
<pdfrwt beam="1">  1        2 0.22289352E+00 0.10716624E+04</pdfrwt>
<pdfrwt beam="2">  1       -2 0.16163765E+00 0.10716624E+04</pdfrwt>
<totfact> 0.32722293E+00</totfact>
</mgrwt>
</event>
<event>
 4    2  0.3171963E-007  0.7194116E+03  0.7818608E-02  0.9924582E-01
         -2   -1    0    0    0  501 -0.00000000000E+00  0.00000000000E+00  0.61790093420E+03  0.61790093420E+03  0.25500000000E-02 0.  1.
          2   -1    0    0  501    0  0.00000000000E+00 -0.00000000000E+00 -0.62936736371E+03  0.62936736372E+03  0.25500000000E-02 0. -1.
    8880023    1    1    2    0    0  0.26647193882E+02 -0.28815413999E+03 -0.32915120735E+03  0.79113437853E+03  0.65864270000E+03 0.  0.
    8880022    1    1    2    0    0 -0.26647193882E+02  0.28815413999E+03  0.31768477783E+03  0.45613391939E+03  0.15294330000E+03 0.  0.
<mgrwt>
<rscale>  0 0.59084597E+03</rscale>
<asrwt>0</asrwt>
<pdfrwt beam="1">  1        2 0.96825748E-01 0.71941163E+03</pdfrwt>
<pdfrwt beam="2">  1       -2 0.95061682E-01 0.71941163E+03</pdfrwt>
<totfact> 0.44190916E+01</totfact>
</mgrwt>
</event>
<event>
 4    2  0.3171963E-007  0.7902858E+03  0.7818608E-02  0.9732208E-01
         -2   -1    0    0    0  501 -0.00000000000E+00  0.00000000000E+00  0.16639723316E+04  0.16639723316E+04  0.25500000000E-02 0.  1.
          2   -1    0    0  501    0  0.00000000000E+00 -0.00000000000E+00 -0.63287460961E+03  0.63287460962E+03  0.25500000000E-02 0. -1.
    8880023    1    1    2    0    0 -0.42468552611E+03 -0.10190027374E+03 -0.33211504467E+03  0.85723513171E+03  0.65864270000E+03 0. -1.
    8880022    1    1    2    0    0  0.42468552611E+03  0.10190027374E+03  0.13632127667E+04  0.14396118095E+04  0.15294330000E+03 0.  0.
<mgrwt>
<rscale>  0 0.69131124E+03</rscale>
<asrwt>0</asrwt>
<pdfrwt beam="1">  1        2 0.97365326E-01 0.79028581E+03</pdfrwt>
<pdfrwt beam="2">  1       -2 0.25599574E+00 0.79028581E+03</pdfrwt>
<totfact> 0.28137595E+00</totfact>
</mgrwt>
</event>
<event>
 4    2  0.3171963E-007  0.1052178E+04  0.7818608E-02  0.9316268E-01
         -2   -1    0    0    0  501 -0.00000000000E+00  0.00000000000E+00  0.16179564466E+04  0.16179564466E+04  0.25500000000E-02 0.  1.
          2   -1    0    0  501    0  0.00000000000E+00 -0.00000000000E+00 -0.87714924693E+03  0.87714924694E+03  0.25500000000E-02 0. -1.
    8880023    1    1    2    0    0 -0.31825538898E+03  0.75629426326E+03 -0.36141275807E+03  0.11125182665E+04  0.65864270000E+03 0. -1.
    8880022    1    1    2    0    0  0.31825538898E+03 -0.75629426326E+03  0.11022199577E+04  0.13825874271E+04  0.15294330000E+03 0.  0.
<mgrwt>
<rscale>  0 0.99298876E+03</rscale>
<asrwt>0</asrwt>
<pdfrwt beam="1">  1        2 0.13494604E+00 0.10521776E+04</pdfrwt>
<pdfrwt beam="2">  1       -2 0.24891637E+00 0.10521776E+04</pdfrwt>
<totfact> 0.19653611E+00</totfact>
</mgrwt>
</event>
<event>
 4    2  0.3171963E-007  0.6681139E+03  0.7818608E-02  0.1017053E+00
          2   -1    0    0  501    0  0.00000000000E+00  0.00000000000E+00  0.78188796288E+03  0.78188796289E+03  0.25500000000E-02 0. -1.
         -2   -1    0    0    0  501 -0.00000000000E+00 -0.00000000000E+00 -0.70671522673E+03  0.70671522673E+03  0.25500000000E-02 0.  1.
    8880023    1    1    2    0    0 -0.41332698115E+02  0.10419960805E+03  0.62015427486E+03  0.91157417753E+03  0.65864270000E+03 0. -1.
    8880022    1    1    2    0    0  0.41332698115E+02 -0.10419960805E+03 -0.54498153870E+03  0.57702901209E+03  0.15294330000E+03 0.  0.
<mgrwt>
<rscale>  0 0.48765391E+03</rscale>
<asrwt>0</asrwt>
<pdfrwt beam="1">  1        2 0.12029046E+00 0.66811388E+03</pdfrwt>
<pdfrwt beam="2">  1       -2 0.10872542E+00 0.66811388E+03</pdfrwt>
<totfact> 0.24535781E+01</totfact>
</mgrwt>
</event>
<event>
 4    2  0.3171963E-007  0.7324969E+03  0.7818608E-02  0.9882368E-01
         -2   -1    0    0    0  501 -0.00000000000E+00  0.00000000000E+00  0.38469893562E+03  0.38469893563E+03  0.25500000000E-02 0.  1.
          2   -1    0    0  501    0  0.00000000000E+00 -0.00000000000E+00 -0.92652881056E+03  0.92652881056E+03  0.25500000000E-02 0. -1.
    8880023    1    1    2    0    0  0.18482675973E+03 -0.26187901243E+03 -0.60556684057E+03  0.95040146934E+03  0.65864270000E+03 0. -1.
    8880022    1    1    2    0    0 -0.18482675973E+03  0.26187901243E+03  0.63736965633E+02  0.36082627685E+03  0.15294330000E+03 0.  0.
<mgrwt>
<rscale>  0 0.61123475E+03</rscale>
<asrwt>0</asrwt>
<pdfrwt beam="1">  1        2 0.14254289E+00 0.73249693E+03</pdfrwt>
<pdfrwt beam="2">  1       -2 0.59184452E-01 0.73249693E+03</pdfrwt>
<totfact> 0.76168249E+01</totfact>
</mgrwt>
</event>
<event>
 4    2  0.3171963E-007  0.6979137E+03  0.7818608E-02  0.1000597E+00
          2   -1    0    0  501    0  0.00000000000E+00  0.00000000000E+00  0.84571041814E+03  0.84571041814E+03  0.25500000000E-02 0. -1.
         -2   -1    0    0    0  501 -0.00000000000E+00 -0.00000000000E+00 -0.56429525807E+03  0.56429525807E+03  0.25500000000E-02 0.  1.
    8880023    1    1    2    0    0 -0.20589353280E+03 -0.10431263928E+03  0.64681269644E+03  0.95155144059E+03  0.65864270000E+03 0.  0.
    8880022    1    1    2    0    0  0.20589353280E+03  0.10431263928E+03 -0.36539753636E+03  0.45845423562E+03  0.15294330000E+03 0.  0.
<mgrwt>
<rscale>  0 0.55389299E+03</rscale>
<asrwt>0</asrwt>
<pdfrwt beam="1">  1        2 0.13010930E+00 0.69791366E+03</pdfrwt>
<pdfrwt beam="2">  1       -2 0.86814655E-01 0.69791366E+03</pdfrwt>
<totfact> 0.37394325E+01</totfact>
</mgrwt>
</event>
<event>
 4    2  0.3171963E-007  0.1555117E+04  0.7818608E-02  0.8871666E-01
          2   -1    0    0  501    0  0.00000000000E+00  0.00000000000E+00  0.27712581929E+04  0.27712581929E+04  0.25500000000E-02 0. -1.
         -2   -1    0    0    0  501 -0.00000000000E+00 -0.00000000000E+00 -0.10483934985E+04  0.10483934985E+04  0.25500000000E-02 0.  1.
    8880023    1    1    2    0    0  0.18986942804E+03  0.13958969055E+04 -0.42775066132E+02  0.15557051401E+04  0.65864270000E+03 0.  0.
    8880022    1    1    2    0    0 -0.18986942804E+03 -0.13958969055E+04  0.17656397605E+04  0.22639465514E+04  0.15294330000E+03 0.  1.
<mgrwt>
<rscale>  0 0.15193819E+04</rscale>
<asrwt>0</asrwt>
<pdfrwt beam="1">  1        2 0.42634741E+00 0.15551170E+04</pdfrwt>
<pdfrwt beam="2">  1       -2 0.16129131E+00 0.15551170E+04</pdfrwt>
<totfact> 0.55691743E-01</totfact>
</mgrwt>
</event>
<event>
 4    2  0.3171963E-007  0.7001472E+03  0.7818608E-02  0.9996591E-01
         -2   -1    0    0    0  501 -0.00000000000E+00  0.00000000000E+00  0.24920824813E+03  0.24920824815E+03  0.25500000000E-02 0.  1.
          2   -1    0    0  501    0  0.00000000000E+00 -0.00000000000E+00 -0.15027211253E+04  0.15027211253E+04  0.25500000000E-02 0. -1.
    8880023    1    1    2    0    0  0.87738719122E+02  0.22067589989E+03 -0.12893638232E+04  0.14671963776E+04  0.65864270000E+03 0. -1.
    8880022    1    1    2    0    0 -0.87738719122E+02 -0.22067589989E+03  0.35850945954E+02  0.28473299592E+03  0.15294330000E+03 0.  0.
<mgrwt>
<rscale>  0 0.55799968E+03</rscale>
<asrwt>0</asrwt>
<pdfrwt beam="1">  1        2 0.23118786E+00 0.70014723E+03</pdfrwt>
<pdfrwt beam="2">  1       -2 0.38339731E-01 0.70014723E+03</pdfrwt>
<totfact> 0.83242141E+01</totfact>
</mgrwt>
</event>
<event>
 4    2  0.3171963E-007  0.7669989E+03  0.7818608E-02  0.9787314E-01
          2   -1    0    0  501    0  0.00000000000E+00  0.00000000000E+00  0.13909384289E+04  0.13909384289E+04  0.25500000000E-02 0. -1.
         -2   -1    0    0    0  501 -0.00000000000E+00 -0.00000000000E+00 -0.45736831212E+03  0.45736831213E+03  0.25500000000E-02 0.  1.
    8880023    1    1    2    0    0 -0.35146274877E+03 -0.17592908579E+03  0.11437295346E+04  0.13771000550E+04  0.65864270000E+03 0. -1.
    8880022    1    1    2    0    0  0.35146274877E+03  0.17592908579E+03 -0.21015941783E+03  0.47120668598E+03  0.15294330000E+03 0.  0.
<mgrwt>
<rscale>  0 0.66047824E+03</rscale>
<asrwt>0</asrwt>
<pdfrwt beam="1">  1        2 0.21399053E+00 0.76699890E+03</pdfrwt>
<pdfrwt beam="2">  1       -2 0.70364356E-01 0.76699890E+03</pdfrwt>
<totfact> 0.27447108E+01</totfact>
</mgrwt>
</event>
<event>
 4    2  0.3171963E-007  0.7120419E+03  0.7818608E-02  0.9950495E-01
         -2   -1    0    0    0  501 -0.00000000000E+00  0.00000000000E+00  0.12339536055E+03  0.12339536058E+03  0.25500000000E-02 0.  1.
          2   -1    0    0  501    0  0.00000000000E+00 -0.00000000000E+00 -0.27907468781E+04  0.27907468781E+04  0.25500000000E-02 0. -1.
    8880023    1    1    2    0    0 -0.26991985400E+03  0.18351033078E+02 -0.24025622823E+04  0.25058549867E+04  0.65864270000E+03 0. -1.
    8880022    1    1    2    0    0  0.26991985400E+03 -0.18351033078E+02 -0.26478923533E+03  0.40828725202E+03  0.15294330000E+03 0.  0.
<mgrwt>
<rscale>  0 0.57875261E+03</rscale>
<asrwt>0</asrwt>
<pdfrwt beam="1">  1        2 0.42934563E+00 0.71204192E+03</pdfrwt>
<pdfrwt beam="2">  1       -2 0.18983904E-01 0.71204192E+03</pdfrwt>
<totfact> 0.57716968E+01</totfact>
</mgrwt>
</event>
<event>
 4    2  0.3171963E-007  0.7669786E+03  0.7818608E-02  0.9787365E-01
          2   -1    0    0  501    0  0.00000000000E+00  0.00000000000E+00  0.26620168959E+03  0.26620168960E+03  0.25500000000E-02 0. -1.
         -2   -1    0    0    0  501 -0.00000000000E+00 -0.00000000000E+00 -0.17204876228E+04  0.17204876228E+04  0.25500000000E-02 0.  1.
    8880023    1    1    2    0    0 -0.38321564386E+03  0.87130151578E+02 -0.43069744095E+03  0.87963423360E+03  0.65864270000E+03 0. -1.
    8880022    1    1    2    0    0  0.38321564386E+03 -0.87130151578E+02 -0.10235884923E+04  0.11070550788E+04  0.15294330000E+03 0.  0.
<mgrwt>
<rscale>  0 0.66045061E+03</rscale>
<asrwt>0</asrwt>
<pdfrwt beam="1">  1        2 0.40954107E-01 0.76697855E+03</pdfrwt>
<pdfrwt beam="2">  1       -2 0.26469040E+00 0.76697855E+03</pdfrwt>
<totfact> 0.67373653E+00</totfact>
</mgrwt>
</event>
<event>
 4    2  0.3171963E-007  0.8968857E+03  0.7818608E-02  0.9531050E-01
          2   -1    0    0  501    0  0.00000000000E+00  0.00000000000E+00  0.37615844416E+04  0.37615844416E+04  0.25500000000E-02 0. -1.
         -2   -1    0    0    0  501 -0.00000000000E+00 -0.00000000000E+00 -0.17684176698E+03  0.17684176699E+03  0.25500000000E-02 0.  1.
    8880023    1    1    2    0    0  0.57925038986E+03  0.18725045216E+03  0.27595355128E+04  0.29016271640E+04  0.65864270000E+03 0. -1.
    8880022    1    1    2    0    0 -0.57925038986E+03 -0.18725045216E+03  0.82520716181E+03  0.10367990446E+04  0.15294330000E+03 0.  0.
<mgrwt>
<rscale>  0 0.82032857E+03</rscale>
<asrwt>0</asrwt>
<pdfrwt beam="1">  1        2 0.57870516E+00 0.89688570E+03</pdfrwt>
<pdfrwt beam="2">  1       -2 0.27206432E-01 0.89688570E+03</pdfrwt>
<totfact> 0.68544804E+00</totfact>
</mgrwt>
</event>
<event>
 4    2  0.3171963E-007  0.7753566E+03  0.7818608E-02  0.9766860E-01
          2   -1    0    0  501    0  0.00000000000E+00  0.00000000000E+00  0.88555528972E+03  0.88555528972E+03  0.25500000000E-02 0. -1.
         -2   -1    0    0    0  501 -0.00000000000E+00 -0.00000000000E+00 -0.66256410483E+03  0.66256410483E+03  0.25500000000E-02 0.  1.
    8880023    1    1    2    0    0  0.55758161740E+02 -0.40528842445E+03  0.59265685297E+03  0.97592009469E+03  0.65864270000E+03 0.  0.
    8880022    1    1    2    0    0 -0.55758161740E+02  0.40528842445E+03 -0.36966566808E+03  0.57219929986E+03  0.15294330000E+03 0.  0.
<mgrwt>
<rscale>  0 0.67171779E+03</rscale>
<asrwt>0</asrwt>
<pdfrwt beam="1">  1        2 0.13623927E+00 0.77535662E+03</pdfrwt>
<pdfrwt beam="2">  1       -2 0.10193294E+00 0.77535662E+03</pdfrwt>
<totfact> 0.23970446E+01</totfact>
</mgrwt>
</event>
<event>
 4    2  0.3796989E-007  0.9182022E+03  0.7818608E-02  0.9497421E-01
         -2   -1    0    0    0  501 -0.00000000000E+00  0.00000000000E+00  0.13248749714E+04  0.13248749714E+04  0.25500000000E-02 0.  1.
          2   -1    0    0  501    0  0.00000000000E+00 -0.00000000000E+00 -0.21010724432E+04  0.21010724432E+04  0.25500000000E-02 0. -1.
    8880023    1    1    2    0    0  0.63498193219E+03  0.77993337953E+02 -0.19076827238E+04  0.21171557798E+04  0.65864270000E+03 0. -1.
    8880022    1    1    2    0    0 -0.63498193219E+03 -0.77993337953E+02  0.11314852519E+04  0.13087916348E+04  0.15294330000E+03 0.  0.
<mgrwt>
<rscale>  0 0.84474216E+03</rscale>
<asrwt>0</asrwt>
<pdfrwt beam="1">  1        2 0.32324191E+00 0.91820217E+03</pdfrwt>
<pdfrwt beam="2">  1       -2 0.20382692E+00 0.91820217E+03</pdfrwt>
<totfact> 0.74689654E-01</totfact>
</mgrwt>
</event>
<event>
 4    2  0.3171963E-007  0.1141984E+04  0.7818608E-02  0.9215692E-01
          2   -1    0    0  501    0  0.00000000000E+00  0.00000000000E+00  0.10254323940E+04  0.10254323940E+04  0.25500000000E-02 0. -1.
         -2   -1    0    0    0  501 -0.00000000000E+00 -0.00000000000E+00 -0.18273568102E+04  0.18273568102E+04  0.25500000000E-02 0.  1.
    8880023    1    1    2    0    0  0.87363945708E+03 -0.32721690515E+03  0.49767973631E+03  0.12457175162E+04  0.65864270000E+03 0.  0.
    8880022    1    1    2    0    0 -0.87363945708E+03  0.32721690515E+03 -0.12996041526E+04  0.16070716880E+04  0.15294330000E+03 0.  0.
<mgrwt>
<rscale>  0 0.10892923E+04</rscale>
<asrwt>0</asrwt>
<pdfrwt beam="1">  1        2 0.15775883E+00 0.11419838E+04</pdfrwt>
<pdfrwt beam="2">  1       -2 0.28113182E+00 0.11419838E+04</pdfrwt>
<totfact> 0.98845150E-01</totfact>
</mgrwt>
</event>
<event>
 4    2  0.3171963E-007  0.7032705E+03  0.7818608E-02  0.9983895E-01
          2   -1    0    0  501    0  0.00000000000E+00  0.00000000000E+00  0.49469875997E+03  0.49469875998E+03  0.25500000000E-02 0. -1.
         -2   -1    0    0    0  501 -0.00000000000E+00 -0.00000000000E+00 -0.70040179383E+03  0.70040179383E+03  0.25500000000E-02 0.  1.
    8880023    1    1    2    0    0 -0.38920633773E+02  0.24344286606E+03  0.16696277960E+03  0.72281811046E+03  0.65864270000E+03 0. -1.
    8880022    1    1    2    0    0  0.38920633773E+02 -0.24344286606E+03 -0.37266581345E+03  0.47228244335E+03  0.15294330000E+03 0.  0.
<mgrwt>
<rscale>  0 0.56362087E+03</rscale>
<asrwt>0</asrwt>
<pdfrwt beam="1">  1        2 0.76107501E-01 0.70327054E+03</pdfrwt>
<pdfrwt beam="2">  1       -2 0.10775412E+00 0.70327054E+03</pdfrwt>
<totfact> 0.43716291E+01</totfact>
</mgrwt>
</event>
<event>
 4    2  0.3171963E-007  0.7559677E+03  0.7818608E-02  0.9815661E-01
         -2   -1    0    0    0  501 -0.00000000000E+00  0.00000000000E+00  0.72124607958E+03  0.72124607959E+03  0.25500000000E-02 0.  1.
          2   -1    0    0  501    0  0.00000000000E+00 -0.00000000000E+00 -0.19776525794E+04  0.19776525794E+04  0.25500000000E-02 0. -1.
    8880023    1    1    2    0    0  0.20575313817E+03  0.30877597955E+03 -0.18407908184E+04  0.19899743724E+04  0.65864270000E+03 0. -1.
    8880022    1    1    2    0    0 -0.20575313817E+03 -0.30877597955E+03  0.58438431854E+03  0.70892428664E+03  0.15294330000E+03 0.  0.
<mgrwt>
<rscale>  0 0.64528831E+03</rscale>
<asrwt>0</asrwt>
<pdfrwt beam="1">  1        2 0.30425424E+00 0.75596770E+03</pdfrwt>
<pdfrwt beam="2">  1       -2 0.11096094E+00 0.75596770E+03</pdfrwt>
<totfact> 0.45760674E+00</totfact>
</mgrwt>
</event>
<event>
 4    2  0.3171963E-007  0.7391572E+03  0.7818608E-02  0.9862409E-01
          2   -1    0    0  501    0  0.00000000000E+00  0.00000000000E+00  0.17197844373E+04  0.17197844373E+04  0.25500000000E-02 0. -1.
         -2   -1    0    0    0  501 -0.00000000000E+00 -0.00000000000E+00 -0.47662104939E+03  0.47662104939E+03  0.25500000000E-02 0.  1.
    8880023    1    1    2    0    0  0.27554176424E+03  0.19136336710E+03  0.15496839601E+04  0.17169373269E+04  0.65864270000E+03 0.  0.
    8880022    1    1    2    0    0 -0.27554176424E+03 -0.19136336710E+03 -0.30652057215E+03  0.47946815981E+03  0.15294330000E+03 0.  0.
<mgrwt>
<rscale>  0 0.62118216E+03</rscale>
<asrwt>0</asrwt>
<pdfrwt beam="1">  1        2 0.26458222E+00 0.73915723E+03</pdfrwt>
<pdfrwt beam="2">  1       -2 0.73326316E-01 0.73915723E+03</pdfrwt>
<totfact> 0.16530688E+01</totfact>
</mgrwt>
</event>
<event>
 4    2  0.3171963E-007  0.7321683E+03  0.7818608E-02  0.9883377E-01
         -2   -1    0    0    0  501 -0.00000000000E+00  0.00000000000E+00  0.49806711327E+03  0.49806711328E+03  0.25500000000E-02 0.  1.
          2   -1    0    0  501    0  0.00000000000E+00 -0.00000000000E+00 -0.78471629295E+03  0.78471629295E+03  0.25500000000E-02 0. -1.
    8880023    1    1    2    0    0 -0.27850460904E+03  0.15714761630E+03 -0.48341447372E+03  0.87735964703E+03  0.65864270000E+03 0. -1.
    8880022    1    1    2    0    0  0.27850460904E+03 -0.15714761630E+03  0.19676529405E+03  0.40542375920E+03  0.15294330000E+03 0.  1.
<mgrwt>
<rscale>  0 0.61073709E+03</rscale>
<asrwt>0</asrwt>
<pdfrwt beam="1">  1        2 0.12072558E+00 0.73216828E+03</pdfrwt>
<pdfrwt beam="2">  1       -2 0.76625710E-01 0.73216828E+03</pdfrwt>
<totfact> 0.54600497E+01</totfact>
</mgrwt>
</event>
<event>
 4    2  0.3171963E-007  0.7569441E+03  0.7818608E-02  0.9813084E-01
          2   -1    0    0  501    0  0.00000000000E+00  0.00000000000E+00  0.64558216647E+03  0.64558216647E+03  0.25500000000E-02 0. -1.
         -2   -1    0    0    0  501 -0.00000000000E+00 -0.00000000000E+00 -0.62257498531E+03  0.62257498531E+03  0.25500000000E-02 0.  1.
    8880023    1    1    2    0    0 -0.29546390561E+03 -0.22771736255E+03  0.26016668810E+03  0.80040678944E+03  0.65864270000E+03 0. -1.
    8880022    1    1    2    0    0  0.29546390561E+03  0.22771736255E+03 -0.23715950694E+03  0.46775036234E+03  0.15294330000E+03 0.  0.
<mgrwt>
<rscale>  0 0.64665077E+03</rscale>
<asrwt>0</asrwt>
<pdfrwt beam="1">  1        2 0.99320333E-01 0.75694407E+03</pdfrwt>
<pdfrwt beam="2">  1       -2 0.95780767E-01 0.75694407E+03</pdfrwt>
<totfact> 0.41963979E+01</totfact>
</mgrwt>
</event>
<event>
 4    2  0.3171963E-007  0.8706905E+03  0.7818608E-02  0.9574823E-01
         -2   -1    0    0    0  501 -0.00000000000E+00  0.00000000000E+00  0.32620359927E+03  0.32620359928E+03  0.25500000000E-02 0.  1.
          2   -1    0    0  501    0  0.00000000000E+00 -0.00000000000E+00 -0.36351054425E+04  0.36351054425E+04  0.25500000000E-02 0. -1.
    8880023    1    1    2    0    0  0.49599800441E+03 -0.27978144754E+03 -0.32547297033E+04  0.33691790286E+04  0.65864270000E+03 0. -1.
    8880022    1    1    2    0    0 -0.49599800441E+03  0.27978144754E+03 -0.54172139919E+02  0.59213001319E+03  0.15294330000E+03 0.  0.
<mgrwt>
<rscale>  0 0.78985219E+03</rscale>
<asrwt>0</asrwt>
<pdfrwt beam="1">  1        2 0.55924696E+00 0.87069046E+03</pdfrwt>
<pdfrwt beam="2">  1       -2 0.50185172E-01 0.87069046E+03</pdfrwt>
<totfact> 0.26057562E+00</totfact>
</mgrwt>
</event>
<event>
 4    2  0.3171963E-007  0.7293782E+03  0.7818608E-02  0.9892044E-01
         -2   -1    0    0    0  501 -0.00000000000E+00  0.00000000000E+00  0.37369482737E+03  0.37369482738E+03  0.25500000000E-02 0.  1.
          2   -1    0    0  501    0  0.00000000000E+00 -0.00000000000E+00 -0.82158906998E+03  0.82158906999E+03  0.25500000000E-02 0. -1.
    8880023    1    1    2    0    0  0.19570141527E+03  0.24471054504E+03 -0.16877518581E+03  0.74865049549E+03  0.65864270000E+03 0.  1.
    8880022    1    1    2    0    0 -0.19570141527E+03 -0.24471054504E+03 -0.27911905680E+03  0.44663340188E+03  0.15294330000E+03 0. -1.
<mgrwt>
<rscale>  0 0.60648440E+03</rscale>
<asrwt>0</asrwt>
<pdfrwt beam="1">  1        2 0.12639832E+00 0.72937816E+03</pdfrwt>
<pdfrwt beam="2">  1       -2 0.57491512E-01 0.72937816E+03</pdfrwt>
<totfact> 0.95514362E+01</totfact>
</mgrwt>
</event>
<event>
 4    2  0.3171963E-007  0.1025548E+04  0.7818608E-02  0.9348871E-01
          2   -1    0    0  501    0  0.00000000000E+00  0.00000000000E+00  0.17880559526E+04  0.17880559526E+04  0.25500000000E-02 0. -1.
         -2   -1    0    0    0  501 -0.00000000000E+00 -0.00000000000E+00 -0.88598098965E+03  0.88598098965E+03  0.25500000000E-02 0.  1.
    8880023    1    1    2    0    0 -0.77290828087E+03  0.14335508210E+03  0.13966941187E+04  0.17327730831E+04  0.65864270000E+03 0. -1.
    8880022    1    1    2    0    0  0.77290828087E+03 -0.14335508210E+03 -0.49461915575E+03  0.94126385910E+03  0.15294330000E+03 0.  0.
<mgrwt>
<rscale>  0 0.96405554E+03</rscale>
<asrwt>0</asrwt>
<pdfrwt beam="1">  1        2 0.27508553E+00 0.10255477E+04</pdfrwt>
<pdfrwt beam="2">  1       -2 0.13630477E+00 0.10255477E+04</pdfrwt>
<totfact> 0.33472443E+00</totfact>
</mgrwt>
</event>
<event>
 4    2  0.3171963E-007  0.6735079E+03  0.7818608E-02  0.1013264E+00
         -2   -1    0    0    0  501 -0.00000000000E+00  0.00000000000E+00  0.54291022405E+03  0.54291022406E+03  0.25500000000E-02 0.  1.
          2   -1    0    0  501    0  0.00000000000E+00 -0.00000000000E+00 -0.10645235414E+04  0.10645235415E+04  0.25500000000E-02 0. -1.
    8880023    1    1    2    0    0  0.41914198988E+01 -0.14065951179E+03 -0.93055215237E+03  0.11487124013E+04  0.65864270000E+03 0. -1.
    8880022    1    1    2    0    0 -0.41914198988E+01  0.14065951179E+03  0.40893883497E+03  0.45872136425E+03  0.15294330000E+03 0.  0.
<mgrwt>
<rscale>  0 0.50197876E+03</rscale>
<asrwt>0</asrwt>
<pdfrwt beam="1">  1        2 0.16377285E+00 0.67350789E+03</pdfrwt>
<pdfrwt beam="2">  1       -2 0.83524650E-01 0.67350789E+03</pdfrwt>
<totfact> 0.29463600E+01</totfact>
</mgrwt>
</event>
<event>
 4    2  0.3171963E-007  0.7529781E+03  0.7818608E-02  0.9823638E-01
          2   -1    0    0  501    0  0.00000000000E+00  0.00000000000E+00  0.94382360723E+03  0.94382360724E+03  0.25500000000E-02 0. -1.
         -2   -1    0    0    0  501 -0.00000000000E+00 -0.00000000000E+00 -0.10671724964E+04  0.10671724964E+04  0.25500000000E-02 0.  1.
    8880023    1    1    2    0    0 -0.36354402931E+03  0.31646877848E+02  0.74345218476E+03  0.10581574285E+04  0.65864270000E+03 0. -1.
    8880022    1    1    2    0    0  0.36354402931E+03 -0.31646877848E+02 -0.86680107389E+03  0.95283867514E+03  0.15294330000E+03 0.  0.
<mgrwt>
<rscale>  0 0.64109290E+03</rscale>
<asrwt>0</asrwt>
<pdfrwt beam="1">  1        2 0.14520363E+00 0.75297808E+03</pdfrwt>
<pdfrwt beam="2">  1       -2 0.16418038E+00 0.75297808E+03</pdfrwt>
<totfact> 0.65519975E+00</totfact>
</mgrwt>
</event>
<event>
 4    2  0.3171963E-007  0.7098878E+03  0.7818608E-02  0.9958418E-01
         -2   -1    0    0    0  501 -0.00000000000E+00  0.00000000000E+00  0.86757498879E+03  0.86757498880E+03  0.25500000000E-02 0.  1.
          2   -1    0    0  501    0  0.00000000000E+00 -0.00000000000E+00 -0.14460921223E+04  0.14460921223E+04  0.25500000000E-02 0. -1.
    8880023    1    1    2    0    0 -0.61532965225E+02  0.25757373349E+03 -0.13270948063E+04  0.15050320146E+04  0.65864270000E+03 0. -1.
    8880022    1    1    2    0    0  0.61532965225E+02 -0.25757373349E+03  0.74857767279E+03  0.80863509644E+03  0.15294330000E+03 0.  0.
<mgrwt>
<rscale>  0 0.57511757E+03</rscale>
<asrwt>0</asrwt>
<pdfrwt beam="1">  1        2 0.22247571E+00 0.70988784E+03</pdfrwt>
<pdfrwt beam="2">  1       -2 0.13347308E+00 0.70988784E+03</pdfrwt>
<totfact> 0.57016808E+00</totfact>
</mgrwt>
</event>
<event>
 4    2  0.3171963E-007  0.9867792E+03  0.7818608E-02  0.9399063E-01
          2   -1    0    0  501    0  0.00000000000E+00  0.00000000000E+00  0.16554952394E+04  0.16554952394E+04  0.25500000000E-02 0. -1.
         -2   -1    0    0    0  501 -0.00000000000E+00 -0.00000000000E+00 -0.93623874300E+03  0.93623874301E+03  0.25500000000E-02 0.  1.
    8880023    1    1    2    0    0 -0.57381661736E+03  0.45897436824E+03  0.13075446687E+04  0.16381105726E+04  0.65864270000E+03 0. -1.
    8880022    1    1    2    0    0  0.57381661736E+03 -0.45897436824E+03 -0.58828817233E+03  0.95362340983E+03  0.15294330000E+03 0.  0.
<mgrwt>
<rscale>  0 0.92152871E+03</rscale>
<asrwt>0</asrwt>
<pdfrwt beam="1">  1        2 0.25469157E+00 0.98677920E+03</pdfrwt>
<pdfrwt beam="2">  1       -2 0.14403673E+00 0.98677920E+03</pdfrwt>
<totfact> 0.34474698E+00</totfact>
</mgrwt>
</event>
<event>
 4    2  0.3171963E-007  0.7270096E+03  0.7818608E-02  0.9899544E-01
         -2   -1    0    0    0  501 -0.00000000000E+00  0.00000000000E+00  0.10939068093E+04  0.10939068093E+04  0.25500000000E-02 0.  1.
          2   -1    0    0  501    0  0.00000000000E+00 -0.00000000000E+00 -0.26759537852E+03  0.26759537853E+03  0.25500000000E-02 0. -1.
    8880023    1    1    2    0    0  0.73138356015E+02 -0.29897068211E+03  0.65005103247E+03  0.97524829605E+03  0.65864270000E+03 0.  0.
    8880022    1    1    2    0    0 -0.73138356015E+02  0.29897068211E+03  0.17626039830E+03  0.38625389177E+03  0.15294330000E+03 0. -1.
<mgrwt>
<rscale>  0 0.60283369E+03</rscale>
<asrwt>0</asrwt>
<pdfrwt beam="1">  1        2 0.41168521E-01 0.72700956E+03</pdfrwt>
<pdfrwt beam="2">  1       -2 0.16829335E+00 0.72700956E+03</pdfrwt>
<totfact> 0.27740656E+01</totfact>
</mgrwt>
</event>
<event>
 4    2  0.3171963E-007  0.7200325E+03  0.7818608E-02  0.9922476E-01
          2   -1    0    0  501    0  0.00000000000E+00  0.00000000000E+00  0.76348985098E+03  0.76348985098E+03  0.25500000000E-02 0. -1.
         -2   -1    0    0    0  501 -0.00000000000E+00 -0.00000000000E+00 -0.43057250191E+03  0.43057250191E+03  0.25500000000E-02 0.  1.
    8880023    1    1    2    0    0  0.21965080523E+03  0.19076180004E+03 -0.85904325851E+01  0.72008370513E+03  0.65864270000E+03 0.  1.
    8880022    1    1    2    0    0 -0.21965080523E+03 -0.19076180004E+03  0.34150778166E+03  0.47397864777E+03  0.15294330000E+03 0.  0.
<mgrwt>
<rscale>  0 0.59184257E+03</rscale>
<asrwt>0</asrwt>
<pdfrwt beam="1">  1        2 0.11745998E+00 0.72003246E+03</pdfrwt>
<pdfrwt beam="2">  1       -2 0.66241924E-01 0.72003246E+03</pdfrwt>
<totfact> 0.77929406E+01</totfact>
</mgrwt>
</event>
<event>
 4    2  0.3171963E-007  0.6609672E+03  0.7818608E-02  0.1023187E+00
          2   -1    0    0  501    0  0.00000000000E+00  0.00000000000E+00  0.11657975013E+04  0.11657975013E+04  0.25500000000E-02 0. -1.
         -2   -1    0    0    0  501 -0.00000000000E+00 -0.00000000000E+00 -0.42885263866E+03  0.42885263867E+03  0.25500000000E-02 0.  1.
    8880023    1    1    2    0    0 -0.53060208500E+02 -0.15877358791E+02  0.10506579870E+04  0.12412734945E+04  0.65864270000E+03 0. -1.
    8880022    1    1    2    0    0  0.53060208500E+02  0.15877358791E+02 -0.31371312428E+03  0.35337664554E+03  0.15294330000E+03 0.  0.
<mgrwt>
<rscale>  0 0.46553988E+03</rscale>
<asrwt>0</asrwt>
<pdfrwt beam="1">  1        2 0.17935346E+00 0.66096723E+03</pdfrwt>
<pdfrwt beam="2">  1       -2 0.65977330E-01 0.66096723E+03</pdfrwt>
<totfact> 0.43115974E+01</totfact>
</mgrwt>
</event>
<event>
 4    2  0.3171963E-007  0.1022776E+04  0.7818608E-02  0.9352348E-01
          2   -1    0    0  501    0  0.00000000000E+00  0.00000000000E+00  0.16373623364E+04  0.16373623364E+04  0.25500000000E-02 0. -1.
         -2   -1    0    0    0  501 -0.00000000000E+00 -0.00000000000E+00 -0.12578099422E+04  0.12578099422E+04  0.25500000000E-02 0.  1.
    8880023    1    1    2    0    0 -0.17611920069E+03  0.76239283691E+03  0.13150896294E+04  0.16659927222E+04  0.65864270000E+03 0. -1.
    8880022    1    1    2    0    0  0.17611920069E+03 -0.76239283691E+03 -0.93553723522E+03  0.12291795565E+04  0.15294330000E+03 0.  0.
<mgrwt>
<rscale>  0 0.96103213E+03</rscale>
<asrwt>0</asrwt>
<pdfrwt beam="1">  1        2 0.25190190E+00 0.10227761E+04</pdfrwt>
<pdfrwt beam="2">  1       -2 0.19350922E+00 0.10227761E+04</pdfrwt>
<totfact> 0.15469747E+00</totfact>
</mgrwt>
</event>
<event>
 4    2  0.3171963E-007  0.8168232E+03  0.7818608E-02  0.9675536E-01
          2   -1    0    0  501    0  0.00000000000E+00  0.00000000000E+00  0.18085610728E+04  0.18085610728E+04  0.25500000000E-02 0. -1.
         -2   -1    0    0    0  501 -0.00000000000E+00 -0.00000000000E+00 -0.26561553460E+03  0.26561553462E+03  0.25500000000E-02 0.  1.
    8880023    1    1    2    0    0  0.47704566980E+03  0.76271185490E+02  0.12366580493E+04  0.14820672056E+04  0.65864270000E+03 0. -1.
    8880022    1    1    2    0    0 -0.47704566980E+03 -0.76271185490E+02  0.30628748887E+03  0.59210940177E+03  0.15294330000E+03 0.  1.
<mgrwt>
<rscale>  0 0.72492237E+03</rscale>
<asrwt>0</asrwt>
<pdfrwt beam="1">  1        2 0.27824016E+00 0.81682316E+03</pdfrwt>
<pdfrwt beam="2">  1       -2 0.40863929E-01 0.81682316E+03</pdfrwt>
<totfact> 0.49327093E+01</totfact>
</mgrwt>
</event>
<event>
 4    2  0.3171963E-007  0.8300962E+03  0.7818608E-02  0.9649145E-01
         -2   -1    0    0    0  501 -0.00000000000E+00  0.00000000000E+00  0.11886708504E+04  0.11886708504E+04  0.25500000000E-02 0.  1.
          2   -1    0    0  501    0  0.00000000000E+00 -0.00000000000E+00 -0.15688822536E+04  0.15688822537E+04  0.25500000000E-02 0. -1.
    8880023    1    1    2    0    0  0.42701664257E+02 -0.50341443482E+03 -0.13894942281E+04  0.16185653961E+04  0.65864270000E+03 0. -1.
    8880022    1    1    2    0    0 -0.42701664257E+02  0.50341443482E+03  0.10092828248E+04  0.11389877079E+04  0.15294330000E+03 0.  0.
<mgrwt>
<rscale>  0 0.74127096E+03</rscale>
<asrwt>0</asrwt>
<pdfrwt beam="1">  1        2 0.24136650E+00 0.83009622E+03</pdfrwt>
<pdfrwt beam="2">  1       -2 0.18287244E+00 0.83009622E+03</pdfrwt>
<totfact> 0.20469075E+00</totfact>
</mgrwt>
</event>
<event>
 4    2  0.3171963E-007  0.6722554E+03  0.7818608E-02  0.1014095E+00
          2   -1    0    0  501    0  0.00000000000E+00  0.00000000000E+00  0.43211502873E+03  0.43211502873E+03  0.25500000000E-02 0. -1.
         -2   -1    0    0    0  501 -0.00000000000E+00 -0.00000000000E+00 -0.99663981535E+03  0.99663981535E+03  0.25500000000E-02 0.  1.
    8880023    1    1    2    0    0  0.13072616495E+03 -0.32058297630E+02  0.14742206730E+03  0.68823000286E+03  0.65864270000E+03 0. -1.
    8880022    1    1    2    0    0 -0.13072616495E+03  0.32058297630E+02 -0.71194685392E+03  0.74052484123E+03  0.15294330000E+03 0.  0.
<mgrwt>
<rscale>  0 0.49879044E+03</rscale>
<asrwt>0</asrwt>
<pdfrwt beam="1">  1        2 0.66479236E-01 0.67225536E+03</pdfrwt>
<pdfrwt beam="2">  1       -2 0.15332920E+00 0.67225536E+03</pdfrwt>
<totfact> 0.21006238E+01</totfact>
</mgrwt>
</event>
<event>
 4    2  0.3171963E-007  0.7132627E+03  0.7818608E-02  0.9946079E-01
         -2   -1    0    0    0  501 -0.00000000000E+00  0.00000000000E+00  0.88190196255E+02  0.88190196292E+02  0.25500000000E-02 0.  1.
          2   -1    0    0  501    0  0.00000000000E+00 -0.00000000000E+00 -0.30786389322E+04  0.30786389322E+04  0.25500000000E-02 0. -1.
    8880023    1    1    2    0    0 -0.20274761249E+03  0.18392068129E+03 -0.23098877523E+04  0.24175038875E+04  0.65864270000E+03 0.  0.
    8880022    1    1    2    0    0  0.20274761249E+03 -0.18392068129E+03 -0.68056098362E+03  0.74932524102E+03  0.15294330000E+03 0. -1.
<mgrwt>
<rscale>  0 0.58079136E+03</rscale>
<asrwt>0</asrwt>
<pdfrwt beam="1">  1        2 0.47363668E+00 0.71326266E+03</pdfrwt>
<pdfrwt beam="2">  1       -2 0.13567725E-01 0.71326266E+03</pdfrwt>
<totfact> 0.68517112E+01</totfact>
</mgrwt>
</event>
<event>
 4    2  0.3171963E-007  0.7612070E+03  0.7818608E-02  0.9801993E-01
         -2   -1    0    0    0  501 -0.00000000000E+00  0.00000000000E+00  0.52806262466E+03  0.52806262467E+03  0.25500000000E-02 0.  1.
          2   -1    0    0  501    0  0.00000000000E+00 -0.00000000000E+00 -0.65577658143E+03  0.65577658144E+03  0.25500000000E-02 0. -1.
    8880023    1    1    2    0    0 -0.36942532853E+03 -0.95660266862E+02 -0.13272331939E+03  0.77269117103E+03  0.65864270000E+03 0.  0.
    8880022    1    1    2    0    0  0.36942532853E+03  0.95660266862E+02  0.50093626157E+01  0.41114803507E+03  0.15294330000E+03 0.  1.
<mgrwt>
<rscale>  0 0.65255721E+03</rscale>
<asrwt>0</asrwt>
<pdfrwt beam="1">  1        2 0.10088870E+00 0.76120705E+03</pdfrwt>
<pdfrwt beam="2">  1       -2 0.81240404E-01 0.76120705E+03</pdfrwt>
<totfact> 0.60068469E+01</totfact>
</mgrwt>
</event>
<event>
 4    2  0.3171963E-007  0.6634636E+03  0.7818608E-02  0.1020859E+00
          2   -1    0    0  501    0  0.00000000000E+00  0.00000000000E+00  0.15082559204E+04  0.15082559204E+04  0.25500000000E-02 0. -1.
         -2   -1    0    0    0  501 -0.00000000000E+00 -0.00000000000E+00 -0.37916591942E+03  0.37916591943E+03  0.25500000000E-02 0.  1.
    8880023    1    1    2    0    0  0.45124561094E+02 -0.65859519648E+02  0.14096963502E+04  0.15580204455E+04  0.65864270000E+03 0. -1.
    8880022    1    1    2    0    0 -0.45124561094E+02  0.65859519648E+02 -0.28060634926E+03  0.32940139436E+03  0.15294330000E+03 0.  0.
<mgrwt>
<rscale>  0 0.47377997E+03</rscale>
<asrwt>0</asrwt>
<pdfrwt beam="1">  1        2 0.23203937E+00 0.66346357E+03</pdfrwt>
<pdfrwt beam="2">  1       -2 0.58333219E-01 0.66346357E+03</pdfrwt>
<totfact> 0.35677190E+01</totfact>
</mgrwt>
</event>
<event>
 4    2  0.3171963E-007  0.6695685E+03  0.7818608E-02  0.1015974E+00
          2   -1    0    0  501    0  0.00000000000E+00  0.00000000000E+00  0.87861689350E+03  0.87861689350E+03  0.25500000000E-02 0. -1.
         -2   -1    0    0    0  501 -0.00000000000E+00 -0.00000000000E+00 -0.86676417596E+03  0.86676417596E+03  0.25500000000E-02 0.  1.
    8880023    1    1    2    0    0 -0.81378121679E+02 -0.88822156893E+02  0.73630653923E+03  0.99522324140E+03  0.65864270000E+03 0. -1.
    8880022    1    1    2    0    0  0.81378121679E+02  0.88822156893E+02 -0.72445382168E+03  0.75015782807E+03  0.15294330000E+03 0.  0.
<mgrwt>
<rscale>  0 0.49167833E+03</rscale>
<asrwt>0</asrwt>
<pdfrwt beam="1">  1        2 0.13517183E+00 0.66956850E+03</pdfrwt>
<pdfrwt beam="2">  1       -2 0.13334833E+00 0.66956850E+03</pdfrwt>
<totfact> 0.12661049E+01</totfact>
</mgrwt>
</event>
<event>
 4    2  0.3171963E-007  0.1012762E+04  0.7818608E-02  0.9365048E-01
          2   -1    0    0  501    0  0.00000000000E+00  0.00000000000E+00  0.12181380153E+04  0.12181380153E+04  0.25500000000E-02 0. -1.
         -2   -1    0    0    0  501 -0.00000000000E+00 -0.00000000000E+00 -0.17120800283E+04  0.17120800283E+04  0.25500000000E-02 0.  1.
    8880023    1    1    2    0    0  0.75318434364E+02 -0.76563937153E+03  0.88423614708E+03  0.13444553856E+04  0.65864270000E+03 0. -1.
    8880022    1    1    2    0    0 -0.75318434364E+02  0.76563937153E+03 -0.13781781600E+04  0.15857626580E+04  0.15294330000E+03 0.  0.
<mgrwt>
<rscale>  0 0.95008745E+03</rscale>
<asrwt>0</asrwt>
<pdfrwt beam="1">  1        2 0.18740585E+00 0.10127619E+04</pdfrwt>
<pdfrwt beam="2">  1       -2 0.26339693E+00 0.10127619E+04</pdfrwt>
<totfact> 0.97952950E-01</totfact>
</mgrwt>
</event>
<event>
 4    2  0.3171963E-007  0.6748079E+03  0.7818608E-02  0.1012428E+00
          2   -1    0    0  501    0  0.00000000000E+00  0.00000000000E+00  0.10136475564E+04  0.10136475564E+04  0.25500000000E-02 0. -1.
         -2   -1    0    0    0  501 -0.00000000000E+00 -0.00000000000E+00 -0.40715071540E+03  0.40715071541E+03  0.25500000000E-02 0.  1.
    8880023    1    1    2    0    0 -0.11547487862E+03  0.90670174515E+02  0.85818500494E+03  0.10917175629E+04  0.65864270000E+03 0. -1.
    8880022    1    1    2    0    0  0.11547487862E+03 -0.90670174515E+02 -0.25168816391E+03  0.32908070896E+03  0.15294330000E+03 0.  0.
<mgrwt>
<rscale>  0 0.50521116E+03</rscale>
<asrwt>0</asrwt>
<pdfrwt beam="1">  1        2 0.15594578E+00 0.67480792E+03</pdfrwt>
<pdfrwt beam="2">  1       -2 0.62638572E-01 0.67480792E+03</pdfrwt>
<totfact> 0.59629707E+01</totfact>
</mgrwt>
</event>
<event>
 4    2  0.3171963E-007  0.1141094E+04  0.7818608E-02  0.9216626E-01
         -2   -1    0    0    0  501 -0.00000000000E+00  0.00000000000E+00  0.31785901357E+04  0.31785901357E+04  0.25500000000E-02 0.  1.
          2   -1    0    0  501    0  0.00000000000E+00 -0.00000000000E+00 -0.50157459664E+03  0.50157459665E+03  0.25500000000E-02 0. -1.
    8880023    1    1    2    0    0  0.30084096162E+03  0.88191798239E+03  0.39004385112E+03  0.12059141860E+04  0.65864270000E+03 0. -1.
    8880022    1    1    2    0    0 -0.30084096162E+03 -0.88191798239E+03  0.22869716880E+04  0.24742505464E+04  0.15294330000E+03 0.  0.
<mgrwt>
<rscale>  0 0.10883457E+04</rscale>
<asrwt>0</asrwt>
<pdfrwt beam="1">  1        2 0.77165322E-01 0.11410937E+04</pdfrwt>
<pdfrwt beam="2">  1       -2 0.48901387E+00 0.11410937E+04</pdfrwt>
<totfact> 0.11809517E-01</totfact>
</mgrwt>
</event>
<event>
 4    2  0.3171963E-007  0.7726707E+03  0.7818608E-02  0.9773344E-01
          2   -1    0    0  501    0  0.00000000000E+00  0.00000000000E+00  0.16645077158E+04  0.16645077158E+04  0.25500000000E-02 0. -1.
         -2   -1    0    0    0  501 -0.00000000000E+00 -0.00000000000E+00 -0.85961153188E+03  0.85961153188E+03  0.25500000000E-02 0.  1.
    8880023    1    1    2    0    0  0.12159517373E+01 -0.40399049824E+03  0.15105772207E+04  0.16967214111E+04  0.65864270000E+03 0.  0.
    8880022    1    1    2    0    0 -0.12159517373E+01  0.40399049824E+03 -0.70568103676E+03  0.82739783651E+03  0.15294330000E+03 0.  0.
<mgrwt>
<rscale>  0 0.66812883E+03</rscale>
<asrwt>0</asrwt>
<pdfrwt beam="1">  1        2 0.25607811E+00 0.77267070E+03</pdfrwt>
<pdfrwt beam="2">  1       -2 0.13224793E+00 0.77267070E+03</pdfrwt>
<totfact> 0.43758168E+00</totfact>
</mgrwt>
</event>
<event>
 4    2  0.3171963E-007  0.1083154E+04  0.7818608E-02  0.9280048E-01
         -2   -1    0    0    0  501 -0.00000000000E+00  0.00000000000E+00  0.65151072397E+03  0.65151072398E+03  0.25500000000E-02 0.  1.
          2   -1    0    0  501    0  0.00000000000E+00 -0.00000000000E+00 -0.23082792353E+04  0.23082792353E+04  0.25500000000E-02 0. -1.
    8880023    1    1    2    0    0  0.84084495634E+03 -0.17997957543E+03 -0.17740380779E+04  0.20785654179E+04  0.65864270000E+03 0.  1.
    8880022    1    1    2    0    0 -0.84084495634E+03  0.17997957543E+03  0.11726956657E+03  0.88122454144E+03  0.15294330000E+03 0.  0.
<mgrwt>
<rscale>  0 0.10264065E+04</rscale>
<asrwt>0</asrwt>
<pdfrwt beam="1">  1        2 0.35511988E+00 0.10831542E+04</pdfrwt>
<pdfrwt beam="2">  1       -2 0.10023242E+00 0.10831542E+04</pdfrwt>
<totfact> 0.36641072E+00</totfact>
</mgrwt>
</event>
<event>
 4    2  0.3171963E-007  0.7283766E+03  0.7818608E-02  0.9895199E-01
          2   -1    0    0  501    0  0.00000000000E+00  0.00000000000E+00  0.24790696266E+04  0.24790696266E+04  0.25500000000E-02 0. -1.
         -2   -1    0    0    0  501 -0.00000000000E+00 -0.00000000000E+00 -0.17935948199E+03  0.17935948201E+03  0.25500000000E-02 0.  1.
    8880023    1    1    2    0    0 -0.31040608365E+03 -0.19245659291E+02  0.21689872701E+04  0.22880206110E+04  0.65864270000E+03 0. -1.
    8880022    1    1    2    0    0  0.31040608365E+03  0.19245659291E+02  0.13072287450E+03  0.37040849761E+03  0.15294330000E+03 0.  0.
<mgrwt>
<rscale>  0 0.60494544E+03</rscale>
<asrwt>0</asrwt>
<pdfrwt beam="1">  1        2 0.38139529E+00 0.72837665E+03</pdfrwt>
<pdfrwt beam="2">  1       -2 0.27593769E-01 0.72837665E+03</pdfrwt>
<totfact> 0.44726936E+01</totfact>
</mgrwt>
</event>
<event>
 4    2  0.3211648E-007  0.9607834E+03  0.7818608E-02  0.9434766E-01
         -2   -1    0    0    0  501 -0.00000000000E+00  0.00000000000E+00  0.22890989742E+04  0.22890989742E+04  0.25500000000E-02 0.  1.
          2   -1    0    0  501    0  0.00000000000E+00 -0.00000000000E+00 -0.11766772896E+04  0.11766772896E+04  0.25500000000E-02 0. -1.
    8880023    1    1    2    0    0 -0.17230271848E+03  0.67794263549E+03 -0.90816802644E+03  0.13220717886E+04  0.65864270000E+03 0. -1.
    8880022    1    1    2    0    0  0.17230271848E+03 -0.67794263549E+03  0.20205897110E+04  0.21437044752E+04  0.15294330000E+03 0.  0.
<mgrwt>
<rscale>  0 0.89268974E+03</rscale>
<asrwt>0</asrwt>
<pdfrwt beam="1">  1        2 0.18102728E+00 0.96078335E+03</pdfrwt>
<pdfrwt beam="2">  1       -2 0.35216907E+00 0.96078335E+03</pdfrwt>
<totfact> 0.30037193E-01</totfact>
</mgrwt>
</event>
<event>
 4    2  0.3171963E-007  0.9041237E+03  0.7818608E-02  0.9519444E-01
         -2   -1    0    0    0  501 -0.00000000000E+00  0.00000000000E+00  0.13816575364E+04  0.13816575364E+04  0.25500000000E-02 0.  1.
          2   -1    0    0  501    0  0.00000000000E+00 -0.00000000000E+00 -0.62002144746E+03  0.62002144747E+03  0.25500000000E-02 0. -1.
    8880023    1    1    2    0    0  0.34509867524E+03 -0.51433093558E+03 -0.12145280456E+03  0.91224470234E+03  0.65864270000E+03 0.  0.
    8880022    1    1    2    0    0 -0.34509867524E+03  0.51433093558E+03  0.88308889354E+03  0.10894342816E+04  0.15294330000E+03 0.  0.
<mgrwt>
<rscale>  0 0.82865354E+03</rscale>
<asrwt>0</asrwt>
<pdfrwt beam="1">  1        2 0.95387916E-01 0.90412367E+03</pdfrwt>
<pdfrwt beam="2">  1       -2 0.21256270E+00 0.90412367E+03</pdfrwt>
<totfact> 0.52771393E+00</totfact>
</mgrwt>
</event>
<event>
 4    2  0.3171963E-007  0.9037938E+03  0.7818608E-02  0.9519969E-01
          2   -1    0    0  501    0  0.00000000000E+00  0.00000000000E+00  0.13249760452E+04  0.13249760452E+04  0.25500000000E-02 0. -1.
         -2   -1    0    0    0  501 -0.00000000000E+00 -0.00000000000E+00 -0.44939875943E+03  0.44939875944E+03  0.25500000000E-02 0.  1.
    8880023    1    1    2    0    0 -0.60032878674E+03 -0.15046077232E+03  0.55759282043E+03  0.10619571817E+04  0.65864270000E+03 0. -1.
    8880022    1    1    2    0    0  0.60032878674E+03  0.15046077232E+03  0.31798446532E+03  0.71241762289E+03  0.15294330000E+03 0.  1.
<mgrwt>
<rscale>  0 0.82827499E+03</rscale>
<asrwt>0</asrwt>
<pdfrwt beam="1">  1        2 0.20384247E+00 0.90379384E+03</pdfrwt>
<pdfrwt beam="2">  1       -2 0.69138272E-01 0.90379384E+03</pdfrwt>
<totfact> 0.30691290E+01</totfact>
</mgrwt>
</event>
<event>
 4    2  0.3171963E-007  0.8803246E+03  0.7818608E-02  0.9558385E-01
          2   -1    0    0  501    0  0.00000000000E+00  0.00000000000E+00  0.19282289681E+04  0.19282289681E+04  0.25500000000E-02 0. -1.
         -2   -1    0    0    0  501 -0.00000000000E+00 -0.00000000000E+00 -0.84586475204E+03  0.84586475205E+03  0.25500000000E-02 0.  1.
    8880023    1    1    2    0    0  0.33877915030E+03 -0.47580445117E+03  0.16974746322E+04  0.19121693235E+04  0.65864270000E+03 0.  0.
    8880022    1    1    2    0    0 -0.33877915030E+03  0.47580445117E+03 -0.61511041617E+03  0.86192439664E+03  0.15294330000E+03 0.  0.
<mgrwt>
<rscale>  0 0.80112851E+03</rscale>
<asrwt>0</asrwt>
<pdfrwt beam="1">  1        2 0.29665061E+00 0.88032460E+03</pdfrwt>
<pdfrwt beam="2">  1       -2 0.13013304E+00 0.88032460E+03</pdfrwt>
<totfact> 0.32167133E+00</totfact>
</mgrwt>
</event>
<event>
 4    2  0.3171963E-007  0.1419686E+04  0.7818608E-02  0.8968535E-01
         -2   -1    0    0    0  501 -0.00000000000E+00  0.00000000000E+00  0.26105553029E+04  0.26105553029E+04  0.25500000000E-02 0.  1.
          2   -1    0    0  501    0  0.00000000000E+00 -0.00000000000E+00 -0.22186219659E+04  0.22186219659E+04  0.25500000000E-02 0. -1.
    8880023    1    1    2    0    0  0.28220651536E+03  0.12255843014E+04 -0.18030018273E+04  0.22948470957E+04  0.65864270000E+03 0.  0.
    8880022    1    1    2    0    0 -0.28220651536E+03 -0.12255843014E+04  0.21949351643E+04  0.25343301730E+04  0.15294330000E+03 0.  0.
<mgrwt>
<rscale>  0 0.13798490E+04</rscale>
<asrwt>0</asrwt>
<pdfrwt beam="1">  1        2 0.34132645E+00 0.14196857E+04</pdfrwt>
<pdfrwt beam="2">  1       -2 0.40162390E+00 0.14196857E+04</pdfrwt>
<totfact> 0.34715023E-02</totfact>
</mgrwt>
</event>
<event>
 4    2  0.3171963E-007  0.7424736E+03  0.7818608E-02  0.9852799E-01
          2   -1    0    0  501    0  0.00000000000E+00  0.00000000000E+00  0.12501991087E+04  0.12501991087E+04  0.25500000000E-02 0. -1.
         -2   -1    0    0    0  501 -0.00000000000E+00 -0.00000000000E+00 -0.57732969101E+03  0.57732969102E+03  0.25500000000E-02 0.  1.
    8880023    1    1    2    0    0  0.27795360348E+03 -0.20049600792E+03  0.10562074558E+04  0.12910620632E+04  0.65864270000E+03 0. -1.
    8880022    1    1    2    0    0 -0.27795360348E+03  0.20049600792E+03 -0.38333803818E+03  0.53646673654E+03  0.15294330000E+03 0.  0.
<mgrwt>
<rscale>  0 0.62604391E+03</rscale>
<asrwt>0</asrwt>
<pdfrwt beam="1">  1        2 0.19233832E+00 0.74247361E+03</pdfrwt>
<pdfrwt beam="2">  1       -2 0.88819954E-01 0.74247361E+03</pdfrwt>
<totfact> 0.19664571E+01</totfact>
</mgrwt>
</event>
<event>
 4    2  0.3171963E-007  0.8929478E+03  0.7818608E-02  0.9537449E-01
          2   -1    0    0  501    0  0.00000000000E+00  0.00000000000E+00  0.18726492788E+04  0.18726492788E+04  0.25500000000E-02 0. -1.
         -2   -1    0    0    0  501 -0.00000000000E+00 -0.00000000000E+00 -0.53968481068E+03  0.53968481069E+03  0.25500000000E-02 0.  1.
    8880023    1    1    2    0    0 -0.19077619359E+03 -0.57197032786E+03  0.15199112462E+04  0.17628062896E+04  0.65864270000E+03 0.  0.
    8880022    1    1    2    0    0  0.19077619359E+03  0.57197032786E+03 -0.18694677809E+03  0.64952779990E+03  0.15294330000E+03 0.  1.
<mgrwt>
<rscale>  0 0.81578297E+03</rscale>
<asrwt>0</asrwt>
<pdfrwt beam="1">  1        2 0.28809989E+00 0.89294783E+03</pdfrwt>
<pdfrwt beam="2">  1       -2 0.83028432E-01 0.89294783E+03</pdfrwt>
<totfact> 0.10121588E+01</totfact>
</mgrwt>
</event>
<event>
 4    2  0.3171963E-007  0.7870252E+03  0.7818608E-02  0.9739586E-01
         -2   -1    0    0    0  501 -0.00000000000E+00  0.00000000000E+00  0.27747230642E+03  0.27747230644E+03  0.25500000000E-02 0.  1.
          2   -1    0    0  501    0  0.00000000000E+00 -0.00000000000E+00 -0.22313767050E+04  0.22313767050E+04  0.25500000000E-02 0. -1.
    8880023    1    1    2    0    0  0.42917045675E+03  0.37565511319E+02 -0.18899137495E+04  0.20472378063E+04  0.65864270000E+03 0. -1.
    8880022    1    1    2    0    0 -0.42917045675E+03 -0.37565511319E+02 -0.63990649110E+02  0.46161120521E+03  0.15294330000E+03 0.  1.
<mgrwt>
<rscale>  0 0.68707982E+03</rscale>
<asrwt>0</asrwt>
<pdfrwt beam="1">  1        2 0.34328871E+00 0.78702519E+03</pdfrwt>
<pdfrwt beam="2">  1       -2 0.42688049E-01 0.78702519E+03</pdfrwt>
<totfact> 0.26636968E+01</totfact>
</mgrwt>
</event>
<event>
 4    2  0.3171963E-007  0.6596449E+03  0.7818608E-02  0.1024523E+00
          2   -1    0    0  501    0  0.00000000000E+00  0.00000000000E+00  0.37591587663E+03  0.37591587663E+03  0.25500000000E-02 0. -1.
         -2   -1    0    0    0  501 -0.00000000000E+00 -0.00000000000E+00 -0.64196785650E+03  0.64196785651E+03  0.25500000000E-02 0.  1.
    8880023    1    1    2    0    0  0.17268709710E+02  0.31984324741E+02  0.53444787157E+02  0.66180643462E+03  0.65864270000E+03 0. -1.
    8880022    1    1    2    0    0 -0.17268709710E+02 -0.31984324741E+02 -0.31949676704E+03  0.35607729853E+03  0.15294330000E+03 0.  0.
<mgrwt>
<rscale>  0 0.46089080E+03</rscale>
<asrwt>0</asrwt>
<pdfrwt beam="1">  1        2 0.57833212E-01 0.65964491E+03</pdfrwt>
<pdfrwt beam="2">  1       -2 0.98764286E-01 0.65964491E+03</pdfrwt>
<totfact> 0.73699066E+01</totfact>
</mgrwt>
</event>
<event>
 4    2  0.3171963E-007  0.1054032E+04  0.7818608E-02  0.9314050E-01
          2   -1    0    0  501    0  0.00000000000E+00  0.00000000000E+00  0.40695945201E+04  0.40695945201E+04  0.25500000000E-02 0. -1.
         -2   -1    0    0    0  501 -0.00000000000E+00 -0.00000000000E+00 -0.54946329256E+03  0.54946329256E+03  0.25500000000E-02 0.  1.
    8880023    1    1    2    0    0  0.54644380758E+03  0.61528249896E+03  0.56299099347E+02  0.10555345486E+04  0.65864270000E+03 0.  1.
    8880022    1    1    2    0    0 -0.54644380758E+03 -0.61528249896E+03  0.34638321282E+04  0.35635232641E+04  0.15294330000E+03 0.  0.
<mgrwt>
<rscale>  0 0.99499621E+03</rscale>
<asrwt>0</asrwt>
<pdfrwt beam="1">  1        2 0.62609148E+00 0.10540321E+04</pdfrwt>
<pdfrwt beam="2">  1       -2 0.84532812E-01 0.10540321E+04</pdfrwt>
<totfact> 0.38220704E-01</totfact>
</mgrwt>
</event>
<event>
 4    2  0.3171963E-007  0.1008015E+04  0.7818608E-02  0.9371146E-01
         -2   -1    0    0    0  501 -0.00000000000E+00  0.00000000000E+00  0.98653448919E+03  0.98653448919E+03  0.25500000000E-02 0.  1.
          2   -1    0    0  501    0  0.00000000000E+00 -0.00000000000E+00 -0.28712288259E+04  0.28712288259E+04  0.25500000000E-02 0. -1.
    8880023    1    1    2    0    0 -0.63008611776E+03 -0.43043628207E+03 -0.26075450309E+04  0.27956010451E+04  0.65864270000E+03 0.  0.
    8880022    1    1    2    0    0  0.63008611776E+03  0.43043628207E+03  0.72285069421E+03  0.10621622700E+04  0.15294330000E+03 0.  0.
<mgrwt>
<rscale>  0 0.94488778E+03</rscale>
<asrwt>0</asrwt>
<pdfrwt beam="1">  1        2 0.44172751E+00 0.10080149E+04</pdfrwt>
<pdfrwt beam="2">  1       -2 0.15177454E+00 0.10080149E+04</pdfrwt>
<totfact> 0.61507740E-01</totfact>
</mgrwt>
</event>
<event>
 4    2  0.3171963E-007  0.6640338E+03  0.7818608E-02  0.1020358E+00
         -2   -1    0    0    0  501 -0.00000000000E+00  0.00000000000E+00  0.14209813577E+03  0.14209813579E+03  0.25500000000E-02 0.  1.
          2   -1    0    0  501    0  0.00000000000E+00 -0.00000000000E+00 -0.22824376651E+04  0.22824376651E+04  0.25500000000E-02 0. -1.
    8880023    1    1    2    0    0 -0.65640488244E+02  0.53122806408E+02 -0.21493590039E+04  0.22495966395E+04  0.65864270000E+03 0. -1.
    8880022    1    1    2    0    0  0.65640488244E+02 -0.53122806408E+02  0.90194746141E+01  0.17493916141E+03  0.15294330000E+03 0.  0.
<mgrwt>
<rscale>  0 0.47557598E+03</rscale>
<asrwt>0</asrwt>
<pdfrwt beam="1">  1        2 0.35114423E+00 0.66403382E+03</pdfrwt>
<pdfrwt beam="2">  1       -2 0.21861253E-01 0.66403382E+03</pdfrwt>
<totfact> 0.88312039E+01</totfact>
</mgrwt>
</event>
<event>
 4    2  0.3171963E-007  0.6703609E+03  0.7818608E-02  0.1015405E+00
         -2   -1    0    0    0  501 -0.00000000000E+00  0.00000000000E+00  0.60682146520E+03  0.60682146520E+03  0.25500000000E-02 0.  1.
          2   -1    0    0  501    0  0.00000000000E+00 -0.00000000000E+00 -0.33765457948E+03  0.33765457949E+03  0.25500000000E-02 0. -1.
    8880023    1    1    2    0    0  0.49894581787E+02 -0.11438570038E+03  0.87208077572E+02  0.67600962478E+03  0.65864270000E+03 0. -1.
    8880022    1    1    2    0    0 -0.49894581787E+02  0.11438570038E+03  0.18195880815E+03  0.26846641991E+03  0.15294330000E+03 0.  1.
<mgrwt>
<rscale>  0 0.49381712E+03</rscale>
<asrwt>0</asrwt>
<pdfrwt beam="1">  1        2 0.51946859E-01 0.67036092E+03</pdfrwt>
<pdfrwt beam="2">  1       -2 0.93357148E-01 0.67036092E+03</pdfrwt>
<totfact> 0.94705632E+01</totfact>
</mgrwt>
</event>
<event>
 4    2  0.3171963E-007  0.8140371E+03  0.7818608E-02  0.9681228E-01
         -2   -1    0    0    0  501 -0.00000000000E+00  0.00000000000E+00  0.10705076198E+04  0.10705076198E+04  0.25500000000E-02 0.  1.
          2   -1    0    0  501    0  0.00000000000E+00 -0.00000000000E+00 -0.17487484627E+04  0.17487484627E+04  0.25500000000E-02 0. -1.
    8880023    1    1    2    0    0 -0.46892768031E+03 -0.94620085755E+02 -0.15854985450E+04  0.17822631602E+04  0.65864270000E+03 0.  0.
    8880022    1    1    2    0    0  0.46892768031E+03  0.94620085755E+02  0.90725770198E+03  0.10369929223E+04  0.15294330000E+03 0.  0.
<mgrwt>
<rscale>  0 0.72145525E+03</rscale>
<asrwt>0</asrwt>
<pdfrwt beam="1">  1        2 0.26903823E+00 0.81403706E+03</pdfrwt>
<pdfrwt beam="2">  1       -2 0.16469348E+00 0.81403706E+03</pdfrwt>
<totfact> 0.21911468E+00</totfact>
</mgrwt>
</event>
<event>
 4    2  0.3171963E-007  0.7106815E+03  0.7818608E-02  0.9955479E-01
         -2   -1    0    0    0  501 -0.00000000000E+00  0.00000000000E+00  0.17904706441E+03  0.17904706443E+03  0.25500000000E-02 0.  1.
          2   -1    0    0  501    0  0.00000000000E+00 -0.00000000000E+00 -0.33318118019E+04  0.33318118019E+04  0.25500000000E-02 0. -1.
    8880023    1    1    2    0    0  0.26589395792E+03 -0.23631069456E+02 -0.31217778900E+04  0.32016504220E+04  0.65864270000E+03 0.  0.
    8880022    1    1    2    0    0 -0.26589395792E+03  0.23631069456E+02 -0.30986847529E+02  0.30920844431E+03  0.15294330000E+03 0.  0.
<mgrwt>
<rscale>  0 0.57646263E+03</rscale>
<asrwt>0</asrwt>
<pdfrwt beam="1">  1        2 0.51258638E+00 0.71068153E+03</pdfrwt>
<pdfrwt beam="2">  1       -2 0.27545705E-01 0.71068153E+03</pdfrwt>
<totfact> 0.13752441E+01</totfact>
</mgrwt>
</event>
<event>
 4    2  0.3171963E-007  0.6909368E+03  0.7818608E-02  0.1003711E+00
          2   -1    0    0  501    0  0.00000000000E+00  0.00000000000E+00  0.26240334608E+03  0.26240334609E+03  0.25500000000E-02 0. -1.
         -2   -1    0    0    0  501 -0.00000000000E+00 -0.00000000000E+00 -0.17581659113E+04  0.17581659113E+04  0.25500000000E-02 0.  1.
    8880023    1    1    2    0    0 -0.49257046984E+01 -0.20870824391E+03 -0.22938498582E+03  0.72801859291E+03  0.65864270000E+03 0. -1.
    8880022    1    1    2    0    0  0.49257046984E+01  0.20870824391E+03 -0.12663775794E+04  0.12925506645E+04  0.15294330000E+03 0.  0.
<mgrwt>
<rscale>  0 0.54052757E+03</rscale>
<asrwt>0</asrwt>
<pdfrwt beam="1">  1        2 0.40369747E-01 0.69093676E+03</pdfrwt>
<pdfrwt beam="2">  1       -2 0.27048706E+00 0.69093676E+03</pdfrwt>
<totfact> 0.63768737E+00</totfact>
</mgrwt>
</event>
<event>
 4    2  0.3171963E-007  0.8575656E+03  0.7818608E-02  0.9597908E-01
          2   -1    0    0  501    0  0.00000000000E+00  0.00000000000E+00  0.16882153342E+04  0.16882153342E+04  0.25500000000E-02 0. -1.
         -2   -1    0    0    0  501 -0.00000000000E+00 -0.00000000000E+00 -0.10027343950E+04  0.10027343950E+04  0.25500000000E-02 0.  1.
    8880023    1    1    2    0    0 -0.15393275911E+03  0.52717482582E+03  0.14815263376E+04  0.17118233222E+04  0.65864270000E+03 0. -1.
    8880022    1    1    2    0    0  0.15393275911E+03 -0.52717482582E+03 -0.79604539841E+03  0.97912640688E+03  0.15294330000E+03 0.  0.
<mgrwt>
<rscale>  0 0.77434765E+03</rscale>
<asrwt>0</asrwt>
<pdfrwt beam="1">  1        2 0.25972543E+00 0.85756562E+03</pdfrwt>
<pdfrwt beam="2">  1       -2 0.15426683E+00 0.85756562E+03</pdfrwt>
<totfact> 0.28054816E+00</totfact>
</mgrwt>
</event>
<event>
 4    2  0.3171963E-007  0.6649181E+03  0.7818608E-02  0.1019602E+00
          2   -1    0    0  501    0  0.00000000000E+00  0.00000000000E+00  0.28288155303E+04  0.28288155303E+04  0.25500000000E-02 0. -1.
         -2   -1    0    0    0  501 -0.00000000000E+00 -0.00000000000E+00 -0.24804083002E+03  0.24804083003E+03  0.25500000000E-02 0.  1.
    8880023    1    1    2    0    0 -0.22761249699E+02  0.88248278036E+02  0.27511924703E+04  0.28304021001E+04  0.65864270000E+03 0. -1.
    8880022    1    1    2    0    0  0.22761249699E+02 -0.88248278036E+02 -0.17041777002E+03  0.24645426029E+03  0.15294330000E+03 0.  0.
<mgrwt>
<rscale>  0 0.47830421E+03</rscale>
<asrwt>0</asrwt>
<pdfrwt beam="1">  1        2 0.43520237E+00 0.66491807E+03</pdfrwt>
<pdfrwt beam="2">  1       -2 0.38160129E-01 0.66491807E+03</pdfrwt>
<totfact> 0.15438082E+01</totfact>
</mgrwt>
</event>
<event>
 4    2  0.3171963E-007  0.8150189E+03  0.7818608E-02  0.9679216E-01
         -2   -1    0    0    0  501 -0.00000000000E+00  0.00000000000E+00  0.21784988234E+03  0.21784988235E+03  0.25500000000E-02 0.  1.
          2   -1    0    0  501    0  0.00000000000E+00 -0.00000000000E+00 -0.19964239552E+04  0.19964239552E+04  0.25500000000E-02 0. -1.
    8880023    1    1    2    0    0  0.12872414572E+03  0.46246705130E+03 -0.10840530280E+04  0.13562547154E+04  0.65864270000E+03 0.  0.
    8880022    1    1    2    0    0 -0.12872414572E+03 -0.46246705130E+03 -0.69452104485E+03  0.85801912216E+03  0.15294330000E+03 0.  1.
<mgrwt>
<rscale>  0 0.72267864E+03</rscale>
<asrwt>0</asrwt>
<pdfrwt beam="1">  1        2 0.30714213E+00 0.81501895E+03</pdfrwt>
<pdfrwt beam="2">  1       -2 0.33515368E-01 0.81501895E+03</pdfrwt>
<totfact> 0.57054715E+01</totfact>
</mgrwt>
</event>
<event>
 4    2  0.3171963E-007  0.1120796E+04  0.7818608E-02  0.9238248E-01
          2   -1    0    0  501    0  0.00000000000E+00  0.00000000000E+00  0.28284558895E+04  0.28284558895E+04  0.25500000000E-02 0. -1.
         -2   -1    0    0    0  501 -0.00000000000E+00 -0.00000000000E+00 -0.64999303619E+03  0.64999303620E+03  0.25500000000E-02 0.  1.
    8880023    1    1    2    0    0  0.86572498215E+03 -0.26998706194E+03  0.22924413754E+04  0.25517583005E+04  0.65864270000E+03 0.  0.
    8880022    1    1    2    0    0 -0.86572498215E+03  0.26998706194E+03 -0.11397852208E+03  0.92669062520E+03  0.15294330000E+03 0.  0.
<mgrwt>
<rscale>  0 0.10667214E+04</rscale>
<asrwt>0</asrwt>
<pdfrwt beam="1">  1        2 0.43514706E+00 0.11207957E+04</pdfrwt>
<pdfrwt beam="2">  1       -2 0.99998929E-01 0.11207957E+04</pdfrwt>
<totfact> 0.18320776E+00</totfact>
</mgrwt>
</event>
<event>
 4    2  0.3171963E-007  0.7460691E+03  0.7818608E-02  0.9842608E-01
          2   -1    0    0  501    0  0.00000000000E+00  0.00000000000E+00  0.23416191843E+04  0.23416191843E+04  0.25500000000E-02 0. -1.
         -2   -1    0    0    0  501 -0.00000000000E+00 -0.00000000000E+00 -0.26068432436E+03  0.26068432438E+03  0.25500000000E-02 0.  1.
    8880023    1    1    2    0    0 -0.22197624859E+03  0.27117405343E+03  0.20906866236E+04  0.22198174670E+04  0.65864270000E+03 0.  0.
    8880022    1    1    2    0    0  0.22197624859E+03 -0.27117405343E+03 -0.97517636912E+01  0.38248604170E+03  0.15294330000E+03 0.  0.
<mgrwt>
<rscale>  0 0.63125214E+03</rscale>
<asrwt>0</asrwt>
<pdfrwt beam="1">  1        2 0.36024909E+00 0.74606905E+03</pdfrwt>
<pdfrwt beam="2">  1       -2 0.40105282E-01 0.74606905E+03</pdfrwt>
<totfact> 0.26297959E+01</totfact>
</mgrwt>
</event>
<event>
 4    2  0.3171963E-007  0.7230615E+03  0.7818608E-02  0.9912360E-01
         -2   -1    0    0    0  501 -0.00000000000E+00  0.00000000000E+00  0.32527502440E+03  0.32527502441E+03  0.25500000000E-02 0.  1.
          2   -1    0    0  501    0  0.00000000000E+00 -0.00000000000E+00 -0.10792946673E+04  0.10792946673E+04  0.25500000000E-02 0. -1.
    8880023    1    1    2    0    0 -0.29671401244E+03  0.31119973193E+02 -0.78575018300E+03  0.10678114132E+04  0.65864270000E+03 0.  0.
    8880022    1    1    2    0    0  0.29671401244E+03 -0.31119973193E+02  0.31730540127E+02  0.33675827845E+03  0.15294330000E+03 0.  0.
<mgrwt>
<rscale>  0 0.59665992E+03</rscale>
<asrwt>0</asrwt>
<pdfrwt beam="1">  1        2 0.16604533E+00 0.72306145E+03</pdfrwt>
<pdfrwt beam="2">  1       -2 0.50042312E-01 0.72306145E+03</pdfrwt>
<totfact> 0.86208161E+01</totfact>
</mgrwt>
</event>
<event>
 4    2  0.3171963E-007  0.6607474E+03  0.7818608E-02  0.1023403E+00
         -2   -1    0    0    0  501 -0.00000000000E+00  0.00000000000E+00  0.15776829704E+03  0.15776829706E+03  0.25500000000E-02 0.  1.
          2   -1    0    0  501    0  0.00000000000E+00 -0.00000000000E+00 -0.29089420769E+04  0.29089420769E+04  0.25500000000E-02 0. -1.
    8880023    1    1    2    0    0  0.51540074599E+02 -0.10976231184E+02 -0.28159682726E+04  0.28924495458E+04  0.65864270000E+03 0. -1.
    8880022    1    1    2    0    0 -0.51540074599E+02  0.10976231184E+02  0.64794492646E+02  0.17426082817E+03  0.15294330000E+03 0.  0.
<mgrwt>
<rscale>  0 0.46478162E+03</rscale>
<asrwt>0</asrwt>
<pdfrwt beam="1">  1        2 0.44752951E+00 0.66074735E+03</pdfrwt>
<pdfrwt beam="2">  1       -2 0.24272048E-01 0.66074735E+03</pdfrwt>
<totfact> 0.32087745E+01</totfact>
</mgrwt>
</event>
<event>
 4    2  0.3171963E-007  0.6731459E+03  0.7818608E-02  0.1013501E+00
         -2   -1    0    0    0  501 -0.00000000000E+00  0.00000000000E+00  0.18515085225E+03  0.18515085227E+03  0.25500000000E-02 0.  1.
          2   -1    0    0  501    0  0.00000000000E+00 -0.00000000000E+00 -0.16462859687E+04  0.16462859688E+04  0.25500000000E-02 0. -1.
    8880023    1    1    2    0    0  0.77940656850E+01 -0.13876051372E+03 -0.14780216912E+04  0.16240916088E+04  0.65864270000E+03 0. -1.
    8880022    1    1    2    0    0 -0.77940656850E+01  0.13876051372E+03  0.16886574737E+02  0.20734521226E+03  0.15294330000E+03 0.  0.
<mgrwt>
<rscale>  0 0.50106509E+03</rscale>
<asrwt>0</asrwt>
<pdfrwt beam="1">  1        2 0.25327475E+00 0.67314592E+03</pdfrwt>
<pdfrwt beam="2">  1       -2 0.28484748E-01 0.67314592E+03</pdfrwt>
<totfact> 0.12177026E+02</totfact>
</mgrwt>
</event>
<event>
 4    2  0.3171963E-007  0.1284600E+04  0.7818608E-02  0.9078974E-01
         -2   -1    0    0    0  501 -0.00000000000E+00  0.00000000000E+00  0.88470651113E+03  0.88470651113E+03  0.25500000000E-02 0.  1.
          2   -1    0    0  501    0  0.00000000000E+00 -0.00000000000E+00 -0.25145386851E+04  0.25145386851E+04  0.25500000000E-02 0. -1.
    8880023    1    1    2    0    0  0.10899967451E+04 -0.16820927241E+03 -0.18617198225E+04  0.22619014495E+04  0.65864270000E+03 0.  0.
    8880022    1    1    2    0    0 -0.10899967451E+04  0.16820927241E+03  0.23188764849E+03  0.11373437467E+04  0.15294330000E+03 0.  0.
<mgrwt>
<rscale>  0 0.12394928E+04</rscale>
<asrwt>0</asrwt>
<pdfrwt beam="1">  1        2 0.38685210E+00 0.12846001E+04</pdfrwt>
<pdfrwt beam="2">  1       -2 0.13610869E+00 0.12846001E+04</pdfrwt>
<totfact> 0.12782996E+00</totfact>
</mgrwt>
</event>
<event>
 4    2  0.3171963E-007  0.6615319E+03  0.7818608E-02  0.1022639E+00
         -2   -1    0    0    0  501 -0.00000000000E+00  0.00000000000E+00  0.82745598956E+03  0.82745598956E+03  0.25500000000E-02 0.  1.
          2   -1    0    0  501    0  0.00000000000E+00 -0.00000000000E+00 -0.41923488980E+03  0.41923488981E+03  0.25500000000E-02 0. -1.
    8880023    1    1    2    0    0  0.39118783214E+02  0.47790812518E+02 -0.13828989076E+03  0.67583174024E+03  0.65864270000E+03 0. -1.
    8880022    1    1    2    0    0 -0.39118783214E+02 -0.47790812518E+02  0.54651099052E+03  0.57085913914E+03  0.15294330000E+03 0.  0.
<mgrwt>
<rscale>  0 0.46746163E+03</rscale>
<asrwt>0</asrwt>
<pdfrwt beam="1">  1        2 0.64497676E-01 0.66153189E+03</pdfrwt>
<pdfrwt beam="2">  1       -2 0.12730092E+00 0.66153189E+03</pdfrwt>
<totfact> 0.35171361E+01</totfact>
</mgrwt>
</event>
<event>
 4    2  0.3171963E-007  0.8728723E+03  0.7818608E-02  0.9571064E-01
         -2   -1    0    0    0  501 -0.00000000000E+00  0.00000000000E+00  0.71674558945E+03  0.71674558945E+03  0.25500000000E-02 0.  1.
          2   -1    0    0  501    0  0.00000000000E+00 -0.00000000000E+00 -0.12556297362E+04  0.12556297362E+04  0.25500000000E-02 0. -1.
    8880023    1    1    2    0    0  0.57051795443E+03 -0.51039720952E+02 -0.91951791642E+03  0.12678403663E+04  0.65864270000E+03 0.  0.
    8880022    1    1    2    0    0 -0.57051795443E+03  0.51039720952E+02  0.38063376963E+03  0.70453495942E+03  0.15294330000E+03 0.  0.
<mgrwt>
<rscale>  0 0.79241329E+03</rscale>
<asrwt>0</asrwt>
<pdfrwt beam="1">  1        2 0.19317381E+00 0.87287227E+03</pdfrwt>
<pdfrwt beam="2">  1       -2 0.11026855E+00 0.87287227E+03</pdfrwt>
<totfact> 0.11534602E+01</totfact>
</mgrwt>
</event>
<event>
 4    2  0.3171963E-007  0.8230867E+03  0.7818608E-02  0.9662936E-01
         -2   -1    0    0    0  501 -0.00000000000E+00  0.00000000000E+00  0.33116196117E+03  0.33116196118E+03  0.25500000000E-02 0.  1.
          2   -1    0    0  501    0  0.00000000000E+00 -0.00000000000E+00 -0.31882327715E+04  0.31882327715E+04  0.25500000000E-02 0. -1.
    8880023    1    1    2    0    0 -0.15940643553E+03 -0.46717348925E+03 -0.28867228423E+04  0.30017728854E+04  0.65864270000E+03 0. -1.
    8880022    1    1    2    0    0  0.15940643553E+03  0.46717348925E+03  0.29652032037E+02  0.51762184726E+03  0.15294330000E+03 0.  0.
<mgrwt>
<rscale>  0 0.73267081E+03</rscale>
<asrwt>0</asrwt>
<pdfrwt beam="1">  1        2 0.49049733E+00 0.82308668E+03</pdfrwt>
<pdfrwt beam="2">  1       -2 0.50947996E-01 0.82308668E+03</pdfrwt>
<totfact> 0.50841947E+00</totfact>
</mgrwt>
</event>
<event>
 4    2  0.3171963E-007  0.7187995E+03  0.7818608E-02  0.9926669E-01
         -2   -1    0    0    0  501 -0.00000000000E+00  0.00000000000E+00  0.36204498060E+03  0.36204498061E+03  0.25500000000E-02 0.  1.
          2   -1    0    0  501    0  0.00000000000E+00 -0.00000000000E+00 -0.95474893568E+03  0.95474893568E+03  0.25500000000E-02 0. -1.
    8880023    1    1    2    0    0  0.17028526278E+03  0.23208942443E+03 -0.66906966359E+03  0.98200152375E+03  0.65864270000E+03 0. -1.
    8880022    1    1    2    0    0 -0.17028526278E+03 -0.23208942443E+03  0.76365708514E+02  0.33479239254E+03  0.15294330000E+03 0.  0.
<mgrwt>
<rscale>  0 0.58986023E+03</rscale>
<asrwt>0</asrwt>
<pdfrwt beam="1">  1        2 0.14688445E+00 0.71879954E+03</pdfrwt>
<pdfrwt beam="2">  1       -2 0.55699228E-01 0.71879954E+03</pdfrwt>
<totfact> 0.82955578E+01</totfact>
</mgrwt>
</event>
<event>
 4    2  0.3171963E-007  0.8677706E+03  0.7818608E-02  0.9579888E-01
         -2   -1    0    0    0  501 -0.00000000000E+00  0.00000000000E+00  0.89170166562E+03  0.89170166562E+03  0.25500000000E-02 0.  1.
          2   -1    0    0  501    0  0.00000000000E+00 -0.00000000000E+00 -0.15026405413E+04  0.15026405413E+04  0.25500000000E-02 0. -1.
    8880023    1    1    2    0    0  0.55097560579E+03  0.12506623595E+03 -0.12538778679E+04  0.15248723210E+04  0.65864270000E+03 0. -1.
    8880022    1    1    2    0    0 -0.55097560579E+03 -0.12506623595E+03  0.64293899229E+03  0.86946988583E+03  0.15294330000E+03 0.  0.
<mgrwt>
<rscale>  0 0.78641773E+03</rscale>
<asrwt>0</asrwt>
<pdfrwt beam="1">  1        2 0.23117547E+00 0.86777064E+03</pdfrwt>
<pdfrwt beam="2">  1       -2 0.13718487E+00 0.86777064E+03</pdfrwt>
<totfact> 0.48324974E+00</totfact>
</mgrwt>
</event>
<event>
 4    2  0.3171963E-007  0.1004042E+04  0.7818608E-02  0.9376288E-01
          2   -1    0    0  501    0  0.00000000000E+00  0.00000000000E+00  0.67473314844E+03  0.67473314845E+03  0.25500000000E-02 0. -1.
         -2   -1    0    0    0  501 -0.00000000000E+00 -0.00000000000E+00 -0.12941007280E+04  0.12941007280E+04  0.25500000000E-02 0.  1.
    8880023    1    1    2    0    0 -0.52754737951E+03 -0.54404464077E+03 -0.64836739476E+03  0.11951909026E+04  0.65864270000E+03 0.  0.
    8880022    1    1    2    0    0  0.52754737951E+03  0.54404464077E+03  0.28999815165E+02  0.77364297390E+03  0.15294330000E+03 0.  0.
<mgrwt>
<rscale>  0 0.94053039E+03</rscale>
<asrwt>0</asrwt>
<pdfrwt beam="1">  1        2 0.10380510E+00 0.10040423E+04</pdfrwt>
<pdfrwt beam="2">  1       -2 0.19909242E+00 0.10040423E+04</pdfrwt>
<totfact> 0.57481155E+00</totfact>
</mgrwt>
</event>
<event>
 4    2  0.3171963E-007  0.7790922E+03  0.7818608E-02  0.9757974E-01
         -2   -1    0    0    0  501 -0.00000000000E+00  0.00000000000E+00  0.46614522933E+03  0.46614522933E+03  0.25500000000E-02 0.  1.
          2   -1    0    0  501    0  0.00000000000E+00 -0.00000000000E+00 -0.10287007124E+04  0.10287007124E+04  0.25500000000E-02 0. -1.
    8880023    1    1    2    0    0  0.41471378029E+03  0.34452861247E+02 -0.68227566878E+03  0.10356084268E+04  0.65864270000E+03 0.  0.
    8880022    1    1    2    0    0 -0.41471378029E+03 -0.34452861247E+02  0.11972018573E+03  0.45923751490E+03  0.15294330000E+03 0.  0.
<mgrwt>
<rscale>  0 0.67667520E+03</rscale>
<asrwt>0</asrwt>
<pdfrwt beam="1">  1        2 0.15826165E+00 0.77909224E+03</pdfrwt>
<pdfrwt beam="2">  1       -2 0.71714651E-01 0.77909224E+03</pdfrwt>
<totfact> 0.43136497E+01</totfact>
</mgrwt>
</event>
<event>
 4    2  0.3171963E-007  0.7099586E+03  0.7818608E-02  0.9958155E-01
         -2   -1    0    0    0  501 -0.00000000000E+00  0.00000000000E+00  0.79771288060E+03  0.79771288060E+03  0.25500000000E-02 0.  1.
          2   -1    0    0  501    0  0.00000000000E+00 -0.00000000000E+00 -0.80762565925E+03  0.80762565925E+03  0.25500000000E-02 0. -1.
    8880023    1    1    2    0    0  0.17753958319E+03 -0.19675044798E+03 -0.60722406445E+03  0.93421748704E+03  0.65864270000E+03 0. -1.
    8880022    1    1    2    0    0 -0.17753958319E+03  0.19675044798E+03  0.59731128580E+03  0.67112105282E+03  0.15294330000E+03 0.  0.
<mgrwt>
<rscale>  0 0.57523781E+03</rscale>
<asrwt>0</asrwt>
<pdfrwt beam="1">  1        2 0.12425010E+00 0.70995862E+03</pdfrwt>
<pdfrwt beam="2">  1       -2 0.12272506E+00 0.70995862E+03</pdfrwt>
<totfact> 0.17402075E+01</totfact>
</mgrwt>
</event>
<event>
 4    2  0.3171963E-007  0.6773178E+03  0.7818608E-02  0.1010883E+00
          2   -1    0    0  501    0  0.00000000000E+00  0.00000000000E+00  0.66968613485E+03  0.66968613486E+03  0.25500000000E-02 0. -1.
         -2   -1    0    0    0  501 -0.00000000000E+00 -0.00000000000E+00 -0.30590359549E+03  0.30590359550E+03  0.25500000000E-02 0.  1.
    8880023    1    1    2    0    0  0.10351360690E+03  0.11930700068E+03  0.32898411225E+03  0.75298737015E+03  0.65864270000E+03 0.  0.
    8880022    1    1    2    0    0 -0.10351360690E+03 -0.11930700068E+03  0.34798427117E+02  0.22260236021E+03  0.15294330000E+03 0.  1.
<mgrwt>
<rscale>  0 0.51125044E+03</rscale>
<asrwt>0</asrwt>
<pdfrwt beam="1">  1        2 0.10302863E+00 0.67731782E+03</pdfrwt>
<pdfrwt beam="2">  1       -2 0.47062092E-01 0.67731782E+03</pdfrwt>
<totfact> 0.18789725E+02</totfact>
</mgrwt>
</event>
<event>
 4    2  0.3171963E-007  0.7222011E+03  0.7818608E-02  0.9915207E-01
          2   -1    0    0  501    0  0.00000000000E+00  0.00000000000E+00  0.61873416230E+03  0.61873416230E+03  0.25500000000E-02 0. -1.
         -2   -1    0    0    0  501 -0.00000000000E+00 -0.00000000000E+00 -0.83791190920E+03  0.83791190921E+03  0.25500000000E-02 0.  1.
    8880023    1    1    2    0    0 -0.39713122963E+02 -0.29357634297E+03  0.34573143580E+03  0.80069009813E+03  0.65864270000E+03 0. -1.
    8880022    1    1    2    0    0  0.39713122963E+02  0.29357634297E+03 -0.56490918271E+03  0.65595597338E+03  0.15294330000E+03 0. -1.
<mgrwt>
<rscale>  0 0.59529899E+03</rscale>
<asrwt>0</asrwt>
<pdfrwt beam="1">  1        2 0.95189871E-01 0.72220109E+03</pdfrwt>
<pdfrwt beam="2">  1       -2 0.12890952E+00 0.72220109E+03</pdfrwt>
<totfact> 0.21534359E+01</totfact>
</mgrwt>
</event>
<event>
 4    2  0.3171963E-007  0.6850775E+03  0.7818608E-02  0.1006586E+00
         -2   -1    0    0    0  501 -0.00000000000E+00  0.00000000000E+00  0.14408363166E+04  0.14408363166E+04  0.25500000000E-02 0.  1.
          2   -1    0    0  501    0  0.00000000000E+00 -0.00000000000E+00 -0.75408318897E+03  0.75408318897E+03  0.25500000000E-02 0. -1.
    8880023    1    1    2    0    0  0.16997971188E+03  0.81411365968E+02 -0.58460006160E+03  0.90060443661E+03  0.65864270000E+03 0. -1.
    8880022    1    1    2    0    0 -0.16997971188E+03 -0.81411365968E+02  0.12713531892E+04  0.12943150690E+04  0.15294330000E+03 0.  0.
<mgrwt>
<rscale>  0 0.52854352E+03</rscale>
<asrwt>0</asrwt>
<pdfrwt beam="1">  1        2 0.11601280E+00 0.68507745E+03</pdfrwt>
<pdfrwt beam="2">  1       -2 0.22166712E+00 0.68507745E+03</pdfrwt>
<totfact> 0.37181121E+00</totfact>
</mgrwt>
</event>
<event>
 4    2  0.3171963E-007  0.6593490E+03  0.7818608E-02  0.1024833E+00
         -2   -1    0    0    0  501 -0.00000000000E+00  0.00000000000E+00  0.33854586147E+03  0.33854586148E+03  0.25500000000E-02 0.  1.
          2   -1    0    0  501    0  0.00000000000E+00 -0.00000000000E+00 -0.91929843083E+03  0.91929843084E+03  0.25500000000E-02 0. -1.
    8880023    1    1    2    0    0 -0.17380248140E+02  0.25076461188E+02 -0.76927423285E+03  0.10131751840E+04  0.65864270000E+03 0. -1.
    8880022    1    1    2    0    0  0.17380248140E+02 -0.25076461188E+02  0.18852166349E+03  0.24466910829E+03  0.15294330000E+03 0.  0.
<mgrwt>
<rscale>  0 0.45981980E+03</rscale>
<asrwt>0</asrwt>
<pdfrwt beam="1">  1        2 0.14143053E+00 0.65934900E+03</pdfrwt>
<pdfrwt beam="2">  1       -2 0.52083979E-01 0.65934900E+03</pdfrwt>
<totfact> 0.10100242E+02</totfact>
</mgrwt>
</event>
<event>
 4    2  0.3171963E-007  0.7210687E+03  0.7818608E-02  0.9918986E-01
          2   -1    0    0  501    0  0.00000000000E+00  0.00000000000E+00  0.16440780178E+04  0.16440780178E+04  0.25500000000E-02 0. -1.
         -2   -1    0    0    0  501 -0.00000000000E+00 -0.00000000000E+00 -0.16958031794E+03  0.16958031796E+03  0.25500000000E-02 0.  1.
    8880023    1    1    2    0    0 -0.17576446166E+03 -0.23502486292E+03  0.10820959939E+04  0.13003352562E+04  0.65864270000E+03 0.  0.
    8880022    1    1    2    0    0  0.17576446166E+03  0.23502486292E+03  0.39240170587E+03  0.51332307951E+03  0.15294330000E+03 0.  1.
<mgrwt>
<rscale>  0 0.59349886E+03</rscale>
<asrwt>0</asrwt>
<pdfrwt beam="1">  1        2 0.25293508E+00 0.72106868E+03</pdfrwt>
<pdfrwt beam="2">  1       -2 0.26089279E-01 0.72106868E+03</pdfrwt>
<totfact> 0.14269643E+02</totfact>
</mgrwt>
</event>
<event>
 4    2  0.3171963E-007  0.6785501E+03  0.7818608E-02  0.1010156E+00
          2   -1    0    0  501    0  0.00000000000E+00  0.00000000000E+00  0.13839940632E+04  0.13839940632E+04  0.25500000000E-02 0. -1.
         -2   -1    0    0    0  501 -0.00000000000E+00 -0.00000000000E+00 -0.18888559287E+03  0.18888559289E+03  0.25500000000E-02 0.  1.
    8880023    1    1    2    0    0  0.34367466356E+02 -0.15949575990E+03  0.11636595200E+04  0.13470462891E+04  0.65864270000E+03 0.  0.
    8880022    1    1    2    0    0 -0.34367466356E+02  0.15949575990E+03  0.31448950339E+02  0.22583336703E+03  0.15294330000E+03 0.  0.
<mgrwt>
<rscale>  0 0.51412694E+03</rscale>
<asrwt>0</asrwt>
<pdfrwt beam="1">  1        2 0.21292216E+00 0.67855009E+03</pdfrwt>
<pdfrwt beam="2">  1       -2 0.29059322E-01 0.67855009E+03</pdfrwt>
<totfact> 0.16399689E+02</totfact>
</mgrwt>
</event>
<event>
 4    2  0.3171963E-007  0.7624482E+03  0.7818608E-02  0.9798810E-01
          2   -1    0    0  501    0  0.00000000000E+00  0.00000000000E+00  0.23491008446E+04  0.23491008446E+04  0.25500000000E-02 0. -1.
         -2   -1    0    0    0  501 -0.00000000000E+00 -0.00000000000E+00 -0.76108094739E+03  0.76108094739E+03  0.25500000000E-02 0.  1.
    8880023    1    1    2    0    0 -0.22140360354E+03 -0.31384319134E+03  0.22243249142E+04  0.23513716496E+04  0.65864270000E+03 0.  0.
    8880022    1    1    2    0    0  0.22140360354E+03  0.31384319134E+03 -0.63630501703E+03  0.75881014234E+03  0.15294330000E+03 0.  1.
<mgrwt>
<rscale>  0 0.65426443E+03</rscale>
<asrwt>0</asrwt>
<pdfrwt beam="1">  1        2 0.36140012E+00 0.76244823E+03</pdfrwt>
<pdfrwt beam="2">  1       -2 0.11708938E+00 0.76244823E+03</pdfrwt>
<totfact> 0.25032843E+00</totfact>
</mgrwt>
</event>
<event>
 4    2  0.3171963E-007  0.6660838E+03  0.7818608E-02  0.1018641E+00
         -2   -1    0    0    0  501 -0.00000000000E+00  0.00000000000E+00  0.16257068201E+03  0.16257068203E+03  0.25500000000E-02 0.  1.
          2   -1    0    0  501    0  0.00000000000E+00 -0.00000000000E+00 -0.12438214264E+04  0.12438214264E+04  0.25500000000E-02 0. -1.
    8880023    1    1    2    0    0 -0.99094811322E+02  0.61398396633E+01 -0.10116006187E+04  0.12111991980E+04  0.65864270000E+03 0. -1.
    8880022    1    1    2    0    0  0.99094811322E+02 -0.61398396633E+01 -0.69650125726E+02  0.19519291045E+03  0.15294330000E+03 0.  0.
<mgrwt>
<rscale>  0 0.48180268E+03</rscale>
<asrwt>0</asrwt>
<pdfrwt beam="1">  1        2 0.19135714E+00 0.66608384E+03</pdfrwt>
<pdfrwt beam="2">  1       -2 0.25010875E-01 0.66608384E+03</pdfrwt>
<totfact> 0.25958629E+02</totfact>
</mgrwt>
</event>
<event>
 4    2  0.3171963E-007  0.7234297E+03  0.7818608E-02  0.9911147E-01
          2   -1    0    0  501    0  0.00000000000E+00  0.00000000000E+00  0.13399522365E+04  0.13399522365E+04  0.25500000000E-02 0. -1.
         -2   -1    0    0    0  501 -0.00000000000E+00 -0.00000000000E+00 -0.78226425956E+03  0.78226425956E+03  0.25500000000E-02 0.  1.
    8880023    1    1    2    0    0 -0.29159232394E+03 -0.67188610896E+02  0.11977661440E+04  0.13992835076E+04  0.65864270000E+03 0. -1.
    8880022    1    1    2    0    0  0.29159232394E+03  0.67188610896E+02 -0.64007816704E+03  0.72293298843E+03  0.15294330000E+03 0.  0.
<mgrwt>
<rscale>  0 0.59724074E+03</rscale>
<asrwt>0</asrwt>
<pdfrwt beam="1">  1        2 0.20614650E+00 0.72342975E+03</pdfrwt>
<pdfrwt beam="2">  1       -2 0.12034835E+00 0.72342975E+03</pdfrwt>
<totfact> 0.84744271E+00</totfact>
</mgrwt>
</event>
<event>
 4    2  0.3171963E-007  0.8236118E+03  0.7818608E-02  0.9661892E-01
          2   -1    0    0  501    0  0.00000000000E+00  0.00000000000E+00  0.26510431507E+04  0.26510431507E+04  0.25500000000E-02 0. -1.
         -2   -1    0    0    0  501 -0.00000000000E+00 -0.00000000000E+00 -0.16975533130E+03  0.16975533132E+03  0.25500000000E-02 0.  1.
    8880023    1    1    2    0    0  0.48005103835E+03  0.11864733580E+03  0.15596166356E+04  0.17637291306E+04  0.65864270000E+03 0.  0.
    8880022    1    1    2    0    0 -0.48005103835E+03 -0.11864733580E+03  0.92167118373E+03  0.10570693514E+04  0.15294330000E+03 0.  0.
<mgrwt>
<rscale>  0 0.73331763E+03</rscale>
<asrwt>0</asrwt>
<pdfrwt beam="1">  1        2 0.40785277E+00 0.82361180E+03</pdfrwt>
<pdfrwt beam="2">  1       -2 0.26116207E-01 0.82361180E+03</pdfrwt>
<totfact> 0.38927870E+01</totfact>
</mgrwt>
</event>
<event>
 4    2  0.3171963E-007  0.1048056E+04  0.7818608E-02  0.9321222E-01
         -2   -1    0    0    0  501 -0.00000000000E+00  0.00000000000E+00  0.73574133305E+03  0.73574133306E+03  0.25500000000E-02 0.  1.
          2   -1    0    0  501    0  0.00000000000E+00 -0.00000000000E+00 -0.20186528051E+04  0.20186528051E+04  0.25500000000E-02 0. -1.
    8880023    1    1    2    0    0  0.79551535334E+03  0.17823381763E+03 -0.15604434150E+04  0.18797355742E+04  0.65864270000E+03 0.  0.
    8880022    1    1    2    0    0 -0.79551535334E+03 -0.17823381763E+03  0.27753194296E+03  0.87465856397E+03  0.15294330000E+03 0.  0.
<mgrwt>
<rscale>  0 0.98852425E+03</rscale>
<asrwt>0</asrwt>
<pdfrwt beam="1">  1        2 0.31056197E+00 0.10480564E+04</pdfrwt>
<pdfrwt beam="2">  1       -2 0.11319098E+00 0.10480564E+04</pdfrwt>
<totfact> 0.39736420E+00</totfact>
</mgrwt>
</event>
<event>
 4    2  0.3171963E-007  0.1084297E+04  0.7818608E-02  0.9278744E-01
          2   -1    0    0  501    0  0.00000000000E+00  0.00000000000E+00  0.22982078417E+04  0.22982078417E+04  0.25500000000E-02 0. -1.
         -2   -1    0    0    0  501 -0.00000000000E+00 -0.00000000000E+00 -0.99452777850E+03  0.99452777851E+03  0.25500000000E-02 0.  1.
    8880023    1    1    2    0    0 -0.79302666643E+03  0.33615389722E+03  0.19321353247E+04  0.22155919876E+04  0.65864270000E+03 0. -1.
    8880022    1    1    2    0    0  0.79302666643E+03 -0.33615389722E+03 -0.62845526158E+03  0.10771436325E+04  0.15294330000E+03 0.  0.
<mgrwt>
<rscale>  0 0.10276354E+04</rscale>
<asrwt>0</asrwt>
<pdfrwt beam="1">  1        2 0.35357043E+00 0.10842974E+04</pdfrwt>
<pdfrwt beam="2">  1       -2 0.15300428E+00 0.10842974E+04</pdfrwt>
<totfact> 0.12787684E+00</totfact>
</mgrwt>
</event>
<event>
 4    2  0.3171963E-007  0.7418802E+03  0.7818608E-02  0.9854504E-01
         -2   -1    0    0    0  501 -0.00000000000E+00  0.00000000000E+00  0.46845173480E+03  0.46845173481E+03  0.25500000000E-02 0.  1.
          2   -1    0    0  501    0  0.00000000000E+00 -0.00000000000E+00 -0.13062756278E+04  0.13062756278E+04  0.25500000000E-02 0. -1.
    8880023    1    1    2    0    0  0.53298890204E+02 -0.33724656113E+03  0.11531897776E+03  0.75078937631E+03  0.65864270000E+03 0.  1.
    8880022    1    1    2    0    0 -0.53298890204E+02  0.33724656113E+03 -0.95314287073E+03  0.10239379863E+04  0.15294330000E+03 0.  0.
<mgrwt>
<rscale>  0 0.62517816E+03</rscale>
<asrwt>0</asrwt>
<pdfrwt beam="1">  1        2 0.20096548E+00 0.74188019E+03</pdfrwt>
<pdfrwt beam="2">  1       -2 0.72069498E-01 0.74188019E+03</pdfrwt>
<totfact> 0.29190462E+01</totfact>
</mgrwt>
</event>
<event>
 4    2  0.3171963E-007  0.6657841E+03  0.7818608E-02  0.1018884E+00
          2   -1    0    0  501    0  0.00000000000E+00  0.00000000000E+00  0.12988505915E+04  0.12988505915E+04  0.25500000000E-02 0. -1.
         -2   -1    0    0    0  501 -0.00000000000E+00 -0.00000000000E+00 -0.15844624526E+03  0.15844624528E+03  0.25500000000E-02 0.  1.
    8880023    1    1    2    0    0 -0.28222473802E+02  0.93068469121E+02  0.10752697403E+04  0.12647029171E+04  0.65864270000E+03 0. -1.
    8880022    1    1    2    0    0  0.28222473802E+02 -0.93068469121E+02  0.65134605946E+02  0.19259391963E+03  0.15294330000E+03 0.  0.
<mgrwt>
<rscale>  0 0.48091333E+03</rscale>
<asrwt>0</asrwt>
<pdfrwt beam="1">  1        2 0.19982316E+00 0.66578409E+03</pdfrwt>
<pdfrwt beam="2">  1       -2 0.24376346E-01 0.66578409E+03</pdfrwt>
<totfact> 0.25265533E+02</totfact>
</mgrwt>
</event>
<event>
 4    2  0.3171963E-007  0.6679235E+03  0.7818608E-02  0.1017197E+00
          2   -1    0    0  501    0  0.00000000000E+00  0.00000000000E+00  0.45457123032E+03  0.45457123033E+03  0.25500000000E-02 0. -1.
         -2   -1    0    0    0  501 -0.00000000000E+00 -0.00000000000E+00 -0.87516202508E+03  0.87516202509E+03  0.25500000000E-02 0.  1.
    8880023    1    1    2    0    0 -0.12452807798E+02 -0.11025646633E+03  0.18686311224E+03  0.69357017653E+03  0.65864270000E+03 0. -1.
    8880022    1    1    2    0    0  0.12452807798E+02  0.11025646633E+03 -0.60745390700E+03  0.63616307888E+03  0.15294330000E+03 0.  0.
<mgrwt>
<rscale>  0 0.48711718E+03</rscale>
<asrwt>0</asrwt>
<pdfrwt beam="1">  1        2 0.69934036E-01 0.66792347E+03</pdfrwt>
<pdfrwt beam="2">  1       -2 0.13464031E+00 0.66792347E+03</pdfrwt>
<totfact> 0.27832753E+01</totfact>
</mgrwt>
</event>
<event>
 4    2  0.3171963E-007  0.1188400E+04  0.7818608E-02  0.9168482E-01
         -2   -1    0    0    0  501 -0.00000000000E+00  0.00000000000E+00  0.19692003515E+04  0.19692003515E+04  0.25500000000E-02 0.  1.
          2   -1    0    0  501    0  0.00000000000E+00 -0.00000000000E+00 -0.68327901137E+03  0.68327901137E+03  0.25500000000E-02 0. -1.
    8880023    1    1    2    0    0  0.97070098921E+03 -0.19032553723E+03  0.11292405905E+04  0.16393531462E+04  0.65864270000E+03 0.  0.
    8880022    1    1    2    0    0 -0.97070098921E+03  0.19032553723E+03  0.15668074967E+03  0.10131262167E+04  0.15294330000E+03 0.  0.
<mgrwt>
<rscale>  0 0.11384755E+04</rscale>
<asrwt>0</asrwt>
<pdfrwt beam="1">  1        2 0.10511985E+00 0.11883999E+04</pdfrwt>
<pdfrwt beam="2">  1       -2 0.30295390E+00 0.11883999E+04</pdfrwt>
<totfact> 0.12672163E+00</totfact>
</mgrwt>
</event>
<event>
 4    2  0.3171963E-007  0.1233181E+04  0.7818608E-02  0.9125524E-01
          2   -1    0    0  501    0  0.00000000000E+00  0.00000000000E+00  0.19333038686E+04  0.19333038686E+04  0.25500000000E-02 0. -1.
         -2   -1    0    0    0  501 -0.00000000000E+00 -0.00000000000E+00 -0.88138622542E+03  0.88138622542E+03  0.25500000000E-02 0.  1.
    8880023    1    1    2    0    0  0.87346875533E+03  0.56919031526E+03  0.12349082103E+04  0.17452030758E+04  0.65864270000E+03 0.  0.
    8880022    1    1    2    0    0 -0.87346875533E+03 -0.56919031526E+03 -0.18299056713E+03  0.10694870182E+04  0.15294330000E+03 0.  0.
<mgrwt>
<rscale>  0 0.11856350E+04</rscale>
<asrwt>0</asrwt>
<pdfrwt beam="1">  1        2 0.29743136E+00 0.12331810E+04</pdfrwt>
<pdfrwt beam="2">  1       -2 0.13559788E+00 0.12331810E+04</pdfrwt>
<totfact> 0.27557392E+00</totfact>
</mgrwt>
</event>
<event>
 4    2  0.3171963E-007  0.7312389E+03  0.7818608E-02  0.9886244E-01
          2   -1    0    0  501    0  0.00000000000E+00  0.00000000000E+00  0.25878840553E+04  0.25878840553E+04  0.25500000000E-02 0. -1.
         -2   -1    0    0    0  501 -0.00000000000E+00 -0.00000000000E+00 -0.50349112905E+03  0.50349112906E+03  0.25500000000E-02 0.  1.
    8880023    1    1    2    0    0  0.15031895470E+02 -0.31729192270E+03  0.24658277743E+04  0.25719675233E+04  0.65864270000E+03 0. -1.
    8880022    1    1    2    0    0 -0.15031895470E+02  0.31729192270E+03 -0.38143484803E+03  0.51940766109E+03  0.15294330000E+03 0.  0.
<mgrwt>
<rscale>  0 0.60932608E+03</rscale>
<asrwt>0</asrwt>
<pdfrwt beam="1">  1        2 0.39813601E+00 0.73123890E+03</pdfrwt>
<pdfrwt beam="2">  1       -2 0.77460174E-01 0.73123890E+03</pdfrwt>
<totfact> 0.48554663E+00</totfact>
</mgrwt>
</event>
<event>
 4    2  0.3171963E-007  0.7074551E+03  0.7818608E-02  0.9967575E-01
          2   -1    0    0  501    0  0.00000000000E+00  0.00000000000E+00  0.39370234224E+03  0.39370234225E+03  0.25500000000E-02 0. -1.
         -2   -1    0    0    0  501 -0.00000000000E+00 -0.00000000000E+00 -0.98194249493E+03  0.98194249493E+03  0.25500000000E-02 0.  1.
    8880023    1    1    2    0    0 -0.24295476160E+03 -0.87495605073E+02  0.86953397786E+01  0.70750852453E+03  0.65864270000E+03 0. -1.
    8880022    1    1    2    0    0  0.24295476160E+03  0.87495605073E+02 -0.59693549247E+03  0.66813631264E+03  0.15294330000E+03 0.  0.
<mgrwt>
<rscale>  0 0.57095145E+03</rscale>
<asrwt>0</asrwt>
<pdfrwt beam="1">  1        2 0.60569591E-01 0.70745509E+03</pdfrwt>
<pdfrwt beam="2">  1       -2 0.15106808E+00 0.70745509E+03</pdfrwt>
<totfact> 0.24193369E+01</totfact>
</mgrwt>
</event>
<event>
 4    2  0.3171963E-007  0.7203392E+03  0.7818608E-02  0.9921440E-01
         -2   -1    0    0    0  501 -0.00000000000E+00  0.00000000000E+00  0.62583985249E+03  0.62583985249E+03  0.25500000000E-02 0.  1.
          2   -1    0    0  501    0  0.00000000000E+00 -0.00000000000E+00 -0.44194883397E+03  0.44194883397E+03  0.25500000000E-02 0. -1.
    8880023    1    1    2    0    0 -0.10633937244E+03  0.27160686237E+03  0.94395363088E+02  0.72649779123E+03  0.65864270000E+03 0.  0.
    8880022    1    1    2    0    0  0.10633937244E+03 -0.27160686237E+03  0.89495655434E+02  0.34129089524E+03  0.15294330000E+03 0.  1.
<mgrwt>
<rscale>  0 0.59233377E+03</rscale>
<asrwt>0</asrwt>
<pdfrwt beam="1">  1        2 0.67992129E-01 0.72033920E+03</pdfrwt>
<pdfrwt beam="2">  1       -2 0.96283054E-01 0.72033920E+03</pdfrwt>
<totfact> 0.64957380E+01</totfact>
</mgrwt>
</event>
<event>
 4    2  0.3171963E-007  0.8802587E+03  0.7818608E-02  0.9558496E-01
          2   -1    0    0  501    0  0.00000000000E+00  0.00000000000E+00  0.17583407875E+04  0.17583407875E+04  0.25500000000E-02 0. -1.
         -2   -1    0    0    0  501 -0.00000000000E+00 -0.00000000000E+00 -0.44400624641E+03  0.44400624641E+03  0.25500000000E-02 0.  1.
    8880023    1    1    2    0    0  0.51841590242E+03  0.26886837291E+03  0.13341015656E+04  0.15983373998E+04  0.65864270000E+03 0. -1.
    8880022    1    1    2    0    0 -0.51841590242E+03 -0.26886837291E+03 -0.19767024556E+02  0.60400963412E+03  0.15294330000E+03 0.  0.
<mgrwt>
<rscale>  0 0.80105171E+03</rscale>
<asrwt>0</asrwt>
<pdfrwt beam="1">  1        2 0.27051397E+00 0.88025874E+03</pdfrwt>
<pdfrwt beam="2">  1       -2 0.68308653E-01 0.88025874E+03</pdfrwt>
<totfact> 0.18074482E+01</totfact>
</mgrwt>
</event>
<event>
 4    2  0.3171963E-007  0.6996911E+03  0.7818608E-02  0.9998485E-01
         -2   -1    0    0    0  501 -0.00000000000E+00  0.00000000000E+00  0.14124169677E+04  0.14124169677E+04  0.25500000000E-02 0.  1.
          2   -1    0    0  501    0  0.00000000000E+00 -0.00000000000E+00 -0.59131783349E+03  0.59131783349E+03  0.25500000000E-02 0. -1.
    8880023    1    1    2    0    0 -0.23602301323E+03  0.71103859861E+01 -0.36189992046E+03  0.78774309204E+03  0.65864270000E+03 0. -1.
    8880022    1    1    2    0    0  0.23602301323E+03 -0.71103859861E+01  0.11829990547E+04  0.12159917092E+04  0.15294330000E+03 0.  0.
<mgrwt>
<rscale>  0 0.55716713E+03</rscale>
<asrwt>0</asrwt>
<pdfrwt beam="1">  1        2 0.90971974E-01 0.69969109E+03</pdfrwt>
<pdfrwt beam="2">  1       -2 0.21729492E+00 0.69969109E+03</pdfrwt>
<totfact> 0.53451924E+00</totfact>
</mgrwt>
</event>
<event>
 4    2  0.3171963E-007  0.6728081E+03  0.7818608E-02  0.1013725E+00
          2   -1    0    0  501    0  0.00000000000E+00  0.00000000000E+00  0.97128134853E+03  0.97128134854E+03  0.25500000000E-02 0. -1.
         -2   -1    0    0    0  501 -0.00000000000E+00 -0.00000000000E+00 -0.23928813452E+03  0.23928813453E+03  0.25500000000E-02 0.  1.
    8880023    1    1    2    0    0  0.11346286742E+03 -0.77373934629E+02  0.74594636733E+03  0.10045430490E+04  0.65864270000E+03 0. -1.
    8880022    1    1    2    0    0 -0.11346286742E+03  0.77373934629E+02 -0.13953153313E+02  0.20602643409E+03  0.15294330000E+03 0.  0.
<mgrwt>
<rscale>  0 0.50020679E+03</rscale>
<asrwt>0</asrwt>
<pdfrwt beam="1">  1        2 0.14942790E+00 0.67280811E+03</pdfrwt>
<pdfrwt beam="2">  1       -2 0.36813560E-01 0.67280811E+03</pdfrwt>
<totfact> 0.18555410E+02</totfact>
</mgrwt>
</event>
<event>
 4    2  0.3171963E-007  0.1174908E+04  0.7818608E-02  0.9181908E-01
          2   -1    0    0  501    0  0.00000000000E+00  0.00000000000E+00  0.12442238919E+04  0.12442238919E+04  0.25500000000E-02 0. -1.
         -2   -1    0    0    0  501 -0.00000000000E+00 -0.00000000000E+00 -0.15666475915E+04  0.15666475915E+04  0.25500000000E-02 0.  1.
    8880023    1    1    2    0    0 -0.83982458012E+03 -0.49121636026E+03  0.71903959724E+03  0.13774712290E+04  0.65864270000E+03 0. -1.
    8880022    1    1    2    0    0  0.83982458012E+03  0.49121636026E+03 -0.10414632969E+04  0.14334002545E+04  0.15294330000E+03 0.  0.
<mgrwt>
<rscale>  0 0.11242137E+04</rscale>
<asrwt>0</asrwt>
<pdfrwt beam="1">  1        2 0.19141906E+00 0.11749081E+04</pdfrwt>
<pdfrwt beam="2">  1       -2 0.24102271E+00 0.11749081E+04</pdfrwt>
<totfact> 0.12685100E+00</totfact>
</mgrwt>
</event>
<event>
 4    2  0.3171963E-007  0.9332659E+03  0.7818608E-02  0.9474611E-01
         -2   -1    0    0    0  501 -0.00000000000E+00  0.00000000000E+00  0.10566202691E+04  0.10566202691E+04  0.25500000000E-02 0.  1.
          2   -1    0    0  501    0  0.00000000000E+00 -0.00000000000E+00 -0.85247931176E+03  0.85247931176E+03  0.25500000000E-02 0. -1.
    8880023    1    1    2    0    0 -0.39360351851E+03 -0.53127324934E+03 -0.38581407329E+03  0.10098701405E+04  0.65864270000E+03 0. -1.
    8880022    1    1    2    0    0  0.39360351851E+03  0.53127324934E+03  0.58995503062E+03  0.89922944036E+03  0.15294330000E+03 0.  0.
<mgrwt>
<rscale>  0 0.86181808E+03</rscale>
<asrwt>0</asrwt>
<pdfrwt beam="1">  1        2 0.13115066E+00 0.93326588E+03</pdfrwt>
<pdfrwt beam="2">  1       -2 0.16255696E+00 0.93326588E+03</pdfrwt>
<totfact> 0.76082530E+00</totfact>
</mgrwt>
</event>
<event>
 4    2  0.3171963E-007  0.8333423E+03  0.7818608E-02  0.9642864E-01
         -2   -1    0    0    0  501 -0.00000000000E+00  0.00000000000E+00  0.34406251260E+03  0.34406251261E+03  0.25500000000E-02 0.  1.
          2   -1    0    0  501    0  0.00000000000E+00 -0.00000000000E+00 -0.17585102501E+04  0.17585102501E+04  0.25500000000E-02 0. -1.
    8880023    1    1    2    0    0  0.34938076582E+03 -0.37226638387E+03 -0.33391397699E+03  0.89775159726E+03  0.65864270000E+03 0.  1.
    8880022    1    1    2    0    0 -0.34938076582E+03  0.37226638387E+03 -0.10805337605E+04  0.12048211655E+04  0.15294330000E+03 0.  0.
<mgrwt>
<rscale>  0 0.74522972E+03</rscale>
<asrwt>0</asrwt>
<pdfrwt beam="1">  1        2 0.27054003E+00 0.83334230E+03</pdfrwt>
<pdfrwt beam="2">  1       -2 0.52932695E-01 0.83334230E+03</pdfrwt>
<totfact> 0.31174199E+01</totfact>
</mgrwt>
</event>
<event>
 4    2  0.3171963E-007  0.8783560E+03  0.7818608E-02  0.9561711E-01
         -2   -1    0    0    0  501 -0.00000000000E+00  0.00000000000E+00  0.65738546474E+03  0.65738546475E+03  0.25500000000E-02 0.  1.
          2   -1    0    0  501    0  0.00000000000E+00 -0.00000000000E+00 -0.20987854862E+04  0.20987854862E+04  0.25500000000E-02 0. -1.
    8880023    1    1    2    0    0  0.57959991935E+03 -0.41987699994E+02 -0.18373729101E+04  0.20365285293E+04  0.65864270000E+03 0.  0.
    8880022    1    1    2    0    0 -0.57959991935E+03  0.41987699994E+02  0.39597288868E+03  0.71964242165E+03  0.15294330000E+03 0.  0.
<mgrwt>
<rscale>  0 0.79883109E+03</rscale>
<asrwt>0</asrwt>
<pdfrwt beam="1">  1        2 0.32289007E+00 0.87835599E+03</pdfrwt>
<pdfrwt beam="2">  1       -2 0.10113623E+00 0.87835599E+03</pdfrwt>
<totfact> 0.48178294E+00</totfact>
</mgrwt>
</event>
<event>
 4    2  0.3171963E-007  0.8238751E+03  0.7818608E-02  0.9661369E-01
          2   -1    0    0  501    0  0.00000000000E+00  0.00000000000E+00  0.26496298349E+04  0.26496298349E+04  0.25500000000E-02 0. -1.
         -2   -1    0    0    0  501 -0.00000000000E+00 -0.00000000000E+00 -0.50965156482E+03  0.50965156483E+03  0.25500000000E-02 0.  1.
    8880023    1    1    2    0    0  0.45667799412E+03 -0.19080137998E+03  0.24298105633E+04  0.25656869522E+04  0.65864270000E+03 0. -1.
    8880022    1    1    2    0    0 -0.45667799412E+03  0.19080137998E+03 -0.28983229323E+03  0.59359444752E+03  0.15294330000E+03 0.  0.
<mgrwt>
<rscale>  0 0.73364178E+03</rscale>
<asrwt>0</asrwt>
<pdfrwt beam="1">  1        2 0.40763536E+00 0.82387509E+03</pdfrwt>
<pdfrwt beam="2">  1       -2 0.78407932E-01 0.82387509E+03</pdfrwt>
<totfact> 0.42825460E+00</totfact>
</mgrwt>
</event>
<event>
 4    2  0.3171963E-007  0.7102547E+03  0.7818608E-02  0.9957056E-01
          2   -1    0    0  501    0  0.00000000000E+00  0.00000000000E+00  0.10708131258E+04  0.10708131258E+04  0.25500000000E-02 0. -1.
         -2   -1    0    0    0  501 -0.00000000000E+00 -0.00000000000E+00 -0.55354875112E+03  0.55354875113E+03  0.25500000000E-02 0.  1.
    8880023    1    1    2    0    0 -0.11068751272E+03 -0.24166046058E+03  0.89194239529E+03  0.11401854877E+04  0.65864270000E+03 0. -1.
    8880022    1    1    2    0    0  0.11068751272E+03  0.24166046058E+03 -0.37467802063E+03  0.48417638918E+03  0.15294330000E+03 0.  0.
<mgrwt>
<rscale>  0 0.57574010E+03</rscale>
<asrwt>0</asrwt>
<pdfrwt beam="1">  1        2 0.16474048E+00 0.71025468E+03</pdfrwt>
<pdfrwt beam="2">  1       -2 0.85161347E-01 0.71025468E+03</pdfrwt>
<totfact> 0.27830676E+01</totfact>
</mgrwt>
</event>
<event>
 4    2  0.3171963E-007  0.7813101E+03  0.7818608E-02  0.9752769E-01
          2   -1    0    0  501    0  0.00000000000E+00  0.00000000000E+00  0.83603589093E+03  0.83603589094E+03  0.25500000000E-02 0. -1.
         -2   -1    0    0    0  501 -0.00000000000E+00 -0.00000000000E+00 -0.51267996266E+03  0.51267996267E+03  0.25500000000E-02 0.  1.
    8880023    1    1    2    0    0  0.29506338056E+03  0.29928718516E+03  0.42592181734E+03  0.88986224692E+03  0.65864270000E+03 0. -1.
    8880022    1    1    2    0    0 -0.29506338056E+03 -0.29928718516E+03 -0.10256588907E+03  0.45885360668E+03  0.15294330000E+03 0.  0.
<mgrwt>
<rscale>  0 0.67960037E+03</rscale>
<asrwt>0</asrwt>
<pdfrwt beam="1">  1        2 0.12862090E+00 0.78131007E+03</pdfrwt>
<pdfrwt beam="2">  1       -2 0.78873842E-01 0.78131007E+03</pdfrwt>
<totfact> 0.46859403E+01</totfact>
</mgrwt>
</event>
<event>
 4    2  0.3171963E-007  0.6962375E+03  0.7818608E-02  0.1001318E+00
          2   -1    0    0  501    0  0.00000000000E+00  0.00000000000E+00  0.49125229814E+03  0.49125229815E+03  0.25500000000E-02 0. -1.
         -2   -1    0    0    0  501 -0.00000000000E+00 -0.00000000000E+00 -0.48305054610E+03  0.48305054611E+03  0.25500000000E-02 0.  1.
    8880023    1    1    2    0    0  0.19978609211E+03 -0.10498548931E+03  0.51994540033E+02  0.69817624854E+03  0.65864270000E+03 0.  1.
    8880022    1    1    2    0    0 -0.19978609211E+03  0.10498548931E+03 -0.43792787990E+02  0.27612659572E+03  0.15294330000E+03 0. -1.
<mgrwt>
<rscale>  0 0.55075972E+03</rscale>
<asrwt>0</asrwt>
<pdfrwt beam="1">  1        2 0.75577277E-01 0.69623749E+03</pdfrwt>
<pdfrwt beam="2">  1       -2 0.74315469E-01 0.69623749E+03</pdfrwt>
<totfact> 0.10385282E+02</totfact>
</mgrwt>
</event>
<event>
 4    2  0.3171963E-007  0.7181564E+03  0.7818608E-02  0.9928874E-01
         -2   -1    0    0    0  501 -0.00000000000E+00  0.00000000000E+00  0.65081409253E+03  0.65081409254E+03  0.25500000000E-02 0.  1.
          2   -1    0    0  501    0  0.00000000000E+00 -0.00000000000E+00 -0.10337888653E+04  0.10337888653E+04  0.25500000000E-02 0. -1.
    8880023    1    1    2    0    0  0.20714492865E+03  0.19755854713E+03 -0.85196510114E+03  0.11142679843E+04  0.65864270000E+03 0. -1.
    8880022    1    1    2    0    0 -0.20714492865E+03 -0.19755854713E+03  0.46899032833E+03  0.57033497358E+03  0.15294330000E+03 0.  0.
<mgrwt>
<rscale>  0 0.58882103E+03</rscale>
<asrwt>0</asrwt>
<pdfrwt beam="1">  1        2 0.15904444E+00 0.71815639E+03</pdfrwt>
<pdfrwt beam="2">  1       -2 0.10012524E+00 0.71815639E+03</pdfrwt>
<totfact> 0.20141173E+01</totfact>
</mgrwt>
</event>
<event>
 4    2  0.3171963E-007  0.7743952E+03  0.7818608E-02  0.9769171E-01
         -2   -1    0    0    0  501 -0.00000000000E+00  0.00000000000E+00  0.22779103798E+03  0.22779103799E+03  0.25500000000E-02 0.  1.
          2   -1    0    0  501    0  0.00000000000E+00 -0.00000000000E+00 -0.21696193372E+04  0.21696193372E+04  0.25500000000E-02 0. -1.
    8880023    1    1    2    0    0 -0.48984171637E+02 -0.40432439027E+03 -0.17657134605E+04  0.19280642864E+04  0.65864270000E+03 0. -1.
    8880022    1    1    2    0    0  0.48984171637E+02  0.40432439027E+03 -0.17611483873E+03  0.46934608880E+03  0.15294330000E+03 0.  0.
<mgrwt>
<rscale>  0 0.67043550E+03</rscale>
<asrwt>0</asrwt>
<pdfrwt beam="1">  1        2 0.33378758E+00 0.77439516E+03</pdfrwt>
<pdfrwt beam="2">  1       -2 0.35044776E-01 0.77439516E+03</pdfrwt>
<totfact> 0.42314666E+01</totfact>
</mgrwt>
</event>
<event>
 4    2  0.3171963E-007  0.7028986E+03  0.7818608E-02  0.9985383E-01
         -2   -1    0    0    0  501 -0.00000000000E+00  0.00000000000E+00  0.10373611054E+04  0.10373611054E+04  0.25500000000E-02 0.  1.
          2   -1    0    0  501    0  0.00000000000E+00 -0.00000000000E+00 -0.29357701483E+03  0.29357701484E+03  0.25500000000E-02 0. -1.
    8880023    1    1    2    0    0  0.23517757398E+03  0.70339841939E+02  0.22685316490E+03  0.73859918045E+03  0.65864270000E+03 0.  0.
    8880022    1    1    2    0    0 -0.23517757398E+03 -0.70339841939E+02  0.51693092564E+03  0.59233893977E+03  0.15294330000E+03 0.  0.
<mgrwt>
<rscale>  0 0.56295844E+03</rscale>
<asrwt>0</asrwt>
<pdfrwt beam="1">  1        2 0.45165695E-01 0.70289856E+03</pdfrwt>
<pdfrwt beam="2">  1       -2 0.15959402E+00 0.70289856E+03</pdfrwt>
<totfact> 0.28984186E+01</totfact>
</mgrwt>
</event>
<event>
 4    2  0.3171963E-007  0.6670615E+03  0.7818608E-02  0.1017863E+00
          2   -1    0    0  501    0  0.00000000000E+00  0.00000000000E+00  0.18323668743E+04  0.18323668743E+04  0.25500000000E-02 0. -1.
         -2   -1    0    0    0  501 -0.00000000000E+00 -0.00000000000E+00 -0.29991703775E+03  0.29991703776E+03  0.25500000000E-02 0.  1.
    8880023    1    1    2    0    0  0.50091111128E+02 -0.93014703596E+02  0.17341324188E+04  0.18580060028E+04  0.65864270000E+03 0. -1.
    8880022    1    1    2    0    0 -0.50091111128E+02  0.93014703596E+02 -0.20168258222E+03  0.27427790922E+03  0.15294330000E+03 0.  0.
<mgrwt>
<rscale>  0 0.48465685E+03</rscale>
<asrwt>0</asrwt>
<pdfrwt beam="1">  1        2 0.28190259E+00 0.66706151E+03</pdfrwt>
<pdfrwt beam="2">  1       -2 0.46141083E-01 0.66706151E+03</pdfrwt>
<totfact> 0.38319965E+01</totfact>
</mgrwt>
</event>
<event>
 4    2  0.3171963E-007  0.7947302E+03  0.7818608E-02  0.9722308E-01
          2   -1    0    0  501    0  0.00000000000E+00  0.00000000000E+00  0.10453228247E+04  0.10453228247E+04  0.25500000000E-02 0. -1.
         -2   -1    0    0    0  501 -0.00000000000E+00 -0.00000000000E+00 -0.84555751343E+03  0.84555751343E+03  0.25500000000E-02 0.  1.
    8880023    1    1    2    0    0 -0.32959239488E+03  0.29858786022E+03  0.80046427921E+03  0.11279801087E+04  0.65864270000E+03 0.  0.
    8880022    1    1    2    0    0  0.32959239488E+03 -0.29858786022E+03 -0.60069896793E+03  0.76290022947E+03  0.15294330000E+03 0.  1.
<mgrwt>
<rscale>  0 0.69703952E+03</rscale>
<asrwt>0</asrwt>
<pdfrwt beam="1">  1        2 0.16081890E+00 0.79473018E+03</pdfrwt>
<pdfrwt beam="2">  1       -2 0.13008577E+00 0.79473018E+03</pdfrwt>
<totfact> 0.10347586E+01</totfact>
</mgrwt>
</event>
<event>
 4    2  0.3171963E-007  0.7395553E+03  0.7818608E-02  0.9861244E-01
         -2   -1    0    0    0  501 -0.00000000000E+00  0.00000000000E+00  0.14190532753E+04  0.14190532753E+04  0.25500000000E-02 0.  1.
          2   -1    0    0  501    0  0.00000000000E+00 -0.00000000000E+00 -0.17053851787E+04  0.17053851787E+04  0.25500000000E-02 0. -1.
    8880023    1    1    2    0    0  0.34728778315E+02 -0.33455308711E+03 -0.15984732585E+04  0.17612662548E+04  0.65864270000E+03 0. -1.
    8880022    1    1    2    0    0 -0.34728778315E+02  0.33455308711E+03  0.13121413550E+04  0.13631721992E+04  0.15294330000E+03 0.  0.
<mgrwt>
<rscale>  0 0.62176880E+03</rscale>
<asrwt>0</asrwt>
<pdfrwt beam="1">  1        2 0.26236695E+00 0.73955531E+03</pdfrwt>
<pdfrwt beam="2">  1       -2 0.21831589E+00 0.73955531E+03</pdfrwt>
<totfact> 0.10281242E+00</totfact>
</mgrwt>
</event>
<event>
 4    2  0.3171963E-007  0.1309375E+04  0.7818608E-02  0.9057506E-01
          2   -1    0    0  501    0  0.00000000000E+00  0.00000000000E+00  0.71372347049E+03  0.71372347050E+03  0.25500000000E-02 0. -1.
         -2   -1    0    0    0  501 -0.00000000000E+00 -0.00000000000E+00 -0.28305401147E+04  0.28305401147E+04  0.25500000000E-02 0.  1.
    8880023    1    1    2    0    0  0.11067013057E+04 -0.23635507892E+03 -0.20079359218E+04  0.23971375380E+04  0.65864270000E+03 0.  0.
    8880022    1    1    2    0    0 -0.11067013057E+04  0.23635507892E+03 -0.10888072234E+03  0.11471260472E+04  0.15294330000E+03 0.  0.
<mgrwt>
<rscale>  0 0.12653464E+04</rscale>
<asrwt>0</asrwt>
<pdfrwt beam="1">  1        2 0.10980361E+00 0.13093745E+04</pdfrwt>
<pdfrwt beam="2">  1       -2 0.43546771E+00 0.13093745E+04</pdfrwt>
<totfact> 0.16901716E-01</totfact>
</mgrwt>
</event>
<event>
 4    2  0.3171963E-007  0.8287195E+03  0.7818608E-02  0.9651829E-01
          2   -1    0    0  501    0  0.00000000000E+00  0.00000000000E+00  0.70350114672E+03  0.70350114672E+03  0.25500000000E-02 0. -1.
         -2   -1    0    0    0  501 -0.00000000000E+00 -0.00000000000E+00 -0.80501068083E+03  0.80501068083E+03  0.25500000000E-02 0.  1.
    8880023    1    1    2    0    0  0.30230983768E+03  0.40196343156E+03  0.26225888245E+03  0.86922710839E+03  0.65864270000E+03 0.  0.
    8880022    1    1    2    0    0 -0.30230983768E+03 -0.40196343156E+03 -0.36376841656E+03  0.63928471917E+03  0.15294330000E+03 0.  0.
<mgrwt>
<rscale>  0 0.73958753E+03</rscale>
<asrwt>0</asrwt>
<pdfrwt beam="1">  1        2 0.10823095E+00 0.82871952E+03</pdfrwt>
<pdfrwt beam="2">  1       -2 0.12384780E+00 0.82871952E+03</pdfrwt>
<totfact> 0.20117357E+01</totfact>
</mgrwt>
</event>
<event>
 4    2  0.3171963E-007  0.6647420E+03  0.7818608E-02  0.1019751E+00
         -2   -1    0    0    0  501 -0.00000000000E+00  0.00000000000E+00  0.56745639389E+02  0.56745639446E+02  0.25500000000E-02 0.  1.
          2   -1    0    0  501    0  0.00000000000E+00 -0.00000000000E+00 -0.38123930756E+04  0.38123930756E+04  0.25500000000E-02 0. -1.
    8880023    1    1    2    0    0  0.37875966409E+02 -0.81468937123E+02 -0.34684832509E+04  0.35316084218E+04  0.65864270000E+03 0. -1.
    8880022    1    1    2    0    0 -0.37875966409E+02  0.81468937123E+02 -0.28716418527E+03  0.33753029325E+03  0.15294330000E+03 0.  0.
<mgrwt>
<rscale>  0 0.47776642E+03</rscale>
<asrwt>0</asrwt>
<pdfrwt beam="1">  1        2 0.58652181E+00 0.66474204E+03</pdfrwt>
<pdfrwt beam="2">  1       -2 0.87301013E-02 0.66474204E+03</pdfrwt>
<totfact> 0.45511630E+01</totfact>
</mgrwt>
</event>
<event>
 4    2  0.3171963E-007  0.6770837E+03  0.7818608E-02  0.1011024E+00
         -2   -1    0    0    0  501 -0.00000000000E+00  0.00000000000E+00  0.78287669812E+02  0.78287669853E+02  0.25500000000E-02 0.  1.
          2   -1    0    0  501    0  0.00000000000E+00 -0.00000000000E+00 -0.32791982494E+04  0.32791982494E+04  0.25500000000E-02 0. -1.
    8880023    1    1    2    0    0 -0.10194049395E+03  0.11933231194E+03 -0.29390159636E+04  0.30160001833E+04  0.65864270000E+03 0.  0.
    8880022    1    1    2    0    0  0.10194049395E+03 -0.11933231194E+03 -0.26189461602E+03  0.34148573600E+03  0.15294330000E+03 0.  0.
<mgrwt>
<rscale>  0 0.51069748E+03</rscale>
<asrwt>0</asrwt>
<pdfrwt beam="1">  1        2 0.50449193E+00 0.67708365E+03</pdfrwt>
<pdfrwt beam="2">  1       -2 0.12044259E-01 0.67708365E+03</pdfrwt>
<totfact> 0.62712646E+01</totfact>
</mgrwt>
</event>
<event>
 4    2  0.3171963E-007  0.7699086E+03  0.7818608E-02  0.9780099E-01
         -2   -1    0    0    0  501 -0.00000000000E+00  0.00000000000E+00  0.24874166865E+03  0.24874166866E+03  0.25500000000E-02 0.  1.
          2   -1    0    0  501    0  0.00000000000E+00 -0.00000000000E+00 -0.15609710271E+04  0.15609710271E+04  0.25500000000E-02 0. -1.
    8880023    1    1    2    0    0 -0.31836505515E+02 -0.39741094551E+03 -0.10718008050E+04  0.13196651827E+04  0.65864270000E+03 0.  0.
    8880022    1    1    2    0    0  0.31836505515E+02  0.39741094551E+03 -0.24042855349E+03  0.49004751304E+03  0.15294330000E+03 0.  0.
<mgrwt>
<rscale>  0 0.66441559E+03</rscale>
<asrwt>0</asrwt>
<pdfrwt beam="1">  1        2 0.24014938E+00 0.76990858E+03</pdfrwt>
<pdfrwt beam="2">  1       -2 0.38267950E-01 0.76990858E+03</pdfrwt>
<totfact> 0.77028770E+01</totfact>
</mgrwt>
</event>
<event>
 4    2  0.3171963E-007  0.9186276E+03  0.7818608E-02  0.9496767E-01
         -2   -1    0    0    0  501 -0.00000000000E+00  0.00000000000E+00  0.41284484405E+03  0.41284484405E+03  0.25500000000E-02 0.  1.
          2   -1    0    0  501    0  0.00000000000E+00 -0.00000000000E+00 -0.23706147328E+04  0.23706147328E+04  0.25500000000E-02 0. -1.
    8880023    1    1    2    0    0 -0.14686898619E+03 -0.62329439344E+03 -0.19147144251E+04  0.21236779266E+04  0.65864270000E+03 0.  0.
    8880022    1    1    2    0    0  0.14686898619E+03  0.62329439344E+03 -0.43055463617E+02  0.65978165022E+03  0.15294330000E+03 0.  1.
<mgrwt>
<rscale>  0 0.84522628E+03</rscale>
<asrwt>0</asrwt>
<pdfrwt beam="1">  1        2 0.36470995E+00 0.91862757E+03</pdfrwt>
<pdfrwt beam="2">  1       -2 0.63514593E-01 0.91862757E+03</pdfrwt>
<totfact> 0.96664770E+00</totfact>
</mgrwt>
</event>
<event>
 4    2  0.3171963E-007  0.6865302E+03  0.7818608E-02  0.1005847E+00
          2   -1    0    0  501    0  0.00000000000E+00  0.00000000000E+00  0.15802601221E+04  0.15802601222E+04  0.25500000000E-02 0. -1.
         -2   -1    0    0    0  501 -0.00000000000E+00 -0.00000000000E+00 -0.28616700143E+03  0.28616700144E+03  0.25500000000E-02 0.  1.
    8880023    1    1    2    0    0 -0.86653084209E+02  0.17321896148E+03  0.14288633822E+04  0.15852363663E+04  0.65864270000E+03 0.  0.
    8880022    1    1    2    0    0  0.86653084209E+02 -0.17321896148E+03 -0.13477026148E+03  0.28119075734E+03  0.15294330000E+03 0.  0.
<mgrwt>
<rscale>  0 0.53158971E+03</rscale>
<asrwt>0</asrwt>
<pdfrwt beam="1">  1        2 0.24311694E+00 0.68653024E+03</pdfrwt>
<pdfrwt beam="2">  1       -2 0.44025693E-01 0.68653024E+03</pdfrwt>
<totfact> 0.57615576E+01</totfact>
</mgrwt>
</event>
<event>
 4    2  0.3171963E-007  0.1030405E+04  0.7818608E-02  0.9342816E-01
          2   -1    0    0  501    0  0.00000000000E+00  0.00000000000E+00  0.40573860424E+04  0.40573860424E+04  0.25500000000E-02 0. -1.
         -2   -1    0    0    0  501 -0.00000000000E+00 -0.00000000000E+00 -0.28499190906E+03  0.28499190907E+03  0.25500000000E-02 0.  1.
    8880023    1    1    2    0    0 -0.39407256649E+03 -0.68748225442E+03  0.93137290278E+03  0.13889531051E+04  0.65864270000E+03 0.  0.
    8880022    1    1    2    0    0  0.39407256649E+03  0.68748225442E+03  0.28410212305E+04  0.29534248464E+04  0.15294330000E+03 0.  0.
<mgrwt>
<rscale>  0 0.96934888E+03</rscale>
<asrwt>0</asrwt>
<pdfrwt beam="1">  1        2 0.62421321E+00 0.10304054E+04</pdfrwt>
<pdfrwt beam="2">  1       -2 0.43844911E-01 0.10304054E+04</pdfrwt>
<totfact> 0.15926285E+00</totfact>
</mgrwt>
</event>
<event>
 4    2  0.3171963E-007  0.6670155E+03  0.7818608E-02  0.1017899E+00
          2   -1    0    0  501    0  0.00000000000E+00  0.00000000000E+00  0.18826024984E+04  0.18826024984E+04  0.25500000000E-02 0. -1.
         -2   -1    0    0    0  501 -0.00000000000E+00 -0.00000000000E+00 -0.20739498867E+03  0.20739498868E+03  0.25500000000E-02 0.  1.
    8880023    1    1    2    0    0  0.13823313641E+02  0.10444345781E+03  0.17627159374E+04  0.18846955197E+04  0.65864270000E+03 0. -1.
    8880022    1    1    2    0    0 -0.13823313641E+02 -0.10444345781E+03 -0.87508427649E+02  0.20530196736E+03  0.15294330000E+03 0.  0.
<mgrwt>
<rscale>  0 0.48452418E+03</rscale>
<asrwt>0</asrwt>
<pdfrwt beam="1">  1        2 0.28963115E+00 0.66701554E+03</pdfrwt>
<pdfrwt beam="2">  1       -2 0.31906922E-01 0.66701554E+03</pdfrwt>
<totfact> 0.73429080E+01</totfact>
</mgrwt>
</event>
<event>
 4    2  0.3171963E-007  0.7056753E+03  0.7818608E-02  0.9974425E-01
          2   -1    0    0  501    0  0.00000000000E+00  0.00000000000E+00  0.15737061619E+04  0.15737061619E+04  0.25500000000E-02 0. -1.
         -2   -1    0    0    0  501 -0.00000000000E+00 -0.00000000000E+00 -0.17402902661E+03  0.17402902663E+03  0.25500000000E-02 0.  1.
    8880023    1    1    2    0    0 -0.24573359961E+03  0.61501531649E+02  0.11954649258E+04  0.13882053290E+04  0.65864270000E+03 0.  0.
    8880022    1    1    2    0    0  0.24573359961E+03 -0.61501531649E+02  0.20421220948E+03  0.35952985952E+03  0.15294330000E+03 0.  0.
<mgrwt>
<rscale>  0 0.56786009E+03</rscale>
<asrwt>0</asrwt>
<pdfrwt beam="1">  1        2 0.24210864E+00 0.70567531E+03</pdfrwt>
<pdfrwt beam="2">  1       -2 0.26773696E-01 0.70567531E+03</pdfrwt>
<totfact> 0.14902816E+02</totfact>
</mgrwt>
</event>
<event>
 4    2  0.3171963E-007  0.6899993E+03  0.7818608E-02  0.1004153E+00
         -2   -1    0    0    0  501 -0.00000000000E+00  0.00000000000E+00  0.29560188424E+03  0.29560188425E+03  0.25500000000E-02 0.  1.
          2   -1    0    0  501    0  0.00000000000E+00 -0.00000000000E+00 -0.14750579350E+04  0.14750579350E+04  0.25500000000E-02 0. -1.
    8880023    1    1    2    0    0 -0.16890037701E+03 -0.11730957799E+03 -0.13118171947E+04  0.14822157174E+04  0.65864270000E+03 0. -1.
    8880022    1    1    2    0    0  0.16890037701E+03  0.11730957799E+03  0.13236114392E+03  0.28844410182E+03  0.15294330000E+03 0.  1.
<mgrwt>
<rscale>  0 0.53866168E+03</rscale>
<asrwt>0</asrwt>
<pdfrwt beam="1">  1        2 0.22693199E+00 0.68999933E+03</pdfrwt>
<pdfrwt beam="2">  1       -2 0.45477214E-01 0.68999933E+03</pdfrwt>
<totfact> 0.61743054E+01</totfact>
</mgrwt>
</event>
<event>
 4    2  0.3171963E-007  0.7057539E+03  0.7818608E-02  0.9974120E-01
         -2   -1    0    0    0  501 -0.00000000000E+00  0.00000000000E+00  0.11215749431E+03  0.11215749434E+03  0.25500000000E-02 0.  1.
          2   -1    0    0  501    0  0.00000000000E+00 -0.00000000000E+00 -0.32112589701E+04  0.32112589701E+04  0.25500000000E-02 0. -1.
    8880023    1    1    2    0    0 -0.23906178817E+03 -0.84426810859E+02 -0.28512011952E+04  0.29372498850E+04  0.65864270000E+03 0. -1.
    8880022    1    1    2    0    0  0.23906178817E+03  0.84426810859E+02 -0.24790028053E+03  0.38616657941E+03  0.15294330000E+03 0.  0.
<mgrwt>
<rscale>  0 0.56799748E+03</rscale>
<asrwt>0</asrwt>
<pdfrwt beam="1">  1        2 0.49403977E+00 0.70575395E+03</pdfrwt>
<pdfrwt beam="2">  1       -2 0.17255002E-01 0.70575395E+03</pdfrwt>
<totfact> 0.37680118E+01</totfact>
</mgrwt>
</event>
<event>
 4    2  0.3171963E-007  0.1100798E+04  0.7818608E-02  0.9260168E-01
         -2   -1    0    0    0  501 -0.00000000000E+00  0.00000000000E+00  0.16063967155E+04  0.16063967155E+04  0.25500000000E-02 0.  1.
          2   -1    0    0  501    0  0.00000000000E+00 -0.00000000000E+00 -0.11952796539E+04  0.11952796539E+04  0.25500000000E-02 0. -1.
    8880023    1    1    2    0    0 -0.78975932512E+03  0.39271740500E+03 -0.75260765217E+03  0.13334823719E+04  0.65864270000E+03 0.  0.
    8880022    1    1    2    0    0  0.78975932512E+03 -0.39271740500E+03  0.11637247138E+04  0.14681939975E+04  0.15294330000E+03 0.  0.
<mgrwt>
<rscale>  0 0.10453406E+04</rscale>
<asrwt>0</asrwt>
<pdfrwt beam="1">  1        2 0.18388918E+00 0.11007983E+04</pdfrwt>
<pdfrwt beam="2">  1       -2 0.24713796E+00 0.11007983E+04</pdfrwt>
<totfact> 0.12552281E+00</totfact>
</mgrwt>
</event>
<event>
 4    2  0.3171963E-007  0.9286024E+03  0.7818608E-02  0.9481593E-01
          2   -1    0    0  501    0  0.00000000000E+00  0.00000000000E+00  0.12465869871E+04  0.12465869871E+04  0.25500000000E-02 0. -1.
         -2   -1    0    0    0  501 -0.00000000000E+00 -0.00000000000E+00 -0.56517028490E+03  0.56517028490E+03  0.25500000000E-02 0.  1.
    8880023    1    1    2    0    0  0.59032115411E+03  0.28286597929E+03  0.12076812650E+03  0.93642264703E+03  0.65864270000E+03 0.  1.
    8880022    1    1    2    0    0 -0.59032115411E+03 -0.28286597929E+03  0.56064857571E+03  0.87533462498E+03  0.15294330000E+03 0.  0.
<mgrwt>
<rscale>  0 0.85654604E+03</rscale>
<asrwt>0</asrwt>
<pdfrwt beam="1">  1        2 0.19178261E+00 0.92860241E+03</pdfrwt>
<pdfrwt beam="2">  1       -2 0.86949276E-01 0.92860241E+03</pdfrwt>
<totfact> 0.20361453E+01</totfact>
</mgrwt>
</event>
<event>
 4    2  0.3300180E-007  0.7609150E+03  0.7818608E-02  0.9802744E-01
          2   -1    0    0  501    0  0.00000000000E+00  0.00000000000E+00  0.17201630994E+04  0.17201630994E+04  0.25500000000E-02 0. -1.
         -2   -1    0    0    0  501 -0.00000000000E+00 -0.00000000000E+00 -0.87540957509E+03  0.87540957509E+03  0.25500000000E-02 0.  1.
    8880023    1    1    2    0    0  0.83467253461E+02  0.37177238540E+03  0.15798740212E+04  0.17535659720E+04  0.65864270000E+03 0.  0.
    8880022    1    1    2    0    0 -0.83467253461E+02 -0.37177238540E+03 -0.73512049694E+03  0.84200670246E+03  0.15294330000E+03 0.  0.
<mgrwt>
<rscale>  0 0.65215477E+03</rscale>
<asrwt>0</asrwt>
<pdfrwt beam="1">  1        2 0.26464047E+00 0.76091504E+03</pdfrwt>
<pdfrwt beam="2">  1       -2 0.13467840E+00 0.76091504E+03</pdfrwt>
<totfact> 0.39014189E+00</totfact>
</mgrwt>
</event>
<event>
 4    2  0.3171963E-007  0.6877956E+03  0.7818608E-02  0.1005218E+00
          2   -1    0    0  501    0  0.00000000000E+00  0.00000000000E+00  0.16152433184E+04  0.16152433184E+04  0.25500000000E-02 0. -1.
         -2   -1    0    0    0  501 -0.00000000000E+00 -0.00000000000E+00 -0.20919973446E+03  0.20919973448E+03  0.25500000000E-02 0.  1.
    8880023    1    1    2    0    0 -0.15716444056E+03 -0.12063146864E+03  0.14157363915E+04  0.15739670737E+04  0.65864270000E+03 0. -1.
    8880022    1    1    2    0    0  0.15716444056E+03  0.12063146864E+03 -0.96928075788E+01  0.25047597916E+03  0.15294330000E+03 0.  0.
<mgrwt>
<rscale>  0 0.53420103E+03</rscale>
<asrwt>0</asrwt>
<pdfrwt beam="1">  1        2 0.24849897E+00 0.68779562E+03</pdfrwt>
<pdfrwt beam="2">  1       -2 0.32184575E-01 0.68779562E+03</pdfrwt>
<totfact> 0.10079975E+02</totfact>
</mgrwt>
</event>
<event>
 4    2  0.3171963E-007  0.7543134E+03  0.7818608E-02  0.9820058E-01
         -2   -1    0    0    0  501 -0.00000000000E+00  0.00000000000E+00  0.12767890125E+04  0.12767890125E+04  0.25500000000E-02 0.  1.
          2   -1    0    0  501    0  0.00000000000E+00 -0.00000000000E+00 -0.35006463937E+03  0.35006463938E+03  0.25500000000E-02 0. -1.
    8880023    1    1    2    0    0  0.32437590209E+03  0.17308617390E+03  0.17223458501E+03  0.77372702421E+03  0.65864270000E+03 0.  0.
    8880022    1    1    2    0    0 -0.32437590209E+03 -0.17308617390E+03  0.75448978811E+03  0.85312662767E+03  0.15294330000E+03 0.  0.
<mgrwt>
<rscale>  0 0.64297129E+03</rscale>
<asrwt>0</asrwt>
<pdfrwt beam="1">  1        2 0.53856098E-01 0.75431343E+03</pdfrwt>
<pdfrwt beam="2">  1       -2 0.19642908E+00 0.75431343E+03</pdfrwt>
<totfact> 0.13195201E+01</totfact>
</mgrwt>
</event>
<event>
 4    2  0.3171963E-007  0.6740340E+03  0.7818608E-02  0.1012922E+00
          2   -1    0    0  501    0  0.00000000000E+00  0.00000000000E+00  0.26435212287E+04  0.26435212287E+04  0.25500000000E-02 0. -1.
         -2   -1    0    0    0  501 -0.00000000000E+00 -0.00000000000E+00 -0.31626725104E+03  0.31626725105E+03  0.25500000000E-02 0.  1.
    8880023    1    1    2    0    0  0.11861255898E+03 -0.80266554328E+02  0.25596331975E+04  0.26468932677E+04  0.65864270000E+03 0. -1.
    8880022    1    1    2    0    0 -0.11861255898E+03  0.80266554328E+02 -0.23237921982E+03  0.31289521203E+03  0.15294330000E+03 0.  0.
<mgrwt>
<rscale>  0 0.50329605E+03</rscale>
<asrwt>0</asrwt>
<pdfrwt beam="1">  1        2 0.40669557E+00 0.67403402E+03</pdfrwt>
<pdfrwt beam="2">  1       -2 0.48656500E-01 0.67403402E+03</pdfrwt>
<totfact> 0.12233913E+01</totfact>
</mgrwt>
</event>
<event>
 4    2  0.3171963E-007  0.1126263E+04  0.7818608E-02  0.9232363E-01
         -2   -1    0    0    0  501 -0.00000000000E+00  0.00000000000E+00  0.62652919559E+03  0.62652919559E+03  0.25500000000E-02 0.  1.
          2   -1    0    0  501    0  0.00000000000E+00 -0.00000000000E+00 -0.28994807706E+04  0.28994807706E+04  0.25500000000E-02 0. -1.
    8880023    1    1    2    0    0  0.74933522789E+03 -0.52264309114E+03 -0.60980041449E+02  0.11279130535E+04  0.65864270000E+03 0.  1.
    8880022    1    1    2    0    0 -0.74933522789E+03  0.52264309114E+03 -0.22119715336E+04  0.23980969128E+04  0.15294330000E+03 0.  0.
<mgrwt>
<rscale>  0 0.10725538E+04</rscale>
<asrwt>0</asrwt>
<pdfrwt beam="1">  1        2 0.44607396E+00 0.11262634E+04</pdfrwt>
<pdfrwt beam="2">  1       -2 0.96389109E-01 0.11262634E+04</pdfrwt>
<totfact> 0.18094473E+00</totfact>
</mgrwt>
</event>
<event>
 4    2  0.3171963E-007  0.6820861E+03  0.7818608E-02  0.1008167E+00
         -2   -1    0    0    0  501 -0.00000000000E+00  0.00000000000E+00  0.32730960635E+03  0.32730960636E+03  0.25500000000E-02 0.  1.
          2   -1    0    0  501    0  0.00000000000E+00 -0.00000000000E+00 -0.10127257484E+04  0.10127257484E+04  0.25500000000E-02 0. -1.
    8880023    1    1    2    0    0  0.76969344889E+01 -0.17712145282E+03 -0.82264802424E+03  0.10686398972E+04  0.65864270000E+03 0.  0.
    8880022    1    1    2    0    0 -0.76969344889E+01  0.17712145282E+03  0.13723188223E+03  0.27139545752E+03  0.15294330000E+03 0.  0.
<mgrwt>
<rscale>  0 0.52209515E+03</rscale>
<asrwt>0</asrwt>
<pdfrwt beam="1">  1        2 0.15580396E+00 0.68208611E+03</pdfrwt>
<pdfrwt beam="2">  1       -2 0.50355324E-01 0.68208611E+03</pdfrwt>
<totfact> 0.93980465E+01</totfact>
</mgrwt>
</event>
<event>
 4    2  0.3171963E-007  0.7170551E+03  0.7818608E-02  0.9932679E-01
         -2   -1    0    0    0  501 -0.00000000000E+00  0.00000000000E+00  0.62837243378E+03  0.62837243378E+03  0.25500000000E-02 0.  1.
          2   -1    0    0  501    0  0.00000000000E+00 -0.00000000000E+00 -0.63081345967E+03  0.63081345968E+03  0.25500000000E-02 0. -1.
    8880023    1    1    2    0    0 -0.23582945903E+03 -0.15729680182E+03 -0.33915564658E+03  0.79321786193E+03  0.65864270000E+03 0. -1.
    8880022    1    1    2    0    0  0.23582945903E+03  0.15729680182E+03  0.33671462069E+03  0.46596803153E+03  0.15294330000E+03 0.  0.
<mgrwt>
<rscale>  0 0.58703316E+03</rscale>
<asrwt>0</asrwt>
<pdfrwt beam="1">  1        2 0.97048226E-01 0.71705511E+03</pdfrwt>
<pdfrwt beam="2">  1       -2 0.96672681E-01 0.71705511E+03</pdfrwt>
<totfact> 0.42375251E+01</totfact>
</mgrwt>
</event>
<event>
 4    2  0.3171963E-007  0.7964794E+03  0.7818608E-02  0.9718461E-01
          2   -1    0    0  501    0  0.00000000000E+00  0.00000000000E+00  0.27885049796E+04  0.27885049796E+04  0.25500000000E-02 0. -1.
         -2   -1    0    0    0  501 -0.00000000000E+00 -0.00000000000E+00 -0.15729745983E+03  0.15729745985E+03  0.25500000000E-02 0.  1.
    8880023    1    1    2    0    0  0.43281273616E+03 -0.11507557952E+03  0.20301398243E+04  0.21807904911E+04  0.65864270000E+03 0. -1.
    8880022    1    1    2    0    0 -0.43281273616E+03  0.11507557952E+03  0.60106769546E+03  0.76501194835E+03  0.15294330000E+03 0.  1.
<mgrwt>
<rscale>  0 0.69928215E+03</rscale>
<asrwt>0</asrwt>
<pdfrwt beam="1">  1        2 0.42900075E+00 0.79647942E+03</pdfrwt>
<pdfrwt beam="2">  1       -2 0.24199610E-01 0.79647942E+03</pdfrwt>
<totfact> 0.37259667E+01</totfact>
</mgrwt>
</event>
<event>
 4    2  0.3171963E-007  0.7037404E+03  0.7818608E-02  0.9982025E-01
         -2   -1    0    0    0  501 -0.00000000000E+00  0.00000000000E+00  0.31147659198E+03  0.31147659199E+03  0.25500000000E-02 0.  1.
          2   -1    0    0  501    0  0.00000000000E+00 -0.00000000000E+00 -0.16348105522E+04  0.16348105522E+04  0.25500000000E-02 0. -1.
    8880023    1    1    2    0    0  0.13173928368E+03  0.20996444767E+03 -0.14628599177E+04  0.16233328843E+04  0.65864270000E+03 0. -1.
    8880022    1    1    2    0    0 -0.13173928368E+03 -0.20996444767E+03  0.13952595749E+03  0.32295425989E+03  0.15294330000E+03 0.  0.
<mgrwt>
<rscale>  0 0.56445495E+03</rscale>
<asrwt>0</asrwt>
<pdfrwt beam="1">  1        2 0.25150931E+00 0.70374037E+03</pdfrwt>
<pdfrwt beam="2">  1       -2 0.47919476E-01 0.70374037E+03</pdfrwt>
<totfact> 0.45300184E+01</totfact>
</mgrwt>
</event>
<event>
 4    2  0.3171963E-007  0.9335047E+03  0.7818608E-02  0.9474255E-01
         -2   -1    0    0    0  501 -0.00000000000E+00  0.00000000000E+00  0.81221594341E+03  0.81221594341E+03  0.25500000000E-02 0.  1.
          2   -1    0    0  501    0  0.00000000000E+00 -0.00000000000E+00 -0.16976889653E+04  0.16976889653E+04  0.25500000000E-02 0. -1.
    8880023    1    1    2    0    0 -0.62000920771E+03  0.23067162411E+03 -0.13827078189E+04  0.16683260876E+04  0.65864270000E+03 0. -1.
    8880022    1    1    2    0    0  0.62000920771E+03 -0.23067162411E+03  0.49723479700E+03  0.84157882113E+03  0.15294330000E+03 0.  0.
<mgrwt>
<rscale>  0 0.86208773E+03</rscale>
<asrwt>0</asrwt>
<pdfrwt beam="1">  1        2 0.26118292E+00 0.93350470E+03</pdfrwt>
<pdfrwt beam="2">  1       -2 0.12495630E+00 0.93350470E+03</pdfrwt>
<totfact> 0.47360653E+00</totfact>
</mgrwt>
</event>
<event>
 4    2  0.3171963E-007  0.1033638E+04  0.7818608E-02  0.9338814E-01
         -2   -1    0    0    0  501 -0.00000000000E+00  0.00000000000E+00  0.80196509550E+03  0.80196509551E+03  0.25500000000E-02 0.  1.
          2   -1    0    0  501    0  0.00000000000E+00 -0.00000000000E+00 -0.14085673161E+04  0.14085673161E+04  0.25500000000E-02 0. -1.
    8880023    1    1    2    0    0 -0.20792876366E+03  0.76900144308E+03 -0.87692561066E+03  0.13555096175E+04  0.65864270000E+03 0. -1.
    8880022    1    1    2    0    0  0.20792876366E+03 -0.76900144308E+03  0.27032339007E+03  0.85502279411E+03  0.15294330000E+03 0.  0.
<mgrwt>
<rscale>  0 0.97286761E+03</rscale>
<asrwt>0</asrwt>
<pdfrwt beam="1">  1        2 0.21670266E+00 0.10336381E+04</pdfrwt>
<pdfrwt beam="2">  1       -2 0.12337925E+00 0.10336381E+04</pdfrwt>
<totfact> 0.70168164E+00</totfact>
</mgrwt>
</event>
<event>
 4    2  0.3171963E-007  0.8841290E+03  0.7818608E-02  0.9552005E-01
          2   -1    0    0  501    0  0.00000000000E+00  0.00000000000E+00  0.21934800657E+04  0.21934800657E+04  0.25500000000E-02 0. -1.
         -2   -1    0    0    0  501 -0.00000000000E+00 -0.00000000000E+00 -0.61024538392E+03  0.61024538393E+03  0.25500000000E-02 0.  1.
    8880023    1    1    2    0    0  0.46490331589E+03 -0.36295847013E+03  0.19155045061E+04  0.21097017949E+04  0.65864270000E+03 0. -1.
    8880022    1    1    2    0    0 -0.46490331589E+03  0.36295847013E+03 -0.33226982433E+03  0.69402365474E+03  0.15294330000E+03 0.  0.
<mgrwt>
<rscale>  0 0.80555895E+03</rscale>
<asrwt>0</asrwt>
<pdfrwt beam="1">  1        2 0.33745848E+00 0.88412903E+03</pdfrwt>
<pdfrwt beam="2">  1       -2 0.93883902E-01 0.88412903E+03</pdfrwt>
<totfact> 0.50865091E+00</totfact>
</mgrwt>
</event>
<event>
 4    2  0.3171963E-007  0.8832721E+03  0.7818608E-02  0.9553437E-01
         -2   -1    0    0    0  501 -0.00000000000E+00  0.00000000000E+00  0.46614460672E+03  0.46614460673E+03  0.25500000000E-02 0.  1.
          2   -1    0    0  501    0  0.00000000000E+00 -0.00000000000E+00 -0.17270087373E+04  0.17270087373E+04  0.25500000000E-02 0. -1.
    8880023    1    1    2    0    0 -0.50628089675E+03 -0.30006494378E+03 -0.13134411066E+04  0.15828130223E+04  0.65864270000E+03 0. -1.
    8880022    1    1    2    0    0  0.50628089675E+03  0.30006494378E+03  0.52576975996E+02  0.61034032172E+03  0.15294330000E+03 0.  0.
<mgrwt>
<rscale>  0 0.80456203E+03</rscale>
<asrwt>0</asrwt>
<pdfrwt beam="1">  1        2 0.26569365E+00 0.88327206E+03</pdfrwt>
<pdfrwt beam="2">  1       -2 0.71714556E-01 0.88327206E+03</pdfrwt>
<totfact> 0.16900257E+01</totfact>
</mgrwt>
</event>
<event>
 4    2  0.3171963E-007  0.7494655E+03  0.7818608E-02  0.9833186E-01
         -2   -1    0    0    0  501 -0.00000000000E+00  0.00000000000E+00  0.35930416695E+03  0.35930416696E+03  0.25500000000E-02 0.  1.
          2   -1    0    0  501    0  0.00000000000E+00 -0.00000000000E+00 -0.11721259869E+04  0.11721259869E+04  0.25500000000E-02 0. -1.
    8880023    1    1    2    0    0 -0.33616469631E+03  0.12199052667E+03 -0.85872453245E+03  0.11397834972E+04  0.65864270000E+03 0. -1.
    8880022    1    1    2    0    0  0.33616469631E+03 -0.12199052667E+03  0.45902712493E+02  0.39164665666E+03  0.15294330000E+03 0.  1.
<mgrwt>
<rscale>  0 0.63611620E+03</rscale>
<asrwt>0</asrwt>
<pdfrwt beam="1">  1        2 0.18032707E+00 0.74946554E+03</pdfrwt>
<pdfrwt beam="2">  1       -2 0.55277565E-01 0.74946554E+03</pdfrwt>
<totfact> 0.61584205E+01</totfact>
</mgrwt>
</event>
<event>
 4    2  0.3171963E-007  0.7324227E+03  0.7818608E-02  0.9882596E-01
          2   -1    0    0  501    0  0.00000000000E+00  0.00000000000E+00  0.12370546420E+04  0.12370546420E+04  0.25500000000E-02 0. -1.
         -2   -1    0    0    0  501 -0.00000000000E+00 -0.00000000000E+00 -0.24525263370E+03  0.24525263371E+03  0.25500000000E-02 0.  1.
    8880023    1    1    2    0    0 -0.24247433262E+03  0.20937757024E+03  0.77503694928E+03  0.10663607494E+04  0.65864270000E+03 0.  0.
    8880022    1    1    2    0    0  0.24247433262E+03 -0.20937757024E+03  0.21676505901E+03  0.41594652627E+03  0.15294330000E+03 0.  0.
<mgrwt>
<rscale>  0 0.61112236E+03</rscale>
<asrwt>0</asrwt>
<pdfrwt beam="1">  1        2 0.19031610E+00 0.73242268E+03</pdfrwt>
<pdfrwt beam="2">  1       -2 0.37731174E-01 0.73242268E+03</pdfrwt>
<totfact> 0.12120366E+02</totfact>
</mgrwt>
</event>
<event>
 4    2  0.3171963E-007  0.7172865E+03  0.7818608E-02  0.9931877E-01
          2   -1    0    0  501    0  0.00000000000E+00  0.00000000000E+00  0.21360140896E+04  0.21360140896E+04  0.25500000000E-02 0. -1.
         -2   -1    0    0    0  501 -0.00000000000E+00 -0.00000000000E+00 -0.40177998341E+03  0.40177998342E+03  0.25500000000E-02 0.  1.
    8880023    1    1    2    0    0 -0.19109869917E+03  0.21016910731E+03  0.19968707273E+04  0.21217899694E+04  0.65864270000E+03 0.  0.
    8880022    1    1    2    0    0  0.19109869917E+03 -0.21016910731E+03 -0.26263662108E+03  0.41600410363E+03  0.15294330000E+03 0.  0.
<mgrwt>
<rscale>  0 0.58740976E+03</rscale>
<asrwt>0</asrwt>
<pdfrwt beam="1">  1        2 0.32861756E+00 0.71728653E+03</pdfrwt>
<pdfrwt beam="2">  1       -2 0.61812304E-01 0.71728653E+03</pdfrwt>
<totfact> 0.14228016E+01</totfact>
</mgrwt>
</event>
<event>
 4    2  0.3171963E-007  0.7990391E+03  0.7818608E-02  0.9712878E-01
          2   -1    0    0  501    0  0.00000000000E+00  0.00000000000E+00  0.17853799748E+04  0.17853799748E+04  0.25500000000E-02 0. -1.
         -2   -1    0    0    0  501 -0.00000000000E+00 -0.00000000000E+00 -0.95332813609E+03  0.95332813609E+03  0.25500000000E-02 0.  1.
    8880023    1    1    2    0    0 -0.32066290203E+02  0.45124829727E+03  0.16262777368E+04  0.18119720627E+04  0.65864270000E+03 0. -1.
    8880022    1    1    2    0    0  0.32066290203E+02 -0.45124829727E+03 -0.79422589807E+03  0.92673604815E+03  0.15294330000E+03 0.  0.
<mgrwt>
<rscale>  0 0.70255216E+03</rscale>
<asrwt>0</asrwt>
<pdfrwt beam="1">  1        2 0.27467384E+00 0.79903910E+03</pdfrwt>
<pdfrwt beam="2">  1       -2 0.14666587E+00 0.79903910E+03</pdfrwt>
<totfact> 0.28629944E+00</totfact>
</mgrwt>
</event>
<event>
 4    2  0.3171963E-007  0.7316062E+03  0.7818608E-02  0.9885109E-01
          2   -1    0    0  501    0  0.00000000000E+00  0.00000000000E+00  0.59985665132E+03  0.59985665133E+03  0.25500000000E-02 0. -1.
         -2   -1    0    0    0  501 -0.00000000000E+00 -0.00000000000E+00 -0.79830800605E+03  0.79830800606E+03  0.25500000000E-02 0.  1.
    8880023    1    1    2    0    0 -0.31809977072E+03 -0.15811642490E+02  0.29704046243E+03  0.78960795003E+03  0.65864270000E+03 0. -1.
    8880022    1    1    2    0    0  0.31809977072E+03  0.15811642490E+02 -0.49549181717E+03  0.60855670735E+03  0.15294330000E+03 0.  0.
<mgrwt>
<rscale>  0 0.60988442E+03</rscale>
<asrwt>0</asrwt>
<pdfrwt beam="1">  1        2 0.92285639E-01 0.73160623E+03</pdfrwt>
<pdfrwt beam="2">  1       -2 0.12281662E+00 0.73160623E+03</pdfrwt>
<totfact> 0.25225432E+01</totfact>
</mgrwt>
</event>
<event>
 4    2  0.3171963E-007  0.6950526E+03  0.7818608E-02  0.1001838E+00
         -2   -1    0    0    0  501 -0.00000000000E+00  0.00000000000E+00  0.54157037579E+03  0.54157037580E+03  0.25500000000E-02 0.  1.
          2   -1    0    0  501    0  0.00000000000E+00 -0.00000000000E+00 -0.84164029927E+03  0.84164029928E+03  0.25500000000E-02 0. -1.
    8880023    1    1    2    0    0  0.21587789483E+03  0.51814059821E+02 -0.64309364686E+03  0.94692534403E+03  0.65864270000E+03 0. -1.
    8880022    1    1    2    0    0 -0.21587789483E+03 -0.51814059821E+02  0.34302372338E+03  0.43628533105E+03  0.15294330000E+03 0.  0.
<mgrwt>
<rscale>  0 0.54851669E+03</rscale>
<asrwt>0</asrwt>
<pdfrwt beam="1">  1        2 0.12948312E+00 0.69505264E+03</pdfrwt>
<pdfrwt beam="2">  1       -2 0.83318520E-01 0.69505264E+03</pdfrwt>
<totfact> 0.41339428E+01</totfact>
</mgrwt>
</event>
<event>
 4    2  0.3171963E-007  0.7087033E+03  0.7818608E-02  0.9962848E-01
         -2   -1    0    0    0  501 -0.00000000000E+00  0.00000000000E+00  0.74587340407E+03  0.74587340407E+03  0.25500000000E-02 0.  1.
          2   -1    0    0  501    0  0.00000000000E+00 -0.00000000000E+00 -0.94295390491E+03  0.94295390492E+03  0.25500000000E-02 0. -1.
    8880023    1    1    2    0    0 -0.21947333339E+03 -0.14241361009E+03 -0.76641206886E+03  0.10438619861E+04  0.65864270000E+03 0.  0.
    8880022    1    1    2    0    0  0.21947333339E+03  0.14241361009E+03  0.56933156802E+03  0.64496532292E+03  0.15294330000E+03 0.  0.
<mgrwt>
<rscale>  0 0.57309737E+03</rscale>
<asrwt>0</asrwt>
<pdfrwt beam="1">  1        2 0.14506983E+00 0.70870331E+03</pdfrwt>
<pdfrwt beam="2">  1       -2 0.11474975E+00 0.70870331E+03</pdfrwt>
<totfact> 0.16604600E+01</totfact>
</mgrwt>
</event>
<event>
 4    2  0.3171963E-007  0.8513366E+03  0.7818608E-02  0.9609164E-01
          2   -1    0    0  501    0  0.00000000000E+00  0.00000000000E+00  0.92868100627E+03  0.92868100628E+03  0.25500000000E-02 0. -1.
         -2   -1    0    0    0  501 -0.00000000000E+00 -0.00000000000E+00 -0.10323262615E+04  0.10323262615E+04  0.25500000000E-02 0.  1.
    8880023    1    1    2    0    0 -0.53673859268E+03 -0.53623074435E+02  0.61447870330E+03  0.10499323950E+04  0.65864270000E+03 0. -1.
    8880022    1    1    2    0    0  0.53673859268E+03  0.53623074435E+02 -0.71812395852E+03  0.91107487277E+03  0.15294330000E+03 0.  0.
<mgrwt>
<rscale>  0 0.76692622E+03</rscale>
<asrwt>0</asrwt>
<pdfrwt beam="1">  1        2 0.14287400E+00 0.85133657E+03</pdfrwt>
<pdfrwt beam="2">  1       -2 0.15881943E+00 0.85133657E+03</pdfrwt>
<totfact> 0.72541805E+00</totfact>
</mgrwt>
</event>
<event>
 4    2  0.3171963E-007  0.7483953E+03  0.7818608E-02  0.9836134E-01
          2   -1    0    0  501    0  0.00000000000E+00  0.00000000000E+00  0.14574530634E+04  0.14574530634E+04  0.25500000000E-02 0. -1.
         -2   -1    0    0    0  501 -0.00000000000E+00 -0.00000000000E+00 -0.60774077414E+03  0.60774077415E+03  0.25500000000E-02 0.  1.
    8880023    1    1    2    0    0  0.40065290318E+02 -0.35310071026E+03  0.12823763284E+04  0.14847843590E+04  0.65864270000E+03 0. -1.
    8880022    1    1    2    0    0 -0.40065290318E+02  0.35310071026E+03 -0.43266403906E+03  0.58040947854E+03  0.15294330000E+03 0.  0.
<mgrwt>
<rscale>  0 0.63458920E+03</rscale>
<asrwt>0</asrwt>
<pdfrwt beam="1">  1        2 0.22422355E+00 0.74839531E+03</pdfrwt>
<pdfrwt beam="2">  1       -2 0.93498582E-01 0.74839531E+03</pdfrwt>
<totfact> 0.13289659E+01</totfact>
</mgrwt>
</event>
<event>
 4    2  0.3171963E-007  0.9112227E+03  0.7818608E-02  0.9508250E-01
         -2   -1    0    0    0  501 -0.00000000000E+00  0.00000000000E+00  0.13586946019E+04  0.13586946019E+04  0.25500000000E-02 0.  1.
          2   -1    0    0  501    0  0.00000000000E+00 -0.00000000000E+00 -0.57675604429E+03  0.57675604429E+03  0.25500000000E-02 0. -1.
    8880023    1    1    2    0    0 -0.17297598448E+03  0.60547164488E+03 -0.11153374246E+02  0.91129095682E+03  0.65864270000E+03 0.  0.
    8880022    1    1    2    0    0  0.17297598448E+03 -0.60547164488E+03  0.79309193189E+03  0.10241596894E+04  0.15294330000E+03 0.  0.
<mgrwt>
<rscale>  0 0.83678271E+03</rscale>
<asrwt>0</asrwt>
<pdfrwt beam="1">  1        2 0.88731700E-01 0.91122270E+03</pdfrwt>
<pdfrwt beam="2">  1       -2 0.20902994E+00 0.91122270E+03</pdfrwt>
<totfact> 0.60642698E+00</totfact>
</mgrwt>
</event>
<event>
 4    2  0.6125646E-007  0.1054574E+04  0.7818608E-02  0.9313403E-01
         -2   -1    0    0    0  501 -0.00000000000E+00  0.00000000000E+00  0.15732601714E+04  0.15732601714E+04  0.25500000000E-02 0.  1.
          2   -1    0    0  501    0  0.00000000000E+00 -0.00000000000E+00 -0.22099389305E+04  0.22099389305E+04  0.25500000000E-02 0. -1.
    8880023    1    1    2    0    0  0.81184230142E+03 -0.13866818995E+03 -0.19549748833E+04  0.22212730111E+04  0.65864270000E+03 0. -1.
    8880022    1    1    2    0    0 -0.81184230142E+03  0.13866818995E+03  0.13182961241E+04  0.15619260908E+04  0.15294330000E+03 0.  0.
<mgrwt>
<rscale>  0 0.99558302E+03</rscale>
<asrwt>0</asrwt>
<pdfrwt beam="1">  1        2 0.33999060E+00 0.10545743E+04</pdfrwt>
<pdfrwt beam="2">  1       -2 0.24204003E+00 0.10545743E+04</pdfrwt>
<totfact> 0.36533803E-01</totfact>
</mgrwt>
</event>
<event>
 4    2  0.3171963E-007  0.7184305E+03  0.7818608E-02  0.9927933E-01
          2   -1    0    0  501    0  0.00000000000E+00  0.00000000000E+00  0.20271245420E+04  0.20271245420E+04  0.25500000000E-02 0. -1.
         -2   -1    0    0    0  501 -0.00000000000E+00 -0.00000000000E+00 -0.13432240329E+03  0.13432240331E+03  0.25500000000E-02 0.  1.
    8880023    1    1    2    0    0 -0.14451623889E+03 -0.24788552230E+03  0.13120516189E+04  0.14958682537E+04  0.65864270000E+03 0.  1.
    8880022    1    1    2    0    0  0.14451623889E+03  0.24788552230E+03  0.58075051980E+03  0.66557869161E+03  0.15294330000E+03 0. -1.
<mgrwt>
<rscale>  0 0.58926437E+03</rscale>
<asrwt>0</asrwt>
<pdfrwt beam="1">  1        2 0.31186532E+00 0.71843050E+03</pdfrwt>
<pdfrwt beam="2">  1       -2 0.20664985E-01 0.71843050E+03</pdfrwt>
<totfact> 0.13376241E+02</totfact>
</mgrwt>
</event>
<event>
 4    2  0.3171963E-007  0.6922815E+03  0.7818608E-02  0.1003087E+00
          2   -1    0    0  501    0  0.00000000000E+00  0.00000000000E+00  0.17003076095E+04  0.17003076095E+04  0.25500000000E-02 0. -1.
         -2   -1    0    0    0  501 -0.00000000000E+00 -0.00000000000E+00 -0.13569699106E+03  0.13569699108E+03  0.25500000000E-02 0.  1.
    8880023    1    1    2    0    0 -0.81345022015E+01 -0.21301957064E+03  0.12220666680E+04  0.14045286238E+04  0.65864270000E+03 0. -1.
    8880022    1    1    2    0    0  0.81345022015E+01  0.21301957064E+03  0.34254395044E+03  0.43147597685E+03  0.15294330000E+03 0.  1.
<mgrwt>
<rscale>  0 0.54317322E+03</rscale>
<asrwt>0</asrwt>
<pdfrwt beam="1">  1        2 0.26158579E+00 0.69228153E+03</pdfrwt>
<pdfrwt beam="2">  1       -2 0.20876460E-01 0.69228153E+03</pdfrwt>
<totfact> 0.19842554E+02</totfact>
</mgrwt>
</event>
<event>
 4    2  0.3171963E-007  0.7182656E+03  0.7818608E-02  0.9928499E-01
          2   -1    0    0  501    0  0.00000000000E+00  0.00000000000E+00  0.70558195070E+03  0.70558195070E+03  0.25500000000E-02 0. -1.
         -2   -1    0    0    0  501 -0.00000000000E+00 -0.00000000000E+00 -0.66193351356E+03  0.66193351356E+03  0.25500000000E-02 0.  1.
    8880023    1    1    2    0    0 -0.16867157114E+03 -0.23161414638E+03  0.44979195231E+03  0.84747756215E+03  0.65864270000E+03 0. -1.
    8880022    1    1    2    0    0  0.16867157114E+03  0.23161414638E+03 -0.40614351517E+03  0.52003790212E+03  0.15294330000E+03 0.  0.
<mgrwt>
<rscale>  0 0.58899768E+03</rscale>
<asrwt>0</asrwt>
<pdfrwt beam="1">  1        2 0.10855107E+00 0.71826556E+03</pdfrwt>
<pdfrwt beam="2">  1       -2 0.10183593E+00 0.71826556E+03</pdfrwt>
<totfact> 0.32600583E+01</totfact>
</mgrwt>
</event>
<event>
 4    2  0.3171963E-007  0.8387493E+03  0.7818608E-02  0.9632543E-01
         -2   -1    0    0    0  501 -0.00000000000E+00  0.00000000000E+00  0.33787015965E+03  0.33787015966E+03  0.25500000000E-02 0.  1.
          2   -1    0    0  501    0  0.00000000000E+00 -0.00000000000E+00 -0.21070097633E+04  0.21070097633E+04  0.25500000000E-02 0. -1.
    8880023    1    1    2    0    0  0.14280861732E+02  0.51912068467E+03 -0.17044673727E+04  0.18996603536E+04  0.65864270000E+03 0.  0.
    8880022    1    1    2    0    0 -0.14280861732E+02 -0.51912068467E+03 -0.64672230888E+02  0.54521956929E+03  0.15294330000E+03 0.  0.
<mgrwt>
<rscale>  0 0.75179210E+03</rscale>
<asrwt>0</asrwt>
<pdfrwt beam="1">  1        2 0.32415534E+00 0.83874933E+03</pdfrwt>
<pdfrwt beam="2">  1       -2 0.51980026E-01 0.83874933E+03</pdfrwt>
<totfact> 0.20839363E+01</totfact>
</mgrwt>
</event>
<event>
 4    2  0.3171963E-007  0.7009293E+03  0.7818608E-02  0.9993368E-01
         -2   -1    0    0    0  501 -0.00000000000E+00  0.00000000000E+00  0.34311313037E+03  0.34311313038E+03  0.25500000000E-02 0.  1.
          2   -1    0    0  501    0  0.00000000000E+00 -0.00000000000E+00 -0.12225553245E+04  0.12225553245E+04  0.25500000000E-02 0. -1.
    8880023    1    1    2    0    0  0.15151573895E+03  0.18583510669E+03 -0.10284534647E+04  0.12445956939E+04  0.65864270000E+03 0. -1.
    8880022    1    1    2    0    0 -0.15151573895E+03 -0.18583510669E+03  0.14901127060E+03  0.32107276093E+03  0.15294330000E+03 0.  0.
<mgrwt>
<rscale>  0 0.55942010E+03</rscale>
<asrwt>0</asrwt>
<pdfrwt beam="1">  1        2 0.18808543E+00 0.70092932E+03</pdfrwt>
<pdfrwt beam="2">  1       -2 0.52786636E-01 0.70092932E+03</pdfrwt>
<totfact> 0.63528576E+01</totfact>
</mgrwt>
</event>
<event>
 4    2  0.3171963E-007  0.7577138E+03  0.7818608E-02  0.9811063E-01
          2   -1    0    0  501    0  0.00000000000E+00  0.00000000000E+00  0.95600153728E+03  0.95600153728E+03  0.25500000000E-02 0. -1.
         -2   -1    0    0    0  501 -0.00000000000E+00 -0.00000000000E+00 -0.89558937494E+03  0.89558937494E+03  0.25500000000E-02 0.  1.
    8880023    1    1    2    0    0  0.10218032126E+03 -0.36038756040E+03  0.74099801393E+03  0.10598152078E+04  0.65864270000E+03 0. -1.
    8880022    1    1    2    0    0 -0.10218032126E+03  0.36038756040E+03 -0.68058585159E+03  0.79177570444E+03  0.15294330000E+03 0.  0.
<mgrwt>
<rscale>  0 0.64772231E+03</rscale>
<asrwt>0</asrwt>
<pdfrwt beam="1">  1        2 0.14707716E+00 0.75771381E+03</pdfrwt>
<pdfrwt beam="2">  1       -2 0.13778298E+00 0.75771381E+03</pdfrwt>
<totfact> 0.10234782E+01</totfact>
</mgrwt>
</event>
<event>
 4    2  0.3171963E-007  0.7563323E+03  0.7818608E-02  0.9814697E-01
          2   -1    0    0  501    0  0.00000000000E+00  0.00000000000E+00  0.13806336858E+04  0.13806336858E+04  0.25500000000E-02 0. -1.
         -2   -1    0    0    0  501 -0.00000000000E+00 -0.00000000000E+00 -0.81571686761E+03  0.81571686762E+03  0.25500000000E-02 0.  1.
    8880023    1    1    2    0    0  0.24374731762E+03  0.28074110921E+03  0.12154864742E+04  0.14315885933E+04  0.65864270000E+03 0. -1.
    8880022    1    1    2    0    0 -0.24374731762E+03 -0.28074110921E+03 -0.65056965604E+03  0.76476196010E+03  0.15294330000E+03 0.  0.
<mgrwt>
<rscale>  0 0.64579750E+03</rscale>
<asrwt>0</asrwt>
<pdfrwt beam="1">  1        2 0.21240518E+00 0.75633229E+03</pdfrwt>
<pdfrwt beam="2">  1       -2 0.12549490E+00 0.75633229E+03</pdfrwt>
<totfact> 0.72040155E+00</totfact>
</mgrwt>
</event>
<event>
 4    2  0.3171963E-007  0.8785608E+03  0.7818608E-02  0.9561364E-01
          2   -1    0    0  501    0  0.00000000000E+00  0.00000000000E+00  0.99068533515E+03  0.99068533515E+03  0.25500000000E-02 0. -1.
         -2   -1    0    0    0  501 -0.00000000000E+00 -0.00000000000E+00 -0.82463146615E+03  0.82463146615E+03  0.25500000000E-02 0.  1.
    8880023    1    1    2    0    0 -0.54533339970E+03 -0.20166897592E+03  0.60862239966E+03  0.10687798297E+04  0.65864270000E+03 0.  0.
    8880022    1    1    2    0    0  0.54533339970E+03  0.20166897592E+03 -0.44256853066E+03  0.74653697163E+03  0.15294330000E+03 0.  0.
<mgrwt>
<rscale>  0 0.79907029E+03</rscale>
<asrwt>0</asrwt>
<pdfrwt beam="1">  1        2 0.15241313E+00 0.87856081E+03</pdfrwt>
<pdfrwt beam="2">  1       -2 0.12686638E+00 0.87856081E+03</pdfrwt>
<totfact> 0.11836213E+01</totfact>
</mgrwt>
</event>
<event>
 4    2  0.3171963E-007  0.1288383E+04  0.7818608E-02  0.9075657E-01
          2   -1    0    0  501    0  0.00000000000E+00  0.00000000000E+00  0.19480807753E+04  0.19480807753E+04  0.25500000000E-02 0. -1.
         -2   -1    0    0    0  501 -0.00000000000E+00 -0.00000000000E+00 -0.10092672602E+04  0.10092672602E+04  0.25500000000E-02 0.  1.
    8880023    1    1    2    0    0  0.57868131148E+03 -0.94406013523E+03  0.12519794659E+04  0.17964922456E+04  0.65864270000E+03 0.  0.
    8880022    1    1    2    0    0 -0.57868131148E+03  0.94406013523E+03 -0.31316595089E+03  0.11608557899E+04  0.15294330000E+03 0.  0.
<mgrwt>
<rscale>  0 0.12434446E+04</rscale>
<asrwt>0</asrwt>
<pdfrwt beam="1">  1        2 0.29970473E+00 0.12883834E+04</pdfrwt>
<pdfrwt beam="2">  1       -2 0.15527189E+00 0.12883834E+04</pdfrwt>
<totfact> 0.18796026E+00</totfact>
</mgrwt>
</event>
<event>
 4    2  0.3171963E-007  0.7372075E+03  0.7818608E-02  0.9868157E-01
          2   -1    0    0  501    0  0.00000000000E+00  0.00000000000E+00  0.89833112421E+03  0.89833112422E+03  0.25500000000E-02 0. -1.
         -2   -1    0    0    0  501 -0.00000000000E+00 -0.00000000000E+00 -0.33795158185E+03  0.33795158186E+03  0.25500000000E-02 0.  1.
    8880023    1    1    2    0    0  0.21413537152E+03 -0.25260798504E+03  0.37709095714E+03  0.82805346909E+03  0.65864270000E+03 0.  1.
    8880022    1    1    2    0    0 -0.21413537152E+03  0.25260798504E+03  0.18328858522E+03  0.40822923699E+03  0.15294330000E+03 0. -1.
<mgrwt>
<rscale>  0 0.61829652E+03</rscale>
<asrwt>0</asrwt>
<pdfrwt beam="1">  1        2 0.13820479E+00 0.73720754E+03</pdfrwt>
<pdfrwt beam="2">  1       -2 0.51992552E-01 0.73720754E+03</pdfrwt>
<totfact> 0.10408174E+02</totfact>
</mgrwt>
</event>
<event>
 4    2  0.3171963E-007  0.1100920E+04  0.7818608E-02  0.9260032E-01
          2   -1    0    0  501    0  0.00000000000E+00  0.00000000000E+00  0.13483112260E+04  0.13483112260E+04  0.25500000000E-02 0. -1.
         -2   -1    0    0    0  501 -0.00000000000E+00 -0.00000000000E+00 -0.98344778226E+03  0.98344778226E+03  0.25500000000E-02 0.  1.
    8880023    1    1    2    0    0  0.78225408677E+03 -0.40779091581E+03  0.77562307556E+03  0.13467057024E+04  0.65864270000E+03 0.  0.
    8880022    1    1    2    0    0 -0.78225408677E+03  0.40779091581E+03 -0.41075963180E+03  0.98505330588E+03  0.15294330000E+03 0.  0.
<mgrwt>
<rscale>  0 0.10454710E+04</rscale>
<asrwt>0</asrwt>
<pdfrwt beam="1">  1        2 0.20743250E+00 0.11009201E+04</pdfrwt>
<pdfrwt beam="2">  1       -2 0.15129966E+00 0.11009201E+04</pdfrwt>
<totfact> 0.44536741E+00</totfact>
</mgrwt>
</event>
<event>
 4    2  0.3171963E-007  0.7464684E+03  0.7818608E-02  0.9841491E-01
          2   -1    0    0  501    0  0.00000000000E+00  0.00000000000E+00  0.82068627041E+03  0.82068627042E+03  0.25500000000E-02 0. -1.
         -2   -1    0    0    0  501 -0.00000000000E+00 -0.00000000000E+00 -0.16744765198E+04  0.16744765198E+04  0.25500000000E-02 0.  1.
    8880023    1    1    2    0    0  0.14782119728E+03  0.31867489721E+03  0.62125429850E+03  0.97117037957E+03  0.65864270000E+03 0. -1.
    8880022    1    1    2    0    0 -0.14782119728E+03 -0.31867489721E+03 -0.14750445479E+04  0.15239924107E+04  0.15294330000E+03 0.  0.
<mgrwt>
<rscale>  0 0.63182673E+03</rscale>
<asrwt>0</asrwt>
<pdfrwt beam="1">  1        2 0.12625943E+00 0.74646835E+03</pdfrwt>
<pdfrwt beam="2">  1       -2 0.25761177E+00 0.74646835E+03</pdfrwt>
<totfact> 0.19867029E+00</totfact>
</mgrwt>
</event>
<event>
 4    2  0.3171963E-007  0.1317541E+04  0.7818608E-02  0.9050558E-01
         -2   -1    0    0    0  501 -0.00000000000E+00  0.00000000000E+00  0.64545245790E+03  0.64545245790E+03  0.25500000000E-02 0.  1.
          2   -1    0    0  501    0  0.00000000000E+00 -0.00000000000E+00 -0.27972686394E+04  0.27972686394E+04  0.25500000000E-02 0. -1.
    8880023    1    1    2    0    0  0.29152831399E+03 -0.11032292339E+04 -0.18156914824E+04  0.22433566961E+04  0.65864270000E+03 0.  0.
    8880022    1    1    2    0    0 -0.29152831399E+03  0.11032292339E+04 -0.33612469910E+03  0.11993644012E+04  0.15294330000E+03 0.  0.
<mgrwt>
<rscale>  0 0.12738559E+04</rscale>
<asrwt>0</asrwt>
<pdfrwt beam="1">  1        2 0.43034902E+00 0.13175408E+04</pdfrwt>
<pdfrwt beam="2">  1       -2 0.99300379E-01 0.13175408E+04</pdfrwt>
<totfact> 0.18983537E+00</totfact>
</mgrwt>
</event>
<event>
 4    2  0.3171963E-007  0.1102640E+04  0.7818608E-02  0.9258123E-01
         -2   -1    0    0    0  501 -0.00000000000E+00  0.00000000000E+00  0.11525306397E+04  0.11525306397E+04  0.25500000000E-02 0.  1.
          2   -1    0    0  501    0  0.00000000000E+00 -0.00000000000E+00 -0.11110408605E+04  0.11110408605E+04  0.25500000000E-02 0. -1.
    8880023    1    1    2    0    0 -0.84570276238E+03 -0.25844059820E+03 -0.50505658543E+03  0.12128054526E+04  0.65864270000E+03 0.  0.
    8880022    1    1    2    0    0  0.84570276238E+03  0.25844059820E+03  0.54654636466E+03  0.10507660476E+04  0.15294330000E+03 0.  0.
<mgrwt>
<rscale>  0 0.10473130E+04</rscale>
<asrwt>0</asrwt>
<pdfrwt beam="1">  1        2 0.17092936E+00 0.11026400E+04</pdfrwt>
<pdfrwt beam="2">  1       -2 0.17731241E+00 0.11026400E+04</pdfrwt>
<totfact> 0.39822782E+00</totfact>
</mgrwt>
</event>
<event>
 4    2  0.3171963E-007  0.7806094E+03  0.7818608E-02  0.9754407E-01
          2   -1    0    0  501    0  0.00000000000E+00  0.00000000000E+00  0.14560792563E+04  0.14560792563E+04  0.25500000000E-02 0. -1.
         -2   -1    0    0    0  501 -0.00000000000E+00 -0.00000000000E+00 -0.46566042543E+03  0.46566042543E+03  0.25500000000E-02 0.  1.
    8880023    1    1    2    0    0  0.16126004393E+03  0.38669896900E+03  0.11979225763E+04  0.14298145332E+04  0.65864270000E+03 0.  0.
    8880022    1    1    2    0    0 -0.16126004393E+03 -0.38669896900E+03 -0.20750374539E+03  0.49192514853E+03  0.15294330000E+03 0.  0.
<mgrwt>
<rscale>  0 0.67867770E+03</rscale>
<asrwt>0</asrwt>
<pdfrwt beam="1">  1        2 0.22401219E+00 0.78060944E+03</pdfrwt>
<pdfrwt beam="2">  1       -2 0.71640066E-01 0.78060944E+03</pdfrwt>
<totfact> 0.24211531E+01</totfact>
</mgrwt>
</event>
<event>
 4    2  0.3171963E-007  0.6776936E+03  0.7818608E-02  0.1010660E+00
          2   -1    0    0  501    0  0.00000000000E+00  0.00000000000E+00  0.11006634598E+04  0.11006634598E+04  0.25500000000E-02 0. -1.
         -2   -1    0    0    0  501 -0.00000000000E+00 -0.00000000000E+00 -0.20515864896E+03  0.20515864898E+03  0.25500000000E-02 0.  1.
    8880023    1    1    2    0    0 -0.54650394007E+02  0.14990583396E+03  0.83744395716E+03  0.10773026558E+04  0.65864270000E+03 0.  0.
    8880022    1    1    2    0    0  0.54650394007E+02 -0.14990583396E+03  0.58060853650E+02  0.22851945292E+03  0.15294330000E+03 0.  0.
<mgrwt>
<rscale>  0 0.51213352E+03</rscale>
<asrwt>0</asrwt>
<pdfrwt beam="1">  1        2 0.16933284E+00 0.67769361E+03</pdfrwt>
<pdfrwt beam="2">  1       -2 0.31562869E-01 0.67769361E+03</pdfrwt>
<totfact> 0.20597584E+02</totfact>
</mgrwt>
</event>
<event>
 4    2  0.3171963E-007  0.7369624E+03  0.7818608E-02  0.9868885E-01
         -2   -1    0    0    0  501 -0.00000000000E+00  0.00000000000E+00  0.73389559887E+03  0.73389559887E+03  0.25500000000E-02 0.  1.
          2   -1    0    0  501    0  0.00000000000E+00 -0.00000000000E+00 -0.74601327108E+03  0.74601327109E+03  0.25500000000E-02 0. -1.
    8880023    1    1    2    0    0 -0.31794086941E+03 -0.90647426309E+02 -0.48556211321E+03  0.88254412036E+03  0.65864270000E+03 0. -1.
    8880022    1    1    2    0    0  0.31794086941E+03  0.90647426309E+02  0.47344444099E+03  0.59736474960E+03  0.15294330000E+03 0.  0.
<mgrwt>
<rscale>  0 0.61793218E+03</rscale>
<asrwt>0</asrwt>
<pdfrwt beam="1">  1        2 0.11477127E+00 0.73696239E+03</pdfrwt>
<pdfrwt beam="2">  1       -2 0.11290702E+00 0.73696239E+03</pdfrwt>
<totfact> 0.23639962E+01</totfact>
</mgrwt>
</event>
<event>
 4    2  0.3171963E-007  0.9823998E+03  0.7818608E-02  0.9404955E-01
         -2   -1    0    0    0  501 -0.00000000000E+00  0.00000000000E+00  0.44211469717E+03  0.44211469717E+03  0.25500000000E-02 0.  1.
          2   -1    0    0  501    0  0.00000000000E+00 -0.00000000000E+00 -0.34852483151E+04  0.34852483151E+04  0.25500000000E-02 0. -1.
    8880023    1    1    2    0    0 -0.29669485638E+03  0.66578618787E+03 -0.30269851295E+04  0.31824123344E+04  0.65864270000E+03 0.  0.
    8880022    1    1    2    0    0  0.29669485638E+03 -0.66578618787E+03 -0.16148488447E+02  0.74495067787E+03  0.15294330000E+03 0.  0.
<mgrwt>
<rscale>  0 0.91669012E+03</rscale>
<asrwt>0</asrwt>
<pdfrwt beam="1">  1        2 0.53619203E+00 0.98239976E+03</pdfrwt>
<pdfrwt beam="2">  1       -2 0.68017648E-01 0.98239976E+03</pdfrwt>
<totfact> 0.17115822E+00</totfact>
</mgrwt>
</event>
<event>
 4    2  0.3171963E-007  0.1043463E+04  0.7818608E-02  0.9326782E-01
         -2   -1    0    0    0  501 -0.00000000000E+00  0.00000000000E+00  0.66500182698E+03  0.66500182698E+03  0.25500000000E-02 0.  1.
          2   -1    0    0  501    0  0.00000000000E+00 -0.00000000000E+00 -0.13873790269E+04  0.13873790269E+04  0.25500000000E-02 0. -1.
    8880023    1    1    2    0    0 -0.10633797003E+02 -0.80925350965E+03 -0.64123985064E+03  0.12247461259E+04  0.65864270000E+03 0.  0.
    8880022    1    1    2    0    0  0.10633797003E+02  0.80925350965E+03 -0.81137349253E+02  0.82763472799E+03  0.15294330000E+03 0. -1.
<mgrwt>
<rscale>  0 0.98354248E+03</rscale>
<asrwt>0</asrwt>
<pdfrwt beam="1">  1        2 0.21344293E+00 0.10434628E+04</pdfrwt>
<pdfrwt beam="2">  1       -2 0.10230797E+00 0.10434628E+04</pdfrwt>
<totfact> 0.11402084E+01</totfact>
</mgrwt>
</event>
<event>
 4    2  0.3171963E-007  0.8730776E+03  0.7818608E-02  0.9570711E-01
         -2   -1    0    0    0  501 -0.00000000000E+00  0.00000000000E+00  0.54505920041E+03  0.54505920041E+03  0.25500000000E-02 0.  1.
          2   -1    0    0  501    0  0.00000000000E+00 -0.00000000000E+00 -0.15753260706E+04  0.15753260706E+04  0.25500000000E-02 0. -1.
    8880023    1    1    2    0    0  0.40873702113E+03  0.40173168084E+03 -0.12176629457E+04  0.14983215781E+04  0.65864270000E+03 0.  0.
    8880022    1    1    2    0    0 -0.40873702113E+03 -0.40173168084E+03  0.18739607555E+03  0.62206369287E+03  0.15294330000E+03 0.  0.
<mgrwt>
<rscale>  0 0.79265409E+03</rscale>
<asrwt>0</asrwt>
<pdfrwt beam="1">  1        2 0.24235786E+00 0.87307760E+03</pdfrwt>
<pdfrwt beam="2">  1       -2 0.83855262E-01 0.87307760E+03</pdfrwt>
<totfact> 0.14457832E+01</totfact>
</mgrwt>
</event>
<event>
 4    2  0.3171963E-007  0.6692202E+03  0.7818608E-02  0.1016228E+00
          2   -1    0    0  501    0  0.00000000000E+00  0.00000000000E+00  0.39591447726E+04  0.39591447726E+04  0.25500000000E-02 0. -1.
         -2   -1    0    0    0  501 -0.00000000000E+00 -0.00000000000E+00 -0.49450493391E+02  0.49450493457E+02  0.25500000000E-02 0.  1.
    8880023    1    1    2    0    0 -0.83079551354E+02 -0.84517810219E+02  0.33558257305E+04  0.34219032733E+04  0.65864270000E+03 0. -1.
    8880022    1    1    2    0    0  0.83079551354E+02  0.84517810219E+02  0.55386854867E+03  0.58669199272E+03  0.15294330000E+03 0.  0.
<mgrwt>
<rscale>  0 0.49072659E+03</rscale>
<asrwt>0</asrwt>
<pdfrwt beam="1">  1        2 0.60909925E+00 0.66922020E+03</pdfrwt>
<pdfrwt beam="2">  1       -2 0.76077675E-02 0.66922020E+03</pdfrwt>
<totfact> 0.43867725E+01</totfact>
</mgrwt>
</event>
<event>
 4    2  0.3171963E-007  0.6663491E+03  0.7818608E-02  0.1018427E+00
         -2   -1    0    0    0  501 -0.00000000000E+00  0.00000000000E+00  0.14537650315E+03  0.14537650317E+03  0.25500000000E-02 0.  1.
          2   -1    0    0  501    0  0.00000000000E+00 -0.00000000000E+00 -0.19804105231E+04  0.19804105231E+04  0.25500000000E-02 0. -1.
    8880023    1    1    2    0    0  0.48652897570E+01  0.10093176325E+03 -0.18242724457E+04  0.19421614388E+04  0.65864270000E+03 0. -1.
    8880022    1    1    2    0    0 -0.48652897570E+01 -0.10093176325E+03 -0.10761574227E+02  0.18362558747E+03  0.15294330000E+03 0.  0.
<mgrwt>
<rscale>  0 0.48258395E+03</rscale>
<asrwt>0</asrwt>
<pdfrwt beam="1">  1        2 0.30467852E+00 0.66634908E+03</pdfrwt>
<pdfrwt beam="2">  1       -2 0.22365617E-01 0.66634908E+03</pdfrwt>
<totfact> 0.12405629E+02</totfact>
</mgrwt>
</event>
<event>
 4    2  0.3171963E-007  0.8149722E+03  0.7818608E-02  0.9679312E-01
         -2   -1    0    0    0  501 -0.00000000000E+00  0.00000000000E+00  0.85099567455E+03  0.85099567455E+03  0.25500000000E-02 0.  1.
          2   -1    0    0  501    0  0.00000000000E+00 -0.00000000000E+00 -0.15890042785E+04  0.15890042785E+04  0.25500000000E-02 0. -1.
    8880023    1    1    2    0    0 -0.62130699389E+02 -0.47592981130E+03 -0.13928863932E+04  0.16137881273E+04  0.65864270000E+03 0.  0.
    8880022    1    1    2    0    0  0.62130699389E+02  0.47592981130E+03  0.65487778929E+03  0.82621182575E+03  0.15294330000E+03 0.  0.
<mgrwt>
<rscale>  0 0.72262037E+03</rscale>
<asrwt>0</asrwt>
<pdfrwt beam="1">  1        2 0.24446220E+00 0.81497216E+03</pdfrwt>
<pdfrwt beam="2">  1       -2 0.13092241E+00 0.81497216E+03</pdfrwt>
<totfact> 0.49098477E+00</totfact>
</mgrwt>
</event>
<event>
 4    2  0.3171963E-007  0.9044556E+03  0.7818608E-02  0.9518917E-01
         -2   -1    0    0    0  501 -0.00000000000E+00  0.00000000000E+00  0.81251034228E+03  0.81251034229E+03  0.25500000000E-02 0.  1.
          2   -1    0    0  501    0  0.00000000000E+00 -0.00000000000E+00 -0.13183757567E+04  0.13183757567E+04  0.25500000000E-02 0. -1.
    8880023    1    1    2    0    0 -0.29294813493E+03  0.54627010778E+03 -0.98154137093E+03  0.13347146922E+04  0.65864270000E+03 0. -1.
    8880022    1    1    2    0    0  0.29294813493E+03 -0.54627010778E+03  0.47567595650E+03  0.79617140682E+03  0.15294330000E+03 0.  0.
<mgrwt>
<rscale>  0 0.82903436E+03</rscale>
<asrwt>0</asrwt>
<pdfrwt beam="1">  1        2 0.20282704E+00 0.90445555E+03</pdfrwt>
<pdfrwt beam="2">  1       -2 0.12500159E+00 0.90445555E+03</pdfrwt>
<totfact> 0.77548517E+00</totfact>
</mgrwt>
</event>
<event>
 4    2  0.3171963E-007  0.7599869E+03  0.7818608E-02  0.9805141E-01
         -2   -1    0    0    0  501 -0.00000000000E+00  0.00000000000E+00  0.21787029340E+03  0.21787029342E+03  0.25500000000E-02 0.  1.
          2   -1    0    0  501    0  0.00000000000E+00 -0.00000000000E+00 -0.17440474233E+04  0.17440474233E+04  0.25500000000E-02 0. -1.
    8880023    1    1    2    0    0  0.21488687284E+03 -0.31239954690E+03 -0.12681861304E+04  0.14784708697E+04  0.65864270000E+03 0. -1.
    8880022    1    1    2    0    0 -0.21488687284E+03  0.31239954690E+03 -0.25799099946E+03  0.48344684696E+03  0.15294330000E+03 0.  1.
<mgrwt>
<rscale>  0 0.65087352E+03</rscale>
<asrwt>0</asrwt>
<pdfrwt beam="1">  1        2 0.26831498E+00 0.75998688E+03</pdfrwt>
<pdfrwt beam="2">  1       -2 0.33518508E-01 0.75998688E+03</pdfrwt>
<totfact> 0.78803582E+01</totfact>
</mgrwt>
</event>
<event>
 4    2  0.3171963E-007  0.6951780E+03  0.7818608E-02  0.1001782E+00
         -2   -1    0    0    0  501 -0.00000000000E+00  0.00000000000E+00  0.76549728379E+03  0.76549728380E+03  0.25500000000E-02 0.  1.
          2   -1    0    0  501    0  0.00000000000E+00 -0.00000000000E+00 -0.77356980739E+03  0.77356980740E+03  0.25500000000E-02 0. -1.
    8880023    1    1    2    0    0  0.18522550953E+03 -0.12310065708E+03 -0.58083444561E+03  0.90589244429E+03  0.65864270000E+03 0. -1.
    8880022    1    1    2    0    0 -0.18522550953E+03  0.12310065708E+03  0.57276192202E+03  0.63317464690E+03  0.15294330000E+03 0.  0.
<mgrwt>
<rscale>  0 0.54875518E+03</rscale>
<asrwt>0</asrwt>
<pdfrwt beam="1">  1        2 0.11901074E+00 0.69517801E+03</pdfrwt>
<pdfrwt beam="2">  1       -2 0.11776881E+00 0.69517801E+03</pdfrwt>
<totfact> 0.20431697E+01</totfact>
</mgrwt>
</event>
<event>
 4    2  0.3171963E-007  0.7262973E+03  0.7818608E-02  0.9901827E-01
         -2   -1    0    0    0  501 -0.00000000000E+00  0.00000000000E+00  0.11858878003E+04  0.11858878003E+04  0.25500000000E-02 0.  1.
          2   -1    0    0  501    0  0.00000000000E+00 -0.00000000000E+00 -0.77198668298E+03  0.77198668299E+03  0.25500000000E-02 0. -1.
    8880023    1    1    2    0    0 -0.19084108549E+03 -0.23932658095E+03 -0.56545520873E+03  0.92046039111E+03  0.65864270000E+03 0. -1.
    8880022    1    1    2    0    0  0.19084108549E+03  0.23932658095E+03  0.97935632609E+03  0.10374140922E+04  0.15294330000E+03 0.  0.
<mgrwt>
<rscale>  0 0.60172826E+03</rscale>
<asrwt>0</asrwt>
<pdfrwt beam="1">  1        2 0.11876718E+00 0.72629728E+03</pdfrwt>
<pdfrwt beam="2">  1       -2 0.18244428E+00 0.72629728E+03</pdfrwt>
<totfact> 0.64384263E+00</totfact>
</mgrwt>
</event>
<event>
 4    2  0.3171963E-007  0.9212563E+03  0.7818608E-02  0.9492735E-01
         -2   -1    0    0    0  501 -0.00000000000E+00  0.00000000000E+00  0.73927857913E+03  0.73927857914E+03  0.25500000000E-02 0.  1.
          2   -1    0    0  501    0  0.00000000000E+00 -0.00000000000E+00 -0.95697278362E+03  0.95697278362E+03  0.25500000000E-02 0. -1.
    8880023    1    1    2    0    0 -0.59097199512E+03  0.25623257440E+03  0.15850403986E+03  0.93479236632E+03  0.65864270000E+03 0.  1.
    8880022    1    1    2    0    0  0.59097199512E+03 -0.25623257440E+03 -0.37619824434E+03  0.76145899644E+03  0.15294330000E+03 0. -1.
<mgrwt>
<rscale>  0 0.84821538E+03</rscale>
<asrwt>0</asrwt>
<pdfrwt beam="1">  1        2 0.14722658E+00 0.92125634E+03</pdfrwt>
<pdfrwt beam="2">  1       -2 0.11373517E+00 0.92125634E+03</pdfrwt>
<totfact> 0.16268337E+01</totfact>
</mgrwt>
</event>
<event>
 4    2  0.3171963E-007  0.8379705E+03  0.7818608E-02  0.9634019E-01
          2   -1    0    0  501    0  0.00000000000E+00  0.00000000000E+00  0.57447514669E+03  0.57447514670E+03  0.25500000000E-02 0. -1.
         -2   -1    0    0    0  501 -0.00000000000E+00 -0.00000000000E+00 -0.15437371181E+04  0.15437371181E+04  0.25500000000E-02 0.  1.
    8880023    1    1    2    0    0 -0.34155564427E+03  0.38951770107E+03  0.17212098102E+03  0.85546486541E+03  0.65864270000E+03 0. -1.
    8880022    1    1    2    0    0  0.34155564427E+03 -0.38951770107E+03 -0.11413829524E+04  0.12627473994E+04  0.15294330000E+03 0.  0.
<mgrwt>
<rscale>  0 0.75084920E+03</rscale>
<asrwt>0</asrwt>
<pdfrwt beam="1">  1        2 0.88380792E-01 0.83797047E+03</pdfrwt>
<pdfrwt beam="2">  1       -2 0.23749802E+00 0.83797047E+03</pdfrwt>
<totfact> 0.40749720E+00</totfact>
</mgrwt>
</event>
<event>
 4    2  0.3171963E-007  0.8204591E+03  0.7818608E-02  0.9668189E-01
         -2   -1    0    0    0  501 -0.00000000000E+00  0.00000000000E+00  0.24439689048E+03  0.24439689049E+03  0.25500000000E-02 0.  1.
          2   -1    0    0  501    0  0.00000000000E+00 -0.00000000000E+00 -0.21462129324E+04  0.21462129324E+04  0.25500000000E-02 0. -1.
    8880023    1    1    2    0    0  0.46845466994E+03 -0.14104321912E+03 -0.15938632794E+04  0.17926386493E+04  0.65864270000E+03 0. -1.
    8880022    1    1    2    0    0 -0.46845466994E+03  0.14104321912E+03 -0.30795276255E+03  0.59797117358E+03  0.15294330000E+03 0.  0.
<mgrwt>
<rscale>  0 0.72942791E+03</rscale>
<asrwt>0</asrwt>
<pdfrwt beam="1">  1        2 0.33018659E+00 0.82045912E+03</pdfrwt>
<pdfrwt beam="2">  1       -2 0.37599523E-01 0.82045912E+03</pdfrwt>
<totfact> 0.37873788E+01</totfact>
</mgrwt>
</event>
<event>
 4    2  0.3171963E-007  0.7759993E+03  0.7818608E-02  0.9765320E-01
         -2   -1    0    0    0  501 -0.00000000000E+00  0.00000000000E+00  0.73956236356E+03  0.73956236357E+03  0.25500000000E-02 0.  1.
          2   -1    0    0  501    0  0.00000000000E+00 -0.00000000000E+00 -0.10539543956E+04  0.10539543956E+04  0.25500000000E-02 0. -1.
    8880023    1    1    2    0    0  0.37953058754E+03  0.15595269054E+03 -0.81707534172E+03  0.11268482723E+04  0.65864270000E+03 0. -1.
    8880022    1    1    2    0    0 -0.37953058754E+03 -0.15595269054E+03  0.50268330965E+03  0.66666848686E+03  0.15294330000E+03 0.  0.
<mgrwt>
<rscale>  0 0.67257345E+03</rscale>
<asrwt>0</asrwt>
<pdfrwt beam="1">  1        2 0.16214683E+00 0.77599930E+03</pdfrwt>
<pdfrwt beam="2">  1       -2 0.11377882E+00 0.77599930E+03</pdfrwt>
<totfact> 0.14291380E+01</totfact>
</mgrwt>
</event>
<event>
 4    2  0.3171963E-007  0.6613090E+03  0.7818608E-02  0.1022854E+00
         -2   -1    0    0    0  501 -0.00000000000E+00  0.00000000000E+00  0.19572952134E+03  0.19572952136E+03  0.25500000000E-02 0.  1.
          2   -1    0    0  501    0  0.00000000000E+00 -0.00000000000E+00 -0.87019996983E+03  0.87019996984E+03  0.25500000000E-02 0. -1.
    8880023    1    1    2    0    0  0.17204882489E+02 -0.56774579096E+02 -0.53564194890E+03  0.85102400935E+03  0.65864270000E+03 0.  1.
    8880022    1    1    2    0    0 -0.17204882489E+02  0.56774579096E+02 -0.13882849959E+03  0.21490548184E+03  0.15294330000E+03 0. -1.
<mgrwt>
<rscale>  0 0.46670728E+03</rscale>
<asrwt>0</asrwt>
<pdfrwt beam="1">  1        2 0.13387692E+00 0.66130898E+03</pdfrwt>
<pdfrwt beam="2">  1       -2 0.30112235E-01 0.66130898E+03</pdfrwt>
<totfact> 0.31640663E+02</totfact>
</mgrwt>
</event>
<event>
 4    2  0.3171963E-007  0.6751045E+03  0.7818608E-02  0.1012241E+00
         -2   -1    0    0    0  501 -0.00000000000E+00  0.00000000000E+00  0.10108606617E+03  0.10108606620E+03  0.25500000000E-02 0.  1.
          2   -1    0    0  501    0  0.00000000000E+00 -0.00000000000E+00 -0.36323674464E+04  0.36323674464E+04  0.25500000000E-02 0. -1.
    8880023    1    1    2    0    0 -0.13194233596E+03 -0.67431717120E+02 -0.34332984751E+04  0.34990433609E+04  0.65864270000E+03 0.  0.
    8880022    1    1    2    0    0  0.13194233596E+03  0.67431717120E+02 -0.97982905190E+02  0.23441015169E+03  0.15294330000E+03 0.  0.
<mgrwt>
<rscale>  0 0.50593807E+03</rscale>
<asrwt>0</asrwt>
<pdfrwt beam="1">  1        2 0.55882566E+00 0.67510445E+03</pdfrwt>
<pdfrwt beam="2">  1       -2 0.15551705E-01 0.67510445E+03</pdfrwt>
<totfact> 0.23655655E+01</totfact>
</mgrwt>
</event>
<event>
 4    2  0.3171963E-007  0.6933855E+03  0.7818608E-02  0.1002583E+00
         -2   -1    0    0    0  501 -0.00000000000E+00  0.00000000000E+00  0.42243867750E+03  0.42243867751E+03  0.25500000000E-02 0.  1.
          2   -1    0    0  501    0  0.00000000000E+00 -0.00000000000E+00 -0.85713221711E+03  0.85713221711E+03  0.25500000000E-02 0. -1.
    8880023    1    1    2    0    0 -0.20453299586E+03  0.71690061011E+02 -0.64041534108E+03  0.94388305769E+03  0.65864270000E+03 0. -1.
    8880022    1    1    2    0    0  0.20453299586E+03 -0.71690061011E+02  0.20572180148E+03  0.33568783693E+03  0.15294330000E+03 0.  0.
<mgrwt>
<rscale>  0 0.54531888E+03</rscale>
<asrwt>0</asrwt>
<pdfrwt beam="1">  1        2 0.13186649E+00 0.69338548E+03</pdfrwt>
<pdfrwt beam="2">  1       -2 0.64990566E-01 0.69338548E+03</pdfrwt>
<totfact> 0.69761002E+01</totfact>
</mgrwt>
</event>
<event>
 4    2  0.3171963E-007  0.8760728E+03  0.7818608E-02  0.9565589E-01
         -2   -1    0    0    0  501 -0.00000000000E+00  0.00000000000E+00  0.65001607433E+03  0.65001607433E+03  0.25500000000E-02 0.  1.
          2   -1    0    0  501    0  0.00000000000E+00 -0.00000000000E+00 -0.11789717295E+04  0.11789717296E+04  0.25500000000E-02 0. -1.
    8880023    1    1    2    0    0  0.67486404054E+02 -0.57370627845E+03 -0.78740512798E+03  0.11779262925E+04  0.65864270000E+03 0. -1.
    8880022    1    1    2    0    0 -0.67486404054E+02  0.57370627845E+03  0.25844947276E+03  0.65106151141E+03  0.15294330000E+03 0.  0.
<mgrwt>
<rscale>  0 0.79616226E+03</rscale>
<asrwt>0</asrwt>
<pdfrwt beam="1">  1        2 0.18138027E+00 0.87607278E+03</pdfrwt>
<pdfrwt beam="2">  1       -2 0.10000247E+00 0.87607278E+03</pdfrwt>
<totfact> 0.16193477E+01</totfact>
</mgrwt>
</event>
<event>
 4    2  0.3171963E-007  0.6669925E+03  0.7818608E-02  0.1017917E+00
          2   -1    0    0  501    0  0.00000000000E+00  0.00000000000E+00  0.10522968686E+04  0.10522968686E+04  0.25500000000E-02 0. -1.
         -2   -1    0    0    0  501 -0.00000000000E+00 -0.00000000000E+00 -0.30359507614E+03  0.30359507615E+03  0.25500000000E-02 0.  1.
    8880023    1    1    2    0    0  0.53433781989E+02  0.90628948581E+02  0.89734265549E+03  0.11180799716E+04  0.65864270000E+03 0. -1.
    8880022    1    1    2    0    0 -0.53433781989E+02 -0.90628948581E+02 -0.14864086302E+03  0.23781197311E+03  0.15294330000E+03 0.  0.
<mgrwt>
<rscale>  0 0.48445762E+03</rscale>
<asrwt>0</asrwt>
<pdfrwt beam="1">  1        2 0.16189182E+00 0.66699249E+03</pdfrwt>
<pdfrwt beam="2">  1       -2 0.46706935E-01 0.66699249E+03</pdfrwt>
<totfact> 0.10345971E+02</totfact>
</mgrwt>
</event>
<event>
 4    2  0.3171963E-007  0.7216188E+03  0.7818608E-02  0.9917146E-01
          2   -1    0    0  501    0  0.00000000000E+00  0.00000000000E+00  0.13896228640E+04  0.13896228640E+04  0.25500000000E-02 0. -1.
         -2   -1    0    0    0  501 -0.00000000000E+00 -0.00000000000E+00 -0.21496976672E+03  0.21496976673E+03  0.25500000000E-02 0.  1.
    8880023    1    1    2    0    0 -0.28051696966E+03  0.90739812083E+02  0.98841374464E+03  0.12238036691E+04  0.65864270000E+03 0. -1.
    8880022    1    1    2    0    0  0.28051696966E+03 -0.90739812083E+02  0.18623935261E+03  0.38078896155E+03  0.15294330000E+03 0.  0.
<mgrwt>
<rscale>  0 0.59437463E+03</rscale>
<asrwt>0</asrwt>
<pdfrwt beam="1">  1        2 0.21378812E+00 0.72161880E+03</pdfrwt>
<pdfrwt beam="2">  1       -2 0.33072273E-01 0.72161880E+03</pdfrwt>
<totfact> 0.12745108E+02</totfact>
</mgrwt>
</event>
<event>
 4    2  0.3171963E-007  0.6715982E+03  0.7818608E-02  0.1014542E+00
          2   -1    0    0  501    0  0.00000000000E+00  0.00000000000E+00  0.10149032082E+04  0.10149032082E+04  0.25500000000E-02 0. -1.
         -2   -1    0    0    0  501 -0.00000000000E+00 -0.00000000000E+00 -0.39525472124E+03  0.39525472125E+03  0.25500000000E-02 0.  1.
    8880023    1    1    2    0    0  0.44643678087E+02 -0.12345418903E+03  0.86341158516E+03  0.10938572880E+04  0.65864270000E+03 0. -1.
    8880022    1    1    2    0    0 -0.44643678087E+02  0.12345418903E+03 -0.24376309816E+03  0.31630064152E+03  0.15294330000E+03 0.  0.
<mgrwt>
<rscale>  0 0.49708677E+03</rscale>
<asrwt>0</asrwt>
<pdfrwt beam="1">  1        2 0.15613896E+00 0.67159824E+03</pdfrwt>
<pdfrwt beam="2">  1       -2 0.60808418E-01 0.67159824E+03</pdfrwt>
<totfact> 0.63403806E+01</totfact>
</mgrwt>
</event>
<event>
 4    2  0.3171963E-007  0.8621465E+03  0.7818608E-02  0.9589757E-01
         -2   -1    0    0    0  501 -0.00000000000E+00  0.00000000000E+00  0.66759078996E+03  0.66759078996E+03  0.25500000000E-02 0.  1.
          2   -1    0    0  501    0  0.00000000000E+00 -0.00000000000E+00 -0.80560661918E+03  0.80560661918E+03  0.25500000000E-02 0. -1.
    8880023    1    1    2    0    0  0.33187560820E+03  0.44648060738E+03 -0.22172306782E+03  0.89020091954E+03  0.65864270000E+03 0.  0.
    8880022    1    1    2    0    0 -0.33187560820E+03 -0.44648060738E+03  0.83707238602E+02  0.58299648961E+03  0.15294330000E+03 0.  0.
<mgrwt>
<rscale>  0 0.77977882E+03</rscale>
<asrwt>0</asrwt>
<pdfrwt beam="1">  1        2 0.12393948E+00 0.86214648E+03</pdfrwt>
<pdfrwt beam="2">  1       -2 0.10270628E+00 0.86214648E+03</pdfrwt>
<totfact> 0.26573101E+01</totfact>
</mgrwt>
</event>
<event>
 4    2  0.3171963E-007  0.7312838E+03  0.7818608E-02  0.9886105E-01
          2   -1    0    0  501    0  0.00000000000E+00  0.00000000000E+00  0.10074918516E+04  0.10074918516E+04  0.25500000000E-02 0. -1.
         -2   -1    0    0    0  501 -0.00000000000E+00 -0.00000000000E+00 -0.30224543400E+03  0.30224543401E+03  0.25500000000E-02 0.  1.
    8880023    1    1    2    0    0  0.31745777206E+03 -0.13652846674E+02  0.35567557665E+03  0.81319195726E+03  0.65864270000E+03 0.  1.
    8880022    1    1    2    0    0 -0.31745777206E+03  0.13652846674E+02  0.34957084099E+03  0.49654532839E+03  0.15294330000E+03 0. -1.
<mgrwt>
<rscale>  0 0.60939442E+03</rscale>
<asrwt>0</asrwt>
<pdfrwt beam="1">  1        2 0.15499874E+00 0.73128383E+03</pdfrwt>
<pdfrwt beam="2">  1       -2 0.46499299E-01 0.73128383E+03</pdfrwt>
<totfact> 0.11081577E+02</totfact>
</mgrwt>
</event>
<event>
 4    2  0.3171963E-007  0.7082886E+03  0.7818608E-02  0.9964412E-01
         -2   -1    0    0    0  501 -0.00000000000E+00  0.00000000000E+00  0.11257652896E+04  0.11257652897E+04  0.25500000000E-02 0.  1.
          2   -1    0    0  501    0  0.00000000000E+00 -0.00000000000E+00 -0.11252474967E+04  0.11252474967E+04  0.25500000000E-02 0. -1.
    8880023    1    1    2    0    0 -0.23430953729E+03  0.11384909447E+03 -0.98896824691E+03  0.12164419325E+04  0.65864270000E+03 0. -1.
    8880022    1    1    2    0    0  0.23430953729E+03 -0.11384909447E+03  0.98948603983E+03  0.10345708538E+04  0.15294330000E+03 0.  0.
<mgrwt>
<rscale>  0 0.57238643E+03</rscale>
<asrwt>0</asrwt>
<pdfrwt beam="1">  1        2 0.17311500E+00 0.70828863E+03</pdfrwt>
<pdfrwt beam="2">  1       -2 0.17319466E+00 0.70828863E+03</pdfrwt>
<totfact> 0.43745557E+00</totfact>
</mgrwt>
</event>
<event>
 4    2  0.3171963E-007  0.9945268E+03  0.7818608E-02  0.9388754E-01
         -2   -1    0    0    0  501 -0.00000000000E+00  0.00000000000E+00  0.10699696597E+04  0.10699696597E+04  0.25500000000E-02 0.  1.
          2   -1    0    0  501    0  0.00000000000E+00 -0.00000000000E+00 -0.72297819773E+03  0.72297819773E+03  0.25500000000E-02 0. -1.
    8880023    1    1    2    0    0  0.52357901769E+03 -0.53022486293E+03  0.13795748182E+03  0.10040497329E+04  0.65864270000E+03 0.  0.
    8880022    1    1    2    0    0 -0.52357901769E+03  0.53022486293E+03  0.20903398012E+03  0.78889812453E+03  0.15294330000E+03 0.  0.
<mgrwt>
<rscale>  0 0.93007031E+03</rscale>
<asrwt>0</asrwt>
<pdfrwt beam="1">  1        2 0.11122742E+00 0.99452682E+03</pdfrwt>
<pdfrwt beam="2">  1       -2 0.16461072E+00 0.99452682E+03</pdfrwt>
<totfact> 0.90961838E+00</totfact>
</mgrwt>
</event>
<event>
 4    2  0.3171963E-007  0.8038326E+03  0.7818608E-02  0.9702570E-01
         -2   -1    0    0    0  501 -0.00000000000E+00  0.00000000000E+00  0.15544714788E+03  0.15544714790E+03  0.25500000000E-02 0.  1.
          2   -1    0    0  501    0  0.00000000000E+00 -0.00000000000E+00 -0.30474993198E+04  0.30474993198E+04  0.25500000000E-02 0. -1.
    8880023    1    1    2    0    0  0.10457916478E+03 -0.44877586547E+03 -0.23049559059E+04  0.24410998573E+04  0.65864270000E+03 0.  0.
    8880022    1    1    2    0    0 -0.10457916478E+03  0.44877586547E+03 -0.58709626606E+03  0.76184661039E+03  0.15294330000E+03 0.  0.
<mgrwt>
<rscale>  0 0.70863997E+03</rscale>
<asrwt>0</asrwt>
<pdfrwt beam="1">  1        2 0.46884600E+00 0.80383256E+03</pdfrwt>
<pdfrwt beam="2">  1       -2 0.23914948E-01 0.80383256E+03</pdfrwt>
<totfact> 0.26516717E+01</totfact>
</mgrwt>
</event>
<event>
 4    2  0.3171963E-007  0.8988462E+03  0.7818608E-02  0.9527886E-01
         -2   -1    0    0    0  501 -0.00000000000E+00  0.00000000000E+00  0.12379204752E+04  0.12379204752E+04  0.25500000000E-02 0.  1.
          2   -1    0    0  501    0  0.00000000000E+00 -0.00000000000E+00 -0.62402208440E+03  0.62402208441E+03  0.25500000000E-02 0. -1.
    8880023    1    1    2    0    0  0.35271904485E+03 -0.49970348988E+03 -0.10590150993E+03  0.90506333395E+03  0.65864270000E+03 0.  0.
    8880022    1    1    2    0    0 -0.35271904485E+03  0.49970348988E+03  0.71979990075E+03  0.95687922568E+03  0.15294330000E+03 0.  0.
<mgrwt>
<rscale>  0 0.82258730E+03</rscale>
<asrwt>0</asrwt>
<pdfrwt beam="1">  1        2 0.96003398E-01 0.89884621E+03</pdfrwt>
<pdfrwt beam="2">  1       -2 0.19044930E+00 0.89884621E+03</pdfrwt>
<totfact> 0.72988817E+00</totfact>
</mgrwt>
</event>
<event>
 4    2  0.3171963E-007  0.1123576E+04  0.7818608E-02  0.9235250E-01
         -2   -1    0    0    0  501 -0.00000000000E+00  0.00000000000E+00  0.10423193727E+04  0.10423193727E+04  0.25500000000E-02 0.  1.
          2   -1    0    0  501    0  0.00000000000E+00 -0.00000000000E+00 -0.25017748093E+04  0.25017748093E+04  0.25500000000E-02 0. -1.
    8880023    1    1    2    0    0 -0.62727826701E+03 -0.65964792924E+03 -0.21266171291E+04  0.24051869023E+04  0.65864270000E+03 0. -1.
    8880022    1    1    2    0    0  0.62727826701E+03  0.65964792924E+03  0.66716169256E+03  0.11389072797E+04  0.15294330000E+03 0.  0.
<mgrwt>
<rscale>  0 0.10696882E+04</rscale>
<asrwt>0</asrwt>
<pdfrwt beam="1">  1        2 0.38488843E+00 0.11235763E+04</pdfrwt>
<pdfrwt beam="2">  1       -2 0.16035683E+00 0.11235763E+04</pdfrwt>
<totfact> 0.85843081E-01</totfact>
</mgrwt>
</event>
<event>
 4    2  0.3171963E-007  0.7949770E+03  0.7818608E-02  0.9721764E-01
          2   -1    0    0  501    0  0.00000000000E+00  0.00000000000E+00  0.12296188135E+04  0.12296188135E+04  0.25500000000E-02 0. -1.
         -2   -1    0    0    0  501 -0.00000000000E+00 -0.00000000000E+00 -0.55143364392E+03  0.55143364393E+03  0.25500000000E-02 0.  1.
    8880023    1    1    2    0    0  0.43612840200E+03 -0.89276467709E+02  0.94901403875E+03  0.12379887410E+04  0.65864270000E+03 0. -1.
    8880022    1    1    2    0    0 -0.43612840200E+03  0.89276467709E+02 -0.27082886919E+03  0.54306371645E+03  0.15294330000E+03 0.  0.
<mgrwt>
<rscale>  0 0.69735639E+03</rscale>
<asrwt>0</asrwt>
<pdfrwt beam="1">  1        2 0.18917212E+00 0.79497703E+03</pdfrwt>
<pdfrwt beam="2">  1       -2 0.84835945E-01 0.79497703E+03</pdfrwt>
<totfact> 0.22328982E+01</totfact>
</mgrwt>
</event>
<event>
 4    2  0.3171963E-007  0.8159789E+03  0.7818608E-02  0.9677255E-01
         -2   -1    0    0    0  501 -0.00000000000E+00  0.00000000000E+00  0.15708128047E+04  0.15708128047E+04  0.25500000000E-02 0.  1.
          2   -1    0    0  501    0  0.00000000000E+00 -0.00000000000E+00 -0.72682926498E+03  0.72682926499E+03  0.25500000000E-02 0. -1.
    8880023    1    1    2    0    0 -0.17556875316E+03 -0.44853871116E+03 -0.43338895275E+03  0.92393049150E+03  0.65864270000E+03 0.  0.
    8880022    1    1    2    0    0  0.17556875316E+03  0.44853871116E+03  0.12773724924E+04  0.13737115781E+04  0.15294330000E+03 0.  0.
<mgrwt>
<rscale>  0 0.72387312E+03</rscale>
<asrwt>0</asrwt>
<pdfrwt beam="1">  1        2 0.11181989E+00 0.81597890E+03</pdfrwt>
<pdfrwt beam="2">  1       -2 0.24166351E+00 0.81597890E+03</pdfrwt>
<totfact> 0.28803428E+00</totfact>
</mgrwt>
</event>
<event>
 4    2  0.3171963E-007  0.7800086E+03  0.7818608E-02  0.9755817E-01
          2   -1    0    0  501    0  0.00000000000E+00  0.00000000000E+00  0.79126337601E+03  0.79126337601E+03  0.25500000000E-02 0. -1.
         -2   -1    0    0    0  501 -0.00000000000E+00 -0.00000000000E+00 -0.53947217512E+03  0.53947217513E+03  0.25500000000E-02 0.  1.
    8880023    1    1    2    0    0 -0.53394957997E+02  0.41442988141E+03  0.38002661484E+03  0.86765983104E+03  0.65864270000E+03 0. -1.
    8880022    1    1    2    0    0  0.53394957997E+02 -0.41442988141E+03 -0.12823541395E+03  0.46307572011E+03  0.15294330000E+03 0.  0.
<mgrwt>
<rscale>  0 0.67788535E+03</rscale>
<asrwt>0</asrwt>
<pdfrwt beam="1">  1        2 0.12173283E+00 0.78000856E+03</pdfrwt>
<pdfrwt beam="2">  1       -2 0.82995719E-01 0.78000856E+03</pdfrwt>
<totfact> 0.44965260E+01</totfact>
</mgrwt>
</event>
<event>
 4    2  0.3171963E-007  0.1311621E+04  0.7818608E-02  0.9055589E-01
         -2   -1    0    0    0  501 -0.00000000000E+00  0.00000000000E+00  0.14447131294E+04  0.14447131294E+04  0.25500000000E-02 0.  1.
          2   -1    0    0  501    0  0.00000000000E+00 -0.00000000000E+00 -0.13025443691E+04  0.13025443691E+04  0.25500000000E-02 0. -1.
    8880023    1    1    2    0    0 -0.15162122508E+03 -0.11240773501E+04 -0.53598755674E+03  0.14169092251E+04  0.65864270000E+03 0.  0.
    8880022    1    1    2    0    0  0.15162122508E+03  0.11240773501E+04  0.67815631706E+03  0.13303482733E+04  0.15294330000E+03 0.  0.
<mgrwt>
<rscale>  0 0.12676876E+04</rscale>
<asrwt>0</asrwt>
<pdfrwt beam="1">  1        2 0.20039144E+00 0.13116208E+04</pdfrwt>
<pdfrwt beam="2">  1       -2 0.22226356E+00 0.13116208E+04</pdfrwt>
<totfact> 0.15121068E+00</totfact>
</mgrwt>
</event>
<event>
 4    2  0.3509168E-007  0.7518512E+03  0.7818608E-02  0.9826680E-01
         -2   -1    0    0    0  501 -0.00000000000E+00  0.00000000000E+00  0.68391262985E+03  0.68391262985E+03  0.25500000000E-02 0.  1.
          2   -1    0    0  501    0  0.00000000000E+00 -0.00000000000E+00 -0.17370600399E+04  0.17370600400E+04  0.25500000000E-02 0. -1.
    8880023    1    1    2    0    0 -0.35555904865E+03  0.71047253468E+02 -0.15879736555E+04  0.17569691193E+04  0.65864270000E+03 0.  0.
    8880022    1    1    2    0    0  0.35555904865E+03 -0.71047253468E+02  0.53482624541E+03  0.66400355051E+03  0.15294330000E+03 0.  0.
<mgrwt>
<rscale>  0 0.63950195E+03</rscale>
<asrwt>0</asrwt>
<pdfrwt beam="1">  1        2 0.26724000E+00 0.75185115E+03</pdfrwt>
<pdfrwt beam="2">  1       -2 0.10521733E+00 0.75185115E+03</pdfrwt>
<totfact> 0.70420535E+00</totfact>
</mgrwt>
</event>
<event>
 4    2  0.3171963E-007  0.8047361E+03  0.7818608E-02  0.9700648E-01
          2   -1    0    0  501    0  0.00000000000E+00  0.00000000000E+00  0.17496631191E+04  0.17496631191E+04  0.25500000000E-02 0. -1.
         -2   -1    0    0    0  501 -0.00000000000E+00 -0.00000000000E+00 -0.13738355942E+04  0.13738355942E+04  0.25500000000E-02 0.  1.
    8880023    1    1    2    0    0  0.40492548001E+03  0.22321602509E+03  0.16082434124E+04  0.17983456614E+04  0.65864270000E+03 0. -1.
    8880022    1    1    2    0    0 -0.40492548001E+03 -0.22321602509E+03 -0.12324158874E+04  0.13251530518E+04  0.15294330000E+03 0.  0.
<mgrwt>
<rscale>  0 0.70978247E+03</rscale>
<asrwt>0</asrwt>
<pdfrwt beam="1">  1        2 0.26917894E+00 0.80473613E+03</pdfrwt>
<pdfrwt beam="2">  1       -2 0.21135932E+00 0.80473613E+03</pdfrwt>
<totfact> 0.10625582E+00</totfact>
</mgrwt>
</event>
<event>
 4    2  0.3171963E-007  0.8903993E+03  0.7818608E-02  0.9541623E-01
          2   -1    0    0  501    0  0.00000000000E+00  0.00000000000E+00  0.10033303361E+04  0.10033303361E+04  0.25500000000E-02 0. -1.
         -2   -1    0    0    0  501 -0.00000000000E+00 -0.00000000000E+00 -0.56808541003E+03  0.56808541003E+03  0.25500000000E-02 0.  1.
    8880023    1    1    2    0    0 -0.48449077699E+03  0.35251860449E+03  0.28707035114E+03  0.93553207976E+03  0.65864270000E+03 0.  1.
    8880022    1    1    2    0    0  0.48449077699E+03 -0.35251860449E+03  0.14817457495E+03  0.63588366639E+03  0.15294330000E+03 0. -1.
<mgrwt>
<rscale>  0 0.81283472E+03</rscale>
<asrwt>0</asrwt>
<pdfrwt beam="1">  1        2 0.15435851E+00 0.89039928E+03</pdfrwt>
<pdfrwt beam="2">  1       -2 0.87397755E-01 0.89039928E+03</pdfrwt>
<totfact> 0.28439541E+01</totfact>
</mgrwt>
</event>
<event>
 4    2  0.3171963E-007  0.1327013E+04  0.7818608E-02  0.9042576E-01
          2   -1    0    0  501    0  0.00000000000E+00  0.00000000000E+00  0.38060456843E+04  0.38060456843E+04  0.25500000000E-02 0. -1.
         -2   -1    0    0    0  501 -0.00000000000E+00 -0.00000000000E+00 -0.54466126829E+03  0.54466126830E+03  0.25500000000E-02 0.  1.
    8880023    1    1    2    0    0 -0.54572593550E+03 -0.10145626485E+04  0.28033515900E+04  0.31015712966E+04  0.65864270000E+03 0.  0.
    8880022    1    1    2    0    0  0.54572593550E+03  0.10145626485E+04  0.45803282607E+03  0.12491356561E+04  0.15294330000E+03 0.  0.
<mgrwt>
<rscale>  0 0.12837195E+04</rscale>
<asrwt>0</asrwt>
<pdfrwt beam="1">  1        2 0.58554547E+00 0.13270133E+04</pdfrwt>
<pdfrwt beam="2">  1       -2 0.83794044E-01 0.13270133E+04</pdfrwt>
<totfact> 0.60005801E-01</totfact>
</mgrwt>
</event>
<event>
 4    2  0.3171963E-007  0.1258527E+04  0.7818608E-02  0.9102228E-01
         -2   -1    0    0    0  501 -0.00000000000E+00  0.00000000000E+00  0.15362592381E+04  0.15362592381E+04  0.25500000000E-02 0.  1.
          2   -1    0    0  501    0  0.00000000000E+00 -0.00000000000E+00 -0.97746489761E+03  0.97746489762E+03  0.25500000000E-02 0. -1.
    8880023    1    1    2    0    0  0.45238147195E+03  0.97233245313E+03 -0.71277475441E+02  0.12605435654E+04  0.65864270000E+03 0.  0.
    8880022    1    1    2    0    0 -0.45238147195E+03 -0.97233245313E+03  0.63007181597E+03  0.12531805703E+04  0.15294330000E+03 0.  0.
<mgrwt>
<rscale>  0 0.12122184E+04</rscale>
<asrwt>0</asrwt>
<pdfrwt beam="1">  1        2 0.15037922E+00 0.12585268E+04</pdfrwt>
<pdfrwt beam="2">  1       -2 0.23634757E+00 0.12585268E+04</pdfrwt>
<totfact> 0.19682178E+00</totfact>
</mgrwt>
</event>
<event>
 4    2  0.3171963E-007  0.9221265E+03  0.7818608E-02  0.9491406E-01
         -2   -1    0    0    0  501 -0.00000000000E+00  0.00000000000E+00  0.12376672983E+04  0.12376672983E+04  0.25500000000E-02 0.  1.
          2   -1    0    0  501    0  0.00000000000E+00 -0.00000000000E+00 -0.81456316542E+03  0.81456316543E+03  0.25500000000E-02 0. -1.
    8880023    1    1    2    0    0 -0.60029432899E+03 -0.23696773357E+03 -0.39147554879E+03  0.10017835593E+04  0.65864270000E+03 0. -1.
    8880022    1    1    2    0    0  0.60029432899E+03  0.23696773357E+03  0.81457968165E+03  0.10504469044E+04  0.15294330000E+03 0.  0.
<mgrwt>
<rscale>  0 0.84920382E+03</rscale>
<asrwt>0</asrwt>
<pdfrwt beam="1">  1        2 0.12531741E+00 0.92212645E+03</pdfrwt>
<pdfrwt beam="2">  1       -2 0.19041035E+00 0.92212645E+03</pdfrwt>
<totfact> 0.51798078E+00</totfact>
</mgrwt>
</event>
<event>
 4    2  0.3171963E-007  0.9491242E+03  0.7818608E-02  0.9451375E-01
          2   -1    0    0  501    0  0.00000000000E+00  0.00000000000E+00  0.32174461476E+04  0.32174461476E+04  0.25500000000E-02 0. -1.
         -2   -1    0    0    0  501 -0.00000000000E+00 -0.00000000000E+00 -0.26427926205E+03  0.26427926207E+03  0.25500000000E-02 0.  1.
    8880023    1    1    2    0    0  0.35926840347E+03  0.58133710407E+03  0.24263930225E+04  0.26054212558E+04  0.65864270000E+03 0. -1.
    8880022    1    1    2    0    0 -0.35926840347E+03 -0.58133710407E+03  0.52677386309E+03  0.87630415391E+03  0.15294330000E+03 0.  0.
<mgrwt>
<rscale>  0 0.87965652E+03</rscale>
<asrwt>0</asrwt>
<pdfrwt beam="1">  1        2 0.49499169E+00 0.94912424E+03</pdfrwt>
<pdfrwt beam="2">  1       -2 0.40658350E-01 0.94912424E+03</pdfrwt>
<totfact> 0.74978963E+00</totfact>
</mgrwt>
</event>
<event>
 4    2  0.3171963E-007  0.7145943E+03  0.7818608E-02  0.9941320E-01
         -2   -1    0    0    0  501 -0.00000000000E+00  0.00000000000E+00  0.12984855533E+03  0.12984855536E+03  0.25500000000E-02 0.  1.
          2   -1    0    0  501    0  0.00000000000E+00 -0.00000000000E+00 -0.25379722633E+04  0.25379722633E+04  0.25500000000E-02 0. -1.
    8880023    1    1    2    0    0  0.10987912781E+03 -0.25448247862E+03 -0.21291134081E+04  0.22458336683E+04  0.65864270000E+03 0.  0.
    8880022    1    1    2    0    0 -0.10987912781E+03  0.25448247862E+03 -0.27901029984E+03  0.42198715037E+03  0.15294330000E+03 0.  0.
<mgrwt>
<rscale>  0 0.58299847E+03</rscale>
<asrwt>0</asrwt>
<pdfrwt beam="1">  1        2 0.39045724E+00 0.71459426E+03</pdfrwt>
<pdfrwt beam="2">  1       -2 0.19976703E-01 0.71459426E+03</pdfrwt>
<totfact> 0.73927128E+01</totfact>
</mgrwt>
</event>
<event>
 4    2  0.3171963E-007  0.1561618E+04  0.7818608E-02  0.8867308E-01
          2   -1    0    0  501    0  0.00000000000E+00  0.00000000000E+00  0.16840085147E+04  0.16840085147E+04  0.25500000000E-02 0. -1.
         -2   -1    0    0    0  501 -0.00000000000E+00 -0.00000000000E+00 -0.14907998859E+04  0.14907998859E+04  0.25500000000E-02 0.  1.
    8880023    1    1    2    0    0  0.31298579305E+02  0.14155776167E+04 -0.43078371928E+03  0.16199458043E+04  0.65864270000E+03 0.  0.
    8880022    1    1    2    0    0 -0.31298579305E+02 -0.14155776167E+04  0.62399234806E+03  0.15548625963E+04  0.15294330000E+03 0.  0.
<mgrwt>
<rscale>  0 0.15260569E+04</rscale>
<asrwt>0</asrwt>
<pdfrwt beam="1">  1        2 0.25907823E+00 0.15616177E+04</pdfrwt>
<pdfrwt beam="2">  1       -2 0.22935383E+00 0.15616177E+04</pdfrwt>
<totfact> 0.80676267E-01</totfact>
</mgrwt>
</event>
<event>
 4    2  0.3171963E-007  0.1039512E+04  0.7818608E-02  0.9331596E-01
         -2   -1    0    0    0  501 -0.00000000000E+00  0.00000000000E+00  0.63404247599E+03  0.63404247600E+03  0.25500000000E-02 0.  1.
          2   -1    0    0  501    0  0.00000000000E+00 -0.00000000000E+00 -0.27813182099E+04  0.27813182099E+04  0.25500000000E-02 0. -1.
    8880023    1    1    2    0    0 -0.65134213848E+03 -0.47173026816E+03 -0.23520313302E+04  0.25715049313E+04  0.65864270000E+03 0.  0.
    8880022    1    1    2    0    0  0.65134213848E+03  0.47173026816E+03  0.20475559632E+03  0.84385575456E+03  0.15294330000E+03 0.  0.
<mgrwt>
<rscale>  0 0.97925370E+03</rscale>
<asrwt>0</asrwt>
<pdfrwt beam="1">  1        2 0.42789510E+00 0.10395125E+04</pdfrwt>
<pdfrwt beam="2">  1       -2 0.97544998E-01 0.10395125E+04</pdfrwt>
<totfact> 0.20969919E+00</totfact>
</mgrwt>
</event>
<event>
 4    2  0.3171963E-007  0.1042912E+04  0.7818608E-02  0.9327451E-01
          2   -1    0    0  501    0  0.00000000000E+00  0.00000000000E+00  0.27023877986E+04  0.27023877986E+04  0.25500000000E-02 0. -1.
         -2   -1    0    0    0  501 -0.00000000000E+00 -0.00000000000E+00 -0.40189900681E+03  0.40189900682E+03  0.25500000000E-02 0.  1.
    8880023    1    1    2    0    0  0.61439248123E+03 -0.52571594206E+03  0.19468006144E+04  0.22085511566E+04  0.65864270000E+03 0.  0.
    8880022    1    1    2    0    0 -0.61439248123E+03  0.52571594206E+03  0.35368817735E+03  0.89573564881E+03  0.15294330000E+03 0.  0.
<mgrwt>
<rscale>  0 0.98294486E+03</rscale>
<asrwt>0</asrwt>
<pdfrwt beam="1">  1        2 0.41575195E+00 0.10429121E+04</pdfrwt>
<pdfrwt beam="2">  1       -2 0.61830619E-01 0.10429121E+04</pdfrwt>
<totfact> 0.64959916E+00</totfact>
</mgrwt>
</event>
<event>
 4    2  0.3171963E-007  0.1009513E+04  0.7818608E-02  0.9369216E-01
         -2   -1    0    0    0  501 -0.00000000000E+00  0.00000000000E+00  0.77877617140E+03  0.77877617141E+03  0.25500000000E-02 0.  1.
          2   -1    0    0  501    0  0.00000000000E+00 -0.00000000000E+00 -0.18267973107E+04  0.18267973107E+04  0.25500000000E-02 0. -1.
    8880023    1    1    2    0    0 -0.61303209623E+03  0.45771012076E+03 -0.14191723638E+04  0.17415990670E+04  0.65864270000E+03 0.  0.
    8880022    1    1    2    0    0  0.61303209623E+03 -0.45771012076E+03  0.37115122445E+03  0.86397441518E+03  0.15294330000E+03 0.  0.
<mgrwt>
<rscale>  0 0.94652986E+03</rscale>
<asrwt>0</asrwt>
<pdfrwt beam="1">  1        2 0.28104574E+00 0.10095133E+04</pdfrwt>
<pdfrwt beam="2">  1       -2 0.11981172E+00 0.10095133E+04</pdfrwt>
<totfact> 0.44263083E+00</totfact>
</mgrwt>
</event>
<event>
 4    2  0.3171963E-007  0.6720599E+03  0.7818608E-02  0.1014227E+00
         -2   -1    0    0    0  501 -0.00000000000E+00  0.00000000000E+00  0.30081863675E+03  0.30081863676E+03  0.25500000000E-02 0.  1.
          2   -1    0    0  501    0  0.00000000000E+00 -0.00000000000E+00 -0.98093953646E+03  0.98093953646E+03  0.25500000000E-02 0. -1.
    8880023    1    1    2    0    0 -0.78601173927E+02  0.10805649016E+03 -0.80086088610E+03  0.10454868315E+04  0.65864270000E+03 0. -1.
    8880022    1    1    2    0    0  0.78601173927E+02 -0.10805649016E+03  0.12073998640E+03  0.23627134176E+03  0.15294330000E+03 0.  0.
<mgrwt>
<rscale>  0 0.49828606E+03</rscale>
<asrwt>0</asrwt>
<pdfrwt beam="1">  1        2 0.15091377E+00 0.67205993E+03</pdfrwt>
<pdfrwt beam="2">  1       -2 0.46279791E-01 0.67205993E+03</pdfrwt>
<totfact> 0.11684547E+02</totfact>
</mgrwt>
</event>
<event>
 4    2  0.3171963E-007  0.9118524E+03  0.7818608E-02  0.9507266E-01
          2   -1    0    0  501    0  0.00000000000E+00  0.00000000000E+00  0.69946637490E+03  0.69946637491E+03  0.25500000000E-02 0. -1.
         -2   -1    0    0    0  501 -0.00000000000E+00 -0.00000000000E+00 -0.14799035162E+04  0.14799035162E+04  0.25500000000E-02 0.  1.
    8880023    1    1    2    0    0  0.57720712263E+03 -0.25396183423E+03  0.26442039959E+03  0.94941720526E+03  0.65864270000E+03 0.  0.
    8880022    1    1    2    0    0 -0.57720712263E+03  0.25396183423E+03 -0.10448575409E+04  0.12299526858E+04  0.15294330000E+03 0.  0.
<mgrwt>
<rscale>  0 0.83750219E+03</rscale>
<asrwt>0</asrwt>
<pdfrwt beam="1">  1        2 0.10761021E+00 0.91185245E+03</pdfrwt>
<pdfrwt beam="2">  1       -2 0.22767746E+00 0.91185245E+03</pdfrwt>
<totfact> 0.36451470E+00</totfact>
</mgrwt>
</event>
<event>
 4    2  0.3171963E-007  0.6928210E+03  0.7818608E-02  0.1002840E+00
         -2   -1    0    0    0  501 -0.00000000000E+00  0.00000000000E+00  0.10630309733E+03  0.10630309736E+03  0.25500000000E-02 0.  1.
          2   -1    0    0  501    0  0.00000000000E+00 -0.00000000000E+00 -0.33703431121E+04  0.33703431121E+04  0.25500000000E-02 0. -1.
    8880023    1    1    2    0    0 -0.19458531062E+03  0.91253920481E+02 -0.30750897833E+04  0.31521703797E+04  0.65864270000E+03 0. -1.
    8880022    1    1    2    0    0  0.19458531062E+03 -0.91253920481E+02 -0.18895023150E+03  0.32447582978E+03  0.15294330000E+03 0.  0.
<mgrwt>
<rscale>  0 0.54422462E+03</rscale>
<asrwt>0</asrwt>
<pdfrwt beam="1">  1        2 0.51851424E+00 0.69282099E+03</pdfrwt>
<pdfrwt beam="2">  1       -2 0.16354325E-01 0.69282099E+03</pdfrwt>
<totfact> 0.32645153E+01</totfact>
</mgrwt>
</event>
<event>
 4    2  0.3171963E-007  0.8064182E+03  0.7818608E-02  0.9697087E-01
          2   -1    0    0  501    0  0.00000000000E+00  0.00000000000E+00  0.12994182817E+04  0.12994182817E+04  0.25500000000E-02 0. -1.
         -2   -1    0    0    0  501 -0.00000000000E+00 -0.00000000000E+00 -0.11180041623E+04  0.11180041623E+04  0.25500000000E-02 0.  1.
    8880023    1    1    2    0    0 -0.45882243087E+03 -0.77344361294E+02  0.11073850419E+04  0.13698948903E+04  0.65864270000E+03 0. -1.
    8880022    1    1    2    0    0  0.45882243087E+03  0.77344361294E+02 -0.92597092248E+03  0.10475275536E+04  0.15294330000E+03 0.  0.
<mgrwt>
<rscale>  0 0.71190524E+03</rscale>
<asrwt>0</asrwt>
<pdfrwt beam="1">  1        2 0.19991051E+00 0.80641824E+03</pdfrwt>
<pdfrwt beam="2">  1       -2 0.17200064E+00 0.80641824E+03</pdfrwt>
<totfact> 0.34686767E+00</totfact>
</mgrwt>
</event>
<event>
 4    2  0.3171963E-007  0.8669080E+03  0.7818608E-02  0.9581392E-01
          2   -1    0    0  501    0  0.00000000000E+00  0.00000000000E+00  0.14747623235E+04  0.14747623235E+04  0.25500000000E-02 0. -1.
         -2   -1    0    0    0  501 -0.00000000000E+00 -0.00000000000E+00 -0.47279571801E+03  0.47279571802E+03  0.25500000000E-02 0.  1.
    8880023    1    1    2    0    0 -0.15401672214E+03 -0.54221591757E+03  0.10498964494E+04  0.13615476535E+04  0.65864270000E+03 0. -1.
    8880022    1    1    2    0    0  0.15401672214E+03  0.54221591757E+03 -0.47929843888E+02  0.58601038806E+03  0.15294330000E+03 0.  0.
<mgrwt>
<rscale>  0 0.78540146E+03</rscale>
<asrwt>0</asrwt>
<pdfrwt beam="1">  1        2 0.22688651E+00 0.86690799E+03</pdfrwt>
<pdfrwt beam="2">  1       -2 0.72737803E-01 0.86690799E+03</pdfrwt>
<totfact> 0.22644852E+01</totfact>
</mgrwt>
</event>
<event>
 4    2  0.3171963E-007  0.1292974E+04  0.7818608E-02  0.9071651E-01
         -2   -1    0    0    0  501 -0.00000000000E+00  0.00000000000E+00  0.78340334045E+03  0.78340334045E+03  0.25500000000E-02 0.  1.
          2   -1    0    0  501    0  0.00000000000E+00 -0.00000000000E+00 -0.21397521218E+04  0.21397521218E+04  0.25500000000E-02 0. -1.
    8880023    1    1    2    0    0 -0.10092813341E+04  0.46831991916E+03 -0.19503419999E+03  0.13076012020E+04  0.65864270000E+03 0.  1.
    8880022    1    1    2    0    0  0.10092813341E+04 -0.46831991916E+03 -0.11613145814E+04  0.16155542603E+04  0.15294330000E+03 0.  0.
<mgrwt>
<rscale>  0 0.12482382E+04</rscale>
<asrwt>0</asrwt>
<pdfrwt beam="1">  1        2 0.32919263E+00 0.12929743E+04</pdfrwt>
<pdfrwt beam="2">  1       -2 0.12052359E+00 0.12929743E+04</pdfrwt>
<totfact> 0.28374648E+00</totfact>
</mgrwt>
</event>
<event>
 4    2  0.3171963E-007  0.6655211E+03  0.7818608E-02  0.1019100E+00
         -2   -1    0    0    0  501 -0.00000000000E+00  0.00000000000E+00  0.99684578006E+03  0.99684578007E+03  0.25500000000E-02 0.  1.
          2   -1    0    0  501    0  0.00000000000E+00 -0.00000000000E+00 -0.24133423934E+03  0.24133423935E+03  0.25500000000E-02 0. -1.
    8880023    1    1    2    0    0  0.88169796903E+02  0.36527247344E+02  0.26632326330E+03  0.71683083062E+03  0.65864270000E+03 0. -1.
    8880022    1    1    2    0    0 -0.88169796903E+02 -0.36527247344E+02  0.48918827742E+03  0.52134918880E+03  0.15294330000E+03 0.  0.
<mgrwt>
<rscale>  0 0.48012738E+03</rscale>
<asrwt>0</asrwt>
<pdfrwt beam="1">  1        2 0.37128344E-01 0.66552112E+03</pdfrwt>
<pdfrwt beam="2">  1       -2 0.15336089E+00 0.66552112E+03</pdfrwt>
<totfact> 0.40210878E+01</totfact>
</mgrwt>
</event>
<event>
 4    2  0.3171963E-007  0.7601731E+03  0.7818608E-02  0.9804660E-01
          2   -1    0    0  501    0  0.00000000000E+00  0.00000000000E+00  0.15707644284E+04  0.15707644284E+04  0.25500000000E-02 0. -1.
         -2   -1    0    0    0  501 -0.00000000000E+00 -0.00000000000E+00 -0.43754761321E+03  0.43754761322E+03  0.25500000000E-02 0.  1.
    8880023    1    1    2    0    0  0.33971838178E+03  0.16924646140E+03  0.13469516383E+04  0.15466550572E+04  0.65864270000E+03 0. -1.
    8880022    1    1    2    0    0 -0.33971838178E+03 -0.16924646140E+03 -0.21373482317E+03  0.46165698442E+03  0.15294330000E+03 0.  0.
<mgrwt>
<rscale>  0 0.65113084E+03</rscale>
<asrwt>0</asrwt>
<pdfrwt beam="1">  1        2 0.24165607E+00 0.76017311E+03</pdfrwt>
<pdfrwt beam="2">  1       -2 0.67315017E-01 0.76017311E+03</pdfrwt>
<totfact> 0.23997317E+01</totfact>
</mgrwt>
</event>
<event>
 4    2  0.3171963E-007  0.9502287E+03  0.7818608E-02  0.9449785E-01
          2   -1    0    0  501    0  0.00000000000E+00  0.00000000000E+00  0.31069233683E+04  0.31069233683E+04  0.25500000000E-02 0. -1.
         -2   -1    0    0    0  501 -0.00000000000E+00 -0.00000000000E+00 -0.43513317474E+03  0.43513317475E+03  0.25500000000E-02 0.  1.
    8880023    1    1    2    0    0  0.37183479971E+03  0.57520710155E+03  0.26765760549E+04  0.28402453964E+04  0.65864270000E+03 0. -1.
    8880022    1    1    2    0    0 -0.37183479971E+03 -0.57520710155E+03 -0.47858614115E+01  0.70181114656E+03  0.15294330000E+03 0.  0.
<mgrwt>
<rscale>  0 0.88089398E+03</rscale>
<asrwt>0</asrwt>
<pdfrwt beam="1">  1        2 0.47798820E+00 0.95022867E+03</pdfrwt>
<pdfrwt beam="2">  1       -2 0.66943566E-01 0.95022867E+03</pdfrwt>
<totfact> 0.31521214E+00</totfact>
</mgrwt>
</event>
<event>
 4    2  0.3171963E-007  0.9402312E+03  0.7818608E-02  0.9464311E-01
          2   -1    0    0  501    0  0.00000000000E+00  0.00000000000E+00  0.16350664158E+04  0.16350664158E+04  0.25500000000E-02 0. -1.
         -2   -1    0    0    0  501 -0.00000000000E+00 -0.00000000000E+00 -0.11291446220E+04  0.11291446220E+04  0.25500000000E-02 0.  1.
    8880023    1    1    2    0    0 -0.26489974675E+03 -0.61648402678E+03  0.13687281846E+04  0.16605575813E+04  0.65864270000E+03 0.  0.
    8880022    1    1    2    0    0  0.26489974675E+03  0.61648402678E+03 -0.86280639079E+03  0.11036534565E+04  0.15294330000E+03 0.  0.
<mgrwt>
<rscale>  0 0.86966959E+03</rscale>
<asrwt>0</asrwt>
<pdfrwt beam="1">  1        2 0.25154868E+00 0.94023116E+03</pdfrwt>
<pdfrwt beam="2">  1       -2 0.17371456E+00 0.94023116E+03</pdfrwt>
<totfact> 0.21419711E+00</totfact>
</mgrwt>
</event>
<event>
 4    2  0.3171963E-007  0.1043824E+04  0.7818608E-02  0.9326343E-01
         -2   -1    0    0    0  501 -0.00000000000E+00  0.00000000000E+00  0.34841935069E+03  0.34841935069E+03  0.25500000000E-02 0.  1.
          2   -1    0    0  501    0  0.00000000000E+00 -0.00000000000E+00 -0.49640407198E+04  0.49640407198E+04  0.25500000000E-02 0. -1.
    8880023    1    1    2    0    0 -0.18301884343E+03  0.78883623849E+03 -0.43082515524E+04  0.44328997454E+04  0.65864270000E+03 0. -1.
    8880022    1    1    2    0    0  0.18301884343E+03 -0.78883623849E+03 -0.30736981677E+03  0.87956032509E+03  0.15294330000E+03 0.  0.
<mgrwt>
<rscale>  0 0.98393455E+03</rscale>
<asrwt>0</asrwt>
<pdfrwt beam="1">  1        2 0.76369852E+00 0.10438241E+04</pdfrwt>
<pdfrwt beam="2">  1       -2 0.53602980E-01 0.10438241E+04</pdfrwt>
<totfact> 0.13630914E-01</totfact>
</mgrwt>
</event>
<event>
 4    2  0.3171963E-007  0.6775060E+03  0.7818608E-02  0.1010771E+00
          2   -1    0    0  501    0  0.00000000000E+00  0.00000000000E+00  0.74229305163E+03  0.74229305164E+03  0.25500000000E-02 0. -1.
         -2   -1    0    0    0  501 -0.00000000000E+00 -0.00000000000E+00 -0.61376646131E+03  0.61376646131E+03  0.25500000000E-02 0.  1.
    8880023    1    1    2    0    0 -0.14785052972E+03  0.57830435993E+02  0.55511378621E+03  0.87587993490E+03  0.65864270000E+03 0. -1.
    8880022    1    1    2    0    0  0.14785052972E+03 -0.57830435993E+02 -0.42658719588E+03  0.48017957805E+03  0.15294330000E+03 0.  0.
<mgrwt>
<rscale>  0 0.51169324E+03</rscale>
<asrwt>0</asrwt>
<pdfrwt beam="1">  1        2 0.11419893E+00 0.67750597E+03</pdfrwt>
<pdfrwt beam="2">  1       -2 0.94425610E-01 0.67750597E+03</pdfrwt>
<totfact> 0.36644502E+01</totfact>
</mgrwt>
</event>
<event>
 4    2  0.3171963E-007  0.7341529E+03  0.7818608E-02  0.9877319E-01
         -2   -1    0    0    0  501 -0.00000000000E+00  0.00000000000E+00  0.40954557338E+03  0.40954557338E+03  0.25500000000E-02 0.  1.
          2   -1    0    0  501    0  0.00000000000E+00 -0.00000000000E+00 -0.98456892913E+03  0.98456892913E+03  0.25500000000E-02 0. -1.
    8880023    1    1    2    0    0 -0.30368259319E+03 -0.11378528631E+03 -0.70001571797E+03  0.10143975653E+04  0.65864270000E+03 0. -1.
    8880022    1    1    2    0    0  0.30368259319E+03  0.11378528631E+03  0.12499236222E+03  0.37971693723E+03  0.15294330000E+03 0.  0.
<mgrwt>
<rscale>  0 0.61373217E+03</rscale>
<asrwt>0</asrwt>
<pdfrwt beam="1">  1        2 0.15147214E+00 0.73415286E+03</pdfrwt>
<pdfrwt beam="2">  1       -2 0.63007012E-01 0.73415286E+03</pdfrwt>
<totfact> 0.61132703E+01</totfact>
</mgrwt>
</event>
<event>
 4    2  0.3171963E-007  0.6688483E+03  0.7818608E-02  0.1016502E+00
          2   -1    0    0  501    0  0.00000000000E+00  0.00000000000E+00  0.93103693659E+03  0.93103693659E+03  0.25500000000E-02 0. -1.
         -2   -1    0    0    0  501 -0.00000000000E+00 -0.00000000000E+00 -0.45407593458E+03  0.45407593459E+03  0.25500000000E-02 0.  1.
    8880023    1    1    2    0    0  0.61448539951E+01  0.11623261748E+03  0.77922886843E+03  0.10269155838E+04  0.65864270000E+03 0. -1.
    8880022    1    1    2    0    0 -0.61448539951E+01 -0.11623261748E+03 -0.30226786643E+03  0.35819728738E+03  0.15294330000E+03 0.  0.
<mgrwt>
<rscale>  0 0.48970211E+03</rscale>
<asrwt>0</asrwt>
<pdfrwt beam="1">  1        2 0.14323645E+00 0.66884825E+03</pdfrwt>
<pdfrwt beam="2">  1       -2 0.69857837E-01 0.66884825E+03</pdfrwt>
<totfact> 0.53329485E+01</totfact>
</mgrwt>
</event>
<event>
 4    2  0.3171963E-007  0.9538150E+03  0.7818608E-02  0.9444646E-01
          2   -1    0    0  501    0  0.00000000000E+00  0.00000000000E+00  0.81917712870E+03  0.81917712870E+03  0.25500000000E-02 0. -1.
         -2   -1    0    0    0  501 -0.00000000000E+00 -0.00000000000E+00 -0.11106456974E+04  0.11106456974E+04  0.25500000000E-02 0.  1.
    8880023    1    1    2    0    0  0.46004586393E+03 -0.51411143029E+03 -0.63322662441E+03  0.11448750691E+04  0.65864270000E+03 0.  0.
    8880022    1    1    2    0    0 -0.46004586393E+03  0.51411143029E+03  0.34175805567E+03  0.78494775706E+03  0.15294330000E+03 0.  0.
<mgrwt>
<rscale>  0 0.88490800E+03</rscale>
<asrwt>0</asrwt>
<pdfrwt beam="1">  1        2 0.12602725E+00 0.95381495E+03</pdfrwt>
<pdfrwt beam="2">  1       -2 0.17086857E+00 0.95381495E+03</pdfrwt>
<totfact> 0.69842091E+00</totfact>
</mgrwt>
</event>
<event>
 4    2  0.3171963E-007  0.6775088E+03  0.7818608E-02  0.1010769E+00
         -2   -1    0    0    0  501 -0.00000000000E+00  0.00000000000E+00  0.28652483815E+03  0.28652483816E+03  0.25500000000E-02 0.  1.
          2   -1    0    0  501    0  0.00000000000E+00 -0.00000000000E+00 -0.73319620317E+03  0.73319620318E+03  0.25500000000E-02 0. -1.
    8880023    1    1    2    0    0 -0.15864319352E+03  0.63519157549E+01 -0.42128938639E+03  0.79781135805E+03  0.65864270000E+03 0. -1.
    8880022    1    1    2    0    0  0.15864319352E+03 -0.63519157549E+01 -0.25381978629E+02  0.22190968329E+03  0.15294330000E+03 0.  1.
<mgrwt>
<rscale>  0 0.51169995E+03</rscale>
<asrwt>0</asrwt>
<pdfrwt beam="1">  1        2 0.11279942E+00 0.67750883E+03</pdfrwt>
<pdfrwt beam="2">  1       -2 0.44080745E-01 0.67750883E+03</pdfrwt>
<totfact> 0.19102148E+02</totfact>
</mgrwt>
</event>
<event>
 4    2  0.3171963E-007  0.7641310E+03  0.7818608E-02  0.9794528E-01
          2   -1    0    0  501    0  0.00000000000E+00  0.00000000000E+00  0.25602902507E+04  0.25602902507E+04  0.25500000000E-02 0. -1.
         -2   -1    0    0    0  501 -0.00000000000E+00 -0.00000000000E+00 -0.23059843547E+03  0.23059843548E+03  0.25500000000E-02 0.  1.
    8880023    1    1    2    0    0 -0.34540686658E+03 -0.17544265840E+03  0.22373890496E+04  0.23642770555E+04  0.65864270000E+03 0.  0.
    8880022    1    1    2    0    0  0.34540686658E+03  0.17544265840E+03  0.92302765678E+02  0.42661163068E+03  0.15294330000E+03 0.  0.
<mgrwt>
<rscale>  0 0.65657045E+03</rscale>
<asrwt>0</asrwt>
<pdfrwt beam="1">  1        2 0.39389082E+00 0.76413103E+03</pdfrwt>
<pdfrwt beam="2">  1       -2 0.35476681E-01 0.76413103E+03</pdfrwt>
<totfact> 0.25016089E+01</totfact>
</mgrwt>
</event>
<event>
 4    2  0.3171963E-007  0.6976071E+03  0.7818608E-02  0.1000728E+00
          2   -1    0    0  501    0  0.00000000000E+00  0.00000000000E+00  0.11256980998E+04  0.11256980998E+04  0.25500000000E-02 0. -1.
         -2   -1    0    0    0  501 -0.00000000000E+00 -0.00000000000E+00 -0.54468523704E+03  0.54468523704E+03  0.25500000000E-02 0.  1.
    8880023    1    1    2    0    0  0.22271733231E+03 -0.56941914743E+02  0.96911473851E+03  0.11940849946E+04  0.65864270000E+03 0. -1.
    8880022    1    1    2    0    0 -0.22271733231E+03  0.56941914743E+02 -0.38810187577E+03  0.47629834218E+03  0.15294330000E+03 0.  0.
<mgrwt>
<rscale>  0 0.55332323E+03</rscale>
<asrwt>0</asrwt>
<pdfrwt beam="1">  1        2 0.17318432E+00 0.69760705E+03</pdfrwt>
<pdfrwt beam="2">  1       -2 0.83797730E-01 0.69760705E+03</pdfrwt>
<totfact> 0.26761694E+01</totfact>
</mgrwt>
</event>
<event>
 4    2  0.3171963E-007  0.7471522E+03  0.7818608E-02  0.9839582E-01
          2   -1    0    0  501    0  0.00000000000E+00  0.00000000000E+00  0.72827692277E+03  0.72827692278E+03  0.25500000000E-02 0. -1.
         -2   -1    0    0    0  501 -0.00000000000E+00 -0.00000000000E+00 -0.93694927768E+03  0.93694927768E+03  0.25500000000E-02 0.  1.
    8880023    1    1    2    0    0  0.83624290308E+02 -0.34268531037E+03  0.47180264908E+03  0.88364822742E+03  0.65864270000E+03 0.  0.
    8880022    1    1    2    0    0 -0.83624290308E+02  0.34268531037E+03 -0.68047500399E+03  0.78157797304E+03  0.15294330000E+03 0.  0.
<mgrwt>
<rscale>  0 0.63280908E+03</rscale>
<asrwt>0</asrwt>
<pdfrwt beam="1">  1        2 0.11204260E+00 0.74715223E+03</pdfrwt>
<pdfrwt beam="2">  1       -2 0.14414604E+00 0.74715223E+03</pdfrwt>
<totfact> 0.13163011E+01</totfact>
</mgrwt>
</event>
<event>
 4    2  0.3171963E-007  0.7025510E+03  0.7818608E-02  0.9986779E-01
          2   -1    0    0  501    0  0.00000000000E+00  0.00000000000E+00  0.31016589794E+04  0.31016589794E+04  0.25500000000E-02 0. -1.
         -2   -1    0    0    0  501 -0.00000000000E+00 -0.00000000000E+00 -0.14143302337E+03  0.14143302339E+03  0.25500000000E-02 0.  1.
    8880023    1    1    2    0    0  0.16967184345E+03  0.17600911287E+03  0.28484543796E+04  0.29338149739E+04  0.65864270000E+03 0. -1.
    8880022    1    1    2    0    0 -0.16967184345E+03 -0.17600911287E+03  0.11177157642E+03  0.30927702887E+03  0.15294330000E+03 0.  0.
<mgrwt>
<rscale>  0 0.56233786E+03</rscale>
<asrwt>0</asrwt>
<pdfrwt beam="1">  1        2 0.47717825E+00 0.70255103E+03</pdfrwt>
<pdfrwt beam="2">  1       -2 0.21758929E-01 0.70255103E+03</pdfrwt>
<totfact> 0.29509627E+01</totfact>
</mgrwt>
</event>
<event>
 4    2  0.3171963E-007  0.6710350E+03  0.7818608E-02  0.1014932E+00
          2   -1    0    0  501    0  0.00000000000E+00  0.00000000000E+00  0.12401171740E+04  0.12401171740E+04  0.25500000000E-02 0. -1.
         -2   -1    0    0    0  501 -0.00000000000E+00 -0.00000000000E+00 -0.47225740080E+03  0.47225740080E+03  0.25500000000E-02 0.  1.
    8880023    1    1    2    0    0  0.12566579668E+03  0.26189715092E+02  0.11211146402E+04  0.13065932942E+04  0.65864270000E+03 0. -1.
    8880022    1    1    2    0    0 -0.12566579668E+03 -0.26189715092E+02 -0.35325486700E+03  0.40578128063E+03  0.15294330000E+03 0.  0.
<mgrwt>
<rscale>  0 0.49560869E+03</rscale>
<asrwt>0</asrwt>
<pdfrwt beam="1">  1        2 0.19078726E+00 0.67103502E+03</pdfrwt>
<pdfrwt beam="2">  1       -2 0.72654985E-01 0.67103502E+03</pdfrwt>
<totfact> 0.31574115E+01</totfact>
</mgrwt>
</event>
<event>
 4    2  0.3171963E-007  0.7819892E+03  0.7818608E-02  0.9751185E-01
         -2   -1    0    0    0  501 -0.00000000000E+00  0.00000000000E+00  0.59951227745E+03  0.59951227745E+03  0.25500000000E-02 0.  1.
          2   -1    0    0  501    0  0.00000000000E+00 -0.00000000000E+00 -0.11958532794E+04  0.11958532794E+04  0.25500000000E-02 0. -1.
    8880023    1    1    2    0    0  0.24385358005E+03 -0.34384939010E+03 -0.94553980452E+03  0.12270096576E+04  0.65864270000E+03 0. -1.
    8880022    1    1    2    0    0 -0.24385358005E+03  0.34384939010E+03  0.34919880254E+03  0.56835589931E+03  0.15294330000E+03 0.  0.
<mgrwt>
<rscale>  0 0.68049356E+03</rscale>
<asrwt>0</asrwt>
<pdfrwt beam="1">  1        2 0.18397743E+00 0.78198924E+03</pdfrwt>
<pdfrwt beam="2">  1       -2 0.92232658E-01 0.78198924E+03</pdfrwt>
<totfact> 0.19315858E+01</totfact>
</mgrwt>
</event>
<event>
 4    2  0.3171963E-007  0.6821102E+03  0.7818608E-02  0.1008154E+00
          2   -1    0    0  501    0  0.00000000000E+00  0.00000000000E+00  0.14906703038E+04  0.14906703038E+04  0.25500000000E-02 0. -1.
         -2   -1    0    0    0  501 -0.00000000000E+00 -0.00000000000E+00 -0.60692437177E+03  0.60692437177E+03  0.25500000000E-02 0.  1.
    8880023    1    1    2    0    0 -0.22935908203E+02 -0.17589220239E+03  0.13852566224E+04  0.15440888054E+04  0.65864270000E+03 0.  0.
    8880022    1    1    2    0    0  0.22935908203E+02  0.17589220239E+03 -0.50151069038E+03  0.55350587018E+03  0.15294330000E+03 0.  1.
<mgrwt>
<rscale>  0 0.52214810E+03</rscale>
<asrwt>0</asrwt>
<pdfrwt beam="1">  1        2 0.22933389E+00 0.68211020E+03</pdfrwt>
<pdfrwt beam="2">  1       -2 0.93372981E-01 0.68211020E+03</pdfrwt>
<totfact> 0.12890376E+01</totfact>
</mgrwt>
</event>
<event>
 4    2  0.3171963E-007  0.6739746E+03  0.7818608E-02  0.1012961E+00
          2   -1    0    0  501    0  0.00000000000E+00  0.00000000000E+00  0.63596381515E+03  0.63596381516E+03  0.25500000000E-02 0. -1.
         -2   -1    0    0    0  501 -0.00000000000E+00 -0.00000000000E+00 -0.42348047580E+03  0.42348047581E+03  0.25500000000E-02 0.  1.
    8880023    1    1    2    0    0 -0.13437367215E+03 -0.48736839695E+02  0.39544323550E+03  0.78141993965E+03  0.65864270000E+03 0. -1.
    8880022    1    1    2    0    0  0.13437367215E+03  0.48736839695E+02 -0.18295989616E+03  0.27802435132E+03  0.15294330000E+03 0.  0.
<mgrwt>
<rscale>  0 0.50314792E+03</rscale>
<asrwt>0</asrwt>
<pdfrwt beam="1">  1        2 0.97840586E-01 0.67397461E+03</pdfrwt>
<pdfrwt beam="2">  1       -2 0.65150843E-01 0.67397461E+03</pdfrwt>
<totfact> 0.10197862E+02</totfact>
</mgrwt>
</event>
<event>
 4    2  0.3171963E-007  0.7561516E+03  0.7818608E-02  0.9815174E-01
         -2   -1    0    0    0  501 -0.00000000000E+00  0.00000000000E+00  0.59232905947E+03  0.59232905948E+03  0.25500000000E-02 0.  1.
          2   -1    0    0  501    0  0.00000000000E+00 -0.00000000000E+00 -0.11102846067E+04  0.11102846067E+04  0.25500000000E-02 0. -1.
    8880023    1    1    2    0    0  0.18392437783E+02  0.37096728635E+03 -0.88112595276E+03  0.11610978254E+04  0.65864270000E+03 0. -1.
    8880022    1    1    2    0    0 -0.18392437783E+02 -0.37096728635E+03  0.36317040554E+03  0.54151584075E+03  0.15294330000E+03 0.  0.
<mgrwt>
<rscale>  0 0.64554519E+03</rscale>
<asrwt>0</asrwt>
<pdfrwt beam="1">  1        2 0.17081302E+00 0.75615158E+03</pdfrwt>
<pdfrwt beam="2">  1       -2 0.91127548E-01 0.75615158E+03</pdfrwt>
<totfact> 0.22423049E+01</totfact>
</mgrwt>
</event>
<event>
 4    2  0.3171963E-007  0.7910291E+03  0.7818608E-02  0.9730539E-01
          2   -1    0    0  501    0  0.00000000000E+00  0.00000000000E+00  0.44464545290E+03  0.44464545291E+03  0.25500000000E-02 0. -1.
         -2   -1    0    0    0  501 -0.00000000000E+00 -0.00000000000E+00 -0.14583398703E+04  0.14583398703E+04  0.25500000000E-02 0.  1.
    8880023    1    1    2    0    0  0.11149137323E+03 -0.42365854131E+03 -0.31877417302E+01  0.79103555792E+03  0.65864270000E+03 0.  0.
    8880022    1    1    2    0    0 -0.11149137323E+03  0.42365854131E+03 -0.10105066757E+04  0.11119497653E+04  0.15294330000E+03 0.  0.
<mgrwt>
<rscale>  0 0.69227240E+03</rscale>
<asrwt>0</asrwt>
<pdfrwt beam="1">  1        2 0.68406993E-01 0.79102913E+03</pdfrwt>
<pdfrwt beam="2">  1       -2 0.22435998E+00 0.79102913E+03</pdfrwt>
<totfact> 0.66615264E+00</totfact>
</mgrwt>
</event>
<event>
 4    2  0.3171963E-007  0.1424615E+04  0.7818608E-02  0.8964788E-01
         -2   -1    0    0    0  501 -0.00000000000E+00  0.00000000000E+00  0.23018581872E+04  0.23018581872E+04  0.25500000000E-02 0.  1.
          2   -1    0    0  501    0  0.00000000000E+00 -0.00000000000E+00 -0.11729906220E+04  0.11729906220E+04  0.25500000000E-02 0. -1.
    8880023    1    1    2    0    0 -0.11645001868E+04 -0.48954804553E+03 -0.40579690421E+03  0.14812829938E+04  0.65864270000E+03 0.  0.
    8880022    1    1    2    0    0  0.11645001868E+04  0.48954804553E+03  0.15346644694E+04  0.19935658154E+04  0.15294330000E+03 0.  0.
<mgrwt>
<rscale>  0 0.13849455E+04</rscale>
<asrwt>0</asrwt>
<pdfrwt beam="1">  1        2 0.18046010E+00 0.14246151E+04</pdfrwt>
<pdfrwt beam="2">  1       -2 0.35413203E+00 0.14246151E+04</pdfrwt>
<totfact> 0.27493081E-01</totfact>
</mgrwt>
</event>
<event>
 4    2  0.3171963E-007  0.9263839E+03  0.7818608E-02  0.9484939E-01
         -2   -1    0    0    0  501 -0.00000000000E+00  0.00000000000E+00  0.11965316800E+04  0.11965316800E+04  0.25500000000E-02 0.  1.
          2   -1    0    0  501    0  0.00000000000E+00 -0.00000000000E+00 -0.11607747641E+04  0.11607747641E+04  0.25500000000E-02 0. -1.
    8880023    1    1    2    0    0  0.55794315302E+03  0.33626815355E+03 -0.84316786787E+03  0.12526448390E+04  0.65864270000E+03 0.  0.
    8880022    1    1    2    0    0 -0.55794315302E+03 -0.33626815355E+03  0.87892478381E+03  0.11046616051E+04  0.15294330000E+03 0.  0.
<mgrwt>
<rscale>  0 0.85403353E+03</rscale>
<asrwt>0</asrwt>
<pdfrwt beam="1">  1        2 0.17858073E+00 0.92638385E+03</pdfrwt>
<pdfrwt beam="2">  1       -2 0.18408180E+00 0.92638385E+03</pdfrwt>
<totfact> 0.33996998E+00</totfact>
</mgrwt>
</event>
<event>
 4    2  0.3171963E-007  0.1205659E+04  0.7818608E-02  0.9151641E-01
          2   -1    0    0  501    0  0.00000000000E+00  0.00000000000E+00  0.34474780953E+03  0.34474780954E+03  0.25500000000E-02 0. -1.
         -2   -1    0    0    0  501 -0.00000000000E+00 -0.00000000000E+00 -0.38893699385E+04  0.38893699385E+04  0.25500000000E-02 0.  1.
    8880023    1    1    2    0    0  0.32265716497E+03 -0.95692036892E+03 -0.13289180119E+04  0.17943348426E+04  0.65864270000E+03 0.  0.
    8880022    1    1    2    0    0 -0.32265716497E+03  0.95692036892E+03 -0.22157041170E+04  0.24397829055E+04  0.15294330000E+03 0.  0.
<mgrwt>
<rscale>  0 0.11566826E+04</rscale>
<asrwt>0</asrwt>
<pdfrwt beam="1">  1        2 0.53038127E-01 0.12056593E+04</pdfrwt>
<pdfrwt beam="2">  1       -2 0.59836457E+00 0.12056593E+04</pdfrwt>
<totfact> 0.46585031E-02</totfact>
</mgrwt>
</event>
<event>
 4    2  0.3171963E-007  0.1071521E+04  0.7818608E-02  0.9293447E-01
         -2   -1    0    0    0  501 -0.00000000000E+00  0.00000000000E+00  0.44317671856E+03  0.44317671857E+03  0.25500000000E-02 0.  1.
          2   -1    0    0  501    0  0.00000000000E+00 -0.00000000000E+00 -0.32243779324E+04  0.32243779324E+04  0.25500000000E-02 0. -1.
    8880023    1    1    2    0    0  0.15225132790E+03 -0.83136423609E+03 -0.25679812049E+04  0.27825679928E+04  0.65864270000E+03 0.  0.
    8880022    1    1    2    0    0 -0.15225132790E+03  0.83136423609E+03 -0.21322000901E+03  0.88498665818E+03  0.15294330000E+03 0.  0.
<mgrwt>
<rscale>  0 0.10138841E+04</rscale>
<asrwt>0</asrwt>
<pdfrwt beam="1">  1        2 0.49605813E+00 0.10715210E+04</pdfrwt>
<pdfrwt beam="2">  1       -2 0.68181036E-01 0.10715210E+04</pdfrwt>
<totfact> 0.25028218E+00</totfact>
</mgrwt>
</event>
<event>
 4    2  0.3171963E-007  0.9022760E+03  0.7818608E-02  0.9522388E-01
          2   -1    0    0  501    0  0.00000000000E+00  0.00000000000E+00  0.20722183074E+04  0.20722183074E+04  0.25500000000E-02 0. -1.
         -2   -1    0    0    0  501 -0.00000000000E+00 -0.00000000000E+00 -0.29364410473E+03  0.29364410474E+03  0.25500000000E-02 0.  1.
    8880023    1    1    2    0    0 -0.44636996915E+03  0.42549451458E+03  0.12363979941E+04  0.15306148887E+04  0.65864270000E+03 0. -1.
    8880022    1    1    2    0    0  0.44636996915E+03 -0.42549451458E+03  0.54217620850E+03  0.83524752342E+03  0.15294330000E+03 0.  0.
<mgrwt>
<rscale>  0 0.82653197E+03</rscale>
<asrwt>0</asrwt>
<pdfrwt beam="1">  1        2 0.31880281E+00 0.90227598E+03</pdfrwt>
<pdfrwt beam="2">  1       -2 0.45176017E-01 0.90227598E+03</pdfrwt>
<totfact> 0.28730023E+01</totfact>
</mgrwt>
</event>
<event>
 4    2  0.3171963E-007  0.7506653E+03  0.7818608E-02  0.9829903E-01
         -2   -1    0    0    0  501 -0.00000000000E+00  0.00000000000E+00  0.22738778768E+03  0.22738778769E+03  0.25500000000E-02 0.  1.
          2   -1    0    0  501    0  0.00000000000E+00 -0.00000000000E+00 -0.38524772744E+04  0.38524772744E+04  0.25500000000E-02 0. -1.
    8880023    1    1    2    0    0  0.28595999319E+03  0.21889494673E+03 -0.36111668062E+04  0.36883633259E+04  0.65864270000E+03 0. -1.
    8880022    1    1    2    0    0 -0.28595999319E+03 -0.21889494673E+03 -0.13922680548E+02  0.39150173621E+03  0.15294330000E+03 0.  0.
<mgrwt>
<rscale>  0 0.63782195E+03</rscale>
<asrwt>0</asrwt>
<pdfrwt beam="1">  1        2 0.59268877E+00 0.75066525E+03</pdfrwt>
<pdfrwt beam="2">  1       -2 0.34982739E-01 0.75066525E+03</pdfrwt>
<totfact> 0.37731533E+00</totfact>
</mgrwt>
</event>
<event>
 4    2  0.3171963E-007  0.8386078E+03  0.7818608E-02  0.9632811E-01
         -2   -1    0    0    0  501 -0.00000000000E+00  0.00000000000E+00  0.76134269939E+03  0.76134269939E+03  0.25500000000E-02 0.  1.
          2   -1    0    0  501    0  0.00000000000E+00 -0.00000000000E+00 -0.90917361925E+03  0.90917361925E+03  0.25500000000E-02 0. -1.
    8880023    1    1    2    0    0 -0.51735630614E+03  0.42371041810E+02 -0.54421998264E+03  0.99971918479E+03  0.65864270000E+03 0. -1.
    8880022    1    1    2    0    0  0.51735630614E+03 -0.42371041810E+02  0.39638906278E+03  0.67079713385E+03  0.15294330000E+03 0.  0.
<mgrwt>
<rscale>  0 0.75162084E+03</rscale>
<asrwt>0</asrwt>
<pdfrwt beam="1">  1        2 0.13987286E+00 0.83860781E+03</pdfrwt>
<pdfrwt beam="2">  1       -2 0.11712965E+00 0.83860781E+03</pdfrwt>
<totfact> 0.16407042E+01</totfact>
</mgrwt>
</event>
<event>
 4    2  0.3171963E-007  0.7252902E+03  0.7818608E-02  0.9905076E-01
         -2   -1    0    0    0  501 -0.00000000000E+00  0.00000000000E+00  0.34915837667E+03  0.34915837668E+03  0.25500000000E-02 0.  1.
          2   -1    0    0  501    0  0.00000000000E+00 -0.00000000000E+00 -0.96264811949E+03  0.96264811949E+03  0.25500000000E-02 0. -1.
    8880023    1    1    2    0    0  0.26470042137E+03 -0.14889391520E+03 -0.64461121920E+03  0.97034506297E+03  0.65864270000E+03 0.  0.
    8880022    1    1    2    0    0 -0.26470042137E+03  0.14889391520E+03  0.31121476378E+02  0.34146143320E+03  0.15294330000E+03 0.  0.
<mgrwt>
<rscale>  0 0.60015917E+03</rscale>
<asrwt>0</asrwt>
<pdfrwt beam="1">  1        2 0.14809971E+00 0.72529023E+03</pdfrwt>
<pdfrwt beam="2">  1       -2 0.53716674E-01 0.72529023E+03</pdfrwt>
<totfact> 0.88327856E+01</totfact>
</mgrwt>
</event>
<event>
 4    2  0.3171963E-007  0.7602591E+03  0.7818608E-02  0.9804437E-01
         -2   -1    0    0    0  501 -0.00000000000E+00  0.00000000000E+00  0.33810871673E+03  0.33810871674E+03  0.25500000000E-02 0.  1.
          2   -1    0    0  501    0  0.00000000000E+00 -0.00000000000E+00 -0.13993293138E+04  0.13993293138E+04  0.25500000000E-02 0. -1.
    8880023    1    1    2    0    0 -0.21570471856E+03 -0.31249815224E+03 -0.20347730557E+03  0.78701768780E+03  0.65864270000E+03 0.  0.
    8880022    1    1    2    0    0  0.21570471856E+03  0.31249815224E+03 -0.85774329151E+03  0.95042034275E+03  0.15294330000E+03 0.  0.
<mgrwt>
<rscale>  0 0.65124956E+03</rscale>
<asrwt>0</asrwt>
<pdfrwt beam="1">  1        2 0.21528143E+00 0.76025905E+03</pdfrwt>
<pdfrwt beam="2">  1       -2 0.52016726E-01 0.76025905E+03</pdfrwt>
<totfact> 0.51506643E+01</totfact>
</mgrwt>
</event>
<event>
 4    2  0.3171963E-007  0.7026457E+03  0.7818608E-02  0.9986398E-01
         -2   -1    0    0    0  501 -0.00000000000E+00  0.00000000000E+00  0.13365733487E+03  0.13365733490E+03  0.25500000000E-02 0.  1.
          2   -1    0    0  501    0  0.00000000000E+00 -0.00000000000E+00 -0.20535658512E+04  0.20535658512E+04  0.25500000000E-02 0. -1.
    8880023    1    1    2    0    0  0.56077137766E+02  0.23823544165E+03 -0.16443952517E+04  0.17882244605E+04  0.65864270000E+03 0. -1.
    8880022    1    1    2    0    0 -0.56077137766E+02 -0.23823544165E+03 -0.27551326465E+03  0.39899872563E+03  0.15294330000E+03 0.  1.
<mgrwt>
<rscale>  0 0.56250707E+03</rscale>
<asrwt>0</asrwt>
<pdfrwt beam="1">  1        2 0.31593319E+00 0.70264570E+03</pdfrwt>
<pdfrwt beam="2">  1       -2 0.20562668E-01 0.70264570E+03</pdfrwt>
<totfact> 0.13074376E+02</totfact>
</mgrwt>
</event>
<event>
 4    2  0.3171963E-007  0.7250365E+03  0.7818608E-02  0.9905899E-01
         -2   -1    0    0    0  501 -0.00000000000E+00  0.00000000000E+00  0.39987761399E+03  0.39987761400E+03  0.25500000000E-02 0.  1.
          2   -1    0    0  501    0  0.00000000000E+00 -0.00000000000E+00 -0.89157964999E+03  0.89157964999E+03  0.25500000000E-02 0. -1.
    8880023    1    1    2    0    0  0.28128681979E+03 -0.11289575606E+03 -0.59355548299E+03  0.93700909514E+03  0.65864270000E+03 0. -1.
    8880022    1    1    2    0    0 -0.28128681979E+03  0.11289575606E+03  0.10185344699E+03  0.35444816885E+03  0.15294330000E+03 0.  0.
<mgrwt>
<rscale>  0 0.59976268E+03</rscale>
<asrwt>0</asrwt>
<pdfrwt beam="1">  1        2 0.13716610E+00 0.72503650E+03</pdfrwt>
<pdfrwt beam="2">  1       -2 0.61519633E-01 0.72503650E+03</pdfrwt>
<totfact> 0.74110234E+01</totfact>
</mgrwt>
</event>
<event>
 4    2  0.3171963E-007  0.7146958E+03  0.7818608E-02  0.9940960E-01
         -2   -1    0    0    0  501 -0.00000000000E+00  0.00000000000E+00  0.99846075905E+03  0.99846075906E+03  0.25500000000E-02 0.  1.
          2   -1    0    0  501    0  0.00000000000E+00 -0.00000000000E+00 -0.53876701577E+03  0.53876701577E+03  0.25500000000E-02 0. -1.
    8880023    1    1    2    0    0 -0.27563947972E+03  0.31665756792E+02 -0.25230583424E+03  0.75792366581E+03  0.65864270000E+03 0. -1.
    8880022    1    1    2    0    0  0.27563947972E+03 -0.31665756792E+02  0.71199957752E+03  0.77930410902E+03  0.15294330000E+03 0.  0.
<mgrwt>
<rscale>  0 0.58316602E+03</rscale>
<asrwt>0</asrwt>
<pdfrwt beam="1">  1        2 0.82887235E-01 0.71469577E+03</pdfrwt>
<pdfrwt beam="2">  1       -2 0.15360934E+00 0.71469577E+03</pdfrwt>
<totfact> 0.16145184E+01</totfact>
</mgrwt>
</event>
<event>
 4    2  0.3171963E-007  0.7983325E+03  0.7818608E-02  0.9714413E-01
          2   -1    0    0  501    0  0.00000000000E+00  0.00000000000E+00  0.37229530120E+04  0.37229530120E+04  0.25500000000E-02 0. -1.
         -2   -1    0    0    0  501 -0.00000000000E+00 -0.00000000000E+00 -0.41674647794E+03  0.41674647795E+03  0.25500000000E-02 0.  1.
    8880023    1    1    2    0    0 -0.42195503127E+03  0.15962004117E+03  0.35258803467E+04  0.36151302924E+04  0.65864270000E+03 0.  0.
    8880022    1    1    2    0    0  0.42195503127E+03 -0.15962004117E+03 -0.21967381265E+03  0.52456919748E+03  0.15294330000E+03 0.  0.
<mgrwt>
<rscale>  0 0.70165087E+03</rscale>
<asrwt>0</asrwt>
<pdfrwt beam="1">  1        2 0.57276200E+00 0.79833252E+03</pdfrwt>
<pdfrwt beam="2">  1       -2 0.64114843E-01 0.79833252E+03</pdfrwt>
<totfact> 0.13706129E+00</totfact>
</mgrwt>
</event>
<event>
 4    2  0.3171963E-007  0.7027284E+03  0.7818608E-02  0.9986066E-01
          2   -1    0    0  501    0  0.00000000000E+00  0.00000000000E+00  0.25806399404E+04  0.25806399404E+04  0.25500000000E-02 0. -1.
         -2   -1    0    0    0  501 -0.00000000000E+00 -0.00000000000E+00 -0.16615867487E+03  0.16615867489E+03  0.25500000000E-02 0.  1.
    8880023    1    1    2    0    0 -0.10911957660E+03 -0.21933962857E+03  0.23473666295E+04  0.24502973808E+04  0.65864270000E+03 0. -1.
    8880022    1    1    2    0    0  0.10911957660E+03  0.21933962857E+03  0.67114635971E+02  0.29650123446E+03  0.15294330000E+03 0.  0.
<mgrwt>
<rscale>  0 0.56265473E+03</rscale>
<asrwt>0</asrwt>
<pdfrwt beam="1">  1        2 0.39702152E+00 0.70272837E+03</pdfrwt>
<pdfrwt beam="2">  1       -2 0.25562874E-01 0.70272837E+03</pdfrwt>
<totfact> 0.45170543E+01</totfact>
</mgrwt>
</event>
<event>
 4    2  0.3171963E-007  0.9959516E+03  0.7818608E-02  0.9386873E-01
         -2   -1    0    0    0  501 -0.00000000000E+00  0.00000000000E+00  0.15916078802E+04  0.15916078803E+04  0.25500000000E-02 0.  1.
          2   -1    0    0  501    0  0.00000000000E+00 -0.00000000000E+00 -0.11927301171E+04  0.11927301171E+04  0.25500000000E-02 0. -1.
    8880023    1    1    2    0    0 -0.26622178382E+03 -0.69802249375E+03 -0.85777145181E+03  0.13144167945E+04  0.65864270000E+03 0.  0.
    8880022    1    1    2    0    0  0.26622178382E+03  0.69802249375E+03  0.12566492150E+04  0.14699212028E+04  0.15294330000E+03 0.  0.
<mgrwt>
<rscale>  0 0.93163866E+03</rscale>
<asrwt>0</asrwt>
<pdfrwt beam="1">  1        2 0.18349694E+00 0.99595163E+03</pdfrwt>
<pdfrwt beam="2">  1       -2 0.24486275E+00 0.99595163E+03</pdfrwt>
<totfact> 0.13182242E+00</totfact>
</mgrwt>
</event>
<event>
 4    2  0.3171963E-007  0.1713127E+04  0.7818608E-02  0.8772177E-01
         -2   -1    0    0    0  501 -0.00000000000E+00  0.00000000000E+00  0.19005515431E+04  0.19005515431E+04  0.25500000000E-02 0.  1.
          2   -1    0    0  501    0  0.00000000000E+00 -0.00000000000E+00 -0.20334900770E+04  0.20334900770E+04  0.25500000000E-02 0. -1.
    8880023    1    1    2    0    0  0.15544979133E+04 -0.29074336761E+03 -0.11355582456E+04  0.20553097586E+04  0.65864270000E+03 0. -1.
    8880022    1    1    2    0    0 -0.15544979133E+04  0.29074336761E+03  0.10026197117E+04  0.18787318615E+04  0.15294330000E+03 0.  0.
<mgrwt>
<rscale>  0 0.16811705E+04</rscale>
<asrwt>0</asrwt>
<pdfrwt beam="1">  1        2 0.31284462E+00 0.17131275E+04</pdfrwt>
<pdfrwt beam="2">  1       -2 0.29239255E+00 0.17131275E+04</pdfrwt>
<totfact> 0.20737536E-01</totfact>
</mgrwt>
</event>
<event>
 4    2  0.3171963E-007  0.6606325E+03  0.7818608E-02  0.1023518E+00
          2   -1    0    0  501    0  0.00000000000E+00  0.00000000000E+00  0.80273909033E+03  0.80273909034E+03  0.25500000000E-02 0. -1.
         -2   -1    0    0    0  501 -0.00000000000E+00 -0.00000000000E+00 -0.20785919141E+04  0.20785919141E+04  0.25500000000E-02 0.  1.
    8880023    1    1    2    0    0 -0.47250871504E+02  0.19810319740E+02  0.66289994799E+03  0.93588014239E+03  0.65864270000E+03 0. -1.
    8880022    1    1    2    0    0  0.47250871504E+02 -0.19810319740E+02 -0.19387527717E+04  0.19454508620E+04  0.15294330000E+03 0.  0.
<mgrwt>
<rscale>  0 0.46438328E+03</rscale>
<asrwt>0</asrwt>
<pdfrwt beam="1">  1        2 0.12349832E+00 0.66063250E+03</pdfrwt>
<pdfrwt beam="2">  1       -2 0.31978337E+00 0.66063250E+03</pdfrwt>
<totfact> 0.87989594E-01</totfact>
</mgrwt>
</event>
<event>
 4    2  0.3171963E-007  0.8803900E+03  0.7818608E-02  0.9558275E-01
         -2   -1    0    0    0  501 -0.00000000000E+00  0.00000000000E+00  0.55472397314E+03  0.55472397315E+03  0.25500000000E-02 0.  1.
          2   -1    0    0  501    0  0.00000000000E+00 -0.00000000000E+00 -0.18445305190E+04  0.18445305190E+04  0.25500000000E-02 0. -1.
    8880023    1    1    2    0    0 -0.51312340515E+03  0.27925029702E+03 -0.15170764968E+04  0.17540261288E+04  0.65864270000E+03 0.  0.
    8880022    1    1    2    0    0  0.51312340515E+03 -0.27925029702E+03  0.22726995088E+03  0.64522836336E+03  0.15294330000E+03 0.  0.
<mgrwt>
<rscale>  0 0.80120479E+03</rscale>
<asrwt>0</asrwt>
<pdfrwt beam="1">  1        2 0.28377392E+00 0.88039001E+03</pdfrwt>
<pdfrwt beam="2">  1       -2 0.85342151E-01 0.88039001E+03</pdfrwt>
<totfact> 0.98658748E+00</totfact>
</mgrwt>
</event>
<event>
 4    2  0.3171963E-007  0.1224586E+04  0.7818608E-02  0.9133586E-01
         -2   -1    0    0    0  501 -0.00000000000E+00  0.00000000000E+00  0.17887777196E+04  0.17887777196E+04  0.25500000000E-02 0.  1.
          2   -1    0    0  501    0  0.00000000000E+00 -0.00000000000E+00 -0.18272640446E+04  0.18272640446E+04  0.25500000000E-02 0. -1.
    8880023    1    1    2    0    0  0.33466538923E+03 -0.97662633451E+03 -0.14261236166E+04  0.18797443167E+04  0.65864270000E+03 0. -1.
    8880022    1    1    2    0    0 -0.33466538923E+03  0.97662633451E+03  0.13876372916E+04  0.17362974475E+04  0.15294330000E+03 0.  0.
<mgrwt>
<rscale>  0 0.11766029E+04</rscale>
<asrwt>0</asrwt>
<pdfrwt beam="1">  1        2 0.28111754E+00 0.12245857E+04</pdfrwt>
<pdfrwt beam="2">  1       -2 0.27519657E+00 0.12245857E+04</pdfrwt>
<totfact> 0.36439812E-01</totfact>
</mgrwt>
</event>
<event>
 4    2  0.3171963E-007  0.6645670E+03  0.7818608E-02  0.1019900E+00
         -2   -1    0    0    0  501 -0.00000000000E+00  0.00000000000E+00  0.21121354019E+03  0.21121354020E+03  0.25500000000E-02 0.  1.
          2   -1    0    0  501    0  0.00000000000E+00 -0.00000000000E+00 -0.84700209991E+03  0.84700209992E+03  0.25500000000E-02 0. -1.
    8880023    1    1    2    0    0  0.55945445033E+02  0.68623369567E+02 -0.54542213867E+03  0.85972936165E+03  0.65864270000E+03 0. -1.
    8880022    1    1    2    0    0 -0.55945445033E+02 -0.68623369567E+02 -0.90366421057E+02  0.19848627847E+03  0.15294330000E+03 0.  1.
<mgrwt>
<rscale>  0 0.47722898E+03</rscale>
<asrwt>0</asrwt>
<pdfrwt beam="1">  1        2 0.13030801E+00 0.66456698E+03</pdfrwt>
<pdfrwt beam="2">  1       -2 0.32494391E-01 0.66456698E+03</pdfrwt>
<totfact> 0.28474413E+02</totfact>
</mgrwt>
</event>
<event>
 4    2  0.3171963E-007  0.6869724E+03  0.7818608E-02  0.1005626E+00
         -2   -1    0    0    0  501 -0.00000000000E+00  0.00000000000E+00  0.37549754256E+04  0.37549754256E+04  0.25500000000E-02 0.  1.
          2   -1    0    0  501    0  0.00000000000E+00 -0.00000000000E+00 -0.21300087194E+03  0.21300087195E+03  0.25500000000E-02 0. -1.
    8880023    1    1    2    0    0  0.16854957931E+03 -0.98549316384E+02  0.35856390870E+03  0.77491884177E+03  0.65864270000E+03 0. -1.
    8880022    1    1    2    0    0 -0.16854957931E+03  0.98549316384E+02  0.31834106449E+04  0.31930574557E+04  0.15294330000E+03 0.  0.
<mgrwt>
<rscale>  0 0.53250658E+03</rscale>
<asrwt>0</asrwt>
<pdfrwt beam="1">  1        2 0.32769368E-01 0.68697244E+03</pdfrwt>
<pdfrwt beam="2">  1       -2 0.57768847E+00 0.68697244E+03</pdfrwt>
<totfact> 0.10488389E-01</totfact>
</mgrwt>
</event>
<event>
 4    2  0.3171963E-007  0.6811342E+03  0.7818608E-02  0.1008689E+00
          2   -1    0    0  501    0  0.00000000000E+00  0.00000000000E+00  0.94362837173E+03  0.94362837173E+03  0.25500000000E-02 0. -1.
         -2   -1    0    0    0  501 -0.00000000000E+00 -0.00000000000E+00 -0.59594522877E+03  0.59594522877E+03  0.25500000000E-02 0.  1.
    8880023    1    1    2    0    0 -0.61283182572E+02 -0.16241313841E+03  0.78836336718E+03  0.10418544337E+04  0.65864270000E+03 0. -1.
    8880022    1    1    2    0    0  0.61283182572E+02  0.16241313841E+03 -0.44068022422E+03  0.49771916683E+03  0.15294330000E+03 0.  0.
<mgrwt>
<rscale>  0 0.51998933E+03</rscale>
<asrwt>0</asrwt>
<pdfrwt beam="1">  1        2 0.14517360E+00 0.68113425E+03</pdfrwt>
<pdfrwt beam="2">  1       -2 0.91683881E-01 0.68113425E+03</pdfrwt>
<totfact> 0.28383272E+01</totfact>
</mgrwt>
</event>
<event>
 4    2  0.3171963E-007  0.8255370E+03  0.7818608E-02  0.9658079E-01
         -2   -1    0    0    0  501 -0.00000000000E+00  0.00000000000E+00  0.34131793344E+03  0.34131793345E+03  0.25500000000E-02 0.  1.
          2   -1    0    0  501    0  0.00000000000E+00 -0.00000000000E+00 -0.13939880048E+04  0.13939880048E+04  0.25500000000E-02 0. -1.
    8880023    1    1    2    0    0 -0.32137122266E+03  0.38002861788E+03 -0.45489473179E+03  0.94257128984E+03  0.65864270000E+03 0. -1.
    8880022    1    1    2    0    0  0.32137122266E+03 -0.38002861788E+03 -0.59777533956E+03  0.79273464839E+03  0.15294330000E+03 0.  1.
<mgrwt>
<rscale>  0 0.73568549E+03</rscale>
<asrwt>0</asrwt>
<pdfrwt beam="1">  1        2 0.21445969E+00 0.82553705E+03</pdfrwt>
<pdfrwt beam="2">  1       -2 0.52510452E-01 0.82553705E+03</pdfrwt>
<totfact> 0.50554538E+01</totfact>
</mgrwt>
</event>
<event>
 4    2  0.3171963E-007  0.7471809E+03  0.7818608E-02  0.9839502E-01
          2   -1    0    0  501    0  0.00000000000E+00  0.00000000000E+00  0.44175539197E+03  0.44175539198E+03  0.25500000000E-02 0. -1.
         -2   -1    0    0    0  501 -0.00000000000E+00 -0.00000000000E+00 -0.19261685836E+04  0.19261685836E+04  0.25500000000E-02 0.  1.
    8880023    1    1    2    0    0  0.31592941268E+03  0.15702791993E+03  0.85083017171E+02  0.75200963259E+03  0.65864270000E+03 0. -1.
    8880022    1    1    2    0    0 -0.31592941268E+03 -0.15702791993E+03 -0.15694962088E+04  0.16159143430E+04  0.15294330000E+03 0.  0.
<mgrwt>
<rscale>  0 0.63285028E+03</rscale>
<asrwt>0</asrwt>
<pdfrwt beam="1">  1        2 0.67962369E-01 0.74718095E+03</pdfrwt>
<pdfrwt beam="2">  1       -2 0.29633362E+00 0.74718095E+03</pdfrwt>
<totfact> 0.24738669E+00</totfact>
</mgrwt>
</event>
<event>
 4    2  0.3171963E-007  0.7874059E+03  0.7818608E-02  0.9738719E-01
         -2   -1    0    0    0  501 -0.00000000000E+00  0.00000000000E+00  0.71695948614E+03  0.71695948614E+03  0.25500000000E-02 0.  1.
          2   -1    0    0  501    0  0.00000000000E+00 -0.00000000000E+00 -0.54071640428E+03  0.54071640429E+03  0.25500000000E-02 0. -1.
    8880023    1    1    2    0    0 -0.10706178318E+03  0.41801397940E+03  0.11689886292E+03  0.79603609391E+03  0.65864270000E+03 0.  1.
    8880022    1    1    2    0    0  0.10706178318E+03 -0.41801397940E+03  0.59344218930E+02  0.46163979652E+03  0.15294330000E+03 0. -1.
<mgrwt>
<rscale>  0 0.68757523E+03</rscale>
<asrwt>0</asrwt>
<pdfrwt beam="1">  1        2 0.83187139E-01 0.78740594E+03</pdfrwt>
<pdfrwt beam="2">  1       -2 0.11030146E+00 0.78740594E+03</pdfrwt>
<totfact> 0.37010816E+01</totfact>
</mgrwt>
</event>
<event>
 4    2  0.3171963E-007  0.7435825E+03  0.7818608E-02  0.9849632E-01
         -2   -1    0    0    0  501 -0.00000000000E+00  0.00000000000E+00  0.91046276655E+03  0.91046276656E+03  0.25500000000E-02 0.  1.
          2   -1    0    0  501    0  0.00000000000E+00 -0.00000000000E+00 -0.11444801320E+04  0.11444801321E+04  0.25500000000E-02 0. -1.
    8880023    1    1    2    0    0  0.17625774537E+03  0.29671186770E+03 -0.97331399556E+03  0.12248489970E+04  0.65864270000E+03 0.  0.
    8880022    1    1    2    0    0 -0.17625774537E+03 -0.29671186770E+03  0.73929663007E+03  0.83009390160E+03  0.15294330000E+03 0.  0.
<mgrwt>
<rscale>  0 0.62765696E+03</rscale>
<asrwt>0</asrwt>
<pdfrwt beam="1">  1        2 0.17607387E+00 0.74358250E+03</pdfrwt>
<pdfrwt beam="2">  1       -2 0.14007120E+00 0.74358250E+03</pdfrwt>
<totfact> 0.74903582E+00</totfact>
</mgrwt>
</event>
<event>
 4    2  0.3171963E-007  0.7039803E+03  0.7818608E-02  0.9981073E-01
         -2   -1    0    0    0  501 -0.00000000000E+00  0.00000000000E+00  0.19943299466E+03  0.19943299468E+03  0.25500000000E-02 0.  1.
          2   -1    0    0  501    0  0.00000000000E+00 -0.00000000000E+00 -0.29062380490E+04  0.29062380490E+04  0.25500000000E-02 0. -1.
    8880023    1    1    2    0    0  0.22632015043E+03  0.10274879276E+03 -0.27238339309E+04  0.28133360294E+04  0.65864270000E+03 0. -1.
    8880022    1    1    2    0    0 -0.22632015043E+03 -0.10274879276E+03  0.17028876600E+02  0.29233501425E+03  0.15294330000E+03 0.  0.
<mgrwt>
<rscale>  0 0.56487986E+03</rscale>
<asrwt>0</asrwt>
<pdfrwt beam="1">  1        2 0.44711352E+00 0.70398035E+03</pdfrwt>
<pdfrwt beam="2">  1       -2 0.30682001E-01 0.70398035E+03</pdfrwt>
<totfact> 0.20836408E+01</totfact>
</mgrwt>
</event>
<event>
 4    2  0.3171963E-007  0.6990021E+03  0.7818608E-02  0.1000137E+00
         -2   -1    0    0    0  501 -0.00000000000E+00  0.00000000000E+00  0.38168794521E+03  0.38168794522E+03  0.25500000000E-02 0.  1.
          2   -1    0    0  501    0  0.00000000000E+00 -0.00000000000E+00 -0.67116230020E+03  0.67116230020E+03  0.25500000000E-02 0. -1.
    8880023    1    1    2    0    0 -0.21316112459E+03 -0.96726794011E+02 -0.32522532915E+03  0.77095749474E+03  0.65864270000E+03 0. -1.
    8880022    1    1    2    0    0  0.21316112459E+03  0.96726794011E+02  0.35750974164E+02  0.28189275067E+03  0.15294330000E+03 0.  1.
<mgrwt>
<rscale>  0 0.55590370E+03</rscale>
<asrwt>0</asrwt>
<pdfrwt beam="1">  1        2 0.10325574E+00 0.69900211E+03</pdfrwt>
<pdfrwt beam="2">  1       -2 0.58721222E-01 0.69900211E+03</pdfrwt>
<totfact> 0.11878868E+02</totfact>
</mgrwt>
</event>
<event>
 4    2  0.3171963E-007  0.7831766E+03  0.7818608E-02  0.9748427E-01
         -2   -1    0    0    0  501 -0.00000000000E+00  0.00000000000E+00  0.42363069917E+03  0.42363069918E+03  0.25500000000E-02 0.  1.
          2   -1    0    0  501    0  0.00000000000E+00 -0.00000000000E+00 -0.16644327639E+04  0.16644327639E+04  0.25500000000E-02 0. -1.
    8880023    1    1    2    0    0  0.37225973093E+03 -0.20243056183E+03 -0.14050323841E+04  0.16085650892E+04  0.65864270000E+03 0. -1.
    8880022    1    1    2    0    0 -0.37225973093E+03  0.20243056183E+03  0.16423031944E+03  0.47949837380E+03  0.15294330000E+03 0.  0.
<mgrwt>
<rscale>  0 0.68205225E+03</rscale>
<asrwt>0</asrwt>
<pdfrwt beam="1">  1        2 0.25606658E+00 0.78317664E+03</pdfrwt>
<pdfrwt beam="2">  1       -2 0.65173955E-01 0.78317664E+03</pdfrwt>
<totfact> 0.22785422E+01</totfact>
</mgrwt>
</event>
<event>
 4    2  0.3171963E-007  0.7380131E+03  0.7818608E-02  0.9865773E-01
          2   -1    0    0  501    0  0.00000000000E+00  0.00000000000E+00  0.11987886947E+04  0.11987886947E+04  0.25500000000E-02 0. -1.
         -2   -1    0    0    0  501 -0.00000000000E+00 -0.00000000000E+00 -0.38384705090E+03  0.38384705091E+03  0.25500000000E-02 0.  1.
    8880023    1    1    2    0    0 -0.32503825233E+03 -0.72133296351E+02  0.94034871308E+03  0.11953739944E+04  0.65864270000E+03 0.  0.
    8880022    1    1    2    0    0  0.32503825233E+03  0.72133296351E+02 -0.12540706930E+03  0.38726175123E+03  0.15294330000E+03 0.  0.
<mgrwt>
<rscale>  0 0.61949127E+03</rscale>
<asrwt>0</asrwt>
<pdfrwt beam="1">  1        2 0.18442903E+00 0.73801307E+03</pdfrwt>
<pdfrwt beam="2">  1       -2 0.59053393E-01 0.73801307E+03</pdfrwt>
<totfact> 0.51770468E+01</totfact>
</mgrwt>
</event>
<event>
 4    2  0.3171963E-007  0.1217008E+04  0.7818608E-02  0.9140764E-01
         -2   -1    0    0    0  501 -0.00000000000E+00  0.00000000000E+00  0.10499106311E+04  0.10499106311E+04  0.25500000000E-02 0.  1.
          2   -1    0    0  501    0  0.00000000000E+00 -0.00000000000E+00 -0.21161554241E+04  0.21161554241E+04  0.25500000000E-02 0. -1.
    8880023    1    1    2    0    0 -0.93840642769E+03  0.40827906654E+03  0.47773779586E+03  0.13074180768E+04  0.65864270000E+03 0.  0.
    8880022    1    1    2    0    0  0.93840642769E+03 -0.40827906654E+03 -0.15439825888E+04  0.18586479783E+04  0.15294330000E+03 0.  0.
<mgrwt>
<rscale>  0 0.11686328E+04</rscale>
<asrwt>0</asrwt>
<pdfrwt beam="1">  1        2 0.32556237E+00 0.12170081E+04</pdfrwt>
<pdfrwt beam="2">  1       -2 0.16152471E+00 0.12170081E+04</pdfrwt>
<totfact> 0.13720690E+00</totfact>
</mgrwt>
</event>
<event>
 4    2  0.3171963E-007  0.6666522E+03  0.7818608E-02  0.1018186E+00
          2   -1    0    0  501    0  0.00000000000E+00  0.00000000000E+00  0.15715186848E+04  0.15715186848E+04  0.25500000000E-02 0. -1.
         -2   -1    0    0    0  501 -0.00000000000E+00 -0.00000000000E+00 -0.40699359979E+03  0.40699359980E+03  0.25500000000E-02 0.  1.
    8880023    1    1    2    0    0  0.41349696797E+02  0.94367086213E+02  0.14742908171E+04  0.16180106811E+04  0.65864270000E+03 0. -1.
    8880022    1    1    2    0    0 -0.41349696797E+02 -0.94367086213E+02 -0.30976573207E+03  0.36050160356E+03  0.15294330000E+03 0.  0.
<mgrwt>
<rscale>  0 0.48347039E+03</rscale>
<asrwt>0</asrwt>
<pdfrwt beam="1">  1        2 0.24177210E+00 0.66665220E+03</pdfrwt>
<pdfrwt beam="2">  1       -2 0.62614401E-01 0.66665220E+03</pdfrwt>
<totfact> 0.28336092E+01</totfact>
</mgrwt>
</event>
<event>
 4    2  0.3171963E-007  0.7875926E+03  0.7818608E-02  0.9738295E-01
          2   -1    0    0  501    0  0.00000000000E+00  0.00000000000E+00  0.93323907524E+03  0.93323907524E+03  0.25500000000E-02 0. -1.
         -2   -1    0    0    0  501 -0.00000000000E+00 -0.00000000000E+00 -0.72783964918E+03  0.72783964919E+03  0.25500000000E-02 0.  1.
    8880023    1    1    2    0    0 -0.69514589175E+02  0.42621547848E+03  0.65112686086E+03  0.10218944698E+04  0.65864270000E+03 0.  0.
    8880022    1    1    2    0    0  0.69514589175E+02 -0.42621547848E+03 -0.44572743481E+03  0.63918425463E+03  0.15294330000E+03 0.  0.
<mgrwt>
<rscale>  0 0.68781799E+03</rscale>
<asrwt>0</asrwt>
<pdfrwt beam="1">  1        2 0.14357524E+00 0.78759261E+03</pdfrwt>
<pdfrwt beam="2">  1       -2 0.11197533E+00 0.78759261E+03</pdfrwt>
<totfact> 0.17737004E+01</totfact>
</mgrwt>
</event>
<event>
 4    2  0.3171963E-007  0.7651319E+03  0.7818608E-02  0.9791998E-01
          2   -1    0    0  501    0  0.00000000000E+00  0.00000000000E+00  0.51094947031E+03  0.51094947031E+03  0.25500000000E-02 0. -1.
         -2   -1    0    0    0  501 -0.00000000000E+00 -0.00000000000E+00 -0.70877292645E+03  0.70877292646E+03  0.25500000000E-02 0.  1.
    8880023    1    1    2    0    0 -0.15183902263E+03 -0.35855468260E+03 -0.20647887663E+02  0.76541040673E+03  0.65864270000E+03 0.  0.
    8880022    1    1    2    0    0  0.15183902263E+03  0.35855468260E+03 -0.17717556849E+03  0.45431199004E+03  0.15294330000E+03 0.  0.
<mgrwt>
<rscale>  0 0.65793731E+03</rscale>
<asrwt>0</asrwt>
<pdfrwt beam="1">  1        2 0.78607611E-01 0.76513185E+03</pdfrwt>
<pdfrwt beam="2">  1       -2 0.10904199E+00 0.76513185E+03</pdfrwt>
<totfact> 0.40733034E+01</totfact>
</mgrwt>
</event>
<event>
 4    2  0.3171963E-007  0.1285748E+04  0.7818608E-02  0.9077966E-01
          2   -1    0    0  501    0  0.00000000000E+00  0.00000000000E+00  0.14482724649E+04  0.14482724649E+04  0.25500000000E-02 0. -1.
         -2   -1    0    0    0  501 -0.00000000000E+00 -0.00000000000E+00 -0.11946955543E+04  0.11946955543E+04  0.25500000000E-02 0.  1.
    8880023    1    1    2    0    0 -0.11025549281E+04  0.60917392766E+02 -0.40520132679E+03  0.13480862805E+04  0.65864270000E+03 0.  0.
    8880022    1    1    2    0    0  0.11025549281E+04 -0.60917392766E+02  0.65877823737E+03  0.12948817387E+04  0.15294330000E+03 0.  0.
<mgrwt>
<rscale>  0 0.12406922E+04</rscale>
<asrwt>0</asrwt>
<pdfrwt beam="1">  1        2 0.22281115E+00 0.12857482E+04</pdfrwt>
<pdfrwt beam="2">  1       -2 0.18379932E+00 0.12857482E+04</pdfrwt>
<totfact> 0.22309995E+00</totfact>
</mgrwt>
</event>
<event>
 4    2  0.3171963E-007  0.9623480E+03  0.7818608E-02  0.9432566E-01
          2   -1    0    0  501    0  0.00000000000E+00  0.00000000000E+00  0.28017073467E+04  0.28017073467E+04  0.25500000000E-02 0. -1.
         -2   -1    0    0    0  501 -0.00000000000E+00 -0.00000000000E+00 -0.27607865110E+03  0.27607865111E+03  0.25500000000E-02 0.  1.
    8880023    1    1    2    0    0  0.10844239007E+03 -0.69321258088E+03  0.98013127674E+03  0.13735978160E+04  0.65864270000E+03 0.  1.
    8880022    1    1    2    0    0 -0.10844239007E+03  0.69321258088E+03  0.15454974189E+04  0.17041881818E+04  0.15294330000E+03 0.  0.
<mgrwt>
<rscale>  0 0.89443386E+03</rscale>
<asrwt>0</asrwt>
<pdfrwt beam="1">  1        2 0.43103192E+00 0.96234798E+03</pdfrwt>
<pdfrwt beam="2">  1       -2 0.42473636E-01 0.96234798E+03</pdfrwt>
<totfact> 0.12404966E+01</totfact>
</mgrwt>
</event>
<event>
 4    2  0.3171963E-007  0.8456370E+03  0.7818608E-02  0.9619641E-01
          2   -1    0    0  501    0  0.00000000000E+00  0.00000000000E+00  0.94580027797E+03  0.94580027797E+03  0.25500000000E-02 0. -1.
         -2   -1    0    0    0  501 -0.00000000000E+00 -0.00000000000E+00 -0.54766434848E+03  0.54766434848E+03  0.25500000000E-02 0.  1.
    8880023    1    1    2    0    0  0.32875561570E+03 -0.41618689924E+03  0.41339074684E+03  0.94127249284E+03  0.65864270000E+03 0.  0.
    8880022    1    1    2    0    0 -0.32875561570E+03  0.41618689924E+03 -0.15254817343E+02  0.55219213361E+03  0.15294330000E+03 0.  0.
<mgrwt>
<rscale>  0 0.76009715E+03</rscale>
<asrwt>0</asrwt>
<pdfrwt beam="1">  1        2 0.14550773E+00 0.84563704E+03</pdfrwt>
<pdfrwt beam="2">  1       -2 0.84256055E-01 0.84563704E+03</pdfrwt>
<totfact> 0.33824544E+01</totfact>
</mgrwt>
</event>
<event>
 4    2  0.3171963E-007  0.7410372E+03  0.7818608E-02  0.9856936E-01
          2   -1    0    0  501    0  0.00000000000E+00  0.00000000000E+00  0.92578724851E+03  0.92578724851E+03  0.25500000000E-02 0. -1.
         -2   -1    0    0    0  501 -0.00000000000E+00 -0.00000000000E+00 -0.75926747913E+03  0.75926747913E+03  0.25500000000E-02 0.  1.
    8880023    1    1    2    0    0  0.31903003632E+03 -0.11638630832E+03  0.70995251077E+03  0.10262400843E+04  0.65864270000E+03 0. -1.
    8880022    1    1    2    0    0 -0.31903003632E+03  0.11638630832E+03 -0.54343274139E+03  0.65881464333E+03  0.15294330000E+03 0.  0.
<mgrwt>
<rscale>  0 0.62394521E+03</rscale>
<asrwt>0</asrwt>
<pdfrwt beam="1">  1        2 0.14242881E+00 0.74103721E+03</pdfrwt>
<pdfrwt beam="2">  1       -2 0.11681038E+00 0.74103721E+03</pdfrwt>
<totfact> 0.16259604E+01</totfact>
</mgrwt>
</event>
<event>
 4    2  0.3171963E-007  0.7336198E+03  0.7818608E-02  0.9878938E-01
         -2   -1    0    0    0  501 -0.00000000000E+00  0.00000000000E+00  0.37470533125E+04  0.37470533125E+04  0.25500000000E-02 0.  1.
          2   -1    0    0  501    0  0.00000000000E+00 -0.00000000000E+00 -0.40077367628E+03  0.40077367628E+03  0.25500000000E-02 0. -1.
    8880023    1    1    2    0    0 -0.30887872185E+03 -0.94771667931E+02 -0.47611269463E+02  0.73516309286E+03  0.65864270000E+03 0.  0.
    8880022    1    1    2    0    0  0.30887872185E+03  0.94771667931E+02  0.33938909057E+04  0.34126638960E+04  0.15294330000E+03 0.  0.
<mgrwt>
<rscale>  0 0.61292998E+03</rscale>
<asrwt>0</asrwt>
<pdfrwt beam="1">  1        2 0.61657487E-01 0.73361975E+03</pdfrwt>
<pdfrwt beam="2">  1       -2 0.57646976E+00 0.73361975E+03</pdfrwt>
<totfact> 0.52051662E-02</totfact>
</mgrwt>
</event>
<event>
 4    2  0.3171963E-007  0.8978914E+03  0.7818608E-02  0.9529425E-01
          2   -1    0    0  501    0  0.00000000000E+00  0.00000000000E+00  0.83901647761E+03  0.83901647761E+03  0.25500000000E-02 0. -1.
         -2   -1    0    0    0  501 -0.00000000000E+00 -0.00000000000E+00 -0.84796658295E+03  0.84796658296E+03  0.25500000000E-02 0.  1.
    8880023    1    1    2    0    0  0.45857714575E+03 -0.40262364226E+03 -0.35904007590E+03  0.96701539712E+03  0.65864270000E+03 0.  1.
    8880022    1    1    2    0    0 -0.45857714575E+03  0.40262364226E+03  0.35008997056E+03  0.71996766345E+03  0.15294330000E+03 0.  0.
<mgrwt>
<rscale>  0 0.82148763E+03</rscale>
<asrwt>0</asrwt>
<pdfrwt beam="1">  1        2 0.12907946E+00 0.89789142E+03</pdfrwt>
<pdfrwt beam="2">  1       -2 0.13045640E+00 0.89789142E+03</pdfrwt>
<totfact> 0.13920907E+01</totfact>
</mgrwt>
</event>
<event>
 4    2  0.3171963E-007  0.7479148E+03  0.7818608E-02  0.9837464E-01
         -2   -1    0    0    0  501 -0.00000000000E+00  0.00000000000E+00  0.59290660662E+03  0.59290660663E+03  0.25500000000E-02 0.  1.
          2   -1    0    0  501    0  0.00000000000E+00 -0.00000000000E+00 -0.77801943777E+03  0.77801943778E+03  0.25500000000E-02 0. -1.
    8880023    1    1    2    0    0  0.12875993411E+03  0.33013218797E+03 -0.47695811146E+03  0.88705446762E+03  0.65864270000E+03 0.  0.
    8880022    1    1    2    0    0 -0.12875993411E+03 -0.33013218797E+03  0.29184528031E+03  0.48387157678E+03  0.15294330000E+03 0.  0.
<mgrwt>
<rscale>  0 0.63390197E+03</rscale>
<asrwt>0</asrwt>
<pdfrwt beam="1">  1        2 0.11969530E+00 0.74791483E+03</pdfrwt>
<pdfrwt beam="2">  1       -2 0.91216401E-01 0.74791483E+03</pdfrwt>
<totfact> 0.37129199E+01</totfact>
</mgrwt>
</event>
<event>
 4    2  0.3171963E-007  0.8912256E+03  0.7818608E-02  0.9540267E-01
         -2   -1    0    0    0  501 -0.00000000000E+00  0.00000000000E+00  0.52187375067E+03  0.52187375067E+03  0.25500000000E-02 0.  1.
          2   -1    0    0  501    0  0.00000000000E+00 -0.00000000000E+00 -0.19406618492E+04  0.19406618492E+04  0.25500000000E-02 0. -1.
    8880023    1    1    2    0    0  0.61135529585E+02 -0.59727321290E+03 -0.15873656533E+04  0.18204430140E+04  0.65864270000E+03 0. -1.
    8880022    1    1    2    0    0 -0.61135529585E+02  0.59727321290E+03  0.16857755475E+03  0.64209258585E+03  0.15294330000E+03 0.  0.
<mgrwt>
<rscale>  0 0.81379118E+03</rscale>
<asrwt>0</asrwt>
<pdfrwt beam="1">  1        2 0.29856336E+00 0.89122559E+03</pdfrwt>
<pdfrwt beam="2">  1       -2 0.80288270E-01 0.89122559E+03</pdfrwt>
<totfact> 0.10024645E+01</totfact>
</mgrwt>
</event>
<event>
 4    2  0.3171963E-007  0.9732922E+03  0.7818608E-02  0.9417365E-01
          2   -1    0    0  501    0  0.00000000000E+00  0.00000000000E+00  0.25153260547E+04  0.25153260547E+04  0.25500000000E-02 0. -1.
         -2   -1    0    0    0  501 -0.00000000000E+00 -0.00000000000E+00 -0.31375527183E+03  0.31375527184E+03  0.25500000000E-02 0.  1.
    8880023    1    1    2    0    0 -0.55760487200E+03  0.45007152936E+03  0.85241608860E+03  0.12937971128E+04  0.65864270000E+03 0.  0.
    8880022    1    1    2    0    0  0.55760487200E+03 -0.45007152936E+03  0.13491546943E+04  0.15352842138E+04  0.15294330000E+03 0.  0.
<mgrwt>
<rscale>  0 0.90660273E+03</rscale>
<asrwt>0</asrwt>
<pdfrwt beam="1">  1        2 0.38697324E+00 0.97329224E+03</pdfrwt>
<pdfrwt beam="2">  1       -2 0.48270042E-01 0.97329224E+03</pdfrwt>
<totfact> 0.14083786E+01</totfact>
</mgrwt>
</event>
<event>
 4    2  0.3171963E-007  0.6936733E+03  0.7818608E-02  0.1002453E+00
          2   -1    0    0  501    0  0.00000000000E+00  0.00000000000E+00  0.18489175100E+04  0.18489175100E+04  0.25500000000E-02 0. -1.
         -2   -1    0    0    0  501 -0.00000000000E+00 -0.00000000000E+00 -0.25751840884E+03  0.25751840885E+03  0.25500000000E-02 0.  1.
    8880023    1    1    2    0    0  0.14914097010E+03 -0.15852280022E+03  0.16867745649E+04  0.18238396711E+04  0.65864270000E+03 0.  0.
    8880022    1    1    2    0    0 -0.14914097010E+03  0.15852280022E+03 -0.95375463661E+02  0.28259624774E+03  0.15294330000E+03 0.  0.
<mgrwt>
<rscale>  0 0.54587465E+03</rscale>
<asrwt>0</asrwt>
<pdfrwt beam="1">  1        2 0.28444886E+00 0.69367335E+03</pdfrwt>
<pdfrwt beam="2">  1       -2 0.39618216E-01 0.69367335E+03</pdfrwt>
<totfact> 0.50517933E+01</totfact>
</mgrwt>
</event>
<event>
 4    2  0.3171963E-007  0.6915166E+03  0.7818608E-02  0.1003440E+00
          2   -1    0    0  501    0  0.00000000000E+00  0.00000000000E+00  0.35908672184E+04  0.35908672184E+04  0.25500000000E-02 0. -1.
         -2   -1    0    0    0  501 -0.00000000000E+00 -0.00000000000E+00 -0.18732622124E+03  0.18732622125E+03  0.25500000000E-02 0.  1.
    8880023    1    1    2    0    0 -0.15014466739E+03  0.14778913554E+03  0.34457501401E+04  0.35144543366E+04  0.65864270000E+03 0.  0.
    8880022    1    1    2    0    0  0.15014466739E+03 -0.14778913554E+03 -0.42209142924E+02  0.26373910307E+03  0.15294330000E+03 0.  0.
<mgrwt>
<rscale>  0 0.54167280E+03</rscale>
<asrwt>0</asrwt>
<pdfrwt beam="1">  1        2 0.55244107E+00 0.69151663E+03</pdfrwt>
<pdfrwt beam="2">  1       -2 0.28819421E-01 0.69151663E+03</pdfrwt>
<totfact> 0.84962297E+00</totfact>
</mgrwt>
</event>
<event>
 4    2  0.3171963E-007  0.8947949E+03  0.7818608E-02  0.9534440E-01
          2   -1    0    0  501    0  0.00000000000E+00  0.00000000000E+00  0.15361864740E+04  0.15361864740E+04  0.25500000000E-02 0. -1.
         -2   -1    0    0    0  501 -0.00000000000E+00 -0.00000000000E+00 -0.53803884094E+03  0.53803884095E+03  0.25500000000E-02 0.  1.
    8880023    1    1    2    0    0 -0.59462490580E+03 -0.11519114353E+03 -0.22572163670E+01  0.89479778690E+03  0.65864270000E+03 0.  0.
    8880022    1    1    2    0    0  0.59462490580E+03  0.11519114353E+03  0.10004048494E+04  0.11794275280E+04  0.15294330000E+03 0.  0.
<mgrwt>
<rscale>  0 0.81791662E+03</rscale>
<asrwt>0</asrwt>
<pdfrwt beam="1">  1        2 0.23633638E+00 0.89479494E+03</pdfrwt>
<pdfrwt beam="2">  1       -2 0.82775206E-01 0.89479494E+03</pdfrwt>
<totfact> 0.15619224E+01</totfact>
</mgrwt>
</event>
<event>
 4    2  0.3171963E-007  0.7630431E+03  0.7818608E-02  0.9797292E-01
         -2   -1    0    0    0  501 -0.00000000000E+00  0.00000000000E+00  0.45682089744E+03  0.45682089745E+03  0.25500000000E-02 0.  1.
          2   -1    0    0  501    0  0.00000000000E+00 -0.00000000000E+00 -0.22500581821E+04  0.22500581821E+04  0.25500000000E-02 0. -1.
    8880023    1    1    2    0    0  0.22328079431E+03 -0.31395909689E+03 -0.20715450311E+04  0.22076081287E+04  0.65864270000E+03 0. -1.
    8880022    1    1    2    0    0 -0.22328079431E+03  0.31395909689E+03  0.27830774645E+03  0.49927095087E+03  0.15294330000E+03 0.  0.
<mgrwt>
<rscale>  0 0.65508078E+03</rscale>
<asrwt>0</asrwt>
<pdfrwt beam="1">  1        2 0.34616279E+00 0.76304314E+03</pdfrwt>
<pdfrwt beam="2">  1       -2 0.70280139E-01 0.76304314E+03</pdfrwt>
<totfact> 0.92707031E+00</totfact>
</mgrwt>
</event>
<event>
 4    2  0.3171963E-007  0.6825257E+03  0.7818608E-02  0.1007930E+00
          2   -1    0    0  501    0  0.00000000000E+00  0.00000000000E+00  0.81832638725E+03  0.81832638726E+03  0.25500000000E-02 0. -1.
         -2   -1    0    0    0  501 -0.00000000000E+00 -0.00000000000E+00 -0.41231771709E+03  0.41231771710E+03  0.25500000000E-02 0.  1.
    8880023    1    1    2    0    0  0.12790998206E+03 -0.12518073011E+03  0.61282924820E+03  0.91727916820E+03  0.65864270000E+03 0. -1.
    8880022    1    1    2    0    0 -0.12790998206E+03  0.12518073011E+03 -0.20682057803E+03  0.31336493616E+03  0.15294330000E+03 0.  0.
<mgrwt>
<rscale>  0 0.52305862E+03</rscale>
<asrwt>0</asrwt>
<pdfrwt beam="1">  1        2 0.12589637E+00 0.68252574E+03</pdfrwt>
<pdfrwt beam="2">  1       -2 0.63433496E-01 0.68252574E+03</pdfrwt>
<totfact> 0.78274959E+01</totfact>
</mgrwt>
</event>
<event>
 4    2  0.3171963E-007  0.9316863E+03  0.7818608E-02  0.9476968E-01
          2   -1    0    0  501    0  0.00000000000E+00  0.00000000000E+00  0.16245972450E+04  0.16245972450E+04  0.25500000000E-02 0. -1.
         -2   -1    0    0    0  501 -0.00000000000E+00 -0.00000000000E+00 -0.94404028906E+03  0.94404028906E+03  0.25500000000E-02 0.  1.
    8880023    1    1    2    0    0 -0.46813859705E+03 -0.46376224368E+03  0.13346323236E+04  0.16276617616E+04  0.65864270000E+03 0. -1.
    8880022    1    1    2    0    0  0.46813859705E+03  0.46376224368E+03 -0.65407536768E+03  0.94097577244E+03  0.15294330000E+03 0.  0.
<mgrwt>
<rscale>  0 0.86003377E+03</rscale>
<asrwt>0</asrwt>
<pdfrwt beam="1">  1        2 0.24993804E+00 0.93168631E+03</pdfrwt>
<pdfrwt beam="2">  1       -2 0.14523697E+00 0.93168631E+03</pdfrwt>
<totfact> 0.35330319E+00</totfact>
</mgrwt>
</event>
<event>
 4    2  0.3171963E-007  0.7032603E+03  0.7818608E-02  0.9983936E-01
         -2   -1    0    0    0  501 -0.00000000000E+00  0.00000000000E+00  0.14411347976E+03  0.14411347978E+03  0.25500000000E-02 0.  1.
          2   -1    0    0  501    0  0.00000000000E+00 -0.00000000000E+00 -0.21371841283E+04  0.21371841283E+04  0.25500000000E-02 0. -1.
    8880023    1    1    2    0    0 -0.11497097947E+03 -0.21805160360E+03 -0.18008478800E+04  0.19332946287E+04  0.65864270000E+03 0. -1.
    8880022    1    1    2    0    0  0.11497097947E+03  0.21805160360E+03 -0.19222276856E+03  0.34800297947E+03  0.15294330000E+03 0.  0.
<mgrwt>
<rscale>  0 0.56360264E+03</rscale>
<asrwt>0</asrwt>
<pdfrwt beam="1">  1        2 0.32879753E+00 0.70326029E+03</pdfrwt>
<pdfrwt beam="2">  1       -2 0.22171306E-01 0.70326029E+03</pdfrwt>
<totfact> 0.10303637E+02</totfact>
</mgrwt>
</event>
<event>
 4    2  0.3171963E-007  0.8132544E+03  0.7818608E-02  0.9682837E-01
         -2   -1    0    0    0  501 -0.00000000000E+00  0.00000000000E+00  0.64748053561E+03  0.64748053562E+03  0.25500000000E-02 0.  1.
          2   -1    0    0  501    0  0.00000000000E+00 -0.00000000000E+00 -0.84040148226E+03  0.84040148226E+03  0.25500000000E-02 0. -1.
    8880023    1    1    2    0    0  0.43897111203E+03 -0.18675368361E+03 -0.44503155127E+03  0.92705763760E+03  0.65864270000E+03 0.  0.
    8880022    1    1    2    0    0 -0.43897111203E+03  0.18675368361E+03  0.25211060463E+03  0.56082438028E+03  0.15294330000E+03 0.  0.
<mgrwt>
<rscale>  0 0.72047897E+03</rscale>
<asrwt>0</asrwt>
<pdfrwt beam="1">  1        2 0.12929254E+00 0.81325444E+03</pdfrwt>
<pdfrwt beam="2">  1       -2 0.99612390E-01 0.81325444E+03</pdfrwt>
<totfact> 0.27111726E+01</totfact>
</mgrwt>
</event>
<event>
 4    2  0.3171963E-007  0.9665972E+03  0.7818608E-02  0.9426626E-01
         -2   -1    0    0    0  501 -0.00000000000E+00  0.00000000000E+00  0.67905048925E+03  0.67905048926E+03  0.25500000000E-02 0.  1.
          2   -1    0    0  501    0  0.00000000000E+00 -0.00000000000E+00 -0.13644241593E+04  0.13644241593E+04  0.25500000000E-02 0. -1.
    8880023    1    1    2    0    0 -0.31198077732E+03 -0.63495513397E+03 -0.86564886438E+03  0.12975585498E+04  0.65864270000E+03 0. -1.
    8880022    1    1    2    0    0  0.31198077732E+03  0.63495513397E+03  0.18027519437E+03  0.74591609869E+03  0.15294330000E+03 0.  0.
<mgrwt>
<rscale>  0 0.89916491E+03</rscale>
<asrwt>0</asrwt>
<pdfrwt beam="1">  1        2 0.20991141E+00 0.96659724E+03</pdfrwt>
<pdfrwt beam="2">  1       -2 0.10446931E+00 0.96659724E+03</pdfrwt>
<totfact> 0.11259416E+01</totfact>
</mgrwt>
</event>
<event>
 4    2  0.3171963E-007  0.7496443E+03  0.7818608E-02  0.9832695E-01
          2   -1    0    0  501    0  0.00000000000E+00  0.00000000000E+00  0.16033586771E+04  0.16033586771E+04  0.25500000000E-02 0. -1.
         -2   -1    0    0    0  501 -0.00000000000E+00 -0.00000000000E+00 -0.48840658632E+03  0.48840658632E+03  0.25500000000E-02 0.  1.
    8880023    1    1    2    0    0  0.31582173394E+03  0.16856173839E+03  0.14142978527E+04  0.16006889297E+04  0.65864270000E+03 0. -1.
    8880022    1    1    2    0    0 -0.31582173394E+03 -0.16856173839E+03 -0.29934576196E+03  0.49107633368E+03  0.15294330000E+03 0.  0.
<mgrwt>
<rscale>  0 0.63637081E+03</rscale>
<asrwt>0</asrwt>
<pdfrwt beam="1">  1        2 0.24667057E+00 0.74964434E+03</pdfrwt>
<pdfrwt beam="2">  1       -2 0.75139474E-01 0.74964434E+03</pdfrwt>
<totfact> 0.18117752E+01</totfact>
</mgrwt>
</event>
<event>
 4    2  0.3171963E-007  0.6740874E+03  0.7818608E-02  0.1012888E+00
         -2   -1    0    0    0  501 -0.00000000000E+00  0.00000000000E+00  0.70958991774E+03  0.70958991775E+03  0.25500000000E-02 0.  1.
          2   -1    0    0  501    0  0.00000000000E+00 -0.00000000000E+00 -0.12252981196E+04  0.12252981196E+04  0.25500000000E-02 0. -1.
    8880023    1    1    2    0    0  0.43360822350E+02  0.13676061473E+03 -0.11133544038E+04  0.13015190592E+04  0.65864270000E+03 0. -1.
    8880022    1    1    2    0    0 -0.43360822350E+02 -0.13676061473E+03  0.59764620201E+03  0.63336897812E+03  0.15294330000E+03 0.  0.
<mgrwt>
<rscale>  0 0.50342901E+03</rscale>
<asrwt>0</asrwt>
<pdfrwt beam="1">  1        2 0.18850740E+00 0.67408741E+03</pdfrwt>
<pdfrwt beam="2">  1       -2 0.10916768E+00 0.67408741E+03</pdfrwt>
<totfact> 0.12609800E+01</totfact>
</mgrwt>
</event>
<event>
 4    2  0.3171963E-007  0.6631122E+03  0.7818608E-02  0.1021173E+00
          2   -1    0    0  501    0  0.00000000000E+00  0.00000000000E+00  0.47605061887E+03  0.47605061888E+03  0.25500000000E-02 0. -1.
         -2   -1    0    0    0  501 -0.00000000000E+00 -0.00000000000E+00 -0.40435272229E+03  0.40435272230E+03  0.25500000000E-02 0.  1.
    8880023    1    1    2    0    0 -0.74162189962E+02  0.20188485002E+02  0.16791792224E+03  0.68404257194E+03  0.65864270000E+03 0.  0.
    8880022    1    1    2    0    0  0.74162189962E+02 -0.20188485002E+02 -0.96220025660E+02  0.19636076925E+03  0.15294330000E+03 0.  0.
<mgrwt>
<rscale>  0 0.47265837E+03</rscale>
<asrwt>0</asrwt>
<pdfrwt beam="1">  1        2 0.73238557E-01 0.66311222E+03</pdfrwt>
<pdfrwt beam="2">  1       -2 0.62208111E-01 0.66311222E+03</pdfrwt>
<totfact> 0.15856310E+02</totfact>
</mgrwt>
</event>
<event>
 4    2  0.3171963E-007  0.7180266E+03  0.7818608E-02  0.9929321E-01
         -2   -1    0    0    0  501 -0.00000000000E+00  0.00000000000E+00  0.19555391043E+04  0.19555391043E+04  0.25500000000E-02 0.  1.
          2   -1    0    0  501    0  0.00000000000E+00 -0.00000000000E+00 -0.58602866887E+03  0.58602866887E+03  0.25500000000E-02 0. -1.
    8880023    1    1    2    0    0  0.10671406604E+03 -0.26526228350E+03 -0.34503818658E+03  0.79662634114E+03  0.65864270000E+03 0. -1.
    8880022    1    1    2    0    0 -0.10671406604E+03  0.26526228350E+03  0.17145486220E+04  0.17449414320E+04  0.15294330000E+03 0.  0.
<mgrwt>
<rscale>  0 0.58861085E+03</rscale>
<asrwt>0</asrwt>
<pdfrwt beam="1">  1        2 0.90158258E-01 0.71802659E+03</pdfrwt>
<pdfrwt beam="2">  1       -2 0.30085217E+00 0.71802659E+03</pdfrwt>
<totfact> 0.16793849E+00</totfact>
</mgrwt>
</event>
<event>
 4    2  0.3171963E-007  0.7304831E+03  0.7818608E-02  0.9888590E-01
         -2   -1    0    0    0  501 -0.00000000000E+00  0.00000000000E+00  0.17772203839E+03  0.17772203841E+03  0.25500000000E-02 0.  1.
          2   -1    0    0  501    0  0.00000000000E+00 -0.00000000000E+00 -0.24707403329E+04  0.24707403329E+04  0.25500000000E-02 0. -1.
    8880023    1    1    2    0    0  0.31505912354E+03 -0.23088006307E+02 -0.21478061296E+04  0.22686288114E+04  0.65864270000E+03 0. -1.
    8880022    1    1    2    0    0 -0.31505912354E+03  0.23088006307E+02 -0.14521216488E+03  0.37983355987E+03  0.15294330000E+03 0.  0.
<mgrwt>
<rscale>  0 0.60817450E+03</rscale>
<asrwt>0</asrwt>
<pdfrwt beam="1">  1        2 0.38011387E+00 0.73048307E+03</pdfrwt>
<pdfrwt beam="2">  1       -2 0.27341854E-01 0.73048307E+03</pdfrwt>
<totfact> 0.45966050E+01</totfact>
</mgrwt>
</event>
<event>
 4    2  0.3171963E-007  0.1079203E+04  0.7818608E-02  0.9284572E-01
         -2   -1    0    0    0  501 -0.00000000000E+00  0.00000000000E+00  0.14440038349E+04  0.14440038349E+04  0.25500000000E-02 0.  1.
          2   -1    0    0  501    0  0.00000000000E+00 -0.00000000000E+00 -0.10858469551E+04  0.10858469551E+04  0.25500000000E-02 0. -1.
    8880023    1    1    2    0    0  0.84981364644E+03 -0.93192182347E+02 -0.60153830129E+03  0.12355268312E+04  0.65864270000E+03 0.  0.
    8880022    1    1    2    0    0 -0.84981364644E+03  0.93192182347E+02  0.95969518105E+03  0.12943239587E+04  0.15294330000E+03 0.  1.
<mgrwt>
<rscale>  0 0.10221564E+04</rscale>
<asrwt>0</asrwt>
<pdfrwt beam="1">  1        2 0.16705338E+00 0.10792026E+04</pdfrwt>
<pdfrwt beam="2">  1       -2 0.22215444E+00 0.10792026E+04</pdfrwt>
<totfact> 0.20965951E+00</totfact>
</mgrwt>
</event>
<event>
 4    2  0.3171963E-007  0.1110085E+04  0.7818608E-02  0.9249910E-01
         -2   -1    0    0    0  501 -0.00000000000E+00  0.00000000000E+00  0.46706007729E+03  0.46706007730E+03  0.25500000000E-02 0.  1.
          2   -1    0    0  501    0  0.00000000000E+00 -0.00000000000E+00 -0.28178915304E+04  0.28178915304E+04  0.25500000000E-02 0. -1.
    8880023    1    1    2    0    0 -0.12591018191E+03 -0.88466151443E+03 -0.20473485697E+04  0.23289323178E+04  0.65864270000E+03 0. -1.
    8880022    1    1    2    0    0  0.12591018191E+03  0.88466151443E+03 -0.30348288341E+03  0.95601928985E+03  0.15294330000E+03 0.  1.
<mgrwt>
<rscale>  0 0.10552801E+04</rscale>
<asrwt>0</asrwt>
<pdfrwt beam="1">  1        2 0.43352176E+00 0.11100854E+04</pdfrwt>
<pdfrwt beam="2">  1       -2 0.71855398E-01 0.11100854E+04</pdfrwt>
<totfact> 0.39695507E+00</totfact>
</mgrwt>
</event>
<event>
 4    2  0.3171963E-007  0.9049662E+03  0.7818608E-02  0.9518106E-01
          2   -1    0    0  501    0  0.00000000000E+00  0.00000000000E+00  0.20679301608E+04  0.20679301608E+04  0.25500000000E-02 0. -1.
         -2   -1    0    0    0  501 -0.00000000000E+00 -0.00000000000E+00 -0.30289210428E+03  0.30289210429E+03  0.25500000000E-02 0.  1.
    8880023    1    1    2    0    0 -0.45871131344E+03 -0.41801630310E+03  0.12839626955E+04  0.15708354810E+04  0.65864270000E+03 0.  0.
    8880022    1    1    2    0    0  0.45871131344E+03  0.41801630310E+03  0.48107536109E+03  0.79998678415E+03  0.15294330000E+03 0.  0.
<mgrwt>
<rscale>  0 0.82962020E+03</rscale>
<asrwt>0</asrwt>
<pdfrwt beam="1">  1        2 0.31814311E+00 0.90496625E+03</pdfrwt>
<pdfrwt beam="2">  1       -2 0.46598784E-01 0.90496625E+03</pdfrwt>
<totfact> 0.27135708E+01</totfact>
</mgrwt>
</event>
<event>
 4    2  0.3171963E-007  0.7423949E+03  0.7818608E-02  0.9853025E-01
         -2   -1    0    0    0  501 -0.00000000000E+00  0.00000000000E+00  0.30331362213E+03  0.30331362214E+03  0.25500000000E-02 0.  1.
          2   -1    0    0  501    0  0.00000000000E+00 -0.00000000000E+00 -0.27144018402E+04  0.27144018402E+04  0.25500000000E-02 0. -1.
    8880023    1    1    2    0    0 -0.17748442342E+03  0.29298348906E+03 -0.25200025352E+04  0.26270826080E+04  0.65864270000E+03 0. -1.
    8880022    1    1    2    0    0  0.17748442342E+03 -0.29298348906E+03  0.10891431713E+03  0.39063285437E+03  0.15294330000E+03 0.  0.
<mgrwt>
<rscale>  0 0.62592925E+03</rscale>
<asrwt>0</asrwt>
<pdfrwt beam="1">  1        2 0.41760027E+00 0.74239494E+03</pdfrwt>
<pdfrwt beam="2">  1       -2 0.46663636E-01 0.74239494E+03</pdfrwt>
<totfact> 0.11961345E+01</totfact>
</mgrwt>
</event>
<event>
 4    2  0.3171963E-007  0.6800415E+03  0.7818608E-02  0.1009300E+00
         -2   -1    0    0    0  501 -0.00000000000E+00  0.00000000000E+00  0.21369560578E+03  0.21369560579E+03  0.25500000000E-02 0.  1.
          2   -1    0    0  501    0  0.00000000000E+00 -0.00000000000E+00 -0.12534599789E+04  0.12534599789E+04  0.25500000000E-02 0. -1.
    8880023    1    1    2    0    0 -0.13328049868E+03  0.10431975623E+03 -0.10356963957E+04  0.12390010223E+04  0.65864270000E+03 0. -1.
    8880022    1    1    2    0    0  0.13328049868E+03 -0.10431975623E+03 -0.40679773524E+01  0.22815456236E+03  0.15294330000E+03 0.  0.
<mgrwt>
<rscale>  0 0.51753725E+03</rscale>
<asrwt>0</asrwt>
<pdfrwt beam="1">  1        2 0.19283999E+00 0.68004155E+03</pdfrwt>
<pdfrwt beam="2">  1       -2 0.32876248E-01 0.68004155E+03</pdfrwt>
<totfact> 0.15477912E+02</totfact>
</mgrwt>
</event>
<event>
 4    2  0.3171963E-007  0.6685278E+03  0.7818608E-02  0.1016741E+00
          2   -1    0    0  501    0  0.00000000000E+00  0.00000000000E+00  0.27949137078E+03  0.27949137079E+03  0.25500000000E-02 0. -1.
         -2   -1    0    0    0  501 -0.00000000000E+00 -0.00000000000E+00 -0.71684612868E+03  0.71684612868E+03  0.25500000000E-02 0.  1.
    8880023    1    1    2    0    0 -0.11317172258E+03 -0.17645638076E+02 -0.21299698142E+03  0.70163888696E+03  0.65864270000E+03 0. -1.
    8880022    1    1    2    0    0  0.11317172258E+03  0.17645638076E+02 -0.22435777647E+03  0.29469861251E+03  0.15294330000E+03 0.  0.
<mgrwt>
<rscale>  0 0.48881256E+03</rscale>
<asrwt>0</asrwt>
<pdfrwt beam="1">  1        2 0.42998673E-01 0.66852780E+03</pdfrwt>
<pdfrwt beam="2">  1       -2 0.11028402E+00 0.66852780E+03</pdfrwt>
<totfact> 0.78661505E+01</totfact>
</mgrwt>
</event>
<event>
 4    2  0.3171963E-007  0.7504953E+03  0.7818608E-02  0.9830366E-01
         -2   -1    0    0    0  501 -0.00000000000E+00  0.00000000000E+00  0.47142897609E+03  0.47142897610E+03  0.25500000000E-02 0.  1.
          2   -1    0    0  501    0  0.00000000000E+00 -0.00000000000E+00 -0.12233507777E+04  0.12233507777E+04  0.25500000000E-02 0. -1.
    8880023    1    1    2    0    0 -0.41170671033E+02 -0.35740457808E+03 -0.98600068504E+03  0.12391289738E+04  0.65864270000E+03 0.  1.
    8880022    1    1    2    0    0  0.41170671033E+02  0.35740457808E+03  0.23407888345E+03  0.45565077996E+03  0.15294330000E+03 0.  0.
<mgrwt>
<rscale>  0 0.63758075E+03</rscale>
<asrwt>0</asrwt>
<pdfrwt beam="1">  1        2 0.18820781E+00 0.75049534E+03</pdfrwt>
<pdfrwt beam="2">  1       -2 0.72527535E-01 0.75049534E+03</pdfrwt>
<totfact> 0.32138330E+01</totfact>
</mgrwt>
</event>
<event>
 4    2  0.3171963E-007  0.6893116E+03  0.7818608E-02  0.1004481E+00
         -2   -1    0    0    0  501 -0.00000000000E+00  0.00000000000E+00  0.22719361239E+03  0.22719361241E+03  0.25500000000E-02 0.  1.
          2   -1    0    0  501    0  0.00000000000E+00 -0.00000000000E+00 -0.12629589068E+04  0.12629589068E+04  0.25500000000E-02 0. -1.
    8880023    1    1    2    0    0 -0.13046808352E+03  0.15594345858E+03 -0.10253517870E+04  0.12355147819E+04  0.65864270000E+03 0. -1.
    8880022    1    1    2    0    0  0.13046808352E+03 -0.15594345858E+03 -0.10413507444E+02  0.25463773727E+03  0.15294330000E+03 0.  1.
<mgrwt>
<rscale>  0 0.53728104E+03</rscale>
<asrwt>0</asrwt>
<pdfrwt beam="1">  1        2 0.19430136E+00 0.68931161E+03</pdfrwt>
<pdfrwt beam="2">  1       -2 0.34952864E-01 0.68931161E+03</pdfrwt>
<totfact> 0.13600583E+02</totfact>
</mgrwt>
</event>
<event>
 4    2  0.3171963E-007  0.6947950E+03  0.7818608E-02  0.1001952E+00
         -2   -1    0    0    0  501 -0.00000000000E+00  0.00000000000E+00  0.38009721276E+03  0.38009721277E+03  0.25500000000E-02 0.  1.
          2   -1    0    0  501    0  0.00000000000E+00 -0.00000000000E+00 -0.67153335394E+03  0.67153335394E+03  0.25500000000E-02 0. -1.
    8880023    1    1    2    0    0  0.16419361929E+03 -0.14822377087E+03 -0.34761056499E+03  0.77689969882E+03  0.65864270000E+03 0.  0.
    8880022    1    1    2    0    0 -0.16419361929E+03  0.14822377087E+03  0.56174423816E+02  0.27473086789E+03  0.15294330000E+03 0.  0.
<mgrwt>
<rscale>  0 0.54802568E+03</rscale>
<asrwt>0</asrwt>
<pdfrwt beam="1">  1        2 0.10331282E+00 0.69479496E+03</pdfrwt>
<pdfrwt beam="2">  1       -2 0.58476494E-01 0.69479496E+03</pdfrwt>
<totfact> 0.11978317E+02</totfact>
</mgrwt>
</event>
<event>
 4    2  0.3171963E-007  0.8331687E+03  0.7818608E-02  0.9643198E-01
          2   -1    0    0  501    0  0.00000000000E+00  0.00000000000E+00  0.88440007132E+03  0.88440007133E+03  0.25500000000E-02 0. -1.
         -2   -1    0    0    0  501 -0.00000000000E+00 -0.00000000000E+00 -0.66939574023E+03  0.66939574023E+03  0.25500000000E-02 0.  1.
    8880023    1    1    2    0    0 -0.33797284970E+03 -0.38227497396E+03  0.47712479785E+03  0.96011357757E+03  0.65864270000E+03 0.  0.
    8880022    1    1    2    0    0  0.33797284970E+03  0.38227497396E+03 -0.26212046676E+03  0.59368223399E+03  0.15294330000E+03 0.  0.
<mgrwt>
<rscale>  0 0.74501832E+03</rscale>
<asrwt>0</asrwt>
<pdfrwt beam="1">  1        2 0.13606155E+00 0.83316866E+03</pdfrwt>
<pdfrwt beam="2">  1       -2 0.10298396E+00 0.83316866E+03</pdfrwt>
<totfact> 0.23309914E+01</totfact>
</mgrwt>
</event>
<event>
 4    2  0.3171963E-007  0.1114547E+04  0.7818608E-02  0.9245031E-01
         -2   -1    0    0    0  501 -0.00000000000E+00  0.00000000000E+00  0.95459590019E+03  0.95459590020E+03  0.25500000000E-02 0.  1.
          2   -1    0    0  501    0  0.00000000000E+00 -0.00000000000E+00 -0.14441374493E+04  0.14441374493E+04  0.25500000000E-02 0. -1.
    8880023    1    1    2    0    0  0.74685726557E+03  0.50060768870E+03 -0.86662424133E+03  0.14118256320E+04  0.65864270000E+03 0.  0.
    8880022    1    1    2    0    0 -0.74685726557E+03 -0.50060768870E+03  0.37708269224E+03  0.98690771753E+03  0.15294330000E+03 0.  0.
<mgrwt>
<rscale>  0 0.10600485E+04</rscale>
<asrwt>0</asrwt>
<pdfrwt beam="1">  1        2 0.22217499E+00 0.11145466E+04</pdfrwt>
<pdfrwt beam="2">  1       -2 0.14686091E+00 0.11145466E+04</pdfrwt>
<totfact> 0.42419562E+00</totfact>
</mgrwt>
</event>
<event>
 4    2  0.3171963E-007  0.6958146E+03  0.7818608E-02  0.1001503E+00
          2   -1    0    0  501    0  0.00000000000E+00  0.00000000000E+00  0.56425333242E+03  0.56425333242E+03  0.25500000000E-02 0. -1.
         -2   -1    0    0    0  501 -0.00000000000E+00 -0.00000000000E+00 -0.43318987883E+03  0.43318987884E+03  0.25500000000E-02 0.  1.
    8880023    1    1    2    0    0 -0.53904415194E+02 -0.21781209682E+03  0.18631933118E+03  0.72032832440E+03  0.65864270000E+03 0.  0.
    8880022    1    1    2    0    0  0.53904415194E+02  0.21781209682E+03 -0.55255877587E+02  0.27711488686E+03  0.15294330000E+03 0.  1.
<mgrwt>
<rscale>  0 0.54996196E+03</rscale>
<asrwt>0</asrwt>
<pdfrwt beam="1">  1        2 0.86808204E-01 0.69581463E+03</pdfrwt>
<pdfrwt beam="2">  1       -2 0.66644597E-01 0.69581463E+03</pdfrwt>
<totfact> 0.11202279E+02</totfact>
</mgrwt>
</event>
<event>
 4    2  0.3171963E-007  0.8251454E+03  0.7818608E-02  0.9658853E-01
          2   -1    0    0  501    0  0.00000000000E+00  0.00000000000E+00  0.28915896085E+04  0.28915896085E+04  0.25500000000E-02 0. -1.
         -2   -1    0    0    0  501 -0.00000000000E+00 -0.00000000000E+00 -0.32639719488E+03  0.32639719489E+03  0.25500000000E-02 0.  1.
    8880023    1    1    2    0    0 -0.49654976993E+03 -0.22204782931E+02  0.25686504623E+04  0.26979307126E+04  0.65864270000E+03 0. -1.
    8880022    1    1    2    0    0  0.49654976993E+03  0.22204782931E+02 -0.34580487017E+01  0.52005609075E+03  0.15294330000E+03 0.  0.
<mgrwt>
<rscale>  0 0.73520425E+03</rscale>
<asrwt>0</asrwt>
<pdfrwt beam="1">  1        2 0.44485996E+00 0.82514540E+03</pdfrwt>
<pdfrwt beam="2">  1       -2 0.50214951E-01 0.82514540E+03</pdfrwt>
<totfact> 0.79869419E+00</totfact>
</mgrwt>
</event>
<event>
 4    2  0.3171963E-007  0.1285779E+04  0.7818608E-02  0.9077939E-01
         -2   -1    0    0    0  501 -0.00000000000E+00  0.00000000000E+00  0.20530695798E+04  0.20530695798E+04  0.25500000000E-02 0.  1.
          2   -1    0    0  501    0  0.00000000000E+00 -0.00000000000E+00 -0.86554360485E+03  0.86554360485E+03  0.25500000000E-02 0. -1.
    8880023    1    1    2    0    0 -0.10626821385E+04 -0.30020659029E+03  0.12615888618E+04  0.18013422737E+04  0.65864270000E+03 0.  0.
    8880022    1    1    2    0    0  0.10626821385E+04  0.30020659029E+03 -0.74062886833E+02  0.11172709110E+04  0.15294330000E+03 0.  0.
<mgrwt>
<rscale>  0 0.12407243E+04</rscale>
<asrwt>0</asrwt>
<pdfrwt beam="1">  1        2 0.13316056E+00 0.12857790E+04</pdfrwt>
<pdfrwt beam="2">  1       -2 0.31585685E+00 0.12857790E+04</pdfrwt>
<totfact> 0.76400678E-01</totfact>
</mgrwt>
</event>
<event>
 4    2  0.3171963E-007  0.8067375E+03  0.7818608E-02  0.9696413E-01
          2   -1    0    0  501    0  0.00000000000E+00  0.00000000000E+00  0.12650093454E+04  0.12650093454E+04  0.25500000000E-02 0. -1.
         -2   -1    0    0    0  501 -0.00000000000E+00 -0.00000000000E+00 -0.39477210493E+03  0.39477210493E+03  0.25500000000E-02 0.  1.
    8880023    1    1    2    0    0  0.24857665358E+03 -0.39398590686E+03  0.84581911300E+03  0.11688607384E+04  0.65864270000E+03 0.  1.
    8880022    1    1    2    0    0 -0.24857665358E+03  0.39398590686E+03  0.24418127511E+02  0.49092071201E+03  0.15294330000E+03 0.  0.
<mgrwt>
<rscale>  0 0.71230758E+03</rscale>
<asrwt>0</asrwt>
<pdfrwt beam="1">  1        2 0.19461682E+00 0.80673754E+03</pdfrwt>
<pdfrwt beam="2">  1       -2 0.60734170E-01 0.80673754E+03</pdfrwt>
<totfact> 0.44327227E+01</totfact>
</mgrwt>
</event>
<event>
 4    2  0.3171963E-007  0.6945514E+03  0.7818608E-02  0.1002060E+00
         -2   -1    0    0    0  501 -0.00000000000E+00  0.00000000000E+00  0.65113582130E+02  0.65113582180E+02  0.25500000000E-02 0.  1.
          2   -1    0    0  501    0  0.00000000000E+00 -0.00000000000E+00 -0.44304062859E+04  0.44304062859E+04  0.25500000000E-02 0. -1.
    8880023    1    1    2    0    0  0.17469083090E+02 -0.21974127208E+03 -0.38737441523E+04  0.39355171655E+04  0.65864270000E+03 0. -1.
    8880022    1    1    2    0    0 -0.17469083090E+02  0.21974127208E+03 -0.49154855141E+03  0.56000270261E+03  0.15294330000E+03 0.  0.
<mgrwt>
<rscale>  0 0.54756043E+03</rscale>
<asrwt>0</asrwt>
<pdfrwt beam="1">  1        2 0.68160073E+00 0.69455137E+03</pdfrwt>
<pdfrwt beam="2">  1       -2 0.10017478E-01 0.69455137E+03</pdfrwt>
<totfact> 0.11213893E+01</totfact>
</mgrwt>
</event>
<event>
 4    2  0.3171963E-007  0.6803212E+03  0.7818608E-02  0.1009143E+00
         -2   -1    0    0    0  501 -0.00000000000E+00  0.00000000000E+00  0.36200492425E+03  0.36200492426E+03  0.25500000000E-02 0.  1.
          2   -1    0    0  501    0  0.00000000000E+00 -0.00000000000E+00 -0.96175427849E+03  0.96175427850E+03  0.25500000000E-02 0. -1.
    8880023    1    1    2    0    0  0.10497164664E+03  0.13419259013E+03 -0.77807452509E+03  0.10335554512E+04  0.65864270000E+03 0.  0.
    8880022    1    1    2    0    0 -0.10497164664E+03 -0.13419259013E+03  0.17832517085E+03  0.29020375156E+03  0.15294330000E+03 0.  1.
<mgrwt>
<rscale>  0 0.51816838E+03</rscale>
<asrwt>0</asrwt>
<pdfrwt beam="1">  1        2 0.14796220E+00 0.68032118E+03</pdfrwt>
<pdfrwt beam="2">  1       -2 0.55693066E-01 0.68032118E+03</pdfrwt>
<totfact> 0.82366006E+01</totfact>
</mgrwt>
</event>
<event>
 4    2  0.3171963E-007  0.1402135E+04  0.7818608E-02  0.8982025E-01
         -2   -1    0    0    0  501 -0.00000000000E+00  0.00000000000E+00  0.11821662445E+04  0.11821662445E+04  0.25500000000E-02 0.  1.
          2   -1    0    0  501    0  0.00000000000E+00 -0.00000000000E+00 -0.24378975352E+04  0.24378975352E+04  0.25500000000E-02 0. -1.
    8880023    1    1    2    0    0  0.10436534914E+04 -0.66555291403E+03  0.48059757122E+03  0.14822137239E+04  0.65864270000E+03 0.  0.
    8880022    1    1    2    0    0 -0.10436534914E+04  0.66555291403E+03 -0.17363288619E+04  0.21378500558E+04  0.15294330000E+03 0.  0.
<mgrwt>
<rscale>  0 0.13616907E+04</rscale>
<asrwt>0</asrwt>
<pdfrwt beam="1">  1        2 0.37506116E+00 0.14021353E+04</pdfrwt>
<pdfrwt beam="2">  1       -2 0.18187173E+00 0.14021353E+04</pdfrwt>
<totfact> 0.63307235E-01</totfact>
</mgrwt>
</event>
<event>
 4    2  0.3171963E-007  0.8573377E+03  0.7818608E-02  0.9598317E-01
         -2   -1    0    0    0  501 -0.00000000000E+00  0.00000000000E+00  0.78274160593E+03  0.78274160594E+03  0.25500000000E-02 0.  1.
          2   -1    0    0  501    0  0.00000000000E+00 -0.00000000000E+00 -0.11773582330E+04  0.11773582330E+04  0.25500000000E-02 0. -1.
    8880023    1    1    2    0    0  0.52690662506E+03 -0.15358090085E+03 -0.86750743413E+03  0.12196708733E+04  0.65864270000E+03 0.  0.
    8880022    1    1    2    0    0 -0.52690662506E+03  0.15358090085E+03  0.47289080710E+03  0.74042896560E+03  0.15294330000E+03 0.  0.
<mgrwt>
<rscale>  0 0.77407681E+03</rscale>
<asrwt>0</asrwt>
<pdfrwt beam="1">  1        2 0.18113204E+00 0.85733768E+03</pdfrwt>
<pdfrwt beam="2">  1       -2 0.12042179E+00 0.85733768E+03</pdfrwt>
<totfact> 0.10357616E+01</totfact>
</mgrwt>
</event>
<event>
 4    2  0.3731977E-007  0.8631478E+03  0.7818608E-02  0.9587988E-01
          2   -1    0    0  501    0  0.00000000000E+00  0.00000000000E+00  0.22586679803E+04  0.22586679803E+04  0.25500000000E-02 0. -1.
         -2   -1    0    0    0  501 -0.00000000000E+00 -0.00000000000E+00 -0.10940449642E+04  0.10940449642E+04  0.25500000000E-02 0.  1.
    8880023    1    1    2    0    0 -0.17977174151E+03 -0.52810611355E+03  0.20901097845E+04  0.22613232993E+04  0.65864270000E+03 0. -1.
    8880022    1    1    2    0    0  0.17977174151E+03  0.52810611355E+03 -0.92548676845E+03  0.10913896453E+04  0.15294330000E+03 0.  0.
<mgrwt>
<rscale>  0 0.78096313E+03</rscale>
<asrwt>0</asrwt>
<pdfrwt beam="1">  1        2 0.34748738E+00 0.86314782E+03</pdfrwt>
<pdfrwt beam="2">  1       -2 0.16831461E+00 0.86314782E+03</pdfrwt>
<totfact> 0.10738056E+00</totfact>
</mgrwt>
</event>
<event>
 4    2  0.3171963E-007  0.6921610E+03  0.7818608E-02  0.1003142E+00
          2   -1    0    0  501    0  0.00000000000E+00  0.00000000000E+00  0.16361181964E+04  0.16361181964E+04  0.25500000000E-02 0. -1.
         -2   -1    0    0    0  501 -0.00000000000E+00 -0.00000000000E+00 -0.21484543489E+03  0.21484543491E+03  0.25500000000E-02 0.  1.
    8880023    1    1    2    0    0  0.48984592215E+02  0.20706814079E+03  0.14300705008E+04  0.15887695077E+04  0.65864270000E+03 0. -1.
    8880022    1    1    2    0    0 -0.48984592215E+02 -0.20706814079E+03 -0.87977392897E+01  0.26219412357E+03  0.15294330000E+03 0.  0.
<mgrwt>
<rscale>  0 0.54293764E+03</rscale>
<asrwt>0</asrwt>
<pdfrwt beam="1">  1        2 0.25171049E+00 0.69216104E+03</pdfrwt>
<pdfrwt beam="2">  1       -2 0.33053144E-01 0.69216104E+03</pdfrwt>
<totfact> 0.93342949E+01</totfact>
</mgrwt>
</event>
<event>
 4    2  0.3171963E-007  0.8130307E+03  0.7818608E-02  0.9683298E-01
          2   -1    0    0  501    0  0.00000000000E+00  0.00000000000E+00  0.10077858806E+04  0.10077858806E+04  0.25500000000E-02 0. -1.
         -2   -1    0    0    0  501 -0.00000000000E+00 -0.00000000000E+00 -0.51863713831E+03  0.51863713832E+03  0.25500000000E-02 0.  1.
    8880023    1    1    2    0    0  0.47192632694E+03  0.67039439121E+02  0.60397783994E+03  0.10128218905E+04  0.65864270000E+03 0.  0.
    8880022    1    1    2    0    0 -0.47192632694E+03 -0.67039439121E+02 -0.11482909763E+03  0.51360112844E+03  0.15294330000E+03 0.  0.
<mgrwt>
<rscale>  0 0.72019970E+03</rscale>
<asrwt>0</asrwt>
<pdfrwt beam="1">  1        2 0.15504398E+00 0.81303072E+03</pdfrwt>
<pdfrwt beam="2">  1       -2 0.79790329E-01 0.81303072E+03</pdfrwt>
<totfact> 0.34979823E+01</totfact>
</mgrwt>
</event>
<event>
 4    2  0.3171963E-007  0.8671469E+03  0.7818608E-02  0.9580975E-01
          2   -1    0    0  501    0  0.00000000000E+00  0.00000000000E+00  0.46851951652E+03  0.46851951653E+03  0.25500000000E-02 0. -1.
         -2   -1    0    0    0  501 -0.00000000000E+00 -0.00000000000E+00 -0.21814597951E+04  0.21814597951E+04  0.25500000000E-02 0.  1.
    8880023    1    1    2    0    0  0.19384605049E+03 -0.52967651567E+03 -0.29128339180E+02  0.86763596569E+03  0.65864270000E+03 0. -1.
    8880022    1    1    2    0    0 -0.19384605049E+03  0.52967651567E+03 -0.16838119394E+04  0.17823433459E+04  0.15294330000E+03 0.  0.
<mgrwt>
<rscale>  0 0.78568296E+03</rscale>
<asrwt>0</asrwt>
<pdfrwt beam="1">  1        2 0.72079927E-01 0.86714688E+03</pdfrwt>
<pdfrwt beam="2">  1       -2 0.33560919E+00 0.86714688E+03</pdfrwt>
<totfact> 0.13114177E+00</totfact>
</mgrwt>
</event>
<event>
 4    2  0.3171963E-007  0.1126643E+04  0.7818608E-02  0.9231956E-01
         -2   -1    0    0    0  501 -0.00000000000E+00  0.00000000000E+00  0.17724719803E+04  0.17724719803E+04  0.25500000000E-02 0.  1.
          2   -1    0    0  501    0  0.00000000000E+00 -0.00000000000E+00 -0.82272730444E+03  0.82272730445E+03  0.25500000000E-02 0. -1.
    8880023    1    1    2    0    0 -0.90575481349E+03  0.12297654549E+03 -0.17247288518E+03  0.11397684481E+04  0.65864270000E+03 0.  0.
    8880022    1    1    2    0    0  0.90575481349E+03 -0.12297654549E+03  0.11222175610E+04  0.14554308366E+04  0.15294330000E+03 0.  0.
<mgrwt>
<rscale>  0 0.10729589E+04</rscale>
<asrwt>0</asrwt>
<pdfrwt beam="1">  1        2 0.12657343E+00 0.11266433E+04</pdfrwt>
<pdfrwt beam="2">  1       -2 0.27268800E+00 0.11266433E+04</pdfrwt>
<totfact> 0.15260602E+00</totfact>
</mgrwt>
</event>
<event>
 4    2  0.3171963E-007  0.6650517E+03  0.7818608E-02  0.1019490E+00
         -2   -1    0    0    0  501 -0.00000000000E+00  0.00000000000E+00  0.42718002723E+03  0.42718002724E+03  0.25500000000E-02 0.  1.
          2   -1    0    0  501    0  0.00000000000E+00 -0.00000000000E+00 -0.43474075138E+03  0.43474075138E+03  0.25500000000E-02 0. -1.
    8880023    1    1    2    0    0 -0.45949340388E+02 -0.79825867640E+02 -0.78784948055E+02  0.66970201234E+03  0.65864270000E+03 0. -1.
    8880022    1    1    2    0    0  0.45949340388E+02  0.79825867640E+02  0.71224223913E+02  0.19221876629E+03  0.15294330000E+03 0.  1.
<mgrwt>
<rscale>  0 0.47871065E+03</rscale>
<asrwt>0</asrwt>
<pdfrwt beam="1">  1        2 0.66883192E-01 0.66505167E+03</pdfrwt>
<pdfrwt beam="2">  1       -2 0.65720004E-01 0.66505167E+03</pdfrwt>
<totfact> 0.15636883E+02</totfact>
</mgrwt>
</event>
<event>
 4    2  0.3171963E-007  0.6711774E+03  0.7818608E-02  0.1014833E+00
         -2   -1    0    0    0  501 -0.00000000000E+00  0.00000000000E+00  0.70577592439E+03  0.70577592440E+03  0.25500000000E-02 0.  1.
          2   -1    0    0  501    0  0.00000000000E+00 -0.00000000000E+00 -0.45792253716E+03  0.45792253716E+03  0.25500000000E-02 0. -1.
    8880023    1    1    2    0    0 -0.33571437638E+02  0.12466695356E+03 -0.17694422102E+03  0.69410975670E+03  0.65864270000E+03 0. -1.
    8880022    1    1    2    0    0  0.33571437638E+02 -0.12466695356E+03  0.42479760825E+03  0.46958870486E+03  0.15294330000E+03 0.  0.
<mgrwt>
<rscale>  0 0.49598392E+03</rscale>
<asrwt>0</asrwt>
<pdfrwt beam="1">  1        2 0.70449622E-01 0.67117740E+03</pdfrwt>
<pdfrwt beam="2">  1       -2 0.10858091E+00 0.67117740E+03</pdfrwt>
<totfact> 0.47013145E+01</totfact>
</mgrwt>
</event>
<event>
 4    2  0.3171963E-007  0.8668782E+03  0.7818608E-02  0.9581444E-01
          2   -1    0    0  501    0  0.00000000000E+00  0.00000000000E+00  0.18852352423E+04  0.18852352423E+04  0.25500000000E-02 0. -1.
         -2   -1    0    0    0  501 -0.00000000000E+00 -0.00000000000E+00 -0.32935463087E+03  0.32935463088E+03  0.25500000000E-02 0.  1.
    8880023    1    1    2    0    0 -0.17797579228E+03  0.53478242177E+03  0.13317894037E+04  0.15890691751E+04  0.65864270000E+03 0.  0.
    8880022    1    1    2    0    0  0.17797579228E+03 -0.53478242177E+03  0.22409120768E+03  0.62552069802E+03  0.15294330000E+03 0.  0.
<mgrwt>
<rscale>  0 0.78536636E+03</rscale>
<asrwt>0</asrwt>
<pdfrwt beam="1">  1        2 0.29003618E+00 0.86687821E+03</pdfrwt>
<pdfrwt beam="2">  1       -2 0.50669945E-01 0.86687821E+03</pdfrwt>
<totfact> 0.28958121E+01</totfact>
</mgrwt>
</event>
<event>
 4    2  0.3171963E-007  0.8876193E+03  0.7818608E-02  0.9546206E-01
         -2   -1    0    0    0  501 -0.00000000000E+00  0.00000000000E+00  0.70095288202E+03  0.70095288202E+03  0.25500000000E-02 0.  1.
          2   -1    0    0  501    0  0.00000000000E+00 -0.00000000000E+00 -0.17446065925E+04  0.17446065925E+04  0.25500000000E-02 0. -1.
    8880023    1    1    2    0    0  0.47720168866E+03 -0.35543838765E+03 -0.14562924732E+04  0.17054781948E+04  0.65864270000E+03 0. -1.
    8880022    1    1    2    0    0 -0.47720168866E+03  0.35543838765E+03  0.41263876274E+03  0.74008127973E+03  0.15294330000E+03 0.  0.
<mgrwt>
<rscale>  0 0.80961293E+03</rscale>
<asrwt>0</asrwt>
<pdfrwt beam="1">  1        2 0.26840101E+00 0.88761935E+03</pdfrwt>
<pdfrwt beam="2">  1       -2 0.10783891E+00 0.88761935E+03</pdfrwt>
<totfact> 0.64513550E+00</totfact>
</mgrwt>
</event>
<event>
 4    2  0.3171963E-007  0.8519651E+03  0.7818608E-02  0.9608019E-01
          2   -1    0    0  501    0  0.00000000000E+00  0.00000000000E+00  0.21348286767E+04  0.21348286767E+04  0.25500000000E-02 0. -1.
         -2   -1    0    0    0  501 -0.00000000000E+00 -0.00000000000E+00 -0.40791965435E+03  0.40791965436E+03  0.25500000000E-02 0.  1.
    8880023    1    1    2    0    0  0.24928996425E+03 -0.47946723788E+03  0.17852275970E+04  0.19781006289E+04  0.65864270000E+03 0. -1.
    8880022    1    1    2    0    0 -0.24928996425E+03  0.47946723788E+03 -0.58318574633E+02  0.56464770223E+03  0.15294330000E+03 0.  0.
<mgrwt>
<rscale>  0 0.76767701E+03</rscale>
<asrwt>0</asrwt>
<pdfrwt beam="1">  1        2 0.32843518E+00 0.85196510E+03</pdfrwt>
<pdfrwt beam="2">  1       -2 0.62756870E-01 0.85196510E+03</pdfrwt>
<totfact> 0.13533745E+01</totfact>
</mgrwt>
</event>
<event>
 4    2  0.3171963E-007  0.8809072E+03  0.7818608E-02  0.9557404E-01
          2   -1    0    0  501    0  0.00000000000E+00  0.00000000000E+00  0.21035549838E+04  0.21035549838E+04  0.25500000000E-02 0. -1.
         -2   -1    0    0    0  501 -0.00000000000E+00 -0.00000000000E+00 -0.39274633177E+03  0.39274633178E+03  0.25500000000E-02 0.  1.
    8880023    1    1    2    0    0  0.68595150601E+02 -0.58093196593E+03  0.16726856418E+04  0.18904694407E+04  0.65864270000E+03 0. -1.
    8880022    1    1    2    0    0 -0.68595150601E+02  0.58093196593E+03  0.38123010266E+02  0.60583187491E+03  0.15294330000E+03 0.  0.
<mgrwt>
<rscale>  0 0.80180775E+03</rscale>
<asrwt>0</asrwt>
<pdfrwt beam="1">  1        2 0.32362384E+00 0.88090717E+03</pdfrwt>
<pdfrwt beam="2">  1       -2 0.60422514E-01 0.88090717E+03</pdfrwt>
<totfact> 0.15208213E+01</totfact>
</mgrwt>
</event>
<event>
 4    2  0.3171963E-007  0.1058249E+04  0.7818608E-02  0.9309030E-01
         -2   -1    0    0    0  501 -0.00000000000E+00  0.00000000000E+00  0.71662339861E+03  0.71662339862E+03  0.25500000000E-02 0.  1.
          2   -1    0    0  501    0  0.00000000000E+00 -0.00000000000E+00 -0.17475759286E+04  0.17475759286E+04  0.25500000000E-02 0. -1.
    8880023    1    1    2    0    0  0.76450282747E+03 -0.31877290534E+03 -0.12054025544E+04  0.16040219022E+04  0.65864270000E+03 0.  0.
    8880022    1    1    2    0    0 -0.76450282747E+03  0.31877290534E+03  0.17445002443E+03  0.86017742497E+03  0.15294330000E+03 0.  0.
<mgrwt>
<rscale>  0 0.99955763E+03</rscale>
<asrwt>0</asrwt>
<pdfrwt beam="1">  1        2 0.26885783E+00 0.10582490E+04</pdfrwt>
<pdfrwt beam="2">  1       -2 0.11024975E+00 0.10582490E+04</pdfrwt>
<totfact> 0.59712232E+00</totfact>
</mgrwt>
</event>
<event>
 4    2  0.3171963E-007  0.1023792E+04  0.7818608E-02  0.9351071E-01
          2   -1    0    0  501    0  0.00000000000E+00  0.00000000000E+00  0.11560431895E+04  0.11560431895E+04  0.25500000000E-02 0. -1.
         -2   -1    0    0    0  501 -0.00000000000E+00 -0.00000000000E+00 -0.13883588674E+04  0.13883588674E+04  0.25500000000E-02 0.  1.
    8880023    1    1    2    0    0 -0.47763895855E+03 -0.62145113144E+03  0.75680395560E+03  0.12731468560E+04  0.65864270000E+03 0. -1.
    8880022    1    1    2    0    0  0.47763895855E+03  0.62145113144E+03 -0.98911963351E+03  0.12712552009E+04  0.15294330000E+03 0.  0.
<mgrwt>
<rscale>  0 0.96214092E+03</rscale>
<asrwt>0</asrwt>
<pdfrwt beam="1">  1        2 0.17785280E+00 0.10237923E+04</pdfrwt>
<pdfrwt beam="2">  1       -2 0.21359367E+00 0.10237923E+04</pdfrwt>
<totfact> 0.21645966E+00</totfact>
</mgrwt>
</event>
<event>
 4    2  0.3171963E-007  0.7944324E+03  0.7818608E-02  0.9722966E-01
          2   -1    0    0  501    0  0.00000000000E+00  0.00000000000E+00  0.55764340993E+03  0.55764340993E+03  0.25500000000E-02 0. -1.
         -2   -1    0    0    0  501 -0.00000000000E+00 -0.00000000000E+00 -0.15365769427E+04  0.15365769427E+04  0.25500000000E-02 0.  1.
    8880023    1    1    2    0    0  0.43646552928E+03 -0.82525456065E+02  0.20502433549E+03  0.82046193912E+03  0.65864270000E+03 0. -1.
    8880022    1    1    2    0    0 -0.43646552928E+03  0.82525456065E+02 -0.11839578682E+04  0.12737584135E+04  0.15294330000E+03 0.  0.
<mgrwt>
<rscale>  0 0.69665706E+03</rscale>
<asrwt>0</asrwt>
<pdfrwt beam="1">  1        2 0.85791294E-01 0.79443239E+03</pdfrwt>
<pdfrwt beam="2">  1       -2 0.23639645E+00 0.79443239E+03</pdfrwt>
<totfact> 0.43113997E+00</totfact>
</mgrwt>
</event>
<event>
 4    2  0.3171963E-007  0.6596165E+03  0.7818608E-02  0.1024553E+00
          2   -1    0    0  501    0  0.00000000000E+00  0.00000000000E+00  0.11221212107E+04  0.11221212107E+04  0.25500000000E-02 0. -1.
         -2   -1    0    0    0  501 -0.00000000000E+00 -0.00000000000E+00 -0.19479661892E+03  0.19479661894E+03  0.25500000000E-02 0.  1.
    8880023    1    1    2    0    0  0.34619841762E+02  0.92261633182E+01  0.95171369563E+03  0.11579519939E+04  0.65864270000E+03 0. -1.
    8880022    1    1    2    0    0 -0.34619841762E+02 -0.92261633182E+01 -0.24389103819E+02  0.15896583574E+03  0.15294330000E+03 0.  0.
<mgrwt>
<rscale>  0 0.46078829E+03</rscale>
<asrwt>0</asrwt>
<pdfrwt beam="1">  1        2 0.17263404E+00 0.65961645E+03</pdfrwt>
<pdfrwt beam="2">  1       -2 0.29968710E-01 0.65961645E+03</pdfrwt>
<totfact> 0.22039576E+02</totfact>
</mgrwt>
</event>
<event>
 4    2  0.3171963E-007  0.7615313E+03  0.7818608E-02  0.9801159E-01
         -2   -1    0    0    0  501 -0.00000000000E+00  0.00000000000E+00  0.44910209516E+03  0.44910209517E+03  0.25500000000E-02 0.  1.
          2   -1    0    0  501    0  0.00000000000E+00 -0.00000000000E+00 -0.92650653627E+03  0.92650653628E+03  0.25500000000E-02 0. -1.
    8880023    1    1    2    0    0  0.25404167546E+03  0.28562663071E+03 -0.57289416619E+03  0.95296257899E+03  0.65864270000E+03 0. -1.
    8880022    1    1    2    0    0 -0.25404167546E+03 -0.28562663071E+03  0.95489725081E+02  0.42264605245E+03  0.15294330000E+03 0.  0.
<mgrwt>
<rscale>  0 0.65300377E+03</rscale>
<asrwt>0</asrwt>
<pdfrwt beam="1">  1        2 0.14253947E+00 0.76153132E+03</pdfrwt>
<pdfrwt beam="2">  1       -2 0.69092630E-01 0.76153132E+03</pdfrwt>
<totfact> 0.54560802E+01</totfact>
</mgrwt>
</event>
<event>
 4    2  0.3171963E-007  0.1422224E+04  0.7818608E-02  0.8966604E-01
         -2   -1    0    0    0  501 -0.00000000000E+00  0.00000000000E+00  0.17118200575E+04  0.17118200575E+04  0.25500000000E-02 0.  1.
          2   -1    0    0  501    0  0.00000000000E+00 -0.00000000000E+00 -0.13085697689E+04  0.13085697689E+04  0.25500000000E-02 0. -1.
    8880023    1    1    2    0    0  0.10364432189E+04 -0.71742272668E+03 -0.44866828703E+03  0.14913159802E+04  0.65864270000E+03 0.  0.
    8880022    1    1    2    0    0 -0.10364432189E+04  0.71742272668E+03  0.85191857565E+03  0.15290738462E+04  0.15294330000E+03 0.  0.
<mgrwt>
<rscale>  0 0.13824732E+04</rscale>
<asrwt>0</asrwt>
<pdfrwt beam="1">  1        2 0.20131843E+00 0.14222237E+04</pdfrwt>
<pdfrwt beam="2">  1       -2 0.26335693E+00 0.14222237E+04</pdfrwt>
<totfact> 0.82596113E-01</totfact>
</mgrwt>
</event>
<event>
 4    2  0.3171963E-007  0.8054027E+03  0.7818608E-02  0.9699234E-01
          2   -1    0    0  501    0  0.00000000000E+00  0.00000000000E+00  0.18817509661E+04  0.18817509662E+04  0.25500000000E-02 0. -1.
         -2   -1    0    0    0  501 -0.00000000000E+00 -0.00000000000E+00 -0.51867228770E+03  0.51867228771E+03  0.25500000000E-02 0.  1.
    8880023    1    1    2    0    0  0.45211814251E+03 -0.10223772578E+03  0.16486833646E+04  0.18348924792E+04  0.65864270000E+03 0. -1.
    8880022    1    1    2    0    0 -0.45211814251E+03  0.10223772578E+03 -0.28560468611E+03  0.56553077467E+03  0.15294330000E+03 0.  0.
<mgrwt>
<rscale>  0 0.71062435E+03</rscale>
<asrwt>0</asrwt>
<pdfrwt beam="1">  1        2 0.28950015E+00 0.80540274E+03</pdfrwt>
<pdfrwt beam="2">  1       -2 0.79795736E-01 0.80540274E+03</pdfrwt>
<totfact> 0.11070799E+01</totfact>
</mgrwt>
</event>
<event>
 4    2  0.3171963E-007  0.6991885E+03  0.7818608E-02  0.1000058E+00
         -2   -1    0    0    0  501 -0.00000000000E+00  0.00000000000E+00  0.36685036957E+03  0.36685036958E+03  0.25500000000E-02 0.  1.
          2   -1    0    0  501    0  0.00000000000E+00 -0.00000000000E+00 -0.26057378171E+04  0.26057378171E+04  0.25500000000E-02 0. -1.
    8880023    1    1    2    0    0 -0.17985382734E+03  0.15068816671E+03 -0.24961871420E+04  0.25922605535E+04  0.65864270000E+03 0. -1.
    8880022    1    1    2    0    0  0.17985382734E+03 -0.15068816671E+03  0.25729969449E+03  0.38032763322E+03  0.15294330000E+03 0.  0.
<mgrwt>
<rscale>  0 0.55624617E+03</rscale>
<asrwt>0</asrwt>
<pdfrwt beam="1">  1        2 0.40088273E+00 0.69918848E+03</pdfrwt>
<pdfrwt beam="2">  1       -2 0.56438520E-01 0.69918848E+03</pdfrwt>
<totfact> 0.94404211E+00</totfact>
</mgrwt>
</event>
<event>
 4    2  0.3171963E-007  0.7356611E+03  0.7818608E-02  0.9872771E-01
          2   -1    0    0  501    0  0.00000000000E+00  0.00000000000E+00  0.18603605453E+04  0.18603605453E+04  0.25500000000E-02 0. -1.
         -2   -1    0    0    0  501 -0.00000000000E+00 -0.00000000000E+00 -0.62072790530E+03  0.62072790530E+03  0.25500000000E-02 0.  1.
    8880023    1    1    2    0    0  0.70761215004E+02 -0.31996862222E+03  0.17252858852E+04  0.18755822191E+04  0.65864270000E+03 0. -1.
    8880022    1    1    2    0    0 -0.70761215004E+02  0.31996862222E+03 -0.48565324521E+03  0.60550623147E+03  0.15294330000E+03 0.  0.
<mgrwt>
<rscale>  0 0.61599259E+03</rscale>
<asrwt>0</asrwt>
<pdfrwt beam="1">  1        2 0.28620931E+00 0.73566111E+03</pdfrwt>
<pdfrwt beam="2">  1       -2 0.95496601E-01 0.73566111E+03</pdfrwt>
<totfact> 0.76095289E+00</totfact>
</mgrwt>
</event>
<event>
 4    2  0.3171963E-007  0.1025507E+04  0.7818608E-02  0.9348922E-01
          2   -1    0    0  501    0  0.00000000000E+00  0.00000000000E+00  0.16783799254E+04  0.16783799254E+04  0.25500000000E-02 0. -1.
         -2   -1    0    0    0  501 -0.00000000000E+00 -0.00000000000E+00 -0.14586794636E+04  0.14586794636E+04  0.25500000000E-02 0.  1.
    8880023    1    1    2    0    0  0.76190638394E+03 -0.19326972637E+03  0.13848788499E+04  0.17232394379E+04  0.65864270000E+03 0.  0.
    8880022    1    1    2    0    0 -0.76190638394E+03  0.19326972637E+03 -0.11651783882E+04  0.14138199512E+04  0.15294330000E+03 0.  0.
<mgrwt>
<rscale>  0 0.96401122E+03</rscale>
<asrwt>0</asrwt>
<pdfrwt beam="1">  1        2 0.25821229E+00 0.10255071E+04</pdfrwt>
<pdfrwt beam="2">  1       -2 0.22441223E+00 0.10255071E+04</pdfrwt>
<totfact> 0.92816880E-01</totfact>
</mgrwt>
</event>
<event>
 4    2  0.3171963E-007  0.9030011E+03  0.7818608E-02  0.9521231E-01
          2   -1    0    0  501    0  0.00000000000E+00  0.00000000000E+00  0.24492650087E+04  0.24492650087E+04  0.25500000000E-02 0. -1.
         -2   -1    0    0    0  501 -0.00000000000E+00 -0.00000000000E+00 -0.96056135479E+03  0.96056135479E+03  0.25500000000E-02 0.  1.
    8880023    1    1    2    0    0  0.52302273050E+03  0.32870666656E+03  0.22459474884E+04  0.24206798996E+04  0.65864270000E+03 0.  0.
    8880022    1    1    2    0    0 -0.52302273050E+03 -0.32870666656E+03 -0.75724383448E+03  0.98914646394E+03  0.15294330000E+03 0.  0.
<mgrwt>
<rscale>  0 0.82736491E+03</rscale>
<asrwt>0</asrwt>
<pdfrwt beam="1">  1        2 0.37681000E+00 0.90300114E+03</pdfrwt>
<pdfrwt beam="2">  1       -2 0.14777867E+00 0.90300114E+03</pdfrwt>
<totfact> 0.11850197E+00</totfact>
</mgrwt>
</event>
<event>
 4    2  0.3171963E-007  0.7291473E+03  0.7818608E-02  0.9892769E-01
          2   -1    0    0  501    0  0.00000000000E+00  0.00000000000E+00  0.23624023772E+04  0.23624023772E+04  0.25500000000E-02 0. -1.
         -2   -1    0    0    0  501 -0.00000000000E+00 -0.00000000000E+00 -0.18465889057E+03  0.18465889059E+03  0.25500000000E-02 0.  1.
    8880023    1    1    2    0    0 -0.10744728915E+03 -0.29376980262E+03  0.20506094616E+04  0.21763857625E+04  0.65864270000E+03 0. -1.
    8880022    1    1    2    0    0  0.10744728915E+03  0.29376980262E+03  0.12713402498E+03  0.37067550526E+03  0.15294330000E+03 0.  0.
<mgrwt>
<rscale>  0 0.60613029E+03</rscale>
<asrwt>0</asrwt>
<pdfrwt beam="1">  1        2 0.36344650E+00 0.72914733E+03</pdfrwt>
<pdfrwt beam="2">  1       -2 0.28409061E-01 0.72914733E+03</pdfrwt>
<totfact> 0.49298039E+01</totfact>
</mgrwt>
</event>
<event>
 4    2  0.3171963E-007  0.1157036E+04  0.7818608E-02  0.9200061E-01
         -2   -1    0    0    0  501 -0.00000000000E+00  0.00000000000E+00  0.44009914589E+03  0.44009914590E+03  0.25500000000E-02 0.  1.
          2   -1    0    0  501    0  0.00000000000E+00 -0.00000000000E+00 -0.36610707732E+04  0.36610707732E+04  0.25500000000E-02 0. -1.
    8880023    1    1    2    0    0 -0.67471580244E+03  0.67058274291E+03 -0.28372096971E+04  0.30640645719E+04  0.65864270000E+03 0.  0.
    8880022    1    1    2    0    0  0.67471580244E+03 -0.67058274291E+03 -0.38376193025E+03  0.10371053472E+04  0.15294330000E+03 0.  0.
<mgrwt>
<rscale>  0 0.11052795E+04</rscale>
<asrwt>0</asrwt>
<pdfrwt beam="1">  1        2 0.56324164E+00 0.11570362E+04</pdfrwt>
<pdfrwt beam="2">  1       -2 0.67707563E-01 0.11570362E+04</pdfrwt>
<totfact> 0.12656298E+00</totfact>
</mgrwt>
</event>
<event>
 4    2  0.3171963E-007  0.1142890E+04  0.7818608E-02  0.9214741E-01
          2   -1    0    0  501    0  0.00000000000E+00  0.00000000000E+00  0.21944831468E+04  0.21944831468E+04  0.25500000000E-02 0. -1.
         -2   -1    0    0    0  501 -0.00000000000E+00 -0.00000000000E+00 -0.10018579563E+04  0.10018579563E+04  0.25500000000E-02 0.  1.
    8880023    1    1    2    0    0 -0.83469078183E+03  0.41914158963E+03  0.17558008537E+04  0.20950024386E+04  0.65864270000E+03 0. -1.
    8880022    1    1    2    0    0  0.83469078183E+03 -0.41914158963E+03 -0.56317566319E+03  0.11013386646E+04  0.15294330000E+03 0.  0.
<mgrwt>
<rscale>  0 0.10902563E+04</rscale>
<asrwt>0</asrwt>
<pdfrwt beam="1">  1        2 0.33761279E+00 0.11428904E+04</pdfrwt>
<pdfrwt beam="2">  1       -2 0.15413199E+00 0.11428904E+04</pdfrwt>
<totfact> 0.14222895E+00</totfact>
</mgrwt>
</event>
<event>
 4    2  0.3171963E-007  0.7861543E+03  0.7818608E-02  0.9741574E-01
         -2   -1    0    0    0  501 -0.00000000000E+00  0.00000000000E+00  0.64847803432E+03  0.64847803433E+03  0.25500000000E-02 0.  1.
          2   -1    0    0  501    0  0.00000000000E+00 -0.00000000000E+00 -0.30492435139E+04  0.30492435139E+04  0.25500000000E-02 0. -1.
    8880023    1    1    2    0    0 -0.37993070476E+03 -0.19970238339E+03 -0.29100405383E+04  0.30143613790E+04  0.65864270000E+03 0.  0.
    8880022    1    1    2    0    0  0.37993070476E+03  0.19970238339E+03  0.50927505876E+03  0.68336016920E+03  0.15294330000E+03 0.  0.
<mgrwt>
<rscale>  0 0.68594533E+03</rscale>
<asrwt>0</asrwt>
<pdfrwt beam="1">  1        2 0.46911438E+00 0.78615430E+03</pdfrwt>
<pdfrwt beam="2">  1       -2 0.99765853E-01 0.78615430E+03</pdfrwt>
<totfact> 0.14292894E+00</totfact>
</mgrwt>
</event>
<event>
 4    2  0.3171963E-007  0.1374312E+04  0.7818608E-02  0.9003905E-01
         -2   -1    0    0    0  501 -0.00000000000E+00  0.00000000000E+00  0.11229391385E+04  0.11229391385E+04  0.25500000000E-02 0.  1.
          2   -1    0    0  501    0  0.00000000000E+00 -0.00000000000E+00 -0.25748093803E+04  0.25748093803E+04  0.25500000000E-02 0. -1.
    8880023    1    1    2    0    0 -0.46700132320E+03  0.11121296646E+04 -0.19484735552E+04  0.23843829450E+04  0.65864270000E+03 0. -1.
    8880022    1    1    2    0    0  0.46700132320E+03 -0.11121296646E+04  0.49660331344E+03  0.13133655739E+04  0.15294330000E+03 0.  1.
<mgrwt>
<rscale>  0 0.13328608E+04</rscale>
<asrwt>0</asrwt>
<pdfrwt beam="1">  1        2 0.39612452E+00 0.13743118E+04</pdfrwt>
<pdfrwt beam="2">  1       -2 0.17275987E+00 0.13743118E+04</pdfrwt>
<totfact> 0.61321039E-01</totfact>
</mgrwt>
</event>
<event>
 4    2  0.3171963E-007  0.7284988E+03  0.7818608E-02  0.9894813E-01
         -2   -1    0    0    0  501 -0.00000000000E+00  0.00000000000E+00  0.15008340167E+03  0.15008340170E+03  0.25500000000E-02 0.  1.
          2   -1    0    0  501    0  0.00000000000E+00 -0.00000000000E+00 -0.30692108174E+04  0.30692108174E+04  0.25500000000E-02 0. -1.
    8880023    1    1    2    0    0 -0.28610154252E+03  0.12266280492E+03 -0.27273603689E+04  0.28229780453E+04  0.65864270000E+03 0.  0.
    8880022    1    1    2    0    0  0.28610154252E+03 -0.12266280492E+03 -0.19176704688E+03  0.39631617381E+03  0.15294330000E+03 0.  0.
<mgrwt>
<rscale>  0 0.60513346E+03</rscale>
<asrwt>0</asrwt>
<pdfrwt beam="1">  1        2 0.47218623E+00 0.72849877E+03</pdfrwt>
<pdfrwt beam="2">  1       -2 0.23089756E-01 0.72849877E+03</pdfrwt>
<totfact> 0.27697801E+01</totfact>
</mgrwt>
</event>
<event>
 4    2  0.3171963E-007  0.1036107E+04  0.7818608E-02  0.9335772E-01
         -2   -1    0    0    0  501 -0.00000000000E+00  0.00000000000E+00  0.66132055043E+03  0.66132055043E+03  0.25500000000E-02 0.  1.
          2   -1    0    0  501    0  0.00000000000E+00 -0.00000000000E+00 -0.18465614687E+04  0.18465614687E+04  0.25500000000E-02 0. -1.
    8880023    1    1    2    0    0 -0.79911323480E+03  0.33539947268E+02 -0.13246463622E+04  0.16817268153E+04  0.65864270000E+03 0. -1.
    8880022    1    1    2    0    0  0.79911323480E+03 -0.33539947268E+02  0.13940544388E+03  0.82615520388E+03  0.15294330000E+03 0.  0.
<mgrwt>
<rscale>  0 0.97555244E+03</rscale>
<asrwt>0</asrwt>
<pdfrwt beam="1">  1        2 0.28408638E+00 0.10361067E+04</pdfrwt>
<pdfrwt beam="2">  1       -2 0.10174162E+00 0.10361067E+04</pdfrwt>
<totfact> 0.64090405E+00</totfact>
</mgrwt>
</event>
<event>
 4    2  0.3171963E-007  0.8852557E+03  0.7818608E-02  0.9550128E-01
          2   -1    0    0  501    0  0.00000000000E+00  0.00000000000E+00  0.72450944512E+03  0.72450944512E+03  0.25500000000E-02 0. -1.
         -2   -1    0    0    0  501 -0.00000000000E+00 -0.00000000000E+00 -0.77381563725E+03  0.77381563725E+03  0.25500000000E-02 0.  1.
    8880023    1    1    2    0    0 -0.58606738780E+03 -0.79952728627E+02 -0.59947214415E+02  0.88728309836E+03  0.65864270000E+03 0.  1.
    8880022    1    1    2    0    0  0.58606738780E+03  0.79952728627E+02  0.10641022285E+02  0.61104198401E+03  0.15294330000E+03 0. -1.
<mgrwt>
<rscale>  0 0.80686865E+03</rscale>
<asrwt>0</asrwt>
<pdfrwt beam="1">  1        2 0.11146299E+00 0.88525569E+03</pdfrwt>
<pdfrwt beam="2">  1       -2 0.11904856E+00 0.88525569E+03</pdfrwt>
<totfact> 0.21286245E+01</totfact>
</mgrwt>
</event>
<event>
 4    2  0.3171963E-007  0.7175121E+03  0.7818608E-02  0.9931096E-01
         -2   -1    0    0    0  501 -0.00000000000E+00  0.00000000000E+00  0.17754496059E+03  0.17754496060E+03  0.25500000000E-02 0.  1.
          2   -1    0    0  501    0  0.00000000000E+00 -0.00000000000E+00 -0.16376075293E+04  0.16376075293E+04  0.25500000000E-02 0. -1.
    8880023    1    1    2    0    0  0.19712239114E+03  0.20531959065E+03 -0.76599438924E+03  0.10495575172E+04  0.65864270000E+03 0.  1.
    8880022    1    1    2    0    0 -0.19712239114E+03 -0.20531959065E+03 -0.69406817950E+03  0.76559497268E+03  0.15294330000E+03 0.  1.
<mgrwt>
<rscale>  0 0.58777632E+03</rscale>
<asrwt>0</asrwt>
<pdfrwt beam="1">  1        2 0.25193961E+00 0.71751207E+03</pdfrwt>
<pdfrwt beam="2">  1       -2 0.27314610E-01 0.71751207E+03</pdfrwt>
<totfact> 0.13237692E+02</totfact>
</mgrwt>
</event>
<event>
 4    2  0.3171963E-007  0.6831179E+03  0.7818608E-02  0.1007612E+00
         -2   -1    0    0    0  501 -0.00000000000E+00  0.00000000000E+00  0.13007669137E+03  0.13007669140E+03  0.25500000000E-02 0.  1.
          2   -1    0    0  501    0  0.00000000000E+00 -0.00000000000E+00 -0.24374964325E+04  0.24374964325E+04  0.25500000000E-02 0. -1.
    8880023    1    1    2    0    0  0.17459907073E+03  0.48528789349E+02 -0.22065608375E+04  0.23098832903E+04  0.65864270000E+03 0. -1.
    8880022    1    1    2    0    0 -0.17459907073E+03 -0.48528789349E+02 -0.10085890364E+03  0.25768983363E+03  0.15294330000E+03 0.  0.
<mgrwt>
<rscale>  0 0.52434755E+03</rscale>
<asrwt>0</asrwt>
<pdfrwt beam="1">  1        2 0.37499942E+00 0.68311791E+03</pdfrwt>
<pdfrwt beam="2">  1       -2 0.20011800E-01 0.68311791E+03</pdfrwt>
<totfact> 0.84344836E+01</totfact>
</mgrwt>
</event>
<event>
 4    2  0.3171963E-007  0.6672116E+03  0.7818608E-02  0.1017746E+00
         -2   -1    0    0    0  501 -0.00000000000E+00  0.00000000000E+00  0.90130596949E+02  0.90130596986E+02  0.25500000000E-02 0.  1.
          2   -1    0    0  501    0  0.00000000000E+00 -0.00000000000E+00 -0.33964646939E+04  0.33964646939E+04  0.25500000000E-02 0. -1.
    8880023    1    1    2    0    0  0.10300518362E+03  0.27404289731E+02 -0.32063891676E+04  0.32750729402E+04  0.65864270000E+03 0. -1.
    8880022    1    1    2    0    0 -0.10300518362E+03 -0.27404289731E+02 -0.99944929374E+02  0.21152235076E+03  0.15294330000E+03 0.  0.
<mgrwt>
<rscale>  0 0.48508882E+03</rscale>
<asrwt>0</asrwt>
<pdfrwt beam="1">  1        2 0.52253293E+00 0.66721156E+03</pdfrwt>
<pdfrwt beam="2">  1       -2 0.13866248E-01 0.66721156E+03</pdfrwt>
<totfact> 0.41651632E+01</totfact>
</mgrwt>
</event>
<event>
 4    2  0.3171963E-007  0.7197142E+03  0.7818608E-02  0.9923554E-01
         -2   -1    0    0    0  501 -0.00000000000E+00  0.00000000000E+00  0.20690159254E+03  0.20690159255E+03  0.25500000000E-02 0.  1.
          2   -1    0    0  501    0  0.00000000000E+00 -0.00000000000E+00 -0.30274428470E+04  0.30274428470E+04  0.25500000000E-02 0. -1.
    8880023    1    1    2    0    0 -0.17468498745E+03 -0.23165381319E+03 -0.28158080760E+04  0.29063316502E+04  0.65864270000E+03 0. -1.
    8880022    1    1    2    0    0  0.17468498745E+03  0.23165381319E+03 -0.47331785205E+01  0.32801278938E+03  0.15294330000E+03 0.  0.
<mgrwt>
<rscale>  0 0.59133209E+03</rscale>
<asrwt>0</asrwt>
<pdfrwt beam="1">  1        2 0.46576041E+00 0.71971421E+03</pdfrwt>
<pdfrwt beam="2">  1       -2 0.31831016E-01 0.71971421E+03</pdfrwt>
<totfact> 0.16375447E+01</totfact>
</mgrwt>
</event>
<event>
 4    2  0.3171963E-007  0.9976039E+03  0.7818608E-02  0.9384699E-01
          2   -1    0    0  501    0  0.00000000000E+00  0.00000000000E+00  0.13882591829E+04  0.13882591829E+04  0.25500000000E-02 0. -1.
         -2   -1    0    0    0  501 -0.00000000000E+00 -0.00000000000E+00 -0.18804765948E+04  0.18804765948E+04  0.25500000000E-02 0.  1.
    8880023    1    1    2    0    0  0.69364639028E+03 -0.28329853691E+03  0.11105826081E+04  0.14928520729E+04  0.65864270000E+03 0.  0.
    8880022    1    1    2    0    0 -0.69364639028E+03  0.28329853691E+03 -0.16028000200E+04  0.17758837048E+04  0.15294330000E+03 0.  0.
<mgrwt>
<rscale>  0 0.93345647E+03</rscale>
<asrwt>0</asrwt>
<pdfrwt beam="1">  1        2 0.21357834E+00 0.99760392E+03</pdfrwt>
<pdfrwt beam="2">  1       -2 0.28930409E+00 0.99760392E+03</pdfrwt>
<totfact> 0.54489515E-01</totfact>
</mgrwt>
</event>
<event>
 4    2  0.3171963E-007  0.7513357E+03  0.7818608E-02  0.9828078E-01
         -2   -1    0    0    0  501 -0.00000000000E+00  0.00000000000E+00  0.14979065039E+04  0.14979065039E+04  0.25500000000E-02 0.  1.
          2   -1    0    0  501    0  0.00000000000E+00 -0.00000000000E+00 -0.22102623533E+03  0.22102623534E+03  0.25500000000E-02 0. -1.
    8880023    1    1    2    0    0 -0.33165806825E+03  0.14386828147E+03  0.74694041321E+03  0.10594457720E+04  0.65864270000E+03 0. -1.
    8880022    1    1    2    0    0  0.33165806825E+03 -0.14386828147E+03  0.52993985532E+03  0.65948696721E+03  0.15294330000E+03 0.  1.
<mgrwt>
<rscale>  0 0.63877250E+03</rscale>
<asrwt>0</asrwt>
<pdfrwt beam="1">  1        2 0.34004035E-01 0.75133572E+03</pdfrwt>
<pdfrwt beam="2">  1       -2 0.23044716E+00 0.75133572E+03</pdfrwt>
<totfact> 0.13414276E+01</totfact>
</mgrwt>
</event>
<event>
 4    2  0.3171963E-007  0.6962657E+03  0.7818608E-02  0.1001306E+00
         -2   -1    0    0    0  501 -0.00000000000E+00  0.00000000000E+00  0.68896167896E+03  0.68896167897E+03  0.25500000000E-02 0.  1.
          2   -1    0    0  501    0  0.00000000000E+00 -0.00000000000E+00 -0.72517370045E+03  0.72517370046E+03  0.25500000000E-02 0. -1.
    8880023    1    1    2    0    0  0.99873061312E+02  0.20248717541E+03 -0.51301686131E+03  0.86485385519E+03  0.65864270000E+03 0.  0.
    8880022    1    1    2    0    0 -0.99873061312E+02 -0.20248717541E+03  0.47680483982E+03  0.54928152424E+03  0.15294330000E+03 0.  0.
<mgrwt>
<rscale>  0 0.55081279E+03</rscale>
<asrwt>0</asrwt>
<pdfrwt beam="1">  1        2 0.11156518E+00 0.69626568E+03</pdfrwt>
<pdfrwt beam="2">  1       -2 0.10599410E+00 0.69626568E+03</pdfrwt>
<totfact> 0.28668613E+01</totfact>
</mgrwt>
</event>
<event>
 4    2  0.3171963E-007  0.6819211E+03  0.7818608E-02  0.1008257E+00
          2   -1    0    0  501    0  0.00000000000E+00  0.00000000000E+00  0.30659629630E+03  0.30659629631E+03  0.25500000000E-02 0. -1.
         -2   -1    0    0    0  501 -0.00000000000E+00 -0.00000000000E+00 -0.14976460211E+04  0.14976460211E+04  0.25500000000E-02 0.  1.
    8880023    1    1    2    0    0 -0.16611818845E+03 -0.60090738047E+02 -0.10091576476E+03  0.68934776940E+03  0.65864270000E+03 0. -1.
    8880022    1    1    2    0    0  0.16611818845E+03  0.60090738047E+02 -0.10901339601E+04  0.11148945480E+04  0.15294330000E+03 0.  0.
<mgrwt>
<rscale>  0 0.52173201E+03</rscale>
<asrwt>0</asrwt>
<pdfrwt beam="1">  1        2 0.47168662E-01 0.68192108E+03</pdfrwt>
<pdfrwt beam="2">  1       -2 0.23040708E+00 0.68192108E+03</pdfrwt>
<totfact> 0.93888284E+00</totfact>
</mgrwt>
</event>
<event>
 4    2  0.3171963E-007  0.7286265E+03  0.7818608E-02  0.9894409E-01
         -2   -1    0    0    0  501 -0.00000000000E+00  0.00000000000E+00  0.11412652287E+04  0.11412652287E+04  0.25500000000E-02 0.  1.
          2   -1    0    0  501    0  0.00000000000E+00 -0.00000000000E+00 -0.88213546130E+03  0.88213546130E+03  0.25500000000E-02 0. -1.
    8880023    1    1    2    0    0  0.22266553499E+03 -0.21795975857E+03 -0.69571170906E+03  0.10074281042E+04  0.65864270000E+03 0. -1.
    8880022    1    1    2    0    0 -0.22266553499E+03  0.21795975857E+03  0.95484147646E+03  0.10159725858E+04  0.15294330000E+03 0.  0.
<mgrwt>
<rscale>  0 0.60533003E+03</rscale>
<asrwt>0</asrwt>
<pdfrwt beam="1">  1        2 0.13571315E+00 0.72862652E+03</pdfrwt>
<pdfrwt beam="2">  1       -2 0.17557926E+00 0.72862652E+03</pdfrwt>
<totfact> 0.60003042E+00</totfact>
</mgrwt>
</event>
<event>
 4    2  0.3171963E-007  0.7249835E+03  0.7818608E-02  0.9906071E-01
         -2   -1    0    0    0  501 -0.00000000000E+00  0.00000000000E+00  0.21362319124E+03  0.21362319126E+03  0.25500000000E-02 0.  1.
          2   -1    0    0  501    0  0.00000000000E+00 -0.00000000000E+00 -0.19130381772E+04  0.19130381772E+04  0.25500000000E-02 0. -1.
    8880023    1    1    2    0    0 -0.24548027417E+03 -0.17756775864E+03 -0.16247482739E+04  0.17791593615E+04  0.65864270000E+03 0. -1.
    8880022    1    1    2    0    0  0.24548027417E+03  0.17756775864E+03 -0.74666712051E+02  0.34750200693E+03  0.15294330000E+03 0.  0.
<mgrwt>
<rscale>  0 0.59967980E+03</rscale>
<asrwt>0</asrwt>
<pdfrwt beam="1">  1        2 0.29431355E+00 0.72498350E+03</pdfrwt>
<pdfrwt beam="2">  1       -2 0.32865108E-01 0.72498350E+03</pdfrwt>
<totfact> 0.66404534E+01</totfact>
</mgrwt>
</event>
<event>
 4    2  0.3171963E-007  0.8305306E+03  0.7818608E-02  0.9648301E-01
         -2   -1    0    0    0  501 -0.00000000000E+00  0.00000000000E+00  0.42193706535E+03  0.42193706536E+03  0.25500000000E-02 0.  1.
          2   -1    0    0  501    0  0.00000000000E+00 -0.00000000000E+00 -0.14107451724E+04  0.14107451724E+04  0.25500000000E-02 0. -1.
    8880023    1    1    2    0    0  0.18597846343E+03 -0.47051338353E+03 -0.10051505133E+04  0.13038821241E+04  0.65864270000E+03 0. -1.
    8880022    1    1    2    0    0 -0.18597846343E+03  0.47051338353E+03  0.16342406233E+02  0.52880011365E+03  0.15294330000E+03 0.  0.
<mgrwt>
<rscale>  0 0.74180154E+03</rscale>
<asrwt>0</asrwt>
<pdfrwt beam="1">  1        2 0.21703772E+00 0.83053058E+03</pdfrwt>
<pdfrwt beam="2">  1       -2 0.64913395E-01 0.83053058E+03</pdfrwt>
<totfact> 0.31646365E+01</totfact>
</mgrwt>
</event>
<event>
 4    2  0.3439395E-007  0.1553884E+04  0.7818608E-02  0.8872495E-01
         -2   -1    0    0    0  501 -0.00000000000E+00  0.00000000000E+00  0.18729636219E+04  0.18729636219E+04  0.25500000000E-02 0.  1.
          2   -1    0    0  501    0  0.00000000000E+00 -0.00000000000E+00 -0.22293322723E+04  0.22293322723E+04  0.25500000000E-02 0. -1.
    8880023    1    1    2    0    0 -0.18242956717E+03 -0.13955162476E+04 -0.15909668631E+04  0.22239001574E+04  0.65864270000E+03 0. -1.
    8880022    1    1    2    0    0  0.18242956717E+03  0.13955162476E+04  0.12345982127E+04  0.18783957368E+04  0.15294330000E+03 0.  0.
<mgrwt>
<rscale>  0 0.15181160E+04</rscale>
<asrwt>0</asrwt>
<pdfrwt beam="1">  1        2 0.34297420E+00 0.15538843E+04</pdfrwt>
<pdfrwt beam="2">  1       -2 0.28814825E+00 0.15538843E+04</pdfrwt>
<totfact> 0.17388029E-01</totfact>
</mgrwt>
</event>
<event>
 4    2  0.3171963E-007  0.9249003E+03  0.7818608E-02  0.9487186E-01
         -2   -1    0    0    0  501 -0.00000000000E+00  0.00000000000E+00  0.32486160647E+03  0.32486160648E+03  0.25500000000E-02 0.  1.
          2   -1    0    0  501    0  0.00000000000E+00 -0.00000000000E+00 -0.34344110626E+04  0.34344110626E+04  0.25500000000E-02 0. -1.
    8880023    1    1    2    0    0  0.64551422901E+03 -0.70297357608E+02 -0.29240822883E+04  0.30668710070E+04  0.65864270000E+03 0. -1.
    8880022    1    1    2    0    0 -0.64551422901E+03  0.70297357608E+02 -0.18546716784E+03  0.69240166212E+03  0.15294330000E+03 0.  0.
<mgrwt>
<rscale>  0 0.85235178E+03</rscale>
<asrwt>0</asrwt>
<pdfrwt beam="1">  1        2 0.52837091E+00 0.92490029E+03</pdfrwt>
<pdfrwt beam="2">  1       -2 0.49978711E-01 0.92490029E+03</pdfrwt>
<totfact> 0.35833343E+00</totfact>
</mgrwt>
</event>
<event>
 4    2  0.3171963E-007  0.7040057E+03  0.7818608E-02  0.9980973E-01
          2   -1    0    0  501    0  0.00000000000E+00  0.00000000000E+00  0.38993238089E+04  0.38993238089E+04  0.25500000000E-02 0. -1.
         -2   -1    0    0    0  501 -0.00000000000E+00 -0.00000000000E+00 -0.20470134236E+03  0.20470134238E+03  0.25500000000E-02 0.  1.
    8880023    1    1    2    0    0 -0.22962731118E+03 -0.95315973069E+02  0.37425742213E+04  0.38082129464E+04  0.65864270000E+03 0. -1.
    8880022    1    1    2    0    0  0.22962731118E+03  0.95315973069E+02 -0.47951754775E+02  0.29581220489E+03  0.15294330000E+03 0.  0.
<mgrwt>
<rscale>  0 0.56492473E+03</rscale>
<asrwt>0</asrwt>
<pdfrwt beam="1">  1        2 0.59989596E+00 0.70400571E+03</pdfrwt>
<pdfrwt beam="2">  1       -2 0.31492515E-01 0.70400571E+03</pdfrwt>
<totfact> 0.42847885E+00</totfact>
</mgrwt>
</event>
<event>
 4    2  0.3171963E-007  0.7366396E+03  0.7818608E-02  0.9869846E-01
          2   -1    0    0  501    0  0.00000000000E+00  0.00000000000E+00  0.17627942755E+04  0.17627942755E+04  0.25500000000E-02 0. -1.
         -2   -1    0    0    0  501 -0.00000000000E+00 -0.00000000000E+00 -0.24818481832E+03  0.24818481834E+03  0.25500000000E-02 0.  1.
    8880023    1    1    2    0    0 -0.23552024960E+03  0.23099336968E+03  0.14705035525E+04  0.16446940837E+04  0.65864270000E+03 0.  1.
    8880022    1    1    2    0    0  0.23552024960E+03 -0.23099336968E+03  0.44105904685E+02  0.36628501014E+03  0.15294330000E+03 0.  0.
<mgrwt>
<rscale>  0 0.61745199E+03</rscale>
<asrwt>0</asrwt>
<pdfrwt beam="1">  1        2 0.27119913E+00 0.73663962E+03</pdfrwt>
<pdfrwt beam="2">  1       -2 0.38182278E-01 0.73663962E+03</pdfrwt>
<totfact> 0.60147972E+01</totfact>
</mgrwt>
</event>
<event>
 4    2  0.3778611E-007  0.7063049E+03  0.7818608E-02  0.9971987E-01
          2   -1    0    0  501    0  0.00000000000E+00  0.00000000000E+00  0.24749629400E+04  0.24749629400E+04  0.25500000000E-02 0. -1.
         -2   -1    0    0    0  501 -0.00000000000E+00 -0.00000000000E+00 -0.58648915707E+03  0.58648915708E+03  0.25500000000E-02 0.  1.
    8880023    1    1    2    0    0 -0.62772362491E+02  0.24721661462E+03  0.23824040471E+04  0.24848975178E+04  0.65864270000E+03 0.  0.
    8880022    1    1    2    0    0  0.62772362491E+02 -0.24721661462E+03 -0.49393026416E+03  0.57655457929E+03  0.15294330000E+03 0.  0.
<mgrwt>
<rscale>  0 0.56895802E+03</rscale>
<asrwt>0</asrwt>
<pdfrwt beam="1">  1        2 0.38076352E+00 0.70630491E+03</pdfrwt>
<pdfrwt beam="2">  1       -2 0.90229103E-01 0.70630491E+03</pdfrwt>
<totfact> 0.40009261E+00</totfact>
</mgrwt>
</event>
<event>
 4    2  0.3171963E-007  0.6613815E+03  0.7818608E-02  0.1022784E+00
          2   -1    0    0  501    0  0.00000000000E+00  0.00000000000E+00  0.14386891759E+04  0.14386891759E+04  0.25500000000E-02 0. -1.
         -2   -1    0    0    0  501 -0.00000000000E+00 -0.00000000000E+00 -0.16786122563E+03  0.16786122565E+03  0.25500000000E-02 0.  1.
    8880023    1    1    2    0    0  0.56041944510E+02  0.21783836839E+02  0.12812493561E+04  0.14418825728E+04  0.65864270000E+03 0. -1.
    8880022    1    1    2    0    0 -0.56041944510E+02 -0.21783836839E+02 -0.10421405839E+02  0.16466782869E+03  0.15294330000E+03 0.  0.
<mgrwt>
<rscale>  0 0.46695317E+03</rscale>
<asrwt>0</asrwt>
<pdfrwt beam="1">  1        2 0.22133680E+00 0.66138146E+03</pdfrwt>
<pdfrwt beam="2">  1       -2 0.25824804E-01 0.66138146E+03</pdfrwt>
<totfact> 0.18980848E+02</totfact>
</mgrwt>
</event>
<event>
 4    2  0.3171963E-007  0.9948476E+03  0.7818608E-02  0.9388330E-01
         -2   -1    0    0    0  501 -0.00000000000E+00  0.00000000000E+00  0.96640832040E+03  0.96640832040E+03  0.25500000000E-02 0.  1.
          2   -1    0    0  501    0  0.00000000000E+00 -0.00000000000E+00 -0.21513024658E+04  0.21513024658E+04  0.25500000000E-02 0. -1.
    8880023    1    1    2    0    0  0.16352458653E+03  0.72744151326E+03 -0.18541590665E+04  0.21041928371E+04  0.65864270000E+03 0.  0.
    8880022    1    1    2    0    0 -0.16352458653E+03 -0.72744151326E+03  0.66926492107E+03  0.10135179491E+04  0.15294330000E+03 0.  0.
<mgrwt>
<rscale>  0 0.93042342E+03</rscale>
<asrwt>0</asrwt>
<pdfrwt beam="1">  1        2 0.33096961E+00 0.99484755E+03</pdfrwt>
<pdfrwt beam="2">  1       -2 0.14867820E+00 0.99484755E+03</pdfrwt>
<totfact> 0.16879771E+00</totfact>
</mgrwt>
</event>
<event>
 4    2  0.3171963E-007  0.6671497E+03  0.7818608E-02  0.1017794E+00
         -2   -1    0    0    0  501 -0.00000000000E+00  0.00000000000E+00  0.19393468961E+03  0.19393468963E+03  0.25500000000E-02 0.  1.
          2   -1    0    0  501    0  0.00000000000E+00 -0.00000000000E+00 -0.18830655373E+04  0.18830655373E+04  0.25500000000E-02 0. -1.
    8880023    1    1    2    0    0 -0.10573196224E+03  0.99615207448E+01 -0.17565450710E+04  0.18789729302E+04  0.65864270000E+03 0. -1.
    8880022    1    1    2    0    0  0.10573196224E+03 -0.99615207448E+01  0.67414223301E+02  0.19802729674E+03  0.15294330000E+03 0.  0.
<mgrwt>
<rscale>  0 0.48491084E+03</rscale>
<asrwt>0</asrwt>
<pdfrwt beam="1">  1        2 0.28970238E+00 0.66714967E+03</pdfrwt>
<pdfrwt beam="2">  1       -2 0.29836107E-01 0.66714967E+03</pdfrwt>
<totfact> 0.83147342E+01</totfact>
</mgrwt>
</event>
<event>
 4    2  0.3171963E-007  0.7188447E+03  0.7818608E-02  0.9926515E-01
          2   -1    0    0  501    0  0.00000000000E+00  0.00000000000E+00  0.14997296980E+04  0.14997296980E+04  0.25500000000E-02 0. -1.
         -2   -1    0    0    0  501 -0.00000000000E+00 -0.00000000000E+00 -0.49339714068E+03  0.49339714069E+03  0.25500000000E-02 0.  1.
    8880023    1    1    2    0    0 -0.38163896406E+02  0.28543130632E+03  0.13437259869E+04  0.15239216672E+04  0.65864270000E+03 0.  0.
    8880022    1    1    2    0    0  0.38163896406E+02 -0.28543130632E+03 -0.33739342958E+03  0.46920517150E+03  0.15294330000E+03 0.  0.
<mgrwt>
<rscale>  0 0.58993309E+03</rscale>
<asrwt>0</asrwt>
<pdfrwt beam="1">  1        2 0.23072764E+00 0.71884471E+03</pdfrwt>
<pdfrwt beam="2">  1       -2 0.75907253E-01 0.71884471E+03</pdfrwt>
<totfact> 0.20293126E+01</totfact>
</mgrwt>
</event>
<event>
 4    2  0.3171963E-007  0.7394305E+03  0.7818608E-02  0.9861609E-01
          2   -1    0    0  501    0  0.00000000000E+00  0.00000000000E+00  0.15627490504E+04  0.15627490504E+04  0.25500000000E-02 0. -1.
         -2   -1    0    0    0  501 -0.00000000000E+00 -0.00000000000E+00 -0.35461694494E+03  0.35461694495E+03  0.25500000000E-02 0.  1.
    8880023    1    1    2    0    0  0.82893481584E+02  0.32569300816E+03  0.13356972693E+04  0.15267104068E+04  0.65864270000E+03 0. -1.
    8880022    1    1    2    0    0 -0.82893481584E+02 -0.32569300816E+03 -0.12756516379E+03  0.39065558857E+03  0.15294330000E+03 0.  0.
<mgrwt>
<rscale>  0 0.62158497E+03</rscale>
<asrwt>0</asrwt>
<pdfrwt beam="1">  1        2 0.24042293E+00 0.73943050E+03</pdfrwt>
<pdfrwt beam="2">  1       -2 0.54556452E-01 0.73943050E+03</pdfrwt>
<totfact> 0.37918064E+01</totfact>
</mgrwt>
</event>
<event>
 4    2  0.3171963E-007  0.9040005E+03  0.7818608E-02  0.9519640E-01
         -2   -1    0    0    0  501 -0.00000000000E+00  0.00000000000E+00  0.40808565492E+03  0.40808565493E+03  0.25500000000E-02 0.  1.
          2   -1    0    0  501    0  0.00000000000E+00 -0.00000000000E+00 -0.16079359629E+04  0.16079359629E+04  0.25500000000E-02 0. -1.
    8880023    1    1    2    0    0  0.61507473811E+03  0.71342377712E+02 -0.99908328908E+03  0.13473619755E+04  0.65864270000E+03 0. -1.
    8880022    1    1    2    0    0 -0.61507473811E+03 -0.71342377712E+02 -0.20076701886E+03  0.66865964227E+03  0.15294330000E+03 0.  0.
<mgrwt>
<rscale>  0 0.82851217E+03</rscale>
<asrwt>0</asrwt>
<pdfrwt beam="1">  1        2 0.24737476E+00 0.90400048E+03</pdfrwt>
<pdfrwt beam="2">  1       -2 0.62782409E-01 0.90400048E+03</pdfrwt>
<totfact> 0.26176812E+01</totfact>
</mgrwt>
</event>
<event>
 4    2  0.3171963E-007  0.6617842E+03  0.7818608E-02  0.1022399E+00
          2   -1    0    0  501    0  0.00000000000E+00  0.00000000000E+00  0.29034012955E+04  0.29034012955E+04  0.25500000000E-02 0. -1.
         -2   -1    0    0    0  501 -0.00000000000E+00 -0.00000000000E+00 -0.83200366007E+02  0.83200366046E+02  0.25500000000E-02 0.  1.
    8880023    1    1    2    0    0 -0.63130249602E+02 -0.12754657396E+02  0.27045184168E+04  0.27843092829E+04  0.65864270000E+03 0. -1.
    8880022    1    1    2    0    0  0.63130249602E+02  0.12754657396E+02  0.11568251266E+03  0.20229237863E+03  0.15294330000E+03 0.  0.
<mgrwt>
<rscale>  0 0.46830880E+03</rscale>
<asrwt>0</asrwt>
<pdfrwt beam="1">  1        2 0.44667708E+00 0.66178419E+03</pdfrwt>
<pdfrwt beam="2">  1       -2 0.12800057E-01 0.66178419E+03</pdfrwt>
<totfact> 0.97282603E+01</totfact>
</mgrwt>
</event>
<event>
 4    2  0.3171963E-007  0.7555078E+03  0.7818608E-02  0.9816879E-01
         -2   -1    0    0    0  501 -0.00000000000E+00  0.00000000000E+00  0.27013274812E+03  0.27013274813E+03  0.25500000000E-02 0.  1.
          2   -1    0    0  501    0  0.00000000000E+00 -0.00000000000E+00 -0.39259895444E+04  0.39259895444E+04  0.25500000000E-02 0. -1.
    8880023    1    1    2    0    0  0.17338612498E+03 -0.32698492420E+03 -0.37152375537E+04  0.37912771167E+04  0.65864270000E+03 0. -1.
    8880022    1    1    2    0    0 -0.17338612498E+03  0.32698492420E+03  0.59380757461E+02  0.40484517579E+03  0.15294330000E+03 0.  0.
<mgrwt>
<rscale>  0 0.64464530E+03</rscale>
<asrwt>0</asrwt>
<pdfrwt beam="1">  1        2 0.60399835E+00 0.75550784E+03</pdfrwt>
<pdfrwt beam="2">  1       -2 0.41558887E-01 0.75550784E+03</pdfrwt>
<totfact> 0.23748035E+00</totfact>
</mgrwt>
</event>
<event>
 4    2  0.3171963E-007  0.1150395E+04  0.7818608E-02  0.9206918E-01
          2   -1    0    0  501    0  0.00000000000E+00  0.00000000000E+00  0.27571735458E+04  0.27571735458E+04  0.25500000000E-02 0. -1.
         -2   -1    0    0    0  501 -0.00000000000E+00 -0.00000000000E+00 -0.42871178120E+03  0.42871178121E+03  0.25500000000E-02 0.  1.
    8880023    1    1    2    0    0 -0.47912359162E+03 -0.81242836114E+03  0.87013371783E+03  0.14424084551E+04  0.65864270000E+03 0.  0.
    8880022    1    1    2    0    0  0.47912359162E+03  0.81242836114E+03  0.14583280467E+04  0.17434768719E+04  0.15294330000E+03 0.  0.
<mgrwt>
<rscale>  0 0.10982309E+04</rscale>
<asrwt>0</asrwt>
<pdfrwt beam="1">  1        2 0.42418054E+00 0.11503954E+04</pdfrwt>
<pdfrwt beam="2">  1       -2 0.65955660E-01 0.11503954E+04</pdfrwt>
<totfact> 0.51790655E+00</totfact>
</mgrwt>
</event>
<event>
 4    2  0.3171963E-007  0.6887132E+03  0.7818608E-02  0.1004770E+00
          2   -1    0    0  501    0  0.00000000000E+00  0.00000000000E+00  0.14889605674E+04  0.14889605674E+04  0.25500000000E-02 0. -1.
         -2   -1    0    0    0  501 -0.00000000000E+00 -0.00000000000E+00 -0.41074355785E+03  0.41074355786E+03  0.25500000000E-02 0.  1.
    8880023    1    1    2    0    0 -0.17622991061E+03  0.97256071415E+02  0.13579815360E+04  0.15226423688E+04  0.65864270000E+03 0. -1.
    8880022    1    1    2    0    0  0.17622991061E+03 -0.97256071415E+02 -0.27976452653E+03  0.37706175640E+03  0.15294330000E+03 0.  0.
<mgrwt>
<rscale>  0 0.53607148E+03</rscale>
<asrwt>0</asrwt>
<pdfrwt beam="1">  1        2 0.22907085E+00 0.68871324E+03</pdfrwt>
<pdfrwt beam="2">  1       -2 0.63191318E-01 0.68871324E+03</pdfrwt>
<totfact> 0.30780846E+01</totfact>
</mgrwt>
</event>
<event>
 4    2  0.3171963E-007  0.8233000E+03  0.7818608E-02  0.9662512E-01
          2   -1    0    0  501    0  0.00000000000E+00  0.00000000000E+00  0.35844110100E+03  0.35844110101E+03  0.25500000000E-02 0. -1.
         -2   -1    0    0    0  501 -0.00000000000E+00 -0.00000000000E+00 -0.19582833066E+04  0.19582833066E+04  0.25500000000E-02 0.  1.
    8880023    1    1    2    0    0 -0.11740464281E+03 -0.47982161649E+03 -0.23345469176E+03  0.85575927291E+03  0.65864270000E+03 0. -1.
    8880022    1    1    2    0    0  0.11740464281E+03  0.47982161649E+03 -0.13663875139E+04  0.14609651347E+04  0.15294330000E+03 0.  0.
<mgrwt>
<rscale>  0 0.73293358E+03</rscale>
<asrwt>0</asrwt>
<pdfrwt beam="1">  1        2 0.55144786E-01 0.82329997E+03</pdfrwt>
<pdfrwt beam="2">  1       -2 0.30127435E+00 0.82329997E+03</pdfrwt>
<totfact> 0.28935925E+00</totfact>
</mgrwt>
</event>
<event>
 4    2  0.3171963E-007  0.7504315E+03  0.7818608E-02  0.9830541E-01
          2   -1    0    0  501    0  0.00000000000E+00  0.00000000000E+00  0.25012532288E+04  0.25012532288E+04  0.25500000000E-02 0. -1.
         -2   -1    0    0    0  501 -0.00000000000E+00 -0.00000000000E+00 -0.24486638830E+03  0.24486638831E+03  0.25500000000E-02 0.  1.
    8880023    1    1    2    0    0 -0.28669918378E+03 -0.21711927176E+03  0.22317489786E+04  0.23545383645E+04  0.65864270000E+03 0. -1.
    8880022    1    1    2    0    0  0.28669918378E+03  0.21711927176E+03  0.24637861918E+02  0.39158125263E+03  0.15294330000E+03 0.  0.
<mgrwt>
<rscale>  0 0.63749006E+03</rscale>
<asrwt>0</asrwt>
<pdfrwt beam="1">  1        2 0.38480819E+00 0.75043148E+03</pdfrwt>
<pdfrwt beam="2">  1       -2 0.37671752E-01 0.75043148E+03</pdfrwt>
<totfact> 0.24135718E+01</totfact>
</mgrwt>
</event>
<event>
 4    2  0.3171963E-007  0.7857912E+03  0.7818608E-02  0.9742405E-01
         -2   -1    0    0    0  501 -0.00000000000E+00  0.00000000000E+00  0.53857081368E+03  0.53857081369E+03  0.25500000000E-02 0.  1.
          2   -1    0    0  501    0  0.00000000000E+00 -0.00000000000E+00 -0.19122808922E+04  0.19122808922E+04  0.25500000000E-02 0. -1.
    8880023    1    1    2    0    0 -0.21076071899E+03  0.37314548929E+03 -0.17120853656E+04  0.18838004518E+04  0.65864270000E+03 0. -1.
    8880022    1    1    2    0    0  0.21076071899E+03 -0.37314548929E+03  0.33837528707E+03  0.56705125409E+03  0.15294330000E+03 0.  0.
<mgrwt>
<rscale>  0 0.68547181E+03</rscale>
<asrwt>0</asrwt>
<pdfrwt beam="1">  1        2 0.29419706E+00 0.78579122E+03</pdfrwt>
<pdfrwt beam="2">  1       -2 0.82857049E-01 0.78579122E+03</pdfrwt>
<totfact> 0.98121186E+00</totfact>
</mgrwt>
</event>
<event>
 4    2  0.3530235E-007  0.1001895E+04  0.7818608E-02  0.9379083E-01
          2   -1    0    0  501    0  0.00000000000E+00  0.00000000000E+00  0.18761689621E+04  0.18761689621E+04  0.25500000000E-02 0. -1.
         -2   -1    0    0    0  501 -0.00000000000E+00 -0.00000000000E+00 -0.15127123763E+04  0.15127123763E+04  0.25500000000E-02 0.  1.
    8880023    1    1    2    0    0  0.64737688717E+03  0.38844086202E+03  0.16260065081E+04  0.19098928001E+04  0.65864270000E+03 0. -1.
    8880022    1    1    2    0    0 -0.64737688717E+03 -0.38844086202E+03 -0.12625499222E+04  0.14789885383E+04  0.15294330000E+03 0.  0.
<mgrwt>
<rscale>  0 0.93817262E+03</rscale>
<asrwt>0</asrwt>
<pdfrwt beam="1">  1        2 0.28864138E+00 0.10018949E+04</pdfrwt>
<pdfrwt beam="2">  1       -2 0.23272498E+00 0.10018949E+04</pdfrwt>
<totfact> 0.64322220E-01</totfact>
</mgrwt>
</event>
<event>
 4    2  0.3171963E-007  0.7991548E+03  0.7818608E-02  0.9712627E-01
         -2   -1    0    0    0  501 -0.00000000000E+00  0.00000000000E+00  0.11103536180E+03  0.11103536183E+03  0.25500000000E-02 0.  1.
          2   -1    0    0  501    0  0.00000000000E+00 -0.00000000000E+00 -0.41745232760E+04  0.41745232760E+04  0.25500000000E-02 0. -1.
    8880023    1    1    2    0    0 -0.44708348326E+03 -0.70388424177E+02 -0.17583342302E+04  0.19314211458E+04  0.65864270000E+03 0.  1.
    8880022    1    1    2    0    0  0.44708348326E+03  0.70388424177E+02 -0.23051536840E+04  0.23541374920E+04  0.15294330000E+03 0. -1.
<mgrwt>
<rscale>  0 0.70269964E+03</rscale>
<asrwt>0</asrwt>
<pdfrwt beam="1">  1        2 0.64223423E+00 0.79915479E+03</pdfrwt>
<pdfrwt beam="2">  1       -2 0.17082367E-01 0.79915479E+03</pdfrwt>
<totfact> 0.75547804E+00</totfact>
</mgrwt>
</event>
<event>
 4    2  0.3171963E-007  0.9946054E+03  0.7818608E-02  0.9388650E-01
         -2   -1    0    0    0  501 -0.00000000000E+00  0.00000000000E+00  0.94842112562E+03  0.94842112563E+03  0.25500000000E-02 0.  1.
          2   -1    0    0  501    0  0.00000000000E+00 -0.00000000000E+00 -0.13086898432E+04  0.13086898432E+04  0.25500000000E-02 0. -1.
    8880023    1    1    2    0    0 -0.35099725490E+03  0.65744247383E+03 -0.88626609456E+03  0.13321814726E+04  0.65864270000E+03 0. -1.
    8880022    1    1    2    0    0  0.35099725490E+03 -0.65744247383E+03  0.52599737699E+03  0.92492949621E+03  0.15294330000E+03 0.  1.
<mgrwt>
<rscale>  0 0.93015682E+03</rscale>
<asrwt>0</asrwt>
<pdfrwt beam="1">  1        2 0.20133690E+00 0.99460539E+03</pdfrwt>
<pdfrwt beam="2">  1       -2 0.14591094E+00 0.99460539E+03</pdfrwt>
<totfact> 0.52265273E+00</totfact>
</mgrwt>
</event>
<event>
 4    2  0.3171963E-007  0.1163346E+04  0.7818608E-02  0.9193603E-01
         -2   -1    0    0    0  501 -0.00000000000E+00  0.00000000000E+00  0.93338865558E+03  0.93338865558E+03  0.25500000000E-02 0.  1.
          2   -1    0    0  501    0  0.00000000000E+00 -0.00000000000E+00 -0.14738791060E+04  0.14738791060E+04  0.25500000000E-02 0. -1.
    8880023    1    1    2    0    0 -0.14737792403E+03  0.94754564133E+03 -0.78807202239E+03  0.14051443747E+04  0.65864270000E+03 0.  0.
    8880022    1    1    2    0    0  0.14737792403E+03 -0.94754564133E+03  0.24758157194E+03  0.10021233870E+04  0.15294330000E+03 0.  0.
<mgrwt>
<rscale>  0 0.11119697E+04</rscale>
<asrwt>0</asrwt>
<pdfrwt beam="1">  1        2 0.22675063E+00 0.11633457E+04</pdfrwt>
<pdfrwt beam="2">  1       -2 0.14359825E+00 0.11633457E+04</pdfrwt>
<totfact> 0.43086551E+00</totfact>
</mgrwt>
</event>
<event>
 4    2  0.3236133E-007  0.6968297E+03  0.7818608E-02  0.1001062E+00
         -2   -1    0    0    0  501 -0.00000000000E+00  0.00000000000E+00  0.13095836899E+04  0.13095836899E+04  0.25500000000E-02 0.  1.
          2   -1    0    0  501    0  0.00000000000E+00 -0.00000000000E+00 -0.14308062090E+04  0.14308062090E+04  0.25500000000E-02 0. -1.
    8880023    1    1    2    0    0  0.17072263417E+03  0.15038364928E+03 -0.13296915392E+04  0.15012165918E+04  0.65864270000E+03 0. -1.
    8880022    1    1    2    0    0 -0.17072263417E+03 -0.15038364928E+03  0.12084690200E+04  0.12391733072E+04  0.15294330000E+03 0.  0.
<mgrwt>
<rscale>  0 0.55187202E+03</rscale>
<asrwt>0</asrwt>
<pdfrwt beam="1">  1        2 0.22012403E+00 0.69682973E+03</pdfrwt>
<pdfrwt beam="2">  1       -2 0.20147441E+00 0.69682973E+03</pdfrwt>
<totfact> 0.18820906E+00</totfact>
</mgrwt>
</event>
<event>
 4    2  0.3171963E-007  0.7147361E+03  0.7818608E-02  0.9940817E-01
         -2   -1    0    0    0  501 -0.00000000000E+00  0.00000000000E+00  0.44562944859E+03  0.44562944859E+03  0.25500000000E-02 0.  1.
          2   -1    0    0  501    0  0.00000000000E+00 -0.00000000000E+00 -0.12081577419E+04  0.12081577419E+04  0.25500000000E-02 0. -1.
    8880023    1    1    2    0    0 -0.25874608108E+03  0.10043846176E+03 -0.10199874079E+04  0.12454806050E+04  0.65864270000E+03 0. -1.
    8880022    1    1    2    0    0  0.25874608108E+03 -0.10043846176E+03  0.25745911452E+03  0.40830658548E+03  0.15294330000E+03 0.  0.
<mgrwt>
<rscale>  0 0.58323248E+03</rscale>
<asrwt>0</asrwt>
<pdfrwt beam="1">  1        2 0.18587042E+00 0.71473605E+03</pdfrwt>
<pdfrwt beam="2">  1       -2 0.68558377E-01 0.71473605E+03</pdfrwt>
<totfact> 0.37240168E+01</totfact>
</mgrwt>
</event>
<event>
 4    2  0.3171963E-007  0.6607037E+03  0.7818608E-02  0.1023447E+00
          2   -1    0    0  501    0  0.00000000000E+00  0.00000000000E+00  0.15998124185E+04  0.15998124185E+04  0.25500000000E-02 0. -1.
         -2   -1    0    0    0  501 -0.00000000000E+00 -0.00000000000E+00 -0.40134903911E+03  0.40134903911E+03  0.25500000000E-02 0.  1.
    8880023    1    1    2    0    0 -0.26232532461E+02  0.45066662075E+02  0.15111037718E+04  0.16492313256E+04  0.65864270000E+03 0. -1.
    8880022    1    1    2    0    0  0.26232532461E+02 -0.45066662075E+02 -0.31264039247E+03  0.35193013200E+03  0.15294330000E+03 0.  0.
<mgrwt>
<rscale>  0 0.46463035E+03</rscale>
<asrwt>0</asrwt>
<pdfrwt beam="1">  1        2 0.24612499E+00 0.66070368E+03</pdfrwt>
<pdfrwt beam="2">  1       -2 0.61746005E-01 0.66070368E+03</pdfrwt>
<totfact> 0.28185304E+01</totfact>
</mgrwt>
</event>
<event>
 4    2  0.3171963E-007  0.8400903E+03  0.7818608E-02  0.9630010E-01
         -2   -1    0    0    0  501 -0.00000000000E+00  0.00000000000E+00  0.30412792427E+03  0.30412792428E+03  0.25500000000E-02 0.  1.
          2   -1    0    0  501    0  0.00000000000E+00 -0.00000000000E+00 -0.17149732786E+04  0.17149732786E+04  0.25500000000E-02 0. -1.
    8880023    1    1    2    0    0 -0.10824201511E+03  0.51012273099E+03 -0.56040925408E+03  0.10098565605E+04  0.65864270000E+03 0.  0.
    8880022    1    1    2    0    0  0.10824201511E+03 -0.51012273099E+03 -0.85043610023E+03  0.10092446423E+04  0.15294330000E+03 0.  0.
<mgrwt>
<rscale>  0 0.75341370E+03</rscale>
<asrwt>0</asrwt>
<pdfrwt beam="1">  1        2 0.26384204E+00 0.84009032E+03</pdfrwt>
<pdfrwt beam="2">  1       -2 0.46788912E-01 0.84009032E+03</pdfrwt>
<totfact> 0.42316511E+01</totfact>
</mgrwt>
</event>
<event>
 4    2  0.3171963E-007  0.7388233E+03  0.7818608E-02  0.9863388E-01
         -2   -1    0    0    0  501 -0.00000000000E+00  0.00000000000E+00  0.18373563052E+03  0.18373563053E+03  0.25500000000E-02 0.  1.
          2   -1    0    0  501    0  0.00000000000E+00 -0.00000000000E+00 -0.25222907476E+04  0.25222907476E+04  0.25500000000E-02 0. -1.
    8880023    1    1    2    0    0  0.13037820756E+03 -0.30830376283E+03 -0.21862804164E+04  0.23077439097E+04  0.65864270000E+03 0. -1.
    8880022    1    1    2    0    0 -0.13037820756E+03  0.30830376283E+03 -0.15227470062E+03  0.39828246841E+03  0.15294330000E+03 0.  0.
<mgrwt>
<rscale>  0 0.62068943E+03</rscale>
<asrwt>0</asrwt>
<pdfrwt beam="1">  1        2 0.38804470E+00 0.73882332E+03</pdfrwt>
<pdfrwt beam="2">  1       -2 0.28267022E-01 0.73882332E+03</pdfrwt>
<totfact> 0.40387089E+01</totfact>
</mgrwt>
</event>
<event>
 4    2  0.3171963E-007  0.6707905E+03  0.7818608E-02  0.1015102E+00
         -2   -1    0    0    0  501 -0.00000000000E+00  0.00000000000E+00  0.30113111730E+03  0.30113111731E+03  0.25500000000E-02 0.  1.
          2   -1    0    0  501    0  0.00000000000E+00 -0.00000000000E+00 -0.11475472647E+04  0.11475472647E+04  0.25500000000E-02 0. -1.
    8880023    1    1    2    0    0  0.21267135360E+02  0.12528931173E+03 -0.99531781137E+03  0.12002572452E+04  0.65864270000E+03 0. -1.
    8880022    1    1    2    0    0 -0.21267135360E+02 -0.12528931173E+03  0.14890166397E+03  0.24842113684E+03  0.15294330000E+03 0.  0.
<mgrwt>
<rscale>  0 0.49496174E+03</rscale>
<asrwt>0</asrwt>
<pdfrwt beam="1">  1        2 0.17654573E+00 0.67079051E+03</pdfrwt>
<pdfrwt beam="2">  1       -2 0.46327865E-01 0.67079051E+03</pdfrwt>
<totfact> 0.91968622E+01</totfact>
</mgrwt>
</event>
<event>
 4    2  0.3171963E-007  0.6861137E+03  0.7818608E-02  0.1006057E+00
          2   -1    0    0  501    0  0.00000000000E+00  0.00000000000E+00  0.12213067692E+04  0.12213067692E+04  0.25500000000E-02 0. -1.
         -2   -1    0    0    0  501 -0.00000000000E+00 -0.00000000000E+00 -0.23793707742E+03  0.23793707743E+03  0.25500000000E-02 0.  1.
    8880023    1    1    2    0    0 -0.17900584311E+03 -0.69990615674E+02  0.33023935774E+03  0.76145257096E+03  0.65864270000E+03 0.  1.
    8880022    1    1    2    0    0  0.17900584311E+03  0.69990615674E+02  0.65313033406E+03  0.69779127569E+03  0.15294330000E+03 0.  0.
<mgrwt>
<rscale>  0 0.53072166E+03</rscale>
<asrwt>0</asrwt>
<pdfrwt beam="1">  1        2 0.18789335E+00 0.68611368E+03</pdfrwt>
<pdfrwt beam="2">  1       -2 0.36605705E-01 0.68611368E+03</pdfrwt>
<totfact> 0.13172292E+02</totfact>
</mgrwt>
</event>
<event>
 4    2  0.3171963E-007  0.7719488E+03  0.7818608E-02  0.9775101E-01
          2   -1    0    0  501    0  0.00000000000E+00  0.00000000000E+00  0.33473582043E+04  0.33473582043E+04  0.25500000000E-02 0. -1.
         -2   -1    0    0    0  501 -0.00000000000E+00 -0.00000000000E+00 -0.20109198162E+03  0.20109198164E+03  0.25500000000E-02 0.  1.
    8880023    1    1    2    0    0 -0.35946504365E+03 -0.18132719932E+03  0.29935732838E+04  0.30915022048E+04  0.65864270000E+03 0. -1.
    8880022    1    1    2    0    0  0.35946504365E+03  0.18132719932E+03  0.15269293886E+03  0.45694798108E+03  0.15294330000E+03 0.  0.
<mgrwt>
<rscale>  0 0.66716052E+03</rscale>
<asrwt>0</asrwt>
<pdfrwt beam="1">  1        2 0.51497812E+00 0.77194875E+03</pdfrwt>
<pdfrwt beam="2">  1       -2 0.30937232E-01 0.77194875E+03</pdfrwt>
<totfact> 0.10717078E+01</totfact>
</mgrwt>
</event>
<event>
 4    2  0.3171963E-007  0.6731690E+03  0.7818608E-02  0.1013486E+00
         -2   -1    0    0    0  501 -0.00000000000E+00  0.00000000000E+00  0.55768876668E+03  0.55768876669E+03  0.25500000000E-02 0.  1.
          2   -1    0    0  501    0  0.00000000000E+00 -0.00000000000E+00 -0.51702410468E+03  0.51702410468E+03  0.25500000000E-02 0. -1.
    8880023    1    1    2    0    0  0.13703542155E+03 -0.23825129214E+02 -0.24994489949E+03  0.71807311785E+03  0.65864270000E+03 0. -1.
    8880022    1    1    2    0    0 -0.13703542155E+03  0.23825129214E+02  0.29060956150E+03  0.35663975352E+03  0.15294330000E+03 0.  0.
<mgrwt>
<rscale>  0 0.50112361E+03</rscale>
<asrwt>0</asrwt>
<pdfrwt beam="1">  1        2 0.79542170E-01 0.67316904E+03</pdfrwt>
<pdfrwt beam="2">  1       -2 0.85798272E-01 0.67316904E+03</pdfrwt>
<totfact> 0.70994830E+01</totfact>
</mgrwt>
</event>
<event>
 4    2  0.3171963E-007  0.1604528E+04  0.7818608E-02  0.8839147E-01
         -2   -1    0    0    0  501 -0.00000000000E+00  0.00000000000E+00  0.24199694435E+04  0.24199694435E+04  0.25500000000E-02 0.  1.
          2   -1    0    0  501    0  0.00000000000E+00 -0.00000000000E+00 -0.11017439820E+04  0.11017439820E+04  0.25500000000E-02 0. -1.
    8880023    1    1    2    0    0  0.82105950645E+03  0.12110169577E+04  0.12759603667E+04  0.20500209386E+04  0.65864270000E+03 0.  1.
    8880022    1    1    2    0    0 -0.82105950645E+03 -0.12110169577E+04  0.42265094744E+02  0.14716924869E+04  0.15294330000E+03 0.  0.
<mgrwt>
<rscale>  0 0.15700736E+04</rscale>
<asrwt>0</asrwt>
<pdfrwt beam="1">  1        2 0.16949908E+00 0.16045283E+04</pdfrwt>
<pdfrwt beam="2">  1       -2 0.37230299E+00 0.16045283E+04</pdfrwt>
<totfact> 0.22863030E-01</totfact>
</mgrwt>
</event>
<event>
 4    2  0.3244690E-007  0.7596289E+03  0.7818608E-02  0.9806069E-01
          2   -1    0    0  501    0  0.00000000000E+00  0.00000000000E+00  0.15398836131E+04  0.15398836131E+04  0.25500000000E-02 0. -1.
         -2   -1    0    0    0  501 -0.00000000000E+00 -0.00000000000E+00 -0.11782346136E+04  0.11782346136E+04  0.25500000000E-02 0.  1.
    8880023    1    1    2    0    0 -0.17994104756E+03  0.33293701724E+03  0.14053078695E+04  0.15974749614E+04  0.65864270000E+03 0. -1.
    8880022    1    1    2    0    0  0.17994104756E+03 -0.33293701724E+03 -0.10436588700E+04  0.11206432653E+04  0.15294330000E+03 0.  0.
<mgrwt>
<rscale>  0 0.65037850E+03</rscale>
<asrwt>0</asrwt>
<pdfrwt beam="1">  1        2 0.23690517E+00 0.75962889E+03</pdfrwt>
<pdfrwt beam="2">  1       -2 0.18126686E+00 0.75962889E+03</pdfrwt>
<totfact> 0.22037042E+00</totfact>
</mgrwt>
</event>
<event>
 4    2  0.3414328E-007  0.6828152E+03  0.7818608E-02  0.1007774E+00
         -2   -1    0    0    0  501 -0.00000000000E+00  0.00000000000E+00  0.74378987129E+03  0.74378987129E+03  0.25500000000E-02 0.  1.
          2   -1    0    0  501    0  0.00000000000E+00 -0.00000000000E+00 -0.20251211362E+04  0.20251211362E+04  0.25500000000E-02 0. -1.
    8880023    1    1    2    0    0 -0.51547496416E+02  0.17253766184E+03 -0.19466279273E+04  0.20629098097E+04  0.65864270000E+03 0. -1.
    8880022    1    1    2    0    0  0.51547496416E+02 -0.17253766184E+03  0.66529666247E+03  0.70600119776E+03  0.15294330000E+03 0.  0.
<mgrwt>
<rscale>  0 0.52368991E+03</rscale>
<asrwt>0</asrwt>
<pdfrwt beam="1">  1        2 0.31155709E+00 0.68281520E+03</pdfrwt>
<pdfrwt beam="2">  1       -2 0.11442921E+00 0.68281520E+03</pdfrwt>
<totfact> 0.40525613E+00</totfact>
</mgrwt>
</event>
<event>
 4    2  0.3171963E-007  0.8912466E+03  0.7818608E-02  0.9540232E-01
          2   -1    0    0  501    0  0.00000000000E+00  0.00000000000E+00  0.14036500179E+04  0.14036500179E+04  0.25500000000E-02 0. -1.
         -2   -1    0    0    0  501 -0.00000000000E+00 -0.00000000000E+00 -0.55023029976E+03  0.55023029976E+03  0.25500000000E-02 0.  1.
    8880023    1    1    2    0    0  0.16164869303E+03 -0.57825602774E+03 -0.98146312224E+01  0.89130066017E+03  0.65864270000E+03 0.  1.
    8880022    1    1    2    0    0 -0.16164869303E+03  0.57825602774E+03  0.86323434933E+03  0.10625796575E+04  0.15294330000E+03 0.  0.
<mgrwt>
<rscale>  0 0.81381552E+03</rscale>
<asrwt>0</asrwt>
<pdfrwt beam="1">  1        2 0.21594616E+00 0.89124662E+03</pdfrwt>
<pdfrwt beam="2">  1       -2 0.84650816E-01 0.89124662E+03</pdfrwt>
<totfact> 0.17630177E+01</totfact>
</mgrwt>
</event>
<event>
 4    2  0.3171963E-007  0.1029014E+04  0.7818608E-02  0.9344545E-01
          2   -1    0    0  501    0  0.00000000000E+00  0.00000000000E+00  0.44118549038E+04  0.44118549038E+04  0.25500000000E-02 0. -1.
         -2   -1    0    0    0  501 -0.00000000000E+00 -0.00000000000E+00 -0.22788732417E+03  0.22788732419E+03  0.25500000000E-02 0.  1.
    8880023    1    1    2    0    0 -0.24781614180E+03 -0.75076431254E+03  0.13736395407E+04  0.17163203917E+04  0.65864270000E+03 0.  0.
    8880022    1    1    2    0    0  0.24781614180E+03  0.75076431254E+03  0.28103280390E+04  0.29234218362E+04  0.15294330000E+03 0.  0.
<mgrwt>
<rscale>  0 0.96783361E+03</rscale>
<asrwt>0</asrwt>
<pdfrwt beam="1">  1        2 0.67874680E+00 0.10290141E+04</pdfrwt>
<pdfrwt beam="2">  1       -2 0.35059594E-01 0.10290141E+04</pdfrwt>
<totfact> 0.12175610E+00</totfact>
</mgrwt>
</event>
<event>
 4    2  0.3171963E-007  0.6968718E+03  0.7818608E-02  0.1001043E+00
         -2   -1    0    0    0  501 -0.00000000000E+00  0.00000000000E+00  0.13147025099E+03  0.13147025102E+03  0.25500000000E-02 0.  1.
          2   -1    0    0  501    0  0.00000000000E+00 -0.00000000000E+00 -0.22656577026E+04  0.22656577026E+04  0.25500000000E-02 0. -1.
    8880023    1    1    2    0    0  0.87105188149E+01 -0.22747359480E+03 -0.19392422288E+04  0.20606529882E+04  0.65864270000E+03 0. -1.
    8880022    1    1    2    0    0 -0.87105188149E+01  0.22747359480E+03 -0.19494522284E+03  0.33647496547E+03  0.15294330000E+03 0.  0.
<mgrwt>
<rscale>  0 0.55195083E+03</rscale>
<asrwt>0</asrwt>
<pdfrwt beam="1">  1        2 0.34856270E+00 0.69687181E+03</pdfrwt>
<pdfrwt beam="2">  1       -2 0.20226194E-01 0.69687181E+03</pdfrwt>
<totfact> 0.10300997E+02</totfact>
</mgrwt>
</event>
<event>
 4    2  0.3171963E-007  0.7329774E+03  0.7818608E-02  0.9880897E-01
         -2   -1    0    0    0  501 -0.00000000000E+00  0.00000000000E+00  0.59231571892E+03  0.59231571892E+03  0.25500000000E-02 0.  1.
          2   -1    0    0  501    0  0.00000000000E+00 -0.00000000000E+00 -0.58134321985E+03  0.58134321985E+03  0.25500000000E-02 0. -1.
    8880023    1    1    2    0    0 -0.17693891369E+03 -0.26858582840E+03 -0.19992855515E+03  0.75975480243E+03  0.65864270000E+03 0. -1.
    8880022    1    1    2    0    0  0.17693891369E+03  0.26858582840E+03  0.21090105422E+03  0.41390413634E+03  0.15294330000E+03 0.  1.
<mgrwt>
<rscale>  0 0.61196117E+03</rscale>
<asrwt>0</asrwt>
<pdfrwt beam="1">  1        2 0.89437419E-01 0.73297744E+03</pdfrwt>
<pdfrwt beam="2">  1       -2 0.91125494E-01 0.73297744E+03</pdfrwt>
<totfact> 0.53612848E+01</totfact>
</mgrwt>
</event>
<event>
 4    2  0.3171963E-007  0.9054606E+03  0.7818608E-02  0.9517322E-01
          2   -1    0    0  501    0  0.00000000000E+00  0.00000000000E+00  0.36019367496E+04  0.36019367496E+04  0.25500000000E-02 0. -1.
         -2   -1    0    0    0  501 -0.00000000000E+00 -0.00000000000E+00 -0.39816519573E+03  0.39816519574E+03  0.25500000000E-02 0.  1.
    8880023    1    1    2    0    0  0.60880951718E+03 -0.12409518587E+03  0.32351356500E+04  0.33594585165E+04  0.65864270000E+03 0.  0.
    8880022    1    1    2    0    0 -0.60880951718E+03  0.12409518587E+03 -0.31364096218E+02  0.64064342883E+03  0.15294330000E+03 0.  0.
<mgrwt>
<rscale>  0 0.83018710E+03</rscale>
<asrwt>0</asrwt>
<pdfrwt beam="1">  1        2 0.55414411E+00 0.90546057E+03</pdfrwt>
<pdfrwt beam="2">  1       -2 0.61256184E-01 0.90546057E+03</pdfrwt>
<totfact> 0.18037732E+00</totfact>
</mgrwt>
</event>
<event>
 4    2  0.3171963E-007  0.7933856E+03  0.7818608E-02  0.9725284E-01
         -2   -1    0    0    0  501 -0.00000000000E+00  0.00000000000E+00  0.19510694345E+04  0.19510694345E+04  0.25500000000E-02 0.  1.
          2   -1    0    0  501    0  0.00000000000E+00 -0.00000000000E+00 -0.77793578388E+03  0.77793578388E+03  0.25500000000E-02 0. -1.
    8880023    1    1    2    0    0  0.38845120362E+03 -0.21155666770E+03 -0.53565603550E+03  0.95728164918E+03  0.65864270000E+03 0.  0.
    8880022    1    1    2    0    0 -0.38845120362E+03  0.21155666770E+03  0.17087896862E+04  0.17717235692E+04  0.15294330000E+03 0.  0.
<mgrwt>
<rscale>  0 0.69531120E+03</rscale>
<asrwt>0</asrwt>
<pdfrwt beam="1">  1        2 0.11968243E+00 0.79338564E+03</pdfrwt>
<pdfrwt beam="2">  1       -2 0.30016453E+00 0.79338564E+03</pdfrwt>
<totfact> 0.11744696E+00</totfact>
</mgrwt>
</event>
<event>
 4    2  0.3171963E-007  0.7932871E+03  0.7818608E-02  0.9725503E-01
         -2   -1    0    0    0  501 -0.00000000000E+00  0.00000000000E+00  0.27649814881E+03  0.27649814882E+03  0.25500000000E-02 0.  1.
          2   -1    0    0  501    0  0.00000000000E+00 -0.00000000000E+00 -0.16480973288E+04  0.16480973288E+04  0.25500000000E-02 0. -1.
    8880023    1    1    2    0    0 -0.41826129997E+03 -0.14335884711E+03 -0.11736240654E+04  0.14165796579E+04  0.65864270000E+03 0.  0.
    8880022    1    1    2    0    0  0.41826129997E+03  0.14335884711E+03 -0.19797511467E+03  0.50801581977E+03  0.15294330000E+03 0.  0.
<mgrwt>
<rscale>  0 0.69518443E+03</rscale>
<asrwt>0</asrwt>
<pdfrwt beam="1">  1        2 0.25355343E+00 0.79328714E+03</pdfrwt>
<pdfrwt beam="2">  1       -2 0.42538178E-01 0.79328714E+03</pdfrwt>
<totfact> 0.55947363E+01</totfact>
</mgrwt>
</event>
<event>
 4    2  0.3171963E-007  0.7267305E+03  0.7818608E-02  0.9900437E-01
         -2   -1    0    0    0  501 -0.00000000000E+00  0.00000000000E+00  0.50168868674E+03  0.50168868674E+03  0.25500000000E-02 0.  1.
          2   -1    0    0  501    0  0.00000000000E+00 -0.00000000000E+00 -0.70752429712E+03  0.70752429712E+03  0.25500000000E-02 0. -1.
    8880023    1    1    2    0    0  0.15555657064E+03  0.26481916993E+03 -0.38471683582E+03  0.82227993376E+03  0.65864270000E+03 0.  0.
    8880022    1    1    2    0    0 -0.15555657064E+03 -0.26481916993E+03  0.17888122544E+03  0.38693305011E+03  0.15294330000E+03 0.  0.
<mgrwt>
<rscale>  0 0.60240106E+03</rscale>
<asrwt>0</asrwt>
<pdfrwt beam="1">  1        2 0.10884989E+00 0.72673052E+03</pdfrwt>
<pdfrwt beam="2">  1       -2 0.77182875E-01 0.72673052E+03</pdfrwt>
<totfact> 0.61424633E+01</totfact>
</mgrwt>
</event>
<event>
 4    2  0.3171963E-007  0.7194305E+03  0.7818608E-02  0.9924518E-01
         -2   -1    0    0    0  501 -0.00000000000E+00  0.00000000000E+00  0.57032140594E+03  0.57032140595E+03  0.25500000000E-02 0.  1.
          2   -1    0    0  501    0  0.00000000000E+00 -0.00000000000E+00 -0.95241110293E+03  0.95241110293E+03  0.25500000000E-02 0. -1.
    8880023    1    1    2    0    0  0.12722521188E+03  0.25996875315E+03 -0.74385511994E+03  0.10348432987E+04  0.65864270000E+03 0. -1.
    8880022    1    1    2    0    0 -0.12722521188E+03 -0.25996875315E+03  0.36176542295E+03  0.48788921018E+03  0.15294330000E+03 0.  0.
<mgrwt>
<rscale>  0 0.59087628E+03</rscale>
<asrwt>0</asrwt>
<pdfrwt beam="1">  1        2 0.14652479E+00 0.71943048E+03</pdfrwt>
<pdfrwt beam="2">  1       -2 0.87741754E-01 0.71943048E+03</pdfrwt>
<totfact> 0.30873515E+01</totfact>
</mgrwt>
</event>
<event>
 4    2  0.3171963E-007  0.1051378E+04  0.7818608E-02  0.9317227E-01
         -2   -1    0    0    0  501 -0.00000000000E+00  0.00000000000E+00  0.15701984605E+04  0.15701984605E+04  0.25500000000E-02 0.  1.
          2   -1    0    0  501    0  0.00000000000E+00 -0.00000000000E+00 -0.10876790943E+04  0.10876790943E+04  0.25500000000E-02 0. -1.
    8880023    1    1    2    0    0  0.42759650559E+03  0.69910438119E+03 -0.66162631303E+03  0.12422339923E+04  0.65864270000E+03 0. -1.
    8880022    1    1    2    0    0 -0.42759650559E+03 -0.69910438119E+03  0.11441456792E+04  0.14156435624E+04  0.15294330000E+03 0.  0.
<mgrwt>
<rscale>  0 0.99212302E+03</rscale>
<asrwt>0</asrwt>
<pdfrwt beam="1">  1        2 0.16733525E+00 0.10513781E+04</pdfrwt>
<pdfrwt beam="2">  1       -2 0.24156899E+00 0.10513781E+04</pdfrwt>
<totfact> 0.15890725E+00</totfact>
</mgrwt>
</event>
<event>
 4    2  0.3171963E-007  0.7354567E+03  0.7818608E-02  0.9873384E-01
         -2   -1    0    0    0  501 -0.00000000000E+00  0.00000000000E+00  0.58293771064E+03  0.58293771064E+03  0.25500000000E-02 0.  1.
          2   -1    0    0  501    0  0.00000000000E+00 -0.00000000000E+00 -0.13630553797E+04  0.13630553797E+04  0.25500000000E-02 0. -1.
    8880023    1    1    2    0    0 -0.31095646460E+03  0.10194359716E+03 -0.11904568308E+04  0.13993155799E+04  0.65864270000E+03 0. -1.
    8880022    1    1    2    0    0  0.31095646460E+03 -0.10194359716E+03  0.41033916167E+03  0.54667751051E+03  0.15294330000E+03 0.  0.
<mgrwt>
<rscale>  0 0.61568709E+03</rscale>
<asrwt>0</asrwt>
<pdfrwt beam="1">  1        2 0.20970083E+00 0.73545675E+03</pdfrwt>
<pdfrwt beam="2">  1       -2 0.89682725E-01 0.73545675E+03</pdfrwt>
<totfact> 0.16573051E+01</totfact>
</mgrwt>
</event>
<event>
 4    2  0.3171963E-007  0.6909616E+03  0.7818608E-02  0.1003699E+00
          2   -1    0    0  501    0  0.00000000000E+00  0.00000000000E+00  0.28327695037E+04  0.28327695037E+04  0.25500000000E-02 0. -1.
         -2   -1    0    0    0  501 -0.00000000000E+00 -0.00000000000E+00 -0.30208650114E+03  0.30208650115E+03  0.25500000000E-02 0.  1.
    8880023    1    1    2    0    0 -0.47506161586E+02 -0.20337380007E+03  0.27249614518E+04  0.28111995408E+04  0.65864270000E+03 0. -1.
    8880022    1    1    2    0    0  0.47506161586E+02  0.20337380007E+03 -0.19427844918E+03  0.32365646413E+03  0.15294330000E+03 0.  0.
<mgrwt>
<rscale>  0 0.54057679E+03</rscale>
<asrwt>0</asrwt>
<pdfrwt beam="1">  1        2 0.43581068E+00 0.69096161E+03</pdfrwt>
<pdfrwt beam="2">  1       -2 0.46474848E-01 0.69096161E+03</pdfrwt>
<totfact> 0.10369561E+01</totfact>
</mgrwt>
</event>
<event>
 4    2  0.3171963E-007  0.7746787E+03  0.7818608E-02  0.9768489E-01
          2   -1    0    0  501    0  0.00000000000E+00  0.00000000000E+00  0.57123206979E+03  0.57123206979E+03  0.25500000000E-02 0. -1.
         -2   -1    0    0    0  501 -0.00000000000E+00 -0.00000000000E+00 -0.65612999142E+03  0.65612999142E+03  0.25500000000E-02 0.  1.
    8880023    1    1    2    0    0  0.26268594234E+03 -0.31195023580E+03  0.35438652367E+02  0.77548885115E+03  0.65864270000E+03 0.  0.
    8880022    1    1    2    0    0 -0.26268594234E+03  0.31195023580E+03 -0.12033657400E+03  0.45187321007E+03  0.15294330000E+03 0.  0.
<mgrwt>
<rscale>  0 0.67081390E+03</rscale>
<asrwt>0</asrwt>
<pdfrwt beam="1">  1        2 0.87881857E-01 0.77467868E+03</pdfrwt>
<pdfrwt beam="2">  1       -2 0.10094308E+00 0.77467868E+03</pdfrwt>
<totfact> 0.42950003E+01</totfact>
</mgrwt>
</event>
<event>
 4    2  0.3171963E-007  0.6724457E+03  0.7818608E-02  0.1013967E+00
         -2   -1    0    0    0  501 -0.00000000000E+00  0.00000000000E+00  0.16839147896E+03  0.16839147898E+03  0.25500000000E-02 0.  1.
          2   -1    0    0  501    0  0.00000000000E+00 -0.00000000000E+00 -0.31644456966E+04  0.31644456966E+04  0.25500000000E-02 0. -1.
    8880023    1    1    2    0    0  0.52225756798E+02 -0.12508193195E+03 -0.30485545386E+04  0.31218372797E+04  0.65864270000E+03 0. -1.
    8880022    1    1    2    0    0 -0.52225756798E+02  0.12508193195E+03  0.52500320965E+02  0.21099989595E+03  0.15294330000E+03 0.  0.
<mgrwt>
<rscale>  0 0.49927987E+03</rscale>
<asrwt>0</asrwt>
<pdfrwt beam="1">  1        2 0.48683776E+00 0.67244570E+03</pdfrwt>
<pdfrwt beam="2">  1       -2 0.25906384E-01 0.67244570E+03</pdfrwt>
<totfact> 0.19837826E+01</totfact>
</mgrwt>
</event>
<event>
 4    2  0.3171963E-007  0.7062652E+03  0.7818608E-02  0.9972140E-01
          2   -1    0    0  501    0  0.00000000000E+00  0.00000000000E+00  0.26938845458E+04  0.26938845458E+04  0.25500000000E-02 0. -1.
         -2   -1    0    0    0  501 -0.00000000000E+00 -0.00000000000E+00 -0.15511040705E+03  0.15511040707E+03  0.25500000000E-02 0.  1.
    8880023    1    1    2    0    0 -0.20784951036E+03 -0.14764449749E+03  0.24329927026E+04  0.25334292991E+04  0.65864270000E+03 0.  0.
    8880022    1    1    2    0    0  0.20784951036E+03  0.14764449749E+03  0.10578143622E+03  0.31556565380E+03  0.15294330000E+03 0.  0.
<mgrwt>
<rscale>  0 0.56888889E+03</rscale>
<asrwt>0</asrwt>
<pdfrwt beam="1">  1        2 0.41444381E+00 0.70626519E+03</pdfrwt>
<pdfrwt beam="2">  1       -2 0.23863138E-01 0.70626519E+03</pdfrwt>
<totfact> 0.43971117E+01</totfact>
</mgrwt>
</event>
<event>
 4    2  0.3171963E-007  0.8622474E+03  0.7818608E-02  0.9589578E-01
          2   -1    0    0  501    0  0.00000000000E+00  0.00000000000E+00  0.22254792806E+04  0.22254792806E+04  0.25500000000E-02 0. -1.
         -2   -1    0    0    0  501 -0.00000000000E+00 -0.00000000000E+00 -0.29384783743E+03  0.29384783744E+03  0.25500000000E-02 0.  1.
    8880023    1    1    2    0    0  0.21960390414E+03  0.51130668009E+03  0.55186530665E+03  0.10237313704E+04  0.65864270000E+03 0.  0.
    8880022    1    1    2    0    0 -0.21960390414E+03 -0.51130668009E+03  0.13797661365E+04  0.14955957476E+04  0.15294330000E+03 0.  0.
<mgrwt>
<rscale>  0 0.77989824E+03</rscale>
<asrwt>0</asrwt>
<pdfrwt beam="1">  1        2 0.34238144E+00 0.86224741E+03</pdfrwt>
<pdfrwt beam="2">  1       -2 0.45207358E-01 0.86224741E+03</pdfrwt>
<totfact> 0.23717915E+01</totfact>
</mgrwt>
</event>
<event>
 4    2  0.3171963E-007  0.1744401E+04  0.7818608E-02  0.8753931E-01
          2   -1    0    0  501    0  0.00000000000E+00  0.00000000000E+00  0.12856811049E+04  0.12856811050E+04  0.25500000000E-02 0. -1.
         -2   -1    0    0    0  501 -0.00000000000E+00 -0.00000000000E+00 -0.27037503839E+04  0.27037503839E+04  0.25500000000E-02 0.  1.
    8880023    1    1    2    0    0 -0.15895656499E+04 -0.28706560127E+03  0.12691074246E+03  0.17490117660E+04  0.65864270000E+03 0.  0.
    8880022    1    1    2    0    0  0.15895656499E+04  0.28706560127E+03 -0.15449800214E+04  0.22404197228E+04  0.15294330000E+03 0.  0.
<mgrwt>
<rscale>  0 0.17130940E+04</rscale>
<asrwt>0</asrwt>
<pdfrwt beam="1">  1        2 0.19779709E+00 0.17444013E+04</pdfrwt>
<pdfrwt beam="2">  1       -2 0.41596160E+00 0.17444013E+04</pdfrwt>
<totfact> 0.90356638E-02</totfact>
</mgrwt>
</event>
<event>
 4    2  0.3171963E-007  0.6947271E+03  0.7818608E-02  0.1001982E+00
          2   -1    0    0  501    0  0.00000000000E+00  0.00000000000E+00  0.11387559781E+04  0.11387559781E+04  0.25500000000E-02 0. -1.
         -2   -1    0    0    0  501 -0.00000000000E+00 -0.00000000000E+00 -0.26170617583E+03  0.26170617585E+03  0.25500000000E-02 0.  1.
    8880023    1    1    2    0    0 -0.13984087821E+03 -0.17111423928E+03  0.89279404335E+03  0.11312501776E+04  0.65864270000E+03 0. -1.
    8880022    1    1    2    0    0  0.13984087821E+03  0.17111423928E+03 -0.15744241066E+02  0.26921197641E+03  0.15294330000E+03 0.  0.
<mgrwt>
<rscale>  0 0.54789620E+03</rscale>
<asrwt>0</asrwt>
<pdfrwt beam="1">  1        2 0.17519323E+00 0.69472711E+03</pdfrwt>
<pdfrwt beam="2">  1       -2 0.40262489E-01 0.69472711E+03</pdfrwt>
<totfact> 0.12258594E+02</totfact>
</mgrwt>
</event>
<event>
 4    2  0.3171963E-007  0.6752811E+03  0.7818608E-02  0.1012130E+00
          2   -1    0    0  501    0  0.00000000000E+00  0.00000000000E+00  0.51229062914E+03  0.51229062915E+03  0.25500000000E-02 0. -1.
         -2   -1    0    0    0  501 -0.00000000000E+00 -0.00000000000E+00 -0.38947968877E+03  0.38947968878E+03  0.25500000000E-02 0.  1.
    8880023    1    1    2    0    0 -0.10402043664E+03  0.10664949142E+03  0.53955072606E+02  0.67743318592E+03  0.65864270000E+03 0.  1.
    8880022    1    1    2    0    0  0.10402043664E+03 -0.10664949142E+03  0.68855867763E+02  0.22433713201E+03  0.15294330000E+03 0. -1.
<mgrwt>
<rscale>  0 0.50636935E+03</rscale>
<asrwt>0</asrwt>
<pdfrwt beam="1">  1        2 0.78813943E-01 0.67528111E+03</pdfrwt>
<pdfrwt beam="2">  1       -2 0.59919952E-01 0.67528111E+03</pdfrwt>
<totfact> 0.15760717E+02</totfact>
</mgrwt>
</event>
<event>
 4    2  0.3171963E-007  0.7535168E+03  0.7818608E-02  0.9822191E-01
         -2   -1    0    0    0  501 -0.00000000000E+00  0.00000000000E+00  0.26469109996E+03  0.26469109997E+03  0.25500000000E-02 0.  1.
          2   -1    0    0  501    0  0.00000000000E+00 -0.00000000000E+00 -0.32603795971E+04  0.32603795971E+04  0.25500000000E-02 0. -1.
    8880023    1    1    2    0    0  0.36436911946E+03 -0.34820123636E+02 -0.30343342893E+04  0.31264951754E+04  0.65864270000E+03 0. -1.
    8880022    1    1    2    0    0 -0.36436911946E+03  0.34820123636E+02  0.38645792156E+02  0.39857552169E+03  0.15294330000E+03 0.  0.
<mgrwt>
<rscale>  0 0.64185151E+03</rscale>
<asrwt>0</asrwt>
<pdfrwt beam="1">  1        2 0.50159683E+00 0.75351676E+03</pdfrwt>
<pdfrwt beam="2">  1       -2 0.40721710E-01 0.75351676E+03</pdfrwt>
<totfact> 0.72484710E+00</totfact>
</mgrwt>
</event>
<event>
 4    2  0.3171963E-007  0.9229651E+03  0.7818608E-02  0.9490128E-01
          2   -1    0    0  501    0  0.00000000000E+00  0.00000000000E+00  0.17227812391E+04  0.17227812391E+04  0.25500000000E-02 0. -1.
         -2   -1    0    0    0  501 -0.00000000000E+00 -0.00000000000E+00 -0.59953812043E+03  0.59953812044E+03  0.25500000000E-02 0.  1.
    8880023    1    1    2    0    0  0.16857872517E+03  0.62420794899E+03  0.13367637580E+04  0.16244389496E+04  0.65864270000E+03 0. -1.
    8880022    1    1    2    0    0 -0.16857872517E+03 -0.62420794899E+03 -0.21352063929E+03  0.69788040994E+03  0.15294330000E+03 0.  0.
<mgrwt>
<rscale>  0 0.85015606E+03</rscale>
<asrwt>0</asrwt>
<pdfrwt beam="1">  1        2 0.26504327E+00 0.92296509E+03</pdfrwt>
<pdfrwt beam="2">  1       -2 0.92236634E-01 0.92296509E+03</pdfrwt>
<totfact> 0.95713471E+00</totfact>
</mgrwt>
</event>
<event>
 4    2  0.3171963E-007  0.9625152E+03  0.7818608E-02  0.9432332E-01
          2   -1    0    0  501    0  0.00000000000E+00  0.00000000000E+00  0.12444872622E+04  0.12444872622E+04  0.25500000000E-02 0. -1.
         -2   -1    0    0    0  501 -0.00000000000E+00 -0.00000000000E+00 -0.57958329430E+03  0.57958329431E+03  0.25500000000E-02 0.  1.
    8880023    1    1    2    0    0  0.69316085036E+03  0.11024176316E+03  0.50974074066E+03  0.10891607043E+04  0.65864270000E+03 0.  0.
    8880022    1    1    2    0    0 -0.69316085036E+03 -0.11024176316E+03  0.15516322724E+03  0.73490985224E+03  0.15294330000E+03 0. -1.
<mgrwt>
<rscale>  0 0.89462013E+03</rscale>
<asrwt>0</asrwt>
<pdfrwt beam="1">  1        2 0.19145958E+00 0.96251515E+03</pdfrwt>
<pdfrwt beam="2">  1       -2 0.89166661E-01 0.96251515E+03</pdfrwt>
<totfact> 0.19210514E+01</totfact>
</mgrwt>
</event>
<event>
 4    2  0.3171963E-007  0.9399740E+03  0.7818608E-02  0.9464688E-01
          2   -1    0    0  501    0  0.00000000000E+00  0.00000000000E+00  0.16301995582E+04  0.16301995582E+04  0.25500000000E-02 0. -1.
         -2   -1    0    0    0  501 -0.00000000000E+00 -0.00000000000E+00 -0.10302115125E+04  0.10302115125E+04  0.25500000000E-02 0.  1.
    8880023    1    1    2    0    0 -0.20605372332E-01  0.67062728802E+03  0.13485447731E+04  0.16438139101E+04  0.65864270000E+03 0. -1.
    8880022    1    1    2    0    0  0.20605372332E-01 -0.67062728802E+03 -0.74855672739E+03  0.10165971606E+04  0.15294330000E+03 0.  0.
<mgrwt>
<rscale>  0 0.86938021E+03</rscale>
<asrwt>0</asrwt>
<pdfrwt beam="1">  1        2 0.25079993E+00 0.93997402E+03</pdfrwt>
<pdfrwt beam="2">  1       -2 0.15849408E+00 0.93997402E+03</pdfrwt>
<totfact> 0.27758318E+00</totfact>
</mgrwt>
</event>
<event>
 4    2  0.3171963E-007  0.1047830E+04  0.7818608E-02  0.9321495E-01
         -2   -1    0    0    0  501 -0.00000000000E+00  0.00000000000E+00  0.56762593179E+03  0.56762593179E+03  0.25500000000E-02 0.  1.
          2   -1    0    0  501    0  0.00000000000E+00 -0.00000000000E+00 -0.17352751775E+04  0.17352751775E+04  0.25500000000E-02 0. -1.
    8880023    1    1    2    0    0 -0.79338507043E+03 -0.18621723573E+03 -0.27240573138E+03  0.10826596038E+04  0.65864270000E+03 0.  1.
    8880022    1    1    2    0    0  0.79338507043E+03  0.18621723573E+03 -0.89524351434E+03  0.12202415055E+04  0.15294330000E+03 0. -1.
<mgrwt>
<rscale>  0 0.98827847E+03</rscale>
<asrwt>0</asrwt>
<pdfrwt beam="1">  1        2 0.26696541E+00 0.10478296E+04</pdfrwt>
<pdfrwt beam="2">  1       -2 0.87327067E-01 0.10478296E+04</pdfrwt>
<totfact> 0.10549543E+01</totfact>
</mgrwt>
</event>
<event>
 4    2  0.3171963E-007  0.7896401E+03  0.7818608E-02  0.9733661E-01
          2   -1    0    0  501    0  0.00000000000E+00  0.00000000000E+00  0.12661967536E+04  0.12661967536E+04  0.25500000000E-02 0. -1.
         -2   -1    0    0    0  501 -0.00000000000E+00 -0.00000000000E+00 -0.50167813886E+03  0.50167813887E+03  0.25500000000E-02 0.  1.
    8880023    1    1    2    0    0  0.21950663363E+03 -0.37621560673E+03  0.97989651218E+03  0.12584628424E+04  0.65864270000E+03 0.  0.
    8880022    1    1    2    0    0 -0.21950663363E+03  0.37621560673E+03 -0.21537789747E+03  0.50941205000E+03  0.15294330000E+03 0.  0.
<mgrwt>
<rscale>  0 0.69047531E+03</rscale>
<asrwt>0</asrwt>
<pdfrwt beam="1">  1        2 0.19479950E+00 0.78964014E+03</pdfrwt>
<pdfrwt beam="2">  1       -2 0.77181253E-01 0.78964014E+03</pdfrwt>
<totfact> 0.26323336E+01</totfact>
</mgrwt>
</event>
<event>
 4    2  0.3171963E-007  0.1182873E+04  0.7818608E-02  0.9173954E-01
          2   -1    0    0  501    0  0.00000000000E+00  0.00000000000E+00  0.19731450500E+04  0.19731450500E+04  0.25500000000E-02 0. -1.
         -2   -1    0    0    0  501 -0.00000000000E+00 -0.00000000000E+00 -0.80248644847E+03  0.80248644847E+03  0.25500000000E-02 0.  1.
    8880023    1    1    2    0    0  0.23825813302E+03 -0.95321073735E+03  0.13173735760E+04  0.17704973857E+04  0.65864270000E+03 0.  0.
    8880022    1    1    2    0    0 -0.23825813302E+03  0.95321073735E+03 -0.14671497455E+03  0.10051341127E+04  0.15294330000E+03 0.  0.
<mgrwt>
<rscale>  0 0.11326361E+04</rscale>
<asrwt>0</asrwt>
<pdfrwt beam="1">  1        2 0.30356078E+00 0.11828727E+04</pdfrwt>
<pdfrwt beam="2">  1       -2 0.12345945E+00 0.11828727E+04</pdfrwt>
<totfact> 0.33435726E+00</totfact>
</mgrwt>
</event>
<event>
 4    2  0.3171963E-007  0.6682988E+03  0.7818608E-02  0.1016913E+00
          2   -1    0    0  501    0  0.00000000000E+00  0.00000000000E+00  0.64524477222E+03  0.64524477223E+03  0.25500000000E-02 0. -1.
         -2   -1    0    0    0  501 -0.00000000000E+00 -0.00000000000E+00 -0.64565884506E+03  0.64565884507E+03  0.25500000000E-02 0.  1.
    8880023    1    1    2    0    0  0.10145456754E+03 -0.50200339687E+02  0.44747409059E+03  0.80427381618E+03  0.65864270000E+03 0.  0.
    8880022    1    1    2    0    0 -0.10145456754E+03  0.50200339687E+02 -0.44788816343E+03  0.48662980112E+03  0.15294330000E+03 0.  1.
<mgrwt>
<rscale>  0 0.48817296E+03</rscale>
<asrwt>0</asrwt>
<pdfrwt beam="1">  1        2 0.99268426E-01 0.66829882E+03</pdfrwt>
<pdfrwt beam="2">  1       -2 0.99332130E-01 0.66829882E+03</pdfrwt>
<totfact> 0.38826046E+01</totfact>
</mgrwt>
</event>
<event>
 4    2  0.3171963E-007  0.9801923E+03  0.7818608E-02  0.9407944E-01
          2   -1    0    0  501    0  0.00000000000E+00  0.00000000000E+00  0.11495253337E+04  0.11495253337E+04  0.25500000000E-02 0. -1.
         -2   -1    0    0    0  501 -0.00000000000E+00 -0.00000000000E+00 -0.14857782988E+04  0.14857782988E+04  0.25500000000E-02 0.  1.
    8880023    1    1    2    0    0 -0.97196454212E+01  0.72585961297E+03  0.80889033582E+03  0.12708581474E+04  0.65864270000E+03 0. -1.
    8880022    1    1    2    0    0  0.97196454212E+01 -0.72585961297E+03 -0.11451433009E+04  0.13644454851E+04  0.15294330000E+03 0.  0.
<mgrwt>
<rscale>  0 0.91424825E+03</rscale>
<asrwt>0</asrwt>
<pdfrwt beam="1">  1        2 0.17685005E+00 0.98019225E+03</pdfrwt>
<pdfrwt beam="2">  1       -2 0.22858128E+00 0.98019225E+03</pdfrwt>
<totfact> 0.17675563E+00</totfact>
</mgrwt>
</event>
<event>
 4    2  0.3171963E-007  0.8723586E+03  0.7818608E-02  0.9571947E-01
          2   -1    0    0  501    0  0.00000000000E+00  0.00000000000E+00  0.31447357755E+04  0.31447357755E+04  0.25500000000E-02 0. -1.
         -2   -1    0    0    0  501 -0.00000000000E+00 -0.00000000000E+00 -0.17929255578E+03  0.17929255580E+03  0.25500000000E-02 0.  1.
    8880023    1    1    2    0    0 -0.21596278634E+03  0.52967865370E+03  0.21142141209E+04  0.22871184832E+04  0.65864270000E+03 0. -1.
    8880022    1    1    2    0    0  0.21596278634E+03 -0.52967865370E+03  0.85122909889E+03  0.10369098481E+04  0.15294330000E+03 0.  0.
<mgrwt>
<rscale>  0 0.79181077E+03</rscale>
<asrwt>0</asrwt>
<pdfrwt beam="1">  1        2 0.48380553E+00 0.87235865E+03</pdfrwt>
<pdfrwt beam="2">  1       -2 0.27583469E-01 0.87235865E+03</pdfrwt>
<totfact> 0.17612566E+01</totfact>
</mgrwt>
</event>
<event>
 4    2  0.3171963E-007  0.7023707E+03  0.7818608E-02  0.9987505E-01
          2   -1    0    0  501    0  0.00000000000E+00  0.00000000000E+00  0.61612087034E+03  0.61612087035E+03  0.25500000000E-02 0. -1.
         -2   -1    0    0    0  501 -0.00000000000E+00 -0.00000000000E+00 -0.68713688542E+03  0.68713688543E+03  0.25500000000E-02 0.  1.
    8880023    1    1    2    0    0  0.20258858269E+03 -0.13591254945E+03  0.35662066445E+03  0.78772003879E+03  0.65864270000E+03 0.  0.
    8880022    1    1    2    0    0 -0.20258858269E+03  0.13591254945E+03 -0.42763667953E+03  0.51553771698E+03  0.15294330000E+03 0.  0.
<mgrwt>
<rscale>  0 0.56201516E+03</rscale>
<asrwt>0</asrwt>
<pdfrwt beam="1">  1        2 0.94787825E-01 0.70237067E+03</pdfrwt>
<pdfrwt beam="2">  1       -2 0.10571337E+00 0.70237067E+03</pdfrwt>
<totfact> 0.35308509E+01</totfact>
</mgrwt>
</event>
<event>
 4    2  0.3171963E-007  0.7080374E+03  0.7818608E-02  0.9965362E-01
          2   -1    0    0  501    0  0.00000000000E+00  0.00000000000E+00  0.43994891764E+03  0.43994891765E+03  0.25500000000E-02 0. -1.
         -2   -1    0    0    0  501 -0.00000000000E+00 -0.00000000000E+00 -0.65385002636E+03  0.65385002637E+03  0.25500000000E-02 0.  1.
    8880023    1    1    2    0    0  0.22382551695E+03  0.13194269146E+03  0.25986404863E+02  0.70851410386E+03  0.65864270000E+03 0. -1.
    8880022    1    1    2    0    0 -0.22382551695E+03 -0.13194269146E+03 -0.23988751358E+03  0.38528484016E+03  0.15294330000E+03 0.  0.
<mgrwt>
<rscale>  0 0.57195474E+03</rscale>
<asrwt>0</asrwt>
<pdfrwt beam="1">  1        2 0.67684449E-01 0.70803739E+03</pdfrwt>
<pdfrwt beam="2">  1       -2 0.10059231E+00 0.70803739E+03</pdfrwt>
<totfact> 0.58937939E+01</totfact>
</mgrwt>
</event>
<event>
 4    2  0.3171963E-007  0.7579100E+03  0.7818608E-02  0.9810549E-01
          2   -1    0    0  501    0  0.00000000000E+00  0.00000000000E+00  0.67507449005E+03  0.67507449006E+03  0.25500000000E-02 0. -1.
         -2   -1    0    0    0  501 -0.00000000000E+00 -0.00000000000E+00 -0.15163134577E+04  0.15163134577E+04  0.25500000000E-02 0.  1.
    8880023    1    1    2    0    0  0.94349877077E+02 -0.36292621983E+03  0.42015424939E+03  0.86657783256E+03  0.65864270000E+03 0. -1.
    8880022    1    1    2    0    0 -0.94349877077E+02  0.36292621983E+03 -0.12613932170E+04  0.13248101152E+04  0.15294330000E+03 0.  0.
<mgrwt>
<rscale>  0 0.64799504E+03</rscale>
<asrwt>0</asrwt>
<pdfrwt beam="1">  1        2 0.10385761E+00 0.75790999E+03</pdfrwt>
<pdfrwt beam="2">  1       -2 0.23327899E+00 0.75790999E+03</pdfrwt>
<totfact> 0.35881543E+00</totfact>
</mgrwt>
</event>
<event>
 4    2  0.3171963E-007  0.8309587E+03  0.7818608E-02  0.9647470E-01
          2   -1    0    0  501    0  0.00000000000E+00  0.00000000000E+00  0.20272601872E+04  0.20272601872E+04  0.25500000000E-02 0. -1.
         -2   -1    0    0    0  501 -0.00000000000E+00 -0.00000000000E+00 -0.33465389128E+03  0.33465389129E+03  0.25500000000E-02 0.  1.
    8880023    1    1    2    0    0  0.35374741386E+02 -0.50540157759E+03  0.16292439538E+04  0.18289144852E+04  0.65864270000E+03 0. -1.
    8880022    1    1    2    0    0 -0.35374741386E+02  0.50540157759E+03  0.63362342038E+02  0.53299959321E+03  0.15294330000E+03 0.  0.
<mgrwt>
<rscale>  0 0.74232422E+03</rscale>
<asrwt>0</asrwt>
<pdfrwt beam="1">  1        2 0.31188618E+00 0.83095868E+03</pdfrwt>
<pdfrwt beam="2">  1       -2 0.51485214E-01 0.83095868E+03</pdfrwt>
<totfact> 0.23529921E+01</totfact>
</mgrwt>
</event>
<event>
 4    2  0.3171963E-007  0.9450947E+03  0.7818608E-02  0.9457207E-01
          2   -1    0    0  501    0  0.00000000000E+00  0.00000000000E+00  0.19824472309E+04  0.19824472309E+04  0.25500000000E-02 0. -1.
         -2   -1    0    0    0  501 -0.00000000000E+00 -0.00000000000E+00 -0.43818751263E+03  0.43818751264E+03  0.25500000000E-02 0.  1.
    8880023    1    1    2    0    0 -0.44737748363E+02  0.67630788779E+03  0.14335350133E+04  0.17170400886E+04  0.65864270000E+03 0.  0.
    8880022    1    1    2    0    0  0.44737748363E+02 -0.67630788779E+03  0.11072470503E+03  0.70359465499E+03  0.15294330000E+03 0.  0.
<mgrwt>
<rscale>  0 0.87513646E+03</rscale>
<asrwt>0</asrwt>
<pdfrwt beam="1">  1        2 0.30499189E+00 0.94509472E+03</pdfrwt>
<pdfrwt beam="2">  1       -2 0.67413463E-01 0.94509472E+03</pdfrwt>
<totfact> 0.13912070E+01</totfact>
</mgrwt>
</event>
<event>
 4    2  0.3171963E-007  0.9014422E+03  0.7818608E-02  0.9523720E-01
         -2   -1    0    0    0  501 -0.00000000000E+00  0.00000000000E+00  0.13074340995E+04  0.13074340995E+04  0.25500000000E-02 0.  1.
          2   -1    0    0  501    0  0.00000000000E+00 -0.00000000000E+00 -0.55448675533E+03  0.55448675534E+03  0.25500000000E-02 0. -1.
    8880023    1    1    2    0    0 -0.44236513757E+02 -0.61386566163E+03  0.32375734462E+02  0.90202345542E+03  0.65864270000E+03 0.  0.
    8880022    1    1    2    0    0  0.44236513757E+02  0.61386566163E+03  0.72057160966E+03  0.95989739938E+03  0.15294330000E+03 0.  0.
<mgrwt>
<rscale>  0 0.82557386E+03</rscale>
<asrwt>0</asrwt>
<pdfrwt beam="1">  1        2 0.85305654E-01 0.90144225E+03</pdfrwt>
<pdfrwt beam="2">  1       -2 0.20114371E+00 0.90144225E+03</pdfrwt>
<totfact> 0.71545275E+00</totfact>
</mgrwt>
</event>
<event>
 4    2  0.3171963E-007  0.6623818E+03  0.7818608E-02  0.1021839E+00
          2   -1    0    0  501    0  0.00000000000E+00  0.00000000000E+00  0.12576308901E+04  0.12576308901E+04  0.25500000000E-02 0. -1.
         -2   -1    0    0    0  501 -0.00000000000E+00 -0.00000000000E+00 -0.15937308734E+03  0.15937308736E+03  0.25500000000E-02 0.  1.
    8880023    1    1    2    0    0  0.58494952378E+02  0.38959469040E+02  0.10507572013E+04  0.12421112680E+04  0.65864270000E+03 0.  1.
    8880022    1    1    2    0    0 -0.58494952378E+02 -0.38959469040E+02  0.47500601491E+02  0.17489270951E+03  0.15294330000E+03 0.  1.
<mgrwt>
<rscale>  0 0.47028848E+03</rscale>
<asrwt>0</asrwt>
<pdfrwt beam="1">  1        2 0.19348167E+00 0.66238184E+03</pdfrwt>
<pdfrwt beam="2">  1       -2 0.24518937E-01 0.66238184E+03</pdfrwt>
<totfact> 0.26416783E+02</totfact>
</mgrwt>
</event>
<event>
 4    2  0.3171963E-007  0.6597113E+03  0.7818608E-02  0.1024454E+00
         -2   -1    0    0    0  501 -0.00000000000E+00  0.00000000000E+00  0.69685761992E+03  0.69685761993E+03  0.25500000000E-02 0.  1.
          2   -1    0    0  501    0  0.00000000000E+00 -0.00000000000E+00 -0.44146874187E+03  0.44146874187E+03  0.25500000000E-02 0. -1.
    8880023    1    1    2    0    0  0.31720562415E+02  0.20066013186E+02 -0.17290822543E+03  0.68199435456E+03  0.65864270000E+03 0. -1.
    8880022    1    1    2    0    0 -0.31720562415E+02 -0.20066013186E+02  0.42829710349E+03  0.45633200724E+03  0.15294330000E+03 0.  0.
<mgrwt>
<rscale>  0 0.46112960E+03</rscale>
<asrwt>0</asrwt>
<pdfrwt beam="1">  1        2 0.67918268E-01 0.65971133E+03</pdfrwt>
<pdfrwt beam="2">  1       -2 0.10720886E+00 0.65971133E+03</pdfrwt>
<totfact> 0.50579525E+01</totfact>
</mgrwt>
</event>
<event>
 4    2  0.3171963E-007  0.7317632E+03  0.7818608E-02  0.9884624E-01
         -2   -1    0    0    0  501 -0.00000000000E+00  0.00000000000E+00  0.59681164680E+03  0.59681164681E+03  0.25500000000E-02 0.  1.
          2   -1    0    0  501    0  0.00000000000E+00 -0.00000000000E+00 -0.11713770798E+04  0.11713770798E+04  0.25500000000E-02 0. -1.
    8880023    1    1    2    0    0  0.50239264612E+02 -0.31487003722E+03 -0.98458179284E+03  0.12267349498E+04  0.65864270000E+03 0. -1.
    8880022    1    1    2    0    0 -0.50239264612E+02  0.31487003722E+03  0.41001635984E+03  0.54145377679E+03  0.15294330000E+03 0.  0.
<mgrwt>
<rscale>  0 0.61012270E+03</rscale>
<asrwt>0</asrwt>
<pdfrwt beam="1">  1        2 0.18021186E+00 0.73176317E+03</pdfrwt>
<pdfrwt beam="2">  1       -2 0.91817177E-01 0.73176317E+03</pdfrwt>
<totfact> 0.20296843E+01</totfact>
</mgrwt>
</event>
<event>
 4    2  0.3171963E-007  0.8768856E+03  0.7818608E-02  0.9564206E-01
          2   -1    0    0  501    0  0.00000000000E+00  0.00000000000E+00  0.16176926920E+04  0.16176926920E+04  0.25500000000E-02 0. -1.
         -2   -1    0    0    0  501 -0.00000000000E+00 -0.00000000000E+00 -0.58270717660E+03  0.58270717661E+03  0.25500000000E-02 0.  1.
    8880023    1    1    2    0    0 -0.52935833736E+03  0.23430289488E+03  0.12815727664E+04  0.15528544870E+04  0.65864270000E+03 0.  0.
    8880022    1    1    2    0    0  0.52935833736E+03 -0.23430289488E+03 -0.24658725102E+03  0.64754538162E+03  0.15294330000E+03 0.  0.
<mgrwt>
<rscale>  0 0.79711286E+03</rscale>
<asrwt>0</asrwt>
<pdfrwt beam="1">  1        2 0.24887580E+00 0.87688557E+03</pdfrwt>
<pdfrwt beam="2">  1       -2 0.89647259E-01 0.87688557E+03</pdfrwt>
<totfact> 0.11747152E+01</totfact>
</mgrwt>
</event>
<event>
 4    2  0.3171963E-007  0.7028145E+03  0.7818608E-02  0.9985720E-01
         -2   -1    0    0    0  501 -0.00000000000E+00  0.00000000000E+00  0.24226656595E+03  0.24226656597E+03  0.25500000000E-02 0.  1.
          2   -1    0    0  501    0  0.00000000000E+00 -0.00000000000E+00 -0.20323948474E+04  0.20323948474E+04  0.25500000000E-02 0. -1.
    8880023    1    1    2    0    0 -0.86853437534E+02 -0.22933495538E+03 -0.18504464459E+04  0.19794191817E+04  0.65864270000E+03 0. -1.
    8880022    1    1    2    0    0  0.86853437534E+02  0.22933495538E+03  0.60318164487E+02  0.29524223166E+03  0.15294330000E+03 0.  0.
<mgrwt>
<rscale>  0 0.56280851E+03</rscale>
<asrwt>0</asrwt>
<pdfrwt beam="1">  1        2 0.31267612E+00 0.70281452E+03</pdfrwt>
<pdfrwt beam="2">  1       -2 0.37271781E-01 0.70281452E+03</pdfrwt>
<totfact> 0.45122162E+01</totfact>
</mgrwt>
</event>
<event>
 4    2  0.3171963E-007  0.6874470E+03  0.7818608E-02  0.1005390E+00
          2   -1    0    0  501    0  0.00000000000E+00  0.00000000000E+00  0.66165939373E+03  0.66165939374E+03  0.25500000000E-02 0. -1.
         -2   -1    0    0    0  501 -0.00000000000E+00 -0.00000000000E+00 -0.14509262095E+04  0.14509262095E+04  0.25500000000E-02 0.  1.
    8880023    1    1    2    0    0  0.19621220566E+03 -0.16550673679E+02  0.46748532913E+03  0.83133981840E+03  0.65864270000E+03 0. -1.
    8880022    1    1    2    0    0 -0.19621220566E+03  0.16550673679E+02 -0.12567521449E+04  0.12812457848E+04  0.15294330000E+03 0.  0.
<mgrwt>
<rscale>  0 0.53348533E+03</rscale>
<asrwt>0</asrwt>
<pdfrwt beam="1">  1        2 0.10179375E+00 0.68744699E+03</pdfrwt>
<pdfrwt beam="2">  1       -2 0.22321942E+00 0.68744699E+03</pdfrwt>
<totfact> 0.42879809E+00</totfact>
</mgrwt>
</event>
<event>
 4    2  0.3171963E-007  0.8421622E+03  0.7818608E-02  0.9626117E-01
         -2   -1    0    0    0  501 -0.00000000000E+00  0.00000000000E+00  0.14827357112E+04  0.14827357112E+04  0.25500000000E-02 0.  1.
          2   -1    0    0  501    0  0.00000000000E+00 -0.00000000000E+00 -0.10910283185E+04  0.10910283185E+04  0.25500000000E-02 0. -1.
    8880023    1    1    2    0    0 -0.23564716245E+03 -0.46893220752E+03 -0.86258734593E+03  0.12055264974E+04  0.65864270000E+03 0.  0.
    8880022    1    1    2    0    0  0.23564716245E+03  0.46893220752E+03  0.12542947386E+04  0.13682375322E+04  0.15294330000E+03 0.  0.
<mgrwt>
<rscale>  0 0.75591468E+03</rscale>
<asrwt>0</asrwt>
<pdfrwt beam="1">  1        2 0.16785051E+00 0.84216222E+03</pdfrwt>
<pdfrwt beam="2">  1       -2 0.22811319E+00 0.84216222E+03</pdfrwt>
<totfact> 0.19692339E+00</totfact>
</mgrwt>
</event>
<event>
 4    2  0.3171963E-007  0.7673232E+03  0.7818608E-02  0.9786505E-01
          2   -1    0    0  501    0  0.00000000000E+00  0.00000000000E+00  0.24582702382E+04  0.24582702382E+04  0.25500000000E-02 0. -1.
         -2   -1    0    0    0  501 -0.00000000000E+00 -0.00000000000E+00 -0.41040223214E+03  0.41040223215E+03  0.25500000000E-02 0.  1.
    8880023    1    1    2    0    0  0.32705500524E+03 -0.21911113330E+03  0.22666685617E+04  0.23930255411E+04  0.65864270000E+03 0.  1.
    8880022    1    1    2    0    0 -0.32705500524E+03  0.21911113330E+03 -0.21880055565E+03  0.47564692930E+03  0.15294330000E+03 0.  1.
<mgrwt>
<rscale>  0 0.66091841E+03</rscale>
<asrwt>0</asrwt>
<pdfrwt beam="1">  1        2 0.37819543E+00 0.76732319E+03</pdfrwt>
<pdfrwt beam="2">  1       -2 0.63138804E-01 0.76732319E+03</pdfrwt>
<totfact> 0.89331539E+00</totfact>
</mgrwt>
</event>
<event>
 4    2  0.3171963E-007  0.6810129E+03  0.7818608E-02  0.1008756E+00
         -2   -1    0    0    0  501 -0.00000000000E+00  0.00000000000E+00  0.41647682069E+03  0.41647682070E+03  0.25500000000E-02 0.  1.
          2   -1    0    0  501    0  0.00000000000E+00 -0.00000000000E+00 -0.82878535970E+03  0.82878535971E+03  0.25500000000E-02 0. -1.
    8880023    1    1    2    0    0  0.10238310147E+03  0.13959242075E+03 -0.63009071553E+03  0.92778923224E+03  0.65864270000E+03 0. -1.
    8880022    1    1    2    0    0 -0.10238310147E+03 -0.13959242075E+03  0.21778217652E+03  0.31747294817E+03  0.15294330000E+03 0.  1.
<mgrwt>
<rscale>  0 0.51971885E+03</rscale>
<asrwt>0</asrwt>
<pdfrwt beam="1">  1        2 0.12750544E+00 0.68101289E+03</pdfrwt>
<pdfrwt beam="2">  1       -2 0.64073357E-01 0.68101289E+03</pdfrwt>
<totfact> 0.75333774E+01</totfact>
</mgrwt>
</event>
<event>
 4    2  0.3171963E-007  0.1060277E+04  0.7818608E-02  0.9306628E-01
          2   -1    0    0  501    0  0.00000000000E+00  0.00000000000E+00  0.26114308265E+04  0.26114308265E+04  0.25500000000E-02 0. -1.
         -2   -1    0    0    0  501 -0.00000000000E+00 -0.00000000000E+00 -0.64095507926E+03  0.64095507927E+03  0.25500000000E-02 0.  1.
    8880023    1    1    2    0    0  0.66982003398E+02 -0.82818524459E+03  0.21422271628E+04  0.23902562230E+04  0.65864270000E+03 0. -1.
    8880022    1    1    2    0    0 -0.66982003398E+02  0.82818524459E+03 -0.17175141560E+03  0.86212968277E+03  0.15294330000E+03 0.  0.
<mgrwt>
<rscale>  0 0.10017498E+04</rscale>
<asrwt>0</asrwt>
<pdfrwt beam="1">  1        2 0.40175859E+00 0.10602771E+04</pdfrwt>
<pdfrwt beam="2">  1       -2 0.98608472E-01 0.10602771E+04</pdfrwt>
<totfact> 0.25647144E+00</totfact>
</mgrwt>
</event>
<event>
 4    2  0.3171963E-007  0.7417875E+03  0.7818608E-02  0.9854770E-01
          2   -1    0    0  501    0  0.00000000000E+00  0.00000000000E+00  0.27019909799E+04  0.27019909799E+04  0.25500000000E-02 0. -1.
         -2   -1    0    0    0  501 -0.00000000000E+00 -0.00000000000E+00 -0.21001863173E+03  0.21001863175E+03  0.25500000000E-02 0.  1.
    8880023    1    1    2    0    0  0.12145521334E+03 -0.31888425852E+03  0.24200934398E+04  0.25312251980E+04  0.65864270000E+03 0. -1.
    8880022    1    1    2    0    0 -0.12145521334E+03  0.31888425852E+03  0.71878908307E+02  0.38078441362E+03  0.15294330000E+03 0.  0.
<mgrwt>
<rscale>  0 0.62504281E+03</rscale>
<asrwt>0</asrwt>
<pdfrwt beam="1">  1        2 0.41569096E+00 0.74178753E+03</pdfrwt>
<pdfrwt beam="2">  1       -2 0.32310556E-01 0.74178753E+03</pdfrwt>
<totfact> 0.24822530E+01</totfact>
</mgrwt>
</event>
<event>
 4    2  0.3171963E-007  0.8690260E+03  0.7818608E-02  0.9577705E-01
          2   -1    0    0  501    0  0.00000000000E+00  0.00000000000E+00  0.70993443583E+03  0.70993443584E+03  0.25500000000E-02 0. -1.
         -2   -1    0    0    0  501 -0.00000000000E+00 -0.00000000000E+00 -0.17919999600E+04  0.17919999600E+04  0.25500000000E-02 0.  1.
    8880023    1    1    2    0    0  0.47790091522E+03 -0.30497011420E+03  0.36325336062E+03  0.94189132366E+03  0.65864270000E+03 0. -1.
    8880022    1    1    2    0    0 -0.47790091522E+03  0.30497011420E+03 -0.14453188848E+04  0.15600430722E+04  0.15294330000E+03 0.  0.
<mgrwt>
<rscale>  0 0.78789540E+03</rscale>
<asrwt>0</asrwt>
<pdfrwt beam="1">  1        2 0.10922068E+00 0.86902604E+03</pdfrwt>
<pdfrwt beam="2">  1       -2 0.27569230E+00 0.86902604E+03</pdfrwt>
<totfact> 0.18340245E+00</totfact>
</mgrwt>
</event>
<event>
 4    2  0.3171963E-007  0.1472576E+04  0.7818608E-02  0.8929248E-01
         -2   -1    0    0    0  501 -0.00000000000E+00  0.00000000000E+00  0.10047655021E+04  0.10047655021E+04  0.25500000000E-02 0.  1.
          2   -1    0    0  501    0  0.00000000000E+00 -0.00000000000E+00 -0.23608899105E+04  0.23608899105E+04  0.25500000000E-02 0. -1.
    8880023    1    1    2    0    0 -0.12210733824E+04 -0.49360828828E+03 -0.14098268777E+04  0.20386494006E+04  0.65864270000E+03 0.  0.
    8880022    1    1    2    0    0  0.12210733824E+04  0.49360828828E+03  0.53702469270E+02  0.13270060119E+04  0.15294330000E+03 0.  0.
<mgrwt>
<rscale>  0 0.14344569E+04</rscale>
<asrwt>0</asrwt>
<pdfrwt beam="1">  1        2 0.36321383E+00 0.14725758E+04</pdfrwt>
<pdfrwt beam="2">  1       -2 0.15457931E+00 0.14725758E+04</pdfrwt>
<totfact> 0.10955544E+00</totfact>
</mgrwt>
</event>
<event>
 4    2  0.3171963E-007  0.7235351E+03  0.7818608E-02  0.9910801E-01
          2   -1    0    0  501    0  0.00000000000E+00  0.00000000000E+00  0.63692877550E+03  0.63692877550E+03  0.25500000000E-02 0. -1.
         -2   -1    0    0    0  501 -0.00000000000E+00 -0.00000000000E+00 -0.87669491344E+03  0.87669491344E+03  0.25500000000E-02 0.  1.
    8880023    1    1    2    0    0 -0.27001725524E+03 -0.12955138129E+03  0.37346880117E+03  0.81423708478E+03  0.65864270000E+03 0.  0.
    8880022    1    1    2    0    0  0.27001725524E+03  0.12955138129E+03 -0.61323493911E+03  0.69938660417E+03  0.15294330000E+03 0.  0.
<mgrwt>
<rscale>  0 0.59740674E+03</rscale>
<asrwt>0</asrwt>
<pdfrwt beam="1">  1        2 0.97989042E-01 0.72353513E+03</pdfrwt>
<pdfrwt beam="2">  1       -2 0.13487614E+00 0.72353513E+03</pdfrwt>
<totfact> 0.18530128E+01</totfact>
</mgrwt>
</event>
<event>
 4    2  0.3171963E-007  0.7141541E+03  0.7818608E-02  0.9942887E-01
          2   -1    0    0  501    0  0.00000000000E+00  0.00000000000E+00  0.17027696994E+04  0.17027696994E+04  0.25500000000E-02 0. -1.
         -2   -1    0    0    0  501 -0.00000000000E+00 -0.00000000000E+00 -0.43821175771E+03  0.43821175772E+03  0.25500000000E-02 0.  1.
    8880023    1    1    2    0    0 -0.24904266444E+03  0.11909502815E+03  0.15555867377E+04  0.17116851870E+04  0.65864270000E+03 0. -1.
    8880022    1    1    2    0    0  0.24904266444E+03 -0.11909502815E+03 -0.29102879603E+03  0.42929627016E+03  0.15294330000E+03 0.  0.
<mgrwt>
<rscale>  0 0.58227081E+03</rscale>
<asrwt>0</asrwt>
<pdfrwt beam="1">  1        2 0.26196457E+00 0.71415410E+03</pdfrwt>
<pdfrwt beam="2">  1       -2 0.67417194E-01 0.71415410E+03</pdfrwt>
<totfact> 0.20358871E+01</totfact>
</mgrwt>
</event>
<event>
 4    2  0.3171963E-007  0.6861295E+03  0.7818608E-02  0.1006049E+00
          2   -1    0    0  501    0  0.00000000000E+00  0.00000000000E+00  0.28768511788E+04  0.28768511788E+04  0.25500000000E-02 0. -1.
         -2   -1    0    0    0  501 -0.00000000000E+00 -0.00000000000E+00 -0.88305404751E+02  0.88305404788E+02  0.25500000000E-02 0.  1.
    8880023    1    1    2    0    0  0.11233043331E+03  0.15603012596E+03  0.24661862423E+04  0.25598531822E+04  0.65864270000E+03 0. -1.
    8880022    1    1    2    0    0 -0.11233043331E+03 -0.15603012596E+03  0.32235953178E+03  0.40530340141E+03  0.15294330000E+03 0.  0.
<mgrwt>
<rscale>  0 0.53075476E+03</rscale>
<asrwt>0</asrwt>
<pdfrwt beam="1">  1        2 0.44259239E+00 0.68612953E+03</pdfrwt>
<pdfrwt beam="2">  1       -2 0.13585450E-01 0.68612953E+03</pdfrwt>
<totfact> 0.91054640E+01</totfact>
</mgrwt>
</event>
<event>
 4    2  0.3171963E-007  0.8341727E+03  0.7818608E-02  0.9641268E-01
          2   -1    0    0  501    0  0.00000000000E+00  0.00000000000E+00  0.35364524380E+04  0.35364524380E+04  0.25500000000E-02 0. -1.
         -2   -1    0    0    0  501 -0.00000000000E+00 -0.00000000000E+00 -0.27463038548E+03  0.27463038549E+03  0.25500000000E-02 0.  1.
    8880023    1    1    2    0    0  0.80088371311E+02  0.50558853879E+03  0.31586719190E+04  0.32669637916E+04  0.65864270000E+03 0. -1.
    8880022    1    1    2    0    0 -0.80088371311E+02 -0.50558853879E+03  0.10315013355E+03  0.54411903187E+03  0.15294330000E+03 0.  0.
<mgrwt>
<rscale>  0 0.74624012E+03</rscale>
<asrwt>0</asrwt>
<pdfrwt beam="1">  1        2 0.54406957E+00 0.83417272E+03</pdfrwt>
<pdfrwt beam="2">  1       -2 0.42250831E-01 0.83417272E+03</pdfrwt>
<totfact> 0.43452763E+00</totfact>
</mgrwt>
</event>
<event>
 4    2  0.3171963E-007  0.6953144E+03  0.7818608E-02  0.1001722E+00
          2   -1    0    0  501    0  0.00000000000E+00  0.00000000000E+00  0.54753125675E+03  0.54753125676E+03  0.25500000000E-02 0. -1.
         -2   -1    0    0    0  501 -0.00000000000E+00 -0.00000000000E+00 -0.51925218245E+03  0.51925218246E+03  0.25500000000E-02 0.  1.
    8880023    1    1    2    0    0 -0.15848601730E+03 -0.15663366556E+03  0.22688067851E+03  0.73139385519E+03  0.65864270000E+03 0. -1.
    8880022    1    1    2    0    0  0.15848601730E+03  0.15663366556E+03 -0.19860160421E+03  0.33538958403E+03  0.15294330000E+03 0.  0.
<mgrwt>
<rscale>  0 0.54901432E+03</rscale>
<asrwt>0</asrwt>
<pdfrwt beam="1">  1        2 0.84235578E-01 0.69531441E+03</pdfrwt>
<pdfrwt beam="2">  1       -2 0.79884951E-01 0.69531441E+03</pdfrwt>
<totfact> 0.77904594E+01</totfact>
</mgrwt>
</event>
<event>
 4    2  0.3171963E-007  0.6624100E+03  0.7818608E-02  0.1021813E+00
         -2   -1    0    0    0  501 -0.00000000000E+00  0.00000000000E+00  0.65956874956E+03  0.65956874956E+03  0.25500000000E-02 0.  1.
          2   -1    0    0  501    0  0.00000000000E+00 -0.00000000000E+00 -0.29869066309E+04  0.29869066309E+04  0.25500000000E-02 0. -1.
    8880023    1    1    2    0    0 -0.28436278864E+02  0.64561864798E+02 -0.29386509053E+04  0.30123838078E+04  0.65864270000E+03 0. -1.
    8880022    1    1    2    0    0  0.28436278864E+02 -0.64561864798E+02  0.61131302389E+03  0.63409157268E+03  0.15294330000E+03 0.  0.
<mgrwt>
<rscale>  0 0.47038097E+03</rscale>
<asrwt>0</asrwt>
<pdfrwt beam="1">  1        2 0.45952409E+00 0.66241004E+03</pdfrwt>
<pdfrwt beam="2">  1       -2 0.10147212E+00 0.66241004E+03</pdfrwt>
<totfact> 0.15417687E+00</totfact>
</mgrwt>
</event>
<event>
 4    2  0.3171963E-007  0.8189151E+03  0.7818608E-02  0.9671298E-01
          2   -1    0    0  501    0  0.00000000000E+00  0.00000000000E+00  0.15526906277E+04  0.15526906277E+04  0.25500000000E-02 0. -1.
         -2   -1    0    0    0  501 -0.00000000000E+00 -0.00000000000E+00 -0.76097224125E+03  0.76097224125E+03  0.25500000000E-02 0.  1.
    8880023    1    1    2    0    0  0.78493451353E+02  0.48026093596E+03  0.13364427392E+04  0.15673867391E+04  0.65864270000E+03 0. -1.
    8880022    1    1    2    0    0 -0.78493451353E+02 -0.48026093596E+03 -0.54472435273E+03  0.74627612986E+03  0.15294330000E+03 0.  0.
<mgrwt>
<rscale>  0 0.72751726E+03</rscale>
<asrwt>0</asrwt>
<pdfrwt beam="1">  1        2 0.23887548E+00 0.81891513E+03</pdfrwt>
<pdfrwt beam="2">  1       -2 0.11707265E+00 0.81891513E+03</pdfrwt>
<totfact> 0.68000614E+00</totfact>
</mgrwt>
</event>
<event>
 4    2  0.3171963E-007  0.6938370E+03  0.7818608E-02  0.1002380E+00
         -2   -1    0    0    0  501 -0.00000000000E+00  0.00000000000E+00  0.94837911076E+02  0.94837911110E+02  0.25500000000E-02 0.  1.
          2   -1    0    0  501    0  0.00000000000E+00 -0.00000000000E+00 -0.25543429643E+04  0.25543429643E+04  0.25500000000E-02 0. -1.
    8880023    1    1    2    0    0  0.12797980861E+03 -0.17669395246E+03 -0.20130118946E+04  0.21292314760E+04  0.65864270000E+03 0.  0.
    8880022    1    1    2    0    0 -0.12797980861E+03  0.17669395246E+03 -0.44649315858E+03  0.51994939939E+03  0.15294330000E+03 0.  0.
<mgrwt>
<rscale>  0 0.54618993E+03</rscale>
<asrwt>0</asrwt>
<pdfrwt beam="1">  1        2 0.39297579E+00 0.69383701E+03</pdfrwt>
<pdfrwt beam="2">  1       -2 0.14590450E-01 0.69383701E+03</pdfrwt>
<totfact> 0.12435721E+02</totfact>
</mgrwt>
</event>
<event>
 4    2  0.3171963E-007  0.7567076E+03  0.7818608E-02  0.9813707E-01
         -2   -1    0    0    0  501 -0.00000000000E+00  0.00000000000E+00  0.54787847474E+03  0.54787847474E+03  0.25500000000E-02 0.  1.
          2   -1    0    0  501    0  0.00000000000E+00 -0.00000000000E+00 -0.18007935503E+04  0.18007935503E+04  0.25500000000E-02 0. -1.
    8880023    1    1    2    0    0 -0.22485777144E+03 -0.29704402984E+03 -0.16299258428E+04  0.17970154792E+04  0.65864270000E+03 0.  0.
    8880022    1    1    2    0    0  0.22485777144E+03  0.29704402984E+03  0.37701076721E+03  0.55165654591E+03  0.15294330000E+03 0.  0.
<mgrwt>
<rscale>  0 0.64632112E+03</rscale>
<asrwt>0</asrwt>
<pdfrwt beam="1">  1        2 0.27704516E+00 0.75670759E+03</pdfrwt>
<pdfrwt beam="2">  1       -2 0.84288997E-01 0.75670759E+03</pdfrwt>
<totfact> 0.10901461E+01</totfact>
</mgrwt>
</event>
<event>
 4    2  0.3171963E-007  0.1344064E+04  0.7818608E-02  0.9028412E-01
          2   -1    0    0  501    0  0.00000000000E+00  0.00000000000E+00  0.27077060696E+04  0.27077060696E+04  0.25500000000E-02 0. -1.
         -2   -1    0    0    0  501 -0.00000000000E+00 -0.00000000000E+00 -0.68769615965E+03  0.68769615966E+03  0.25500000000E-02 0.  1.
    8880023    1    1    2    0    0  0.58149890956E+03 -0.10171315599E+04  0.42347777137E+03  0.14091987869E+04  0.65864270000E+03 0.  0.
    8880022    1    1    2    0    0 -0.58149890956E+03  0.10171315599E+04  0.15965321386E+04  0.19862034424E+04  0.15294330000E+03 0.  0.
<mgrwt>
<rscale>  0 0.13014548E+04</rscale>
<asrwt>0</asrwt>
<pdfrwt beam="1">  1        2 0.41657016E+00 0.13440639E+04</pdfrwt>
<pdfrwt beam="2">  1       -2 0.10579941E+00 0.13440639E+04</pdfrwt>
<totfact> 0.18375799E+00</totfact>
</mgrwt>
</event>
<event>
 4    2  0.3171963E-007  0.6639044E+03  0.7818608E-02  0.1020471E+00
         -2   -1    0    0    0  501 -0.00000000000E+00  0.00000000000E+00  0.33791143290E+03  0.33791143291E+03  0.25500000000E-02 0.  1.
          2   -1    0    0  501    0  0.00000000000E+00 -0.00000000000E+00 -0.17970430439E+04  0.17970430439E+04  0.25500000000E-02 0. -1.
    8880023    1    1    2    0    0 -0.19946257192E+02 -0.80999705916E+02 -0.17072431199E+04  0.18317882198E+04  0.65864270000E+03 0. -1.
    8880022    1    1    2    0    0  0.19946257192E+02  0.80999705916E+02  0.24811150889E+03  0.30316625701E+03  0.15294330000E+03 0.  0.
<mgrwt>
<rscale>  0 0.47517086E+03</rscale>
<asrwt>0</asrwt>
<pdfrwt beam="1">  1        2 0.27646815E+00 0.66390437E+03</pdfrwt>
<pdfrwt beam="2">  1       -2 0.51986375E-01 0.66390437E+03</pdfrwt>
<totfact> 0.31475210E+01</totfact>
</mgrwt>
</event>
<event>
 4    2  0.3171963E-007  0.7026207E+03  0.7818608E-02  0.9986498E-01
          2   -1    0    0  501    0  0.00000000000E+00  0.00000000000E+00  0.25942813896E+04  0.25942813896E+04  0.25500000000E-02 0. -1.
         -2   -1    0    0    0  501 -0.00000000000E+00 -0.00000000000E+00 -0.14758481281E+03  0.14758481284E+03  0.25500000000E-02 0.  1.
    8880023    1    1    2    0    0 -0.63753971262E+02 -0.23622245591E+03  0.23247563540E+04  0.24286144052E+04  0.65864270000E+03 0. -1.
    8880022    1    1    2    0    0  0.63753971262E+02  0.23622245591E+03  0.12194022283E+03  0.31325179726E+03  0.15294330000E+03 0.  0.
<mgrwt>
<rscale>  0 0.56246236E+03</rscale>
<asrwt>0</asrwt>
<pdfrwt beam="1">  1        2 0.39912019E+00 0.70262068E+03</pdfrwt>
<pdfrwt beam="2">  1       -2 0.22705357E-01 0.70262068E+03</pdfrwt>
<totfact> 0.54873065E+01</totfact>
</mgrwt>
</event>
<event>
 4    2  0.3171963E-007  0.6940157E+03  0.7818608E-02  0.1002299E+00
         -2   -1    0    0    0  501 -0.00000000000E+00  0.00000000000E+00  0.13090696099E+04  0.13090696099E+04  0.25500000000E-02 0.  1.
          2   -1    0    0  501    0  0.00000000000E+00 -0.00000000000E+00 -0.89104097419E+03  0.89104097419E+03  0.25500000000E-02 0. -1.
    8880023    1    1    2    0    0 -0.21871655918E+03 -0.32629620430E+01 -0.73835490706E+03  0.10133241116E+04  0.65864270000E+03 0. -1.
    8880022    1    1    2    0    0  0.21871655918E+03  0.32629620430E+01  0.11563835428E+04  0.11867864724E+04  0.15294330000E+03 0.  0.
<mgrwt>
<rscale>  0 0.54653361E+03</rscale>
<asrwt>0</asrwt>
<pdfrwt beam="1">  1        2 0.13708323E+00 0.69401570E+03</pdfrwt>
<pdfrwt beam="2">  1       -2 0.20139532E+00 0.69401570E+03</pdfrwt>
<totfact> 0.39944743E+00</totfact>
</mgrwt>
</event>
<event>
 4    2  0.3171963E-007  0.6611581E+03  0.7818608E-02  0.1023000E+00
         -2   -1    0    0    0  501 -0.00000000000E+00  0.00000000000E+00  0.40476926627E+03  0.40476926628E+03  0.25500000000E-02 0.  1.
          2   -1    0    0  501    0  0.00000000000E+00 -0.00000000000E+00 -0.80753049000E+03  0.80753049001E+03  0.25500000000E-02 0. -1.
    8880023    1    1    2    0    0 -0.49299831506E+02 -0.29821581434E+02 -0.64265191475E+03  0.92202575339E+03  0.65864270000E+03 0. -1.
    8880022    1    1    2    0    0  0.49299831506E+02  0.29821581434E+02  0.23989069102E+03  0.29027400290E+03  0.15294330000E+03 0.  0.
<mgrwt>
<rscale>  0 0.46619345E+03</rscale>
<asrwt>0</asrwt>
<pdfrwt beam="1">  1        2 0.12423546E+00 0.66115808E+03</pdfrwt>
<pdfrwt beam="2">  1       -2 0.62272195E-01 0.66115808E+03</pdfrwt>
<totfact> 0.83004962E+01</totfact>
</mgrwt>
</event>
<event>
 4    2  0.3171963E-007  0.7702229E+03  0.7818608E-02  0.9779326E-01
          2   -1    0    0  501    0  0.00000000000E+00  0.00000000000E+00  0.46762828277E+03  0.46762828278E+03  0.25500000000E-02 0. -1.
         -2   -1    0    0    0  501 -0.00000000000E+00 -0.00000000000E+00 -0.15025535628E+04  0.15025535628E+04  0.25500000000E-02 0.  1.
    8880023    1    1    2    0    0 -0.38877013060E+03  0.91054337875E+02  0.81649060854E+02  0.77453849633E+03  0.65864270000E+03 0.  0.
    8880022    1    1    2    0    0  0.38877013060E+03 -0.91054337875E+02 -0.11165743409E+04  0.11956433493E+04  0.15294330000E+03 0.  0.
<mgrwt>
<rscale>  0 0.66483932E+03</rscale>
<asrwt>0</asrwt>
<pdfrwt beam="1">  1        2 0.71942813E-01 0.77022290E+03</pdfrwt>
<pdfrwt beam="2">  1       -2 0.23116208E+00 0.77022290E+03</pdfrwt>
<totfact> 0.57200069E+00</totfact>
</mgrwt>
</event>
<event>
 4    2  0.3171963E-007  0.9907035E+03  0.7818608E-02  0.9393823E-01
          2   -1    0    0  501    0  0.00000000000E+00  0.00000000000E+00  0.23980488443E+04  0.23980488443E+04  0.25500000000E-02 0. -1.
         -2   -1    0    0    0  501 -0.00000000000E+00 -0.00000000000E+00 -0.36400708871E+03  0.36400708872E+03  0.25500000000E-02 0.  1.
    8880023    1    1    2    0    0 -0.71837934254E+03  0.17780424097E+03  0.64926159376E+03  0.11844973834E+04  0.65864270000E+03 0. -1.
    8880022    1    1    2    0    0  0.71837934254E+03 -0.17780424097E+03  0.13847801619E+04  0.15775585497E+04  0.15294330000E+03 0.  0.
<mgrwt>
<rscale>  0 0.92585805E+03</rscale>
<asrwt>0</asrwt>
<pdfrwt beam="1">  1        2 0.36893060E+00 0.99070350E+03</pdfrwt>
<pdfrwt beam="2">  1       -2 0.56001090E-01 0.99070350E+03</pdfrwt>
<totfact> 0.12067653E+01</totfact>
</mgrwt>
</event>
<event>
 4    2  0.3171963E-007  0.7617096E+03  0.7818608E-02  0.9800701E-01
         -2   -1    0    0    0  501 -0.00000000000E+00  0.00000000000E+00  0.25392908584E+03  0.25392908585E+03  0.25500000000E-02 0.  1.
          2   -1    0    0  501    0  0.00000000000E+00 -0.00000000000E+00 -0.26814473753E+04  0.26814473753E+04  0.25500000000E-02 0. -1.
    8880023    1    1    2    0    0  0.31498646954E+03  0.21719777922E+03 -0.24049692950E+04  0.25227126011E+04  0.65864270000E+03 0. -1.
    8880022    1    1    2    0    0 -0.31498646954E+03 -0.21719777922E+03 -0.22548994480E+02  0.41266386013E+03  0.15294330000E+03 0.  0.
<mgrwt>
<rscale>  0 0.65324916E+03</rscale>
<asrwt>0</asrwt>
<pdfrwt beam="1">  1        2 0.41253035E+00 0.76170963E+03</pdfrwt>
<pdfrwt beam="2">  1       -2 0.39066015E-01 0.76170963E+03</pdfrwt>
<totfact> 0.17700532E+01</totfact>
</mgrwt>
</event>
<event>
 4    2  0.3171963E-007  0.8356010E+03  0.7818608E-02  0.9638531E-01
          2   -1    0    0  501    0  0.00000000000E+00  0.00000000000E+00  0.14861955932E+04  0.14861955932E+04  0.25500000000E-02 0. -1.
         -2   -1    0    0    0  501 -0.00000000000E+00 -0.00000000000E+00 -0.53530469235E+03  0.53530469236E+03  0.25500000000E-02 0.  1.
    8880023    1    1    2    0    0  0.29867147370E+03 -0.41858584509E+03  0.11735566006E+04  0.14406470977E+04  0.65864270000E+03 0. -1.
    8880022    1    1    2    0    0 -0.29867147370E+03  0.41858584509E+03 -0.22266569983E+03  0.58085318783E+03  0.15294330000E+03 0.  0.
<mgrwt>
<rscale>  0 0.74797574E+03</rscale>
<asrwt>0</asrwt>
<pdfrwt beam="1">  1        2 0.22864547E+00 0.83560096E+03</pdfrwt>
<pdfrwt beam="2">  1       -2 0.82354569E-01 0.83560096E+03</pdfrwt>
<totfact> 0.16959961E+01</totfact>
</mgrwt>
</event>
<event>
 4    2  0.3171963E-007  0.6829619E+03  0.7818608E-02  0.1007695E+00
          2   -1    0    0  501    0  0.00000000000E+00  0.00000000000E+00  0.91712233891E+03  0.91712233892E+03  0.25500000000E-02 0. -1.
         -2   -1    0    0    0  501 -0.00000000000E+00 -0.00000000000E+00 -0.34419370420E+03  0.34419370421E+03  0.25500000000E-02 0.  1.
    8880023    1    1    2    0    0  0.33127590635E+02 -0.17756512998E+03  0.71216181982E+03  0.98671752620E+03  0.65864270000E+03 0. -1.
    8880022    1    1    2    0    0 -0.33127590635E+02  0.17756512998E+03 -0.13923318510E+03  0.27459851692E+03  0.15294330000E+03 0.  0.
<mgrwt>
<rscale>  0 0.52400904E+03</rscale>
<asrwt>0</asrwt>
<pdfrwt beam="1">  1        2 0.14109574E+00 0.68296195E+03</pdfrwt>
<pdfrwt beam="2">  1       -2 0.52952878E-01 0.68296195E+03</pdfrwt>
<totfact> 0.97773704E+01</totfact>
</mgrwt>
</event>
<event>
 4    2  0.3171963E-007  0.6619426E+03  0.7818608E-02  0.1022249E+00
         -2   -1    0    0    0  501 -0.00000000000E+00  0.00000000000E+00  0.39008219986E+03  0.39008219987E+03  0.25500000000E-02 0.  1.
          2   -1    0    0  501    0  0.00000000000E+00 -0.00000000000E+00 -0.67844494611E+03  0.67844494612E+03  0.25500000000E-02 0. -1.
    8880023    1    1    2    0    0 -0.36520736611E+02 -0.54991515195E+02 -0.47772134807E+03  0.81632452101E+03  0.65864270000E+03 0.  0.
    8880022    1    1    2    0    0  0.36520736611E+02  0.54991515195E+02  0.18935860182E+03  0.25220262497E+03  0.15294330000E+03 0.  0.
<mgrwt>
<rscale>  0 0.46883727E+03</rscale>
<asrwt>0</asrwt>
<pdfrwt beam="1">  1        2 0.10437615E+00 0.66194262E+03</pdfrwt>
<pdfrwt beam="2">  1       -2 0.60012646E-01 0.66194262E+03</pdfrwt>
<totfact> 0.11222428E+02</totfact>
</mgrwt>
</event>
<event>
 4    2  0.3171963E-007  0.8164164E+03  0.7818608E-02  0.9676364E-01
          2   -1    0    0  501    0  0.00000000000E+00  0.00000000000E+00  0.18542129709E+04  0.18542129709E+04  0.25500000000E-02 0. -1.
         -2   -1    0    0    0  501 -0.00000000000E+00 -0.00000000000E+00 -0.29725817995E+03  0.29725817996E+03  0.25500000000E-02 0.  1.
    8880023    1    1    2    0    0  0.19329925932E+03  0.44199654066E+03  0.14016720680E+04  0.16221036768E+04  0.65864270000E+03 0.  0.
    8880022    1    1    2    0    0 -0.19329925932E+03 -0.44199654066E+03  0.15528272297E+03  0.52936747414E+03  0.15294330000E+03 0.  0.
<mgrwt>
<rscale>  0 0.72441700E+03</rscale>
<asrwt>0</asrwt>
<pdfrwt beam="1">  1        2 0.28526353E+00 0.81641641E+03</pdfrwt>
<pdfrwt beam="2">  1       -2 0.45732028E-01 0.81641641E+03</pdfrwt>
<totfact> 0.37264601E+01</totfact>
</mgrwt>
</event>
<event>
 4    2  0.3171963E-007  0.1512514E+04  0.7818608E-02  0.8900850E-01
         -2   -1    0    0    0  501 -0.00000000000E+00  0.00000000000E+00  0.81948082401E+03  0.81948082402E+03  0.25500000000E-02 0.  1.
          2   -1    0    0  501    0  0.00000000000E+00 -0.00000000000E+00 -0.31230065632E+04  0.31230065632E+04  0.25500000000E-02 0. -1.
    8880023    1    1    2    0    0  0.77434277196E+03  0.11199467675E+04 -0.34346688561E+03  0.15510213404E+04  0.65864270000E+03 0.  0.
    8880022    1    1    2    0    0 -0.77434277196E+03 -0.11199467675E+04 -0.19600588536E+04  0.23914660468E+04  0.15294330000E+03 0.  0.
<mgrwt>
<rscale>  0 0.14755896E+04</rscale>
<asrwt>0</asrwt>
<pdfrwt beam="1">  1        2 0.48046254E+00 0.15125137E+04</pdfrwt>
<pdfrwt beam="2">  1       -2 0.12607397E+00 0.15125137E+04</pdfrwt>
<totfact> 0.64936346E-01</totfact>
</mgrwt>
</event>
<event>
 4    2  0.3171963E-007  0.7630159E+03  0.7818608E-02  0.9797361E-01
          2   -1    0    0  501    0  0.00000000000E+00  0.00000000000E+00  0.10619771289E+04  0.10619771290E+04  0.25500000000E-02 0. -1.
         -2   -1    0    0    0  501 -0.00000000000E+00 -0.00000000000E+00 -0.64936153605E+03  0.64936153605E+03  0.25500000000E-02 0.  1.
    8880023    1    1    2    0    0 -0.37621460846E+03  0.82738150560E+02  0.82702651839E+03  0.11252404639E+04  0.65864270000E+03 0. -1.
    8880022    1    1    2    0    0  0.37621460846E+03 -0.82738150560E+02 -0.41441092549E+03  0.58609820112E+03  0.15294330000E+03 0.  1.
<mgrwt>
<rscale>  0 0.65504341E+03</rscale>
<asrwt>0</asrwt>
<pdfrwt beam="1">  1        2 0.16338110E+00 0.76301588E+03</pdfrwt>
<pdfrwt beam="2">  1       -2 0.99901775E-01 0.76301588E+03</pdfrwt>
<totfact> 0.19350194E+01</totfact>
</mgrwt>
</event>
<event>
 4    2  0.3171963E-007  0.9314893E+03  0.7818608E-02  0.9477263E-01
         -2   -1    0    0    0  501 -0.00000000000E+00  0.00000000000E+00  0.37893448205E+03  0.37893448206E+03  0.25500000000E-02 0.  1.
          2   -1    0    0  501    0  0.00000000000E+00 -0.00000000000E+00 -0.29194778620E+04  0.29194778620E+04  0.25500000000E-02 0. -1.
    8880023    1    1    2    0    0  0.38846704723E+03  0.53193553337E+03 -0.24438183892E+04  0.26153241833E+04  0.65864270000E+03 0.  0.
    8880022    1    1    2    0    0 -0.38846704723E+03 -0.53193553337E+03 -0.96724990760E+02  0.68308816070E+03  0.15294330000E+03 0.  0.
<mgrwt>
<rscale>  0 0.85981110E+03</rscale>
<asrwt>0</asrwt>
<pdfrwt beam="1">  1        2 0.44915042E+00 0.93148927E+03</pdfrwt>
<pdfrwt beam="2">  1       -2 0.58297615E-01 0.93148927E+03</pdfrwt>
<totfact> 0.55453705E+00</totfact>
</mgrwt>
</event>
<event>
 4    2  0.3171963E-007  0.7246998E+03  0.7818608E-02  0.9906993E-01
          2   -1    0    0  501    0  0.00000000000E+00  0.00000000000E+00  0.89849616328E+03  0.89849616329E+03  0.25500000000E-02 0. -1.
         -2   -1    0    0    0  501 -0.00000000000E+00 -0.00000000000E+00 -0.15814240327E+04  0.15814240327E+04  0.25500000000E-02 0.  1.
    8880023    1    1    2    0    0 -0.18247502138E+03  0.24100294558E+03  0.72899532844E+03  0.10279221509E+04  0.65864270000E+03 0. -1.
    8880022    1    1    2    0    0  0.18247502138E+03 -0.24100294558E+03 -0.14119231979E+04  0.14519980451E+04  0.15294330000E+03 0.  0.
<mgrwt>
<rscale>  0 0.59923575E+03</rscale>
<asrwt>0</asrwt>
<pdfrwt beam="1">  1        2 0.13823018E+00 0.72469977E+03</pdfrwt>
<pdfrwt beam="2">  1       -2 0.24329600E+00 0.72469977E+03</pdfrwt>
<totfact> 0.21510669E+00</totfact>
</mgrwt>
</event>
<event>
 4    2  0.3171963E-007  0.9015410E+03  0.7818608E-02  0.9523562E-01
         -2   -1    0    0    0  501 -0.00000000000E+00  0.00000000000E+00  0.29975889080E+03  0.29975889081E+03  0.25500000000E-02 0.  1.
          2   -1    0    0  501    0  0.00000000000E+00 -0.00000000000E+00 -0.25922692940E+04  0.25922692940E+04  0.25500000000E-02 0. -1.
    8880023    1    1    2    0    0 -0.26359283774E+03 -0.55631352749E+03 -0.59580568712E+03  0.10806296998E+04  0.65864270000E+03 0.  0.
    8880022    1    1    2    0    0  0.26359283774E+03  0.55631352749E+03 -0.16967047160E+04  0.18113984850E+04  0.15294330000E+03 0.  0.
<mgrwt>
<rscale>  0 0.82568734E+03</rscale>
<asrwt>0</asrwt>
<pdfrwt beam="1">  1        2 0.39881065E+00 0.90154098E+03</pdfrwt>
<pdfrwt beam="2">  1       -2 0.46116754E-01 0.90154098E+03</pdfrwt>
<totfact> 0.14075897E+01</totfact>
</mgrwt>
</event>
<event>
 4    2  0.3171963E-007  0.6719528E+03  0.7818608E-02  0.1014300E+00
         -2   -1    0    0    0  501 -0.00000000000E+00  0.00000000000E+00  0.22317067917E+03  0.22317067918E+03  0.25500000000E-02 0.  1.
          2   -1    0    0  501    0  0.00000000000E+00 -0.00000000000E+00 -0.16902916501E+04  0.16902916501E+04  0.25500000000E-02 0. -1.
    8880023    1    1    2    0    0  0.23613277014E+02  0.13096870642E+03 -0.15538775918E+04  0.16929430485E+04  0.65864270000E+03 0.  0.
    8880022    1    1    2    0    0 -0.23613277014E+02 -0.13096870642E+03  0.86756620879E+02  0.22051928077E+03  0.15294330000E+03 0.  0.
<mgrwt>
<rscale>  0 0.49800879E+03</rscale>
<asrwt>0</asrwt>
<pdfrwt beam="1">  1        2 0.26004486E+00 0.67195282E+03</pdfrwt>
<pdfrwt beam="2">  1       -2 0.34333952E-01 0.67195282E+03</pdfrwt>
<totfact> 0.81324790E+01</totfact>
</mgrwt>
</event>
<event>
 4    2  0.3171963E-007  0.9916329E+03  0.7818608E-02  0.9392587E-01
          2   -1    0    0  501    0  0.00000000000E+00  0.00000000000E+00  0.23196537708E+04  0.23196537708E+04  0.25500000000E-02 0. -1.
         -2   -1    0    0    0  501 -0.00000000000E+00 -0.00000000000E+00 -0.53006113962E+03  0.53006113963E+03  0.25500000000E-02 0.  1.
    8880023    1    1    2    0    0 -0.49982723854E+03  0.54744710227E+03  0.18409767203E+04  0.20910598005E+04  0.65864270000E+03 0.  0.
    8880022    1    1    2    0    0  0.49982723854E+03 -0.54744710227E+03 -0.51384089162E+02  0.75865510992E+03  0.15294330000E+03 0.  0.
<mgrwt>
<rscale>  0 0.92688250E+03</rscale>
<asrwt>0</asrwt>
<pdfrwt beam="1">  1        2 0.35686981E+00 0.99163290E+03</pdfrwt>
<pdfrwt beam="2">  1       -2 0.81547868E-01 0.99163290E+03</pdfrwt>
<totfact> 0.58957470E+00</totfact>
</mgrwt>
</event>
<event>
 4    2  0.4578915E-007  0.8443705E+03  0.7818608E-02  0.9621994E-01
         -2   -1    0    0    0  501 -0.00000000000E+00  0.00000000000E+00  0.93470227077E+03  0.93470227077E+03  0.25500000000E-02 0.  1.
          2   -1    0    0  501    0  0.00000000000E+00 -0.00000000000E+00 -0.22524078822E+04  0.22524078822E+04  0.25500000000E-02 0. -1.
    8880023    1    1    2    0    0 -0.15659687193E+03 -0.50460750336E+03 -0.20812883933E+04  0.22460460581E+04  0.65864270000E+03 0. -1.
    8880022    1    1    2    0    0  0.15659687193E+03  0.50460750336E+03  0.76358278191E+03  0.94106409484E+03  0.15294330000E+03 0.  0.
<mgrwt>
<rscale>  0 0.75857437E+03</rscale>
<asrwt>0</asrwt>
<pdfrwt beam="1">  1        2 0.34652429E+00 0.84437049E+03</pdfrwt>
<pdfrwt beam="2">  1       -2 0.14380035E+00 0.84437049E+03</pdfrwt>
<totfact> 0.16583219E+00</totfact>
</mgrwt>
</event>
<event>
 4    2  0.3171963E-007  0.9443064E+03  0.7818608E-02  0.9458354E-01
         -2   -1    0    0    0  501 -0.00000000000E+00  0.00000000000E+00  0.36776388924E+03  0.36776388924E+03  0.25500000000E-02 0.  1.
          2   -1    0    0  501    0  0.00000000000E+00 -0.00000000000E+00 -0.37431539307E+04  0.37431539307E+04  0.25500000000E-02 0. -1.
    8880023    1    1    2    0    0 -0.42971182693E+03 -0.52273526625E+03 -0.35012473974E+03  0.10071255892E+04  0.65864270000E+03 0.  0.
    8880022    1    1    2    0    0  0.42971182693E+03  0.52273526625E+03 -0.30252653017E+04  0.31037922307E+04  0.15294330000E+03 0.  0.
<mgrwt>
<rscale>  0 0.87425122E+03</rscale>
<asrwt>0</asrwt>
<pdfrwt beam="1">  1        2 0.57586981E+00 0.94430642E+03</pdfrwt>
<pdfrwt beam="2">  1       -2 0.56579062E-01 0.94430642E+03</pdfrwt>
<totfact> 0.16767352E+00</totfact>
</mgrwt>
</event>
<event>
 4    2  0.3171963E-007  0.6895135E+03  0.7818608E-02  0.1004385E+00
         -2   -1    0    0    0  501 -0.00000000000E+00  0.00000000000E+00  0.25569847167E+03  0.25569847169E+03  0.25500000000E-02 0.  1.
          2   -1    0    0  501    0  0.00000000000E+00 -0.00000000000E+00 -0.21026798823E+04  0.21026798823E+04  0.25500000000E-02 0. -1.
    8880023    1    1    2    0    0 -0.18999921632E+03  0.74289826460E+02 -0.19612848753E+04  0.20789582123E+04  0.65864270000E+03 0. -1.
    8880022    1    1    2    0    0  0.18999921632E+03 -0.74289826460E+02  0.11430346462E+03  0.27942014165E+03  0.15294330000E+03 0.  0.
<mgrwt>
<rscale>  0 0.53768743E+03</rscale>
<asrwt>0</asrwt>
<pdfrwt beam="1">  1        2 0.32348920E+00 0.68951351E+03</pdfrwt>
<pdfrwt beam="2">  1       -2 0.39338228E-01 0.68951351E+03</pdfrwt>
<totfact> 0.37284552E+01</totfact>
</mgrwt>
</event>
<event>
 4    2  0.3171963E-007  0.6610737E+03  0.7818608E-02  0.1023082E+00
          2   -1    0    0  501    0  0.00000000000E+00  0.00000000000E+00  0.93228903797E+03  0.93228903798E+03  0.25500000000E-02 0. -1.
         -2   -1    0    0    0  501 -0.00000000000E+00 -0.00000000000E+00 -0.30278616587E+03  0.30278616588E+03  0.25500000000E-02 0.  1.
    8880023    1    1    2    0    0  0.55579877045E+02  0.10911432365E+02  0.77350142981E+03  0.10175081574E+04  0.65864270000E+03 0. -1.
    8880022    1    1    2    0    0 -0.55579877045E+02 -0.10911432365E+02 -0.14399855771E+03  0.21756704651E+03  0.15294330000E+03 0.  0.
<mgrwt>
<rscale>  0 0.46590488E+03</rscale>
<asrwt>0</asrwt>
<pdfrwt beam="1">  1        2 0.14342908E+00 0.66107366E+03</pdfrwt>
<pdfrwt beam="2">  1       -2 0.46582487E-01 0.66107366E+03</pdfrwt>
<totfact> 0.12413841E+02</totfact>
</mgrwt>
</event>
<event>
 4    2  0.3171963E-007  0.8353379E+03  0.7818608E-02  0.9639035E-01
          2   -1    0    0  501    0  0.00000000000E+00  0.00000000000E+00  0.20124672572E+04  0.20124672572E+04  0.25500000000E-02 0. -1.
         -2   -1    0    0    0  501 -0.00000000000E+00 -0.00000000000E+00 -0.24234146035E+03  0.24234146036E+03  0.25500000000E-02 0.  1.
    8880023    1    1    2    0    0 -0.22663938944E+03  0.46110055923E+03  0.86257796176E+03  0.12007622933E+04  0.65864270000E+03 0.  1.
    8880022    1    1    2    0    0  0.22663938944E+03 -0.46110055923E+03  0.90754783511E+03  0.10540464243E+04  0.15294330000E+03 0.  0.
<mgrwt>
<rscale>  0 0.74765622E+03</rscale>
<asrwt>0</asrwt>
<pdfrwt beam="1">  1        2 0.30961034E+00 0.83533786E+03</pdfrwt>
<pdfrwt beam="2">  1       -2 0.37283302E-01 0.83533786E+03</pdfrwt>
<totfact> 0.45513639E+01</totfact>
</mgrwt>
</event>
<event>
 4    2  0.3171963E-007  0.6894857E+03  0.7818608E-02  0.1004398E+00
         -2   -1    0    0    0  501 -0.00000000000E+00  0.00000000000E+00  0.54418637464E+03  0.54418637464E+03  0.25500000000E-02 0.  1.
          2   -1    0    0  501    0  0.00000000000E+00 -0.00000000000E+00 -0.14328702231E+04  0.14328702231E+04  0.25500000000E-02 0. -1.
    8880023    1    1    2    0    0 -0.16977978745E+03  0.11293876350E+03 -0.13124500137E+04  0.14825368748E+04  0.65864270000E+03 0. -1.
    8880022    1    1    2    0    0  0.16977978745E+03 -0.11293876350E+03  0.42376616524E+03  0.49451972290E+03  0.15294330000E+03 0.  0.
<mgrwt>
<rscale>  0 0.53763153E+03</rscale>
<asrwt>0</asrwt>
<pdfrwt beam="1">  1        2 0.22044157E+00 0.68948571E+03</pdfrwt>
<pdfrwt beam="2">  1       -2 0.83720981E-01 0.68948571E+03</pdfrwt>
<totfact> 0.17817139E+01</totfact>
</mgrwt>
</event>
<event>
 4    2  0.3171963E-007  0.9222694E+03  0.7818608E-02  0.9491188E-01
         -2   -1    0    0    0  501 -0.00000000000E+00  0.00000000000E+00  0.17156893299E+03  0.17156893301E+03  0.25500000000E-02 0.  1.
          2   -1    0    0  501    0  0.00000000000E+00 -0.00000000000E+00 -0.39717192984E+04  0.39717192984E+04  0.25500000000E-02 0. -1.
    8880023    1    1    2    0    0  0.17342501574E+03  0.62184751790E+03 -0.16166458833E+04  0.18612159171E+04  0.65864270000E+03 0.  0.
    8880022    1    1    2    0    0 -0.17342501574E+03 -0.62184751790E+03 -0.21835044821E+04  0.22820723144E+04  0.15294330000E+03 0.  0.
<mgrwt>
<rscale>  0 0.84936612E+03</rscale>
<asrwt>0</asrwt>
<pdfrwt beam="1">  1        2 0.61103367E+00 0.92226936E+03</pdfrwt>
<pdfrwt beam="2">  1       -2 0.26395223E-01 0.92226936E+03</pdfrwt>
<totfact> 0.49945424E+00</totfact>
</mgrwt>
</event>
<event>
 4    2  0.3171963E-007  0.7661855E+03  0.7818608E-02  0.9789349E-01
          2   -1    0    0  501    0  0.00000000000E+00  0.00000000000E+00  0.21589150583E+03  0.21589150584E+03  0.25500000000E-02 0. -1.
         -2   -1    0    0    0  501 -0.00000000000E+00 -0.00000000000E+00 -0.19408100860E+04  0.19408100860E+04  0.25500000000E-02 0.  1.
    8880023    1    1    2    0    0  0.34162968312E+03 -0.19109985488E+03 -0.65784931221E+03  0.10098544047E+04  0.65864270000E+03 0.  0.
    8880022    1    1    2    0    0 -0.34162968312E+03  0.19109985488E+03 -0.10670692679E+04  0.11468471871E+04  0.15294330000E+03 0.  0.
<mgrwt>
<rscale>  0 0.65937266E+03</rscale>
<asrwt>0</asrwt>
<pdfrwt beam="1">  1        2 0.33214079E-01 0.76618549E+03</pdfrwt>
<pdfrwt beam="2">  1       -2 0.29858616E+00 0.76618549E+03</pdfrwt>
<totfact> 0.53302447E+00</totfact>
</mgrwt>
</event>
<event>
 4    2  0.3419040E-007  0.7765052E+03  0.7818608E-02  0.9764111E-01
          2   -1    0    0  501    0  0.00000000000E+00  0.00000000000E+00  0.19280325837E+04  0.19280325837E+04  0.25500000000E-02 0. -1.
         -2   -1    0    0    0  501 -0.00000000000E+00 -0.00000000000E+00 -0.97883401129E+03  0.97883401129E+03  0.25500000000E-02 0.  1.
    8880023    1    1    2    0    0 -0.41120251491E+03  0.79125475671E+01  0.17940363475E+04  0.19548725634E+04  0.65864270000E+03 0. -1.
    8880022    1    1    2    0    0  0.41120251491E+03 -0.79125475671E+01 -0.84483777517E+03  0.95199403152E+03  0.15294330000E+03 0.  0.
<mgrwt>
<rscale>  0 0.67324618E+03</rscale>
<asrwt>0</asrwt>
<pdfrwt beam="1">  1        2 0.29662040E+00 0.77650520E+03</pdfrwt>
<pdfrwt beam="2">  1       -2 0.15058985E+00 0.77650520E+03</pdfrwt>
<totfact> 0.22403661E+00</totfact>
</mgrwt>
</event>
<event>
 4    2  0.3171963E-007  0.6651557E+03  0.7818608E-02  0.1019403E+00
          2   -1    0    0  501    0  0.00000000000E+00  0.00000000000E+00  0.84339571203E+03  0.84339571204E+03  0.25500000000E-02 0. -1.
         -2   -1    0    0    0  501 -0.00000000000E+00 -0.00000000000E+00 -0.77567963314E+03  0.77567963314E+03  0.25500000000E-02 0.  1.
    8880023    1    1    2    0    0  0.74180991267E+02  0.55848782529E+02  0.69782851897E+03  0.96405225694E+03  0.65864270000E+03 0. -1.
    8880022    1    1    2    0    0 -0.74180991267E+02 -0.55848782529E+02 -0.63011244007E+03  0.65502308824E+03  0.15294330000E+03 0.  0.
<mgrwt>
<rscale>  0 0.47902616E+03</rscale>
<asrwt>0</asrwt>
<pdfrwt beam="1">  1        2 0.12975319E+00 0.66515571E+03</pdfrwt>
<pdfrwt beam="2">  1       -2 0.11933533E+00 0.66515571E+03</pdfrwt>
<totfact> 0.17692776E+01</totfact>
</mgrwt>
</event>
<event>
 4    2  0.3171963E-007  0.7629353E+03  0.7818608E-02  0.9797567E-01
          2   -1    0    0  501    0  0.00000000000E+00  0.00000000000E+00  0.30760243742E+04  0.30760243742E+04  0.25500000000E-02 0. -1.
         -2   -1    0    0    0  501 -0.00000000000E+00 -0.00000000000E+00 -0.31177136789E+03  0.31177136790E+03  0.25500000000E-02 0.  1.
    8880023    1    1    2    0    0 -0.17304610667E+03  0.34396967357E+03  0.28621405974E+04  0.29620801975E+04  0.65864270000E+03 0. -1.
    8880022    1    1    2    0    0  0.17304610667E+03 -0.34396967357E+03 -0.97887591056E+02  0.42571554455E+03  0.15294330000E+03 0.  0.
<mgrwt>
<rscale>  0 0.65493291E+03</rscale>
<asrwt>0</asrwt>
<pdfrwt beam="1">  1        2 0.47323451E+00 0.76293532E+03</pdfrwt>
<pdfrwt beam="2">  1       -2 0.47964827E-01 0.76293532E+03</pdfrwt>
<totfact> 0.68359732E+00</totfact>
</mgrwt>
</event>
<event>
 4    2  0.3171963E-007  0.9420552E+03  0.7818608E-02  0.9461638E-01
          2   -1    0    0  501    0  0.00000000000E+00  0.00000000000E+00  0.13957928570E+04  0.13957928570E+04  0.25500000000E-02 0. -1.
         -2   -1    0    0    0  501 -0.00000000000E+00 -0.00000000000E+00 -0.67196159860E+03  0.67196159860E+03  0.25500000000E-02 0.  1.
    8880023    1    1    2    0    0 -0.12897627792E+03 -0.66107706389E+03  0.95301139402E+03  0.13400368234E+04  0.65864270000E+03 0. -1.
    8880022    1    1    2    0    0  0.12897627792E+03  0.66107706389E+03 -0.22918013561E+03  0.72771763222E+03  0.15294330000E+03 0.  0.
<mgrwt>
<rscale>  0 0.87172134E+03</rscale>
<asrwt>0</asrwt>
<pdfrwt beam="1">  1        2 0.21473736E+00 0.94205518E+03</pdfrwt>
<pdfrwt beam="2">  1       -2 0.10337871E+00 0.94205518E+03</pdfrwt>
<totfact> 0.11107180E+01</totfact>
</mgrwt>
</event>
<event>
 4    2  0.3171963E-007  0.7153467E+03  0.7818608E-02  0.9938658E-01
         -2   -1    0    0    0  501 -0.00000000000E+00  0.00000000000E+00  0.23950180112E+04  0.23950180112E+04  0.25500000000E-02 0.  1.
          2   -1    0    0  501    0  0.00000000000E+00 -0.00000000000E+00 -0.96885669175E+03  0.96885669176E+03  0.25500000000E-02 0. -1.
    8880023    1    1    2    0    0 -0.43495095016E+02  0.27571513907E+03 -0.82407120753E+03  0.10912443459E+04  0.65864270000E+03 0. -1.
    8880022    1    1    2    0    0  0.43495095016E+02 -0.27571513907E+03  0.22502325270E+04  0.22726303570E+04  0.15294330000E+03 0.  0.
<mgrwt>
<rscale>  0 0.58423806E+03</rscale>
<asrwt>0</asrwt>
<pdfrwt beam="1">  1        2 0.14905488E+00 0.71534668E+03</pdfrwt>
<pdfrwt beam="2">  1       -2 0.36846431E+00 0.71534668E+03</pdfrwt>
<totfact> 0.33562714E-01</totfact>
</mgrwt>
</event>
<event>
 4    2  0.3171963E-007  0.6630290E+03  0.7818608E-02  0.1021248E+00
         -2   -1    0    0    0  501 -0.00000000000E+00  0.00000000000E+00  0.24445331692E+03  0.24445331694E+03  0.25500000000E-02 0.  1.
          2   -1    0    0  501    0  0.00000000000E+00 -0.00000000000E+00 -0.11866113166E+04  0.11866113166E+04  0.25500000000E-02 0. -1.
    8880023    1    1    2    0    0 -0.63528105253E+02 -0.41968850099E+02 -0.10406051887E+04  0.12338827211E+04  0.65864270000E+03 0. -1.
    8880022    1    1    2    0    0  0.63528105253E+02  0.41968850099E+02  0.98447189013E+02  0.19718191239E+03  0.15294330000E+03 0.  0.
<mgrwt>
<rscale>  0 0.47239089E+03</rscale>
<asrwt>0</asrwt>
<pdfrwt beam="1">  1        2 0.18255558E+00 0.66302897E+03</pdfrwt>
<pdfrwt beam="2">  1       -2 0.37608203E-01 0.66302897E+03</pdfrwt>
<totfact> 0.13134039E+02</totfact>
</mgrwt>
</event>
<event>
 4    2  0.3171963E-007  0.8647110E+03  0.7818608E-02  0.9585238E-01
          2   -1    0    0  501    0  0.00000000000E+00  0.00000000000E+00  0.17912128378E+04  0.17912128378E+04  0.25500000000E-02 0. -1.
         -2   -1    0    0    0  501 -0.00000000000E+00 -0.00000000000E+00 -0.35589024180E+03  0.35589024181E+03  0.25500000000E-02 0.  1.
    8880023    1    1    2    0    0 -0.35725518804E+03 -0.43160598095E+03  0.12821015772E+04  0.15464506628E+04  0.65864270000E+03 0. -1.
    8880022    1    1    2    0    0  0.35725518804E+03  0.43160598095E+03  0.15322101888E+03  0.60065241681E+03  0.15294330000E+03 0.  0.
<mgrwt>
<rscale>  0 0.78281001E+03</rscale>
<asrwt>0</asrwt>
<pdfrwt beam="1">  1        2 0.27557121E+00 0.86471105E+03</pdfrwt>
<pdfrwt beam="2">  1       -2 0.54752345E-01 0.86471105E+03</pdfrwt>
<totfact> 0.27797054E+01</totfact>
</mgrwt>
</event>
<event>
 4    2  0.3171963E-007  0.6732106E+03  0.7818608E-02  0.1013459E+00
          2   -1    0    0  501    0  0.00000000000E+00  0.00000000000E+00  0.10214830551E+04  0.10214830551E+04  0.25500000000E-02 0. -1.
         -2   -1    0    0    0  501 -0.00000000000E+00 -0.00000000000E+00 -0.45709384639E+03  0.45709384639E+03  0.25500000000E-02 0.  1.
    8880023    1    1    2    0    0 -0.24514491132E+02  0.13711806651E+03  0.87584542179E+03  0.11046799236E+04  0.65864270000E+03 0. -1.
    8880022    1    1    2    0    0  0.24514491132E+02 -0.13711806651E+03 -0.31145621306E+03  0.37389697793E+03  0.15294330000E+03 0.  0.
<mgrwt>
<rscale>  0 0.50122884E+03</rscale>
<asrwt>0</asrwt>
<pdfrwt beam="1">  1        2 0.15715124E+00 0.67321061E+03</pdfrwt>
<pdfrwt beam="2">  1       -2 0.70322131E-01 0.67321061E+03</pdfrwt>
<totfact> 0.45953545E+01</totfact>
</mgrwt>
</event>
<event>
 4    2  0.3171963E-007  0.7474927E+03  0.7818608E-02  0.9838635E-01
         -2   -1    0    0    0  501 -0.00000000000E+00  0.00000000000E+00  0.49523070733E+03  0.49523070734E+03  0.25500000000E-02 0.  1.
          2   -1    0    0  501    0  0.00000000000E+00 -0.00000000000E+00 -0.26745389505E+04  0.26745389505E+04  0.25500000000E-02 0. -1.
    8880023    1    1    2    0    0  0.10414653002E+03 -0.33777006669E+03 -0.25365899644E+04  0.26444345277E+04  0.65864270000E+03 0. -1.
    8880022    1    1    2    0    0 -0.10414653002E+03  0.33777006669E+03  0.35728172119E+03  0.52533513016E+03  0.15294330000E+03 0.  0.
<mgrwt>
<rscale>  0 0.63329733E+03</rscale>
<asrwt>0</asrwt>
<pdfrwt beam="1">  1        2 0.41146752E+00 0.74749269E+03</pdfrwt>
<pdfrwt beam="2">  1       -2 0.76189341E-01 0.74749269E+03</pdfrwt>
<totfact> 0.44770100E+00</totfact>
</mgrwt>
</event>
<event>
 4    2  0.3171963E-007  0.7596551E+03  0.7818608E-02  0.9806001E-01
          2   -1    0    0  501    0  0.00000000000E+00  0.00000000000E+00  0.18437266655E+04  0.18437266655E+04  0.25500000000E-02 0. -1.
         -2   -1    0    0    0  501 -0.00000000000E+00 -0.00000000000E+00 -0.60894254759E+03  0.60894254760E+03  0.25500000000E-02 0.  1.
    8880023    1    1    2    0    0 -0.32816434081E+03 -0.18861023034E+03  0.16829427775E+04  0.18464485512E+04  0.65864270000E+03 0. -1.
    8880022    1    1    2    0    0  0.32816434081E+03  0.18861023034E+03 -0.44815865968E+03  0.60622066183E+03  0.15294330000E+03 0.  0.
<mgrwt>
<rscale>  0 0.65041476E+03</rscale>
<asrwt>0</asrwt>
<pdfrwt beam="1">  1        2 0.28365025E+00 0.75965509E+03</pdfrwt>
<pdfrwt beam="2">  1       -2 0.93683471E-01 0.75965509E+03</pdfrwt>
<totfact> 0.80961708E+00</totfact>
</mgrwt>
</event>
<event>
 4    2  0.3171963E-007  0.6603573E+03  0.7818608E-02  0.1023793E+00
         -2   -1    0    0    0  501 -0.00000000000E+00  0.00000000000E+00  0.43129936852E+03  0.43129936853E+03  0.25500000000E-02 0.  1.
          2   -1    0    0  501    0  0.00000000000E+00 -0.00000000000E+00 -0.86889706628E+03  0.86889706629E+03  0.25500000000E-02 0. -1.
    8880023    1    1    2    0    0  0.31854607994E+02 -0.35311001552E+02 -0.71910689554E+03  0.97631271443E+03  0.65864270000E+03 0. -1.
    8880022    1    1    2    0    0 -0.31854607994E+02  0.35311001552E+02  0.28150919778E+03  0.32388372038E+03  0.15294330000E+03 0.  0.
<mgrwt>
<rscale>  0 0.46342239E+03</rscale>
<asrwt>0</asrwt>
<pdfrwt beam="1">  1        2 0.13367647E+00 0.66035732E+03</pdfrwt>
<pdfrwt beam="2">  1       -2 0.66353749E-01 0.66035732E+03</pdfrwt>
<totfact> 0.65669847E+01</totfact>
</mgrwt>
</event>
<event>
 4    2  0.3171963E-007  0.7552704E+03  0.7818608E-02  0.9817509E-01
          2   -1    0    0  501    0  0.00000000000E+00  0.00000000000E+00  0.26903830485E+04  0.26903830485E+04  0.25500000000E-02 0. -1.
         -2   -1    0    0    0  501 -0.00000000000E+00 -0.00000000000E+00 -0.25727584877E+03  0.25727584879E+03  0.25500000000E-02 0.  1.
    8880023    1    1    2    0    0 -0.13789967401E+03 -0.34293850790E+03  0.24331128810E+04  0.25476404060E+04  0.65864270000E+03 0.  0.
    8880022    1    1    2    0    0  0.13789967401E+03  0.34293850790E+03 -0.56813239805E-02  0.40001849125E+03  0.15294330000E+03 0.  1.
<mgrwt>
<rscale>  0 0.64431294E+03</rscale>
<asrwt>0</asrwt>
<pdfrwt beam="1">  1        2 0.41390510E+00 0.75527038E+03</pdfrwt>
<pdfrwt beam="2">  1       -2 0.39580899E-01 0.75527038E+03</pdfrwt>
<totfact> 0.17067752E+01</totfact>
</mgrwt>
</event>
<event>
 4    2  0.3171963E-007  0.1055498E+04  0.7818608E-02  0.9312302E-01
         -2   -1    0    0    0  501 -0.00000000000E+00  0.00000000000E+00  0.24529085180E+04  0.24529085180E+04  0.25500000000E-02 0.  1.
          2   -1    0    0  501    0  0.00000000000E+00 -0.00000000000E+00 -0.47082436306E+03  0.47082436306E+03  0.25500000000E-02 0. -1.
    8880023    1    1    2    0    0 -0.30960622121E+03  0.76446650524E+03  0.39198054383E+03  0.11259325037E+04  0.65864270000E+03 0. -1.
    8880022    1    1    2    0    0  0.30960622121E+03 -0.76446650524E+03  0.15901036112E+04  0.17978003774E+04  0.15294330000E+03 0.  0.
<mgrwt>
<rscale>  0 0.99658203E+03</rscale>
<asrwt>0</asrwt>
<pdfrwt beam="1">  1        2 0.72434518E-01 0.10554976E+04</pdfrwt>
<pdfrwt beam="2">  1       -2 0.37737054E+00 0.10554976E+04</pdfrwt>
<totfact> 0.69486575E-01</totfact>
</mgrwt>
</event>
<event>
 4    2  0.3171963E-007  0.7174356E+03  0.7818608E-02  0.9931360E-01
         -2   -1    0    0    0  501 -0.00000000000E+00  0.00000000000E+00  0.87759901896E+03  0.87759901897E+03  0.25500000000E-02 0.  1.
          2   -1    0    0  501    0  0.00000000000E+00 -0.00000000000E+00 -0.13899151373E+04  0.13899151373E+04  0.25500000000E-02 0. -1.
    8880023    1    1    2    0    0  0.20618529416E+03  0.19593699998E+03 -0.12617510513E+04  0.14514577518E+04  0.65864270000E+03 0. -1.
    8880022    1    1    2    0    0 -0.20618529416E+03 -0.19593699998E+03  0.74943493298E+03  0.81605640447E+03  0.15294330000E+03 0.  0.
<mgrwt>
<rscale>  0 0.58765214E+03</rscale>
<asrwt>0</asrwt>
<pdfrwt beam="1">  1        2 0.21383310E+00 0.71743563E+03</pdfrwt>
<pdfrwt beam="2">  1       -2 0.13501523E+00 0.71743563E+03</pdfrwt>
<totfact> 0.59484760E+00</totfact>
</mgrwt>
</event>
<event>
 4    2  0.3853092E-007  0.7139017E+03  0.7818608E-02  0.9943788E-01
         -2   -1    0    0    0  501 -0.00000000000E+00  0.00000000000E+00  0.10136282010E+04  0.10136282010E+04  0.25500000000E-02 0.  1.
          2   -1    0    0  501    0  0.00000000000E+00 -0.00000000000E+00 -0.15222785985E+04  0.15222785986E+04  0.25500000000E-02 0. -1.
    8880023    1    1    2    0    0  0.19327464786E+03 -0.19618945973E+03 -0.14103620059E+04  0.15807519057E+04  0.65864270000E+03 0. -1.
    8880022    1    1    2    0    0 -0.19327464786E+03  0.19618945973E+03  0.90171160827E+03  0.95515489378E+03  0.15294330000E+03 0.  0.
<mgrwt>
<rscale>  0 0.58185267E+03</rscale>
<asrwt>0</asrwt>
<pdfrwt beam="1">  1        2 0.23419671E+00 0.71390167E+03</pdfrwt>
<pdfrwt beam="2">  1       -2 0.15594280E+00 0.71390167E+03</pdfrwt>
<totfact> 0.34422629E+00</totfact>
</mgrwt>
</event>
<event>
 4    2  0.3171963E-007  0.1047427E+04  0.7818608E-02  0.9321980E-01
          2   -1    0    0  501    0  0.00000000000E+00  0.00000000000E+00  0.12651083614E+04  0.12651083614E+04  0.25500000000E-02 0. -1.
         -2   -1    0    0    0  501 -0.00000000000E+00 -0.00000000000E+00 -0.85368670571E+03  0.85368670571E+03  0.25500000000E-02 0.  1.
    8880023    1    1    2    0    0  0.72382008757E+03 -0.37333407986E+03  0.67869847663E+03  0.12480928182E+04  0.65864270000E+03 0.  0.
    8880022    1    1    2    0    0 -0.72382008757E+03  0.37333407986E+03 -0.26727682090E+03  0.87070224897E+03  0.15294330000E+03 0.  0.
<mgrwt>
<rscale>  0 0.98784241E+03</rscale>
<asrwt>0</asrwt>
<pdfrwt beam="1">  1        2 0.19463205E+00 0.10474274E+04</pdfrwt>
<pdfrwt beam="2">  1       -2 0.13133642E+00 0.10474274E+04</pdfrwt>
<totfact> 0.72422662E+00</totfact>
</mgrwt>
</event>
<event>
 4    2  0.3171963E-007  0.8588135E+03  0.7818608E-02  0.9595677E-01
          2   -1    0    0  501    0  0.00000000000E+00  0.00000000000E+00  0.10687474225E+04  0.10687474225E+04  0.25500000000E-02 0. -1.
         -2   -1    0    0    0  501 -0.00000000000E+00 -0.00000000000E+00 -0.57116271760E+03  0.57116271760E+03  0.25500000000E-02 0.  1.
    8880023    1    1    2    0    0 -0.52597308734E+03  0.16462918517E+03  0.61463185521E+03  0.10560932634E+04  0.65864270000E+03 0.  0.
    8880022    1    1    2    0    0  0.52597308734E+03 -0.16462918517E+03 -0.11704715027E+03  0.58381687678E+03  0.15294330000E+03 0.  0.
<mgrwt>
<rscale>  0 0.77582936E+03</rscale>
<asrwt>0</asrwt>
<pdfrwt beam="1">  1        2 0.16442268E+00 0.85881352E+03</pdfrwt>
<pdfrwt beam="2">  1       -2 0.87871188E-01 0.85881352E+03</pdfrwt>
<totfact> 0.25609929E+01</totfact>
</mgrwt>
</event>
<event>
 4    2  0.3171963E-007  0.7089622E+03  0.7818608E-02  0.9961875E-01
          2   -1    0    0  501    0  0.00000000000E+00  0.00000000000E+00  0.17880379965E+04  0.17880379965E+04  0.25500000000E-02 0. -1.
         -2   -1    0    0    0  501 -0.00000000000E+00 -0.00000000000E+00 -0.34873329293E+03  0.34873329294E+03  0.25500000000E-02 0.  1.
    8880023    1    1    2    0    0 -0.19845390032E+03 -0.17156110219E+03  0.16304787451E+04  0.17779449673E+04  0.65864270000E+03 0. -1.
    8880022    1    1    2    0    0  0.19845390032E+03  0.17156110219E+03 -0.19117404148E+03  0.35882632218E+03  0.15294330000E+03 0.  0.
<mgrwt>
<rscale>  0 0.57354019E+03</rscale>
<asrwt>0</asrwt>
<pdfrwt beam="1">  1        2 0.27508277E+00 0.70896218E+03</pdfrwt>
<pdfrwt beam="2">  1       -2 0.53651276E-01 0.70896218E+03</pdfrwt>
<totfact> 0.29652265E+01</totfact>
</mgrwt>
</event>
<event>
 4    2  0.3171963E-007  0.8354311E+03  0.7818608E-02  0.9638856E-01
         -2   -1    0    0    0  501 -0.00000000000E+00  0.00000000000E+00  0.49648634225E+03  0.49648634226E+03  0.25500000000E-02 0.  1.
          2   -1    0    0  501    0  0.00000000000E+00 -0.00000000000E+00 -0.14510080636E+04  0.14510080636E+04  0.25500000000E-02 0. -1.
    8880023    1    1    2    0    0  0.34781698167E+03  0.37836261661E+03 -0.11099375425E+04  0.13892107388E+04  0.65864270000E+03 0.  0.
    8880022    1    1    2    0    0 -0.34781698167E+03 -0.37836261661E+03  0.15541582115E+03  0.55828366702E+03  0.15294330000E+03 0.  0.
<mgrwt>
<rscale>  0 0.74776947E+03</rscale>
<asrwt>0</asrwt>
<pdfrwt beam="1">  1        2 0.22323201E+00 0.83543110E+03</pdfrwt>
<pdfrwt beam="2">  1       -2 0.76382515E-01 0.83543110E+03</pdfrwt>
<totfact> 0.21022118E+01</totfact>
</mgrwt>
</event>
<event>
 4    2  0.3171963E-007  0.7721163E+03  0.7818608E-02  0.9774693E-01
         -2   -1    0    0    0  501 -0.00000000000E+00  0.00000000000E+00  0.30705962078E+03  0.30705962079E+03  0.25500000000E-02 0.  1.
          2   -1    0    0  501    0  0.00000000000E+00 -0.00000000000E+00 -0.28117154548E+04  0.28117154548E+04  0.25500000000E-02 0. -1.
    8880023    1    1    2    0    0  0.38916622156E+03  0.10441760684E+03 -0.23286872042E+03  0.80646849401E+03  0.65864270000E+03 0.  1.
    8880022    1    1    2    0    0 -0.38916622156E+03 -0.10441760684E+03 -0.22717871136E+04  0.23123065815E+04  0.15294330000E+03 0.  0.
<mgrwt>
<rscale>  0 0.66738539E+03</rscale>
<asrwt>0</asrwt>
<pdfrwt beam="1">  1        2 0.43257159E+00 0.77211631E+03</pdfrwt>
<pdfrwt beam="2">  1       -2 0.47239944E-01 0.77211631E+03</pdfrwt>
<totfact> 0.10178352E+01</totfact>
</mgrwt>
</event>
<event>
 4    2  0.3171963E-007  0.6738292E+03  0.7818608E-02  0.1013055E+00
         -2   -1    0    0    0  501 -0.00000000000E+00  0.00000000000E+00  0.41224429139E+03  0.41224429140E+03  0.25500000000E-02 0.  1.
          2   -1    0    0  501    0  0.00000000000E+00 -0.00000000000E+00 -0.86557119488E+03  0.86557119489E+03  0.25500000000E-02 0. -1.
    8880023    1    1    2    0    0 -0.48820715583E+02 -0.13361177193E+03 -0.68843865393E+03  0.96332422079E+03  0.65864270000E+03 0. -1.
    8880022    1    1    2    0    0  0.48820715583E+02  0.13361177193E+03  0.23511175044E+03  0.31449126550E+03  0.15294330000E+03 0.  0.
<mgrwt>
<rscale>  0 0.50278471E+03</rscale>
<asrwt>0</asrwt>
<pdfrwt beam="1">  1        2 0.13316480E+00 0.67382919E+03</pdfrwt>
<pdfrwt beam="2">  1       -2 0.63422199E-01 0.67382919E+03</pdfrwt>
<totfact> 0.72645602E+01</totfact>
</mgrwt>
</event>
<event>
 4    2  0.3171963E-007  0.9214454E+03  0.7818608E-02  0.9492446E-01
         -2   -1    0    0    0  501 -0.00000000000E+00  0.00000000000E+00  0.11160002195E+04  0.11160002195E+04  0.25500000000E-02 0.  1.
          2   -1    0    0  501    0  0.00000000000E+00 -0.00000000000E+00 -0.14234818159E+04  0.14234818159E+04  0.25500000000E-02 0. -1.
    8880023    1    1    2    0    0 -0.19614573152E+02 -0.64410150376E+03 -0.11462874150E+04  0.14707265288E+04  0.65864270000E+03 0. -1.
    8880022    1    1    2    0    0  0.19614573152E+02  0.64410150376E+03  0.83880581853E+03  0.10687555066E+04  0.15294330000E+03 0.  0.
<mgrwt>
<rscale>  0 0.84843023E+03</rscale>
<asrwt>0</asrwt>
<pdfrwt beam="1">  1        2 0.21899720E+00 0.92144543E+03</pdfrwt>
<pdfrwt beam="2">  1       -2 0.17169234E+00 0.92144543E+03</pdfrwt>
<totfact> 0.29142410E+00</totfact>
</mgrwt>
</event>
<event>
 4    2  0.3171963E-007  0.8082873E+03  0.7818608E-02  0.9693155E-01
         -2   -1    0    0    0  501 -0.00000000000E+00  0.00000000000E+00  0.56504857198E+03  0.56504857199E+03  0.25500000000E-02 0.  1.
          2   -1    0    0  501    0  0.00000000000E+00 -0.00000000000E+00 -0.20122140046E+04  0.20122140046E+04  0.25500000000E-02 0. -1.
    8880023    1    1    2    0    0 -0.18217441509E+03 -0.43166037634E+03 -0.17986432764E+04  0.19719143085E+04  0.65864270000E+03 0. -1.
    8880022    1    1    2    0    0  0.18217441509E+03  0.43166037634E+03  0.35147784378E+03  0.60534826810E+03  0.15294330000E+03 0.  0.
<mgrwt>
<rscale>  0 0.71425776E+03</rscale>
<asrwt>0</asrwt>
<pdfrwt beam="1">  1        2 0.30957138E+00 0.80828733E+03</pdfrwt>
<pdfrwt beam="2">  1       -2 0.86930551E-01 0.80828733E+03</pdfrwt>
<totfact> 0.77313748E+00</totfact>
</mgrwt>
</event>
<event>
 4    2  0.3171963E-007  0.1099556E+04  0.7818608E-02  0.9261551E-01
         -2   -1    0    0    0  501 -0.00000000000E+00  0.00000000000E+00  0.67199413367E+03  0.67199413367E+03  0.25500000000E-02 0.  1.
          2   -1    0    0  501    0  0.00000000000E+00 -0.00000000000E+00 -0.16394764957E+04  0.16394764957E+04  0.25500000000E-02 0. -1.
    8880023    1    1    2    0    0  0.65497531953E+03 -0.58840479368E+03 -0.88974305781E+03  0.14144489335E+04  0.65864270000E+03 0.  0.
    8880022    1    1    2    0    0 -0.65497531953E+03  0.58840479368E+03 -0.77739304254E+02  0.89702169587E+03  0.15294330000E+03 0.  0.
<mgrwt>
<rscale>  0 0.10440095E+04</rscale>
<asrwt>0</asrwt>
<pdfrwt beam="1">  1        2 0.25222715E+00 0.10995559E+04</pdfrwt>
<pdfrwt beam="2">  1       -2 0.10338371E+00 0.10995559E+04</pdfrwt>
<totfact> 0.79757443E+00</totfact>
</mgrwt>
</event>
<event>
 4    2  0.3171963E-007  0.7629563E+03  0.7818608E-02  0.9797513E-01
          2   -1    0    0  501    0  0.00000000000E+00  0.00000000000E+00  0.23351136470E+03  0.23351136472E+03  0.25500000000E-02 0. -1.
         -2   -1    0    0    0  501 -0.00000000000E+00 -0.00000000000E+00 -0.16105975334E+04  0.16105975334E+04  0.25500000000E-02 0.  1.
    8880023    1    1    2    0    0 -0.31626371048E+03 -0.21970284931E+03 -0.62845859940E+03  0.98846471560E+03  0.65864270000E+03 0. -1.
    8880022    1    1    2    0    0  0.31626371048E+03  0.21970284931E+03 -0.74862756928E+03  0.85564418251E+03  0.15294330000E+03 0.  1.
<mgrwt>
<rscale>  0 0.65496166E+03</rscale>
<asrwt>0</asrwt>
<pdfrwt beam="1">  1        2 0.35924826E-01 0.76295628E+03</pdfrwt>
<pdfrwt beam="2">  1       -2 0.24778423E+00 0.76295628E+03</pdfrwt>
<totfact> 0.98699689E+00</totfact>
</mgrwt>
</event>
<event>
 4    2  0.3171963E-007  0.7190130E+03  0.7818608E-02  0.9925940E-01
          2   -1    0    0  501    0  0.00000000000E+00  0.00000000000E+00  0.18483101034E+04  0.18483101034E+04  0.25500000000E-02 0. -1.
         -2   -1    0    0    0  501 -0.00000000000E+00 -0.00000000000E+00 -0.39100697026E+03  0.39100697027E+03  0.25500000000E-02 0.  1.
    8880023    1    1    2    0    0 -0.55096150780E+02  0.28307927038E+03  0.16912234730E+04  0.18377204632E+04  0.65864270000E+03 0. -1.
    8880022    1    1    2    0    0  0.55096150780E+02 -0.28307927038E+03 -0.23392033981E+03  0.40159661047E+03  0.15294330000E+03 0.  0.
<mgrwt>
<rscale>  0 0.59020433E+03</rscale>
<asrwt>0</asrwt>
<pdfrwt beam="1">  1        2 0.28435540E+00 0.71901298E+03</pdfrwt>
<pdfrwt beam="2">  1       -2 0.60154919E-01 0.71901298E+03</pdfrwt>
<totfact> 0.21624147E+01</totfact>
</mgrwt>
</event>
<event>
 4    2  0.3171963E-007  0.7196851E+03  0.7818608E-02  0.9923653E-01
         -2   -1    0    0    0  501 -0.00000000000E+00  0.00000000000E+00  0.20023229747E+03  0.20023229749E+03  0.25500000000E-02 0.  1.
          2   -1    0    0  501    0  0.00000000000E+00 -0.00000000000E+00 -0.18633815402E+04  0.18633815402E+04  0.25500000000E-02 0. -1.
    8880023    1    1    2    0    0  0.21144768815E+03  0.19856066438E+03 -0.15630249776E+04  0.17207538316E+04  0.65864270000E+03 0. -1.
    8880022    1    1    2    0    0 -0.21144768815E+03 -0.19856066438E+03 -0.10012426513E+03  0.34286000605E+03  0.15294330000E+03 0.  0.
<mgrwt>
<rscale>  0 0.59128539E+03</rscale>
<asrwt>0</asrwt>
<pdfrwt beam="1">  1        2 0.28667407E+00 0.71968512E+03</pdfrwt>
<pdfrwt beam="2">  1       -2 0.30804970E-01 0.71968512E+03</pdfrwt>
<totfact> 0.79824853E+01</totfact>
</mgrwt>
</event>
<event>
 4    2  0.3171963E-007  0.6926154E+03  0.7818608E-02  0.1002933E+00
         -2   -1    0    0    0  501 -0.00000000000E+00  0.00000000000E+00  0.25363087343E+03  0.25363087344E+03  0.25500000000E-02 0.  1.
          2   -1    0    0  501    0  0.00000000000E+00 -0.00000000000E+00 -0.20600369218E+04  0.20600369218E+04  0.25500000000E-02 0. -1.
    8880023    1    1    2    0    0  0.18260120074E+03 -0.11208313270E+03 -0.19092880289E+04  0.20310334342E+04  0.65864270000E+03 0. -1.
    8880022    1    1    2    0    0 -0.18260120074E+03  0.11208313270E+03  0.10288198050E+03  0.28263436110E+03  0.15294330000E+03 0.  0.
<mgrwt>
<rscale>  0 0.54382450E+03</rscale>
<asrwt>0</asrwt>
<pdfrwt beam="1">  1        2 0.31692875E+00 0.69261536E+03</pdfrwt>
<pdfrwt beam="2">  1       -2 0.39020136E-01 0.69261536E+03</pdfrwt>
<totfact> 0.39945392E+01</totfact>
</mgrwt>
</event>
<event>
 4    2  0.3171963E-007  0.8864467E+03  0.7818608E-02  0.9548149E-01
          2   -1    0    0  501    0  0.00000000000E+00  0.00000000000E+00  0.38162808317E+04  0.38162808317E+04  0.25500000000E-02 0. -1.
         -2   -1    0    0    0  501 -0.00000000000E+00 -0.00000000000E+00 -0.46856111040E+03  0.46856111041E+03  0.25500000000E-02 0.  1.
    8880023    1    1    2    0    0  0.37230651962E+03  0.46191484375E+03  0.35347893246E+04  0.36442452226E+04  0.65864270000E+03 0.  0.
    8880022    1    1    2    0    0 -0.37230651962E+03 -0.46191484375E+03 -0.18706960332E+03  0.64059671942E+03  0.15294330000E+03 0.  0.
<mgrwt>
<rscale>  0 0.80825197E+03</rscale>
<asrwt>0</asrwt>
<pdfrwt beam="1">  1        2 0.58712013E+00 0.88644666E+03</pdfrwt>
<pdfrwt beam="2">  1       -2 0.72086325E-01 0.88644666E+03</pdfrwt>
<totfact> 0.88995111E-01</totfact>
</mgrwt>
</event>
<event>
 4    2  0.3171963E-007  0.6609747E+03  0.7818608E-02  0.1023179E+00
         -2   -1    0    0    0  501 -0.00000000000E+00  0.00000000000E+00  0.20448885512E+03  0.20448885514E+03  0.25500000000E-02 0.  1.
          2   -1    0    0  501    0  0.00000000000E+00 -0.00000000000E+00 -0.17780681169E+04  0.17780681169E+04  0.25500000000E-02 0. -1.
    8880023    1    1    2    0    0 -0.51465119732E+02  0.20704613081E+02 -0.16681827082E+04  0.17943581287E+04  0.65864270000E+03 0. -1.
    8880022    1    1    2    0    0  0.51465119732E+02 -0.20704613081E+02  0.94603446461E+02  0.18819884338E+03  0.15294330000E+03 0.  0.
<mgrwt>
<rscale>  0 0.46556551E+03</rscale>
<asrwt>0</asrwt>
<pdfrwt beam="1">  1        2 0.27354893E+00 0.66097469E+03</pdfrwt>
<pdfrwt beam="2">  1       -2 0.31459825E-01 0.66097469E+03</pdfrwt>
<totfact> 0.85978533E+01</totfact>
</mgrwt>
</event>
<event>
 4    2  0.3171963E-007  0.6588831E+03  0.7818608E-02  0.1025331E+00
          2   -1    0    0  501    0  0.00000000000E+00  0.00000000000E+00  0.17262316862E+04  0.17262316862E+04  0.25500000000E-02 0. -1.
         -2   -1    0    0    0  501 -0.00000000000E+00 -0.00000000000E+00 -0.29287252466E+03  0.29287252467E+03  0.25500000000E-02 0.  1.
    8880023    1    1    2    0    0  0.82597207660E+01 -0.15764167149E+02  0.16365251977E+04  0.17641830010E+04  0.65864270000E+03 0. -1.
    8880022    1    1    2    0    0 -0.82597207660E+01  0.15764167149E+02 -0.20316603621E+03  0.25492120986E+03  0.15294330000E+03 0.  0.
<mgrwt>
<rscale>  0 0.45810921E+03</rscale>
<asrwt>0</asrwt>
<pdfrwt beam="1">  1        2 0.26557411E+00 0.65888310E+03</pdfrwt>
<pdfrwt beam="2">  1       -2 0.45057312E-01 0.65888310E+03</pdfrwt>
<totfact> 0.45938119E+01</totfact>
</mgrwt>
</event>
<event>
 4    2  0.3171963E-007  0.6761229E+03  0.7818608E-02  0.1011608E+00
         -2   -1    0    0    0  501 -0.00000000000E+00  0.00000000000E+00  0.58737583810E+03  0.58737583810E+03  0.25500000000E-02 0.  1.
          2   -1    0    0  501    0  0.00000000000E+00 -0.00000000000E+00 -0.10988182044E+04  0.10988182044E+04  0.25500000000E-02 0. -1.
    8880023    1    1    2    0    0 -0.12140760361E+02 -0.15226461488E+03 -0.96817632351E+03  0.11808926753E+04  0.65864270000E+03 0. -1.
    8880022    1    1    2    0    0  0.12140760361E+02  0.15226461488E+03  0.45673395719E+03  0.50530136718E+03  0.15294330000E+03 0.  0.
<mgrwt>
<rscale>  0 0.50840663E+03</rscale>
<asrwt>0</asrwt>
<pdfrwt beam="1">  1        2 0.16904895E+00 0.67612286E+03</pdfrwt>
<pdfrwt beam="2">  1       -2 0.90365514E-01 0.67612286E+03</pdfrwt>
<totfact> 0.23440903E+01</totfact>
</mgrwt>
</event>
<event>
 4    2  0.3171963E-007  0.1334955E+04  0.7818608E-02  0.9035947E-01
         -2   -1    0    0    0  501 -0.00000000000E+00  0.00000000000E+00  0.85532094551E+03  0.85532094552E+03  0.25500000000E-02 0.  1.
          2   -1    0    0  501    0  0.00000000000E+00 -0.00000000000E+00 -0.25336212643E+04  0.25336212643E+04  0.25500000000E-02 0. -1.
    8880023    1    1    2    0    0 -0.10756349555E+04 -0.43738191108E+03  0.90214829546E+01  0.13349850512E+04  0.65864270000E+03 0.  1.
    8880022    1    1    2    0    0  0.10756349555E+04  0.43738191108E+03 -0.16873218017E+04  0.20539571586E+04  0.15294330000E+03 0.  0.
<mgrwt>
<rscale>  0 0.12919826E+04</rscale>
<asrwt>0</asrwt>
<pdfrwt beam="1">  1        2 0.38978788E+00 0.13349546E+04</pdfrwt>
<pdfrwt beam="2">  1       -2 0.13158784E+00 0.13349546E+04</pdfrwt>
<totfact> 0.13515561E+00</totfact>
</mgrwt>
</event>
<event>
 4    2  0.3171963E-007  0.8579186E+03  0.7818608E-02  0.9597277E-01
          2   -1    0    0  501    0  0.00000000000E+00  0.00000000000E+00  0.80740372397E+03  0.80740372397E+03  0.25500000000E-02 0. -1.
         -2   -1    0    0    0  501 -0.00000000000E+00 -0.00000000000E+00 -0.16421828244E+04  0.16421828244E+04  0.25500000000E-02 0.  1.
    8880023    1    1    2    0    0 -0.53045281598E+03 -0.14433933373E+03  0.50348546486E+03  0.99474713010E+03  0.65864270000E+03 0.  0.
    8880022    1    1    2    0    0  0.53045281598E+03  0.14433933373E+03 -0.13382645653E+04  0.14548394183E+04  0.15294330000E+03 0.  0.
<mgrwt>
<rscale>  0 0.77476687E+03</rscale>
<asrwt>0</asrwt>
<pdfrwt beam="1">  1        2 0.12421596E+00 0.85791855E+03</pdfrwt>
<pdfrwt beam="2">  1       -2 0.25264351E+00 0.85791855E+03</pdfrwt>
<totfact> 0.21398569E+00</totfact>
</mgrwt>
</event>
<event>
 4    2  0.3171963E-007  0.6777927E+03  0.7818608E-02  0.1010601E+00
         -2   -1    0    0    0  501 -0.00000000000E+00  0.00000000000E+00  0.65064503370E+03  0.65064503370E+03  0.25500000000E-02 0.  1.
          2   -1    0    0  501    0  0.00000000000E+00 -0.00000000000E+00 -0.22759500007E+04  0.22759500007E+04  0.25500000000E-02 0. -1.
    8880023    1    1    2    0    0  0.13760240686E+03 -0.81598427431E+02 -0.22046108885E+04  0.23064501082E+04  0.65864270000E+03 0. -1.
    8880022    1    1    2    0    0 -0.13760240686E+03  0.81598427431E+02  0.57930592152E+03  0.62014492617E+03  0.15294330000E+03 0.  0.
<mgrwt>
<rscale>  0 0.51236548E+03</rscale>
<asrwt>0</asrwt>
<pdfrwt beam="1">  1        2 0.35014615E+00 0.67779269E+03</pdfrwt>
<pdfrwt beam="2">  1       -2 0.10009924E+00 0.67779269E+03</pdfrwt>
<totfact> 0.40778318E+00</totfact>
</mgrwt>
</event>
<event>
 4    2  0.3171963E-007  0.7048297E+03  0.7818608E-02  0.9977726E-01
          2   -1    0    0  501    0  0.00000000000E+00  0.00000000000E+00  0.13803240670E+04  0.13803240670E+04  0.25500000000E-02 0. -1.
         -2   -1    0    0    0  501 -0.00000000000E+00 -0.00000000000E+00 -0.62983887003E+03  0.62983887003E+03  0.25500000000E-02 0.  1.
    8880023    1    1    2    0    0  0.18937040163E+03 -0.16466182646E+03  0.12474537068E+04  0.14328034139E+04  0.65864270000E+03 0. -1.
    8880022    1    1    2    0    0 -0.18937040163E+03  0.16466182646E+03 -0.49696850984E+03  0.57735952309E+03  0.15294330000E+03 0.  0.
<mgrwt>
<rscale>  0 0.56637775E+03</rscale>
<asrwt>0</asrwt>
<pdfrwt beam="1">  1        2 0.21235755E+00 0.70482968E+03</pdfrwt>
<pdfrwt beam="2">  1       -2 0.96898288E-01 0.70482968E+03</pdfrwt>
<totfact> 0.13588439E+01</totfact>
</mgrwt>
</event>
<event>
 4    2  0.3171963E-007  0.6999240E+03  0.7818608E-02  0.9997516E-01
          2   -1    0    0  501    0  0.00000000000E+00  0.00000000000E+00  0.10065658572E+04  0.10065658572E+04  0.25500000000E-02 0. -1.
         -2   -1    0    0    0  501 -0.00000000000E+00 -0.00000000000E+00 -0.44167723037E+03  0.44167723038E+03  0.25500000000E-02 0.  1.
    8880023    1    1    2    0    0 -0.21791291484E+03  0.92722191733E+02  0.81294008830E+03  0.10727372636E+04  0.65864270000E+03 0. -1.
    8880022    1    1    2    0    0  0.21791291484E+03 -0.92722191733E+02 -0.24805146147E+03  0.37550582398E+03  0.15294330000E+03 0.  0.
<mgrwt>
<rscale>  0 0.55759268E+03</rscale>
<asrwt>0</asrwt>
<pdfrwt beam="1">  1        2 0.15485629E+00 0.69992403E+03</pdfrwt>
<pdfrwt beam="2">  1       -2 0.67950343E-01 0.69992403E+03</pdfrwt>
<totfact> 0.50469044E+01</totfact>
</mgrwt>
</event>
<event>
 4    2  0.3171963E-007  0.6590989E+03  0.7818608E-02  0.1025099E+00
         -2   -1    0    0    0  501 -0.00000000000E+00  0.00000000000E+00  0.54547631618E+03  0.54547631618E+03  0.25500000000E-02 0.  1.
          2   -1    0    0  501    0  0.00000000000E+00 -0.00000000000E+00 -0.67080778953E+03  0.67080778953E+03  0.25500000000E-02 0. -1.
    8880023    1    1    2    0    0 -0.16056789251E+02  0.18527664002E+02 -0.48920604847E+03  0.82081292566E+03  0.65864270000E+03 0. -1.
    8880022    1    1    2    0    0  0.16056789251E+02 -0.18527664002E+02  0.36387457512E+03  0.39547118005E+03  0.15294330000E+03 0.  0.
<mgrwt>
<rscale>  0 0.45890513E+03</rscale>
<asrwt>0</asrwt>
<pdfrwt beam="1">  1        2 0.10320120E+00 0.65909886E+03</pdfrwt>
<pdfrwt beam="2">  1       -2 0.83919433E-01 0.65909886E+03</pdfrwt>
<totfact> 0.54689237E+01</totfact>
</mgrwt>
</event>
<event>
 4    2  0.3171963E-007  0.7576137E+03  0.7818608E-02  0.9811325E-01
         -2   -1    0    0    0  501 -0.00000000000E+00  0.00000000000E+00  0.24651936400E+03  0.24651936401E+03  0.25500000000E-02 0.  1.
          2   -1    0    0  501    0  0.00000000000E+00 -0.00000000000E+00 -0.16926025231E+04  0.16926025231E+04  0.25500000000E-02 0. -1.
    8880023    1    1    2    0    0  0.36482434104E+03 -0.84092289086E+02 -0.13083752373E+04  0.15118942690E+04  0.65864270000E+03 0. -1.
    8880022    1    1    2    0    0 -0.36482434104E+03  0.84092289086E+02 -0.13770792179E+03  0.42722761807E+03  0.15294330000E+03 0.  0.
<mgrwt>
<rscale>  0 0.64758308E+03</rscale>
<asrwt>0</asrwt>
<pdfrwt beam="1">  1        2 0.26040038E+00 0.75761370E+03</pdfrwt>
<pdfrwt beam="2">  1       -2 0.37926057E-01 0.75761370E+03</pdfrwt>
<totfact> 0.66415094E+01</totfact>
</mgrwt>
</event>
<event>
 4    2  0.3171963E-007  0.7245728E+03  0.7818608E-02  0.9907406E-01
          2   -1    0    0  501    0  0.00000000000E+00  0.00000000000E+00  0.24298353711E+04  0.24298353711E+04  0.25500000000E-02 0. -1.
         -2   -1    0    0    0  501 -0.00000000000E+00 -0.00000000000E+00 -0.23462999181E+03  0.23462999182E+03  0.25500000000E-02 0.  1.
    8880023    1    1    2    0    0 -0.29292732240E+03 -0.73410575045E+02  0.22098857882E+04  0.23256398973E+04  0.65864270000E+03 0. -1.
    8880022    1    1    2    0    0  0.29292732240E+03  0.73410575045E+02 -0.14680408911E+02  0.33882546562E+03  0.15294330000E+03 0.  0.
<mgrwt>
<rscale>  0 0.59903683E+03</rscale>
<asrwt>0</asrwt>
<pdfrwt beam="1">  1        2 0.37382084E+00 0.72457279E+03</pdfrwt>
<pdfrwt beam="2">  1       -2 0.36096921E-01 0.72457279E+03</pdfrwt>
<totfact> 0.28857290E+01</totfact>
</mgrwt>
</event>
<event>
 4    2  0.3171963E-007  0.7242749E+03  0.7818608E-02  0.9908378E-01
         -2   -1    0    0    0  501 -0.00000000000E+00  0.00000000000E+00  0.84532301285E+03  0.84532301286E+03  0.25500000000E-02 0.  1.
          2   -1    0    0  501    0  0.00000000000E+00 -0.00000000000E+00 -0.93815215557E+03  0.93815215557E+03  0.25500000000E-02 0. -1.
    8880023    1    1    2    0    0 -0.15568072075E+03 -0.25792913305E+03 -0.75118627896E+03  0.10434821304E+04  0.65864270000E+03 0. -1.
    8880022    1    1    2    0    0  0.15568072075E+03  0.25792913305E+03  0.65835713624E+03  0.73999303804E+03  0.15294330000E+03 0.  0.
<mgrwt>
<rscale>  0 0.59856969E+03</rscale>
<asrwt>0</asrwt>
<pdfrwt beam="1">  1        2 0.14433110E+00 0.72427490E+03</pdfrwt>
<pdfrwt beam="2">  1       -2 0.13004969E+00 0.72427490E+03</pdfrwt>
<totfact> 0.12228897E+01</totfact>
</mgrwt>
</event>
<event>
 4    2  0.3171963E-007  0.6950220E+03  0.7818608E-02  0.1001851E+00
         -2   -1    0    0    0  501 -0.00000000000E+00  0.00000000000E+00  0.20266785573E+03  0.20266785574E+03  0.25500000000E-02 0.  1.
          2   -1    0    0  501    0  0.00000000000E+00 -0.00000000000E+00 -0.12140002833E+04  0.12140002833E+04  0.25500000000E-02 0. -1.
    8880023    1    1    2    0    0  0.12702584862E+03  0.18196114905E+03 -0.86618760562E+03  0.11105568875E+04  0.65864270000E+03 0.  1.
    8880022    1    1    2    0    0 -0.12702584862E+03 -0.18196114905E+03 -0.14514482200E+03  0.30611125159E+03  0.15294330000E+03 0.  0.
<mgrwt>
<rscale>  0 0.54845844E+03</rscale>
<asrwt>0</asrwt>
<pdfrwt beam="1">  1        2 0.18676927E+00 0.69502204E+03</pdfrwt>
<pdfrwt beam="2">  1       -2 0.31179671E-01 0.69502204E+03</pdfrwt>
<totfact> 0.18004636E+02</totfact>
</mgrwt>
</event>
<event>
 4    2  0.8577221E-007  0.8526158E+03  0.7818608E-02  0.9606836E-01
         -2   -1    0    0    0  501 -0.00000000000E+00  0.00000000000E+00  0.21260022670E+04  0.21260022670E+04  0.25500000000E-02 0.  1.
          2   -1    0    0  501    0  0.00000000000E+00 -0.00000000000E+00 -0.16023017293E+04  0.16023017293E+04  0.25500000000E-02 0. -1.
    8880023    1    1    2    0    0 -0.41513695549E+03 -0.34756990981E+03 -0.14466453442E+04  0.16792071022E+04  0.65864270000E+03 0. -1.
    8880022    1    1    2    0    0  0.41513695549E+03  0.34756990981E+03  0.19703458819E+04  0.20490968941E+04  0.15294330000E+03 0.  0.
<mgrwt>
<rscale>  0 0.76845385E+03</rscale>
<asrwt>0</asrwt>
<pdfrwt beam="1">  1        2 0.24650796E+00 0.85261582E+03</pdfrwt>
<pdfrwt beam="2">  1       -2 0.32707727E+00 0.85261582E+03</pdfrwt>
<totfact> 0.25017103E-01</totfact>
</mgrwt>
</event>
<event>
 4    2  0.3171963E-007  0.8817486E+03  0.7818608E-02  0.9555990E-01
         -2   -1    0    0    0  501 -0.00000000000E+00  0.00000000000E+00  0.62867598706E+03  0.62867598707E+03  0.25500000000E-02 0.  1.
          2   -1    0    0  501    0  0.00000000000E+00 -0.00000000000E+00 -0.14878880743E+04  0.14878880743E+04  0.25500000000E-02 0. -1.
    8880023    1    1    2    0    0  0.18821433796E+03  0.55519881895E+03 -0.11462457524E+04  0.14461534831E+04  0.65864270000E+03 0.  0.
    8880022    1    1    2    0    0 -0.18821433796E+03 -0.55519881895E+03  0.28703366511E+03  0.67041057830E+03  0.15294330000E+03 0.  1.
<mgrwt>
<rscale>  0 0.80278826E+03</rscale>
<asrwt>0</asrwt>
<pdfrwt beam="1">  1        2 0.22890586E+00 0.88174859E+03</pdfrwt>
<pdfrwt beam="2">  1       -2 0.96719383E-01 0.88174859E+03</pdfrwt>
<totfact> 0.11616520E+01</totfact>
</mgrwt>
</event>
<event>
 4    2  0.3171963E-007  0.9093889E+03  0.7818608E-02  0.9511124E-01
          2   -1    0    0  501    0  0.00000000000E+00  0.00000000000E+00  0.88739296479E+03  0.88739296480E+03  0.25500000000E-02 0. -1.
         -2   -1    0    0    0  501 -0.00000000000E+00 -0.00000000000E+00 -0.13412541266E+04  0.13412541266E+04  0.25500000000E-02 0.  1.
    8880023    1    1    2    0    0  0.44223861537E+03 -0.44452557870E+03  0.52956277811E+03  0.10523425893E+04  0.65864270000E+03 0. -1.
    8880022    1    1    2    0    0 -0.44223861537E+03  0.44452557870E+03 -0.98342393993E+03  0.11763045021E+04  0.15294330000E+03 0.  0.
<mgrwt>
<rscale>  0 0.83468612E+03</rscale>
<asrwt>0</asrwt>
<pdfrwt beam="1">  1        2 0.13652200E+00 0.90938891E+03</pdfrwt>
<pdfrwt beam="2">  1       -2 0.20634679E+00 0.90938891E+03</pdfrwt>
<totfact> 0.36264298E+00</totfact>
</mgrwt>
</event>
<event>
 4    2  0.3171963E-007  0.7444845E+03  0.7818608E-02  0.9847071E-01
          2   -1    0    0  501    0  0.00000000000E+00  0.00000000000E+00  0.53833216072E+03  0.53833216072E+03  0.25500000000E-02 0. -1.
         -2   -1    0    0    0  501 -0.00000000000E+00 -0.00000000000E+00 -0.10138939214E+04  0.10138939214E+04  0.25500000000E-02 0.  1.
    8880023    1    1    2    0    0 -0.33208024500E+03 -0.10084498266E+03  0.20581520753E+03  0.77240993362E+03  0.65864270000E+03 0.  0.
    8880022    1    1    2    0    0  0.33208024500E+03  0.10084498266E+03 -0.68137696819E+03  0.77981614849E+03  0.15294330000E+03 0.  0.
<mgrwt>
<rscale>  0 0.62896461E+03</rscale>
<asrwt>0</asrwt>
<pdfrwt beam="1">  1        2 0.82820332E-01 0.74448452E+03</pdfrwt>
<pdfrwt beam="2">  1       -2 0.15598368E+00 0.74448452E+03</pdfrwt>
<totfact> 0.15467110E+01</totfact>
</mgrwt>
</event>
<event>
 4    2  0.3171963E-007  0.6622048E+03  0.7818608E-02  0.1022003E+00
          2   -1    0    0  501    0  0.00000000000E+00  0.00000000000E+00  0.94567050671E+03  0.94567050671E+03  0.25500000000E-02 0. -1.
         -2   -1    0    0    0  501 -0.00000000000E+00 -0.00000000000E+00 -0.36610259575E+03  0.36610259576E+03  0.25500000000E-02 0.  1.
    8880023    1    1    2    0    0 -0.31277226291E+02  0.61046757387E+02  0.79765596359E+03  0.10367112491E+04  0.65864270000E+03 0. -1.
    8880022    1    1    2    0    0  0.31277226291E+02 -0.61046757387E+02 -0.21808805263E+03  0.27506185338E+03  0.15294330000E+03 0.  0.
<mgrwt>
<rscale>  0 0.46970589E+03</rscale>
<asrwt>0</asrwt>
<pdfrwt beam="1">  1        2 0.14548777E+00 0.66220479E+03</pdfrwt>
<pdfrwt beam="2">  1       -2 0.56323478E-01 0.66220479E+03</pdfrwt>
<totfact> 0.82548515E+01</totfact>
</mgrwt>
</event>
<event>
 4    2  0.3171963E-007  0.1236454E+04  0.7818608E-02  0.9122476E-01
          2   -1    0    0  501    0  0.00000000000E+00  0.00000000000E+00  0.33337658130E+04  0.33337658130E+04  0.25500000000E-02 0. -1.
         -2   -1    0    0    0  501 -0.00000000000E+00 -0.00000000000E+00 -0.51126379726E+03  0.51126379726E+03  0.25500000000E-02 0.  1.
    8880023    1    1    2    0    0  0.90689840367E+03  0.52205732104E+03  0.58012171775E+03  0.13657818181E+04  0.65864270000E+03 0.  0.
    8880022    1    1    2    0    0 -0.90689840367E+03 -0.52205732104E+03  0.22423802980E+04  0.24792477921E+04  0.15294330000E+03 0.  0.
<mgrwt>
<rscale>  0 0.11890720E+04</rscale>
<asrwt>0</asrwt>
<pdfrwt beam="1">  1        2 0.51288706E+00 0.12364541E+04</pdfrwt>
<pdfrwt beam="2">  1       -2 0.78655967E-01 0.12364541E+04</pdfrwt>
<totfact> 0.15108270E+00</totfact>
</mgrwt>
</event>
<event>
 4    2  0.3171963E-007  0.7433565E+03  0.7818608E-02  0.9850275E-01
         -2   -1    0    0    0  501 -0.00000000000E+00  0.00000000000E+00  0.37457745899E+03  0.37457745900E+03  0.25500000000E-02 0.  1.
          2   -1    0    0  501    0  0.00000000000E+00 -0.00000000000E+00 -0.13400850236E+04  0.13400850236E+04  0.25500000000E-02 0. -1.
    8880023    1    1    2    0    0  0.30981249921E+03 -0.15094672589E+03 -0.10884636240E+04  0.13180788921E+04  0.65864270000E+03 0. -1.
    8880022    1    1    2    0    0 -0.30981249921E+03  0.15094672589E+03  0.12295605938E+03  0.39658359053E+03  0.15294330000E+03 0.  0.
<mgrwt>
<rscale>  0 0.62732873E+03</rscale>
<asrwt>0</asrwt>
<pdfrwt beam="1">  1        2 0.20616693E+00 0.74335651E+03</pdfrwt>
<pdfrwt beam="2">  1       -2 0.57627302E-01 0.74335651E+03</pdfrwt>
<totfact> 0.45086419E+01</totfact>
</mgrwt>
</event>
<event>
 4    2  0.3171963E-007  0.8265368E+03  0.7818608E-02  0.9656109E-01
         -2   -1    0    0    0  501 -0.00000000000E+00  0.00000000000E+00  0.60878626551E+03  0.60878626552E+03  0.25500000000E-02 0.  1.
          2   -1    0    0  501    0  0.00000000000E+00 -0.00000000000E+00 -0.26654253535E+04  0.26654253535E+04  0.25500000000E-02 0. -1.
    8880023    1    1    2    0    0 -0.30906557233E+03  0.39221333291E+03 -0.24722588177E+04  0.26067655619E+04  0.65864270000E+03 0. -1.
    8880022    1    1    2    0    0  0.30906557233E+03 -0.39221333291E+03  0.41561972970E+03  0.66744605718E+03  0.15294330000E+03 0.  1.
<mgrwt>
<rscale>  0 0.73691285E+03</rscale>
<asrwt>0</asrwt>
<pdfrwt beam="1">  1        2 0.41006543E+00 0.82653677E+03</pdfrwt>
<pdfrwt beam="2">  1       -2 0.93659427E-01 0.82653677E+03</pdfrwt>
<totfact> 0.27918468E+00</totfact>
</mgrwt>
</event>
<event>
 4    2  0.3171963E-007  0.6702681E+03  0.7818608E-02  0.1015471E+00
         -2   -1    0    0    0  501 -0.00000000000E+00  0.00000000000E+00  0.54840751113E+03  0.54840751114E+03  0.25500000000E-02 0.  1.
          2   -1    0    0  501    0  0.00000000000E+00 -0.00000000000E+00 -0.88887701359E+03  0.88887701360E+03  0.25500000000E-02 0. -1.
    8880023    1    1    2    0    0  0.11239393405E+03  0.53072320349E+02 -0.73594274750E+03  0.99542503558E+03  0.65864270000E+03 0. -1.
    8880022    1    1    2    0    0 -0.11239393405E+03 -0.53072320349E+02  0.39547324504E+03  0.44185948916E+03  0.15294330000E+03 0.  0.
<mgrwt>
<rscale>  0 0.49356835E+03</rscale>
<asrwt>0</asrwt>
<pdfrwt beam="1">  1        2 0.13675031E+00 0.67026806E+03</pdfrwt>
<pdfrwt beam="2">  1       -2 0.84370387E-01 0.67026806E+03</pdfrwt>
<totfact> 0.37381538E+01</totfact>
</mgrwt>
</event>
<event>
 4    2  0.3171963E-007  0.6962645E+03  0.7818608E-02  0.1001306E+00
          2   -1    0    0  501    0  0.00000000000E+00  0.00000000000E+00  0.17213833727E+04  0.17213833727E+04  0.25500000000E-02 0. -1.
         -2   -1    0    0    0  501 -0.00000000000E+00 -0.00000000000E+00 -0.41039462896E+03  0.41039462897E+03  0.25500000000E-02 0.  1.
    8880023    1    1    2    0    0  0.22401796106E+03 -0.28106626052E+02  0.15935915338E+04  0.17390567018E+04  0.65864270000E+03 0. -1.
    8880022    1    1    2    0    0 -0.22401796106E+03  0.28106626052E+02 -0.28260279012E+03  0.39272129979E+03  0.15294330000E+03 0.  0.
<mgrwt>
<rscale>  0 0.55081056E+03</rscale>
<asrwt>0</asrwt>
<pdfrwt beam="1">  1        2 0.26482821E+00 0.69626449E+03</pdfrwt>
<pdfrwt beam="2">  1       -2 0.63137636E-01 0.69626449E+03</pdfrwt>
<totfact> 0.22952969E+01</totfact>
</mgrwt>
</event>
<event>
 4    2  0.3171963E-007  0.8521766E+03  0.7818608E-02  0.9607634E-01
         -2   -1    0    0    0  501 -0.00000000000E+00  0.00000000000E+00  0.41384404876E+03  0.41384404877E+03  0.25500000000E-02 0.  1.
          2   -1    0    0  501    0  0.00000000000E+00 -0.00000000000E+00 -0.18564837766E+04  0.18564837766E+04  0.25500000000E-02 0. -1.
    8880023    1    1    2    0    0 -0.42695819769E+03  0.33181543349E+03 -0.14792828382E+04  0.17071856097E+04  0.65864270000E+03 0. -1.
    8880022    1    1    2    0    0  0.42695819769E+03 -0.33181543349E+03  0.36643110344E+02  0.56314221563E+03  0.15294330000E+03 0.  0.
<mgrwt>
<rscale>  0 0.76792958E+03</rscale>
<asrwt>0</asrwt>
<pdfrwt beam="1">  1        2 0.28561288E+00 0.85217662E+03</pdfrwt>
<pdfrwt beam="2">  1       -2 0.63668316E-01 0.85217662E+03</pdfrwt>
<totfact> 0.18649451E+01</totfact>
</mgrwt>
</event>
<event>
 4    2  0.3171963E-007  0.6664873E+03  0.7818608E-02  0.1018317E+00
         -2   -1    0    0    0  501 -0.00000000000E+00  0.00000000000E+00  0.30760076748E+03  0.30760076749E+03  0.25500000000E-02 0.  1.
          2   -1    0    0  501    0  0.00000000000E+00 -0.00000000000E+00 -0.14778720776E+04  0.14778720776E+04  0.25500000000E-02 0. -1.
    8880023    1    1    2    0    0 -0.56430202354E+02  0.84916141437E+02 -0.13641816763E+04  0.15182875126E+04  0.65864270000E+03 0. -1.
    8880022    1    1    2    0    0  0.56430202354E+02 -0.84916141437E+02  0.19391036611E+03  0.26718533252E+03  0.15294330000E+03 0.  0.
<mgrwt>
<rscale>  0 0.48298901E+03</rscale>
<asrwt>0</asrwt>
<pdfrwt beam="1">  1        2 0.22736493E+00 0.66648730E+03</pdfrwt>
<pdfrwt beam="2">  1       -2 0.47323196E-01 0.66648730E+03</pdfrwt>
<totfact> 0.56957919E+01</totfact>
</mgrwt>
</event>
<event>
 4    2  0.3171963E-007  0.7166076E+03  0.7818608E-02  0.9934236E-01
         -2   -1    0    0    0  501 -0.00000000000E+00  0.00000000000E+00  0.14918664780E+03  0.14918664782E+03  0.25500000000E-02 0.  1.
          2   -1    0    0  501    0  0.00000000000E+00 -0.00000000000E+00 -0.24184538042E+04  0.24184538042E+04  0.25500000000E-02 0. -1.
    8880023    1    1    2    0    0 -0.28220801337E+03  0.86535365657E+01 -0.20680766332E+04  0.21887136436E+04  0.65864270000E+03 0.  0.
    8880022    1    1    2    0    0  0.28220801337E+03 -0.86535365657E+01 -0.20119052314E+03  0.37892680840E+03  0.15294330000E+03 0.  0.
<mgrwt>
<rscale>  0 0.58630359E+03</rscale>
<asrwt>0</asrwt>
<pdfrwt beam="1">  1        2 0.37206979E+00 0.71660760E+03</pdfrwt>
<pdfrwt beam="2">  1       -2 0.22951794E-01 0.71660760E+03</pdfrwt>
<totfact> 0.67576164E+01</totfact>
</mgrwt>
</event>
<event>
 4    2  0.3171963E-007  0.6621054E+03  0.7818608E-02  0.1022096E+00
          2   -1    0    0  501    0  0.00000000000E+00  0.00000000000E+00  0.49004576923E+03  0.49004576924E+03  0.25500000000E-02 0. -1.
         -2   -1    0    0    0  501 -0.00000000000E+00 -0.00000000000E+00 -0.35140072998E+03  0.35140072999E+03  0.25500000000E-02 0.  1.
    8880023    1    1    2    0    0  0.67617708943E+02 -0.10898732710E+01  0.97650082875E+02  0.66926757529E+03  0.65864270000E+03 0. -1.
    8880022    1    1    2    0    0 -0.67617708943E+02  0.10898732710E+01  0.40994956374E+02  0.17217892394E+03  0.15294330000E+03 0.  0.
<mgrwt>
<rscale>  0 0.46937741E+03</rscale>
<asrwt>0</asrwt>
<pdfrwt beam="1">  1        2 0.75391657E-01 0.66210539E+03</pdfrwt>
<pdfrwt beam="2">  1       -2 0.54061651E-01 0.66210539E+03</pdfrwt>
<totfact> 0.20576540E+02</totfact>
</mgrwt>
</event>
<event>
 4    2  0.3171963E-007  0.1162465E+04  0.7818608E-02  0.9194501E-01
          2   -1    0    0  501    0  0.00000000000E+00  0.00000000000E+00  0.19600957280E+04  0.19600957280E+04  0.25500000000E-02 0. -1.
         -2   -1    0    0    0  501 -0.00000000000E+00 -0.00000000000E+00 -0.67967321269E+03  0.67967321270E+03  0.25500000000E-02 0.  1.
    8880023    1    1    2    0    0  0.97281542215E+02 -0.95291710375E+03  0.11932056871E+04  0.16658525514E+04  0.65864270000E+03 0. -1.
    8880022    1    1    2    0    0 -0.97281542215E+02  0.95291710375E+03  0.87216828151E+02  0.97391638923E+03  0.15294330000E+03 0.  0.
<mgrwt>
<rscale>  0 0.11110362E+04</rscale>
<asrwt>0</asrwt>
<pdfrwt beam="1">  1        2 0.30155319E+00 0.11624650E+04</pdfrwt>
<pdfrwt beam="2">  1       -2 0.10456511E+00 0.11624650E+04</pdfrwt>
<totfact> 0.51255797E+00</totfact>
</mgrwt>
</event>
<event>
 4    2  0.3171963E-007  0.8195033E+03  0.7818608E-02  0.9670112E-01
          2   -1    0    0  501    0  0.00000000000E+00  0.00000000000E+00  0.13295920268E+04  0.13295920268E+04  0.25500000000E-02 0. -1.
         -2   -1    0    0    0  501 -0.00000000000E+00 -0.00000000000E+00 -0.41574798497E+03  0.41574798498E+03  0.25500000000E-02 0.  1.
    8880023    1    1    2    0    0 -0.16585912567E+03  0.45854795372E+03  0.92287655540E+03  0.12342150616E+04  0.65864270000E+03 0. -1.
    8880022    1    1    2    0    0  0.16585912567E+03 -0.45854795372E+03 -0.90325135574E+01  0.51112495023E+03  0.15294330000E+03 0.  0.
<mgrwt>
<rscale>  0 0.72824557E+03</rscale>
<asrwt>0</asrwt>
<pdfrwt beam="1">  1        2 0.20455262E+00 0.81950331E+03</pdfrwt>
<pdfrwt beam="2">  1       -2 0.63961227E-01 0.81950331E+03</pdfrwt>
<totfact> 0.36379183E+01</totfact>
</mgrwt>
</event>
<event>
 4    2  0.3171963E-007  0.8566316E+03  0.7818608E-02  0.9599584E-01
          2   -1    0    0  501    0  0.00000000000E+00  0.00000000000E+00  0.35643609902E+04  0.35643609902E+04  0.25500000000E-02 0. -1.
         -2   -1    0    0    0  501 -0.00000000000E+00 -0.00000000000E+00 -0.35425529710E+03  0.35425529710E+03  0.25500000000E-02 0.  1.
    8880023    1    1    2    0    0  0.54430489733E+03 -0.61152326803E+02  0.32378557450E+04  0.33492577476E+04  0.65864270000E+03 0. -1.
    8880022    1    1    2    0    0 -0.54430489733E+03  0.61152326803E+02 -0.27750051885E+02  0.56935853969E+03  0.15294330000E+03 0.  0.
<mgrwt>
<rscale>  0 0.77323749E+03</rscale>
<asrwt>0</asrwt>
<pdfrwt beam="1">  1        2 0.54836324E+00 0.85663156E+03</pdfrwt>
<pdfrwt beam="2">  1       -2 0.54500814E-01 0.85663156E+03</pdfrwt>
<totfact> 0.24722177E+00</totfact>
</mgrwt>
</event>
<event>
 4    2  0.3171963E-007  0.6885707E+03  0.7818608E-02  0.1004839E+00
          2   -1    0    0  501    0  0.00000000000E+00  0.00000000000E+00  0.49345899516E+03  0.49345899517E+03  0.25500000000E-02 0. -1.
         -2   -1    0    0    0  501 -0.00000000000E+00 -0.00000000000E+00 -0.66356231115E+03  0.66356231115E+03  0.25500000000E-02 0.  1.
    8880023    1    1    2    0    0  0.18386654766E+03  0.80700158812E+02  0.19272289937E+03  0.71503268820E+03  0.65864270000E+03 0. -1.
    8880022    1    1    2    0    0 -0.18386654766E+03 -0.80700158812E+02 -0.36282621536E+03  0.44198861812E+03  0.15294330000E+03 0.  0.
<mgrwt>
<rscale>  0 0.53578220E+03</rscale>
<asrwt>0</asrwt>
<pdfrwt beam="1">  1        2 0.75916768E-01 0.68857071E+03</pdfrwt>
<pdfrwt beam="2">  1       -2 0.10208651E+00 0.68857071E+03</pdfrwt>
<totfact> 0.49958501E+01</totfact>
</mgrwt>
</event>
<event>
 4    2  0.3171963E-007  0.8129619E+03  0.7818608E-02  0.9683440E-01
         -2   -1    0    0    0  501 -0.00000000000E+00  0.00000000000E+00  0.47678602749E+03  0.47678602750E+03  0.25500000000E-02 0.  1.
          2   -1    0    0  501    0  0.00000000000E+00 -0.00000000000E+00 -0.17868037518E+04  0.17868037518E+04  0.25500000000E-02 0. -1.
    8880023    1    1    2    0    0  0.12993175095E+03  0.45849170645E+03 -0.15177015832E+04  0.17217215822E+04  0.65864270000E+03 0.  0.
    8880022    1    1    2    0    0 -0.12993175095E+03 -0.45849170645E+03  0.20768385886E+03  0.54186819710E+03  0.15294330000E+03 0.  0.
<mgrwt>
<rscale>  0 0.72011382E+03</rscale>
<asrwt>0</asrwt>
<pdfrwt beam="1">  1        2 0.27489288E+00 0.81296194E+03</pdfrwt>
<pdfrwt beam="2">  1       -2 0.73351697E-01 0.81296194E+03</pdfrwt>
<totfact> 0.15036376E+01</totfact>
</mgrwt>
</event>
<event>
 4    2  0.3171963E-007  0.7229653E+03  0.7818608E-02  0.9912677E-01
         -2   -1    0    0    0  501 -0.00000000000E+00  0.00000000000E+00  0.31911598371E+03  0.31911598372E+03  0.25500000000E-02 0.  1.
          2   -1    0    0  501    0  0.00000000000E+00 -0.00000000000E+00 -0.11771806323E+04  0.11771806323E+04  0.25500000000E-02 0. -1.
    8880023    1    1    2    0    0  0.76468583251E+02 -0.28813393845E+03 -0.90462273193E+03  0.11580246561E+04  0.65864270000E+03 0. -1.
    8880022    1    1    2    0    0 -0.76468583251E+02  0.28813393845E+03  0.46558083370E+02  0.33827195990E+03  0.15294330000E+03 0.  0.
<mgrwt>
<rscale>  0 0.59650810E+03</rscale>
<asrwt>0</asrwt>
<pdfrwt beam="1">  1        2 0.18110471E+00 0.72296529E+03</pdfrwt>
<pdfrwt beam="2">  1       -2 0.49094767E-01 0.72296529E+03</pdfrwt>
<totfact> 0.78194416E+01</totfact>
</mgrwt>
</event>
<event>
 4    2  0.3171963E-007  0.6743969E+03  0.7818608E-02  0.1012689E+00
          2   -1    0    0  501    0  0.00000000000E+00  0.00000000000E+00  0.57663297831E+03  0.57663297831E+03  0.25500000000E-02 0. -1.
         -2   -1    0    0    0  501 -0.00000000000E+00 -0.00000000000E+00 -0.61801465300E+03  0.61801465300E+03  0.25500000000E-02 0.  1.
    8880023    1    1    2    0    0 -0.13109832837E+02 -0.14432280545E+03  0.34277202098E+03  0.75650763679E+03  0.65864270000E+03 0. -1.
    8880022    1    1    2    0    0  0.13109832837E+02  0.14432280545E+03 -0.38415369567E+03  0.43813999453E+03  0.15294330000E+03 0.  0.
<mgrwt>
<rscale>  0 0.50419725E+03</rscale>
<asrwt>0</asrwt>
<pdfrwt beam="1">  1        2 0.88712765E-01 0.67439688E+03</pdfrwt>
<pdfrwt beam="2">  1       -2 0.95079178E-01 0.67439688E+03</pdfrwt>
<totfact> 0.49262194E+01</totfact>
</mgrwt>
</event>
<event>
 4    2  0.3171963E-007  0.8544880E+03  0.7818608E-02  0.9603444E-01
         -2   -1    0    0    0  501 -0.00000000000E+00  0.00000000000E+00  0.34062948285E+03  0.34062948286E+03  0.25500000000E-02 0.  1.
          2   -1    0    0  501    0  0.00000000000E+00 -0.00000000000E+00 -0.19267597013E+04  0.19267597013E+04  0.25500000000E-02 0. -1.
    8880023    1    1    2    0    0  0.25599732741E+03  0.48042154877E+03 -0.14543368213E+04  0.16867854908E+04  0.65864270000E+03 0. -1.
    8880022    1    1    2    0    0 -0.25599732741E+03 -0.48042154877E+03 -0.13179339720E+03  0.58060369334E+03  0.15294330000E+03 0.  0.
<mgrwt>
<rscale>  0 0.77068621E+03</rscale>
<asrwt>0</asrwt>
<pdfrwt beam="1">  1        2 0.29642456E+00 0.85448798E+03</pdfrwt>
<pdfrwt beam="2">  1       -2 0.52404537E-01 0.85448798E+03</pdfrwt>
<totfact> 0.25683204E+01</totfact>
</mgrwt>
</event>
<event>
 4    2  0.3171963E-007  0.7198931E+03  0.7818608E-02  0.9922948E-01
         -2   -1    0    0    0  501 -0.00000000000E+00  0.00000000000E+00  0.84624507750E+03  0.84624507750E+03  0.25500000000E-02 0.  1.
          2   -1    0    0  501    0  0.00000000000E+00 -0.00000000000E+00 -0.10047103796E+04  0.10047103796E+04  0.25500000000E-02 0. -1.
    8880023    1    1    2    0    0  0.19456797423E+03  0.21582195989E+03 -0.83286054121E+03  0.11008645250E+04  0.65864270000E+03 0. -1.
    8880022    1    1    2    0    0 -0.19456797423E+03 -0.21582195989E+03  0.67439523910E+03  0.75009093215E+03  0.15294330000E+03 0.  0.
<mgrwt>
<rscale>  0 0.59161907E+03</rscale>
<asrwt>0</asrwt>
<pdfrwt beam="1">  1        2 0.15457083E+00 0.71989306E+03</pdfrwt>
<pdfrwt beam="2">  1       -2 0.13019155E+00 0.71989306E+03</pdfrwt>
<totfact> 0.11050716E+01</totfact>
</mgrwt>
</event>
<event>
 4    2  0.3171963E-007  0.8646951E+03  0.7818608E-02  0.9585266E-01
         -2   -1    0    0    0  501 -0.00000000000E+00  0.00000000000E+00  0.59969212347E+03  0.59969212348E+03  0.25500000000E-02 0.  1.
          2   -1    0    0  501    0  0.00000000000E+00 -0.00000000000E+00 -0.18649284760E+04  0.18649284760E+04  0.25500000000E-02 0. -1.
    8880023    1    1    2    0    0  0.35132327293E+03  0.43641656775E+03 -0.15821480003E+04  0.18030224524E+04  0.65864270000E+03 0. -1.
    8880022    1    1    2    0    0 -0.35132327293E+03 -0.43641656775E+03  0.31691164777E+03  0.66159814708E+03  0.15294330000E+03 0.  0.
<mgrwt>
<rscale>  0 0.78279121E+03</rscale>
<asrwt>0</asrwt>
<pdfrwt beam="1">  1        2 0.28691207E+00 0.86469513E+03</pdfrwt>
<pdfrwt beam="2">  1       -2 0.92260328E-01 0.86469513E+03</pdfrwt>
<totfact> 0.80500699E+00</totfact>
</mgrwt>
</event>
<event>
 4    2  0.3171963E-007  0.7810909E+03  0.7818608E-02  0.9753281E-01
         -2   -1    0    0    0  501 -0.00000000000E+00  0.00000000000E+00  0.10516297458E+04  0.10516297458E+04  0.25500000000E-02 0.  1.
          2   -1    0    0  501    0  0.00000000000E+00 -0.00000000000E+00 -0.84423347070E+03  0.84423347071E+03  0.25500000000E-02 0. -1.
    8880023    1    1    2    0    0  0.10431586413E+03 -0.40670757767E+03 -0.59197427366E+03  0.98006969149E+03  0.65864270000E+03 0. -1.
    8880022    1    1    2    0    0 -0.10431586413E+03  0.40670757767E+03  0.79937054873E+03  0.91579352500E+03  0.15294330000E+03 0.  0.
<mgrwt>
<rscale>  0 0.67931194E+03</rscale>
<asrwt>0</asrwt>
<pdfrwt beam="1">  1        2 0.12988207E+00 0.78109094E+03</pdfrwt>
<pdfrwt beam="2">  1       -2 0.16178919E+00 0.78109094E+03</pdfrwt>
<totfact> 0.79366804E+00</totfact>
</mgrwt>
</event>
<event>
 4    2  0.3171963E-007  0.7643797E+03  0.7818608E-02  0.9793898E-01
         -2   -1    0    0    0  501 -0.00000000000E+00  0.00000000000E+00  0.22905010739E+03  0.22905010741E+03  0.25500000000E-02 0.  1.
          2   -1    0    0  501    0  0.00000000000E+00 -0.00000000000E+00 -0.26221093990E+04  0.26221093990E+04  0.25500000000E-02 0. -1.
    8880023    1    1    2    0    0 -0.29231727558E+03  0.25498371390E+03 -0.23003388652E+04  0.24240122081E+04  0.65864270000E+03 0. -1.
    8880022    1    1    2    0    0  0.29231727558E+03 -0.25498371390E+03 -0.92720426371E+02  0.42714729829E+03  0.15294330000E+03 0.  0.
<mgrwt>
<rscale>  0 0.65691035E+03</rscale>
<asrwt>0</asrwt>
<pdfrwt beam="1">  1        2 0.40340142E+00 0.76437968E+03</pdfrwt>
<pdfrwt beam="2">  1       -2 0.35238480E-01 0.76437968E+03</pdfrwt>
<totfact> 0.23351657E+01</totfact>
</mgrwt>
</event>
<event>
 4    2  0.3171963E-007  0.7624974E+03  0.7818608E-02  0.9798684E-01
         -2   -1    0    0    0  501 -0.00000000000E+00  0.00000000000E+00  0.72402361927E+03  0.72402361928E+03  0.25500000000E-02 0.  1.
          2   -1    0    0  501    0  0.00000000000E+00 -0.00000000000E+00 -0.66574230585E+03  0.66574230586E+03  0.25500000000E-02 0. -1.
    8880023    1    1    2    0    0 -0.38416577005E+03 -0.29506439330E+01 -0.32226808226E+03  0.82780370154E+03  0.65864270000E+03 0. -1.
    8880022    1    1    2    0    0  0.38416577005E+03  0.29506439330E+01  0.38054939568E+03  0.56196222359E+03  0.15294330000E+03 0.  0.
<mgrwt>
<rscale>  0 0.65433192E+03</rscale>
<asrwt>0</asrwt>
<pdfrwt beam="1">  1        2 0.10242189E+00 0.76249738E+03</pdfrwt>
<pdfrwt beam="2">  1       -2 0.11138825E+00 0.76249738E+03</pdfrwt>
<totfact> 0.28154166E+01</totfact>
</mgrwt>
</event>
<event>
 4    2  0.3171963E-007  0.6963009E+03  0.7818608E-02  0.1001291E+00
          2   -1    0    0  501    0  0.00000000000E+00  0.00000000000E+00  0.95305609866E+03  0.95305609866E+03  0.25500000000E-02 0. -1.
         -2   -1    0    0    0  501 -0.00000000000E+00 -0.00000000000E+00 -0.25522557273E+03  0.25522557274E+03  0.25500000000E-02 0.  1.
    8880023    1    1    2    0    0 -0.24471877671E+02 -0.22455712156E+03  0.59783794996E+03  0.91773917554E+03  0.65864270000E+03 0. -1.
    8880022    1    1    2    0    0  0.24471877671E+02  0.22455712156E+03  0.99992575966E+02  0.29054249586E+03  0.15294330000E+03 0.  1.
<mgrwt>
<rscale>  0 0.55087914E+03</rscale>
<asrwt>0</asrwt>
<pdfrwt beam="1">  1        2 0.14662402E+00 0.69630093E+03</pdfrwt>
<pdfrwt beam="2">  1       -2 0.39265473E-01 0.69630093E+03</pdfrwt>
<totfact> 0.16810403E+02</totfact>
</mgrwt>
</event>
<event>
 4    2  0.3171963E-007  0.1000143E+04  0.7818608E-02  0.9381371E-01
         -2   -1    0    0    0  501 -0.00000000000E+00  0.00000000000E+00  0.56726196808E+03  0.56726196808E+03  0.25500000000E-02 0.  1.
          2   -1    0    0  501    0  0.00000000000E+00 -0.00000000000E+00 -0.29983984964E+04  0.29983984964E+04  0.25500000000E-02 0. -1.
    8880023    1    1    2    0    0  0.74913646230E+03 -0.72592020117E+02 -0.25943724744E+04  0.27804772581E+04  0.65864270000E+03 0.  0.
    8880022    1    1    2    0    0 -0.74913646230E+03  0.72592020117E+02  0.16323594606E+03  0.78518320641E+03  0.15294330000E+03 0.  0.
<mgrwt>
<rscale>  0 0.93624753E+03</rscale>
<asrwt>0</asrwt>
<pdfrwt beam="1">  1        2 0.46129207E+00 0.10001426E+04</pdfrwt>
<pdfrwt beam="2">  1       -2 0.87271074E-01 0.10001426E+04</pdfrwt>
<totfact> 0.20204549E+00</totfact>
</mgrwt>
</event>
<event>
 4    2  0.3171963E-007  0.7411022E+03  0.7818608E-02  0.9856748E-01
         -2   -1    0    0    0  501 -0.00000000000E+00  0.00000000000E+00  0.61788904742E+03  0.61788904743E+03  0.25500000000E-02 0.  1.
          2   -1    0    0  501    0  0.00000000000E+00 -0.00000000000E+00 -0.53793362470E+03  0.53793362471E+03  0.25500000000E-02 0. -1.
    8880023    1    1    2    0    0  0.31213613065E+03 -0.13413936280E+03 -0.89560836296E+02  0.74649426145E+03  0.65864270000E+03 0. -1.
    8880022    1    1    2    0    0 -0.31213613065E+03  0.13413936280E+03  0.16951625902E+03  0.40932841069E+03  0.15294330000E+03 0.  1.
<mgrwt>
<rscale>  0 0.62404046E+03</rscale>
<asrwt>0</asrwt>
<pdfrwt beam="1">  1        2 0.82759019E-01 0.74110225E+03</pdfrwt>
<pdfrwt beam="2">  1       -2 0.95059854E-01 0.74110225E+03</pdfrwt>
<totfact> 0.53253002E+01</totfact>
</mgrwt>
</event>
<event>
 4    2  0.3171963E-007  0.9562844E+03  0.7818608E-02  0.9441129E-01
         -2   -1    0    0    0  501 -0.00000000000E+00  0.00000000000E+00  0.14524615507E+03  0.14524615509E+03  0.25500000000E-02 0.  1.
          2   -1    0    0  501    0  0.00000000000E+00 -0.00000000000E+00 -0.50555574948E+04  0.50555574948E+04  0.25500000000E-02 0. -1.
    8880023    1    1    2    0    0  0.61521155015E+03 -0.31966300439E+03 -0.34003170182E+04  0.35322281521E+04  0.65864270000E+03 0.  0.
    8880022    1    1    2    0    0 -0.61521155015E+03  0.31966300439E+03 -0.15099943215E+04  0.16685754978E+04  0.15294330000E+03 0.  0.
<mgrwt>
<rscale>  0 0.88766835E+03</rscale>
<asrwt>0</asrwt>
<pdfrwt beam="1">  1        2 0.77777794E+00 0.95628442E+03</pdfrwt>
<pdfrwt beam="2">  1       -2 0.22345566E-01 0.95628442E+03</pdfrwt>
<totfact> 0.57147591E-01</totfact>
</mgrwt>
</event>
<event>
 4    2  0.3171963E-007  0.1136762E+04  0.7818608E-02  0.9221189E-01
          2   -1    0    0  501    0  0.00000000000E+00  0.00000000000E+00  0.62869203447E+03  0.62869203448E+03  0.25500000000E-02 0. -1.
         -2   -1    0    0    0  501 -0.00000000000E+00 -0.00000000000E+00 -0.17722297503E+04  0.17722297503E+04  0.25500000000E-02 0.  1.
    8880023    1    1    2    0    0 -0.64529062397E+03 -0.66484449126E+03 -0.40679861292E+03  0.12073580681E+04  0.65864270000E+03 0. -1.
    8880022    1    1    2    0    0  0.64529062397E+03  0.66484449126E+03 -0.73673910291E+03  0.11935637167E+04  0.15294330000E+03 0.  1.
<mgrwt>
<rscale>  0 0.10837375E+04</rscale>
<asrwt>0</asrwt>
<pdfrwt beam="1">  1        2 0.96721852E-01 0.11367622E+04</pdfrwt>
<pdfrwt beam="2">  1       -2 0.27265073E+00 0.11367622E+04</pdfrwt>
<totfact> 0.21595306E+00</totfact>
</mgrwt>
</event>
<event>
 4    2  0.3171963E-007  0.7719695E+03  0.7818608E-02  0.9775050E-01
         -2   -1    0    0    0  501 -0.00000000000E+00  0.00000000000E+00  0.40329696150E+03  0.40329696151E+03  0.25500000000E-02 0.  1.
          2   -1    0    0  501    0  0.00000000000E+00 -0.00000000000E+00 -0.14560024576E+04  0.14560024576E+04  0.25500000000E-02 0. -1.
    8880023    1    1    2    0    0  0.34293980052E+03  0.21099528459E+03 -0.11800717578E+04  0.14101440624E+04  0.65864270000E+03 0.  0.
    8880022    1    1    2    0    0 -0.34293980052E+03 -0.21099528459E+03  0.12736626163E+03  0.44915535677E+03  0.15294330000E+03 0.  0.
<mgrwt>
<rscale>  0 0.66718838E+03</rscale>
<asrwt>0</asrwt>
<pdfrwt beam="1">  1        2 0.22400038E+00 0.77196951E+03</pdfrwt>
<pdfrwt beam="2">  1       -2 0.62045687E-01 0.77196951E+03</pdfrwt>
<totfact> 0.33069858E+01</totfact>
</mgrwt>
</event>
<event>
 4    2  0.3171963E-007  0.7977194E+03  0.7818608E-02  0.9715749E-01
          2   -1    0    0  501    0  0.00000000000E+00  0.00000000000E+00  0.57172176027E+03  0.57172176027E+03  0.25500000000E-02 0. -1.
         -2   -1    0    0    0  501 -0.00000000000E+00 -0.00000000000E+00 -0.79769260753E+03  0.79769260754E+03  0.25500000000E-02 0.  1.
    8880023    1    1    2    0    0 -0.44195303509E+03 -0.84991481930E+02  0.83718460478E+02  0.80210038281E+03  0.65864270000E+03 0. -1.
    8880022    1    1    2    0    0  0.44195303509E+03  0.84991481930E+02 -0.30968930775E+03  0.56731398499E+03  0.15294330000E+03 0.  0.
<mgrwt>
<rscale>  0 0.70086795E+03</rscale>
<asrwt>0</asrwt>
<pdfrwt beam="1">  1        2 0.87957194E-01 0.79771940E+03</pdfrwt>
<pdfrwt beam="2">  1       -2 0.12272194E+00 0.79771940E+03</pdfrwt>
<totfact> 0.26629899E+01</totfact>
</mgrwt>
</event>
<event>
 4    2  0.3171963E-007  0.6763002E+03  0.7818608E-02  0.1011499E+00
         -2   -1    0    0    0  501 -0.00000000000E+00  0.00000000000E+00  0.28201373750E+03  0.28201373751E+03  0.25500000000E-02 0.  1.
          2   -1    0    0  501    0  0.00000000000E+00 -0.00000000000E+00 -0.16785072629E+04  0.16785072629E+04  0.25500000000E-02 0. -1.
    8880023    1    1    2    0    0  0.14940314108E+03  0.35361718694E+02 -0.15525582956E+04  0.16934636746E+04  0.65864270000E+03 0. -1.
    8880022    1    1    2    0    0 -0.14940314108E+03 -0.35361718694E+02  0.15606477025E+03  0.26705732576E+03  0.15294330000E+03 0.  0.
<mgrwt>
<rscale>  0 0.50883219E+03</rscale>
<asrwt>0</asrwt>
<pdfrwt beam="1">  1        2 0.25823188E+00 0.67630020E+03</pdfrwt>
<pdfrwt beam="2">  1       -2 0.43386730E-01 0.67630020E+03</pdfrwt>
<totfact> 0.52455115E+01</totfact>
</mgrwt>
</event>
<event>
 4    2  0.3171963E-007  0.7208225E+03  0.7818608E-02  0.9919813E-01
          2   -1    0    0  501    0  0.00000000000E+00  0.00000000000E+00  0.12927838513E+04  0.12927838513E+04  0.25500000000E-02 0. -1.
         -2   -1    0    0    0  501 -0.00000000000E+00 -0.00000000000E+00 -0.22599172606E+03  0.22599172607E+03  0.25500000000E-02 0.  1.
    8880023    1    1    2    0    0  0.18497256878E+03 -0.22706841691E+03  0.88586476617E+03  0.11420777151E+04  0.65864270000E+03 0. -1.
    8880022    1    1    2    0    0 -0.18497256878E+03  0.22706841691E+03  0.18092735908E+03  0.37669786227E+03  0.15294330000E+03 0.  1.
<mgrwt>
<rscale>  0 0.59310621E+03</rscale>
<asrwt>0</asrwt>
<pdfrwt beam="1">  1        2 0.19888982E+00 0.72082253E+03</pdfrwt>
<pdfrwt beam="2">  1       -2 0.34767958E-01 0.72082253E+03</pdfrwt>
<totfact> 0.13169205E+02</totfact>
</mgrwt>
</event>
<event>
 4    2  0.3171963E-007  0.7806131E+03  0.7818608E-02  0.9754399E-01
         -2   -1    0    0    0  501 -0.00000000000E+00  0.00000000000E+00  0.27066981245E+03  0.27066981246E+03  0.25500000000E-02 0.  1.
          2   -1    0    0  501    0  0.00000000000E+00 -0.00000000000E+00 -0.19937420885E+04  0.19937420885E+04  0.25500000000E-02 0. -1.
    8880023    1    1    2    0    0 -0.98804461180E+02 -0.40716610273E+03 -0.16321441557E+04  0.18092128974E+04  0.65864270000E+03 0. -1.
    8880022    1    1    2    0    0  0.98804461180E+02  0.40716610273E+03 -0.90928120305E+02  0.45519900355E+03  0.15294330000E+03 0.  0.
<mgrwt>
<rscale>  0 0.67868248E+03</rscale>
<asrwt>0</asrwt>
<pdfrwt beam="1">  1        2 0.30672954E+00 0.78061307E+03</pdfrwt>
<pdfrwt beam="2">  1       -2 0.41641511E-01 0.78061307E+03</pdfrwt>
<totfact> 0.37811769E+01</totfact>
</mgrwt>
</event>
<event>
 4    2  0.3171963E-007  0.7465883E+03  0.7818608E-02  0.9841155E-01
          2   -1    0    0  501    0  0.00000000000E+00  0.00000000000E+00  0.68809681188E+03  0.68809681188E+03  0.25500000000E-02 0. -1.
         -2   -1    0    0    0  501 -0.00000000000E+00 -0.00000000000E+00 -0.48856873718E+03  0.48856873718E+03  0.25500000000E-02 0.  1.
    8880023    1    1    2    0    0 -0.25687659250E+03  0.23999647709E+03  0.46474778588E+01  0.74660277129E+03  0.65864270000E+03 0.  1.
    8880022    1    1    2    0    0  0.25687659250E+03 -0.23999647709E+03  0.19488059684E+03  0.43006277778E+03  0.15294330000E+03 0. -1.
<mgrwt>
<rscale>  0 0.63199919E+03</rscale>
<asrwt>0</asrwt>
<pdfrwt beam="1">  1        2 0.10586105E+00 0.74658831E+03</pdfrwt>
<pdfrwt beam="2">  1       -2 0.75164422E-01 0.74658831E+03</pdfrwt>
<totfact> 0.67384648E+01</totfact>
</mgrwt>
</event>
<event>
 4    2  0.3171963E-007  0.8901794E+03  0.7818608E-02  0.9541984E-01
          2   -1    0    0  501    0  0.00000000000E+00  0.00000000000E+00  0.33806827400E+04  0.33806827400E+04  0.25500000000E-02 0. -1.
         -2   -1    0    0    0  501 -0.00000000000E+00 -0.00000000000E+00 -0.35625733415E+03  0.35625733416E+03  0.25500000000E-02 0.  1.
    8880023    1    1    2    0    0  0.45945205610E+03  0.38407422729E+03  0.29880262944E+04  0.31178070091E+04  0.65864270000E+03 0.  0.
    8880022    1    1    2    0    0 -0.45945205610E+03 -0.38407422729E+03  0.36399111492E+02  0.61913306507E+03  0.15294330000E+03 0.  0.
<mgrwt>
<rscale>  0 0.81258015E+03</rscale>
<asrwt>0</asrwt>
<pdfrwt beam="1">  1        2 0.52010501E+00 0.89017943E+03</pdfrwt>
<pdfrwt beam="2">  1       -2 0.54808823E-01 0.89017943E+03</pdfrwt>
<totfact> 0.32384726E+00</totfact>
</mgrwt>
</event>
<event>
 4    2  0.3378051E-007  0.6947675E+03  0.7818608E-02  0.1001964E+00
         -2   -1    0    0    0  501 -0.00000000000E+00  0.00000000000E+00  0.18243493770E+04  0.18243493770E+04  0.25500000000E-02 0.  1.
          2   -1    0    0  501    0  0.00000000000E+00 -0.00000000000E+00 -0.99426322521E+03  0.99426322521E+03  0.25500000000E-02 0. -1.
    8880023    1    1    2    0    0  0.41819183862E+02  0.21712413523E+03 -0.86096162362E+03  0.11063258371E+04  0.65864270000E+03 0. -1.
    8880022    1    1    2    0    0 -0.41819183862E+02 -0.21712413523E+03  0.16910477754E+04  0.17122867651E+04  0.15294330000E+03 0.  0.
<mgrwt>
<rscale>  0 0.54797337E+03</rscale>
<asrwt>0</asrwt>
<pdfrwt beam="1">  1        2 0.15296358E+00 0.69476754E+03</pdfrwt>
<pdfrwt beam="2">  1       -2 0.28066913E+00 0.69476754E+03</pdfrwt>
<totfact> 0.11154646E+00</totfact>
</mgrwt>
</event>
<event>
 4    2  0.3171963E-007  0.6599006E+03  0.7818608E-02  0.1024258E+00
         -2   -1    0    0    0  501 -0.00000000000E+00  0.00000000000E+00  0.39456707678E+03  0.39456707679E+03  0.25500000000E-02 0.  1.
          2   -1    0    0  501    0  0.00000000000E+00 -0.00000000000E+00 -0.65006183596E+03  0.65006183597E+03  0.25500000000E-02 0. -1.
    8880023    1    1    2    0    0 -0.31141855574E+02  0.26245778024E+02 -0.44635485674E+03  0.79668156777E+03  0.65864270000E+03 0. -1.
    8880022    1    1    2    0    0  0.31141855574E+02 -0.26245778024E+02  0.19086009755E+03  0.24794734498E+03  0.15294330000E+03 0.  0.
<mgrwt>
<rscale>  0 0.46180704E+03</rscale>
<asrwt>0</asrwt>
<pdfrwt beam="1">  1        2 0.10000951E+00 0.65990065E+03</pdfrwt>
<pdfrwt beam="2">  1       -2 0.60702627E-01 0.65990065E+03</pdfrwt>
<totfact> 0.11551267E+02</totfact>
</mgrwt>
</event>
<event>
 4    2  0.3171963E-007  0.8449116E+03  0.7818608E-02  0.9620988E-01
         -2   -1    0    0    0  501 -0.00000000000E+00  0.00000000000E+00  0.54481010155E+03  0.54481010156E+03  0.25500000000E-02 0.  1.
          2   -1    0    0  501    0  0.00000000000E+00 -0.00000000000E+00 -0.11378323190E+04  0.11378323190E+04  0.25500000000E-02 0. -1.
    8880023    1    1    2    0    0 -0.22594924051E+03 -0.47855231244E+03 -0.72821660182E+03  0.11154259278E+04  0.65864270000E+03 0. -1.
    8880022    1    1    2    0    0  0.22594924051E+03  0.47855231244E+03  0.13519438438E+03  0.56721649272E+03  0.15294330000E+03 0.  0.
<mgrwt>
<rscale>  0 0.75922517E+03</rscale>
<asrwt>0</asrwt>
<pdfrwt beam="1">  1        2 0.17505113E+00 0.84491158E+03</pdfrwt>
<pdfrwt beam="2">  1       -2 0.83816939E-01 0.84491158E+03</pdfrwt>
<totfact> 0.25909103E+01</totfact>
</mgrwt>
</event>
<event>
 4    2  0.1040912E-006  0.7807685E+03  0.7818608E-02  0.9754035E-01
          2   -1    0    0  501    0  0.00000000000E+00  0.00000000000E+00  0.30223428720E+04  0.30223428720E+04  0.25500000000E-02 0. -1.
         -2   -1    0    0    0  501 -0.00000000000E+00 -0.00000000000E+00 -0.12088769940E+04  0.12088769940E+04  0.25500000000E-02 0.  1.
    8880023    1    1    2    0    0 -0.14429127227E+03  0.39366142074E+03  0.29281792070E+04  0.30304839481E+04  0.65864270000E+03 0.  0.
    8880022    1    1    2    0    0  0.14429127227E+03 -0.39366142074E+03 -0.11147133291E+04  0.12007359179E+04  0.15294330000E+03 0.  0.
<mgrwt>
<rscale>  0 0.67888732E+03</rscale>
<asrwt>0</asrwt>
<pdfrwt beam="1">  1        2 0.46497582E+00 0.78076853E+03</pdfrwt>
<pdfrwt beam="2">  1       -2 0.18598108E+00 0.78076853E+03</pdfrwt>
<totfact> 0.29661838E-01</totfact>
</mgrwt>
</event>
<event>
 4    2  0.3171963E-007  0.7584670E+03  0.7818608E-02  0.9809093E-01
          2   -1    0    0  501    0  0.00000000000E+00  0.00000000000E+00  0.11026656994E+04  0.11026656994E+04  0.25500000000E-02 0. -1.
         -2   -1    0    0    0  501 -0.00000000000E+00 -0.00000000000E+00 -0.77815871242E+03  0.77815871242E+03  0.25500000000E-02 0.  1.
    8880023    1    1    2    0    0 -0.23640595421E+03  0.29253066134E+03  0.89971128286E+03  0.11767550985E+04  0.65864270000E+03 0.  1.
    8880022    1    1    2    0    0  0.23640595421E+03 -0.29253066134E+03 -0.57520429587E+03  0.70406931336E+03  0.15294330000E+03 0.  0.
<mgrwt>
<rscale>  0 0.64876860E+03</rscale>
<asrwt>0</asrwt>
<pdfrwt beam="1">  1        2 0.16964088E+00 0.75846699E+03</pdfrwt>
<pdfrwt beam="2">  1       -2 0.11971673E+00 0.75846699E+03</pdfrwt>
<totfact> 0.11793264E+01</totfact>
</mgrwt>
</event>
<event>
 4    2  0.3171963E-007  0.6869174E+03  0.7818608E-02  0.1005653E+00
         -2   -1    0    0    0  501 -0.00000000000E+00  0.00000000000E+00  0.45737834253E+03  0.45737834254E+03  0.25500000000E-02 0.  1.
          2   -1    0    0  501    0  0.00000000000E+00 -0.00000000000E+00 -0.18831909769E+04  0.18831909769E+04  0.25500000000E-02 0. -1.
    8880023    1    1    2    0    0 -0.18446727914E+03 -0.63380943513E+02 -0.17801833030E+04  0.19081163800E+04  0.65864270000E+03 0. -1.
    8880022    1    1    2    0    0  0.18446727914E+03  0.63380943513E+02  0.35437066861E+03  0.43245293947E+03  0.15294330000E+03 0.  0.
<mgrwt>
<rscale>  0 0.53239273E+03</rscale>
<asrwt>0</asrwt>
<pdfrwt beam="1">  1        2 0.28972168E+00 0.68691741E+03</pdfrwt>
<pdfrwt beam="2">  1       -2 0.70365900E-01 0.68691741E+03</pdfrwt>
<totfact> 0.14854170E+01</totfact>
</mgrwt>
</event>
<event>
 4    2  0.3171963E-007  0.6745574E+03  0.7818608E-02  0.1012587E+00
          2   -1    0    0  501    0  0.00000000000E+00  0.00000000000E+00  0.11255953183E+04  0.11255953183E+04  0.25500000000E-02 0. -1.
         -2   -1    0    0    0  501 -0.00000000000E+00 -0.00000000000E+00 -0.48616859549E+03  0.48616859550E+03  0.25500000000E-02 0.  1.
    8880023    1    1    2    0    0 -0.21736564238E+02  0.14403126970E+03  0.99268081682E+03  0.12001845255E+04  0.65864270000E+03 0. -1.
    8880022    1    1    2    0    0  0.21736564238E+02 -0.14403126970E+03 -0.35325409405E+03  0.41157938827E+03  0.15294330000E+03 0.  0.
<mgrwt>
<rscale>  0 0.50459409E+03</rscale>
<asrwt>0</asrwt>
<pdfrwt beam="1">  1        2 0.17316851E+00 0.67455740E+03</pdfrwt>
<pdfrwt beam="2">  1       -2 0.74795169E-01 0.67455740E+03</pdfrwt>
<totfact> 0.34615563E+01</totfact>
</mgrwt>
</event>
<event>
 4    2  0.3171963E-007  0.8559118E+03  0.7818608E-02  0.9600877E-01
          2   -1    0    0  501    0  0.00000000000E+00  0.00000000000E+00  0.26333904524E+04  0.26333904524E+04  0.25500000000E-02 0. -1.
         -2   -1    0    0    0  501 -0.00000000000E+00 -0.00000000000E+00 -0.42812678109E+03  0.42812678110E+03  0.25500000000E-02 0.  1.
    8880023    1    1    2    0    0  0.40432375588E+03  0.36782753659E+03  0.23283868396E+04  0.24807197096E+04  0.65864270000E+03 0.  0.
    8880022    1    1    2    0    0 -0.40432375588E+03 -0.36782753659E+03 -0.12312316829E+03  0.58079752395E+03  0.15294330000E+03 0.  0.
<mgrwt>
<rscale>  0 0.77238138E+03</rscale>
<asrwt>0</asrwt>
<pdfrwt beam="1">  1        2 0.40513700E+00 0.85591180E+03</pdfrwt>
<pdfrwt beam="2">  1       -2 0.65865658E-01 0.85591180E+03</pdfrwt>
<totfact> 0.63875891E+00</totfact>
</mgrwt>
</event>
<event>
 4    2  0.3171963E-007  0.7929029E+03  0.7818608E-02  0.9726357E-01
          2   -1    0    0  501    0  0.00000000000E+00  0.00000000000E+00  0.18186823947E+04  0.18186823947E+04  0.25500000000E-02 0. -1.
         -2   -1    0    0    0  501 -0.00000000000E+00 -0.00000000000E+00 -0.41862156540E+03  0.41862156541E+03  0.25500000000E-02 0.  1.
    8880023    1    1    2    0    0  0.29533793293E+03  0.32811637389E+03  0.15546649715E+04  0.17451871617E+04  0.65864270000E+03 0. -1.
    8880022    1    1    2    0    0 -0.29533793293E+03 -0.32811637389E+03 -0.15460414224E+03  0.49211679839E+03  0.15294330000E+03 0.  0.
<mgrwt>
<rscale>  0 0.69468975E+03</rscale>
<asrwt>0</asrwt>
<pdfrwt beam="1">  1        2 0.27979729E+00 0.79290293E+03</pdfrwt>
<pdfrwt beam="2">  1       -2 0.64403318E-01 0.79290293E+03</pdfrwt>
<totfact> 0.19221988E+01</totfact>
</mgrwt>
</event>
<event>
 4    2  0.3171963E-007  0.7112454E+03  0.7818608E-02  0.9953405E-01
         -2   -1    0    0    0  501 -0.00000000000E+00  0.00000000000E+00  0.11426084424E+04  0.11426084424E+04  0.25500000000E-02 0.  1.
          2   -1    0    0  501    0  0.00000000000E+00 -0.00000000000E+00 -0.60657230084E+03  0.60657230085E+03  0.25500000000E-02 0. -1.
    8880023    1    1    2    0    0 -0.15401993229E+03 -0.21985836503E+03 -0.36301224094E+03  0.79852860534E+03  0.65864270000E+03 0. -1.
    8880022    1    1    2    0    0  0.15401993229E+03  0.21985836503E+03  0.89904838246E+03  0.95065213787E+03  0.15294330000E+03 0.  0.
<mgrwt>
<rscale>  0 0.57741419E+03</rscale>
<asrwt>0</asrwt>
<pdfrwt beam="1">  1        2 0.93318817E-01 0.71124542E+03</pdfrwt>
<pdfrwt beam="2">  1       -2 0.17578591E+00 0.71124542E+03</pdfrwt>
<totfact> 0.96974049E+00</totfact>
</mgrwt>
</event>
<event>
 4    2  0.3171963E-007  0.1749172E+04  0.7818608E-02  0.8751186E-01
         -2   -1    0    0    0  501 -0.00000000000E+00  0.00000000000E+00  0.24808642113E+04  0.24808642113E+04  0.25500000000E-02 0.  1.
          2   -1    0    0  501    0  0.00000000000E+00 -0.00000000000E+00 -0.21407885732E+04  0.21407885732E+04  0.25500000000E-02 0. -1.
    8880023    1    1    2    0    0 -0.14442707665E+04  0.73476187588E+03  0.17455754976E+04  0.24711610804E+04  0.65864270000E+03 0.  0.
    8880022    1    1    2    0    0  0.14442707665E+04 -0.73476187588E+03 -0.14054998595E+04  0.21504917041E+04  0.15294330000E+03 0.  0.
<mgrwt>
<rscale>  0 0.17179616E+04</rscale>
<asrwt>0</asrwt>
<pdfrwt beam="1">  1        2 0.32935209E+00 0.17491722E+04</pdfrwt>
<pdfrwt beam="2">  1       -2 0.38167142E+00 0.17491722E+04</pdfrwt>
<totfact> 0.49558801E-02</totfact>
</mgrwt>
</event>
<event>
 4    2  0.3171963E-007  0.1005187E+04  0.7818608E-02  0.9374802E-01
         -2   -1    0    0    0  501 -0.00000000000E+00  0.00000000000E+00  0.43620443786E+03  0.43620443786E+03  0.25500000000E-02 0.  1.
          2   -1    0    0  501    0  0.00000000000E+00 -0.00000000000E+00 -0.25088629618E+04  0.25088629618E+04  0.25500000000E-02 0. -1.
    8880023    1    1    2    0    0  0.72190381540E+03 -0.23547009138E+03 -0.19029328495E+04  0.21521047648E+04  0.65864270000E+03 0. -1.
    8880022    1    1    2    0    0 -0.72190381540E+03  0.23547009138E+03 -0.16972567435E+03  0.79296263479E+03  0.15294330000E+03 0.  0.
<mgrwt>
<rscale>  0 0.94178681E+03</rscale>
<asrwt>0</asrwt>
<pdfrwt beam="1">  1        2 0.38597891E+00 0.10051873E+04</pdfrwt>
<pdfrwt beam="2">  1       -2 0.67108376E-01 0.10051873E+04</pdfrwt>
<totfact> 0.70856761E+00</totfact>
</mgrwt>
</event>
<event>
 4    2  0.3171963E-007  0.8647094E+03  0.7818608E-02  0.9585241E-01
          2   -1    0    0  501    0  0.00000000000E+00  0.00000000000E+00  0.15914255565E+04  0.15914255565E+04  0.25500000000E-02 0. -1.
         -2   -1    0    0    0  501 -0.00000000000E+00 -0.00000000000E+00 -0.49749989756E+03  0.49749989756E+03  0.25500000000E-02 0.  1.
    8880023    1    1    2    0    0 -0.96283613383E+02 -0.55194341161E+03  0.12192733554E+04  0.14947741586E+04  0.65864270000E+03 0.  0.
    8880022    1    1    2    0    0  0.96283613383E+02  0.55194341161E+03 -0.12534769647E+03  0.59415129542E+03  0.15294330000E+03 0.  0.
<mgrwt>
<rscale>  0 0.78280801E+03</rscale>
<asrwt>0</asrwt>
<pdfrwt beam="1">  1        2 0.24483470E+00 0.86470936E+03</pdfrwt>
<pdfrwt beam="2">  1       -2 0.76538446E-01 0.86470936E+03</pdfrwt>
<totfact> 0.17415826E+01</totfact>
</mgrwt>
</event>
<event>
 4    2  0.3171963E-007  0.6936869E+03  0.7818608E-02  0.1002447E+00
         -2   -1    0    0    0  501 -0.00000000000E+00  0.00000000000E+00  0.34986240951E+03  0.34986240951E+03  0.25500000000E-02 0.  1.
          2   -1    0    0  501    0  0.00000000000E+00 -0.00000000000E+00 -0.18884754696E+04  0.18884754696E+04  0.25500000000E-02 0. -1.
    8880023    1    1    2    0    0  0.17888892038E+03  0.12405667176E+03 -0.17602875284E+04  0.18920395589E+04  0.65864270000E+03 0. -1.
    8880022    1    1    2    0    0 -0.17888892038E+03 -0.12405667176E+03  0.22167446832E+03  0.34629832018E+03  0.15294330000E+03 0.  0.
<mgrwt>
<rscale>  0 0.54590077E+03</rscale>
<asrwt>0</asrwt>
<pdfrwt beam="1">  1        2 0.29053468E+00 0.69368690E+03</pdfrwt>
<pdfrwt beam="2">  1       -2 0.53824987E-01 0.69368690E+03</pdfrwt>
<totfact> 0.26028300E+01</totfact>
</mgrwt>
</event>
<event>
 4    2  0.3171963E-007  0.7974549E+03  0.7818608E-02  0.9716326E-01
         -2   -1    0    0    0  501 -0.00000000000E+00  0.00000000000E+00  0.25491068034E+03  0.25491068035E+03  0.25500000000E-02 0.  1.
          2   -1    0    0  501    0  0.00000000000E+00 -0.00000000000E+00 -0.23364794143E+04  0.23364794143E+04  0.25500000000E-02 0. -1.
    8880023    1    1    2    0    0 -0.78139005415E+02 -0.44273969071E+03 -0.19374020476E+04  0.20951040638E+04  0.65864270000E+03 0. -1.
    8880022    1    1    2    0    0  0.78139005415E+02  0.44273969071E+03 -0.14416668631E+03  0.49628603079E+03  0.15294330000E+03 0.  0.
<mgrwt>
<rscale>  0 0.70052998E+03</rscale>
<asrwt>0</asrwt>
<pdfrwt beam="1">  1        2 0.35945836E+00 0.79745492E+03</pdfrwt>
<pdfrwt beam="2">  1       -2 0.39217029E-01 0.79745492E+03</pdfrwt>
<totfact> 0.27458088E+01</totfact>
</mgrwt>
</event>
<event>
 4    2  0.3171963E-007  0.7534120E+03  0.7818608E-02  0.9822472E-01
          2   -1    0    0  501    0  0.00000000000E+00  0.00000000000E+00  0.12778666680E+04  0.12778666680E+04  0.25500000000E-02 0. -1.
         -2   -1    0    0    0  501 -0.00000000000E+00 -0.00000000000E+00 -0.66909522625E+03  0.66909522625E+03  0.25500000000E-02 0.  1.
    8880023    1    1    2    0    0  0.30779322188E+03  0.19769352235E+03  0.10889902829E+04  0.13242089861E+04  0.65864270000E+03 0. -1.
    8880022    1    1    2    0    0 -0.30779322188E+03 -0.19769352235E+03 -0.48021884118E+03  0.62275290818E+03  0.15294330000E+03 0.  0.
<mgrwt>
<rscale>  0 0.64170404E+03</rscale>
<asrwt>0</asrwt>
<pdfrwt beam="1">  1        2 0.19659487E+00 0.75341197E+03</pdfrwt>
<pdfrwt beam="2">  1       -2 0.10293773E+00 0.75341197E+03</pdfrwt>
<totfact> 0.13395355E+01</totfact>
</mgrwt>
</event>
<event>
 4    2  0.3171963E-007  0.7331398E+03  0.7818608E-02  0.9880400E-01
          2   -1    0    0  501    0  0.00000000000E+00  0.00000000000E+00  0.25814100524E+04  0.25814100524E+04  0.25500000000E-02 0. -1.
         -2   -1    0    0    0  501 -0.00000000000E+00 -0.00000000000E+00 -0.26707094434E+03  0.26707094435E+03  0.25500000000E-02 0.  1.
    8880023    1    1    2    0    0 -0.17471782857E+03 -0.27047639528E+03  0.23761538467E+04  0.24866847628E+04  0.65864270000E+03 0.  0.
    8880022    1    1    2    0    0  0.17471782857E+03  0.27047639528E+03 -0.61814738582E+02  0.36179623401E+03  0.15294330000E+03 0.  1.
<mgrwt>
<rscale>  0 0.61220633E+03</rscale>
<asrwt>0</asrwt>
<pdfrwt beam="1">  1        2 0.39714002E+00 0.73313983E+03</pdfrwt>
<pdfrwt beam="2">  1       -2 0.41087836E-01 0.73313983E+03</pdfrwt>
<totfact> 0.18401769E+01</totfact>
</mgrwt>
</event>
<event>
 4    2  0.3171963E-007  0.7029767E+03  0.7818608E-02  0.9985070E-01
         -2   -1    0    0    0  501 -0.00000000000E+00  0.00000000000E+00  0.61559062318E+03  0.61559062319E+03  0.25500000000E-02 0.  1.
          2   -1    0    0  501    0  0.00000000000E+00 -0.00000000000E+00 -0.98247058459E+03  0.98247058460E+03  0.25500000000E-02 0. -1.
    8880023    1    1    2    0    0 -0.13129166959E+03 -0.20767399748E+03 -0.80767172074E+03  0.10707519818E+04  0.65864270000E+03 0.  0.
    8880022    1    1    2    0    0  0.13129166959E+03  0.20767399748E+03  0.44079175932E+03  0.52730922601E+03  0.15294330000E+03 0.  0.
<mgrwt>
<rscale>  0 0.56309768E+03</rscale>
<asrwt>0</asrwt>
<pdfrwt beam="1">  1        2 0.15114932E+00 0.70297667E+03</pdfrwt>
<pdfrwt beam="2">  1       -2 0.94706250E-01 0.70297667E+03</pdfrwt>
<totfact> 0.24782621E+01</totfact>
</mgrwt>
</event>
<event>
 4    2  0.3171963E-007  0.6931286E+03  0.7818608E-02  0.1002700E+00
          2   -1    0    0  501    0  0.00000000000E+00  0.00000000000E+00  0.18340872985E+04  0.18340872986E+04  0.25500000000E-02 0. -1.
         -2   -1    0    0    0  501 -0.00000000000E+00 -0.00000000000E+00 -0.40414722979E+03  0.40414722979E+03  0.25500000000E-02 0.  1.
    8880023    1    1    2    0    0 -0.21587434737E+03 -0.39084954662E+01  0.17147180689E+04  0.18495094680E+04  0.65864270000E+03 0. -1.
    8880022    1    1    2    0    0  0.21587434737E+03  0.39084954662E+01 -0.28477800011E+03  0.38872506036E+03  0.15294330000E+03 0.  0.
<mgrwt>
<rscale>  0 0.54482161E+03</rscale>
<asrwt>0</asrwt>
<pdfrwt beam="1">  1        2 0.28216727E+00 0.69312857E+03</pdfrwt>
<pdfrwt beam="2">  1       -2 0.62176498E-01 0.69312857E+03</pdfrwt>
<totfact> 0.20599818E+01</totfact>
</mgrwt>
</event>
<event>
 4    2  0.3171963E-007  0.6679472E+03  0.7818608E-02  0.1017179E+00
         -2   -1    0    0    0  501 -0.00000000000E+00  0.00000000000E+00  0.22844598040E+03  0.22844598042E+03  0.25500000000E-02 0.  1.
          2   -1    0    0  501    0  0.00000000000E+00 -0.00000000000E+00 -0.19742105424E+04  0.19742105424E+04  0.25500000000E-02 0. -1.
    8880023    1    1    2    0    0 -0.69483507202E+02 -0.86690906897E+02 -0.18637457544E+04  0.19798236574E+04  0.65864270000E+03 0. -1.
    8880022    1    1    2    0    0  0.69483507202E+02  0.86690906897E+02  0.11798119244E+03  0.22283286539E+03  0.15294330000E+03 0.  0.
<mgrwt>
<rscale>  0 0.48718422E+03</rscale>
<asrwt>0</asrwt>
<pdfrwt beam="1">  1        2 0.30372469E+00 0.66794721E+03</pdfrwt>
<pdfrwt beam="2">  1       -2 0.35145537E-01 0.66794721E+03</pdfrwt>
<totfact> 0.54558519E+01</totfact>
</mgrwt>
</event>
<event>
 4    2  0.3171963E-007  0.1435638E+04  0.7818608E-02  0.8956474E-01
          2   -1    0    0  501    0  0.00000000000E+00  0.00000000000E+00  0.30852638112E+04  0.30852638112E+04  0.25500000000E-02 0. -1.
         -2   -1    0    0    0  501 -0.00000000000E+00 -0.00000000000E+00 -0.89681430532E+03  0.89681430533E+03  0.25500000000E-02 0.  1.
    8880023    1    1    2    0    0  0.99492369781E+03  0.79835724131E+03  0.22796841429E+04  0.26940707947E+04  0.65864270000E+03 0.  0.
    8880022    1    1    2    0    0 -0.99492369781E+03 -0.79835724131E+03 -0.91234636964E+02  0.12880073219E+04  0.15294330000E+03 0.  0.
<mgrwt>
<rscale>  0 0.13963372E+04</rscale>
<asrwt>0</asrwt>
<pdfrwt beam="1">  1        2 0.47465596E+00 0.14356384E+04</pdfrwt>
<pdfrwt beam="2">  1       -2 0.13797144E+00 0.14356384E+04</pdfrwt>
<totfact> 0.54927133E-01</totfact>
</mgrwt>
</event>
<event>
 4    2  0.3171963E-007  0.8639107E+03  0.7818608E-02  0.9586645E-01
          2   -1    0    0  501    0  0.00000000000E+00  0.00000000000E+00  0.93678597375E+03  0.93678597375E+03  0.25500000000E-02 0. -1.
         -2   -1    0    0    0  501 -0.00000000000E+00 -0.00000000000E+00 -0.10334044207E+04  0.10334044207E+04  0.25500000000E-02 0.  1.
    8880023    1    1    2    0    0 -0.36905447729E+03  0.41991699357E+03  0.60904825787E+03  0.10570153619E+04  0.65864270000E+03 0. -1.
    8880022    1    1    2    0    0  0.36905447729E+03 -0.41991699357E+03 -0.70566670481E+03  0.91317503250E+03  0.15294330000E+03 0.  0.
<mgrwt>
<rscale>  0 0.78186474E+03</rscale>
<asrwt>0</asrwt>
<pdfrwt beam="1">  1        2 0.14412092E+00 0.86391070E+03</pdfrwt>
<pdfrwt beam="2">  1       -2 0.15898530E+00 0.86391070E+03</pdfrwt>
<totfact> 0.71348208E+00</totfact>
</mgrwt>
</event>
<event>
 4    2  0.3171963E-007  0.7350881E+03  0.7818608E-02  0.9874493E-01
         -2   -1    0    0    0  501 -0.00000000000E+00  0.00000000000E+00  0.20333599482E+04  0.20333599482E+04  0.25500000000E-02 0.  1.
          2   -1    0    0  501    0  0.00000000000E+00 -0.00000000000E+00 -0.20682554819E+03  0.20682554820E+03  0.25500000000E-02 0. -1.
    8880023    1    1    2    0    0 -0.19246481142E+03 -0.26363159612E+03  0.56209182734E+03  0.92536573890E+03  0.65864270000E+03 0. -1.
    8880022    1    1    2    0    0  0.19246481142E+03  0.26363159612E+03  0.12644425727E+04  0.13148197575E+04  0.15294330000E+03 0.  0.
<mgrwt>
<rscale>  0 0.61513541E+03</rscale>
<asrwt>0</asrwt>
<pdfrwt beam="1">  1        2 0.31819315E-01 0.73508811E+03</pdfrwt>
<pdfrwt beam="2">  1       -2 0.31282461E+00 0.73508811E+03</pdfrwt>
<totfact> 0.46083274E+00</totfact>
</mgrwt>
</event>
<event>
 4    2  0.3652538E-007  0.6786312E+03  0.7818608E-02  0.1010109E+00
         -2   -1    0    0    0  501 -0.00000000000E+00  0.00000000000E+00  0.14952555505E+04  0.14952555505E+04  0.25500000000E-02 0.  1.
          2   -1    0    0  501    0  0.00000000000E+00 -0.00000000000E+00 -0.13270060715E+04  0.13270060715E+04  0.25500000000E-02 0. -1.
    8880023    1    1    2    0    0  0.66361581152E+02 -0.14941946720E+03 -0.12307571730E+04  0.14054548950E+04  0.65864270000E+03 0. -1.
    8880022    1    1    2    0    0 -0.66361581152E+02  0.14941946720E+03  0.13990066520E+04  0.14168067271E+04  0.15294330000E+03 0.  0.
<mgrwt>
<rscale>  0 0.51431425E+03</rscale>
<asrwt>0</asrwt>
<pdfrwt beam="1">  1        2 0.20415478E+00 0.67863115E+03</pdfrwt>
<pdfrwt beam="2">  1       -2 0.23003931E+00 0.67863115E+03</pdfrwt>
<totfact> 0.14291243E+00</totfact>
</mgrwt>
</event>
<event>
 4    2  0.3171963E-007  0.7384873E+03  0.7818608E-02  0.9864375E-01
         -2   -1    0    0    0  501 -0.00000000000E+00  0.00000000000E+00  0.98367317150E+03  0.98367317151E+03  0.25500000000E-02 0.  1.
          2   -1    0    0  501    0  0.00000000000E+00 -0.00000000000E+00 -0.54132997176E+03  0.54132997177E+03  0.25500000000E-02 0. -1.
    8880023    1    1    2    0    0  0.28311179120E+03  0.17720343801E+03 -0.21745273430E+03  0.76983715335E+03  0.65864270000E+03 0. -1.
    8880022    1    1    2    0    0 -0.28311179120E+03 -0.17720343801E+03  0.65979593403E+03  0.75516598993E+03  0.15294330000E+03 0.  0.
<mgrwt>
<rscale>  0 0.62019304E+03</rscale>
<asrwt>0</asrwt>
<pdfrwt beam="1">  1        2 0.83281535E-01 0.73848734E+03</pdfrwt>
<pdfrwt beam="2">  1       -2 0.15133433E+00 0.73848734E+03</pdfrwt>
<totfact> 0.16665916E+01</totfact>
</mgrwt>
</event>
<event>
 4    2  0.3171963E-007  0.9763246E+03  0.7818608E-02  0.9413210E-01
         -2   -1    0    0    0  501 -0.00000000000E+00  0.00000000000E+00  0.19626085786E+04  0.19626085786E+04  0.25500000000E-02 0.  1.
          2   -1    0    0  501    0  0.00000000000E+00 -0.00000000000E+00 -0.53102540838E+03  0.53102540838E+03  0.25500000000E-02 0. -1.
    8880023    1    1    2    0    0  0.66388530622E+03 -0.28045640552E+03  0.11254636445E+03  0.98279010253E+03  0.65864270000E+03 0.  0.
    8880022    1    1    2    0    0 -0.66388530622E+03  0.28045640552E+03  0.13190368058E+04  0.15108438845E+04  0.15294330000E+03 0.  0.
<mgrwt>
<rscale>  0 0.90996516E+03</rscale>
<asrwt>0</asrwt>
<pdfrwt beam="1">  1        2 0.81696217E-01 0.97632459E+03</pdfrwt>
<pdfrwt beam="2">  1       -2 0.30193978E+00 0.97632459E+03</pdfrwt>
<totfact> 0.17923559E+00</totfact>
</mgrwt>
</event>
<event>
 4    2  0.3171963E-007  0.8493057E+03  0.7818608E-02  0.9612877E-01
          2   -1    0    0  501    0  0.00000000000E+00  0.00000000000E+00  0.26115411687E+04  0.26115411687E+04  0.25500000000E-02 0. -1.
         -2   -1    0    0    0  501 -0.00000000000E+00 -0.00000000000E+00 -0.20109416306E+03  0.20109416308E+03  0.25500000000E-02 0.  1.
    8880023    1    1    2    0    0 -0.53498919117E+03 -0.36006640472E+02  0.11096465672E+04  0.13973673902E+04  0.65864270000E+03 0.  0.
    8880022    1    1    2    0    0  0.53498919117E+03  0.36006640472E+02  0.13008004384E+04  0.14152679415E+04  0.15294330000E+03 0.  0.
<mgrwt>
<rscale>  0 0.76449717E+03</rscale>
<asrwt>0</asrwt>
<pdfrwt beam="1">  1        2 0.40177556E+00 0.84930567E+03</pdfrwt>
<pdfrwt beam="2">  1       -2 0.30937564E-01 0.84930567E+03</pdfrwt>
<totfact> 0.29923010E+01</totfact>
</mgrwt>
</event>
<event>
 4    2  0.3171963E-007  0.9715991E+03  0.7818608E-02  0.9419696E-01
         -2   -1    0    0    0  501 -0.00000000000E+00  0.00000000000E+00  0.89848690478E+03  0.89848690478E+03  0.25500000000E-02 0.  1.
          2   -1    0    0  501    0  0.00000000000E+00 -0.00000000000E+00 -0.21512453217E+04  0.21512453217E+04  0.25500000000E-02 0. -1.
    8880023    1    1    2    0    0  0.24743558799E+03  0.67005238758E+03  0.54162177321E+03  0.11123663622E+04  0.65864270000E+03 0.  1.
    8880022    1    1    2    0    0 -0.24743558799E+03 -0.67005238758E+03 -0.17943801901E+04  0.19373658642E+04  0.15294330000E+03 0.  0.
<mgrwt>
<rscale>  0 0.90472356E+03</rscale>
<asrwt>0</asrwt>
<pdfrwt beam="1">  1        2 0.33096082E+00 0.97159908E+03</pdfrwt>
<pdfrwt beam="2">  1       -2 0.13822876E+00 0.97159908E+03</pdfrwt>
<totfact> 0.20504623E+00</totfact>
</mgrwt>
</event>
<event>
 4    2  0.3171963E-007  0.1533393E+04  0.7818608E-02  0.8886409E-01
          2   -1    0    0  501    0  0.00000000000E+00  0.00000000000E+00  0.23909246024E+04  0.23909246024E+04  0.25500000000E-02 0. -1.
         -2   -1    0    0    0  501 -0.00000000000E+00 -0.00000000000E+00 -0.11897974162E+04  0.11897974162E+04  0.25500000000E-02 0.  1.
    8880023    1    1    2    0    0  0.10796393402E+04 -0.86710028801E+03  0.15118199856E+04  0.21533448144E+04  0.65864270000E+03 0.  0.
    8880022    1    1    2    0    0 -0.10796393402E+04  0.86710028801E+03 -0.31069279944E+03  0.14273772042E+04  0.15294330000E+03 0.  0.
<mgrwt>
<rscale>  0 0.14970622E+04</rscale>
<asrwt>0</asrwt>
<pdfrwt beam="1">  1        2 0.36783455E+00 0.15333930E+04</pdfrwt>
<pdfrwt beam="2">  1       -2 0.18304576E+00 0.15333930E+04</pdfrwt>
<totfact> 0.65167881E-01</totfact>
</mgrwt>
</event>
<event>
 4    2  0.3171963E-007  0.7291663E+03  0.7818608E-02  0.9892709E-01
         -2   -1    0    0    0  501 -0.00000000000E+00  0.00000000000E+00  0.30674544516E+03  0.30674544517E+03  0.25500000000E-02 0.  1.
          2   -1    0    0  501    0  0.00000000000E+00 -0.00000000000E+00 -0.15027070020E+04  0.15027070020E+04  0.25500000000E-02 0. -1.
    8880023    1    1    2    0    0  0.31243464914E+03  0.16058953202E+02 -0.12596233600E+04  0.14554499357E+04  0.65864270000E+03 0. -1.
    8880022    1    1    2    0    0 -0.31243464914E+03 -0.16058953202E+02  0.63661803142E+02  0.35400251151E+03  0.15294330000E+03 0.  0.
<mgrwt>
<rscale>  0 0.60615942E+03</rscale>
<asrwt>0</asrwt>
<pdfrwt beam="1">  1        2 0.23118569E+00 0.72916631E+03</pdfrwt>
<pdfrwt beam="2">  1       -2 0.47191608E-01 0.72916631E+03</pdfrwt>
<totfact> 0.55102609E+01</totfact>
</mgrwt>
</event>
<event>
 4    2  0.3171963E-007  0.7314889E+03  0.7818608E-02  0.9885471E-01
         -2   -1    0    0    0  501 -0.00000000000E+00  0.00000000000E+00  0.44055790427E+03  0.44055790428E+03  0.25500000000E-02 0.  1.
          2   -1    0    0  501    0  0.00000000000E+00 -0.00000000000E+00 -0.14778569992E+04  0.14778569992E+04  0.25500000000E-02 0. -1.
    8880023    1    1    2    0    0  0.23652409013E+03  0.21289003531E+03 -0.12908740070E+04  0.14837222519E+04  0.65864270000E+03 0. -1.
    8880022    1    1    2    0    0 -0.23652409013E+03 -0.21289003531E+03  0.25357491208E+03  0.43469265165E+03  0.15294330000E+03 0.  0.
<mgrwt>
<rscale>  0 0.60970618E+03</rscale>
<asrwt>0</asrwt>
<pdfrwt beam="1">  1        2 0.22736261E+00 0.73148891E+03</pdfrwt>
<pdfrwt beam="2">  1       -2 0.67778140E-01 0.73148891E+03</pdfrwt>
<totfact> 0.26716808E+01</totfact>
</mgrwt>
</event>
<event>
 4    2  0.3171963E-007  0.6706556E+03  0.7818608E-02  0.1015197E+00
         -2   -1    0    0    0  501 -0.00000000000E+00  0.00000000000E+00  0.32090389783E+03  0.32090389784E+03  0.25500000000E-02 0.  1.
          2   -1    0    0  501    0  0.00000000000E+00 -0.00000000000E+00 -0.10075394498E+04  0.10075394498E+04  0.25500000000E-02 0. -1.
    8880023    1    1    2    0    0 -0.69563135457E+02 -0.10549707871E+03 -0.84200372330E+03  0.10764521075E+04  0.65864270000E+03 0. -1.
    8880022    1    1    2    0    0  0.69563135457E+02  0.10549707871E+03  0.15536817132E+03  0.25199124014E+03  0.15294330000E+03 0.  0.
<mgrwt>
<rscale>  0 0.49460325E+03</rscale>
<asrwt>0</asrwt>
<pdfrwt beam="1">  1        2 0.15500607E+00 0.67065555E+03</pdfrwt>
<pdfrwt beam="2">  1       -2 0.49369831E-01 0.67065555E+03</pdfrwt>
<totfact> 0.98665591E+01</totfact>
</mgrwt>
</event>
<event>
 4    2  0.3171963E-007  0.9991163E+03  0.7818608E-02  0.9382715E-01
         -2   -1    0    0    0  501 -0.00000000000E+00  0.00000000000E+00  0.27749007898E+03  0.27749007899E+03  0.25500000000E-02 0.  1.
          2   -1    0    0  501    0  0.00000000000E+00 -0.00000000000E+00 -0.42956523632E+04  0.42956523632E+04  0.25500000000E-02 0. -1.
    8880023    1    1    2    0    0 -0.75079031390E+03 -0.27149656383E+02 -0.35194593633E+04  0.36585280668E+04  0.65864270000E+03 0.  0.
    8880022    1    1    2    0    0  0.75079031390E+03  0.27149656383E+02 -0.49870292085E+03  0.91461437533E+03  0.15294330000E+03 0.  0.
<mgrwt>
<rscale>  0 0.93511949E+03</rscale>
<asrwt>0</asrwt>
<pdfrwt beam="1">  1        2 0.66086955E+00 0.99911631E+03</pdfrwt>
<pdfrwt beam="2">  1       -2 0.42690784E-01 0.99911631E+03</pdfrwt>
<totfact> 0.10624711E+00</totfact>
</mgrwt>
</event>
<event>
 4    2  0.3171963E-007  0.6831775E+03  0.7818608E-02  0.1007581E+00
          2   -1    0    0  501    0  0.00000000000E+00  0.00000000000E+00  0.92301304162E+03  0.92301304162E+03  0.25500000000E-02 0. -1.
         -2   -1    0    0    0  501 -0.00000000000E+00 -0.00000000000E+00 -0.24193991865E+03  0.24193991867E+03  0.25500000000E-02 0.  1.
    8880023    1    1    2    0    0 -0.13419713333E+02 -0.18094511703E+03  0.61351022228E+03  0.91821904968E+03  0.65864270000E+03 0.  0.
    8880022    1    1    2    0    0  0.13419713333E+02  0.18094511703E+03  0.67562900684E+02  0.24673391061E+03  0.15294330000E+03 0. -1.
<mgrwt>
<rscale>  0 0.52447659E+03</rscale>
<asrwt>0</asrwt>
<pdfrwt beam="1">  1        2 0.14200201E+00 0.68317745E+03</pdfrwt>
<pdfrwt beam="2">  1       -2 0.37221526E-01 0.68317745E+03</pdfrwt>
<totfact> 0.19521709E+02</totfact>
</mgrwt>
</event>
<event>
 4    2  0.6382636E-007  0.7232115E+03  0.7818608E-02  0.9911865E-01
         -2   -1    0    0    0  501 -0.00000000000E+00  0.00000000000E+00  0.13781577052E+04  0.13781577052E+04  0.25500000000E-02 0.  1.
          2   -1    0    0  501    0  0.00000000000E+00 -0.00000000000E+00 -0.22076705573E+04  0.22076705573E+04  0.25500000000E-02 0. -1.
    8880023    1    1    2    0    0 -0.29861463722E+03 -0.73467452967E+01 -0.21265071973E+04  0.22461228245E+04  0.65864270000E+03 0. -1.
    8880022    1    1    2    0    0  0.29861463722E+03  0.73467452967E+01  0.12969943452E+04  0.13397054381E+04  0.15294330000E+03 0.  0.
<mgrwt>
<rscale>  0 0.59689668E+03</rscale>
<asrwt>0</asrwt>
<pdfrwt beam="1">  1        2 0.33964163E+00 0.72321151E+03</pdfrwt>
<pdfrwt beam="2">  1       -2 0.21202426E+00 0.72321151E+03</pdfrwt>
<totfact> 0.60106240E-01</totfact>
</mgrwt>
</event>
<event>
 4    2  0.9552667E-007  0.7877403E+03  0.7818608E-02  0.9737959E-01
         -2   -1    0    0    0  501 -0.00000000000E+00  0.00000000000E+00  0.20366284261E+04  0.20366284261E+04  0.25500000000E-02 0.  1.
          2   -1    0    0  501    0  0.00000000000E+00 -0.00000000000E+00 -0.17256344818E+04  0.17256344818E+04  0.25500000000E-02 0. -1.
    8880023    1    1    2    0    0  0.37877237226E+03 -0.20798086960E+03 -0.16073027842E+04  0.17899600550E+04  0.65864270000E+03 0. -1.
    8880022    1    1    2    0    0 -0.37877237226E+03  0.20798086960E+03  0.19182967285E+04  0.19723028529E+04  0.15294330000E+03 0.  0.
<mgrwt>
<rscale>  0 0.68800998E+03</rscale>
<asrwt>0</asrwt>
<pdfrwt beam="1">  1        2 0.26548223E+00 0.78774029E+03</pdfrwt>
<pdfrwt beam="2">  1       -2 0.31332745E+00 0.78774029E+03</pdfrwt>
<totfact> 0.26324235E-01</totfact>
</mgrwt>
</event>
<event>
 4    2  0.3171963E-007  0.8061857E+03  0.7818608E-02  0.9697578E-01
          2   -1    0    0  501    0  0.00000000000E+00  0.00000000000E+00  0.22663599751E+04  0.22663599751E+04  0.25500000000E-02 0. -1.
         -2   -1    0    0    0  501 -0.00000000000E+00 -0.00000000000E+00 -0.30536476762E+03  0.30536476763E+03  0.25500000000E-02 0.  1.
    8880023    1    1    2    0    0 -0.13720710416E+02 -0.46469004690E+03  0.19178708342E+04  0.20804239569E+04  0.65864270000E+03 0. -1.
    8880022    1    1    2    0    0  0.13720710416E+02  0.46469004690E+03  0.43124373297E+02  0.49130078584E+03  0.15294330000E+03 0.  0.
<mgrwt>
<rscale>  0 0.71161204E+03</rscale>
<asrwt>0</asrwt>
<pdfrwt beam="1">  1        2 0.34867075E+00 0.80618565E+03</pdfrwt>
<pdfrwt beam="2">  1       -2 0.46979197E-01 0.80618565E+03</pdfrwt>
<totfact> 0.20991091E+01</totfact>
</mgrwt>
</event>
<event>
 4    2  0.3171963E-007  0.1068787E+04  0.7818608E-02  0.9296631E-01
          2   -1    0    0  501    0  0.00000000000E+00  0.00000000000E+00  0.24860958121E+04  0.24860958121E+04  0.25500000000E-02 0. -1.
         -2   -1    0    0    0  501 -0.00000000000E+00 -0.00000000000E+00 -0.56589331314E+03  0.56589331314E+03  0.25500000000E-02 0.  1.
    8880023    1    1    2    0    0  0.16555844239E+03  0.82527883208E+03  0.19189162256E+04  0.21964845630E+04  0.65864270000E+03 0.  0.
    8880022    1    1    2    0    0 -0.16555844239E+03 -0.82527883208E+03  0.12862734125E+01  0.85550456226E+03  0.15294330000E+03 0.  0.
<mgrwt>
<rscale>  0 0.10109362E+04</rscale>
<asrwt>0</asrwt>
<pdfrwt beam="1">  1        2 0.38247628E+00 0.10687867E+04</pdfrwt>
<pdfrwt beam="2">  1       -2 0.87060508E-01 0.10687867E+04</pdfrwt>
<totfact> 0.40469619E+00</totfact>
</mgrwt>
</event>
<event>
 4    2  0.3171963E-007  0.8508271E+03  0.7818608E-02  0.9610093E-01
         -2   -1    0    0    0  501 -0.00000000000E+00  0.00000000000E+00  0.68597208190E+03  0.68597208191E+03  0.25500000000E-02 0.  1.
          2   -1    0    0  501    0  0.00000000000E+00 -0.00000000000E+00 -0.82178227806E+03  0.82178227806E+03  0.25500000000E-02 0. -1.
    8880023    1    1    2    0    0 -0.57017544598E+02 -0.53557965061E+03  0.17314929624E+03  0.86826692186E+03  0.65864270000E+03 0.  0.
    8880022    1    1    2    0    0  0.57017544598E+02  0.53557965061E+03 -0.30895949239E+03  0.63948743811E+03  0.15294330000E+03 0.  0.
<mgrwt>
<rscale>  0 0.76631732E+03</rscale>
<asrwt>0</asrwt>
<pdfrwt beam="1">  1        2 0.12642804E+00 0.85082711E+03</pdfrwt>
<pdfrwt beam="2">  1       -2 0.10553417E+00 0.85082711E+03</pdfrwt>
<totfact> 0.24263397E+01</totfact>
</mgrwt>
</event>
<event>
 4    2  0.3171963E-007  0.7140129E+03  0.7818608E-02  0.9943391E-01
         -2   -1    0    0    0  501 -0.00000000000E+00  0.00000000000E+00  0.11111148154E+04  0.11111148154E+04  0.25500000000E-02 0.  1.
          2   -1    0    0  501    0  0.00000000000E+00 -0.00000000000E+00 -0.33553122608E+03  0.33553122609E+03  0.25500000000E-02 0. -1.
    8880023    1    1    2    0    0  0.19219458614E+03 -0.19764973996E+03  0.12661760817E+03  0.72515267607E+03  0.65864270000E+03 0. -1.
    8880022    1    1    2    0    0 -0.19219458614E+03  0.19764973996E+03  0.64896598115E+03  0.72149336542E+03  0.15294330000E+03 0.  0.
<mgrwt>
<rscale>  0 0.58203695E+03</rscale>
<asrwt>0</asrwt>
<pdfrwt beam="1">  1        2 0.51620189E-01 0.71401287E+03</pdfrwt>
<pdfrwt beam="2">  1       -2 0.17094074E+00 0.71401287E+03</pdfrwt>
<totfact> 0.20681955E+01</totfact>
</mgrwt>
</event>
<event>
 4    2  0.3171963E-007  0.6836376E+03  0.7818608E-02  0.1007337E+00
          2   -1    0    0  501    0  0.00000000000E+00  0.00000000000E+00  0.52700759246E+03  0.52700759247E+03  0.25500000000E-02 0. -1.
         -2   -1    0    0    0  501 -0.00000000000E+00 -0.00000000000E+00 -0.44042776219E+03  0.44042776220E+03  0.25500000000E-02 0.  1.
    8880023    1    1    2    0    0  0.93477409491E+02 -0.15751873632E+03  0.18667661535E+03  0.70866673645E+03  0.65864270000E+03 0. -1.
    8880022    1    1    2    0    0 -0.93477409491E+02  0.15751873632E+03 -0.10009678507E+03  0.25876861821E+03  0.15294330000E+03 0.  0.
<mgrwt>
<rscale>  0 0.52547056E+03</rscale>
<asrwt>0</asrwt>
<pdfrwt beam="1">  1        2 0.81078092E-01 0.68363761E+03</pdfrwt>
<pdfrwt beam="2">  1       -2 0.67758117E-01 0.68363761E+03</pdfrwt>
<totfact> 0.11721845E+02</totfact>
</mgrwt>
</event>
<event>
 4    2  0.3171963E-007  0.7677239E+03  0.7818608E-02  0.9785506E-01
          2   -1    0    0  501    0  0.00000000000E+00  0.00000000000E+00  0.81805095633E+03  0.81805095633E+03  0.25500000000E-02 0. -1.
         -2   -1    0    0    0  501 -0.00000000000E+00 -0.00000000000E+00 -0.11853874743E+04  0.11853874743E+04  0.25500000000E-02 0.  1.
    8880023    1    1    2    0    0  0.38374739680E+03 -0.91256492061E+02  0.58246751264E+03  0.96367443747E+03  0.65864270000E+03 0. -1.
    8880022    1    1    2    0    0 -0.38374739680E+03  0.91256492061E+02 -0.94980403064E+03  0.10397639932E+04  0.15294330000E+03 0.  0.
<mgrwt>
<rscale>  0 0.66146187E+03</rscale>
<asrwt>0</asrwt>
<pdfrwt beam="1">  1        2 0.12585399E+00 0.76772392E+03</pdfrwt>
<pdfrwt beam="2">  1       -2 0.18236730E+00 0.76772392E+03</pdfrwt>
<totfact> 0.59397219E+00</totfact>
</mgrwt>
</event>
<event>
 4    2  0.3171963E-007  0.7134746E+03  0.7818608E-02  0.9945318E-01
          2   -1    0    0  501    0  0.00000000000E+00  0.00000000000E+00  0.28119799022E+03  0.28119799023E+03  0.25500000000E-02 0. -1.
         -2   -1    0    0    0  501 -0.00000000000E+00 -0.00000000000E+00 -0.17634409973E+04  0.17634409973E+04  0.25500000000E-02 0.  1.
    8880023    1    1    2    0    0 -0.10772590674E+03 -0.25225165457E+03 -0.22402370815E+03  0.74781855840E+03  0.65864270000E+03 0. -1.
    8880022    1    1    2    0    0  0.10772590674E+03  0.25225165457E+03 -0.12582192989E+04  0.12968204292E+04  0.15294330000E+03 0.  0.
<mgrwt>
<rscale>  0 0.58114377E+03</rscale>
<asrwt>0</asrwt>
<pdfrwt beam="1">  1        2 0.43261230E-01 0.71347458E+03</pdfrwt>
<pdfrwt beam="2">  1       -2 0.27129861E+00 0.71347458E+03</pdfrwt>
<totfact> 0.58224909E+00</totfact>
</mgrwt>
</event>
<event>
 4    2  0.3171963E-007  0.1311630E+04  0.7818608E-02  0.9055581E-01
          2   -1    0    0  501    0  0.00000000000E+00  0.00000000000E+00  0.23556077605E+04  0.23556077605E+04  0.25500000000E-02 0. -1.
         -2   -1    0    0    0  501 -0.00000000000E+00 -0.00000000000E+00 -0.11684178137E+04  0.11684178137E+04  0.25500000000E-02 0.  1.
    8880023    1    1    2    0    0  0.11070816062E+04 -0.24684537738E+03 -0.56743676791E+03  0.14291105678E+04  0.65864270000E+03 0.  0.
    8880022    1    1    2    0    0 -0.11070816062E+04  0.24684537738E+03  0.17546267147E+04  0.20949150064E+04  0.15294330000E+03 0.  0.
<mgrwt>
<rscale>  0 0.12676969E+04</rscale>
<asrwt>0</asrwt>
<pdfrwt beam="1">  1        2 0.36240119E+00 0.13116297E+04</pdfrwt>
<pdfrwt beam="2">  1       -2 0.17975659E+00 0.13116297E+04</pdfrwt>
<totfact> 0.73730660E-01</totfact>
</mgrwt>
</event>
<event>
 4    2  0.3171963E-007  0.1206499E+04  0.7818608E-02  0.9150831E-01
         -2   -1    0    0    0  501 -0.00000000000E+00  0.00000000000E+00  0.10551330041E+04  0.10551330041E+04  0.25500000000E-02 0.  1.
          2   -1    0    0  501    0  0.00000000000E+00 -0.00000000000E+00 -0.26771660667E+04  0.26771660667E+04  0.25500000000E-02 0. -1.
    8880023    1    1    2    0    0 -0.76118430429E+03  0.66515251115E+03 -0.22352925933E+04  0.25401127125E+04  0.65864270000E+03 0.  0.
    8880022    1    1    2    0    0  0.76118430429E+03 -0.66515251115E+03  0.61325953062E+03  0.11921863584E+04  0.15294330000E+03 0.  0.
<mgrwt>
<rscale>  0 0.11575672E+04</rscale>
<asrwt>0</asrwt>
<pdfrwt beam="1">  1        2 0.41187170E+00 0.12064989E+04</pdfrwt>
<pdfrwt beam="2">  1       -2 0.16232815E+00 0.12064989E+04</pdfrwt>
<totfact> 0.64903539E-01</totfact>
</mgrwt>
</event>
<event>
 4    2  0.3171963E-007  0.6905458E+03  0.7818608E-02  0.1003894E+00
         -2   -1    0    0    0  501 -0.00000000000E+00  0.00000000000E+00  0.23387968849E+03  0.23387968850E+03  0.25500000000E-02 0.  1.
          2   -1    0    0  501    0  0.00000000000E+00 -0.00000000000E+00 -0.18173829761E+04  0.18173829761E+04  0.25500000000E-02 0. -1.
    8880023    1    1    2    0    0 -0.13688595408E+02 -0.20701668677E+03 -0.16469141048E+04  0.17858274164E+04  0.65864270000E+03 0. -1.
    8880022    1    1    2    0    0  0.13688595408E+02  0.20701668677E+03  0.63410817197E+02  0.26543524822E+03  0.15294330000E+03 0.  0.
<mgrwt>
<rscale>  0 0.53975159E+03</rscale>
<asrwt>0</asrwt>
<pdfrwt beam="1">  1        2 0.27959737E+00 0.69054579E+03</pdfrwt>
<pdfrwt beam="2">  1       -2 0.35981492E-01 0.69054579E+03</pdfrwt>
<totfact> 0.63293150E+01</totfact>
</mgrwt>
</event>
<event>
 4    2  0.3171963E-007  0.7453539E+03  0.7818608E-02  0.9844617E-01
         -2   -1    0    0    0  501 -0.00000000000E+00  0.00000000000E+00  0.41012456931E+03  0.41012456931E+03  0.25500000000E-02 0.  1.
          2   -1    0    0  501    0  0.00000000000E+00 -0.00000000000E+00 -0.90755049777E+03  0.90755049778E+03  0.25500000000E-02 0. -1.
    8880023    1    1    2    0    0  0.21810648610E+03 -0.27234510779E+03 -0.55910988370E+03  0.93174908926E+03  0.65864270000E+03 0. -1.
    8880022    1    1    2    0    0 -0.21810648610E+03  0.27234510779E+03  0.61683955230E+02  0.38592597783E+03  0.15294330000E+03 0.  0.
<mgrwt>
<rscale>  0 0.63022125E+03</rscale>
<asrwt>0</asrwt>
<pdfrwt beam="1">  1        2 0.13962315E+00 0.74535394E+03</pdfrwt>
<pdfrwt beam="2">  1       -2 0.63096088E-01 0.74535394E+03</pdfrwt>
<totfact> 0.68401373E+01</totfact>
</mgrwt>
</event>
<event>
 4    2  0.3171963E-007  0.7854130E+03  0.7818608E-02  0.9743272E-01
          2   -1    0    0  501    0  0.00000000000E+00  0.00000000000E+00  0.16446744634E+04  0.16446744634E+04  0.25500000000E-02 0. -1.
         -2   -1    0    0    0  501 -0.00000000000E+00 -0.00000000000E+00 -0.36411772164E+03  0.36411772165E+03  0.25500000000E-02 0.  1.
    8880023    1    1    2    0    0 -0.28238352406E+03 -0.32143874379E+03  0.13373044969E+04  0.15508890497E+04  0.65864270000E+03 0. -1.
    8880022    1    1    2    0    0  0.28238352406E+03  0.32143874379E+03 -0.56747755137E+02  0.45790313539E+03  0.15294330000E+03 0.  0.
<mgrwt>
<rscale>  0 0.68497815E+03</rscale>
<asrwt>0</asrwt>
<pdfrwt beam="1">  1        2 0.25302684E+00 0.78541297E+03</pdfrwt>
<pdfrwt beam="2">  1       -2 0.56018111E-01 0.78541297E+03</pdfrwt>
<totfact> 0.32178821E+01</totfact>
</mgrwt>
</event>
<event>
 4    2  0.3171963E-007  0.6734622E+03  0.7818608E-02  0.1013294E+00
          2   -1    0    0  501    0  0.00000000000E+00  0.00000000000E+00  0.19570272441E+04  0.19570272441E+04  0.25500000000E-02 0. -1.
         -2   -1    0    0    0  501 -0.00000000000E+00 -0.00000000000E+00 -0.99221570863E+02  0.99221570896E+02  0.25500000000E-02 0.  1.
    8880023    1    1    2    0    0 -0.10851455755E+03 -0.89250694880E+02  0.14368394208E+04  0.15868392556E+04  0.65864270000E+03 0.  0.
    8880022    1    1    2    0    0  0.10851455755E+03  0.89250694880E+02  0.42096625248E+03  0.46940955942E+03  0.15294330000E+03 0.  1.
<mgrwt>
<rscale>  0 0.50186372E+03</rscale>
<asrwt>0</asrwt>
<pdfrwt beam="1">  1        2 0.30108111E+00 0.67346218E+03</pdfrwt>
<pdfrwt beam="2">  1       -2 0.15264858E-01 0.67346218E+03</pdfrwt>
<totfact> 0.24718878E+02</totfact>
</mgrwt>
</event>
<event>
 4    2  0.3171963E-007  0.1085017E+04  0.7818608E-02  0.9277924E-01
          2   -1    0    0  501    0  0.00000000000E+00  0.00000000000E+00  0.84022018898E+03  0.84022018899E+03  0.25500000000E-02 0. -1.
         -2   -1    0    0    0  501 -0.00000000000E+00 -0.00000000000E+00 -0.11883594847E+04  0.11883594847E+04  0.25500000000E-02 0.  1.
    8880023    1    1    2    0    0  0.48992940813E+03 -0.70952142444E+03 -0.38714158941E+03  0.11520157522E+04  0.65864270000E+03 0.  0.
    8880022    1    1    2    0    0 -0.48992940813E+03  0.70952142444E+03  0.39002293655E+02  0.87656392158E+03  0.15294330000E+03 0.  0.
<mgrwt>
<rscale>  0 0.10284086E+04</rscale>
<asrwt>0</asrwt>
<pdfrwt beam="1">  1        2 0.12926464E+00 0.10850169E+04</pdfrwt>
<pdfrwt beam="2">  1       -2 0.18282454E+00 0.10850169E+04</pdfrwt>
<totfact> 0.55021079E+00</totfact>
</mgrwt>
</event>
<event>
 4    2  0.3171963E-007  0.8793405E+03  0.7818608E-02  0.9560045E-01
         -2   -1    0    0    0  501 -0.00000000000E+00  0.00000000000E+00  0.61830457368E+03  0.61830457368E+03  0.25500000000E-02 0.  1.
          2   -1    0    0  501    0  0.00000000000E+00 -0.00000000000E+00 -0.10630023130E+04  0.10630023130E+04  0.25500000000E-02 0. -1.
    8880023    1    1    2    0    0  0.37565713625E+03 -0.44532155214E+03 -0.59345667591E+03  0.10608631397E+04  0.65864270000E+03 0. -1.
    8880022    1    1    2    0    0 -0.37565713625E+03  0.44532155214E+03  0.14875893663E+03  0.62044374690E+03  0.15294330000E+03 0.  0.
<mgrwt>
<rscale>  0 0.79998051E+03</rscale>
<asrwt>0</asrwt>
<pdfrwt beam="1">  1        2 0.16353882E+00 0.87934053E+03</pdfrwt>
<pdfrwt beam="2">  1       -2 0.95123781E-01 0.87934053E+03</pdfrwt>
<totfact> 0.21441182E+01</totfact>
</mgrwt>
</event>
<event>
 4    2  0.3171963E-007  0.9452463E+03  0.7818608E-02  0.9456987E-01
          2   -1    0    0  501    0  0.00000000000E+00  0.00000000000E+00  0.24085011582E+04  0.24085011582E+04  0.25500000000E-02 0. -1.
         -2   -1    0    0    0  501 -0.00000000000E+00 -0.00000000000E+00 -0.51532264914E+03  0.51532264915E+03  0.25500000000E-02 0.  1.
    8880023    1    1    2    0    0 -0.45924320859E+03 -0.49877457699E+03  0.20080096769E+04  0.22193678091E+04  0.65864270000E+03 0. -1.
    8880022    1    1    2    0    0  0.45924320859E+03  0.49877457699E+03 -0.11483116789E+03  0.70445599821E+03  0.15294330000E+03 0.  0.
<mgrwt>
<rscale>  0 0.87530667E+03</rscale>
<asrwt>0</asrwt>
<pdfrwt beam="1">  1        2 0.37053864E+00 0.94524632E+03</pdfrwt>
<pdfrwt beam="2">  1       -2 0.79280407E-01 0.94524632E+03</pdfrwt>
<totfact> 0.56341628E+00</totfact>
</mgrwt>
</event>
<event>
 4    2  0.3171963E-007  0.7147992E+03  0.7818608E-02  0.9940593E-01
         -2   -1    0    0    0  501 -0.00000000000E+00  0.00000000000E+00  0.30154961606E+03  0.30154961607E+03  0.25500000000E-02 0.  1.
          2   -1    0    0  501    0  0.00000000000E+00 -0.00000000000E+00 -0.31840560368E+04  0.31840560368E+04  0.25500000000E-02 0. -1.
    8880023    1    1    2    0    0  0.23406825681E+03  0.14946482250E+03 -0.30460969409E+04  0.31288407536E+04  0.65864270000E+03 0.  0.
    8880022    1    1    2    0    0 -0.23406825681E+03 -0.14946482250E+03  0.16359052016E+03  0.35676489922E+03  0.15294330000E+03 0.  0.
<mgrwt>
<rscale>  0 0.58333662E+03</rscale>
<asrwt>0</asrwt>
<pdfrwt beam="1">  1        2 0.48985475E+00 0.71479919E+03</pdfrwt>
<pdfrwt beam="2">  1       -2 0.46392251E-01 0.71479919E+03</pdfrwt>
<totfact> 0.63125199E+00</totfact>
</mgrwt>
</event>
<event>
 4    2  0.3171963E-007  0.6589715E+03  0.7818608E-02  0.1025236E+00
          2   -1    0    0  501    0  0.00000000000E+00  0.00000000000E+00  0.22251094721E+04  0.22251094721E+04  0.25500000000E-02 0. -1.
         -2   -1    0    0    0  501 -0.00000000000E+00 -0.00000000000E+00 -0.76557739538E+02  0.76557739581E+02  0.25500000000E-02 0.  1.
    8880023    1    1    2    0    0  0.80228617297E+01 -0.19206941321E+02  0.18769762593E+04  0.19892921749E+04  0.65864270000E+03 0. -1.
    8880022    1    1    2    0    0 -0.80228617297E+01  0.19206941321E+02  0.27157547321E+03  0.31237503672E+03  0.15294330000E+03 0.  0.
<mgrwt>
<rscale>  0 0.45843623E+03</rscale>
<asrwt>0</asrwt>
<pdfrwt beam="1">  1        2 0.34232456E+00 0.65897153E+03</pdfrwt>
<pdfrwt beam="2">  1       -2 0.11778113E-01 0.65897153E+03</pdfrwt>
<totfact> 0.27241474E+02</totfact>
</mgrwt>
</event>
<event>
 4    2  0.3171963E-007  0.6891390E+03  0.7818608E-02  0.1004565E+00
          2   -1    0    0  501    0  0.00000000000E+00  0.00000000000E+00  0.18815288390E+04  0.18815288390E+04  0.25500000000E-02 0. -1.
         -2   -1    0    0    0  501 -0.00000000000E+00 -0.00000000000E+00 -0.17298615685E+03  0.17298615687E+03  0.25500000000E-02 0.  1.
    8880023    1    1    2    0    0 -0.47777513290E+01 -0.20268075313E+03  0.16580851427E+04  0.17955942920E+04  0.65864270000E+03 0. -1.
    8880022    1    1    2    0    0  0.47777513290E+01  0.20268075313E+03  0.50457539411E+02  0.25892070388E+03  0.15294330000E+03 0. -1.
<mgrwt>
<rscale>  0 0.53693287E+03</rscale>
<asrwt>0</asrwt>
<pdfrwt beam="1">  1        2 0.28946597E+00 0.68913897E+03</pdfrwt>
<pdfrwt beam="2">  1       -2 0.26613255E-01 0.68913897E+03</pdfrwt>
<totfact> 0.10248782E+02</totfact>
</mgrwt>
</event>
<event>
 4    2  0.3171963E-007  0.6996266E+03  0.7818608E-02  0.9998754E-01
         -2   -1    0    0    0  501 -0.00000000000E+00  0.00000000000E+00  0.21703446525E+03  0.21703446526E+03  0.25500000000E-02 0.  1.
          2   -1    0    0  501    0  0.00000000000E+00 -0.00000000000E+00 -0.12584342746E+04  0.12584342746E+04  0.25500000000E-02 0. -1.
    8880023    1    1    2    0    0  0.19603280471E+03  0.13129480547E+03 -0.48264107370E+03  0.84995282149E+03  0.65864270000E+03 0.  1.
    8880022    1    1    2    0    0 -0.19603280471E+03 -0.13129480547E+03 -0.55875873567E+03  0.62551591840E+03  0.15294330000E+03 0.  0.
<mgrwt>
<rscale>  0 0.55704919E+03</rscale>
<asrwt>0</asrwt>
<pdfrwt beam="1">  1        2 0.19360527E+00 0.69962661E+03</pdfrwt>
<pdfrwt beam="2">  1       -2 0.33389919E-01 0.69962661E+03</pdfrwt>
<totfact> 0.14909168E+02</totfact>
</mgrwt>
</event>
<event>
 4    2  0.3171963E-007  0.7566984E+03  0.7818608E-02  0.9813731E-01
         -2   -1    0    0    0  501 -0.00000000000E+00  0.00000000000E+00  0.38890550088E+03  0.38890550088E+03  0.25500000000E-02 0.  1.
          2   -1    0    0  501    0  0.00000000000E+00 -0.00000000000E+00 -0.11877655726E+04  0.11877655726E+04  0.25500000000E-02 0. -1.
    8880023    1    1    2    0    0  0.32241251370E+03 -0.18663449641E+03 -0.88547161097E+03  0.11647542420E+04  0.65864270000E+03 0.  0.
    8880022    1    1    2    0    0 -0.32241251370E+03  0.18663449641E+03  0.86611539293E+02  0.41191683141E+03  0.15294330000E+03 0.  0.
<mgrwt>
<rscale>  0 0.64630831E+03</rscale>
<asrwt>0</asrwt>
<pdfrwt beam="1">  1        2 0.18273316E+00 0.75669840E+03</pdfrwt>
<pdfrwt beam="2">  1       -2 0.59831616E-01 0.75669840E+03</pdfrwt>
<totfact> 0.51035984E+01</totfact>
</mgrwt>
</event>
<event>
 4    2  0.3171963E-007  0.7372156E+03  0.7818608E-02  0.9868133E-01
          2   -1    0    0  501    0  0.00000000000E+00  0.00000000000E+00  0.84041897547E+03  0.84041897547E+03  0.25500000000E-02 0. -1.
         -2   -1    0    0    0  501 -0.00000000000E+00 -0.00000000000E+00 -0.62907853261E+03  0.62907853261E+03  0.25500000000E-02 0.  1.
    8880023    1    1    2    0    0  0.22288327760E+03  0.24494825756E+03 -0.33725160863E+03  0.81069442955E+03  0.65864270000E+03 0.  1.
    8880022    1    1    2    0    0 -0.22288327760E+03 -0.24494825756E+03  0.54859205149E+03  0.65880307853E+03  0.15294330000E+03 0.  0.
<mgrwt>
<rscale>  0 0.61830846E+03</rscale>
<asrwt>0</asrwt>
<pdfrwt beam="1">  1        2 0.12929523E+00 0.73721558E+03</pdfrwt>
<pdfrwt beam="2">  1       -2 0.96781313E-01 0.73721558E+03</pdfrwt>
<totfact> 0.29214008E+01</totfact>
</mgrwt>
</event>
<event>
 4    2  0.3171963E-007  0.6726446E+03  0.7818608E-02  0.1013834E+00
         -2   -1    0    0    0  501 -0.00000000000E+00  0.00000000000E+00  0.22317228542E+03  0.22317228544E+03  0.25500000000E-02 0.  1.
          2   -1    0    0  501    0  0.00000000000E+00 -0.00000000000E+00 -0.11411684830E+04  0.11411684830E+04  0.25500000000E-02 0. -1.
    8880023    1    1    2    0    0 -0.70488612571E+02  0.11692714740E+03 -0.94244988809E+03  0.11578698546E+04  0.65864270000E+03 0. -1.
    8880022    1    1    2    0    0  0.70488612571E+02 -0.11692714740E+03  0.24453690468E+02  0.20647091392E+03  0.15294330000E+03 0.  0.
<mgrwt>
<rscale>  0 0.49978947E+03</rscale>
<asrwt>0</asrwt>
<pdfrwt beam="1">  1        2 0.17556438E+00 0.67264464E+03</pdfrwt>
<pdfrwt beam="2">  1       -2 0.34334198E-01 0.67264464E+03</pdfrwt>
<totfact> 0.16622368E+02</totfact>
</mgrwt>
</event>
<event>
 4    2  0.3171963E-007  0.7053177E+03  0.7818608E-02  0.9975817E-01
         -2   -1    0    0    0  501 -0.00000000000E+00  0.00000000000E+00  0.77425948458E+03  0.77425948459E+03  0.25500000000E-02 0.  1.
          2   -1    0    0  501    0  0.00000000000E+00 -0.00000000000E+00 -0.64199007213E+03  0.64199007214E+03  0.25500000000E-02 0. -1.
    8880023    1    1    2    0    0 -0.22112563535E+03  0.12151687005E+03 -0.39767706891E+03  0.80970374441E+03  0.65864270000E+03 0. -1.
    8880022    1    1    2    0    0  0.22112563535E+03 -0.12151687005E+03  0.52994648136E+03  0.60654581232E+03  0.15294330000E+03 0.  0.
<mgrwt>
<rscale>  0 0.56723437E+03</rscale>
<asrwt>0</asrwt>
<pdfrwt beam="1">  1        2 0.98767703E-01 0.70531773E+03</pdfrwt>
<pdfrwt beam="2">  1       -2 0.11911684E+00 0.70531773E+03</pdfrwt>
<totfact> 0.25120267E+01</totfact>
</mgrwt>
</event>
<event>
 4    2  0.3171963E-007  0.7200483E+03  0.7818608E-02  0.9922423E-01
          2   -1    0    0  501    0  0.00000000000E+00  0.00000000000E+00  0.17486800459E+04  0.17486800459E+04  0.25500000000E-02 0. -1.
         -2   -1    0    0    0  501 -0.00000000000E+00 -0.00000000000E+00 -0.20604957319E+03  0.20604957320E+03  0.25500000000E-02 0.  1.
    8880023    1    1    2    0    0  0.20590910583E+03 -0.20557428480E+03  0.14406341925E+04  0.16105578006E+04  0.65864270000E+03 0.  1.
    8880022    1    1    2    0    0 -0.20590910583E+03  0.20557428480E+03  0.10199628026E+03  0.34417181848E+03  0.15294330000E+03 0.  0.
<mgrwt>
<rscale>  0 0.59186795E+03</rscale>
<asrwt>0</asrwt>
<pdfrwt beam="1">  1        2 0.26902770E+00 0.72004830E+03</pdfrwt>
<pdfrwt beam="2">  1       -2 0.31699934E-01 0.72004830E+03</pdfrwt>
<totfact> 0.87371505E+01</totfact>
</mgrwt>
</event>
<event>
 4    2  0.3171963E-007  0.1085976E+04  0.7818608E-02  0.9276833E-01
          2   -1    0    0  501    0  0.00000000000E+00  0.00000000000E+00  0.19038020641E+04  0.19038020641E+04  0.25500000000E-02 0. -1.
         -2   -1    0    0    0  501 -0.00000000000E+00 -0.00000000000E+00 -0.72225752344E+03  0.72225752344E+03  0.25500000000E-02 0.  1.
    8880023    1    1    2    0    0  0.86253667219E+03 -0.39540911689E+02 -0.80866537901E+02  0.10889823680E+04  0.65864270000E+03 0.  0.
    8880022    1    1    2    0    0 -0.86253667219E+03  0.39540911689E+02  0.12624110785E+04  0.15370772195E+04  0.15294330000E+03 0.  0.
<mgrwt>
<rscale>  0 0.10294388E+04</rscale>
<asrwt>0</asrwt>
<pdfrwt beam="1">  1        2 0.29289263E+00 0.10859757E+04</pdfrwt>
<pdfrwt beam="2">  1       -2 0.11111654E+00 0.10859757E+04</pdfrwt>
<totfact> 0.47895664E+00</totfact>
</mgrwt>
</event>
<event>
 4    2  0.3171963E-007  0.7233754E+03  0.7818608E-02  0.9911326E-01
         -2   -1    0    0    0  501 -0.00000000000E+00  0.00000000000E+00  0.24138965021E+04  0.24138965021E+04  0.25500000000E-02 0.  1.
          2   -1    0    0  501    0  0.00000000000E+00 -0.00000000000E+00 -0.12072527199E+03  0.12072527202E+03  0.25500000000E-02 0. -1.
    8880023    1    1    2    0    0 -0.29910116314E+03  0.44481475264E+00  0.17788762563E+04  0.19203313894E+04  0.65864270000E+03 0.  1.
    8880022    1    1    2    0    0  0.29910116314E+03 -0.44481475264E+00  0.51429497379E+03  0.61429038470E+03  0.15294330000E+03 0. -1.
<mgrwt>
<rscale>  0 0.59715503E+03</rscale>
<asrwt>0</asrwt>
<pdfrwt beam="1">  1        2 0.18573117E-01 0.72337536E+03</pdfrwt>
<pdfrwt beam="2">  1       -2 0.37136873E+00 0.72337536E+03</pdfrwt>
<totfact> 0.37405815E+00</totfact>
</mgrwt>
</event>
<event>
 4    2  0.3171963E-007  0.7066959E+03  0.7818608E-02  0.9970481E-01
          2   -1    0    0  501    0  0.00000000000E+00  0.00000000000E+00  0.15552090512E+04  0.15552090512E+04  0.25500000000E-02 0. -1.
         -2   -1    0    0    0  501 -0.00000000000E+00 -0.00000000000E+00 -0.40317242963E+03  0.40317242964E+03  0.25500000000E-02 0.  1.
    8880023    1    1    2    0    0  0.25358108678E+03  0.36131455116E+02  0.14014364917E+04  0.15695360130E+04  0.65864270000E+03 0. -1.
    8880022    1    1    2    0    0 -0.25358108678E+03 -0.36131455116E+02 -0.24939987013E+03  0.38884546784E+03  0.15294330000E+03 0.  0.
<mgrwt>
<rscale>  0 0.56963737E+03</rscale>
<asrwt>0</asrwt>
<pdfrwt beam="1">  1        2 0.23926293E+00 0.70669587E+03</pdfrwt>
<pdfrwt beam="2">  1       -2 0.62026528E-01 0.70669587E+03</pdfrwt>
<totfact> 0.29362545E+01</totfact>
</mgrwt>
</event>
<event>
 4    2  0.3171963E-007  0.9899123E+03  0.7818608E-02  0.9394876E-01
          2   -1    0    0  501    0  0.00000000000E+00  0.00000000000E+00  0.25594256448E+04  0.25594256448E+04  0.25500000000E-02 0. -1.
         -2   -1    0    0    0  501 -0.00000000000E+00 -0.00000000000E+00 -0.14160368339E+04  0.14160368339E+04  0.25500000000E-02 0.  1.
    8880023    1    1    2    0    0 -0.56836205910E+03  0.47231421440E+03 -0.11755436662E+04  0.15368244092E+04  0.65864270000E+03 0.  1.
    8880022    1    1    2    0    0  0.56836205910E+03 -0.47231421440E+03  0.23189324771E+04  0.24386380695E+04  0.15294330000E+03 0.  0.
<mgrwt>
<rscale>  0 0.92498566E+03</rscale>
<asrwt>0</asrwt>
<pdfrwt beam="1">  1        2 0.39375778E+00 0.98991230E+03</pdfrwt>
<pdfrwt beam="2">  1       -2 0.21785182E+00 0.98991230E+03</pdfrwt>
<totfact> 0.33145916E-01</totfact>
</mgrwt>
</event>
<event>
 4    2  0.3171963E-007  0.7632884E+03  0.7818608E-02  0.9796667E-01
         -2   -1    0    0    0  501 -0.00000000000E+00  0.00000000000E+00  0.66288170877E+03  0.66288170877E+03  0.25500000000E-02 0.  1.
          2   -1    0    0  501    0  0.00000000000E+00 -0.00000000000E+00 -0.15357848174E+04  0.15357848174E+04  0.25500000000E-02 0. -1.
    8880023    1    1    2    0    0 -0.10316725123E+03 -0.37169276772E+03 -0.13595262977E+04  0.15591410955E+04  0.65864270000E+03 0.  0.
    8880022    1    1    2    0    0  0.10316725123E+03  0.37169276772E+03  0.48662318907E+03  0.63952543066E+03  0.15294330000E+03 0.  0.
<mgrwt>
<rscale>  0 0.65541699E+03</rscale>
<asrwt>0</asrwt>
<pdfrwt beam="1">  1        2 0.23627459E+00 0.76328841E+03</pdfrwt>
<pdfrwt beam="2">  1       -2 0.10198180E+00 0.76328841E+03</pdfrwt>
<totfact> 0.97763805E+00</totfact>
</mgrwt>
</event>
<event>
 4    2  0.3171963E-007  0.6614618E+03  0.7818608E-02  0.1022706E+00
          2   -1    0    0  501    0  0.00000000000E+00  0.00000000000E+00  0.61996954495E+03  0.61996954496E+03  0.25500000000E-02 0. -1.
         -2   -1    0    0    0  501 -0.00000000000E+00 -0.00000000000E+00 -0.22093122760E+04  0.22093122760E+04  0.25500000000E-02 0.  1.
    8880023    1    1    2    0    0 -0.49009872808E+02 -0.36325921250E+02  0.43924641133E+03  0.79402087902E+03  0.65864270000E+03 0. -1.
    8880022    1    1    2    0    0  0.49009872808E+02  0.36325921250E+02 -0.20285891423E+04  0.20352609419E+04  0.15294330000E+03 0.  0.
<mgrwt>
<rscale>  0 0.46722511E+03</rscale>
<asrwt>0</asrwt>
<pdfrwt beam="1">  1        2 0.95379931E-01 0.66146183E+03</pdfrwt>
<pdfrwt beam="2">  1       -2 0.33989419E+00 0.66146183E+03</pdfrwt>
<totfact> 0.91928314E-01</totfact>
</mgrwt>
</event>
<event>
 4    2  0.3171963E-007  0.7634080E+03  0.7818608E-02  0.9796363E-01
          2   -1    0    0  501    0  0.00000000000E+00  0.00000000000E+00  0.22429522341E+04  0.22429522341E+04  0.25500000000E-02 0. -1.
         -2   -1    0    0    0  501 -0.00000000000E+00 -0.00000000000E+00 -0.27139610323E+03  0.27139610324E+03  0.25500000000E-02 0.  1.
    8880023    1    1    2    0    0  0.20308158673E+03 -0.32823681320E+03  0.34878973758E+03  0.83931282828E+03  0.65864270000E+03 0.  1.
    8880022    1    1    2    0    0 -0.20308158673E+03  0.32823681320E+03  0.16227663933E+04  0.16750355090E+04  0.15294330000E+03 0.  0.
<mgrwt>
<rscale>  0 0.65558082E+03</rscale>
<asrwt>0</asrwt>
<pdfrwt beam="1">  1        2 0.34506957E+00 0.76340798E+03</pdfrwt>
<pdfrwt beam="2">  1       -2 0.41753248E-01 0.76340798E+03</pdfrwt>
<totfact> 0.27504799E+01</totfact>
</mgrwt>
</event>
<event>
 4    2  0.3171963E-007  0.6613240E+03  0.7818608E-02  0.1022839E+00
          2   -1    0    0  501    0  0.00000000000E+00  0.00000000000E+00  0.38581799196E+03  0.38581799196E+03  0.25500000000E-02 0. -1.
         -2   -1    0    0    0  501 -0.00000000000E+00 -0.00000000000E+00 -0.60796173738E+03  0.60796173738E+03  0.25500000000E-02 0.  1.
    8880023    1    1    2    0    0  0.16643547722E+02 -0.57116056438E+02  0.63484842015E+02  0.66436419456E+03  0.65864270000E+03 0. -1.
    8880022    1    1    2    0    0 -0.16643547722E+02  0.57116056438E+02 -0.28562858744E+03  0.32941553479E+03  0.15294330000E+03 0.  0.
<mgrwt>
<rscale>  0 0.46675834E+03</rscale>
<asrwt>0</asrwt>
<pdfrwt beam="1">  1        2 0.59356614E-01 0.66132402E+03</pdfrwt>
<pdfrwt beam="2">  1       -2 0.93532575E-01 0.66132402E+03</pdfrwt>
<totfact> 0.81299107E+01</totfact>
</mgrwt>
</event>
<event>
 4    2  0.3171963E-007  0.6898322E+03  0.7818608E-02  0.1004232E+00
          2   -1    0    0  501    0  0.00000000000E+00  0.00000000000E+00  0.25845986575E+04  0.25845986575E+04  0.25500000000E-02 0. -1.
         -2   -1    0    0    0  501 -0.00000000000E+00 -0.00000000000E+00 -0.13155703079E+03  0.13155703081E+03  0.25500000000E-02 0.  1.
    8880023    1    1    2    0    0 -0.80351361016E+01 -0.20492374369E+03  0.23343261737E+04  0.24341214423E+04  0.65864270000E+03 0. -1.
    8880022    1    1    2    0    0  0.80351361016E+01  0.20492374369E+03  0.11871545296E+03  0.28203424602E+03  0.15294330000E+03 0.  0.
<mgrwt>
<rscale>  0 0.53832715E+03</rscale>
<asrwt>0</asrwt>
<pdfrwt beam="1">  1        2 0.39763055E+00 0.68983223E+03</pdfrwt>
<pdfrwt beam="2">  1       -2 0.20239544E-01 0.68983223E+03</pdfrwt>
<totfact> 0.68197192E+01</totfact>
</mgrwt>
</event>
<event>
 4    2  0.3171963E-007  0.8405393E+03  0.7818608E-02  0.9629164E-01
          2   -1    0    0  501    0  0.00000000000E+00  0.00000000000E+00  0.23216574401E+03  0.23216574402E+03  0.25500000000E-02 0. -1.
         -2   -1    0    0    0  501 -0.00000000000E+00 -0.00000000000E+00 -0.25794791511E+04  0.25794791511E+04  0.25500000000E-02 0.  1.
    8880023    1    1    2    0    0 -0.50233358327E+03 -0.14267807977E+03 -0.19911877643E+04  0.21613271345E+04  0.65864270000E+03 0.  0.
    8880022    1    1    2    0    0  0.50233358327E+03  0.14267807977E+03 -0.35612564280E+03  0.65031776064E+03  0.15294330000E+03 0.  0.
<mgrwt>
<rscale>  0 0.75395609E+03</rscale>
<asrwt>0</asrwt>
<pdfrwt beam="1">  1        2 0.35717809E-01 0.84053927E+03</pdfrwt>
<pdfrwt beam="2">  1       -2 0.39684293E+00 0.84053927E+03</pdfrwt>
<totfact> 0.11899739E+00</totfact>
</mgrwt>
</event>
<event>
 4    2  0.3171963E-007  0.8249610E+03  0.7818608E-02  0.9659217E-01
          2   -1    0    0  501    0  0.00000000000E+00  0.00000000000E+00  0.15412204268E+04  0.15412204268E+04  0.25500000000E-02 0. -1.
         -2   -1    0    0    0  501 -0.00000000000E+00 -0.00000000000E+00 -0.37491880661E+03  0.37491880662E+03  0.25500000000E-02 0.  1.
    8880023    1    1    2    0    0 -0.49488502836E+03 -0.42887179643E+02  0.24882451380E+03  0.86166951113E+03  0.65864270000E+03 0.  0.
    8880022    1    1    2    0    0  0.49488502836E+03  0.42887179643E+02  0.91747710635E+03  0.10544697223E+04  0.15294330000E+03 0.  0.
<mgrwt>
<rscale>  0 0.73497763E+03</rscale>
<asrwt>0</asrwt>
<pdfrwt beam="1">  1        2 0.23711083E+00 0.82496103E+03</pdfrwt>
<pdfrwt beam="2">  1       -2 0.57679817E-01 0.82496103E+03</pdfrwt>
<totfact> 0.34385171E+01</totfact>
</mgrwt>
</event>
<event>
 4    2  0.3171963E-007  0.7001745E+03  0.7818608E-02  0.9996478E-01
          2   -1    0    0  501    0  0.00000000000E+00  0.00000000000E+00  0.27982330646E+04  0.27982330646E+04  0.25500000000E-02 0. -1.
         -2   -1    0    0    0  501 -0.00000000000E+00 -0.00000000000E+00 -0.15834018926E+03  0.15834018928E+03  0.25500000000E-02 0.  1.
    8880023    1    1    2    0    0 -0.15762893662E+03 -0.17772800499E+03  0.25725394302E+04  0.26661214248E+04  0.65864270000E+03 0. -1.
    8880022    1    1    2    0    0  0.15762893662E+03  0.17772800499E+03  0.67353445067E+02  0.29045182904E+03  0.15294330000E+03 0.  0.
<mgrwt>
<rscale>  0 0.55804936E+03</rscale>
<asrwt>0</asrwt>
<pdfrwt beam="1">  1        2 0.43049737E+00 0.70017450E+03</pdfrwt>
<pdfrwt beam="2">  1       -2 0.24360030E-01 0.70017450E+03</pdfrwt>
<totfact> 0.36853761E+01</totfact>
</mgrwt>
</event>
<event>
 4    2  0.3171963E-007  0.6920562E+03  0.7818608E-02  0.1003190E+00
         -2   -1    0    0    0  501 -0.00000000000E+00  0.00000000000E+00  0.95125702569E+02  0.95125702603E+02  0.25500000000E-02 0.  1.
          2   -1    0    0  501    0  0.00000000000E+00 -0.00000000000E+00 -0.30077311791E+04  0.30077311791E+04  0.25500000000E-02 0. -1.
    8880023    1    1    2    0    0  0.21150050618E+03  0.19978139233E+02 -0.26217458337E+04  0.27115480842E+04  0.65864270000E+03 0. -1.
    8880022    1    1    2    0    0 -0.21150050618E+03 -0.19978139233E+02 -0.29085964285E+03  0.39130879752E+03  0.15294330000E+03 0.  0.
<mgrwt>
<rscale>  0 0.54273242E+03</rscale>
<asrwt>0</asrwt>
<pdfrwt beam="1">  1        2 0.46272780E+00 0.69205621E+03</pdfrwt>
<pdfrwt beam="2">  1       -2 0.14634726E-01 0.69205621E+03</pdfrwt>
<totfact> 0.66933285E+01</totfact>
</mgrwt>
</event>
<event>
 4    2  0.3171963E-007  0.8107001E+03  0.7818608E-02  0.9688120E-01
          2   -1    0    0  501    0  0.00000000000E+00  0.00000000000E+00  0.46779444577E+03  0.46779444577E+03  0.25500000000E-02 0. -1.
         -2   -1    0    0    0  501 -0.00000000000E+00 -0.00000000000E+00 -0.15041488490E+04  0.15041488490E+04  0.25500000000E-02 0.  1.
    8880023    1    1    2    0    0 -0.37853123752E+03  0.28308750018E+03  0.13132466633E+02  0.81080644945E+03  0.65864270000E+03 0.  0.
    8880022    1    1    2    0    0  0.37853123752E+03 -0.28308750018E+03 -0.10494868699E+04  0.11611368453E+04  0.15294330000E+03 0. -1.
<mgrwt>
<rscale>  0 0.71728516E+03</rscale>
<asrwt>0</asrwt>
<pdfrwt beam="1">  1        2 0.71968377E-01 0.81070009E+03</pdfrwt>
<pdfrwt beam="2">  1       -2 0.23140751E+00 0.81070009E+03</pdfrwt>
<totfact> 0.56711197E+00</totfact>
</mgrwt>
</event>
<event>
 4    2  0.3171963E-007  0.7039081E+03  0.7818608E-02  0.9981359E-01
         -2   -1    0    0    0  501 -0.00000000000E+00  0.00000000000E+00  0.24679980030E+03  0.24679980031E+03  0.25500000000E-02 0.  1.
          2   -1    0    0  501    0  0.00000000000E+00 -0.00000000000E+00 -0.14673602068E+04  0.14673602068E+04  0.25500000000E-02 0. -1.
    8880023    1    1    2    0    0  0.12345308813E+03 -0.21548963430E+03 -0.12356754605E+04  0.14221042499E+04  0.65864270000E+03 0.  0.
    8880022    1    1    2    0    0 -0.12345308813E+03  0.21548963430E+03  0.15115054053E+02  0.29205575723E+03  0.15294330000E+03 0.  0.
<mgrwt>
<rscale>  0 0.56475206E+03</rscale>
<asrwt>0</asrwt>
<pdfrwt beam="1">  1        2 0.22574772E+00 0.70390813E+03</pdfrwt>
<pdfrwt beam="2">  1       -2 0.37969201E-01 0.70390813E+03</pdfrwt>
<totfact> 0.88718714E+01</totfact>
</mgrwt>
</event>
<event>
 4    2  0.3171963E-007  0.8120028E+03  0.7818608E-02  0.9685420E-01
         -2   -1    0    0    0  501 -0.00000000000E+00  0.00000000000E+00  0.23405856724E+03  0.23405856725E+03  0.25500000000E-02 0.  1.
          2   -1    0    0  501    0  0.00000000000E+00 -0.00000000000E+00 -0.31650391274E+04  0.31650391274E+04  0.25500000000E-02 0. -1.
    8880023    1    1    2    0    0 -0.20880929618E+03  0.42654085068E+03 -0.27515852859E+04  0.28688970374E+04  0.65864270000E+03 0.  0.
    8880022    1    1    2    0    0  0.20880929618E+03 -0.42654085068E+03 -0.17939527422E+03  0.53020065720E+03  0.15294330000E+03 0.  0.
<mgrwt>
<rscale>  0 0.71891548E+03</rscale>
<asrwt>0</asrwt>
<pdfrwt beam="1">  1        2 0.48692907E+00 0.81200285E+03</pdfrwt>
<pdfrwt beam="2">  1       -2 0.36009013E-01 0.81200285E+03</pdfrwt>
<totfact> 0.10472436E+01</totfact>
</mgrwt>
</event>
<event>
 4    2  0.3171963E-007  0.8992149E+03  0.7818608E-02  0.9527293E-01
         -2   -1    0    0    0  501 -0.00000000000E+00  0.00000000000E+00  0.99636617204E+03  0.99636617204E+03  0.25500000000E-02 0.  1.
          2   -1    0    0  501    0  0.00000000000E+00 -0.00000000000E+00 -0.26097421550E+04  0.26097421550E+04  0.25500000000E-02 0. -1.
    8880023    1    1    2    0    0  0.58084723162E+03 -0.19337446807E+03 -0.24201911982E+04  0.25818429141E+04  0.65864270000E+03 0.  0.
    8880022    1    1    2    0    0 -0.58084723162E+03  0.19337446807E+03  0.80681521525E+03  0.10242654129E+04  0.15294330000E+03 0.  0.
<mgrwt>
<rscale>  0 0.82301173E+03</rscale>
<asrwt>0</asrwt>
<pdfrwt beam="1">  1        2 0.40149879E+00 0.89921488E+03</pdfrwt>
<pdfrwt beam="2">  1       -2 0.15328710E+00 0.89921488E+03</pdfrwt>
<totfact> 0.87092477E-01</totfact>
</mgrwt>
</event>
<event>
 4    2  0.3171963E-007  0.8264564E+03  0.7818608E-02  0.9656267E-01
          2   -1    0    0  501    0  0.00000000000E+00  0.00000000000E+00  0.26179844960E+04  0.26179844960E+04  0.25500000000E-02 0. -1.
         -2   -1    0    0    0  501 -0.00000000000E+00 -0.00000000000E+00 -0.30287623066E+03  0.30287623067E+03  0.25500000000E-02 0.  1.
    8880023    1    1    2    0    0  0.15696773991E+03  0.47389991000E+03  0.22471819585E+04  0.23943385218E+04  0.65864270000E+03 0. -1.
    8880022    1    1    2    0    0 -0.15696773991E+03 -0.47389991000E+03  0.67926306848E+02  0.52652220489E+03  0.15294330000E+03 0.  0.
<mgrwt>
<rscale>  0 0.73681425E+03</rscale>
<asrwt>0</asrwt>
<pdfrwt beam="1">  1        2 0.40276686E+00 0.82645641E+03</pdfrwt>
<pdfrwt beam="2">  1       -2 0.46596342E-01 0.82645641E+03</pdfrwt>
<totfact> 0.13464475E+01</totfact>
</mgrwt>
</event>
<event>
 4    2  0.3171963E-007  0.7556696E+03  0.7818608E-02  0.9816450E-01
         -2   -1    0    0    0  501 -0.00000000000E+00  0.00000000000E+00  0.17636870096E+03  0.17636870098E+03  0.25500000000E-02 0.  1.
          2   -1    0    0  501    0  0.00000000000E+00 -0.00000000000E+00 -0.21762164065E+04  0.21762164065E+04  0.25500000000E-02 0. -1.
    8880023    1    1    2    0    0 -0.34359803819E+03  0.13844404004E+03 -0.16718705368E+04  0.18347173248E+04  0.65864270000E+03 0.  1.
    8880022    1    1    2    0    0  0.34359803819E+03 -0.13844404004E+03 -0.32797716882E+03  0.51786778269E+03  0.15294330000E+03 0.  0.
<mgrwt>
<rscale>  0 0.64487160E+03</rscale>
<asrwt>0</asrwt>
<pdfrwt beam="1">  1        2 0.33480251E+00 0.75566962E+03</pdfrwt>
<pdfrwt beam="2">  1       -2 0.27133648E-01 0.75566962E+03</pdfrwt>
<totfact> 0.67784402E+01</totfact>
</mgrwt>
</event>
<event>
 4    2  0.3171963E-007  0.9087217E+03  0.7818608E-02  0.9512173E-01
          2   -1    0    0  501    0  0.00000000000E+00  0.00000000000E+00  0.82297426112E+03  0.82297426112E+03  0.25500000000E-02 0. -1.
         -2   -1    0    0    0  501 -0.00000000000E+00 -0.00000000000E+00 -0.99581988421E+03  0.99581988421E+03  0.25500000000E-02 0.  1.
    8880023    1    1    2    0    0 -0.33923742264E+03 -0.52619669393E+03  0.36508234373E+03  0.97931624799E+03  0.65864270000E+03 0.  0.
    8880022    1    1    2    0    0  0.33923742264E+03  0.52619669393E+03 -0.53792796682E+03  0.83947789734E+03  0.15294330000E+03 0.  0.
<mgrwt>
<rscale>  0 0.83392277E+03</rscale>
<asrwt>0</asrwt>
<pdfrwt beam="1">  1        2 0.12661143E+00 0.90872174E+03</pdfrwt>
<pdfrwt beam="2">  1       -2 0.15320306E+00 0.90872174E+03</pdfrwt>
<totfact> 0.93923529E+00</totfact>
</mgrwt>
</event>
<event>
 4    2  0.3171963E-007  0.7639560E+03  0.7818608E-02  0.9794971E-01
         -2   -1    0    0    0  501 -0.00000000000E+00  0.00000000000E+00  0.19771515098E+03  0.19771515099E+03  0.25500000000E-02 0.  1.
          2   -1    0    0  501    0  0.00000000000E+00 -0.00000000000E+00 -0.26525581299E+04  0.26525581299E+04  0.25500000000E-02 0. -1.
    8880023    1    1    2    0    0 -0.38423494883E+03  0.46713074613E+02 -0.22695960151E+04  0.23947222981E+04  0.65864270000E+03 0. -1.
    8880022    1    1    2    0    0  0.38423494883E+03 -0.46713074613E+02 -0.18524696381E+03  0.45555098272E+03  0.15294330000E+03 0.  0.
<mgrwt>
<rscale>  0 0.65633108E+03</rscale>
<asrwt>0</asrwt>
<pdfrwt beam="1">  1        2 0.40808584E+00 0.76395603E+03</pdfrwt>
<pdfrwt beam="2">  1       -2 0.30417718E-01 0.76395603E+03</pdfrwt>
<totfact> 0.29588058E+01</totfact>
</mgrwt>
</event>
<event>
 4    2  0.3171963E-007  0.7175292E+03  0.7818608E-02  0.9931037E-01
          2   -1    0    0  501    0  0.00000000000E+00  0.00000000000E+00  0.13094944493E+04  0.13094944493E+04  0.25500000000E-02 0. -1.
         -2   -1    0    0    0  501 -0.00000000000E+00 -0.00000000000E+00 -0.39780261346E+03  0.39780261347E+03  0.25500000000E-02 0.  1.
    8880023    1    1    2    0    0 -0.24762166137E+03 -0.14043300212E+03  0.11146965574E+04  0.13256683358E+04  0.65864270000E+03 0. -1.
    8880022    1    1    2    0    0  0.24762166137E+03  0.14043300212E+03 -0.20300472153E+03  0.38162872696E+03  0.15294330000E+03 0.  0.
<mgrwt>
<rscale>  0 0.58780410E+03</rscale>
<asrwt>0</asrwt>
<pdfrwt beam="1">  1        2 0.20146068E+00 0.71752918E+03</pdfrwt>
<pdfrwt beam="2">  1       -2 0.61200402E-01 0.71752918E+03</pdfrwt>
<totfact> 0.41467312E+01</totfact>
</mgrwt>
</event>
<event>
 4    2  0.3171963E-007  0.7339656E+03  0.7818608E-02  0.9877887E-01
         -2   -1    0    0    0  501 -0.00000000000E+00  0.00000000000E+00  0.98109271893E+03  0.98109271893E+03  0.25500000000E-02 0.  1.
          2   -1    0    0  501    0  0.00000000000E+00 -0.00000000000E+00 -0.45883462445E+03  0.45883462445E+03  0.25500000000E-02 0. -1.
    8880023    1    1    2    0    0  0.21917399752E+03  0.23844920599E+03 -0.80928727959E+02  0.73841379341E+03  0.65864270000E+03 0. -1.
    8880022    1    1    2    0    0 -0.21917399752E+03 -0.23844920599E+03  0.60318682244E+03  0.70151354998E+03  0.15294330000E+03 0.  0.
<mgrwt>
<rscale>  0 0.61345056E+03</rscale>
<asrwt>0</asrwt>
<pdfrwt beam="1">  1        2 0.70589943E-01 0.73396558E+03</pdfrwt>
<pdfrwt beam="2">  1       -2 0.15093734E+00 0.73396558E+03</pdfrwt>
<totfact> 0.20340843E+01</totfact>
</mgrwt>
</event>
<event>
 4    2  0.3171963E-007  0.6589492E+03  0.7818608E-02  0.1025260E+00
          2   -1    0    0  501    0  0.00000000000E+00  0.00000000000E+00  0.56653975861E+03  0.56653975861E+03  0.25500000000E-02 0. -1.
         -2   -1    0    0    0  501 -0.00000000000E+00 -0.00000000000E+00 -0.51778622460E+03  0.51778622461E+03  0.25500000000E-02 0.  1.
    8880023    1    1    2    0    0 -0.76163719603E+01  0.18595153783E+02  0.34981494166E+03  0.74604590243E+03  0.65864270000E+03 0. -1.
    8880022    1    1    2    0    0  0.76163719603E+01 -0.18595153783E+02 -0.30106140766E+03  0.33828008079E+03  0.15294330000E+03 0.  0.
<mgrwt>
<rscale>  0 0.45835361E+03</rscale>
<asrwt>0</asrwt>
<pdfrwt beam="1">  1        2 0.87159963E-01 0.65894916E+03</pdfrwt>
<pdfrwt beam="2">  1       -2 0.79659419E-01 0.65894916E+03</pdfrwt>
<totfact> 0.75482906E+01</totfact>
</mgrwt>
</event>
<event>
 4    2  0.3171963E-007  0.6998619E+03  0.7818608E-02  0.9997775E-01
          2   -1    0    0  501    0  0.00000000000E+00  0.00000000000E+00  0.23979331994E+04  0.23979331994E+04  0.25500000000E-02 0. -1.
         -2   -1    0    0    0  501 -0.00000000000E+00 -0.00000000000E+00 -0.32668940184E+03  0.32668940185E+03  0.25500000000E-02 0.  1.
    8880023    1    1    2    0    0  0.33318420811E+02  0.23427831279E+03  0.22728517785E+04  0.23781635474E+04  0.65864270000E+03 0. -1.
    8880022    1    1    2    0    0 -0.33318420811E+02 -0.23427831279E+03 -0.20160798092E+03  0.34645905385E+03  0.15294330000E+03 0.  0.
<mgrwt>
<rscale>  0 0.55747921E+03</rscale>
<asrwt>0</asrwt>
<pdfrwt beam="1">  1        2 0.36891280E+00 0.69986188E+03</pdfrwt>
<pdfrwt beam="2">  1       -2 0.50259907E-01 0.69986188E+03</pdfrwt>
<totfact> 0.15713661E+01</totfact>
</mgrwt>
</event>
<event>
 4    2  0.3171963E-007  0.9022660E+03  0.7818608E-02  0.9522404E-01
         -2   -1    0    0    0  501 -0.00000000000E+00  0.00000000000E+00  0.70730794257E+03  0.70730794257E+03  0.25500000000E-02 0.  1.
          2   -1    0    0  501    0  0.00000000000E+00 -0.00000000000E+00 -0.10120753861E+04  0.10120753861E+04  0.25500000000E-02 0. -1.
    8880023    1    1    2    0    0  0.52399419748E+03 -0.32512125240E+03 -0.52866570087E+03  0.10457396317E+04  0.65864270000E+03 0.  0.
    8880022    1    1    2    0    0 -0.52399419748E+03  0.32512125240E+03  0.22389825739E+03  0.67364369694E+03  0.15294330000E+03 0.  0.
<mgrwt>
<rscale>  0 0.82652052E+03</rscale>
<asrwt>0</asrwt>
<pdfrwt beam="1">  1        2 0.15570391E+00 0.90226601E+03</pdfrwt>
<pdfrwt beam="2">  1       -2 0.10881661E+00 0.90226601E+03</pdfrwt>
<totfact> 0.16716082E+01</totfact>
</mgrwt>
</event>
<event>
 4    2  0.3171963E-007  0.8360059E+03  0.7818608E-02  0.9637758E-01
          2   -1    0    0  501    0  0.00000000000E+00  0.00000000000E+00  0.76101028221E+03  0.76101028221E+03  0.25500000000E-02 0. -1.
         -2   -1    0    0    0  501 -0.00000000000E+00 -0.00000000000E+00 -0.13740578463E+04  0.13740578463E+04  0.25500000000E-02 0.  1.
    8880023    1    1    2    0    0 -0.50286278909E+03 -0.11056523290E+03  0.44605153566E+03  0.94755888161E+03  0.65864270000E+03 0.  0.
    8880022    1    1    2    0    0  0.50286278909E+03  0.11056523290E+03 -0.10590990997E+04  0.11875092469E+04  0.15294330000E+03 0.  0.
<mgrwt>
<rscale>  0 0.74846732E+03</rscale>
<asrwt>0</asrwt>
<pdfrwt beam="1">  1        2 0.11707851E+00 0.83600590E+03</pdfrwt>
<pdfrwt beam="2">  1       -2 0.21139351E+00 0.83600590E+03</pdfrwt>
<totfact> 0.41771985E+00</totfact>
</mgrwt>
</event>
<event>
 4    2  0.3171963E-007  0.6774606E+03  0.7818608E-02  0.1010798E+00
         -2   -1    0    0    0  501 -0.00000000000E+00  0.00000000000E+00  0.86900657523E+03  0.86900657523E+03  0.25500000000E-02 0.  1.
          2   -1    0    0  501    0  0.00000000000E+00 -0.00000000000E+00 -0.57801668135E+03  0.57801668136E+03  0.25500000000E-02 0. -1.
    8880023    1    1    2    0    0  0.15399516881E+03  0.37791096175E+02 -0.35476040690E+03  0.76472729226E+03  0.65864270000E+03 0. -1.
    8880022    1    1    2    0    0 -0.15399516881E+03 -0.37791096175E+02  0.64575030077E+03  0.68229596432E+03  0.15294330000E+03 0.  0.
<mgrwt>
<rscale>  0 0.51158661E+03</rscale>
<asrwt>0</asrwt>
<pdfrwt beam="1">  1        2 0.88925643E-01 0.67746062E+03</pdfrwt>
<pdfrwt beam="2">  1       -2 0.13369332E+00 0.67746062E+03</pdfrwt>
<totfact> 0.21404730E+01</totfact>
</mgrwt>
</event>
<event>
 4    2  0.3171963E-007  0.6777304E+03  0.7818608E-02  0.1010638E+00
          2   -1    0    0  501    0  0.00000000000E+00  0.00000000000E+00  0.34028758257E+04  0.34028758257E+04  0.25500000000E-02 0. -1.
         -2   -1    0    0    0  501 -0.00000000000E+00 -0.00000000000E+00 -0.90551624724E+02  0.90551624760E+02  0.25500000000E-02 0.  1.
    8880023    1    1    2    0    0 -0.10383086396E+02 -0.15937525215E+03  0.31421115592E+04  0.32143714061E+04  0.65864270000E+03 0. -1.
    8880022    1    1    2    0    0  0.10383086396E+02  0.15937525215E+03  0.17021264181E+03  0.27905604442E+03  0.15294330000E+03 0.  0.
<mgrwt>
<rscale>  0 0.51221967E+03</rscale>
<asrwt>0</asrwt>
<pdfrwt beam="1">  1        2 0.52351932E+00 0.67773039E+03</pdfrwt>
<pdfrwt beam="2">  1       -2 0.13931020E-01 0.67773039E+03</pdfrwt>
<totfact> 0.40848360E+01</totfact>
</mgrwt>
</event>
<event>
 4    2  0.3171963E-007  0.8839060E+03  0.7818608E-02  0.9552378E-01
         -2   -1    0    0    0  501 -0.00000000000E+00  0.00000000000E+00  0.13204519676E+04  0.13204519676E+04  0.25500000000E-02 0.  1.
          2   -1    0    0  501    0  0.00000000000E+00 -0.00000000000E+00 -0.92121412750E+03  0.92121412750E+03  0.25500000000E-02 0. -1.
    8880023    1    1    2    0    0  0.14411312668E+03  0.57158632932E+03  0.10351465857E+04  0.13611826421E+04  0.65864270000E+03 0.  1.
    8880022    1    1    2    0    0 -0.14411312668E+03 -0.57158632932E+03 -0.63590874560E+03  0.88048345294E+03  0.15294330000E+03 0.  0.
<mgrwt>
<rscale>  0 0.80529950E+03</rscale>
<asrwt>0</asrwt>
<pdfrwt beam="1">  1        2 0.14172525E+00 0.88390595E+03</pdfrwt>
<pdfrwt beam="2">  1       -2 0.20314646E+00 0.88390595E+03</pdfrwt>
<totfact> 0.36193390E+00</totfact>
</mgrwt>
</event>
<event>
 4    2  0.3171963E-007  0.6774314E+03  0.7818608E-02  0.1010816E+00
         -2   -1    0    0    0  501 -0.00000000000E+00  0.00000000000E+00  0.78149280634E+02  0.78149280676E+02  0.25500000000E-02 0.  1.
          2   -1    0    0  501    0  0.00000000000E+00 -0.00000000000E+00 -0.41008529871E+04  0.41008529871E+04  0.25500000000E-02 0. -1.
    8880023    1    1    2    0    0 -0.85912217399E+02 -0.13312459220E+03 -0.38203088191E+04  0.38799062805E+04  0.65864270000E+03 0. -1.
    8880022    1    1    2    0    0  0.85912217399E+02  0.13312459220E+03 -0.20239488740E+03  0.29909598728E+03  0.15294330000E+03 0.  0.
<mgrwt>
<rscale>  0 0.51151784E+03</rscale>
<asrwt>0</asrwt>
<pdfrwt beam="1">  1        2 0.63090029E+00 0.67743138E+03</pdfrwt>
<pdfrwt beam="2">  1       -2 0.12022969E-01 0.67743138E+03</pdfrwt>
<totfact> 0.16099451E+01</totfact>
</mgrwt>
</event>
<event>
 4    2  0.3171963E-007  0.6715555E+03  0.7818608E-02  0.1014571E+00
          2   -1    0    0  501    0  0.00000000000E+00  0.00000000000E+00  0.95668163216E+03  0.95668163216E+03  0.25500000000E-02 0. -1.
         -2   -1    0    0    0  501 -0.00000000000E+00 -0.00000000000E+00 -0.88310022662E+03  0.88310022663E+03  0.25500000000E-02 0.  1.
    8880023    1    1    2    0    0  0.30994255055E+02  0.12734156737E+03  0.82388850540E+03  0.10629106238E+04  0.65864270000E+03 0. -1.
    8880022    1    1    2    0    0 -0.30994255055E+02 -0.12734156737E+03 -0.75030709986E+03  0.77687123498E+03  0.15294330000E+03 0.  0.
<mgrwt>
<rscale>  0 0.49697505E+03</rscale>
<asrwt>0</asrwt>
<pdfrwt beam="1">  1        2 0.14718179E+00 0.67155545E+03</pdfrwt>
<pdfrwt beam="2">  1       -2 0.13586157E+00 0.67155545E+03</pdfrwt>
<totfact> 0.10712806E+01</totfact>
</mgrwt>
</event>
<event>
 4    2  0.3171963E-007  0.8220136E+03  0.7818608E-02  0.9665076E-01
          2   -1    0    0  501    0  0.00000000000E+00  0.00000000000E+00  0.30867487487E+03  0.30867487488E+03  0.25500000000E-02 0. -1.
         -2   -1    0    0    0  501 -0.00000000000E+00 -0.00000000000E+00 -0.22693054012E+04  0.22693054012E+04  0.25500000000E-02 0.  1.
    8880023    1    1    2    0    0 -0.38753684688E+03 -0.30283875611E+03 -0.36157782863E+03  0.89802274599E+03  0.65864270000E+03 0.  0.
    8880022    1    1    2    0    0  0.38753684688E+03  0.30283875611E+03 -0.15990526977E+04  0.16799575301E+04  0.15294330000E+03 0.  0.
<mgrwt>
<rscale>  0 0.73134770E+03</rscale>
<asrwt>0</asrwt>
<pdfrwt beam="1">  1        2 0.47488444E-01 0.82201358E+03</pdfrwt>
<pdfrwt beam="2">  1       -2 0.34912390E+00 0.82201358E+03</pdfrwt>
<totfact> 0.17439265E+00</totfact>
</mgrwt>
</event>
<event>
 4    2  0.3171963E-007  0.8247383E+03  0.7818608E-02  0.9659658E-01
          2   -1    0    0  501    0  0.00000000000E+00  0.00000000000E+00  0.72253737544E+03  0.72253737544E+03  0.25500000000E-02 0. -1.
         -2   -1    0    0    0  501 -0.00000000000E+00 -0.00000000000E+00 -0.78952087651E+03  0.78952087651E+03  0.25500000000E-02 0.  1.
    8880023    1    1    2    0    0 -0.39384463176E+03 -0.30210825184E+03  0.29835006723E+03  0.87704387500E+03  0.65864270000E+03 0.  0.
    8880022    1    1    2    0    0  0.39384463176E+03  0.30210825184E+03 -0.36533356830E+03  0.63501437695E+03  0.15294330000E+03 0.  0.
<mgrwt>
<rscale>  0 0.73470373E+03</rscale>
<asrwt>0</asrwt>
<pdfrwt beam="1">  1        2 0.11115960E+00 0.82473826E+03</pdfrwt>
<pdfrwt beam="2">  1       -2 0.12146475E+00 0.82473826E+03</pdfrwt>
<totfact> 0.20419399E+01</totfact>
</mgrwt>
</event>
<event>
 4    2  0.3171963E-007  0.6980749E+03  0.7818608E-02  0.1000528E+00
          2   -1    0    0  501    0  0.00000000000E+00  0.00000000000E+00  0.92668560768E+03  0.92668560769E+03  0.25500000000E-02 0. -1.
         -2   -1    0    0    0  501 -0.00000000000E+00 -0.00000000000E+00 -0.48809953441E+03  0.48809953442E+03  0.25500000000E-02 0.  1.
    8880023    1    1    2    0    0 -0.15949961671E+03 -0.16750579347E+03  0.73170699893E+03  0.10112881178E+04  0.65864270000E+03 0.  0.
    8880022    1    1    2    0    0  0.15949961671E+03  0.16750579347E+03 -0.29312092566E+03  0.40349702434E+03  0.15294330000E+03 0.  0.
<mgrwt>
<rscale>  0 0.55419195E+03</rscale>
<asrwt>0</asrwt>
<pdfrwt beam="1">  1        2 0.14256702E+00 0.69807487E+03</pdfrwt>
<pdfrwt beam="2">  1       -2 0.75092237E-01 0.69807487E+03</pdfrwt>
<totfact> 0.45680590E+01</totfact>
</mgrwt>
</event>
<event>
 4    2  0.3171963E-007  0.8932186E+03  0.7818608E-02  0.9537007E-01
         -2   -1    0    0    0  501 -0.00000000000E+00  0.00000000000E+00  0.71178128596E+03  0.71178128596E+03  0.25500000000E-02 0.  1.
          2   -1    0    0  501    0  0.00000000000E+00 -0.00000000000E+00 -0.11271025444E+04  0.11271025444E+04  0.25500000000E-02 0. -1.
    8880023    1    1    2    0    0  0.44122931970E+03 -0.41151658212E+03 -0.71869464233E+03  0.11464560197E+04  0.65864270000E+03 0.  0.
    8880022    1    1    2    0    0 -0.44122931970E+03  0.41151658212E+03  0.30337338388E+03  0.69242781067E+03  0.15294330000E+03 0.  0.
<mgrwt>
<rscale>  0 0.81609588E+03</rscale>
<asrwt>0</asrwt>
<pdfrwt beam="1">  1        2 0.17340039E+00 0.89321857E+03</pdfrwt>
<pdfrwt beam="2">  1       -2 0.10950481E+00 0.89321857E+03</pdfrwt>
<totfact> 0.13969178E+01</totfact>
</mgrwt>
</event>
<event>
 4    2  0.3171963E-007  0.9261158E+03  0.7818608E-02  0.9485345E-01
          2   -1    0    0  501    0  0.00000000000E+00  0.00000000000E+00  0.18583426213E+04  0.18583426213E+04  0.25500000000E-02 0. -1.
         -2   -1    0    0    0  501 -0.00000000000E+00 -0.00000000000E+00 -0.59315892331E+03  0.59315892332E+03  0.25500000000E-02 0.  1.
    8880023    1    1    2    0    0  0.49860637772E+03 -0.41865496981E+03  0.14827573687E+04  0.17482162121E+04  0.65864270000E+03 0. -1.
    8880022    1    1    2    0    0 -0.49860637772E+03  0.41865496981E+03 -0.21757367074E+03  0.70328533247E+03  0.15294330000E+03 0.  0.
<mgrwt>
<rscale>  0 0.85372979E+03</rscale>
<asrwt>0</asrwt>
<pdfrwt beam="1">  1        2 0.28589886E+00 0.92611582E+03</pdfrwt>
<pdfrwt beam="2">  1       -2 0.91255219E-01 0.92611582E+03</pdfrwt>
<totfact> 0.82630082E+00</totfact>
</mgrwt>
</event>
<event>
 4    2  0.3171963E-007  0.6690346E+03  0.7818608E-02  0.1016365E+00
         -2   -1    0    0    0  501 -0.00000000000E+00  0.00000000000E+00  0.34568384647E+03  0.34568384648E+03  0.25500000000E-02 0.  1.
          2   -1    0    0  501    0  0.00000000000E+00 -0.00000000000E+00 -0.23269775977E+04  0.23269775977E+04  0.25500000000E-02 0. -1.
    8880023    1    1    2    0    0 -0.98832775080E+02 -0.63475791958E+02 -0.22469227271E+04  0.23444123019E+04  0.65864270000E+03 0. -1.
    8880022    1    1    2    0    0  0.98832775080E+02  0.63475791958E+02  0.26562897584E+03  0.32824914229E+03  0.15294330000E+03 0.  0.
<mgrwt>
<rscale>  0 0.49021645E+03</rscale>
<asrwt>0</asrwt>
<pdfrwt beam="1">  1        2 0.35799654E+00 0.66903460E+03</pdfrwt>
<pdfrwt beam="2">  1       -2 0.53182132E-01 0.66903460E+03</pdfrwt>
<totfact> 0.15412120E+01</totfact>
</mgrwt>
</event>
<event>
 4    2  0.3171963E-007  0.7396946E+03  0.7818608E-02  0.9860838E-01
         -2   -1    0    0    0  501 -0.00000000000E+00  0.00000000000E+00  0.39850425984E+03  0.39850425984E+03  0.25500000000E-02 0.  1.
          2   -1    0    0  501    0  0.00000000000E+00 -0.00000000000E+00 -0.89686324711E+03  0.89686324712E+03  0.25500000000E-02 0. -1.
    8880023    1    1    2    0    0  0.50136664489E+02  0.33290263815E+03 -0.55033418525E+03  0.92196299998E+03  0.65864270000E+03 0. -1.
    8880022    1    1    2    0    0 -0.50136664489E+02 -0.33290263815E+03  0.51975197971E+02  0.37340450698E+03  0.15294330000E+03 0. -1.
<mgrwt>
<rscale>  0 0.62197382E+03</rscale>
<asrwt>0</asrwt>
<pdfrwt beam="1">  1        2 0.13797896E+00 0.73969457E+03</pdfrwt>
<pdfrwt beam="2">  1       -2 0.61308348E-01 0.73969457E+03</pdfrwt>
<totfact> 0.73959320E+01</totfact>
</mgrwt>
</event>
<event>
 4    2  0.3171963E-007  0.8107535E+03  0.7818608E-02  0.9688010E-01
         -2   -1    0    0    0  501 -0.00000000000E+00  0.00000000000E+00  0.28756798810E+03  0.28756798811E+03  0.25500000000E-02 0.  1.
          2   -1    0    0  501    0  0.00000000000E+00 -0.00000000000E+00 -0.22763171472E+04  0.22763171472E+04  0.25500000000E-02 0. -1.
    8880023    1    1    2    0    0 -0.46083024142E+03 -0.10557705499E+03 -0.18909917450E+04  0.20574671351E+04  0.65864270000E+03 0.  0.
    8880022    1    1    2    0    0  0.46083024142E+03  0.10557705499E+03 -0.97757414091E+02  0.50641800024E+03  0.15294330000E+03 0.  0.
<mgrwt>
<rscale>  0 0.71735206E+03</rscale>
<asrwt>0</asrwt>
<pdfrwt beam="1">  1        2 0.35020263E+00 0.81075350E+03</pdfrwt>
<pdfrwt beam="2">  1       -2 0.44241230E-01 0.81075350E+03</pdfrwt>
<totfact> 0.23357601E+01</totfact>
</mgrwt>
</event>
<event>
 4    2  0.3171963E-007  0.9862707E+03  0.7818608E-02  0.9399744E-01
          2   -1    0    0  501    0  0.00000000000E+00  0.00000000000E+00  0.13170423759E+04  0.13170423760E+04  0.25500000000E-02 0. -1.
         -2   -1    0    0    0  501 -0.00000000000E+00 -0.00000000000E+00 -0.13942837640E+04  0.13942837640E+04  0.25500000000E-02 0.  1.
    8880023    1    1    2    0    0 -0.71812147637E+03 -0.15238504467E+03  0.99624405607E+03  0.14018673554E+04  0.65864270000E+03 0. -1.
    8880022    1    1    2    0    0  0.71812147637E+03  0.15238504467E+03 -0.10734854441E+04  0.13094587846E+04  0.15294330000E+03 0.  0.
<mgrwt>
<rscale>  0 0.92096727E+03</rscale>
<asrwt>0</asrwt>
<pdfrwt beam="1">  1        2 0.20262190E+00 0.98627068E+03</pdfrwt>
<pdfrwt beam="2">  1       -2 0.21450519E+00 0.98627068E+03</pdfrwt>
<totfact> 0.17230016E+00</totfact>
</mgrwt>
</event>
<event>
 4    2  0.3171963E-007  0.7773387E+03  0.7818608E-02  0.9762126E-01
          2   -1    0    0  501    0  0.00000000000E+00  0.00000000000E+00  0.31799632200E+04  0.31799632200E+04  0.25500000000E-02 0. -1.
         -2   -1    0    0    0  501 -0.00000000000E+00 -0.00000000000E+00 -0.23433222053E+03  0.23433222054E+03  0.25500000000E-02 0.  1.
    8880023    1    1    2    0    0  0.37785197311E+03 -0.16635236843E+03  0.28625990329E+04  0.29662651017E+04  0.65864270000E+03 0.  0.
    8880022    1    1    2    0    0 -0.37785197311E+03  0.16635236843E+03  0.83031966585E+02  0.44803033887E+03  0.15294330000E+03 0.  0.
<mgrwt>
<rscale>  0 0.67435295E+03</rscale>
<asrwt>0</asrwt>
<pdfrwt beam="1">  1        2 0.48922508E+00 0.77733868E+03</pdfrwt>
<pdfrwt beam="2">  1       -2 0.36051113E-01 0.77733868E+03</pdfrwt>
<totfact> 0.10285123E+01</totfact>
</mgrwt>
</event>
<event>
 4    2  0.3171963E-007  0.7104352E+03  0.7818608E-02  0.9956389E-01
          2   -1    0    0  501    0  0.00000000000E+00  0.00000000000E+00  0.11383339225E+04  0.11383339225E+04  0.25500000000E-02 0. -1.
         -2   -1    0    0    0  501 -0.00000000000E+00 -0.00000000000E+00 -0.67469186192E+03  0.67469186193E+03  0.25500000000E-02 0.  1.
    8880023    1    1    2    0    0 -0.25648687335E+03  0.71571070916E+02  0.98109894138E+03  0.12113105603E+04  0.65864270000E+03 0. -1.
    8880022    1    1    2    0    0  0.25648687335E+03 -0.71571070916E+02 -0.51745688084E+03  0.60171522412E+03  0.15294330000E+03 0.  0.
<mgrwt>
<rscale>  0 0.57604587E+03</rscale>
<asrwt>0</asrwt>
<pdfrwt beam="1">  1        2 0.17512829E+00 0.71043518E+03</pdfrwt>
<pdfrwt beam="2">  1       -2 0.10379875E+00 0.71043518E+03</pdfrwt>
<totfact> 0.15956622E+01</totfact>
</mgrwt>
</event>
<event>
 4    2  0.4111205E-007  0.6703306E+03  0.7818608E-02  0.1015427E+00
         -2   -1    0    0    0  501 -0.00000000000E+00  0.00000000000E+00  0.12530025385E+04  0.12530025385E+04  0.25500000000E-02 0.  1.
          2   -1    0    0  501    0  0.00000000000E+00 -0.00000000000E+00 -0.12321677527E+04  0.12321677527E+04  0.25500000000E-02 0. -1.
    8880023    1    1    2    0    0 -0.46181841235E+02 -0.11575875047E+03 -0.11319940702E+04  0.13155811005E+04  0.65864270000E+03 0. -1.
    8880022    1    1    2    0    0  0.46181841235E+02  0.11575875047E+03  0.11528288560E+04  0.11695891907E+04  0.15294330000E+03 0.  0.
<mgrwt>
<rscale>  0 0.49373583E+03</rscale>
<asrwt>0</asrwt>
<pdfrwt beam="1">  1        2 0.18956427E+00 0.67033056E+03</pdfrwt>
<pdfrwt beam="2">  1       -2 0.19276962E+00 0.67033056E+03</pdfrwt>
<totfact> 0.28003367E+00</totfact>
</mgrwt>
</event>
<event>
 4    2  0.3171963E-007  0.7387771E+03  0.7818608E-02  0.9863524E-01
         -2   -1    0    0    0  501 -0.00000000000E+00  0.00000000000E+00  0.11859259642E+03  0.11859259645E+03  0.25500000000E-02 0.  1.
          2   -1    0    0  501    0  0.00000000000E+00 -0.00000000000E+00 -0.33466618462E+04  0.33466618462E+04  0.25500000000E-02 0. -1.
    8880023    1    1    2    0    0  0.16620196266E+03  0.29044511819E+03 -0.28228343671E+04  0.29179077315E+04  0.65864270000E+03 0. -1.
    8880022    1    1    2    0    0 -0.16620196266E+03 -0.29044511819E+03 -0.40523488264E+03  0.54734671114E+03  0.15294330000E+03 0.  0.
<mgrwt>
<rscale>  0 0.62062125E+03</rscale>
<asrwt>0</asrwt>
<pdfrwt beam="1">  1        2 0.51487098E+00 0.73877714E+03</pdfrwt>
<pdfrwt beam="2">  1       -2 0.18245017E-01 0.73877714E+03</pdfrwt>
<totfact> 0.27821902E+01</totfact>
</mgrwt>
</event>
<event>
 4    2  0.3171963E-007  0.7122226E+03  0.7818608E-02  0.9949839E-01
          2   -1    0    0  501    0  0.00000000000E+00  0.00000000000E+00  0.34372659619E+04  0.34372659619E+04  0.25500000000E-02 0. -1.
         -2   -1    0    0    0  501 -0.00000000000E+00 -0.00000000000E+00 -0.14728155132E+03  0.14728155134E+03  0.25500000000E-02 0.  1.
    8880023    1    1    2    0    0  0.17619810019E+03  0.20592472410E+03  0.31732221135E+04  0.32521684382E+04  0.65864270000E+03 0. -1.
    8880022    1    1    2    0    0 -0.17619810019E+03 -0.20592472410E+03  0.11676229709E+03  0.33237907507E+03  0.15294330000E+03 0.  0.
<mgrwt>
<rscale>  0 0.57905524E+03</rscale>
<asrwt>0</asrwt>
<pdfrwt beam="1">  1        2 0.52881012E+00 0.71222256E+03</pdfrwt>
<pdfrwt beam="2">  1       -2 0.22658701E-01 0.71222256E+03</pdfrwt>
<totfact> 0.16646026E+01</totfact>
</mgrwt>
</event>
<event>
 4    2  0.3171963E-007  0.7571903E+03  0.7818608E-02  0.9812437E-01
         -2   -1    0    0    0  501 -0.00000000000E+00  0.00000000000E+00  0.50488228551E+03  0.50488228551E+03  0.25500000000E-02 0.  1.
          2   -1    0    0  501    0  0.00000000000E+00 -0.00000000000E+00 -0.77054926452E+03  0.77054926452E+03  0.25500000000E-02 0. -1.
    8880023    1    1    2    0    0 -0.34187400328E+03  0.15049601861E+03 -0.39179894552E+03  0.85255117483E+03  0.65864270000E+03 0. -1.
    8880022    1    1    2    0    0  0.34187400328E+03 -0.15049601861E+03  0.12613196651E+03  0.42288037520E+03  0.15294330000E+03 0.  0.
<mgrwt>
<rscale>  0 0.64699374E+03</rscale>
<asrwt>0</asrwt>
<pdfrwt beam="1">  1        2 0.11854604E+00 0.75719026E+03</pdfrwt>
<pdfrwt beam="2">  1       -2 0.77674198E-01 0.75719026E+03</pdfrwt>
<totfact> 0.54145686E+01</totfact>
</mgrwt>
</event>
<event>
 4    2  0.3171963E-007  0.7014582E+03  0.7818608E-02  0.9991205E-01
          2   -1    0    0  501    0  0.00000000000E+00  0.00000000000E+00  0.19666576620E+04  0.19666576620E+04  0.25500000000E-02 0. -1.
         -2   -1    0    0    0  501 -0.00000000000E+00 -0.00000000000E+00 -0.30172383128E+03  0.30172383129E+03  0.25500000000E-02 0.  1.
    8880023    1    1    2    0    0 -0.13872709408E+03 -0.19745438076E+03  0.18148804164E+04  0.19457221207E+04  0.65864270000E+03 0. -1.
    8880022    1    1    2    0    0  0.13872709408E+03  0.19745438076E+03 -0.14994658568E+03  0.32265937254E+03  0.15294330000E+03 0.  0.
<mgrwt>
<rscale>  0 0.56037573E+03</rscale>
<asrwt>0</asrwt>
<pdfrwt beam="1">  1        2 0.30256271E+00 0.70145823E+03</pdfrwt>
<pdfrwt beam="2">  1       -2 0.46419052E-01 0.70145823E+03</pdfrwt>
<totfact> 0.31855227E+01</totfact>
</mgrwt>
</event>
<event>
 4    2  0.3171963E-007  0.7927203E+03  0.7818608E-02  0.9726763E-01
          2   -1    0    0  501    0  0.00000000000E+00  0.00000000000E+00  0.19982965812E+04  0.19982965812E+04  0.25500000000E-02 0. -1.
         -2   -1    0    0    0  501 -0.00000000000E+00 -0.00000000000E+00 -0.91994187072E+03  0.91994187072E+03  0.25500000000E-02 0.  1.
    8880023    1    1    2    0    0 -0.44093570765E+03 -0.13073849584E+02 -0.71351509777E+03  0.10665407750E+04  0.65864270000E+03 0.  1.
    8880022    1    1    2    0    0  0.44093570765E+03  0.13073849584E+02  0.17918698083E+04  0.18516976769E+04  0.15294330000E+03 0.  0.
<mgrwt>
<rscale>  0 0.69445445E+03</rscale>
<asrwt>0</asrwt>
<pdfrwt beam="1">  1        2 0.30743024E+00 0.79272027E+03</pdfrwt>
<pdfrwt beam="2">  1       -2 0.14152952E+00 0.79272027E+03</pdfrwt>
<totfact> 0.24070302E+00</totfact>
</mgrwt>
</event>
<event>
 4    2  0.3171963E-007  0.7824881E+03  0.7818608E-02  0.9750025E-01
          2   -1    0    0  501    0  0.00000000000E+00  0.00000000000E+00  0.17195341871E+04  0.17195341871E+04  0.25500000000E-02 0. -1.
         -2   -1    0    0    0  501 -0.00000000000E+00 -0.00000000000E+00 -0.28154521811E+03  0.28154521812E+03  0.25500000000E-02 0.  1.
    8880023    1    1    2    0    0 -0.30999627444E+03 -0.28701862266E+03  0.13233576273E+04  0.15373883686E+04  0.65864270000E+03 0. -1.
    8880022    1    1    2    0    0  0.30999627444E+03  0.28701862266E+03  0.11463134168E+03  0.46369103661E+03  0.15294330000E+03 0.  0.
<mgrwt>
<rscale>  0 0.68114882E+03</rscale>
<asrwt>0</asrwt>
<pdfrwt beam="1">  1        2 0.26454373E+00 0.78248807E+03</pdfrwt>
<pdfrwt beam="2">  1       -2 0.43314648E-01 0.78248807E+03</pdfrwt>
<totfact> 0.49377221E+01</totfact>
</mgrwt>
</event>
<event>
 4    2  0.3171963E-007  0.9577697E+03  0.7818608E-02  0.9439022E-01
          2   -1    0    0  501    0  0.00000000000E+00  0.00000000000E+00  0.22764640427E+04  0.22764640427E+04  0.25500000000E-02 0. -1.
         -2   -1    0    0    0  501 -0.00000000000E+00 -0.00000000000E+00 -0.37112711451E+03  0.37112711452E+03  0.25500000000E-02 0.  1.
    8880023    1    1    2    0    0 -0.66894092820E+03 -0.18981743043E+03  0.16171735664E+04  0.18795140788E+04  0.65864270000E+03 0.  0.
    8880022    1    1    2    0    0  0.66894092820E+03  0.18981743043E+03  0.28816336182E+03  0.76807707844E+03  0.15294330000E+03 0.  0.
<mgrwt>
<rscale>  0 0.88932719E+03</rscale>
<asrwt>0</asrwt>
<pdfrwt beam="1">  1        2 0.35022523E+00 0.95776972E+03</pdfrwt>
<pdfrwt beam="2">  1       -2 0.57096480E-01 0.95776972E+03</pdfrwt>
<totfact> 0.13615161E+01</totfact>
</mgrwt>
</event>
<event>
 4    2  0.3171963E-007  0.9601598E+03  0.7818608E-02  0.9435645E-01
          2   -1    0    0  501    0  0.00000000000E+00  0.00000000000E+00  0.18017061858E+04  0.18017061858E+04  0.25500000000E-02 0. -1.
         -2   -1    0    0    0  501 -0.00000000000E+00 -0.00000000000E+00 -0.77626445877E+03  0.77626445877E+03  0.25500000000E-02 0.  1.
    8880023    1    1    2    0    0  0.84654126364E+02  0.69349142591E+03  0.14553304953E+04  0.17435291038E+04  0.65864270000E+03 0. -1.
    8880022    1    1    2    0    0 -0.84654126364E+02 -0.69349142591E+03 -0.42988876826E+03  0.83444154080E+03  0.15294330000E+03 0.  0.
<mgrwt>
<rscale>  0 0.89199437E+03</rscale>
<asrwt>0</asrwt>
<pdfrwt beam="1">  1        2 0.27718557E+00 0.96015982E+03</pdfrwt>
<pdfrwt beam="2">  1       -2 0.11942530E+00 0.96015982E+03</pdfrwt>
<totfact> 0.46339213E+00</totfact>
</mgrwt>
</event>
<event>
 4    2  0.3171963E-007  0.8776105E+03  0.7818608E-02  0.9562974E-01
          2   -1    0    0  501    0  0.00000000000E+00  0.00000000000E+00  0.83751477905E+03  0.83751477906E+03  0.25500000000E-02 0. -1.
         -2   -1    0    0    0  501 -0.00000000000E+00 -0.00000000000E+00 -0.68453547473E+03  0.68453547474E+03  0.25500000000E-02 0.  1.
    8880023    1    1    2    0    0  0.45841387030E+03  0.35531202314E+03  0.25435293949E+03  0.91372618128E+03  0.65864270000E+03 0.  0.
    8880022    1    1    2    0    0 -0.45841387030E+03 -0.35531202314E+03 -0.10137363517E+03  0.60832407251E+03  0.15294330000E+03 0.  0.
<mgrwt>
<rscale>  0 0.79796015E+03</rscale>
<asrwt>0</asrwt>
<pdfrwt beam="1">  1        2 0.12884843E+00 0.87761046E+03</pdfrwt>
<pdfrwt beam="2">  1       -2 0.10531315E+00 0.87761046E+03</pdfrwt>
<totfact> 0.23717000E+01</totfact>
</mgrwt>
</event>
<event>
 4    2  0.3171963E-007  0.1221140E+04  0.7818608E-02  0.9136842E-01
          2   -1    0    0  501    0  0.00000000000E+00  0.00000000000E+00  0.18110819500E+04  0.18110819500E+04  0.25500000000E-02 0. -1.
         -2   -1    0    0    0  501 -0.00000000000E+00 -0.00000000000E+00 -0.10976051963E+04  0.10976051963E+04  0.25500000000E-02 0.  1.
    8880023    1    1    2    0    0 -0.59591391424E+03 -0.83800877376E+03  0.12425900891E+04  0.17421861077E+04  0.65864270000E+03 0. -1.
    8880022    1    1    2    0    0  0.59591391424E+03  0.83800877376E+03 -0.52911333544E+03  0.11665010385E+04  0.15294330000E+03 0.  0.
<mgrwt>
<rscale>  0 0.11729794E+04</rscale>
<asrwt>0</asrwt>
<pdfrwt beam="1">  1        2 0.27862799E+00 0.12211398E+04</pdfrwt>
<pdfrwt beam="2">  1       -2 0.16886234E+00 0.12211398E+04</pdfrwt>
<totfact> 0.17901536E+00</totfact>
</mgrwt>
</event>
<event>
 4    2  0.3171963E-007  0.7066260E+03  0.7818608E-02  0.9970750E-01
         -2   -1    0    0    0  501 -0.00000000000E+00  0.00000000000E+00  0.39645128877E+03  0.39645128878E+03  0.25500000000E-02 0.  1.
          2   -1    0    0  501    0  0.00000000000E+00 -0.00000000000E+00 -0.26098037232E+04  0.26098037232E+04  0.25500000000E-02 0. -1.
    8880023    1    1    2    0    0  0.62417123017E+02  0.24822212387E+03 -0.24967973972E+04  0.25948636898E+04  0.65864270000E+03 0. -1.
    8880022    1    1    2    0    0 -0.62417123017E+02 -0.24822212387E+03  0.28344496274E+03  0.41139132215E+03  0.15294330000E+03 0.  0.
<mgrwt>
<rscale>  0 0.56951612E+03</rscale>
<asrwt>0</asrwt>
<pdfrwt beam="1">  1        2 0.40150826E+00 0.70662602E+03</pdfrwt>
<pdfrwt beam="2">  1       -2 0.60992507E-01 0.70662602E+03</pdfrwt>
<totfact> 0.79666618E+00</totfact>
</mgrwt>
</event>
<event>
 4    2  0.3171963E-007  0.6911836E+03  0.7818608E-02  0.1003595E+00
         -2   -1    0    0    0  501 -0.00000000000E+00  0.00000000000E+00  0.19254615235E+04  0.19254615235E+04  0.25500000000E-02 0.  1.
          2   -1    0    0  501    0  0.00000000000E+00 -0.00000000000E+00 -0.16958147395E+03  0.16958147397E+03  0.25500000000E-02 0. -1.
    8880023    1    1    2    0    0 -0.65532935426E+02  0.19907294276E+03  0.61547716496E+03  0.92549821665E+03  0.65864270000E+03 0. -1.
    8880022    1    1    2    0    0  0.65532935426E+02 -0.19907294276E+03  0.11404028846E+04  0.11695447808E+04  0.15294330000E+03 0.  0.
<mgrwt>
<rscale>  0 0.54101596E+03</rscale>
<asrwt>0</asrwt>
<pdfrwt beam="1">  1        2 0.26089459E-01 0.69118363E+03</pdfrwt>
<pdfrwt beam="2">  1       -2 0.29622483E+00 0.69118363E+03</pdfrwt>
<totfact> 0.73086153E+00</totfact>
</mgrwt>
</event>
<event>
 4    2  0.3171963E-007  0.8783129E+03  0.7818608E-02  0.9561784E-01
          2   -1    0    0  501    0  0.00000000000E+00  0.00000000000E+00  0.50284086449E+03  0.50284086449E+03  0.25500000000E-02 0. -1.
         -2   -1    0    0    0  501 -0.00000000000E+00 -0.00000000000E+00 -0.24731431952E+04  0.24731431952E+04  0.25500000000E-02 0.  1.
    8880023    1    1    2    0    0 -0.51527419256E+03 -0.26854382782E+03  0.38591648093E+02  0.87916028262E+03  0.65864270000E+03 0.  0.
    8880022    1    1    2    0    0  0.51527419256E+03  0.26854382782E+03 -0.20088939788E+04  0.20968237771E+04  0.15294330000E+03 0.  0.
<mgrwt>
<rscale>  0 0.79878073E+03</rscale>
<asrwt>0</asrwt>
<pdfrwt beam="1">  1        2 0.77360134E-01 0.87831286E+03</pdfrwt>
<pdfrwt beam="2">  1       -2 0.38048356E+00 0.87831286E+03</pdfrwt>
<totfact> 0.63064297E-01</totfact>
</mgrwt>
</event>
<event>
 4    2  0.3171963E-007  0.7334098E+03  0.7818608E-02  0.9879577E-01
         -2   -1    0    0    0  501 -0.00000000000E+00  0.00000000000E+00  0.49458357683E+03  0.49458357684E+03  0.25500000000E-02 0.  1.
          2   -1    0    0  501    0  0.00000000000E+00 -0.00000000000E+00 -0.21867151216E+04  0.21867151216E+04  0.25500000000E-02 0. -1.
    8880023    1    1    2    0    0  0.21357305419E+03  0.24179813260E+03 -0.20491171364E+04  0.21764124222E+04  0.65864270000E+03 0. -1.
    8880022    1    1    2    0    0 -0.21357305419E+03 -0.24179813260E+03  0.35698559159E+03  0.50488627632E+03  0.15294330000E+03 0.  0.
<mgrwt>
<rscale>  0 0.61261364E+03</rscale>
<asrwt>0</asrwt>
<pdfrwt beam="1">  1        2 0.33641771E+00 0.73340984E+03</pdfrwt>
<pdfrwt beam="2">  1       -2 0.76089782E-01 0.73340984E+03</pdfrwt>
<totfact> 0.84742257E+00</totfact>
</mgrwt>
</event>
<event>
 4    2  0.3171963E-007  0.7366711E+03  0.7818608E-02  0.9869752E-01
          2   -1    0    0  501    0  0.00000000000E+00  0.00000000000E+00  0.19067599490E+04  0.19067599490E+04  0.25500000000E-02 0. -1.
         -2   -1    0    0    0  501 -0.00000000000E+00 -0.00000000000E+00 -0.46666582237E+03  0.46666582238E+03  0.25500000000E-02 0.  1.
    8880023    1    1    2    0    0  0.32633203000E+03  0.48801360089E+02  0.17480102563E+04  0.18968985816E+04  0.65864270000E+03 0. -1.
    8880022    1    1    2    0    0 -0.32633203000E+03 -0.48801360089E+02 -0.30791612975E+03  0.47652718970E+03  0.15294330000E+03 0.  0.
<mgrwt>
<rscale>  0 0.61749891E+03</rscale>
<asrwt>0</asrwt>
<pdfrwt beam="1">  1        2 0.29334768E+00 0.73667114E+03</pdfrwt>
<pdfrwt beam="2">  1       -2 0.71794743E-01 0.73667114E+03</pdfrwt>
<totfact> 0.13698603E+01</totfact>
</mgrwt>
</event>
<event>
 4    2  0.3171963E-007  0.7157977E+03  0.7818608E-02  0.9937070E-01
         -2   -1    0    0    0  501 -0.00000000000E+00  0.00000000000E+00  0.99623271446E+03  0.99623271447E+03  0.25500000000E-02 0.  1.
          2   -1    0    0  501    0  0.00000000000E+00 -0.00000000000E+00 -0.44218887335E+03  0.44218887336E+03  0.25500000000E-02 0. -1.
    8880023    1    1    2    0    0  0.80857338060E+02 -0.26836201691E+03 -0.88176656606E+02  0.72120829881E+03  0.65864270000E+03 0. -1.
    8880022    1    1    2    0    0 -0.80857338060E+02  0.26836201691E+03  0.64222049772E+03  0.71721328902E+03  0.15294330000E+03 0.  0.
<mgrwt>
<rscale>  0 0.58497850E+03</rscale>
<asrwt>0</asrwt>
<pdfrwt beam="1">  1        2 0.68029058E-01 0.71579766E+03</pdfrwt>
<pdfrwt beam="2">  1       -2 0.15326657E+00 0.71579766E+03</pdfrwt>
<totfact> 0.20404932E+01</totfact>
</mgrwt>
</event>
<event>
 4    2  0.3171963E-007  0.6817432E+03  0.7818608E-02  0.1008354E+00
          2   -1    0    0  501    0  0.00000000000E+00  0.00000000000E+00  0.42197472095E+03  0.42197472096E+03  0.25500000000E-02 0. -1.
         -2   -1    0    0    0  501 -0.00000000000E+00 -0.00000000000E+00 -0.71547445909E+03  0.71547445910E+03  0.25500000000E-02 0.  1.
    8880023    1    1    2    0    0 -0.17588413645E+03  0.53201100377E+01  0.90998163211E+02  0.68778950632E+03  0.65864270000E+03 0. -1.
    8880022    1    1    2    0    0  0.17588413645E+03 -0.53201100377E+01 -0.38449790135E+03  0.44965967374E+03  0.15294330000E+03 0.  0.
<mgrwt>
<rscale>  0 0.52133960E+03</rscale>
<asrwt>0</asrwt>
<pdfrwt beam="1">  1        2 0.64919188E-01 0.68174316E+03</pdfrwt>
<pdfrwt beam="2">  1       -2 0.11007299E+00 0.68174316E+03</pdfrwt>
<totfact> 0.49876322E+01</totfact>
</mgrwt>
</event>
<event>
 4    2  0.3171963E-007  0.1058516E+04  0.7818608E-02  0.9308714E-01
         -2   -1    0    0    0  501 -0.00000000000E+00  0.00000000000E+00  0.41645111603E+03  0.41645111603E+03  0.25500000000E-02 0.  1.
          2   -1    0    0  501    0  0.00000000000E+00 -0.00000000000E+00 -0.26880970662E+04  0.26880970662E+04  0.25500000000E-02 0. -1.
    8880023    1    1    2    0    0 -0.81142115430E+03  0.16805038593E+03 -0.56184248689E+03  0.11983832476E+04  0.65864270000E+03 0.  0.
    8880022    1    1    2    0    0  0.81142115430E+03 -0.16805038593E+03 -0.17098034633E+04  0.19061649346E+04  0.15294330000E+03 0.  0.
<mgrwt>
<rscale>  0 0.99984593E+03</rscale>
<asrwt>0</asrwt>
<pdfrwt beam="1">  1        2 0.41355338E+00 0.10585157E+04</pdfrwt>
<pdfrwt beam="2">  1       -2 0.64069404E-01 0.10585157E+04</pdfrwt>
<totfact> 0.61246216E+00</totfact>
</mgrwt>
</event>
<event>
 4    2  0.3171963E-007  0.7407282E+03  0.7818608E-02  0.9857831E-01
          2   -1    0    0  501    0  0.00000000000E+00  0.00000000000E+00  0.13859415133E+04  0.13859415133E+04  0.25500000000E-02 0. -1.
         -2   -1    0    0    0  501 -0.00000000000E+00 -0.00000000000E+00 -0.25709919151E+03  0.25709919152E+03  0.25500000000E-02 0.  1.
    8880023    1    1    2    0    0  0.17933895607E+03  0.28758576905E+03  0.10103364695E+04  0.12527801178E+04  0.65864270000E+03 0. -1.
    8880022    1    1    2    0    0 -0.17933895607E+03 -0.28758576905E+03  0.11850585227E+03  0.39026058700E+03  0.15294330000E+03 0.  0.
<mgrwt>
<rscale>  0 0.62349231E+03</rscale>
<asrwt>0</asrwt>
<pdfrwt beam="1">  1        2 0.21322177E+00 0.74072818E+03</pdfrwt>
<pdfrwt beam="2">  1       -2 0.39553722E-01 0.74072818E+03</pdfrwt>
<totfact> 0.90756985E+01</totfact>
</mgrwt>
</event>
<event>
 4    2  0.3171963E-007  0.7227348E+03  0.7818608E-02  0.9913439E-01
          2   -1    0    0  501    0  0.00000000000E+00  0.00000000000E+00  0.14351844449E+04  0.14351844449E+04  0.25500000000E-02 0. -1.
         -2   -1    0    0    0  501 -0.00000000000E+00 -0.00000000000E+00 -0.35267760151E+03  0.35267760152E+03  0.25500000000E-02 0.  1.
    8880023    1    1    2    0    0  0.19104675053E+03  0.22811510066E+03  0.75419810821E+02  0.72665928341E+03  0.65864270000E+03 0.  1.
    8880022    1    1    2    0    0 -0.19104675053E+03 -0.22811510066E+03  0.10070870326E+04  0.10612027630E+04  0.15294330000E+03 0.  0.
<mgrwt>
<rscale>  0 0.59614387E+03</rscale>
<asrwt>0</asrwt>
<pdfrwt beam="1">  1        2 0.22079761E+00 0.72273478E+03</pdfrwt>
<pdfrwt beam="2">  1       -2 0.54258092E-01 0.72273478E+03</pdfrwt>
<totfact> 0.45247623E+01</totfact>
</mgrwt>
</event>
<event>
 4    2  0.3171963E-007  0.7847628E+03  0.7818608E-02  0.9744766E-01
         -2   -1    0    0    0  501 -0.00000000000E+00  0.00000000000E+00  0.37144297609E+03  0.37144297610E+03  0.25500000000E-02 0.  1.
          2   -1    0    0  501    0  0.00000000000E+00 -0.00000000000E+00 -0.15847864474E+04  0.15847864474E+04  0.25500000000E-02 0. -1.
    8880023    1    1    2    0    0 -0.39623071709E+03 -0.15825205694E+03 -0.12766694728E+04  0.14985785411E+04  0.65864270000E+03 0.  0.
    8880022    1    1    2    0    0  0.39623071709E+03  0.15825205694E+03  0.63326001512E+02  0.45765088241E+03  0.15294330000E+03 0.  0.
<mgrwt>
<rscale>  0 0.68412884E+03</rscale>
<asrwt>0</asrwt>
<pdfrwt beam="1">  1        2 0.24381330E+00 0.78476283E+03</pdfrwt>
<pdfrwt beam="2">  1       -2 0.57145074E-01 0.78476283E+03</pdfrwt>
<totfact> 0.33308144E+01</totfact>
</mgrwt>
</event>
<event>
 4    2  0.3171963E-007  0.9748728E+03  0.7818608E-02  0.9415196E-01
          2   -1    0    0  501    0  0.00000000000E+00  0.00000000000E+00  0.37513598219E+04  0.37513598219E+04  0.25500000000E-02 0. -1.
         -2   -1    0    0    0  501 -0.00000000000E+00 -0.00000000000E+00 -0.28258115475E+03  0.28258115476E+03  0.25500000000E-02 0.  1.
    8880023    1    1    2    0    0 -0.71872536141E+03 -0.81787845658E+00  0.78576019647E+03  0.12521166506E+04  0.65864270000E+03 0.  0.
    8880022    1    1    2    0    0  0.71872536141E+03  0.81787845658E+00  0.26830184707E+04  0.27818243261E+04  0.15294330000E+03 0.  0.
<mgrwt>
<rscale>  0 0.90835585E+03</rscale>
<asrwt>0</asrwt>
<pdfrwt beam="1">  1        2 0.57713229E+00 0.97487282E+03</pdfrwt>
<pdfrwt beam="2">  1       -2 0.43474023E-01 0.97487282E+03</pdfrwt>
<totfact> 0.28155656E+00</totfact>
</mgrwt>
</event>
<event>
 4    2  0.3171963E-007  0.6739421E+03  0.7818608E-02  0.1012981E+00
          2   -1    0    0  501    0  0.00000000000E+00  0.00000000000E+00  0.14436699701E+03  0.14436699703E+03  0.25500000000E-02 0. -1.
         -2   -1    0    0    0  501 -0.00000000000E+00 -0.00000000000E+00 -0.22701912109E+04  0.22701912109E+04  0.25500000000E-02 0.  1.
    8880023    1    1    2    0    0  0.13721981061E+03 -0.39478199503E+02 -0.69347980904E+03  0.96701202499E+03  0.65864270000E+03 0. -1.
    8880022    1    1    2    0    0 -0.13721981061E+03  0.39478199503E+02 -0.14323444049E+04  0.14475461830E+04  0.15294330000E+03 0.  0.
<mgrwt>
<rscale>  0 0.50306692E+03</rscale>
<asrwt>0</asrwt>
<pdfrwt beam="1">  1        2 0.22210309E-01 0.67394214E+03</pdfrwt>
<pdfrwt beam="2">  1       -2 0.34926016E+00 0.67394214E+03</pdfrwt>
<totfact> 0.41985715E+00</totfact>
</mgrwt>
</event>
<event>
 4    2  0.3171963E-007  0.7266100E+03  0.7818608E-02  0.9900823E-01
          2   -1    0    0  501    0  0.00000000000E+00  0.00000000000E+00  0.21299137056E+04  0.21299137056E+04  0.25500000000E-02 0. -1.
         -2   -1    0    0    0  501 -0.00000000000E+00 -0.00000000000E+00 -0.29895360571E+03  0.29895360572E+03  0.25500000000E-02 0.  1.
    8880023    1    1    2    0    0  0.30618640861E+03 -0.20044267424E+02  0.18802841913E+03  0.75054432390E+03  0.65864270000E+03 0.  1.
    8880022    1    1    2    0    0 -0.30618640861E+03  0.20044267424E+02  0.16429316808E+04  0.16783229875E+04  0.15294330000E+03 0.  0.
<mgrwt>
<rscale>  0 0.60221404E+03</rscale>
<asrwt>0</asrwt>
<pdfrwt beam="1">  1        2 0.32767902E+00 0.72661000E+03</pdfrwt>
<pdfrwt beam="2">  1       -2 0.45992864E-01 0.72661000E+03</pdfrwt>
<totfact> 0.26335304E+01</totfact>
</mgrwt>
</event>
<event>
 4    2  0.3390963E-007  0.9882580E+03  0.7818608E-02  0.9397084E-01
         -2   -1    0    0    0  501 -0.00000000000E+00  0.00000000000E+00  0.17968914395E+04  0.17968914395E+04  0.25500000000E-02 0.  1.
          2   -1    0    0  501    0  0.00000000000E+00 -0.00000000000E+00 -0.12688948707E+04  0.12688948707E+04  0.25500000000E-02 0. -1.
    8880023    1    1    2    0    0  0.36733220092E+03 -0.63867884634E+03 -0.97291880339E+03  0.13868038141E+04  0.65864270000E+03 0.  0.
    8880022    1    1    2    0    0 -0.36733220092E+03  0.63867884634E+03  0.15009153722E+04  0.16789824961E+04  0.15294330000E+03 0.  0.
<mgrwt>
<rscale>  0 0.92316081E+03</rscale>
<asrwt>0</asrwt>
<pdfrwt beam="1">  1        2 0.19521460E+00 0.98825797E+03</pdfrwt>
<pdfrwt beam="2">  1       -2 0.27644484E+00 0.98825797E+03</pdfrwt>
<totfact> 0.76503036E-01</totfact>
</mgrwt>
</event>
<event>
 4    2  0.3272325E-007  0.6858267E+03  0.7818608E-02  0.1006203E+00
         -2   -1    0    0    0  501 -0.00000000000E+00  0.00000000000E+00  0.68443360678E+03  0.68443360678E+03  0.25500000000E-02 0.  1.
          2   -1    0    0  501    0  0.00000000000E+00 -0.00000000000E+00 -0.17738854100E+04  0.17738854100E+04  0.25500000000E-02 0. -1.
    8880023    1    1    2    0    0 -0.18996578925E+03 -0.21472111695E+02 -0.16823983795E+04  0.18168166022E+04  0.65864270000E+03 0. -1.
    8880022    1    1    2    0    0  0.18996578925E+03  0.21472111695E+02  0.59294657621E+03  0.64150241458E+03  0.15294330000E+03 0.  0.
<mgrwt>
<rscale>  0 0.53012113E+03</rscale>
<asrwt>0</asrwt>
<pdfrwt beam="1">  1        2 0.27290545E+00 0.68582670E+03</pdfrwt>
<pdfrwt beam="2">  1       -2 0.10529748E+00 0.68582670E+03</pdfrwt>
<totfact> 0.67822386E+00</totfact>
</mgrwt>
</event>
<event>
 4    2  0.3171963E-007  0.7045785E+03  0.7818608E-02  0.9978713E-01
         -2   -1    0    0    0  501 -0.00000000000E+00  0.00000000000E+00  0.70373758908E+03  0.70373758909E+03  0.25500000000E-02 0.  1.
          2   -1    0    0  501    0  0.00000000000E+00 -0.00000000000E+00 -0.21461438849E+04  0.21461438849E+04  0.25500000000E-02 0. -1.
    8880023    1    1    2    0    0  0.22274317719E+03 -0.11404449447E+03 -0.20540648954E+04  0.21715463317E+04  0.65864270000E+03 0. -1.
    8880022    1    1    2    0    0 -0.22274317719E+03  0.11404449447E+03  0.61165859965E+03  0.67833514227E+03  0.15294330000E+03 0.  0.
<mgrwt>
<rscale>  0 0.56593575E+03</rscale>
<asrwt>0</asrwt>
<pdfrwt beam="1">  1        2 0.33017598E+00 0.70457851E+03</pdfrwt>
<pdfrwt beam="2">  1       -2 0.10826732E+00 0.70457851E+03</pdfrwt>
<totfact> 0.39636990E+00</totfact>
</mgrwt>
</event>
<event>
 4    2  0.3171963E-007  0.6748535E+03  0.7818608E-02  0.1012399E+00
         -2   -1    0    0    0  501 -0.00000000000E+00  0.00000000000E+00  0.32727050463E+03  0.32727050464E+03  0.25500000000E-02 0.  1.
          2   -1    0    0  501    0  0.00000000000E+00 -0.00000000000E+00 -0.18604121040E+04  0.18604121040E+04  0.25500000000E-02 0. -1.
    8880023    1    1    2    0    0 -0.76508108581E+02  0.12555319519E+03 -0.17552619498E+04  0.18805243456E+04  0.65864270000E+03 0. -1.
    8880022    1    1    2    0    0  0.76508108581E+02 -0.12555319519E+03  0.22212035043E+03  0.30715826310E+03  0.15294330000E+03 0.  0.
<mgrwt>
<rscale>  0 0.50532323E+03</rscale>
<asrwt>0</asrwt>
<pdfrwt beam="1">  1        2 0.28621724E+00 0.67485354E+03</pdfrwt>
<pdfrwt beam="2">  1       -2 0.50349310E-01 0.67485354E+03</pdfrwt>
<totfact> 0.30992492E+01</totfact>
</mgrwt>
</event>
<event>
 4    2  0.3171963E-007  0.9990368E+03  0.7818608E-02  0.9382819E-01
          2   -1    0    0  501    0  0.00000000000E+00  0.00000000000E+00  0.24856564848E+04  0.24856564848E+04  0.25500000000E-02 0. -1.
         -2   -1    0    0    0  501 -0.00000000000E+00 -0.00000000000E+00 -0.53829620810E+03  0.53829620811E+03  0.25500000000E-02 0.  1.
    8880023    1    1    2    0    0 -0.72589395861E+03  0.19324160083E+03  0.20203879630E+04  0.22538948695E+04  0.65864270000E+03 0. -1.
    8880022    1    1    2    0    0  0.72589395861E+03 -0.19324160083E+03 -0.73027686286E+02  0.77005782343E+03  0.15294330000E+03 0.  0.
<mgrwt>
<rscale>  0 0.93503209E+03</rscale>
<asrwt>0</asrwt>
<pdfrwt beam="1">  1        2 0.38240868E+00 0.99903682E+03</pdfrwt>
<pdfrwt beam="2">  1       -2 0.82814803E-01 0.99903682E+03</pdfrwt>
<totfact> 0.45811222E+00</totfact>
</mgrwt>
</event>
<event>
 4    2  0.3171963E-007  0.7488080E+03  0.7818608E-02  0.9834995E-01
         -2   -1    0    0    0  501 -0.00000000000E+00  0.00000000000E+00  0.12026843035E+04  0.12026843035E+04  0.25500000000E-02 0.  1.
          2   -1    0    0  501    0  0.00000000000E+00 -0.00000000000E+00 -0.28395721191E+03  0.28395721192E+03  0.25500000000E-02 0. -1.
    8880023    1    1    2    0    0 -0.26720126764E+03 -0.23559860864E+03  0.43234637261E+03  0.86465994124E+03  0.65864270000E+03 0.  0.
    8880022    1    1    2    0    0  0.26720126764E+03  0.23559860864E+03  0.48638071901E+03  0.62198157421E+03  0.15294330000E+03 0.  0.
<mgrwt>
<rscale>  0 0.63517863E+03</rscale>
<asrwt>0</asrwt>
<pdfrwt beam="1">  1        2 0.43685725E-01 0.74880800E+03</pdfrwt>
<pdfrwt beam="2">  1       -2 0.18502835E+00 0.74880800E+03</pdfrwt>
<totfact> 0.19847699E+01</totfact>
</mgrwt>
</event>
<event>
 4    2  0.5771706E-007  0.1093275E+04  0.7818608E-02  0.9268581E-01
          2   -1    0    0  501    0  0.00000000000E+00  0.00000000000E+00  0.23396905944E+04  0.23396905944E+04  0.25500000000E-02 0. -1.
         -2   -1    0    0    0  501 -0.00000000000E+00 -0.00000000000E+00 -0.15112743101E+04  0.15112743101E+04  0.25500000000E-02 0.  1.
    8880023    1    1    2    0    0 -0.70633349880E+03  0.51237933411E+03  0.20610136710E+04  0.23330296080E+04  0.65864270000E+03 0. -1.
    8880022    1    1    2    0    0  0.70633349880E+03 -0.51237933411E+03 -0.12325973867E+04  0.15179352965E+04  0.15294330000E+03 0.  0.
<mgrwt>
<rscale>  0 0.10372753E+04</rscale>
<asrwt>0</asrwt>
<pdfrwt beam="1">  1        2 0.35995240E+00 0.10932748E+04</pdfrwt>
<pdfrwt beam="2">  1       -2 0.23250374E+00 0.10932748E+04</pdfrwt>
<totfact> 0.35168008E-01</totfact>
</mgrwt>
</event>
<event>
 4    2  0.3171963E-007  0.8002381E+03  0.7818608E-02  0.9710282E-01
          2   -1    0    0  501    0  0.00000000000E+00  0.00000000000E+00  0.13340247034E+04  0.13340247034E+04  0.25500000000E-02 0. -1.
         -2   -1    0    0    0  501 -0.00000000000E+00 -0.00000000000E+00 -0.43463575257E+03  0.43463575257E+03  0.25500000000E-02 0.  1.
    8880023    1    1    2    0    0  0.21924113101E+02 -0.45397147172E+03  0.99786742170E+03  0.12791092062E+04  0.65864270000E+03 0.  0.
    8880022    1    1    2    0    0 -0.21924113101E+02  0.45397147172E+03 -0.98478470894E+02  0.48955124973E+03  0.15294330000E+03 0.  0.
<mgrwt>
<rscale>  0 0.70407920E+03</rscale>
<asrwt>0</asrwt>
<pdfrwt beam="1">  1        2 0.20523457E+00 0.80023807E+03</pdfrwt>
<pdfrwt beam="2">  1       -2 0.66867039E-01 0.80023807E+03</pdfrwt>
<totfact> 0.32929030E+01</totfact>
</mgrwt>
</event>
<event>
 4    2  0.3171963E-007  0.8777722E+03  0.7818608E-02  0.9562700E-01
          2   -1    0    0  501    0  0.00000000000E+00  0.00000000000E+00  0.87021683653E+03  0.87021683654E+03  0.25500000000E-02 0. -1.
         -2   -1    0    0    0  501 -0.00000000000E+00 -0.00000000000E+00 -0.12346201820E+04  0.12346201820E+04  0.25500000000E-02 0.  1.
    8880023    1    1    2    0    0  0.57677913351E+03  0.63242392012E+02  0.53179743560E+03  0.10263003887E+04  0.65864270000E+03 0.  0.
    8880022    1    1    2    0    0 -0.57677913351E+03 -0.63242392012E+02 -0.89620078110E+03  0.10785366299E+04  0.15294330000E+03 0.  0.
<mgrwt>
<rscale>  0 0.79814911E+03</rscale>
<asrwt>0</asrwt>
<pdfrwt beam="1">  1        2 0.13387951E+00 0.87777217E+03</pdfrwt>
<pdfrwt beam="2">  1       -2 0.18994157E+00 0.87777217E+03</pdfrwt>
<totfact> 0.47914786E+00</totfact>
</mgrwt>
</event>
<event>
 4    2  0.3171963E-007  0.7432297E+03  0.7818608E-02  0.9850637E-01
          2   -1    0    0  501    0  0.00000000000E+00  0.00000000000E+00  0.25463395369E+04  0.25463395369E+04  0.25500000000E-02 0. -1.
         -2   -1    0    0    0  501 -0.00000000000E+00 -0.00000000000E+00 -0.19426498397E+03  0.19426498399E+03  0.25500000000E-02 0.  1.
    8880023    1    1    2    0    0  0.51126442138E+02  0.34053824238E+03  0.61958076027E+03  0.96761083725E+03  0.65864270000E+03 0.  0.
    8880022    1    1    2    0    0 -0.51126442138E+02 -0.34053824238E+03  0.17324937927E+04  0.17729936837E+04  0.15294330000E+03 0.  0.
<mgrwt>
<rscale>  0 0.62714445E+03</rscale>
<asrwt>0</asrwt>
<pdfrwt beam="1">  1        2 0.39174454E+00 0.74322972E+03</pdfrwt>
<pdfrwt beam="2">  1       -2 0.29886921E-01 0.74322972E+03</pdfrwt>
<totfact> 0.35285623E+01</totfact>
</mgrwt>
</event>
<event>
 4    2  0.3171963E-007  0.7308406E+03  0.7818608E-02  0.9887479E-01
         -2   -1    0    0    0  501 -0.00000000000E+00  0.00000000000E+00  0.38687805857E+03  0.38687805858E+03  0.25500000000E-02 0.  1.
          2   -1    0    0  501    0  0.00000000000E+00 -0.00000000000E+00 -0.88814182104E+03  0.88814182104E+03  0.25500000000E-02 0. -1.
    8880023    1    1    2    0    0  0.17213346288E+03  0.26587197718E+03 -0.55700996790E+03  0.91890595161E+03  0.65864270000E+03 0.  0.
    8880022    1    1    2    0    0 -0.17213346288E+03 -0.26587197718E+03  0.55746205440E+02  0.35611392801E+03  0.15294330000E+03 0.  0.
<mgrwt>
<rscale>  0 0.60871975E+03</rscale>
<asrwt>0</asrwt>
<pdfrwt beam="1">  1        2 0.13663720E+00 0.73084064E+03</pdfrwt>
<pdfrwt beam="2">  1       -2 0.59519702E-01 0.73084064E+03</pdfrwt>
<totfact> 0.79866174E+01</totfact>
</mgrwt>
</event>
<event>
 4    2  0.3171963E-007  0.7400269E+03  0.7818608E-02  0.9859869E-01
         -2   -1    0    0    0  501 -0.00000000000E+00  0.00000000000E+00  0.16470445522E+03  0.16470445524E+03  0.25500000000E-02 0.  1.
          2   -1    0    0  501    0  0.00000000000E+00 -0.00000000000E+00 -0.19081348597E+04  0.19081348597E+04  0.25500000000E-02 0. -1.
    8880023    1    1    2    0    0  0.28629163698E+03 -0.17851251085E+03 -0.12914817895E+04  0.14884774223E+04  0.65864270000E+03 0.  0.
    8880022    1    1    2    0    0 -0.28629163698E+03  0.17851251085E+03 -0.45194861504E+03  0.58436189266E+03  0.15294330000E+03 0. -1.
<mgrwt>
<rscale>  0 0.62246267E+03</rscale>
<asrwt>0</asrwt>
<pdfrwt beam="1">  1        2 0.29355919E+00 0.74002691E+03</pdfrwt>
<pdfrwt beam="2">  1       -2 0.25339148E-01 0.74002691E+03</pdfrwt>
<totfact> 0.10776453E+02</totfact>
</mgrwt>
</event>
<event>
 4    2  0.3171963E-007  0.8509696E+03  0.7818608E-02  0.9609833E-01
          2   -1    0    0  501    0  0.00000000000E+00  0.00000000000E+00  0.19956559143E+04  0.19956559143E+04  0.25500000000E-02 0. -1.
         -2   -1    0    0    0  501 -0.00000000000E+00 -0.00000000000E+00 -0.42225889148E+03  0.42225889148E+03  0.25500000000E-02 0.  1.
    8880023    1    1    2    0    0  0.42567258892E+03 -0.33036630785E+03  0.11882437155E+03  0.85922551629E+03  0.65864270000E+03 0.  1.
    8880022    1    1    2    0    0 -0.42567258892E+03  0.33036630785E+03  0.14545726513E+04  0.15586892895E+04  0.15294330000E+03 0.  0.
<mgrwt>
<rscale>  0 0.76648765E+03</rscale>
<asrwt>0</asrwt>
<pdfrwt beam="1">  1        2 0.30702398E+00 0.85096960E+03</pdfrwt>
<pdfrwt beam="2">  1       -2 0.64962907E-01 0.85096960E+03</pdfrwt>
<totfact> 0.14989064E+01</totfact>
</mgrwt>
</event>
<event>
 4    2  0.3171963E-007  0.6779397E+03  0.7818608E-02  0.1010514E+00
          2   -1    0    0  501    0  0.00000000000E+00  0.00000000000E+00  0.95388635364E+03  0.95388635365E+03  0.25500000000E-02 0. -1.
         -2   -1    0    0    0  501 -0.00000000000E+00 -0.00000000000E+00 -0.21927272511E+03  0.21927272512E+03  0.25500000000E-02 0.  1.
    8880023    1    1    2    0    0  0.84647121416E+02 -0.13648022275E+03  0.63909709942E+03  0.93169055760E+03  0.65864270000E+03 0.  0.
    8880022    1    1    2    0    0 -0.84647121416E+02  0.13648022275E+03  0.95516529117E+02  0.24146852117E+03  0.15294330000E+03 0. -1.
<mgrwt>
<rscale>  0 0.51270891E+03</rscale>
<asrwt>0</asrwt>
<pdfrwt beam="1">  1        2 0.14675175E+00 0.67793967E+03</pdfrwt>
<pdfrwt beam="2">  1       -2 0.33734265E-01 0.67793967E+03</pdfrwt>
<totfact> 0.22480708E+02</totfact>
</mgrwt>
</event>
<event>
 4    2  0.3171963E-007  0.1113316E+04  0.7818608E-02  0.9246374E-01
          2   -1    0    0  501    0  0.00000000000E+00  0.00000000000E+00  0.19167886362E+04  0.19167886363E+04  0.25500000000E-02 0. -1.
         -2   -1    0    0    0  501 -0.00000000000E+00 -0.00000000000E+00 -0.16358288001E+04  0.16358288001E+04  0.25500000000E-02 0.  1.
    8880023    1    1    2    0    0 -0.83986378133E+03  0.31668690651E+03  0.16003703534E+04  0.19495274408E+04  0.65864270000E+03 0.  0.
    8880022    1    1    2    0    0  0.83986378133E+03 -0.31668690651E+03 -0.13194105173E+04  0.16030899956E+04  0.15294330000E+03 0.  0.
<mgrwt>
<rscale>  0 0.10587333E+04</rscale>
<asrwt>0</asrwt>
<pdfrwt beam="1">  1        2 0.29489056E+00 0.11133158E+04</pdfrwt>
<pdfrwt beam="2">  1       -2 0.25166597E+00 0.11133158E+04</pdfrwt>
<totfact> 0.45935582E-01</totfact>
</mgrwt>
</event>
<event>
 4    2  0.3171963E-007  0.7627033E+03  0.7818608E-02  0.9798159E-01
         -2   -1    0    0    0  501 -0.00000000000E+00  0.00000000000E+00  0.43065848514E+03  0.43065848515E+03  0.25500000000E-02 0.  1.
          2   -1    0    0  501    0  0.00000000000E+00 -0.00000000000E+00 -0.10573403049E+04  0.10573403049E+04  0.25500000000E-02 0. -1.
    8880023    1    1    2    0    0 -0.16057700623E+03  0.34945832829E+03 -0.73601296891E+03  0.10599204663E+04  0.65864270000E+03 0.  0.
    8880022    1    1    2    0    0  0.16057700623E+03 -0.34945832829E+03  0.10933114912E+03  0.42807832382E+03  0.15294330000E+03 0.  0.
<mgrwt>
<rscale>  0 0.65461458E+03</rscale>
<asrwt>0</asrwt>
<pdfrwt beam="1">  1        2 0.16266774E+00 0.76270329E+03</pdfrwt>
<pdfrwt beam="2">  1       -2 0.66255152E-01 0.76270329E+03</pdfrwt>
<totfact> 0.49246126E+01</totfact>
</mgrwt>
</event>
<event>
 4    2  0.3171963E-007  0.9548432E+03  0.7818608E-02  0.9443180E-01
          2   -1    0    0  501    0  0.00000000000E+00  0.00000000000E+00  0.12402430685E+04  0.12402430685E+04  0.25500000000E-02 0. -1.
         -2   -1    0    0    0  501 -0.00000000000E+00 -0.00000000000E+00 -0.56432440459E+03  0.56432440460E+03  0.25500000000E-02 0.  1.
    8880023    1    1    2    0    0  0.67143487058E+03  0.16459190779E+03  0.48649800834E+03  0.10716369721E+04  0.65864270000E+03 0.  1.
    8880022    1    1    2    0    0 -0.67143487058E+03 -0.16459190779E+03  0.18942065556E+03  0.73293050101E+03  0.15294330000E+03 0. -1.
<mgrwt>
<rscale>  0 0.88605769E+03</rscale>
<asrwt>0</asrwt>
<pdfrwt beam="1">  1        2 0.19080662E+00 0.95484317E+03</pdfrwt>
<pdfrwt beam="2">  1       -2 0.86819141E-01 0.95484317E+03</pdfrwt>
<totfact> 0.20560128E+01</totfact>
</mgrwt>
</event>
<event>
 4    2  0.3171963E-007  0.8271265E+03  0.7818608E-02  0.9654949E-01
          2   -1    0    0  501    0  0.00000000000E+00  0.00000000000E+00  0.48321252620E+04  0.48321252620E+04  0.25500000000E-02 0. -1.
         -2   -1    0    0    0  501 -0.00000000000E+00 -0.00000000000E+00 -0.14707242668E+03  0.14707242671E+03  0.25500000000E-02 0.  1.
    8880023    1    1    2    0    0  0.20387871569E+03  0.45690426537E+03  0.41471363888E+04  0.42288152563E+04  0.65864270000E+03 0. -1.
    8880022    1    1    2    0    0 -0.20387871569E+03 -0.45690426537E+03  0.53791644655E+03  0.75038243243E+03  0.15294330000E+03 0.  0.
<mgrwt>
<rscale>  0 0.73763617E+03</rscale>
<asrwt>0</asrwt>
<pdfrwt beam="1">  1        2 0.74340386E+00 0.82712650E+03</pdfrwt>
<pdfrwt beam="2">  1       -2 0.22626528E-01 0.82712650E+03</pdfrwt>
<totfact> 0.10661540E+00</totfact>
</mgrwt>
</event>
<event>
 4    2  0.3171963E-007  0.7774603E+03  0.7818608E-02  0.9761837E-01
          2   -1    0    0  501    0  0.00000000000E+00  0.00000000000E+00  0.24991524484E+04  0.24991524484E+04  0.25500000000E-02 0. -1.
         -2   -1    0    0    0  501 -0.00000000000E+00 -0.00000000000E+00 -0.17122065281E+03  0.17122065283E+03  0.25500000000E-02 0.  1.
    8880023    1    1    2    0    0  0.33352136641E+03  0.24371662791E+03  0.19141785405E+04  0.20660406549E+04  0.65864270000E+03 0.  0.
    8880022    1    1    2    0    0 -0.33352136641E+03 -0.24371662791E+03  0.41375325512E+03  0.60433244635E+03  0.15294330000E+03 0.  0.
<mgrwt>
<rscale>  0 0.67451427E+03</rscale>
<asrwt>0</asrwt>
<pdfrwt beam="1">  1        2 0.38448494E+00 0.77746029E+03</pdfrwt>
<pdfrwt beam="2">  1       -2 0.26341642E-01 0.77746029E+03</pdfrwt>
<totfact> 0.47115631E+01</totfact>
</mgrwt>
</event>
<event>
 4    2  0.3171963E-007  0.8640205E+03  0.7818608E-02  0.9586451E-01
          2   -1    0    0  501    0  0.00000000000E+00  0.00000000000E+00  0.37168856128E+04  0.37168856128E+04  0.25500000000E-02 0. -1.
         -2   -1    0    0    0  501 -0.00000000000E+00 -0.00000000000E+00 -0.39719206447E+03  0.39719206448E+03  0.25500000000E-02 0.  1.
    8880023    1    1    2    0    0 -0.45746128008E+03 -0.32163698659E+03  0.34184702580E+04  0.35259708288E+04  0.65864270000E+03 0. -1.
    8880022    1    1    2    0    0  0.45746128008E+03  0.32163698659E+03 -0.98776709692E+02  0.58810684854E+03  0.15294330000E+03 0.  0.
<mgrwt>
<rscale>  0 0.78199443E+03</rscale>
<asrwt>0</asrwt>
<pdfrwt beam="1">  1        2 0.57182854E+00 0.86402047E+03</pdfrwt>
<pdfrwt beam="2">  1       -2 0.61106474E-01 0.86402047E+03</pdfrwt>
<totfact> 0.15126899E+00</totfact>
</mgrwt>
</event>
<event>
 4    2  0.3171963E-007  0.7268244E+03  0.7818608E-02  0.9900136E-01
         -2   -1    0    0    0  501 -0.00000000000E+00  0.00000000000E+00  0.18556573902E+03  0.18556573904E+03  0.25500000000E-02 0.  1.
          2   -1    0    0  501    0  0.00000000000E+00 -0.00000000000E+00 -0.30023706982E+04  0.30023706982E+04  0.25500000000E-02 0. -1.
    8880023    1    1    2    0    0  0.18096105328E+03  0.24842833214E+03 -0.27418482648E+04  0.28365481932E+04  0.65864270000E+03 0. -1.
    8880022    1    1    2    0    0 -0.18096105328E+03 -0.24842833214E+03 -0.74956694418E+02  0.35138824406E+03  0.15294330000E+03 0.  0.
<mgrwt>
<rscale>  0 0.60254672E+03</rscale>
<asrwt>0</asrwt>
<pdfrwt beam="1">  1        2 0.46190315E+00 0.72682443E+03</pdfrwt>
<pdfrwt beam="2">  1       -2 0.28548577E-01 0.72682443E+03</pdfrwt>
<totfact> 0.20739092E+01</totfact>
</mgrwt>
</event>
<event>
 4    2  0.3171963E-007  0.7785355E+03  0.7818608E-02  0.9759288E-01
         -2   -1    0    0    0  501 -0.00000000000E+00  0.00000000000E+00  0.94757925995E+03  0.94757925995E+03  0.25500000000E-02 0.  1.
          2   -1    0    0  501    0  0.00000000000E+00 -0.00000000000E+00 -0.61806089752E+03  0.61806089752E+03  0.25500000000E-02 0. -1.
    8880023    1    1    2    0    0 -0.40444682758E+02 -0.41312419243E+03 -0.26694699204E+03  0.82302993479E+03  0.65864270000E+03 0. -1.
    8880022    1    1    2    0    0  0.40444682758E+02  0.41312419243E+03  0.59646535447E+03  0.74261022268E+03  0.15294330000E+03 0.  0.
<mgrwt>
<rscale>  0 0.67593886E+03</rscale>
<asrwt>0</asrwt>
<pdfrwt beam="1">  1        2 0.95086292E-01 0.77853553E+03</pdfrwt>
<pdfrwt beam="2">  1       -2 0.14578142E+00 0.77853553E+03</pdfrwt>
<totfact> 0.15634059E+01</totfact>
</mgrwt>
</event>
<event>
 4    2  0.3171963E-007  0.1274009E+04  0.7818608E-02  0.9088336E-01
          2   -1    0    0  501    0  0.00000000000E+00  0.00000000000E+00  0.32709997455E+04  0.32709997455E+04  0.25500000000E-02 0. -1.
         -2   -1    0    0    0  501 -0.00000000000E+00 -0.00000000000E+00 -0.52763215119E+03  0.52763215119E+03  0.25500000000E-02 0.  1.
    8880023    1    1    2    0    0 -0.10905436412E+04  0.15891313844E+01  0.22634870890E+04  0.25973971523E+04  0.65864270000E+03 0.  0.
    8880022    1    1    2    0    0  0.10905436412E+04 -0.15891313844E+01  0.47988050535E+03  0.12012347444E+04  0.15294330000E+03 0.  0.
<mgrwt>
<rscale>  0 0.12284219E+04</rscale>
<asrwt>0</asrwt>
<pdfrwt beam="1">  1        2 0.50323074E+00 0.12740087E+04</pdfrwt>
<pdfrwt beam="2">  1       -2 0.81174175E-01 0.12740087E+04</pdfrwt>
<totfact> 0.15400526E+00</totfact>
</mgrwt>
</event>
<event>
 4    2  0.3171963E-007  0.8463522E+03  0.7818608E-02  0.9618317E-01
         -2   -1    0    0    0  501 -0.00000000000E+00  0.00000000000E+00  0.77028615521E+03  0.77028615522E+03  0.25500000000E-02 0.  1.
          2   -1    0    0  501    0  0.00000000000E+00 -0.00000000000E+00 -0.78118587174E+03  0.78118587175E+03  0.25500000000E-02 0. -1.
    8880023    1    1    2    0    0  0.44867640295E+03 -0.28494096138E+03 -0.33521762218E+03  0.91032023295E+03  0.65864270000E+03 0. -1.
    8880022    1    1    2    0    0 -0.44867640295E+03  0.28494096138E+03  0.32431790564E+03  0.64115179402E+03  0.15294330000E+03 0.  0.
<mgrwt>
<rscale>  0 0.76095616E+03</rscale>
<asrwt>0</asrwt>
<pdfrwt beam="1">  1        2 0.12018244E+00 0.84635222E+03</pdfrwt>
<pdfrwt beam="2">  1       -2 0.11850556E+00 0.84635222E+03</pdfrwt>
<totfact> 0.19583001E+01</totfact>
</mgrwt>
</event>
<event>
 4    2  0.3171963E-007  0.6868432E+03  0.7818608E-02  0.1005691E+00
         -2   -1    0    0    0  501 -0.00000000000E+00  0.00000000000E+00  0.21546550360E+03  0.21546550362E+03  0.25500000000E-02 0.  1.
          2   -1    0    0  501    0  0.00000000000E+00 -0.00000000000E+00 -0.23684564041E+04  0.23684564041E+04  0.25500000000E-02 0. -1.
    8880023    1    1    2    0    0  0.17865833068E+03 -0.77618386246E+02 -0.22228928462E+04  0.23265868187E+04  0.65864270000E+03 0. -1.
    8880022    1    1    2    0    0 -0.17865833068E+03  0.77618386246E+02  0.69901945716E+02  0.25733508901E+03  0.15294330000E+03 0.  0.
<mgrwt>
<rscale>  0 0.53223915E+03</rscale>
<asrwt>0</asrwt>
<pdfrwt beam="1">  1        2 0.36437789E+00 0.68684323E+03</pdfrwt>
<pdfrwt beam="2">  1       -2 0.33148541E-01 0.68684323E+03</pdfrwt>
<totfact> 0.36926166E+01</totfact>
</mgrwt>
</event>
<event>
 4    2  0.3171963E-007  0.9086602E+03  0.7818608E-02  0.9512270E-01
          2   -1    0    0  501    0  0.00000000000E+00  0.00000000000E+00  0.70878377296E+03  0.70878377297E+03  0.25500000000E-02 0. -1.
         -2   -1    0    0    0  501 -0.00000000000E+00 -0.00000000000E+00 -0.93784328891E+03  0.93784328891E+03  0.25500000000E-02 0.  1.
    8880023    1    1    2    0    0  0.23029837817E+02  0.62555798032E+03  0.11537587032E+03  0.91595576197E+03  0.65864270000E+03 0.  0.
    8880022    1    1    2    0    0 -0.23029837817E+02 -0.62555798032E+03 -0.34443538627E+03  0.73067129991E+03  0.15294330000E+03 0.  0.
<mgrwt>
<rscale>  0 0.83385235E+03</rscale>
<asrwt>0</asrwt>
<pdfrwt beam="1">  1        2 0.10904366E+00 0.90866020E+03</pdfrwt>
<pdfrwt beam="2">  1       -2 0.14428358E+00 0.90866020E+03</pdfrwt>
<totfact> 0.13388302E+01</totfact>
</mgrwt>
</event>
<event>
 4    2  0.3171963E-007  0.1078684E+04  0.7818608E-02  0.9285169E-01
          2   -1    0    0  501    0  0.00000000000E+00  0.00000000000E+00  0.39207516023E+04  0.39207516023E+04  0.25500000000E-02 0. -1.
         -2   -1    0    0    0  501 -0.00000000000E+00 -0.00000000000E+00 -0.41921136736E+03  0.41921136736E+03  0.25500000000E-02 0.  1.
    8880023    1    1    2    0    0  0.85299671689E+03  0.46314210667E+02  0.32677543175E+04  0.34411882964E+04  0.65864270000E+03 0. -1.
    8880022    1    1    2    0    0 -0.85299671689E+03 -0.46314210667E+02  0.23378591741E+03  0.89877467328E+03  0.15294330000E+03 0.  0.
<mgrwt>
<rscale>  0 0.10215981E+04</rscale>
<asrwt>0</asrwt>
<pdfrwt beam="1">  1        2 0.60319252E+00 0.10786837E+04</pdfrwt>
<pdfrwt beam="2">  1       -2 0.64494060E-01 0.10786837E+04</pdfrwt>
<totfact> 0.91107064E-01</totfact>
</mgrwt>
</event>
<event>
 4    2  0.3171963E-007  0.1437534E+04  0.7818608E-02  0.8955053E-01
          2   -1    0    0  501    0  0.00000000000E+00  0.00000000000E+00  0.25910453689E+04  0.25910453689E+04  0.25500000000E-02 0. -1.
         -2   -1    0    0    0  501 -0.00000000000E+00 -0.00000000000E+00 -0.10005322904E+04  0.10005322904E+04  0.25500000000E-02 0.  1.
    8880023    1    1    2    0    0  0.12476506468E+04  0.27579264218E+03  0.17830495407E+04  0.22903645100E+04  0.65864270000E+03 0.  0.
    8880022    1    1    2    0    0 -0.12476506468E+04 -0.27579264218E+03 -0.19253646212E+03  0.13012131494E+04  0.15294330000E+03 0.  0.
<mgrwt>
<rscale>  0 0.13982954E+04</rscale>
<asrwt>0</asrwt>
<pdfrwt beam="1">  1        2 0.39862236E+00 0.14375340E+04</pdfrwt>
<pdfrwt beam="2">  1       -2 0.15392805E+00 0.14375340E+04</pdfrwt>
<totfact> 0.81931569E-01</totfact>
</mgrwt>
</event>
<event>
 4    2  0.3171963E-007  0.1007414E+04  0.7818608E-02  0.9371921E-01
         -2   -1    0    0    0  501 -0.00000000000E+00  0.00000000000E+00  0.76148885182E+03  0.76148885183E+03  0.25500000000E-02 0.  1.
          2   -1    0    0  501    0  0.00000000000E+00 -0.00000000000E+00 -0.36657013309E+04  0.36657013309E+04  0.25500000000E-02 0. -1.
    8880023    1    1    2    0    0 -0.35496173932E+03 -0.67459282675E+03 -0.33723839798E+04  0.35196387928E+04  0.65864270000E+03 0. -1.
    8880022    1    1    2    0    0  0.35496173932E+03  0.67459282675E+03  0.46817150072E+03  0.90755138994E+03  0.15294330000E+03 0.  0.
<mgrwt>
<rscale>  0 0.94422929E+03</rscale>
<asrwt>0</asrwt>
<pdfrwt beam="1">  1        2 0.56395404E+00 0.10074143E+04</pdfrwt>
<pdfrwt beam="2">  1       -2 0.11715213E+00 0.10074143E+04</pdfrwt>
<totfact> 0.36115944E-01</totfact>
</mgrwt>
</event>
<event>
 4    2  0.3171963E-007  0.8602277E+03  0.7818608E-02  0.9593159E-01
         -2   -1    0    0    0  501 -0.00000000000E+00  0.00000000000E+00  0.49850175309E+03  0.49850175310E+03  0.25500000000E-02 0.  1.
          2   -1    0    0  501    0  0.00000000000E+00 -0.00000000000E+00 -0.12092434448E+04  0.12092434448E+04  0.25500000000E-02 0. -1.
    8880023    1    1    2    0    0  0.18626114340E+03 -0.52104532905E+03 -0.73742136525E+03  0.11330410075E+04  0.65864270000E+03 0.  0.
    8880022    1    1    2    0    0 -0.18626114340E+03  0.52104532905E+03  0.26679673557E+02  0.57470419040E+03  0.15294330000E+03 0.  0.
<mgrwt>
<rscale>  0 0.77750650E+03</rscale>
<asrwt>0</asrwt>
<pdfrwt beam="1">  1        2 0.18603745E+00 0.86022768E+03</pdfrwt>
<pdfrwt beam="2">  1       -2 0.76692578E-01 0.86022768E+03</pdfrwt>
<totfact> 0.28640438E+01</totfact>
</mgrwt>
</event>
<event>
 4    2  0.3171963E-007  0.1543877E+04  0.7818608E-02  0.8879259E-01
         -2   -1    0    0    0  501 -0.00000000000E+00  0.00000000000E+00  0.61796458741E+03  0.61796458742E+03  0.25500000000E-02 0.  1.
          2   -1    0    0  501    0  0.00000000000E+00 -0.00000000000E+00 -0.49988827656E+04  0.49988827656E+04  0.25500000000E-02 0. -1.
    8880023    1    1    2    0    0 -0.88773467013E+03 -0.10778089079E+04 -0.37910046928E+04  0.40933203727E+04  0.65864270000E+03 0.  0.
    8880022    1    1    2    0    0  0.88773467013E+03  0.10778089079E+04 -0.58991348543E+03  0.15235269804E+04  0.15294330000E+03 0.  0.
<mgrwt>
<rscale>  0 0.15078359E+04</rscale>
<asrwt>0</asrwt>
<pdfrwt beam="1">  1        2 0.76905886E+00 0.15438766E+04</pdfrwt>
<pdfrwt beam="2">  1       -2 0.95071479E-01 0.15438766E+04</pdfrwt>
<totfact> 0.31693078E-02</totfact>
</mgrwt>
</event>
<event>
 4    2  0.3171963E-007  0.1054571E+04  0.7818608E-02  0.9313407E-01
          2   -1    0    0  501    0  0.00000000000E+00  0.00000000000E+00  0.20715765811E+04  0.20715765812E+04  0.25500000000E-02 0. -1.
         -2   -1    0    0    0  501 -0.00000000000E+00 -0.00000000000E+00 -0.63646894955E+03  0.63646894956E+03  0.25500000000E-02 0.  1.
    8880023    1    1    2    0    0  0.40323199484E+03 -0.71813188884E+03  0.15372086826E+04  0.18641701080E+04  0.65864270000E+03 0. -1.
    8880022    1    1    2    0    0 -0.40323199484E+03  0.71813188884E+03 -0.10210105099E+03  0.84387542272E+03  0.15294330000E+03 0.  0.
<mgrwt>
<rscale>  0 0.99557926E+03</rscale>
<asrwt>0</asrwt>
<pdfrwt beam="1">  1        2 0.31870409E+00 0.10545708E+04</pdfrwt>
<pdfrwt beam="2">  1       -2 0.97918299E-01 0.10545708E+04</pdfrwt>
<totfact> 0.52650788E+00</totfact>
</mgrwt>
</event>
<event>
 4    2  0.3171963E-007  0.7424009E+03  0.7818608E-02  0.9853008E-01
         -2   -1    0    0    0  501 -0.00000000000E+00  0.00000000000E+00  0.58348908134E+03  0.58348908135E+03  0.25500000000E-02 0.  1.
          2   -1    0    0  501    0  0.00000000000E+00 -0.00000000000E+00 -0.75423443921E+03  0.75423443922E+03  0.25500000000E-02 0. -1.
    8880023    1    1    2    0    0  0.57375906648E+02 -0.33772302893E+03 -0.45170862629E+03  0.86902228295E+03  0.65864270000E+03 0.  0.
    8880022    1    1    2    0    0 -0.57375906648E+02  0.33772302893E+03  0.28096326842E+03  0.46870123762E+03  0.15294330000E+03 0.  0.
<mgrwt>
<rscale>  0 0.62593788E+03</rscale>
<asrwt>0</asrwt>
<pdfrwt beam="1">  1        2 0.11603607E+00 0.74240087E+03</pdfrwt>
<pdfrwt beam="2">  1       -2 0.89767551E-01 0.74240087E+03</pdfrwt>
<totfact> 0.40137204E+01</totfact>
</mgrwt>
</event>
<event>
 4    2  0.3171963E-007  0.1040833E+04  0.7818608E-02  0.9329983E-01
          2   -1    0    0  501    0  0.00000000000E+00  0.00000000000E+00  0.16653424779E+04  0.16653424779E+04  0.25500000000E-02 0. -1.
         -2   -1    0    0    0  501 -0.00000000000E+00 -0.00000000000E+00 -0.13694268270E+04  0.13694268270E+04  0.25500000000E-02 0.  1.
    8880023    1    1    2    0    0 -0.10670212470E+03  0.79883546285E+03  0.13464883732E+04  0.17018709075E+04  0.65864270000E+03 0.  0.
    8880022    1    1    2    0    0  0.10670212470E+03 -0.79883546285E+03 -0.10505727223E+04  0.13328983975E+04  0.15294330000E+03 0.  0.
<mgrwt>
<rscale>  0 0.98068802E+03</rscale>
<asrwt>0</asrwt>
<pdfrwt beam="1">  1        2 0.25620654E+00 0.10408332E+04</pdfrwt>
<pdfrwt beam="2">  1       -2 0.21068105E+00 0.10408332E+04</pdfrwt>
<totfact> 0.11505063E+00</totfact>
</mgrwt>
</event>
<event>
 4    2  0.3171963E-007  0.6677794E+03  0.7818608E-02  0.1017307E+00
          2   -1    0    0  501    0  0.00000000000E+00  0.00000000000E+00  0.10656265111E+04  0.10656265111E+04  0.25500000000E-02 0. -1.
         -2   -1    0    0    0  501 -0.00000000000E+00 -0.00000000000E+00 -0.67274744832E+03  0.67274744832E+03  0.25500000000E-02 0.  1.
    8880023    1    1    2    0    0 -0.80153571195E+02  0.75462301341E+02  0.94377931512E+03  0.11561352671E+04  0.65864270000E+03 0. -1.
    8880022    1    1    2    0    0  0.80153571195E+02 -0.75462301341E+02 -0.55090025230E+03  0.58223869237E+03  0.15294330000E+03 0.  0.
<mgrwt>
<rscale>  0 0.48670952E+03</rscale>
<asrwt>0</asrwt>
<pdfrwt beam="1">  1        2 0.16394254E+00 0.66777942E+03</pdfrwt>
<pdfrwt beam="2">  1       -2 0.10349961E+00 0.66777942E+03</pdfrwt>
<totfact> 0.17887218E+01</totfact>
</mgrwt>
</event>
<event>
 4    2  0.3171963E-007  0.8881262E+03  0.7818608E-02  0.9545368E-01
         -2   -1    0    0    0  501 -0.00000000000E+00  0.00000000000E+00  0.58818944605E+03  0.58818944605E+03  0.25500000000E-02 0.  1.
          2   -1    0    0  501    0  0.00000000000E+00 -0.00000000000E+00 -0.15462818110E+04  0.15462818110E+04  0.25500000000E-02 0. -1.
    8880023    1    1    2    0    0 -0.54614186082E+03  0.23809049975E+03 -0.11832322117E+04  0.14794616221E+04  0.65864270000E+03 0.  0.
    8880022    1    1    2    0    0  0.54614186082E+03 -0.23809049975E+03  0.22513984678E+03  0.65500963492E+03  0.15294330000E+03 0.  0.
<mgrwt>
<rscale>  0 0.81020086E+03</rscale>
<asrwt>0</asrwt>
<pdfrwt beam="1">  1        2 0.23788951E+00 0.88812624E+03</pdfrwt>
<pdfrwt beam="2">  1       -2 0.90490685E-01 0.88812624E+03</pdfrwt>
<totfact> 0.12578110E+01</totfact>
</mgrwt>
</event>
<event>
 4    2  0.3171963E-007  0.1483157E+04  0.7818608E-02  0.8921622E-01
         -2   -1    0    0    0  501 -0.00000000000E+00  0.00000000000E+00  0.12760691918E+04  0.12760691918E+04  0.25500000000E-02 0.  1.
          2   -1    0    0  501    0  0.00000000000E+00 -0.00000000000E+00 -0.22508416749E+04  0.22508416749E+04  0.25500000000E-02 0. -1.
    8880023    1    1    2    0    0 -0.13152291933E+04 -0.19004228925E+03  0.47205574957E+03  0.15564673911E+04  0.65864270000E+03 0.  0.
    8880022    1    1    2    0    0  0.13152291933E+04  0.19004228925E+03 -0.14468282326E+04  0.19704434756E+04  0.15294330000E+03 0.  0.
<mgrwt>
<rscale>  0 0.14453625E+04</rscale>
<asrwt>0</asrwt>
<pdfrwt beam="1">  1        2 0.34628333E+00 0.14831568E+04</pdfrwt>
<pdfrwt beam="2">  1       -2 0.19631834E+00 0.14831568E+04</pdfrwt>
<totfact> 0.63986518E-01</totfact>
</mgrwt>
</event>
<event>
 4    2  0.3171963E-007  0.9600764E+03  0.7818608E-02  0.9435762E-01
         -2   -1    0    0    0  501 -0.00000000000E+00  0.00000000000E+00  0.43538856604E+03  0.43538856604E+03  0.25500000000E-02 0.  1.
          2   -1    0    0  501    0  0.00000000000E+00 -0.00000000000E+00 -0.17297488925E+04  0.17297488925E+04  0.25500000000E-02 0. -1.
    8880023    1    1    2    0    0 -0.19360290261E+03  0.67115901951E+03 -0.10158343349E+04  0.13977360679E+04  0.65864270000E+03 0. -1.
    8880022    1    1    2    0    0  0.19360290261E+03 -0.67115901951E+03 -0.27852599161E+03  0.76740139066E+03  0.15294330000E+03 0.  0.
<mgrwt>
<rscale>  0 0.89190134E+03</rscale>
<asrwt>0</asrwt>
<pdfrwt beam="1">  1        2 0.26611521E+00 0.96007641E+03</pdfrwt>
<pdfrwt beam="2">  1       -2 0.66982857E-01 0.96007641E+03</pdfrwt>
<totfact> 0.19391874E+01</totfact>
</mgrwt>
</event>
<event>
 4    2  0.3171963E-007  0.7268843E+03  0.7818608E-02  0.9899945E-01
         -2   -1    0    0    0  501 -0.00000000000E+00  0.00000000000E+00  0.14723432209E+03  0.14723432211E+03  0.25500000000E-02 0.  1.
          2   -1    0    0  501    0  0.00000000000E+00 -0.00000000000E+00 -0.33725681869E+04  0.33725681869E+04  0.25500000000E-02 0. -1.
    8880023    1    1    2    0    0 -0.13434728772E+03 -0.27658882724E+03 -0.30476460394E+04  0.31331305687E+04  0.65864270000E+03 0.  0.
    8880022    1    1    2    0    0  0.13434728772E+03  0.27658882724E+03 -0.17768782539E+03  0.38667194025E+03  0.15294330000E+03 0.  0.
<mgrwt>
<rscale>  0 0.60263955E+03</rscale>
<asrwt>0</asrwt>
<pdfrwt beam="1">  1        2 0.51885659E+00 0.72688430E+03</pdfrwt>
<pdfrwt beam="2">  1       -2 0.22651437E-01 0.72688430E+03</pdfrwt>
<totfact> 0.18342387E+01</totfact>
</mgrwt>
</event>
<event>
 4    2  0.3171963E-007  0.6793904E+03  0.7818608E-02  0.1009671E+00
         -2   -1    0    0    0  501 -0.00000000000E+00  0.00000000000E+00  0.10183402526E+03  0.10183402529E+03  0.25500000000E-02 0.  1.
          2   -1    0    0  501    0  0.00000000000E+00 -0.00000000000E+00 -0.26151093218E+04  0.26151093218E+04  0.25500000000E-02 0. -1.
    8880023    1    1    2    0    0  0.90760902399E+02  0.13972697749E+03 -0.11552564691E+04  0.13402197153E+04  0.65864270000E+03 0.  1.
    8880022    1    1    2    0    0 -0.90760902399E+02 -0.13972697749E+03 -0.13580188274E+04  0.13767236317E+04  0.15294330000E+03 0.  0.
<mgrwt>
<rscale>  0 0.51605772E+03</rscale>
<asrwt>0</asrwt>
<pdfrwt beam="1">  1        2 0.40232446E+00 0.67939044E+03</pdfrwt>
<pdfrwt beam="2">  1       -2 0.15666775E-01 0.67939044E+03</pdfrwt>
<totfact> 0.10197662E+02</totfact>
</mgrwt>
</event>
<event>
 4    2  0.3171963E-007  0.8385910E+03  0.7818608E-02  0.9632843E-01
          2   -1    0    0  501    0  0.00000000000E+00  0.00000000000E+00  0.86758624489E+03  0.86758624489E+03  0.25500000000E-02 0. -1.
         -2   -1    0    0    0  501 -0.00000000000E+00 -0.00000000000E+00 -0.11097733028E+04  0.11097733028E+04  0.25500000000E-02 0.  1.
    8880023    1    1    2    0    0  0.12516494064E+03  0.50374439245E+03  0.56096814407E+03  0.10089202844E+04  0.65864270000E+03 0.  0.
    8880022    1    1    2    0    0 -0.12516494064E+03 -0.50374439245E+03 -0.80315520201E+03  0.96843926336E+03  0.15294330000E+03 0.  0.
<mgrwt>
<rscale>  0 0.75160050E+03</rscale>
<asrwt>0</asrwt>
<pdfrwt beam="1">  1        2 0.13347481E+00 0.83859101E+03</pdfrwt>
<pdfrwt beam="2">  1       -2 0.17073435E+00 0.83859101E+03</pdfrwt>
<totfact> 0.65506212E+00</totfact>
</mgrwt>
</event>
<event>
 4    2  0.3171963E-007  0.8110430E+03  0.7818608E-02  0.9687408E-01
         -2   -1    0    0    0  501 -0.00000000000E+00  0.00000000000E+00  0.82364952067E+03  0.82364952068E+03  0.25500000000E-02 0.  1.
          2   -1    0    0  501    0  0.00000000000E+00 -0.00000000000E+00 -0.54274959442E+03  0.54274959443E+03  0.25500000000E-02 0. -1.
    8880023    1    1    2    0    0  0.25896848052E+03  0.39612603225E+03  0.30979409233E+03  0.86819530823E+03  0.65864270000E+03 0.  0.
    8880022    1    1    2    0    0 -0.25896848052E+03 -0.39612603225E+03 -0.28894166084E+02  0.49820380687E+03  0.15294330000E+03 0.  1.
<mgrwt>
<rscale>  0 0.71771456E+03</rscale>
<asrwt>0</asrwt>
<pdfrwt beam="1">  1        2 0.83499937E-01 0.81104298E+03</pdfrwt>
<pdfrwt beam="2">  1       -2 0.12671531E+00 0.81104298E+03</pdfrwt>
<totfact> 0.26114665E+01</totfact>
</mgrwt>
</event>
<event>
 4    2  0.3171963E-007  0.8198192E+03  0.7818608E-02  0.9669475E-01
         -2   -1    0    0    0  501 -0.00000000000E+00  0.00000000000E+00  0.45880063125E+03  0.45880063126E+03  0.25500000000E-02 0.  1.
          2   -1    0    0  501    0  0.00000000000E+00 -0.00000000000E+00 -0.12014915221E+04  0.12014915221E+04  0.25500000000E-02 0. -1.
    8880023    1    1    2    0    0 -0.36540298218E+02 -0.48678349959E+03 -0.80008583787E+03  0.11455308477E+04  0.65864270000E+03 0. -1.
    8880022    1    1    2    0    0  0.36540298218E+02  0.48678349959E+03  0.57394946982E+02  0.51476130568E+03  0.15294330000E+03 0.  0.
<mgrwt>
<rscale>  0 0.72863652E+03</rscale>
<asrwt>0</asrwt>
<pdfrwt beam="1">  1        2 0.18484485E+00 0.81981923E+03</pdfrwt>
<pdfrwt beam="2">  1       -2 0.70584713E-01 0.81981923E+03</pdfrwt>
<totfact> 0.34904239E+01</totfact>
</mgrwt>
</event>
<event>
 4    2  0.3171963E-007  0.6974283E+03  0.7818608E-02  0.1000804E+00
         -2   -1    0    0    0  501 -0.00000000000E+00  0.00000000000E+00  0.29491673081E+03  0.29491673082E+03  0.25500000000E-02 0.  1.
          2   -1    0    0  501    0  0.00000000000E+00 -0.00000000000E+00 -0.19583070753E+04  0.19583070753E+04  0.25500000000E-02 0. -1.
    8880023    1    1    2    0    0 -0.53483790213E+02 -0.22301468020E+03 -0.18109149507E+04  0.19405718817E+04  0.65864270000E+03 0. -1.
    8880022    1    1    2    0    0  0.53483790213E+02  0.22301468020E+03  0.14752460614E+03  0.31265192440E+03  0.15294330000E+03 0.  0.
<mgrwt>
<rscale>  0 0.55299042E+03</rscale>
<asrwt>0</asrwt>
<pdfrwt beam="1">  1        2 0.30127800E+00 0.69742833E+03</pdfrwt>
<pdfrwt beam="2">  1       -2 0.45371806E-01 0.69742833E+03</pdfrwt>
<totfact> 0.33711699E+01</totfact>
</mgrwt>
</event>
<event>
 4    2  0.3171963E-007  0.6665249E+03  0.7818608E-02  0.1018287E+00
          2   -1    0    0  501    0  0.00000000000E+00  0.00000000000E+00  0.87214401677E+03  0.87214401678E+03  0.25500000000E-02 0. -1.
         -2   -1    0    0    0  501 -0.00000000000E+00 -0.00000000000E+00 -0.50955616051E+03  0.50955616052E+03  0.25500000000E-02 0.  1.
    8880023    1    1    2    0    0 -0.83765919621E+02 -0.58553853538E+02  0.71912451023E+03  0.98050780238E+03  0.65864270000E+03 0. -1.
    8880022    1    1    2    0    0  0.83765919621E+02  0.58553853538E+02 -0.35653665397E+03  0.40119237492E+03  0.15294330000E+03 0.  0.
<mgrwt>
<rscale>  0 0.48309905E+03</rscale>
<asrwt>0</asrwt>
<pdfrwt beam="1">  1        2 0.13417600E+00 0.66652494E+03</pdfrwt>
<pdfrwt beam="2">  1       -2 0.78393257E-01 0.66652494E+03</pdfrwt>
<totfact> 0.45294991E+01</totfact>
</mgrwt>
</event>
<event>
 4    2  0.3171963E-007  0.6803759E+03  0.7818608E-02  0.1009112E+00
         -2   -1    0    0    0  501 -0.00000000000E+00  0.00000000000E+00  0.65042805909E+02  0.65042805959E+02  0.25500000000E-02 0.  1.
          2   -1    0    0  501    0  0.00000000000E+00 -0.00000000000E+00 -0.57051662128E+04  0.57051662128E+04  0.25500000000E-02 0. -1.
    8880023    1    1    2    0    0  0.17029073035E+03 -0.10113040681E+02 -0.53829618885E+04  0.54257893532E+04  0.65864270000E+03 0. -1.
    8880022    1    1    2    0    0 -0.17029073035E+03  0.10113040681E+02 -0.25716151836E+03  0.34441966548E+03  0.15294330000E+03 0.  0.
<mgrwt>
<rscale>  0 0.51829168E+03</rscale>
<asrwt>0</asrwt>
<pdfrwt beam="1">  1        2 0.87771749E+00 0.68037593E+03</pdfrwt>
<pdfrwt beam="2">  1       -2 0.10006590E-01 0.68037593E+03</pdfrwt>
<totfact> 0.20170010E-01</totfact>
</mgrwt>
</event>
<event>
 4    2  0.3171963E-007  0.9416162E+03  0.7818608E-02  0.9462281E-01
         -2   -1    0    0    0  501 -0.00000000000E+00  0.00000000000E+00  0.59057235863E+03  0.59057235864E+03  0.25500000000E-02 0.  1.
          2   -1    0    0  501    0  0.00000000000E+00 -0.00000000000E+00 -0.13979013146E+04  0.13979013146E+04  0.25500000000E-02 0. -1.
    8880023    1    1    2    0    0  0.40415382873E+03  0.53804316817E+03 -0.88724691456E+03  0.12937728014E+04  0.65864270000E+03 0. -1.
    8880022    1    1    2    0    0 -0.40415382873E+03 -0.53804316817E+03  0.79917958627E+02  0.69470087176E+03  0.15294330000E+03 0.  0.
<mgrwt>
<rscale>  0 0.87122766E+03</rscale>
<asrwt>0</asrwt>
<pdfrwt beam="1">  1        2 0.21506174E+00 0.94161615E+03</pdfrwt>
<pdfrwt beam="2">  1       -2 0.90857286E-01 0.94161615E+03</pdfrwt>
<totfact> 0.15019998E+01</totfact>
</mgrwt>
</event>
<event>
 4    2  0.3171963E-007  0.6904178E+03  0.7818608E-02  0.1003955E+00
         -2   -1    0    0    0  501 -0.00000000000E+00  0.00000000000E+00  0.20936449011E+03  0.20936449013E+03  0.25500000000E-02 0.  1.
          2   -1    0    0  501    0  0.00000000000E+00 -0.00000000000E+00 -0.14511795194E+04  0.14511795194E+04  0.25500000000E-02 0. -1.
    8880023    1    1    2    0    0  0.20699339098E+03 -0.44968307551E+01 -0.12205118482E+04  0.14022574169E+04  0.65864270000E+03 0. -1.
    8880022    1    1    2    0    0 -0.20699339098E+03  0.44968307551E+01 -0.21303181100E+02  0.25828659264E+03  0.15294330000E+03 0.  0.
<mgrwt>
<rscale>  0 0.53949680E+03</rscale>
<asrwt>0</asrwt>
<pdfrwt beam="1">  1        2 0.22325838E+00 0.69041777E+03</pdfrwt>
<pdfrwt beam="2">  1       -2 0.32209922E-01 0.69041777E+03</pdfrwt>
<totfact> 0.12402393E+02</totfact>
</mgrwt>
</event>
<event>
 4    2  0.3171963E-007  0.6729453E+03  0.7818608E-02  0.1013634E+00
          2   -1    0    0  501    0  0.00000000000E+00  0.00000000000E+00  0.76716805217E+03  0.76716805217E+03  0.25500000000E-02 0. -1.
         -2   -1    0    0    0  501 -0.00000000000E+00 -0.00000000000E+00 -0.56926873952E+03  0.56926873952E+03  0.25500000000E-02 0.  1.
    8880023    1    1    2    0    0 -0.22847887398E+02 -0.13609954270E+03  0.58906341420E+03  0.89434390684E+03  0.65864270000E+03 0. -1.
    8880022    1    1    2    0    0  0.22847887398E+02  0.13609954270E+03 -0.39116410155E+03  0.44209288486E+03  0.15294330000E+03 0.  0.
<mgrwt>
<rscale>  0 0.50055590E+03</rscale>
<asrwt>0</asrwt>
<pdfrwt beam="1">  1        2 0.11802585E+00 0.67294526E+03</pdfrwt>
<pdfrwt beam="2">  1       -2 0.87579806E-01 0.67294526E+03</pdfrwt>
<totfact> 0.41801613E+01</totfact>
</mgrwt>
</event>
<event>
 4    2  0.3171963E-007  0.8639561E+03  0.7818608E-02  0.9586565E-01
          2   -1    0    0  501    0  0.00000000000E+00  0.00000000000E+00  0.10181254454E+04  0.10181254454E+04  0.25500000000E-02 0. -1.
         -2   -1    0    0    0  501 -0.00000000000E+00 -0.00000000000E+00 -0.71023874195E+03  0.71023874196E+03  0.25500000000E-02 0.  1.
    8880023    1    1    2    0    0 -0.42874190111E+03 -0.35887369347E+03  0.62622968295E+03  0.10670444076E+04  0.65864270000E+03 0. -1.
    8880022    1    1    2    0    0  0.42874190111E+03  0.35887369347E+03 -0.31834297945E+03  0.66131977985E+03  0.15294330000E+03 0.  0.
<mgrwt>
<rscale>  0 0.78191839E+03</rscale>
<asrwt>0</asrwt>
<pdfrwt beam="1">  1        2 0.15663468E+00 0.86395611E+03</pdfrwt>
<pdfrwt beam="2">  1       -2 0.10926750E+00 0.86395611E+03</pdfrwt>
<totfact> 0.16460925E+01</totfact>
</mgrwt>
</event>
<event>
 4    2  0.3171963E-007  0.7392135E+03  0.7818608E-02  0.9862244E-01
         -2   -1    0    0    0  501 -0.00000000000E+00  0.00000000000E+00  0.19466367016E+03  0.19466367018E+03  0.25500000000E-02 0.  1.
          2   -1    0    0  501    0  0.00000000000E+00 -0.00000000000E+00 -0.18712850723E+04  0.18712850723E+04  0.25500000000E-02 0. -1.
    8880023    1    1    2    0    0 -0.27986998489E+03  0.18520045085E+03 -0.14645128944E+04  0.16404982900E+04  0.65864270000E+03 0.  1.
    8880022    1    1    2    0    0  0.27986998489E+03 -0.18520045085E+03 -0.21210850776E+03  0.42545045248E+03  0.15294330000E+03 0.  0.
<mgrwt>
<rscale>  0 0.62126516E+03</rscale>
<asrwt>0</asrwt>
<pdfrwt beam="1">  1        2 0.28789000E+00 0.73921352E+03</pdfrwt>
<pdfrwt beam="2">  1       -2 0.29948258E-01 0.73921352E+03</pdfrwt>
<totfact> 0.83117694E+01</totfact>
</mgrwt>
</event>
<event>
 4    2  0.3171963E-007  0.7002472E+03  0.7818608E-02  0.9996177E-01
          2   -1    0    0  501    0  0.00000000000E+00  0.00000000000E+00  0.11943700079E+04  0.11943700079E+04  0.25500000000E-02 0. -1.
         -2   -1    0    0    0  501 -0.00000000000E+00 -0.00000000000E+00 -0.46149244442E+03  0.46149244442E+03  0.25500000000E-02 0.  1.
    8880023    1    1    2    0    0 -0.23235203767E+03 -0.50482980847E+02  0.10301538570E+04  0.12456175882E+04  0.65864270000E+03 0. -1.
    8880022    1    1    2    0    0  0.23235203767E+03  0.50482980847E+02 -0.29727629355E+03  0.41024486406E+03  0.15294330000E+03 0.  0.
<mgrwt>
<rscale>  0 0.55818182E+03</rscale>
<asrwt>0</asrwt>
<pdfrwt beam="1">  1        2 0.18374923E+00 0.70024725E+03</pdfrwt>
<pdfrwt beam="2">  1       -2 0.70998839E-01 0.70024725E+03</pdfrwt>
<totfact> 0.35214210E+01</totfact>
</mgrwt>
</event>
<event>
 4    2  0.3171963E-007  0.6647443E+03  0.7818608E-02  0.1019749E+00
          2   -1    0    0  501    0  0.00000000000E+00  0.00000000000E+00  0.16408780467E+04  0.16408780468E+04  0.25500000000E-02 0. -1.
         -2   -1    0    0    0  501 -0.00000000000E+00 -0.00000000000E+00 -0.10852788234E+03  0.10852788237E+03  0.25500000000E-02 0.  1.
    8880023    1    1    2    0    0  0.17593297497E+02 -0.88120365902E+02  0.12550193121E+04  0.14201966072E+04  0.65864270000E+03 0.  0.
    8880022    1    1    2    0    0 -0.17593297497E+02  0.88120365902E+02  0.27733085228E+03  0.32920932193E+03  0.15294330000E+03 0.  1.
<mgrwt>
<rscale>  0 0.47777320E+03</rscale>
<asrwt>0</asrwt>
<pdfrwt beam="1">  1        2 0.25244276E+00 0.66474426E+03</pdfrwt>
<pdfrwt beam="2">  1       -2 0.16696598E-01 0.66474426E+03</pdfrwt>
<totfact> 0.31559861E+02</totfact>
</mgrwt>
</event>
<event>
 4    2  0.3171963E-007  0.6826693E+03  0.7818608E-02  0.1007852E+00
         -2   -1    0    0    0  501 -0.00000000000E+00  0.00000000000E+00  0.23906486614E+04  0.23906486614E+04  0.25500000000E-02 0.  1.
          2   -1    0    0  501    0  0.00000000000E+00 -0.00000000000E+00 -0.51726255628E+03  0.51726255628E+03  0.25500000000E-02 0. -1.
    8880023    1    1    2    0    0 -0.37961309789E+01 -0.17947918584E+03 -0.28275559799E+03  0.73891009143E+03  0.65864270000E+03 0. -1.
    8880022    1    1    2    0    0  0.37961309789E+01  0.17947918584E+03  0.21561417031E+04  0.21690011262E+04  0.15294330000E+03 0.  0.
<mgrwt>
<rscale>  0 0.52337205E+03</rscale>
<asrwt>0</asrwt>
<pdfrwt beam="1">  1        2 0.79578856E-01 0.68266932E+03</pdfrwt>
<pdfrwt beam="2">  1       -2 0.36779210E+00 0.68266932E+03</pdfrwt>
<totfact> 0.76113407E-01</totfact>
</mgrwt>
</event>
<event>
 4    2  0.3171963E-007  0.9064038E+03  0.7818608E-02  0.9515829E-01
         -2   -1    0    0    0  501 -0.00000000000E+00  0.00000000000E+00  0.10043584492E+04  0.10043584492E+04  0.25500000000E-02 0.  1.
          2   -1    0    0  501    0  0.00000000000E+00 -0.00000000000E+00 -0.18337092977E+04  0.18337092977E+04  0.25500000000E-02 0. -1.
    8880023    1    1    2    0    0 -0.32172642544E+03  0.53315077224E+03 -0.15979503879E+04  0.18371209234E+04  0.65864270000E+03 0. -1.
    8880022    1    1    2    0    0  0.32172642544E+03 -0.53315077224E+03  0.76859953930E+03  0.10009468236E+04  0.15294330000E+03 0.  0.
<mgrwt>
<rscale>  0 0.83126832E+03</rscale>
<asrwt>0</asrwt>
<pdfrwt beam="1">  1        2 0.28210912E+00 0.90640380E+03</pdfrwt>
<pdfrwt beam="2">  1       -2 0.15451668E+00 0.90640380E+03</pdfrwt>
<totfact> 0.23075713E+00</totfact>
</mgrwt>
</event>
<event>
 4    2  0.3171963E-007  0.7658265E+03  0.7818608E-02  0.9790250E-01
         -2   -1    0    0    0  501 -0.00000000000E+00  0.00000000000E+00  0.23858846552E+03  0.23858846553E+03  0.25500000000E-02 0.  1.
          2   -1    0    0  501    0  0.00000000000E+00 -0.00000000000E+00 -0.42641578128E+04  0.42641578128E+04  0.25500000000E-02 0. -1.
    8880023    1    1    2    0    0  0.37988517146E+03 -0.91472465797E+02 -0.40103966843E+04  0.40828631776E+04  0.65864270000E+03 0. -1.
    8880022    1    1    2    0    0 -0.37988517146E+03  0.91472465797E+02 -0.15172662926E+02  0.41988310065E+03  0.15294330000E+03 0.  0.
<mgrwt>
<rscale>  0 0.65888397E+03</rscale>
<asrwt>0</asrwt>
<pdfrwt beam="1">  1        2 0.65602422E+00 0.76582646E+03</pdfrwt>
<pdfrwt beam="2">  1       -2 0.36705921E-01 0.76582646E+03</pdfrwt>
<totfact> 0.15977197E+00</totfact>
</mgrwt>
</event>
<event>
 4    2  0.3171963E-007  0.7429790E+03  0.7818608E-02  0.9851353E-01
         -2   -1    0    0    0  501 -0.00000000000E+00  0.00000000000E+00  0.70339104034E+03  0.70339104035E+03  0.25500000000E-02 0.  1.
          2   -1    0    0  501    0  0.00000000000E+00 -0.00000000000E+00 -0.12005181456E+04  0.12005181456E+04  0.25500000000E-02 0. -1.
    8880023    1    1    2    0    0  0.18671963607E+02  0.34330591612E+03 -0.10186399448E+04  0.12608113014E+04  0.65864270000E+03 0. -1.
    8880022    1    1    2    0    0 -0.18671963607E+02 -0.34330591612E+03  0.52151283956E+03  0.64309788455E+03  0.15294330000E+03 0.  0.
<mgrwt>
<rscale>  0 0.62677985E+03</rscale>
<asrwt>0</asrwt>
<pdfrwt beam="1">  1        2 0.18469510E+00 0.74297900E+03</pdfrwt>
<pdfrwt beam="2">  1       -2 0.10821401E+00 0.74297900E+03</pdfrwt>
<totfact> 0.13201936E+01</totfact>
</mgrwt>
</event>
<event>
 4    2  0.3171963E-007  0.9752532E+03  0.7818608E-02  0.9414675E-01
          2   -1    0    0  501    0  0.00000000000E+00  0.00000000000E+00  0.66981690513E+03  0.66981690513E+03  0.25500000000E-02 0. -1.
         -2   -1    0    0    0  501 -0.00000000000E+00 -0.00000000000E+00 -0.17827398959E+04  0.17827398959E+04  0.25500000000E-02 0.  1.
    8880023    1    1    2    0    0  0.29091271391E+03  0.65778289280E+03  0.15435912229E+03  0.98739327832E+03  0.65864270000E+03 0.  0.
    8880022    1    1    2    0    0 -0.29091271391E+03 -0.65778289280E+03 -0.12672821130E+04  0.14651635227E+04  0.15294330000E+03 0.  0.
<mgrwt>
<rscale>  0 0.90877756E+03</rscale>
<asrwt>0</asrwt>
<pdfrwt beam="1">  1        2 0.10304876E+00 0.97525317E+03</pdfrwt>
<pdfrwt beam="2">  1       -2 0.27426768E+00 0.97525317E+03</pdfrwt>
<totfact> 0.19860419E+00</totfact>
</mgrwt>
</event>
<event>
 4    2  0.3171963E-007  0.1243243E+04  0.7818608E-02  0.9116192E-01
          2   -1    0    0  501    0  0.00000000000E+00  0.00000000000E+00  0.18531066003E+04  0.18531066003E+04  0.25500000000E-02 0. -1.
         -2   -1    0    0    0  501 -0.00000000000E+00 -0.00000000000E+00 -0.86782746029E+03  0.86782746030E+03  0.25500000000E-02 0.  1.
    8880023    1    1    2    0    0  0.95907682112E+03 -0.43819444088E+03  0.10859175503E+04  0.16507179799E+04  0.65864270000E+03 0.  0.
    8880022    1    1    2    0    0 -0.95907682112E+03  0.43819444088E+03 -0.10063841026E+03  0.10702160807E+04  0.15294330000E+03 0.  0.
<mgrwt>
<rscale>  0 0.11961969E+04</rscale>
<asrwt>0</asrwt>
<pdfrwt beam="1">  1        2 0.28509332E+00 0.12432429E+04</pdfrwt>
<pdfrwt beam="2">  1       -2 0.13351192E+00 0.12432429E+04</pdfrwt>
<totfact> 0.31732906E+00</totfact>
</mgrwt>
</event>
<event>
 4    2  0.3171963E-007  0.7458101E+03  0.7818608E-02  0.9843335E-01
          2   -1    0    0  501    0  0.00000000000E+00  0.00000000000E+00  0.75910759782E+03  0.75910759782E+03  0.25500000000E-02 0. -1.
         -2   -1    0    0    0  501 -0.00000000000E+00 -0.00000000000E+00 -0.51657021887E+03  0.51657021888E+03  0.25500000000E-02 0.  1.
    8880023    1    1    2    0    0 -0.15112570807E+03 -0.31556855498E+03  0.41852713407E+03  0.85521790249E+03  0.65864270000E+03 0. -1.
    8880022    1    1    2    0    0  0.15112570807E+03  0.31556855498E+03 -0.17598975512E+03  0.42045991421E+03  0.15294330000E+03 0.  0.
<mgrwt>
<rscale>  0 0.63087912E+03</rscale>
<asrwt>0</asrwt>
<pdfrwt beam="1">  1        2 0.11678578E+00 0.74581010E+03</pdfrwt>
<pdfrwt beam="2">  1       -2 0.79472341E-01 0.74581010E+03</pdfrwt>
<totfact> 0.52497841E+01</totfact>
</mgrwt>
</event>
<event>
 4    2  0.3171963E-007  0.8879214E+03  0.7818608E-02  0.9545707E-01
         -2   -1    0    0    0  501 -0.00000000000E+00  0.00000000000E+00  0.60061102131E+03  0.60061102131E+03  0.25500000000E-02 0.  1.
          2   -1    0    0  501    0  0.00000000000E+00 -0.00000000000E+00 -0.13361887755E+04  0.13361887755E+04  0.25500000000E-02 0. -1.
    8880023    1    1    2    0    0 -0.59544142237E+03  0.66174947731E+01 -0.93599567158E+03  0.12901520772E+04  0.65864270000E+03 0.  0.
    8880022    1    1    2    0    0  0.59544142237E+03 -0.66174947731E+01  0.20041791739E+03  0.64664771966E+03  0.15294330000E+03 0.  0.
<mgrwt>
<rscale>  0 0.80996334E+03</rscale>
<asrwt>0</asrwt>
<pdfrwt beam="1">  1        2 0.20556750E+00 0.88792144E+03</pdfrwt>
<pdfrwt beam="2">  1       -2 0.92401696E-01 0.88792144E+03</pdfrwt>
<totfact> 0.15751178E+01</totfact>
</mgrwt>
</event>
<event>
 4    2  0.4820424E-007  0.7056503E+03  0.7818608E-02  0.9974522E-01
         -2   -1    0    0    0  501 -0.00000000000E+00  0.00000000000E+00  0.14067112888E+04  0.14067112888E+04  0.25500000000E-02 0.  1.
          2   -1    0    0  501    0  0.00000000000E+00 -0.00000000000E+00 -0.18364296065E+04  0.18364296066E+04  0.25500000000E-02 0. -1.
    8880023    1    1    2    0    0  0.29634773711E+02 -0.25150337583E+03 -0.17516843120E+04  0.18884756559E+04  0.65864270000E+03 0. -1.
    8880022    1    1    2    0    0 -0.29634773711E+02  0.25150337583E+03  0.13219659943E+04  0.13546652394E+04  0.15294330000E+03 0.  0.
<mgrwt>
<rscale>  0 0.56781641E+03</rscale>
<asrwt>0</asrwt>
<pdfrwt beam="1">  1        2 0.28252763E+00 0.70565032E+03</pdfrwt>
<pdfrwt beam="2">  1       -2 0.21641712E+00 0.70565032E+03</pdfrwt>
<totfact> 0.90285847E-01</totfact>
</mgrwt>
</event>
<event>
 4    2  0.3171963E-007  0.7200719E+03  0.7818608E-02  0.9922343E-01
          2   -1    0    0  501    0  0.00000000000E+00  0.00000000000E+00  0.73707070071E+03  0.73707070072E+03  0.25500000000E-02 0. -1.
         -2   -1    0    0    0  501 -0.00000000000E+00 -0.00000000000E+00 -0.47956104223E+03  0.47956104223E+03  0.25500000000E-02 0.  1.
    8880023    1    1    2    0    0  0.21538360026E+03  0.19571219845E+03 -0.10450140658E+03  0.72761535864E+03  0.65864270000E+03 0.  0.
    8880022    1    1    2    0    0 -0.21538360026E+03 -0.19571219845E+03  0.36201106507E+03  0.48901638431E+03  0.15294330000E+03 0.  0.
<mgrwt>
<rscale>  0 0.59190579E+03</rscale>
<asrwt>0</asrwt>
<pdfrwt beam="1">  1        2 0.11339549E+00 0.72007192E+03</pdfrwt>
<pdfrwt beam="2">  1       -2 0.73778622E-01 0.72007192E+03</pdfrwt>
<totfact> 0.64472371E+01</totfact>
</mgrwt>
</event>
<event>
 4    2  0.3171963E-007  0.6772504E+03  0.7818608E-02  0.1010924E+00
         -2   -1    0    0    0  501 -0.00000000000E+00  0.00000000000E+00  0.76779323678E+03  0.76779323678E+03  0.25500000000E-02 0.  1.
          2   -1    0    0  501    0  0.00000000000E+00 -0.00000000000E+00 -0.86270910270E+03  0.86270910270E+03  0.25500000000E-02 0. -1.
    8880023    1    1    2    0    0 -0.90063193851E+02  0.12940848767E+03 -0.70769636332E+03  0.97954187480E+03  0.65864270000E+03 0. -1.
    8880022    1    1    2    0    0  0.90063193851E+02 -0.12940848767E+03  0.61278049740E+03  0.65096046468E+03  0.15294330000E+03 0.  0.
<mgrwt>
<rscale>  0 0.51109151E+03</rscale>
<asrwt>0</asrwt>
<pdfrwt beam="1">  1        2 0.13272448E+00 0.67725043E+03</pdfrwt>
<pdfrwt beam="2">  1       -2 0.11812204E+00 0.67725043E+03</pdfrwt>
<totfact> 0.17571849E+01</totfact>
</mgrwt>
</event>
<event>
 4    2  0.3171963E-007  0.7389732E+03  0.7818608E-02  0.9862948E-01
         -2   -1    0    0    0  501 -0.00000000000E+00  0.00000000000E+00  0.62573929036E+03  0.62573929037E+03  0.25500000000E-02 0.  1.
          2   -1    0    0  501    0  0.00000000000E+00 -0.00000000000E+00 -0.21911218933E+04  0.21911218933E+04  0.25500000000E-02 0. -1.
    8880023    1    1    2    0    0  0.29255627128E+03 -0.16334646666E+03 -0.20666660273E+04  0.21948097673E+04  0.65864270000E+03 0. -1.
    8880022    1    1    2    0    0 -0.29255627128E+03  0.16334646666E+03  0.50128342436E+03  0.62205141636E+03  0.15294330000E+03 0.  0.
<mgrwt>
<rscale>  0 0.62091073E+03</rscale>
<asrwt>0</asrwt>
<pdfrwt beam="1">  1        2 0.33709567E+00 0.73897324E+03</pdfrwt>
<pdfrwt beam="2">  1       -2 0.96267584E-01 0.73897324E+03</pdfrwt>
<totfact> 0.49223897E+00</totfact>
</mgrwt>
</event>
<event>
 4    2  0.3171963E-007  0.1235582E+04  0.7818608E-02  0.9123287E-01
         -2   -1    0    0    0  501 -0.00000000000E+00  0.00000000000E+00  0.35188837110E+04  0.35188837110E+04  0.25500000000E-02 0.  1.
          2   -1    0    0  501    0  0.00000000000E+00 -0.00000000000E+00 -0.80132835574E+03  0.80132835574E+03  0.25500000000E-02 0. -1.
    8880023    1    1    2    0    0 -0.10244146612E+04  0.20839075802E+03 -0.16834260255E+03  0.12469970105E+04  0.65864270000E+03 0. -1.
    8880022    1    1    2    0    0  0.10244146612E+04 -0.20839075802E+03  0.28858979578E+04  0.30732150562E+04  0.15294330000E+03 0.  0.
<mgrwt>
<rscale>  0 0.11881561E+04</rscale>
<asrwt>0</asrwt>
<pdfrwt beam="1">  1        2 0.12328129E+00 0.12355818E+04</pdfrwt>
<pdfrwt beam="2">  1       -2 0.54136671E+00 0.12355818E+04</pdfrwt>
<totfact> 0.31378877E-02</totfact>
</mgrwt>
</event>
<event>
 4    2  0.3171963E-007  0.8212417E+03  0.7818608E-02  0.9666620E-01
         -2   -1    0    0    0  501 -0.00000000000E+00  0.00000000000E+00  0.12690270777E+04  0.12690270777E+04  0.25500000000E-02 0.  1.
          2   -1    0    0  501    0  0.00000000000E+00 -0.00000000000E+00 -0.13779878204E+04  0.13779878204E+04  0.25500000000E-02 0. -1.
    8880023    1    1    2    0    0 -0.47594905639E+03 -0.11874456944E+03 -0.11924357050E+04  0.14478746126E+04  0.65864270000E+03 0. -1.
    8880022    1    1    2    0    0  0.47594905639E+03  0.11874456944E+03  0.10834749624E+04  0.11991402855E+04  0.15294330000E+03 0.  0.
<mgrwt>
<rscale>  0 0.73039492E+03</rscale>
<asrwt>0</asrwt>
<pdfrwt beam="1">  1        2 0.21199813E+00 0.82124173E+03</pdfrwt>
<pdfrwt beam="2">  1       -2 0.19523494E+00 0.82124173E+03</pdfrwt>
<totfact> 0.21678696E+00</totfact>
</mgrwt>
</event>
<event>
 4    2  0.3171963E-007  0.7071469E+03  0.7818608E-02  0.9968752E-01
         -2   -1    0    0    0  501 -0.00000000000E+00  0.00000000000E+00  0.10806512847E+04  0.10806512847E+04  0.25500000000E-02 0.  1.
          2   -1    0    0  501    0  0.00000000000E+00 -0.00000000000E+00 -0.41261380480E+03  0.41261380481E+03  0.25500000000E-02 0. -1.
    8880023    1    1    2    0    0 -0.37884056146E+02  0.25458066125E+03 -0.56405369137E+02  0.70939290011E+03  0.65864270000E+03 0. -1.
    8880022    1    1    2    0    0  0.37884056146E+02 -0.25458066125E+03  0.72444284905E+03  0.78387218943E+03  0.15294330000E+03 0.  0.
<mgrwt>
<rscale>  0 0.57041882E+03</rscale>
<asrwt>0</asrwt>
<pdfrwt beam="1">  1        2 0.63479047E-01 0.70714689E+03</pdfrwt>
<pdfrwt beam="2">  1       -2 0.16625404E+00 0.70714689E+03</pdfrwt>
<totfact> 0.17724971E+01</totfact>
</mgrwt>
</event>
<event>
 4    2  0.3171963E-007  0.7381132E+03  0.7818608E-02  0.9865478E-01
         -2   -1    0    0    0  501 -0.00000000000E+00  0.00000000000E+00  0.23487805367E+03  0.23487805368E+03  0.25500000000E-02 0.  1.
          2   -1    0    0  501    0  0.00000000000E+00 -0.00000000000E+00 -0.25505325734E+04  0.25505325734E+04  0.25500000000E-02 0. -1.
    8880023    1    1    2    0    0 -0.31539913398E+03  0.10735132094E+03 -0.23032225281E+04  0.24186039651E+04  0.65864270000E+03 0.  0.
    8880022    1    1    2    0    0  0.31539913398E+03 -0.10735132094E+03 -0.12431991609E+02  0.36680666195E+03  0.15294330000E+03 0.  0.
<mgrwt>
<rscale>  0 0.61963957E+03</rscale>
<asrwt>0</asrwt>
<pdfrwt beam="1">  1        2 0.39238961E+00 0.73811322E+03</pdfrwt>
<pdfrwt beam="2">  1       -2 0.36135087E-01 0.73811322E+03</pdfrwt>
<totfact> 0.24558090E+01</totfact>
</mgrwt>
</event>
<event>
 4    2  0.3171963E-007  0.7321907E+03  0.7818608E-02  0.9883308E-01
         -2   -1    0    0    0  501 -0.00000000000E+00  0.00000000000E+00  0.12107402941E+03  0.12107402944E+03  0.25500000000E-02 0.  1.
          2   -1    0    0  501    0  0.00000000000E+00 -0.00000000000E+00 -0.30966171406E+04  0.30966171406E+04  0.25500000000E-02 0. -1.
    8880023    1    1    2    0    0  0.28261568664E+03 -0.14973766744E+03 -0.26004855410E+04  0.27015973516E+04  0.65864270000E+03 0. -1.
    8880022    1    1    2    0    0 -0.28261568664E+03  0.14973766744E+03 -0.37505757022E+03  0.51609381839E+03  0.15294330000E+03 0.  0.
<mgrwt>
<rscale>  0 0.61077103E+03</rscale>
<asrwt>0</asrwt>
<pdfrwt beam="1">  1        2 0.47640258E+00 0.73219069E+03</pdfrwt>
<pdfrwt beam="2">  1       -2 0.18626776E-01 0.73219069E+03</pdfrwt>
<totfact> 0.38829521E+01</totfact>
</mgrwt>
</event>
<event>
 4    2  0.3171963E-007  0.1282089E+04  0.7818608E-02  0.9081183E-01
         -2   -1    0    0    0  501 -0.00000000000E+00  0.00000000000E+00  0.79780846469E+03  0.79780846469E+03  0.25500000000E-02 0.  1.
          2   -1    0    0  501    0  0.00000000000E+00 -0.00000000000E+00 -0.23141856934E+04  0.23141856934E+04  0.25500000000E-02 0. -1.
    8880023    1    1    2    0    0 -0.16429693780E+03 -0.10876348713E+04 -0.64008452916E+02  0.12836862488E+04  0.65864270000E+03 0.  0.
    8880022    1    1    2    0    0  0.16429693780E+03  0.10876348713E+04 -0.14523687758E+04  0.18283079093E+04  0.15294330000E+03 0.  0.
<mgrwt>
<rscale>  0 0.12368694E+04</rscale>
<asrwt>0</asrwt>
<pdfrwt beam="1">  1        2 0.35602857E+00 0.12820894E+04</pdfrwt>
<pdfrwt beam="2">  1       -2 0.12273976E+00 0.12820894E+04</pdfrwt>
<totfact> 0.21655186E+00</totfact>
</mgrwt>
</event>
<event>
 4    2  0.3171963E-007  0.7058014E+03  0.7818608E-02  0.9973936E-01
         -2   -1    0    0    0  501 -0.00000000000E+00  0.00000000000E+00  0.14340798191E+04  0.14340798191E+04  0.25500000000E-02 0.  1.
          2   -1    0    0  501    0  0.00000000000E+00 -0.00000000000E+00 -0.58534368325E+03  0.58534368326E+03  0.25500000000E-02 0. -1.
    8880023    1    1    2    0    0 -0.24732226752E+03  0.56365764915E+02 -0.34774865821E+03  0.78681938144E+03  0.65864270000E+03 0.  0.
    8880022    1    1    2    0    0  0.24732226752E+03 -0.56365764915E+02  0.11964847941E+04  0.12326041209E+04  0.15294330000E+03 0.  0.
<mgrwt>
<rscale>  0 0.56808035E+03</rscale>
<asrwt>0</asrwt>
<pdfrwt beam="1">  1        2 0.90052875E-01 0.70580140E+03</pdfrwt>
<pdfrwt beam="2">  1       -2 0.22062766E+00 0.70580140E+03</pdfrwt>
<totfact> 0.51525879E+00</totfact>
</mgrwt>
</event>
<event>
 4    2  0.3171963E-007  0.1066519E+04  0.7818608E-02  0.9299282E-01
         -2   -1    0    0    0  501 -0.00000000000E+00  0.00000000000E+00  0.94226779165E+03  0.94226779165E+03  0.25500000000E-02 0.  1.
          2   -1    0    0  501    0  0.00000000000E+00 -0.00000000000E+00 -0.15400422025E+04  0.15400422025E+04  0.25500000000E-02 0. -1.
    8880023    1    1    2    0    0  0.57842941968E+03 -0.60751263704E+03  0.42732368496E+03  0.11489420941E+04  0.65864270000E+03 0.  0.
    8880022    1    1    2    0    0 -0.57842941968E+03  0.60751263704E+03 -0.10250980958E+04  0.13333679000E+04  0.15294330000E+03 0.  0.
<mgrwt>
<rscale>  0 0.10084897E+04</rscale>
<asrwt>0</asrwt>
<pdfrwt beam="1">  1        2 0.23692957E+00 0.10665188E+04</pdfrwt>
<pdfrwt beam="2">  1       -2 0.14496428E+00 0.10665188E+04</pdfrwt>
<totfact> 0.38948237E+00</totfact>
</mgrwt>
</event>
<event>
 4    2  0.3171963E-007  0.7342022E+03  0.7818608E-02  0.9877169E-01
          2   -1    0    0  501    0  0.00000000000E+00  0.00000000000E+00  0.42819529042E+03  0.42819529043E+03  0.25500000000E-02 0. -1.
         -2   -1    0    0    0  501 -0.00000000000E+00 -0.00000000000E+00 -0.76777191030E+03  0.76777191030E+03  0.25500000000E-02 0.  1.
    8880023    1    1    2    0    0 -0.32421038377E+03 -0.11414439388E+02 -0.51614009475E+02  0.73601418098E+03  0.65864270000E+03 0.  1.
    8880022    1    1    2    0    0  0.32421038377E+03  0.11414439388E+02 -0.28796261040E+03  0.45995301975E+03  0.15294330000E+03 0.  0.
<mgrwt>
<rscale>  0 0.61380633E+03</rscale>
<asrwt>0</asrwt>
<pdfrwt beam="1">  1        2 0.65876199E-01 0.73420220E+03</pdfrwt>
<pdfrwt beam="2">  1       -2 0.11811876E+00 0.73420220E+03</pdfrwt>
<totfact> 0.41161628E+01</totfact>
</mgrwt>
</event>
<event>
 4    2  0.3171963E-007  0.6787089E+03  0.7818608E-02  0.1010064E+00
          2   -1    0    0  501    0  0.00000000000E+00  0.00000000000E+00  0.24654860137E+03  0.24654860138E+03  0.25500000000E-02 0. -1.
         -2   -1    0    0    0  501 -0.00000000000E+00 -0.00000000000E+00 -0.83781301819E+03  0.83781301819E+03  0.25500000000E-02 0.  1.
    8880023    1    1    2    0    0  0.15604687605E+03  0.49848954118E+02 -0.38792257758E+03  0.78174783544E+03  0.65864270000E+03 0.  0.
    8880022    1    1    2    0    0 -0.15604687605E+03 -0.49848954118E+02 -0.20334183924E+03  0.30261378414E+03  0.15294330000E+03 0.  1.
<mgrwt>
<rscale>  0 0.51449365E+03</rscale>
<asrwt>0</asrwt>
<pdfrwt beam="1">  1        2 0.37930555E-01 0.67870889E+03</pdfrwt>
<pdfrwt beam="2">  1       -2 0.12889431E+00 0.67870889E+03</pdfrwt>
<totfact> 0.61501879E+01</totfact>
</mgrwt>
</event>
<event>
 4    2  0.3171963E-007  0.6975940E+03  0.7818608E-02  0.1000733E+00
          2   -1    0    0  501    0  0.00000000000E+00  0.00000000000E+00  0.90976359662E+03  0.90976359662E+03  0.25500000000E-02 0. -1.
         -2   -1    0    0    0  501 -0.00000000000E+00 -0.00000000000E+00 -0.15807499948E+04  0.15807499948E+04  0.25500000000E-02 0.  1.
    8880023    1    1    2    0    0  0.11258267185E+03 -0.20038039206E+03  0.76088440932E+03  0.10322705315E+04  0.65864270000E+03 0. -1.
    8880022    1    1    2    0    0 -0.11258267185E+03  0.20038039206E+03 -0.14318708075E+04  0.14582430600E+04  0.15294330000E+03 0.  0.
<mgrwt>
<rscale>  0 0.55329891E+03</rscale>
<asrwt>0</asrwt>
<pdfrwt beam="1">  1        2 0.13996363E+00 0.69759398E+03</pdfrwt>
<pdfrwt beam="2">  1       -2 0.24319231E+00 0.69759398E+03</pdfrwt>
<totfact> 0.21269408E+00</totfact>
</mgrwt>
</event>
<event>
 4    2  0.3171963E-007  0.6718930E+03  0.7818608E-02  0.1014341E+00
         -2   -1    0    0    0  501 -0.00000000000E+00  0.00000000000E+00  0.97102158817E+03  0.97102158817E+03  0.25500000000E-02 0.  1.
          2   -1    0    0  501    0  0.00000000000E+00 -0.00000000000E+00 -0.60226365595E+03  0.60226365596E+03  0.25500000000E-02 0. -1.
    8880023    1    1    2    0    0 -0.42605903954E+02  0.12575666227E+03 -0.39752788003E+03  0.78068471409E+03  0.65864270000E+03 0. -1.
    8880022    1    1    2    0    0  0.42605903954E+02 -0.12575666227E+03  0.76628581224E+03  0.79260053004E+03  0.15294330000E+03 0.  0.
<mgrwt>
<rscale>  0 0.49785370E+03</rscale>
<asrwt>0</asrwt>
<pdfrwt beam="1">  1        2 0.92655948E-01 0.67189300E+03</pdfrwt>
<pdfrwt beam="2">  1       -2 0.14938794E+00 0.67189300E+03</pdfrwt>
<totfact> 0.15290669E+01</totfact>
</mgrwt>
</event>
<event>
 4    2  0.3171963E-007  0.7068238E+03  0.7818608E-02  0.9969990E-01
         -2   -1    0    0    0  501 -0.00000000000E+00  0.00000000000E+00  0.59632354133E+03  0.59632354133E+03  0.25500000000E-02 0.  1.
          2   -1    0    0  501    0  0.00000000000E+00 -0.00000000000E+00 -0.55857406023E+03  0.55857406023E+03  0.25500000000E-02 0. -1.
    8880023    1    1    2    0    0  0.25287993499E+03 -0.42911828971E+02 -0.24060636830E+03  0.74665341177E+03  0.65864270000E+03 0. -1.
    8880022    1    1    2    0    0 -0.25287993499E+03  0.42911828971E+02  0.27835584940E+03  0.40824418979E+03  0.15294330000E+03 0.  0.
<mgrwt>
<rscale>  0 0.56985928E+03</rscale>
<asrwt>0</asrwt>
<pdfrwt beam="1">  1        2 0.85934470E-01 0.70682381E+03</pdfrwt>
<pdfrwt beam="2">  1       -2 0.91742084E-01 0.70682381E+03</pdfrwt>
<totfact> 0.55457632E+01</totfact>
</mgrwt>
</event>
<event>
 4    2  0.3171963E-007  0.1014073E+04  0.7818608E-02  0.9363374E-01
         -2   -1    0    0    0  501 -0.00000000000E+00  0.00000000000E+00  0.33760778312E+03  0.33760778313E+03  0.25500000000E-02 0.  1.
          2   -1    0    0  501    0  0.00000000000E+00 -0.00000000000E+00 -0.24403823280E+04  0.24403823280E+04  0.25500000000E-02 0. -1.
    8880023    1    1    2    0    0  0.77054459908E+03  0.28180010313E+02 -0.13603610040E+04  0.16967396263E+04  0.65864270000E+03 0.  0.
    8880022    1    1    2    0    0 -0.77054459908E+03 -0.28180010313E+02 -0.74241354093E+03  0.10812504848E+04  0.15294330000E+03 0.  0.
<mgrwt>
<rscale>  0 0.95152180E+03</rscale>
<asrwt>0</asrwt>
<pdfrwt beam="1">  1        2 0.37544342E+00 0.10140726E+04</pdfrwt>
<pdfrwt beam="2">  1       -2 0.51939660E-01 0.10140726E+04</pdfrwt>
<totfact> 0.13313607E+01</totfact>
</mgrwt>
</event>
<event>
 4    2  0.3171963E-007  0.8241063E+03  0.7818608E-02  0.9660910E-01
          2   -1    0    0  501    0  0.00000000000E+00  0.00000000000E+00  0.19459699635E+04  0.19459699635E+04  0.25500000000E-02 0. -1.
         -2   -1    0    0    0  501 -0.00000000000E+00 -0.00000000000E+00 -0.57101354807E+03  0.57101354807E+03  0.25500000000E-02 0.  1.
    8880023    1    1    2    0    0  0.49387989047E+03 -0.37731254421E+02  0.17110517320E+04  0.18991706689E+04  0.65864270000E+03 0. -1.
    8880022    1    1    2    0    0 -0.49387989047E+03  0.37731254421E+02 -0.33609531655E+03  0.61781284269E+03  0.15294330000E+03 0.  0.
<mgrwt>
<rscale>  0 0.73392635E+03</rscale>
<asrwt>0</asrwt>
<pdfrwt beam="1">  1        2 0.29938000E+00 0.82410630E+03</pdfrwt>
<pdfrwt beam="2">  1       -2 0.87848238E-01 0.82410630E+03</pdfrwt>
<totfact> 0.81856257E+00</totfact>
</mgrwt>
</event>
<event>
 4    2  0.3171963E-007  0.6874226E+03  0.7818608E-02  0.1005402E+00
          2   -1    0    0  501    0  0.00000000000E+00  0.00000000000E+00  0.58762657285E+03  0.58762657286E+03  0.25500000000E-02 0. -1.
         -2   -1    0    0    0  501 -0.00000000000E+00 -0.00000000000E+00 -0.73449411887E+03  0.73449411887E+03  0.25500000000E-02 0.  1.
    8880023    1    1    2    0    0 -0.19658895564E+03  0.96107935907E+01  0.34616364245E+03  0.76966165193E+03  0.65864270000E+03 0. -1.
    8880022    1    1    2    0    0  0.19658895564E+03 -0.96107935907E+01 -0.49303118847E+03  0.55245903980E+03  0.15294330000E+03 0.  0.
<mgrwt>
<rscale>  0 0.53343510E+03</rscale>
<asrwt>0</asrwt>
<pdfrwt beam="1">  1        2 0.90404088E-01 0.68742257E+03</pdfrwt>
<pdfrwt beam="2">  1       -2 0.11299909E+00 0.68742257E+03</pdfrwt>
<totfact> 0.31864429E+01</totfact>
</mgrwt>
</event>
<event>
 4    2  0.3171963E-007  0.7619555E+03  0.7818608E-02  0.9800071E-01
          2   -1    0    0  501    0  0.00000000000E+00  0.00000000000E+00  0.34262518589E+04  0.34262518589E+04  0.25500000000E-02 0. -1.
         -2   -1    0    0    0  501 -0.00000000000E+00 -0.00000000000E+00 -0.18738131059E+03  0.18738131061E+03  0.25500000000E-02 0.  1.
    8880023    1    1    2    0    0 -0.30869552768E+03  0.22687670073E+03  0.30779409706E+04  0.31708511146E+04  0.65864270000E+03 0.  0.
    8880022    1    1    2    0    0  0.30869552768E+03 -0.22687670073E+03  0.16092957767E+03  0.44278205488E+03  0.15294330000E+03 0.  0.
<mgrwt>
<rscale>  0 0.65358733E+03</rscale>
<asrwt>0</asrwt>
<pdfrwt beam="1">  1        2 0.52711570E+00 0.76195549E+03</pdfrwt>
<pdfrwt beam="2">  1       -2 0.28827893E-01 0.76195549E+03</pdfrwt>
<totfact> 0.10848692E+01</totfact>
</mgrwt>
</event>
<event>
 4    2  0.3171963E-007  0.6973880E+03  0.7818608E-02  0.1000821E+00
          2   -1    0    0  501    0  0.00000000000E+00  0.00000000000E+00  0.31329022564E+04  0.31329022564E+04  0.25500000000E-02 0. -1.
         -2   -1    0    0    0  501 -0.00000000000E+00 -0.00000000000E+00 -0.94315919591E+02  0.94315919625E+02  0.25500000000E-02 0.  1.
    8880023    1    1    2    0    0 -0.94129223502E+02 -0.20899644875E+03  0.27104341078E+04  0.27987145416E+04  0.65864270000E+03 0. -1.
    8880022    1    1    2    0    0  0.94129223502E+02  0.20899644875E+03  0.32815222900E+03  0.42850363443E+03  0.15294330000E+03 0.  0.
<mgrwt>
<rscale>  0 0.55291528E+03</rscale>
<asrwt>0</asrwt>
<pdfrwt beam="1">  1        2 0.48198490E+00 0.69738801E+03</pdfrwt>
<pdfrwt beam="2">  1       -2 0.14510143E-01 0.69738801E+03</pdfrwt>
<totfact> 0.56766131E+01</totfact>
</mgrwt>
</event>
<event>
 4    2  0.3171963E-007  0.7274406E+03  0.7818608E-02  0.9898169E-01
         -2   -1    0    0    0  501 -0.00000000000E+00  0.00000000000E+00  0.34525859825E+03  0.34525859826E+03  0.25500000000E-02 0.  1.
          2   -1    0    0  501    0  0.00000000000E+00 -0.00000000000E+00 -0.10145661745E+04  0.10145661745E+04  0.25500000000E-02 0. -1.
    8880023    1    1    2    0    0 -0.96253217744E+02 -0.29341947572E+03 -0.70545685383E+03  0.10133307701E+04  0.65864270000E+03 0. -1.
    8880022    1    1    2    0    0  0.96253217744E+02  0.29341947572E+03  0.36149277536E+02  0.34649400275E+03  0.15294330000E+03 0.  0.
<mgrwt>
<rscale>  0 0.60350097E+03</rscale>
<asrwt>0</asrwt>
<pdfrwt beam="1">  1        2 0.15608710E+00 0.72744063E+03</pdfrwt>
<pdfrwt beam="2">  1       -2 0.53116708E-01 0.72744063E+03</pdfrwt>
<totfact> 0.83714474E+01</totfact>
</mgrwt>
</event>
<event>
 4    2  0.3171963E-007  0.7276471E+03  0.7818608E-02  0.9897512E-01
         -2   -1    0    0    0  501 -0.00000000000E+00  0.00000000000E+00  0.76953541876E+03  0.76953541877E+03  0.25500000000E-02 0.  1.
          2   -1    0    0  501    0  0.00000000000E+00 -0.00000000000E+00 -0.57063807771E+03  0.57063807772E+03  0.25500000000E-02 0. -1.
    8880023    1    1    2    0    0 -0.30868991237E+03 -0.19253367440E+02 -0.25409867989E+03  0.77073763340E+03  0.65864270000E+03 0. -1.
    8880022    1    1    2    0    0  0.30868991237E+03  0.19253367440E+02  0.45299602094E+03  0.56943586308E+03  0.15294330000E+03 0.  0.
<mgrwt>
<rscale>  0 0.60382017E+03</rscale>
<asrwt>0</asrwt>
<pdfrwt beam="1">  1        2 0.87790473E-01 0.72764714E+03</pdfrwt>
<pdfrwt beam="2">  1       -2 0.11839006E+00 0.72764714E+03</pdfrwt>
<totfact> 0.29350315E+01</totfact>
</mgrwt>
</event>
<event>
 4    2  0.3171963E-007  0.7484256E+03  0.7818608E-02  0.9836050E-01
         -2   -1    0    0    0  501 -0.00000000000E+00  0.00000000000E+00  0.84752199801E+03  0.84752199801E+03  0.25500000000E-02 0.  1.
          2   -1    0    0  501    0  0.00000000000E+00 -0.00000000000E+00 -0.44076105070E+03  0.44076105071E+03  0.25500000000E-02 0. -1.
    8880023    1    1    2    0    0  0.16017097369E+03  0.31729472730E+03  0.31233626544E+02  0.74907705243E+03  0.65864270000E+03 0.  0.
    8880022    1    1    2    0    0 -0.16017097369E+03 -0.31729472730E+03  0.37552732076E+03  0.53920599629E+03  0.15294330000E+03 0.  0.
<mgrwt>
<rscale>  0 0.63463249E+03</rscale>
<asrwt>0</asrwt>
<pdfrwt beam="1">  1        2 0.67809394E-01 0.74842561E+03</pdfrwt>
<pdfrwt beam="2">  1       -2 0.13038800E+00 0.74842561E+03</pdfrwt>
<totfact> 0.31072770E+01</totfact>
</mgrwt>
</event>
<event>
 4    2  0.3171963E-007  0.9832404E+03  0.7818608E-02  0.9403820E-01
         -2   -1    0    0    0  501 -0.00000000000E+00  0.00000000000E+00  0.19218357520E+04  0.19218357520E+04  0.25500000000E-02 0.  1.
          2   -1    0    0  501    0  0.00000000000E+00 -0.00000000000E+00 -0.15202851097E+04  0.15202851097E+04  0.25500000000E-02 0. -1.
    8880023    1    1    2    0    0  0.12855649668E+03 -0.71862689623E+03  0.16889211599E+04  0.19542815251E+04  0.65864270000E+03 0.  0.
    8880022    1    1    2    0    0 -0.12855649668E+03  0.71862689623E+03 -0.12873705176E+04  0.14878393366E+04  0.15294330000E+03 0.  0.
<mgrwt>
<rscale>  0 0.91761944E+03</rscale>
<asrwt>0</asrwt>
<pdfrwt beam="1">  1        2 0.23389002E+00 0.98324035E+03</pdfrwt>
<pdfrwt beam="2">  1       -2 0.29566704E+00 0.98324035E+03</pdfrwt>
<totfact> 0.42087293E-01</totfact>
</mgrwt>
</event>
<event>
 4    2  0.3171963E-007  0.7044376E+03  0.7818608E-02  0.9979268E-01
          2   -1    0    0  501    0  0.00000000000E+00  0.00000000000E+00  0.40490948973E+03  0.40490948974E+03  0.25500000000E-02 0. -1.
         -2   -1    0    0    0  501 -0.00000000000E+00 -0.00000000000E+00 -0.62667931605E+03  0.62667931605E+03  0.25500000000E-02 0.  1.
    8880023    1    1    2    0    0 -0.23297613294E+03 -0.90245127591E+02 -0.89250887634E+02  0.71006900283E+03  0.65864270000E+03 0. -1.
    8880022    1    1    2    0    0  0.23297613294E+03  0.90245127591E+02 -0.13251893868E+03  0.32151980296E+03  0.15294330000E+03 0.  1.
<mgrwt>
<rscale>  0 0.56568734E+03</rscale>
<asrwt>0</asrwt>
<pdfrwt beam="1">  1        2 0.62293768E-01 0.70443755E+03</pdfrwt>
<pdfrwt beam="2">  1       -2 0.96412203E-01 0.70443755E+03</pdfrwt>
<totfact> 0.71565954E+01</totfact>
</mgrwt>
</event>
<event>
 4    2  0.3171963E-007  0.7691526E+03  0.7818608E-02  0.9781964E-01
          2   -1    0    0  501    0  0.00000000000E+00  0.00000000000E+00  0.38015898897E+04  0.38015898897E+04  0.25500000000E-02 0. -1.
         -2   -1    0    0    0  501 -0.00000000000E+00 -0.00000000000E+00 -0.17100877116E+03  0.17100877118E+03  0.25500000000E-02 0.  1.
    8880023    1    1    2    0    0 -0.33119723153E+03  0.21930327864E+03  0.34051529132E+04  0.34909400027E+04  0.65864270000E+03 0. -1.
    8880022    1    1    2    0    0  0.33119723153E+03 -0.21930327864E+03  0.22542820536E+03  0.48165865816E+03  0.15294330000E+03 0.  0.
<mgrwt>
<rscale>  0 0.66339521E+03</rscale>
<asrwt>0</asrwt>
<pdfrwt beam="1">  1        2 0.58485998E+00 0.76915261E+03</pdfrwt>
<pdfrwt beam="2">  1       -2 0.26309042E-01 0.76915261E+03</pdfrwt>
<totfact> 0.69705865E+00</totfact>
</mgrwt>
</event>
<event>
 4    2  0.3171963E-007  0.7801024E+03  0.7818608E-02  0.9755597E-01
         -2   -1    0    0    0  501 -0.00000000000E+00  0.00000000000E+00  0.58156405741E+03  0.58156405742E+03  0.25500000000E-02 0.  1.
          2   -1    0    0  501    0  0.00000000000E+00 -0.00000000000E+00 -0.81396127485E+03  0.81396127486E+03  0.25500000000E-02 0. -1.
    8880023    1    1    2    0    0  0.32208702230E+03 -0.26647599700E+03 -0.44942991299E+03  0.90030381531E+03  0.65864270000E+03 0.  0.
    8880022    1    1    2    0    0 -0.32208702230E+03  0.26647599700E+03  0.21703269555E+03  0.49522151696E+03  0.15294330000E+03 0.  0.
<mgrwt>
<rscale>  0 0.67800912E+03</rscale>
<asrwt>0</asrwt>
<pdfrwt beam="1">  1        2 0.12522481E+00 0.78010237E+03</pdfrwt>
<pdfrwt beam="2">  1       -2 0.89471394E-01 0.78010237E+03</pdfrwt>
<totfact> 0.36473164E+01</totfact>
</mgrwt>
</event>
<event>
 4    2  0.3171963E-007  0.1231939E+04  0.7818608E-02  0.9126684E-01
         -2   -1    0    0    0  501 -0.00000000000E+00  0.00000000000E+00  0.94456606009E+03  0.94456606009E+03  0.25500000000E-02 0.  1.
          2   -1    0    0  501    0  0.00000000000E+00 -0.00000000000E+00 -0.17847725465E+04  0.17847725465E+04  0.25500000000E-02 0. -1.
    8880023    1    1    2    0    0 -0.84504019046E+03  0.60808703231E+03 -0.10932504538E+04  0.16470790884E+04  0.65864270000E+03 0.  0.
    8880022    1    1    2    0    0  0.84504019046E+03 -0.60808703231E+03  0.25304396738E+03  0.10822595182E+04  0.15294330000E+03 0.  0.
<mgrwt>
<rscale>  0 0.11843301E+04</rscale>
<asrwt>0</asrwt>
<pdfrwt beam="1">  1        2 0.27458039E+00 0.12319387E+04</pdfrwt>
<pdfrwt beam="2">  1       -2 0.14531786E+00 0.12319387E+04</pdfrwt>
<totfact> 0.27792034E+00</totfact>
</mgrwt>
</event>
<event>
 4    2  0.3171963E-007  0.7919310E+03  0.7818608E-02  0.9728522E-01
         -2   -1    0    0    0  501 -0.00000000000E+00  0.00000000000E+00  0.23483430593E+03  0.23483430594E+03  0.25500000000E-02 0.  1.
          2   -1    0    0  501    0  0.00000000000E+00 -0.00000000000E+00 -0.26852918156E+04  0.26852918156E+04  0.25500000000E-02 0. -1.
    8880023    1    1    2    0    0  0.16592376748E+01  0.43970648422E+03 -0.22974000092E+04  0.24300620474E+04  0.65864270000E+03 0. -1.
    8880022    1    1    2    0    0 -0.16592376748E+01 -0.43970648422E+03 -0.15305750043E+03  0.49006407417E+03  0.15294330000E+03 0.  0.
<mgrwt>
<rscale>  0 0.69343690E+03</rscale>
<asrwt>0</asrwt>
<pdfrwt beam="1">  1        2 0.41312180E+00 0.79193103E+03</pdfrwt>
<pdfrwt beam="2">  1       -2 0.36128357E-01 0.79193103E+03</pdfrwt>
<totfact> 0.20382364E+01</totfact>
</mgrwt>
</event>
<event>
 4    2  0.3171963E-007  0.1219297E+04  0.7818608E-02  0.9138589E-01
          2   -1    0    0  501    0  0.00000000000E+00  0.00000000000E+00  0.18592961033E+04  0.18592961033E+04  0.25500000000E-02 0. -1.
         -2   -1    0    0    0  501 -0.00000000000E+00 -0.00000000000E+00 -0.15802631858E+04  0.15802631858E+04  0.25500000000E-02 0.  1.
    8880023    1    1    2    0    0 -0.82001565718E+03 -0.61680489142E+03  0.14371702067E+04  0.18847128061E+04  0.65864270000E+03 0.  0.
    8880022    1    1    2    0    0  0.82001565718E+03  0.61680489142E+03 -0.11581372892E+04  0.15548464830E+04  0.15294330000E+03 0.  0.
<mgrwt>
<rscale>  0 0.11710406E+04</rscale>
<asrwt>0</asrwt>
<pdfrwt beam="1">  1        2 0.28604555E+00 0.12192966E+04</pdfrwt>
<pdfrwt beam="2">  1       -2 0.24311741E+00 0.12192966E+04</pdfrwt>
<totfact> 0.54945169E-01</totfact>
</mgrwt>
</event>
<event>
 4    2  0.3171963E-007  0.8177082E+03  0.7818608E-02  0.9673739E-01
         -2   -1    0    0    0  501 -0.00000000000E+00  0.00000000000E+00  0.26917126661E+03  0.26917126662E+03  0.25500000000E-02 0.  1.
          2   -1    0    0  501    0  0.00000000000E+00 -0.00000000000E+00 -0.16327248602E+04  0.16327248602E+04  0.25500000000E-02 0. -1.
    8880023    1    1    2    0    0 -0.72627032805E+02  0.47912606662E+03 -0.84098930596E+03  0.11729917700E+04  0.65864270000E+03 0.  1.
    8880022    1    1    2    0    0  0.72627032805E+02 -0.47912606662E+03 -0.52256428767E+03  0.72890435681E+03  0.15294330000E+03 0. -1.
<mgrwt>
<rscale>  0 0.72602103E+03</rscale>
<asrwt>0</asrwt>
<pdfrwt beam="1">  1        2 0.25118844E+00 0.81770819E+03</pdfrwt>
<pdfrwt beam="2">  1       -2 0.41410965E-01 0.81770819E+03</pdfrwt>
<totfact> 0.60003286E+01</totfact>
</mgrwt>
</event>
<event>
 4    2  0.3171963E-007  0.7086626E+03  0.7818608E-02  0.9963001E-01
          2   -1    0    0  501    0  0.00000000000E+00  0.00000000000E+00  0.37203421915E+03  0.37203421916E+03  0.25500000000E-02 0. -1.
         -2   -1    0    0    0  501 -0.00000000000E+00 -0.00000000000E+00 -0.97473102348E+03  0.97473102348E+03  0.25500000000E-02 0.  1.
    8880023    1    1    2    0    0 -0.12649984732E+03  0.22888923818E+03 -0.42550732931E+02  0.70993891699E+03  0.65864270000E+03 0.  0.
    8880022    1    1    2    0    0  0.12649984732E+03 -0.22888923818E+03 -0.56014607139E+03  0.63682632565E+03  0.15294330000E+03 0.  0.
<mgrwt>
<rscale>  0 0.57302768E+03</rscale>
<asrwt>0</asrwt>
<pdfrwt beam="1">  1        2 0.57236034E-01 0.70866261E+03</pdfrwt>
<pdfrwt beam="2">  1       -2 0.14995862E+00 0.70866261E+03</pdfrwt>
<totfact> 0.26282559E+01</totfact>
</mgrwt>
</event>
<event>
 4    2  0.3171963E-007  0.7183635E+03  0.7818608E-02  0.9928163E-01
          2   -1    0    0  501    0  0.00000000000E+00  0.00000000000E+00  0.11388474139E+04  0.11388474139E+04  0.25500000000E-02 0. -1.
         -2   -1    0    0    0  501 -0.00000000000E+00 -0.00000000000E+00 -0.26308764960E+03  0.26308764961E+03  0.25500000000E-02 0.  1.
    8880023    1    1    2    0    0 -0.11828314750E+03  0.26123756579E+03  0.78588040354E+03  0.10647319774E+04  0.65864270000E+03 0.  0.
    8880022    1    1    2    0    0  0.11828314750E+03 -0.26123756579E+03  0.89879360728E+02  0.33720308608E+03  0.15294330000E+03 0.  0.
<mgrwt>
<rscale>  0 0.58915613E+03</rscale>
<asrwt>0</asrwt>
<pdfrwt beam="1">  1        2 0.17520729E+00 0.71836354E+03</pdfrwt>
<pdfrwt beam="2">  1       -2 0.40475023E-01 0.71836354E+03</pdfrwt>
<totfact> 0.12109096E+02</totfact>
</mgrwt>
</event>
<event>
 4    2  0.3171963E-007  0.8043194E+03  0.7818608E-02  0.9701533E-01
          2   -1    0    0  501    0  0.00000000000E+00  0.00000000000E+00  0.15953129949E+04  0.15953129949E+04  0.25500000000E-02 0. -1.
         -2   -1    0    0    0  501 -0.00000000000E+00 -0.00000000000E+00 -0.41086432758E+03  0.41086432759E+03  0.25500000000E-02 0.  1.
    8880023    1    1    2    0    0  0.21673809566E+03 -0.40760781177E+03  0.12788678944E+04  0.15107722621E+04  0.65864270000E+03 0. -1.
    8880022    1    1    2    0    0 -0.21673809566E+03  0.40760781177E+03 -0.94419227154E+02  0.49540506032E+03  0.15294330000E+03 0.  0.
<mgrwt>
<rscale>  0 0.70925577E+03</rscale>
<asrwt>0</asrwt>
<pdfrwt beam="1">  1        2 0.24543277E+00 0.80431942E+03</pdfrwt>
<pdfrwt beam="2">  1       -2 0.63209896E-01 0.80431942E+03</pdfrwt>
<totfact> 0.26494988E+01</totfact>
</mgrwt>
</event>
<event>
 4    2  0.3171963E-007  0.7817081E+03  0.7818608E-02  0.9751840E-01
          2   -1    0    0  501    0  0.00000000000E+00  0.00000000000E+00  0.11871500331E+04  0.11871500331E+04  0.25500000000E-02 0. -1.
         -2   -1    0    0    0  501 -0.00000000000E+00 -0.00000000000E+00 -0.32954171462E+03  0.32954171463E+03  0.25500000000E-02 0.  1.
    8880023    1    1    2    0    0  0.77747951880E+02  0.41377845713E+03  0.67555494608E+03  0.10331708702E+04  0.65864270000E+03 0. -1.
    8880022    1    1    2    0    0 -0.77747951880E+02 -0.41377845713E+03  0.18205337245E+03  0.48352087757E+03  0.15294330000E+03 0.  1.
<mgrwt>
<rscale>  0 0.68012398E+03</rscale>
<asrwt>0</asrwt>
<pdfrwt beam="1">  1        2 0.18263847E+00 0.78170811E+03</pdfrwt>
<pdfrwt beam="2">  1       -2 0.50698725E-01 0.78170811E+03</pdfrwt>
<totfact> 0.71888585E+01</totfact>
</mgrwt>
</event>
<event>
 4    2  0.3171963E-007  0.7688606E+03  0.7818608E-02  0.9782686E-01
         -2   -1    0    0    0  501 -0.00000000000E+00  0.00000000000E+00  0.23917286662E+03  0.23917286664E+03  0.25500000000E-02 0.  1.
          2   -1    0    0  501    0  0.00000000000E+00 -0.00000000000E+00 -0.20264400770E+04  0.20264400770E+04  0.25500000000E-02 0. -1.
    8880023    1    1    2    0    0 -0.30798410133E+03  0.24996450170E+03 -0.16475483428E+04  0.18181205150E+04  0.65864270000E+03 0.  0.
    8880022    1    1    2    0    0  0.30798410133E+03 -0.24996450170E+03 -0.13971886762E+03  0.44749242872E+03  0.15294330000E+03 0.  0.
<mgrwt>
<rscale>  0 0.66300061E+03</rscale>
<asrwt>0</asrwt>
<pdfrwt beam="1">  1        2 0.31176000E+00 0.76886063E+03</pdfrwt>
<pdfrwt beam="2">  1       -2 0.36795827E-01 0.76886063E+03</pdfrwt>
<totfact> 0.46216135E+01</totfact>
</mgrwt>
</event>
<event>
 4    2  0.3171963E-007  0.9320113E+03  0.7818608E-02  0.9476482E-01
         -2   -1    0    0    0  501 -0.00000000000E+00  0.00000000000E+00  0.28691047062E+03  0.28691047063E+03  0.25500000000E-02 0.  1.
          2   -1    0    0  501    0  0.00000000000E+00 -0.00000000000E+00 -0.22556632631E+04  0.22556632631E+04  0.25500000000E-02 0. -1.
    8880023    1    1    2    0    0 -0.38549086557E+03 -0.53500625331E+03 -0.11439041828E+04  0.14755208857E+04  0.65864270000E+03 0. -1.
    8880022    1    1    2    0    0  0.38549086557E+03  0.53500625331E+03 -0.82484860966E+03  0.10670528480E+04  0.15294330000E+03 0.  1.
<mgrwt>
<rscale>  0 0.86040103E+03</rscale>
<asrwt>0</asrwt>
<pdfrwt beam="1">  1        2 0.34702511E+00 0.93201132E+03</pdfrwt>
<pdfrwt beam="2">  1       -2 0.44140074E-01 0.93201132E+03</pdfrwt>
<totfact> 0.23739544E+01</totfact>
</mgrwt>
</event>
<event>
 4    2  0.3171963E-007  0.7047935E+03  0.7818608E-02  0.9977868E-01
          2   -1    0    0  501    0  0.00000000000E+00  0.00000000000E+00  0.12646486315E+04  0.12646486315E+04  0.25500000000E-02 0. -1.
         -2   -1    0    0    0  501 -0.00000000000E+00 -0.00000000000E+00 -0.76707096770E+03  0.76707096771E+03  0.25500000000E-02 0.  1.
    8880023    1    1    2    0    0  0.39850010571E+02  0.24766043050E+03  0.11314854473E+04  0.13330390977E+04  0.65864270000E+03 0. -1.
    8880022    1    1    2    0    0 -0.39850010571E+02 -0.24766043050E+03 -0.63390778353E+03  0.69868050153E+03  0.15294330000E+03 0.  0.
<mgrwt>
<rscale>  0 0.56631419E+03</rscale>
<asrwt>0</asrwt>
<pdfrwt beam="1">  1        2 0.19456133E+00 0.70479353E+03</pdfrwt>
<pdfrwt beam="2">  1       -2 0.11801092E+00 0.70479353E+03</pdfrwt>
<totfact> 0.98549107E+00</totfact>
</mgrwt>
</event>
<event>
 4    2  0.3171963E-007  0.9740931E+03  0.7818608E-02  0.9416265E-01
          2   -1    0    0  501    0  0.00000000000E+00  0.00000000000E+00  0.15797818126E+04  0.15797818126E+04  0.25500000000E-02 0. -1.
         -2   -1    0    0    0  501 -0.00000000000E+00 -0.00000000000E+00 -0.54970536767E+03  0.54970536768E+03  0.25500000000E-02 0.  1.
    8880023    1    1    2    0    0 -0.68315685679E+03  0.21987259014E+03  0.99862390550E+03  0.13950294469E+04  0.65864270000E+03 0.  1.
    8880022    1    1    2    0    0  0.68315685679E+03 -0.21987259014E+03  0.31452539446E+02  0.73445773338E+03  0.15294330000E+03 0.  0.
<mgrwt>
<rscale>  0 0.90749119E+03</rscale>
<asrwt>0</asrwt>
<pdfrwt beam="1">  1        2 0.24304335E+00 0.97409314E+03</pdfrwt>
<pdfrwt beam="2">  1       -2 0.84570057E-01 0.97409314E+03</pdfrwt>
<totfact> 0.13950864E+01</totfact>
</mgrwt>
</event>
<event>
 4    2  0.3171963E-007  0.7372304E+03  0.7818608E-02  0.9868089E-01
          2   -1    0    0  501    0  0.00000000000E+00  0.00000000000E+00  0.30163969813E+04  0.30163969813E+04  0.25500000000E-02 0. -1.
         -2   -1    0    0    0  501 -0.00000000000E+00 -0.00000000000E+00 -0.22122955034E+03  0.22122955035E+03  0.25500000000E-02 0.  1.
    8880023    1    1    2    0    0 -0.15904109314E+03  0.29052444009E+03  0.27760893182E+04  0.28723127665E+04  0.65864270000E+03 0. -1.
    8880022    1    1    2    0    0  0.15904109314E+03 -0.29052444009E+03  0.19078112723E+02  0.36531376513E+03  0.15294330000E+03 0.  0.
<mgrwt>
<rscale>  0 0.61833054E+03</rscale>
<asrwt>0</asrwt>
<pdfrwt beam="1">  1        2 0.46406104E+00 0.73723044E+03</pdfrwt>
<pdfrwt beam="2">  1       -2 0.34035318E-01 0.73723044E+03</pdfrwt>
<totfact> 0.14617435E+01</totfact>
</mgrwt>
</event>
<event>
 4    2  0.3171963E-007  0.9709530E+03  0.7818608E-02  0.9420587E-01
         -2   -1    0    0    0  501 -0.00000000000E+00  0.00000000000E+00  0.54315354738E+03  0.54315354739E+03  0.25500000000E-02 0.  1.
          2   -1    0    0  501    0  0.00000000000E+00 -0.00000000000E+00 -0.18148942363E+04  0.18148942363E+04  0.25500000000E-02 0. -1.
    8880023    1    1    2    0    0  0.59912306988E+03 -0.38728692291E+03 -0.13062911177E+04  0.16276198279E+04  0.65864270000E+03 0.  0.
    8880022    1    1    2    0    0 -0.59912306988E+03  0.38728692291E+03  0.34550428802E+02  0.73042795584E+03  0.15294330000E+03 0.  0.
<mgrwt>
<rscale>  0 0.90400622E+03</rscale>
<asrwt>0</asrwt>
<pdfrwt beam="1">  1        2 0.27921450E+00 0.97095305E+03</pdfrwt>
<pdfrwt beam="2">  1       -2 0.83562085E-01 0.97095305E+03</pdfrwt>
<totfact> 0.10634076E+01</totfact>
</mgrwt>
</event>
<event>
 4    2  0.3171963E-007  0.7585430E+03  0.7818608E-02  0.9808894E-01
         -2   -1    0    0    0  501 -0.00000000000E+00  0.00000000000E+00  0.12093140939E+04  0.12093140939E+04  0.25500000000E-02 0.  1.
          2   -1    0    0  501    0  0.00000000000E+00 -0.00000000000E+00 -0.76387331968E+03  0.76387331969E+03  0.25500000000E-02 0. -1.
    8880023    1    1    2    0    0  0.31182152511E+03 -0.21058146137E+03 -0.52411109541E+03  0.92199775596E+03  0.65864270000E+03 0. -1.
    8880022    1    1    2    0    0 -0.31182152511E+03  0.21058146137E+03  0.96955186960E+03  0.10511896576E+04  0.15294330000E+03 0.  0.
<mgrwt>
<rscale>  0 0.64887402E+03</rscale>
<asrwt>0</asrwt>
<pdfrwt beam="1">  1        2 0.11751897E+00 0.75854296E+03</pdfrwt>
<pdfrwt beam="2">  1       -2 0.18604832E+00 0.75854296E+03</pdfrwt>
<totfact> 0.61461686E+00</totfact>
</mgrwt>
</event>
<event>
 4    2  0.3171963E-007  0.1205455E+04  0.7818608E-02  0.9151838E-01
         -2   -1    0    0    0  501 -0.00000000000E+00  0.00000000000E+00  0.74829902557E+03  0.74829902558E+03  0.25500000000E-02 0.  1.
          2   -1    0    0  501    0  0.00000000000E+00 -0.00000000000E+00 -0.17169459073E+04  0.17169459073E+04  0.25500000000E-02 0. -1.
    8880023    1    1    2    0    0 -0.34761631285E+03 -0.94787869679E+03 -0.75386955752E+03  0.14217737657E+04  0.65864270000E+03 0.  0.
    8880022    1    1    2    0    0  0.34761631285E+03  0.94787869679E+03 -0.21477732425E+03  0.10434711672E+04  0.15294330000E+03 0.  0.
<mgrwt>
<rscale>  0 0.11564671E+04</rscale>
<asrwt>0</asrwt>
<pdfrwt beam="1">  1        2 0.26414552E+00 0.12054548E+04</pdfrwt>
<pdfrwt beam="2">  1       -2 0.11512293E+00 0.12054548E+04</pdfrwt>
<totfact> 0.55040384E+00</totfact>
</mgrwt>
</event>
<event>
 4    2  0.3171963E-007  0.1027778E+04  0.7818608E-02  0.9346085E-01
          2   -1    0    0  501    0  0.00000000000E+00  0.00000000000E+00  0.26257085471E+04  0.26257085471E+04  0.25500000000E-02 0. -1.
         -2   -1    0    0    0  501 -0.00000000000E+00 -0.00000000000E+00 -0.43367414840E+03  0.43367414841E+03  0.25500000000E-02 0.  1.
    8880023    1    1    2    0    0 -0.53260583070E+03  0.58210661213E+03  0.19757776626E+04  0.22271112808E+04  0.65864270000E+03 0.  0.
    8880022    1    1    2    0    0  0.53260583070E+03 -0.58210661213E+03  0.21625673608E+03  0.83227141468E+03  0.15294330000E+03 0.  0.
<mgrwt>
<rscale>  0 0.96648659E+03</rscale>
<asrwt>0</asrwt>
<pdfrwt beam="1">  1        2 0.40395515E+00 0.10277778E+04</pdfrwt>
<pdfrwt beam="2">  1       -2 0.66719101E-01 0.10277778E+04</pdfrwt>
<totfact> 0.61262403E+00</totfact>
</mgrwt>
</event>
<event>
 4    2  0.3171963E-007  0.8569935E+03  0.7818608E-02  0.9598934E-01
         -2   -1    0    0    0  501 -0.00000000000E+00  0.00000000000E+00  0.12660039002E+03  0.12660039004E+03  0.25500000000E-02 0.  1.
          2   -1    0    0  501    0  0.00000000000E+00 -0.00000000000E+00 -0.51416621111E+04  0.51416621111E+04  0.25500000000E-02 0. -1.
    8880023    1    1    2    0    0 -0.20302383546E+03  0.50932200562E+03 -0.41151124063E+04  0.42034019444E+04  0.65864270000E+03 0. -1.
    8880022    1    1    2    0    0  0.20302383546E+03 -0.50932200562E+03 -0.89994931474E+03  0.10648605567E+04  0.15294330000E+03 0.  0.
<mgrwt>
<rscale>  0 0.77366772E+03</rscale>
<asrwt>0</asrwt>
<pdfrwt beam="1">  1        2 0.79102478E+00 0.85699346E+03</pdfrwt>
<pdfrwt beam="2">  1       -2 0.19476987E-01 0.85699346E+03</pdfrwt>
<totfact> 0.57451897E-01</totfact>
</mgrwt>
</event>
<event>
 4    2  0.3171963E-007  0.7713453E+03  0.7818608E-02  0.9776574E-01
         -2   -1    0    0    0  501 -0.00000000000E+00  0.00000000000E+00  0.15756553512E+03  0.15756553514E+03  0.25500000000E-02 0.  1.
          2   -1    0    0  501    0  0.00000000000E+00 -0.00000000000E+00 -0.29515755279E+04  0.29515755279E+04  0.25500000000E-02 0. -1.
    8880023    1    1    2    0    0 -0.10984246491E+03  0.38613216120E+03 -0.24186140955E+04  0.25386350195E+04  0.65864270000E+03 0.  0.
    8880022    1    1    2    0    0  0.10984246491E+03 -0.38613216120E+03 -0.37539589729E+03  0.57050604355E+03  0.15294330000E+03 0.  0.
<mgrwt>
<rscale>  0 0.66634998E+03</rscale>
<asrwt>0</asrwt>
<pdfrwt beam="1">  1        2 0.45408850E+00 0.77134533E+03</pdfrwt>
<pdfrwt beam="2">  1       -2 0.24240854E-01 0.77134533E+03</pdfrwt>
<totfact> 0.29774036E+01</totfact>
</mgrwt>
</event>
<event>
 4    2  0.3171963E-007  0.7573470E+03  0.7818608E-02  0.9812025E-01
         -2   -1    0    0    0  501 -0.00000000000E+00  0.00000000000E+00  0.13225478728E+03  0.13225478731E+03  0.25500000000E-02 0.  1.
          2   -1    0    0  501    0  0.00000000000E+00 -0.00000000000E+00 -0.34040668093E+04  0.34040668093E+04  0.25500000000E-02 0. -1.
    8880023    1    1    2    0    0 -0.32052926429E+03  0.19241958977E+03 -0.28635565781E+04  0.29620146506E+04  0.65864270000E+03 0. -1.
    8880022    1    1    2    0    0  0.32052926429E+03 -0.19241958977E+03 -0.40825544391E+03  0.57430694606E+03  0.15294330000E+03 0.  0.
<mgrwt>
<rscale>  0 0.64721200E+03</rscale>
<asrwt>0</asrwt>
<pdfrwt beam="1">  1        2 0.52370252E+00 0.75734702E+03</pdfrwt>
<pdfrwt beam="2">  1       -2 0.20346893E-01 0.75734702E+03</pdfrwt>
<totfact> 0.21016289E+01</totfact>
</mgrwt>
</event>
<event>
 4    2  0.3171963E-007  0.8862975E+03  0.7818608E-02  0.9548396E-01
         -2   -1    0    0    0  501 -0.00000000000E+00  0.00000000000E+00  0.12584873404E+04  0.12584873404E+04  0.25500000000E-02 0.  1.
          2   -1    0    0  501    0  0.00000000000E+00 -0.00000000000E+00 -0.59009229826E+03  0.59009229827E+03  0.25500000000E-02 0. -1.
    8880023    1    1    2    0    0  0.44995448264E+03  0.38633406741E+03 -0.70215421717E+02  0.88907449620E+03  0.65864270000E+03 0. -1.
    8880022    1    1    2    0    0 -0.44995448264E+03 -0.38633406741E+03  0.73861046384E+03  0.95950514246E+03  0.15294330000E+03 0.  0.
<mgrwt>
<rscale>  0 0.80807879E+03</rscale>
<asrwt>0</asrwt>
<pdfrwt beam="1">  1        2 0.90783432E-01 0.88629750E+03</pdfrwt>
<pdfrwt beam="2">  1       -2 0.19361343E+00 0.88629750E+03</pdfrwt>
<totfact> 0.74521856E+00</totfact>
</mgrwt>
</event>
<event>
 4    2  0.3171963E-007  0.1124434E+04  0.7818608E-02  0.9234328E-01
         -2   -1    0    0    0  501 -0.00000000000E+00  0.00000000000E+00  0.53144635796E+03  0.53144635796E+03  0.25500000000E-02 0.  1.
          2   -1    0    0  501    0  0.00000000000E+00 -0.00000000000E+00 -0.33050544321E+04  0.33050544321E+04  0.25500000000E-02 0. -1.
    8880023    1    1    2    0    0  0.83363784001E+03  0.36822388219E+03 -0.26816509807E+04  0.29078519674E+04  0.65864270000E+03 0. -1.
    8880022    1    1    2    0    0 -0.83363784001E+03 -0.36822388219E+03 -0.91957093389E+02  0.92864882262E+03  0.15294330000E+03 0.  0.
<mgrwt>
<rscale>  0 0.10706027E+04</rscale>
<asrwt>0</asrwt>
<pdfrwt beam="1">  1        2 0.50846990E+00 0.11244337E+04</pdfrwt>
<pdfrwt beam="2">  1       -2 0.81760981E-01 0.11244337E+04</pdfrwt>
<totfact> 0.14685188E+00</totfact>
</mgrwt>
</event>
<event>
 4    2  0.3171963E-007  0.1197134E+04  0.7818608E-02  0.9159914E-01
          2   -1    0    0  501    0  0.00000000000E+00  0.00000000000E+00  0.79734310360E+03  0.79734310361E+03  0.25500000000E-02 0. -1.
         -2   -1    0    0    0  501 -0.00000000000E+00 -0.00000000000E+00 -0.18553538157E+04  0.18553538157E+04  0.25500000000E-02 0.  1.
    8880023    1    1    2    0    0 -0.56395137072E+03  0.82539531924E+03 -0.11205204770E+02  0.11971860108E+04  0.65864270000E+03 0.  0.
    8880022    1    1    2    0    0  0.56395137072E+03 -0.82539531924E+03 -0.10468055073E+04  0.14555109085E+04  0.15294330000E+03 0.  0.
<mgrwt>
<rscale>  0 0.11476938E+04</rscale>
<asrwt>0</asrwt>
<pdfrwt beam="1">  1        2 0.12266817E+00 0.11971336E+04</pdfrwt>
<pdfrwt beam="2">  1       -2 0.28543905E+00 0.11971336E+04</pdfrwt>
<totfact> 0.13223759E+00</totfact>
</mgrwt>
</event>
<event>
 4    2  0.3171963E-007  0.7499181E+03  0.7818608E-02  0.9831945E-01
          2   -1    0    0  501    0  0.00000000000E+00  0.00000000000E+00  0.12016179118E+04  0.12016179118E+04  0.25500000000E-02 0. -1.
         -2   -1    0    0    0  501 -0.00000000000E+00 -0.00000000000E+00 -0.11333787482E+04  0.11333787482E+04  0.25500000000E-02 0.  1.
    8880023    1    1    2    0    0 -0.98182909115E+02 -0.34485796659E+03  0.10433261583E+04  0.12848760951E+04  0.65864270000E+03 0.  0.
    8880022    1    1    2    0    0  0.98182909115E+02  0.34485796659E+03 -0.97508699464E+03  0.10501205649E+04  0.15294330000E+03 0.  0.
<mgrwt>
<rscale>  0 0.63676034E+03</rscale>
<asrwt>0</asrwt>
<pdfrwt beam="1">  1        2 0.18486429E+00 0.74991807E+03</pdfrwt>
<pdfrwt beam="2">  1       -2 0.17436596E+00 0.74991807E+03</pdfrwt>
<totfact> 0.38400443E+00</totfact>
</mgrwt>
</event>
<event>
 4    2  0.3171963E-007  0.6757515E+03  0.7818608E-02  0.1011837E+00
         -2   -1    0    0    0  501 -0.00000000000E+00  0.00000000000E+00  0.29495516205E+03  0.29495516206E+03  0.25500000000E-02 0.  1.
          2   -1    0    0  501    0  0.00000000000E+00 -0.00000000000E+00 -0.12530630168E+04  0.12530630168E+04  0.25500000000E-02 0. -1.
    8880023    1    1    2    0    0 -0.14987236961E+02  0.15035064479E+03 -0.10996002496E+04  0.12906435794E+04  0.65864270000E+03 0. -1.
    8880022    1    1    2    0    0  0.14987236961E+02 -0.15035064479E+03  0.14149239487E+03  0.25737459952E+03  0.15294330000E+03 0.  0.
<mgrwt>
<rscale>  0 0.50751150E+03</rscale>
<asrwt>0</asrwt>
<pdfrwt beam="1">  1        2 0.19277892E+00 0.67575154E+03</pdfrwt>
<pdfrwt beam="2">  1       -2 0.45377718E-01 0.67575154E+03</pdfrwt>
<totfact> 0.83019452E+01</totfact>
</mgrwt>
</event>
<event>
 4    2  0.3171963E-007  0.8251955E+03  0.7818608E-02  0.9658754E-01
          2   -1    0    0  501    0  0.00000000000E+00  0.00000000000E+00  0.66707116523E+03  0.66707116524E+03  0.25500000000E-02 0. -1.
         -2   -1    0    0    0  501 -0.00000000000E+00 -0.00000000000E+00 -0.84280957515E+03  0.84280957516E+03  0.25500000000E-02 0.  1.
    8880023    1    1    2    0    0 -0.34152661608E+03 -0.36124357175E+03  0.22266139709E+03  0.85470793353E+03  0.65864270000E+03 0.  0.
    8880022    1    1    2    0    0  0.34152661608E+03  0.36124357175E+03 -0.39839980701E+03  0.65517280687E+03  0.15294330000E+03 0.  0.
<mgrwt>
<rscale>  0 0.73526578E+03</rscale>
<asrwt>0</asrwt>
<pdfrwt beam="1">  1        2 0.10262633E+00 0.82519546E+03</pdfrwt>
<pdfrwt beam="2">  1       -2 0.12966301E+00 0.82519546E+03</pdfrwt>
<totfact> 0.19166780E+01</totfact>
</mgrwt>
</event>
<event>
 4    2  0.3171963E-007  0.6954923E+03  0.7818608E-02  0.1001644E+00
         -2   -1    0    0    0  501 -0.00000000000E+00  0.00000000000E+00  0.55175781289E+03  0.55175781290E+03  0.25500000000E-02 0.  1.
          2   -1    0    0  501    0  0.00000000000E+00 -0.00000000000E+00 -0.60561966804E+03  0.60561966805E+03  0.25500000000E-02 0. -1.
    8880023    1    1    2    0    0 -0.14331941165E+03  0.17134449629E+03 -0.33075004351E+03  0.77013322724E+03  0.65864270000E+03 0.  1.
    8880022    1    1    2    0    0  0.14331941165E+03 -0.17134449629E+03  0.27688818835E+03  0.38724425371E+03  0.15294330000E+03 0.  0.
<mgrwt>
<rscale>  0 0.54935189E+03</rscale>
<asrwt>0</asrwt>
<pdfrwt beam="1">  1        2 0.93172257E-01 0.69549234E+03</pdfrwt>
<pdfrwt beam="2">  1       -2 0.84885817E-01 0.69549234E+03</pdfrwt>
<totfact> 0.60217449E+01</totfact>
</mgrwt>
</event>
<event>
 4    2  0.3171963E-007  0.7144518E+03  0.7818608E-02  0.9941827E-01
          2   -1    0    0  501    0  0.00000000000E+00  0.00000000000E+00  0.10731534680E+04  0.10731534680E+04  0.25500000000E-02 0. -1.
         -2   -1    0    0    0  501 -0.00000000000E+00 -0.00000000000E+00 -0.37875807476E+03  0.37875807477E+03  0.25500000000E-02 0.  1.
    8880023    1    1    2    0    0 -0.21975830531E+03  0.16833729074E+03  0.84084431800E+03  0.11033859386E+04  0.65864270000E+03 0. -1.
    8880022    1    1    2    0    0  0.21975830531E+03 -0.16833729074E+03 -0.14644892471E+03  0.34852560418E+03  0.15294330000E+03 0.  0.
<mgrwt>
<rscale>  0 0.58276314E+03</rscale>
<asrwt>0</asrwt>
<pdfrwt beam="1">  1        2 0.16510053E+00 0.71445179E+03</pdfrwt>
<pdfrwt beam="2">  1       -2 0.58270474E-01 0.71445179E+03</pdfrwt>
<totfact> 0.63541379E+01</totfact>
</mgrwt>
</event>
<event>
 4    2  0.3171963E-007  0.6713887E+03  0.7818608E-02  0.1014686E+00
         -2   -1    0    0    0  501 -0.00000000000E+00  0.00000000000E+00  0.42116343181E+03  0.42116343182E+03  0.25500000000E-02 0.  1.
          2   -1    0    0  501    0  0.00000000000E+00 -0.00000000000E+00 -0.10850295632E+04  0.10850295632E+04  0.25500000000E-02 0. -1.
    8880023    1    1    2    0    0  0.81947483986E+02  0.10117870028E+03 -0.94589582222E+03  0.11599489783E+04  0.65864270000E+03 0. -1.
    8880022    1    1    2    0    0 -0.81947483986E+02 -0.10117870028E+03  0.28202969088E+03  0.34624401666E+03  0.15294330000E+03 0.  0.
<mgrwt>
<rscale>  0 0.49653870E+03</rscale>
<asrwt>0</asrwt>
<pdfrwt beam="1">  1        2 0.16692762E+00 0.67138865E+03</pdfrwt>
<pdfrwt beam="2">  1       -2 0.64794375E-01 0.67138865E+03</pdfrwt>
<totfact> 0.50097399E+01</totfact>
</mgrwt>
</event>
<event>
 4    2  0.3171963E-007  0.1077725E+04  0.7818608E-02  0.9286271E-01
         -2   -1    0    0    0  501 -0.00000000000E+00  0.00000000000E+00  0.27243137562E+04  0.27243137562E+04  0.25500000000E-02 0.  1.
          2   -1    0    0  501    0  0.00000000000E+00 -0.00000000000E+00 -0.49217453958E+03  0.49217453959E+03  0.25500000000E-02 0. -1.
    8880023    1    1    2    0    0 -0.81157606318E+03  0.26272637249E+03  0.20715010822E+04  0.23350819670E+04  0.65864270000E+03 0.  1.
    8880022    1    1    2    0    0  0.81157606318E+03 -0.26272637249E+03  0.16063813448E+03  0.88140632877E+03  0.15294330000E+03 0.  0.
<mgrwt>
<rscale>  0 0.10205662E+04</rscale>
<asrwt>0</asrwt>
<pdfrwt beam="1">  1        2 0.75719159E-01 0.10777249E+04</pdfrwt>
<pdfrwt beam="2">  1       -2 0.41912520E+00 0.10777249E+04</pdfrwt>
<totfact> 0.35203780E-01</totfact>
</mgrwt>
</event>
<event>
 4    2  0.3171963E-007  0.6683007E+03  0.7818608E-02  0.1016911E+00
          2   -1    0    0  501    0  0.00000000000E+00  0.00000000000E+00  0.21621128358E+04  0.21621128358E+04  0.25500000000E-02 0. -1.
         -2   -1    0    0    0  501 -0.00000000000E+00 -0.00000000000E+00 -0.19346317418E+03  0.19346317420E+03  0.25500000000E-02 0.  1.
    8880023    1    1    2    0    0  0.10583364362E+03 -0.40184969168E+02  0.20443323728E+04  0.21507953525E+04  0.65864270000E+03 0. -1.
    8880022    1    1    2    0    0 -0.10583364362E+03  0.40184969168E+02 -0.75682711190E+02  0.20478065743E+03  0.15294330000E+03 0.  0.
<mgrwt>
<rscale>  0 0.48817818E+03</rscale>
<asrwt>0</asrwt>
<pdfrwt beam="1">  1        2 0.33263277E+00 0.66830068E+03</pdfrwt>
<pdfrwt beam="2">  1       -2 0.29763563E-01 0.66830068E+03</pdfrwt>
<totfact> 0.58856579E+01</totfact>
</mgrwt>
</event>
<event>
 4    2  0.3744777E-007  0.7319030E+03  0.7818608E-02  0.9884194E-01
          2   -1    0    0  501    0  0.00000000000E+00  0.00000000000E+00  0.27626114761E+04  0.27626114761E+04  0.25500000000E-02 0. -1.
         -2   -1    0    0    0  501 -0.00000000000E+00 -0.00000000000E+00 -0.10858092617E+04  0.10858092617E+04  0.25500000000E-02 0.  1.
    8880023    1    1    2    0    0  0.97950382496E+01 -0.31902319436E+03  0.26833951606E+04  0.27814189788E+04  0.65864270000E+03 0. -1.
    8880022    1    1    2    0    0 -0.97950382496E+01  0.31902319436E+03 -0.10065929462E+04  0.10670017590E+04  0.15294330000E+03 0.  0.
<mgrwt>
<rscale>  0 0.61033483E+03</rscale>
<asrwt>0</asrwt>
<pdfrwt beam="1">  1        2 0.42501715E+00 0.73190296E+03</pdfrwt>
<pdfrwt beam="2">  1       -2 0.16704758E+00 0.73190296E+03</pdfrwt>
<totfact> 0.58168079E-01</totfact>
</mgrwt>
</event>
<event>
 4    2  0.3742940E-007  0.7793760E+03  0.7818608E-02  0.9757305E-01
          2   -1    0    0  501    0  0.00000000000E+00  0.00000000000E+00  0.18450056207E+04  0.18450056207E+04  0.25500000000E-02 0. -1.
         -2   -1    0    0    0  501 -0.00000000000E+00 -0.00000000000E+00 -0.82911032346E+03  0.82911032346E+03  0.25500000000E-02 0.  1.
    8880023    1    1    2    0    0 -0.31577225571E+02  0.41547515566E+03  0.16934122319E+04  0.18641544785E+04  0.65864270000E+03 0. -1.
    8880022    1    1    2    0    0  0.31577225571E+02 -0.41547515566E+03 -0.67751693467E+03  0.80996146570E+03  0.15294330000E+03 0.  0.
<mgrwt>
<rscale>  0 0.67705017E+03</rscale>
<asrwt>0</asrwt>
<pdfrwt beam="1">  1        2 0.28384702E+00 0.77937599E+03</pdfrwt>
<pdfrwt beam="2">  1       -2 0.12755544E+00 0.77937599E+03</pdfrwt>
<totfact> 0.38158026E+00</totfact>
</mgrwt>
</event>
<event>
 4    2  0.3171963E-007  0.7905496E+03  0.7818608E-02  0.9731615E-01
         -2   -1    0    0    0  501 -0.00000000000E+00  0.00000000000E+00  0.57858746201E+03  0.57858746202E+03  0.25500000000E-02 0.  1.
          2   -1    0    0  501    0  0.00000000000E+00 -0.00000000000E+00 -0.70154454501E+03  0.70154454502E+03  0.25500000000E-02 0. -1.
    8880023    1    1    2    0    0 -0.39922043107E+03  0.17827364502E+03  0.33409196039E+02  0.79125522161E+03  0.65864270000E+03 0.  0.
    8880022    1    1    2    0    0  0.39922043107E+03 -0.17827364502E+03 -0.15636627904E+03  0.48887678542E+03  0.15294330000E+03 0.  0.
<mgrwt>
<rscale>  0 0.69165246E+03</rscale>
<asrwt>0</asrwt>
<pdfrwt beam="1">  1        2 0.10792993E+00 0.79054959E+03</pdfrwt>
<pdfrwt beam="2">  1       -2 0.89013456E-01 0.79054959E+03</pdfrwt>
<totfact> 0.44732561E+01</totfact>
</mgrwt>
</event>
<event>
 4    2  0.3171963E-007  0.6596613E+03  0.7818608E-02  0.1024506E+00
         -2   -1    0    0    0  501 -0.00000000000E+00  0.00000000000E+00  0.45063463126E+03  0.45063463127E+03  0.25500000000E-02 0.  1.
          2   -1    0    0  501    0  0.00000000000E+00 -0.00000000000E+00 -0.45380097649E+03  0.45380097650E+03  0.25500000000E-02 0. -1.
    8880023    1    1    2    0    0 -0.36643595759E+02  0.28035093018E+00 -0.16373314435E+03  0.67967755629E+03  0.65864270000E+03 0. -1.
    8880022    1    1    2    0    0  0.36643595759E+02 -0.28035093018E+00  0.16056679912E+03  0.22475805147E+03  0.15294330000E+03 0.  0.
<mgrwt>
<rscale>  0 0.46094978E+03</rscale>
<asrwt>0</asrwt>
<pdfrwt beam="1">  1        2 0.69815535E-01 0.65966131E+03</pdfrwt>
<pdfrwt beam="2">  1       -2 0.69328405E-01 0.65966131E+03</pdfrwt>
<totfact> 0.13271031E+02</totfact>
</mgrwt>
</event>
<event>
 4    2  0.3171963E-007  0.7283514E+03  0.7818608E-02  0.9895278E-01
          2   -1    0    0  501    0  0.00000000000E+00  0.00000000000E+00  0.77254758381E+03  0.77254758382E+03  0.25500000000E-02 0. -1.
         -2   -1    0    0    0  501 -0.00000000000E+00 -0.00000000000E+00 -0.40716482866E+03  0.40716482867E+03  0.25500000000E-02 0.  1.
    8880023    1    1    2    0    0  0.31079352447E+03  0.96425644638E+01  0.40086739448E+03  0.83137865508E+03  0.65864270000E+03 0.  0.
    8880022    1    1    2    0    0 -0.31079352447E+03 -0.96425644638E+01 -0.35484639330E+02  0.34833375740E+03  0.15294330000E+03 0.  0.
<mgrwt>
<rscale>  0 0.60490660E+03</rscale>
<asrwt>0</asrwt>
<pdfrwt beam="1">  1        2 0.11885347E+00 0.72835143E+03</pdfrwt>
<pdfrwt beam="2">  1       -2 0.62640744E-01 0.72835143E+03</pdfrwt>
<totfact> 0.86455687E+01</totfact>
</mgrwt>
</event>
<event>
 4    2  0.3171963E-007  0.9408649E+03  0.7818608E-02  0.9463381E-01
          2   -1    0    0  501    0  0.00000000000E+00  0.00000000000E+00  0.28109509059E+04  0.28109509059E+04  0.25500000000E-02 0. -1.
         -2   -1    0    0    0  501 -0.00000000000E+00 -0.00000000000E+00 -0.34261091011E+03  0.34261091011E+03  0.25500000000E-02 0.  1.
    8880023    1    1    2    0    0  0.66540813359E+03  0.92997791298E+02  0.22368233690E+04  0.24266449192E+04  0.65864270000E+03 0. -1.
    8880022    1    1    2    0    0 -0.66540813359E+03 -0.92997791298E+02  0.23151662683E+03  0.72691689687E+03  0.15294330000E+03 0.  0.
<mgrwt>
<rscale>  0 0.87038267E+03</rscale>
<asrwt>0</asrwt>
<pdfrwt beam="1">  1        2 0.43245399E+00 0.94086491E+03</pdfrwt>
<pdfrwt beam="2">  1       -2 0.52709370E-01 0.94086491E+03</pdfrwt>
<totfact> 0.79404932E+00</totfact>
</mgrwt>
</event>
<event>
 4    2  0.3171963E-007  0.6703971E+03  0.7818608E-02  0.1015380E+00
          2   -1    0    0  501    0  0.00000000000E+00  0.00000000000E+00  0.10812381296E+04  0.10812381296E+04  0.25500000000E-02 0. -1.
         -2   -1    0    0    0  501 -0.00000000000E+00 -0.00000000000E+00 -0.11510753060E+04  0.11510753060E+04  0.25500000000E-02 0.  1.
    8880023    1    1    2    0    0 -0.60765362196E+02 -0.10922313061E+03  0.96709602243E+03  0.11767357581E+04  0.65864270000E+03 0.  0.
    8880022    1    1    2    0    0  0.60765362196E+02  0.10922313061E+03 -0.10369331988E+04  0.10555776775E+04  0.15294330000E+03 0.  1.
<mgrwt>
<rscale>  0 0.49391403E+03</rscale>
<asrwt>0</asrwt>
<pdfrwt beam="1">  1        2 0.16634433E+00 0.67039714E+03</pdfrwt>
<pdfrwt beam="2">  1       -2 0.17708851E+00 0.67039714E+03</pdfrwt>
<totfact> 0.43979125E+00</totfact>
</mgrwt>
</event>
<event>
 4    2  0.3171963E-007  0.7008061E+03  0.7818608E-02  0.9993873E-01
          2   -1    0    0  501    0  0.00000000000E+00  0.00000000000E+00  0.16014166151E+04  0.16014166151E+04  0.25500000000E-02 0. -1.
         -2   -1    0    0    0  501 -0.00000000000E+00 -0.00000000000E+00 -0.22845351623E+03  0.22845351624E+03  0.25500000000E-02 0.  1.
    8880023    1    1    2    0    0 -0.21845696897E+03  0.97957060530E+02  0.13777385615E+04  0.15457337362E+04  0.65864270000E+03 0.  0.
    8880022    1    1    2    0    0  0.21845696897E+03 -0.97957060530E+02 -0.47754626390E+01  0.28413639517E+03  0.15294330000E+03 0.  0.
<mgrwt>
<rscale>  0 0.55919696E+03</rscale>
<asrwt>0</asrwt>
<pdfrwt beam="1">  1        2 0.24637178E+00 0.70080614E+03</pdfrwt>
<pdfrwt beam="2">  1       -2 0.35146695E-01 0.70080614E+03</pdfrwt>
<totfact> 0.86742560E+01</totfact>
</mgrwt>
</event>
<event>
 4    2  0.3171963E-007  0.6653398E+03  0.7818608E-02  0.1019250E+00
         -2   -1    0    0    0  501 -0.00000000000E+00  0.00000000000E+00  0.14303110457E+04  0.14303110457E+04  0.25500000000E-02 0.  1.
          2   -1    0    0  501    0  0.00000000000E+00 -0.00000000000E+00 -0.88863915975E+03  0.88863915975E+03  0.25500000000E-02 0. -1.
    8880023    1    1    2    0    0  0.68689328102E+02  0.64409736610E+02 -0.75704880108E+03  0.10078690051E+04  0.65864270000E+03 0. -1.
    8880022    1    1    2    0    0 -0.68689328102E+02 -0.64409736610E+02  0.12987206870E+04  0.13110812003E+04  0.15294330000E+03 0.  0.
<mgrwt>
<rscale>  0 0.47958228E+03</rscale>
<asrwt>0</asrwt>
<pdfrwt beam="1">  1        2 0.13671372E+00 0.66533980E+03</pdfrwt>
<pdfrwt beam="2">  1       -2 0.22004785E+00 0.66533980E+03</pdfrwt>
<totfact> 0.30667343E+00</totfact>
</mgrwt>
</event>
<event>
 4    2  0.3171963E-007  0.1088744E+04  0.7818608E-02  0.9273693E-01
         -2   -1    0    0    0  501 -0.00000000000E+00  0.00000000000E+00  0.11450179366E+04  0.11450179366E+04  0.25500000000E-02 0.  1.
          2   -1    0    0  501    0  0.00000000000E+00 -0.00000000000E+00 -0.12781048641E+04  0.12781048641E+04  0.25500000000E-02 0. -1.
    8880023    1    1    2    0    0 -0.83866326330E+03 -0.21953821203E+03 -0.77261950869E+03  0.13350296653E+04  0.65864270000E+03 0. -1.
    8880022    1    1    2    0    0  0.83866326330E+03  0.21953821203E+03  0.63953258118E+03  0.10880931353E+04  0.15294330000E+03 0.  0.
<mgrwt>
<rscale>  0 0.10324122E+04</rscale>
<asrwt>0</asrwt>
<pdfrwt beam="1">  1        2 0.19663152E+00 0.10887439E+04</pdfrwt>
<pdfrwt beam="2">  1       -2 0.17615661E+00 0.10887439E+04</pdfrwt>
<totfact> 0.32241983E+00</totfact>
</mgrwt>
</event>
<event>
 4    2  0.3171963E-007  0.7941633E+03  0.7818608E-02  0.9723561E-01
          2   -1    0    0  501    0  0.00000000000E+00  0.00000000000E+00  0.33620272748E+04  0.33620272748E+04  0.25500000000E-02 0. -1.
         -2   -1    0    0    0  501 -0.00000000000E+00 -0.00000000000E+00 -0.34425121699E+03  0.34425121700E+03  0.25500000000E-02 0.  1.
    8880023    1    1    2    0    0 -0.42110201568E+03 -0.13985074296E+03  0.31254336590E+04  0.32247528434E+04  0.65864270000E+03 0.  0.
    8880022    1    1    2    0    0  0.42110201568E+03  0.13985074296E+03 -0.10765760124E+03  0.48152564836E+03  0.15294330000E+03 0.  0.
<mgrwt>
<rscale>  0 0.69631131E+03</rscale>
<asrwt>0</asrwt>
<pdfrwt beam="1">  1        2 0.51723499E+00 0.79416330E+03</pdfrwt>
<pdfrwt beam="2">  1       -2 0.52961723E-01 0.79416330E+03</pdfrwt>
<totfact> 0.36418624E+00</totfact>
</mgrwt>
</event>
<event>
 4    2  0.3171963E-007  0.7143440E+03  0.7818608E-02  0.9942210E-01
         -2   -1    0    0    0  501 -0.00000000000E+00  0.00000000000E+00  0.14165765158E+03  0.14165765161E+03  0.25500000000E-02 0.  1.
          2   -1    0    0  501    0  0.00000000000E+00 -0.00000000000E+00 -0.28800235389E+04  0.28800235389E+04  0.25500000000E-02 0. -1.
    8880023    1    1    2    0    0 -0.31800552326E+02  0.27471061879E+03 -0.25621139807E+04  0.26598337271E+04  0.65864270000E+03 0.  0.
    8880022    1    1    2    0    0  0.31800552326E+02 -0.27471061879E+03 -0.17625190661E+03  0.36184746345E+03  0.15294330000E+03 0.  0.
<mgrwt>
<rscale>  0 0.58258504E+03</rscale>
<asrwt>0</asrwt>
<pdfrwt beam="1">  1        2 0.44308050E+00 0.71434404E+03</pdfrwt>
<pdfrwt beam="2">  1       -2 0.21793487E-01 0.71434404E+03</pdfrwt>
<totfact> 0.40095262E+01</totfact>
</mgrwt>
</event>
<event>
 4    2  0.3171963E-007  0.1375810E+04  0.7818608E-02  0.9002710E-01
          2   -1    0    0  501    0  0.00000000000E+00  0.00000000000E+00  0.38480885881E+04  0.38480885881E+04  0.25500000000E-02 0. -1.
         -2   -1    0    0    0  501 -0.00000000000E+00 -0.00000000000E+00 -0.12463650727E+04  0.12463650727E+04  0.25500000000E-02 0.  1.
    8880023    1    1    2    0    0 -0.29956311129E+03 -0.11701732137E+04  0.33800883308E+04  0.36493630592E+04  0.65864270000E+03 0.  0.
    8880022    1    1    2    0    0  0.29956311129E+03  0.11701732137E+04 -0.77836481552E+03  0.14450906016E+04  0.15294330000E+03 0.  0.
<mgrwt>
<rscale>  0 0.13344148E+04</rscale>
<asrwt>0</asrwt>
<pdfrwt beam="1">  1        2 0.59201362E+00 0.13758102E+04</pdfrwt>
<pdfrwt beam="2">  1       -2 0.19174847E+00 0.13758102E+04</pdfrwt>
<totfact> 0.66158887E-02</totfact>
</mgrwt>
</event>
<event>
 4    2  0.3171963E-007  0.7592710E+03  0.7818608E-02  0.9806999E-01
          2   -1    0    0  501    0  0.00000000000E+00  0.00000000000E+00  0.20759571093E+04  0.20759571093E+04  0.25500000000E-02 0. -1.
         -2   -1    0    0    0  501 -0.00000000000E+00 -0.00000000000E+00 -0.28091610783E+03  0.28091610784E+03  0.25500000000E-02 0.  1.
    8880023    1    1    2    0    0 -0.54405390259E+02 -0.37379438884E+03  0.17954048967E+04  0.19493514668E+04  0.65864270000E+03 0. -1.
    8880022    1    1    2    0    0  0.54405390259E+02  0.37379438884E+03 -0.36389520467E+00  0.40752175040E+03  0.15294330000E+03 0.  1.
<mgrwt>
<rscale>  0 0.64988311E+03</rscale>
<asrwt>0</asrwt>
<pdfrwt beam="1">  1        2 0.31937803E+00 0.75927096E+03</pdfrwt>
<pdfrwt beam="2">  1       -2 0.43217861E-01 0.75927096E+03</pdfrwt>
<totfact> 0.31767492E+01</totfact>
</mgrwt>
</event>
<event>
 4    2  0.3171963E-007  0.8201791E+03  0.7818608E-02  0.9668752E-01
         -2   -1    0    0    0  501 -0.00000000000E+00  0.00000000000E+00  0.10276241628E+04  0.10276241628E+04  0.25500000000E-02 0.  1.
          2   -1    0    0  501    0  0.00000000000E+00 -0.00000000000E+00 -0.11432366838E+04  0.11432366838E+04  0.25500000000E-02 0. -1.
    8880023    1    1    2    0    0  0.15616325386E+03 -0.46313771806E+03 -0.91039939107E+03  0.12253655639E+04  0.65864270000E+03 0.  0.
    8880022    1    1    2    0    0 -0.15616325386E+03  0.46313771806E+03  0.79478687002E+03  0.94549528265E+03  0.15294330000E+03 0.  0.
<mgrwt>
<rscale>  0 0.72908163E+03</rscale>
<asrwt>0</asrwt>
<pdfrwt beam="1">  1        2 0.17588257E+00 0.82017907E+03</pdfrwt>
<pdfrwt beam="2">  1       -2 0.15809602E+00 0.82017907E+03</pdfrwt>
<totfact> 0.53956770E+00</totfact>
</mgrwt>
</event>
<event>
 4    2  0.3171963E-007  0.7470747E+03  0.7818608E-02  0.9839798E-01
          2   -1    0    0  501    0  0.00000000000E+00  0.00000000000E+00  0.12419326440E+03  0.12419326442E+03  0.25500000000E-02 0. -1.
         -2   -1    0    0    0  501 -0.00000000000E+00 -0.00000000000E+00 -0.28304460353E+04  0.28304460353E+04  0.25500000000E-02 0.  1.
    8880023    1    1    2    0    0  0.25808512794E+03 -0.24021337414E+03 -0.13269942517E+04  0.15228375976E+04  0.65864270000E+03 0. -1.
    8880022    1    1    2    0    0 -0.25808512794E+03  0.24021337414E+03 -0.13792585192E+04  0.14318017021E+04  0.15294330000E+03 0.  1.
<mgrwt>
<rscale>  0 0.63269782E+03</rscale>
<asrwt>0</asrwt>
<pdfrwt beam="1">  1        2 0.19106658E-01 0.74707470E+03</pdfrwt>
<pdfrwt beam="2">  1       -2 0.43545319E+00 0.74707470E+03</pdfrwt>
<totfact> 0.13834246E+00</totfact>
</mgrwt>
</event>
<event>
 4    2  0.3171963E-007  0.7356547E+03  0.7818608E-02  0.9872790E-01
          2   -1    0    0  501    0  0.00000000000E+00  0.00000000000E+00  0.67197194595E+03  0.67197194596E+03  0.25500000000E-02 0. -1.
         -2   -1    0    0    0  501 -0.00000000000E+00 -0.00000000000E+00 -0.54885894934E+03  0.54885894935E+03  0.25500000000E-02 0.  1.
    8880023    1    1    2    0    0 -0.65620840846E+02 -0.32104761095E+03  0.32770824527E+03  0.80534499659E+03  0.65864270000E+03 0. -1.
    8880022    1    1    2    0    0  0.65620840846E+02  0.32104761095E+03 -0.20459524865E+03  0.41548589872E+03  0.15294330000E+03 0.  1.
<mgrwt>
<rscale>  0 0.61598304E+03</rscale>
<asrwt>0</asrwt>
<pdfrwt beam="1">  1        2 0.10338030E+00 0.73565472E+03</pdfrwt>
<pdfrwt beam="2">  1       -2 0.84439839E-01 0.73565472E+03</pdfrwt>
<totfact> 0.53491235E+01</totfact>
</mgrwt>
</event>
<event>
 4    2  0.3171963E-007  0.6828903E+03  0.7818608E-02  0.1007734E+00
         -2   -1    0    0    0  501 -0.00000000000E+00  0.00000000000E+00  0.24599519150E+03  0.24599519151E+03  0.25500000000E-02 0.  1.
          2   -1    0    0  501    0  0.00000000000E+00 -0.00000000000E+00 -0.27583047011E+04  0.27583047011E+04  0.25500000000E-02 0. -1.
    8880023    1    1    2    0    0 -0.17203606970E+03  0.54153099488E+02 -0.26459648943E+04  0.27326670847E+04  0.65864270000E+03 0. -1.
    8880022    1    1    2    0    0  0.17203606970E+03 -0.54153099488E+02  0.13365538472E+03  0.27163280793E+03  0.15294330000E+03 0.  0.
<mgrwt>
<rscale>  0 0.52385333E+03</rscale>
<asrwt>0</asrwt>
<pdfrwt beam="1">  1        2 0.42435455E+00 0.68289031E+03</pdfrwt>
<pdfrwt beam="2">  1       -2 0.37845416E-01 0.68289031E+03</pdfrwt>
<totfact> 0.17202373E+01</totfact>
</mgrwt>
</event>
<event>
 4    2  0.3171963E-007  0.7155345E+03  0.7818608E-02  0.9937996E-01
         -2   -1    0    0    0  501 -0.00000000000E+00  0.00000000000E+00  0.20831799705E+04  0.20831799705E+04  0.25500000000E-02 0.  1.
          2   -1    0    0  501    0  0.00000000000E+00 -0.00000000000E+00 -0.38206654889E+03  0.38206654890E+03  0.25500000000E-02 0. -1.
    8880023    1    1    2    0    0  0.14759984809E+03  0.23747356702E+03 -0.19070293967E+02  0.71578858091E+03  0.65864270000E+03 0. -1.
    8880022    1    1    2    0    0 -0.14759984809E+03 -0.23747356702E+03  0.17201837156E+04  0.17494579385E+04  0.15294330000E+03 0.  0.
<mgrwt>
<rscale>  0 0.58454666E+03</rscale>
<asrwt>0</asrwt>
<pdfrwt beam="1">  1        2 0.58779468E-01 0.71553450E+03</pdfrwt>
<pdfrwt beam="2">  1       -2 0.32048923E+00 0.71553450E+03</pdfrwt>
<totfact> 0.20936731E+00</totfact>
</mgrwt>
</event>
<event>
 4    2  0.3171963E-007  0.7123241E+03  0.7818608E-02  0.9949470E-01
          2   -1    0    0  501    0  0.00000000000E+00  0.00000000000E+00  0.80802789387E+03  0.80802789388E+03  0.25500000000E-02 0. -1.
         -2   -1    0    0    0  501 -0.00000000000E+00 -0.00000000000E+00 -0.66221379071E+03  0.66221379072E+03  0.25500000000E-02 0.  1.
    8880023    1    1    2    0    0  0.23577900227E+03 -0.13417789087E+03  0.59193624296E+03  0.92617178013E+03  0.65864270000E+03 0. -1.
    8880022    1    1    2    0    0 -0.23577900227E+03  0.13417789087E+03 -0.44612213980E+03  0.54406990447E+03  0.15294330000E+03 0.  0.
<mgrwt>
<rscale>  0 0.57922525E+03</rscale>
<asrwt>0</asrwt>
<pdfrwt beam="1">  1        2 0.12431198E+00 0.71232412E+03</pdfrwt>
<pdfrwt beam="2">  1       -2 0.10187905E+00 0.71232412E+03</pdfrwt>
<totfact> 0.27338845E+01</totfact>
</mgrwt>
</event>
<event>
 4    2  0.3171963E-007  0.7057184E+03  0.7818608E-02  0.9974258E-01
         -2   -1    0    0    0  501 -0.00000000000E+00  0.00000000000E+00  0.26729592374E+03  0.26729592375E+03  0.25500000000E-02 0.  1.
          2   -1    0    0  501    0  0.00000000000E+00 -0.00000000000E+00 -0.15055495944E+04  0.15055495944E+04  0.25500000000E-02 0. -1.
    8880023    1    1    2    0    0  0.20004678440E+03 -0.15559430746E+03 -0.12918322784E+04  0.14720289217E+04  0.65864270000E+03 0. -1.
    8880022    1    1    2    0    0 -0.20004678440E+03  0.15559430746E+03  0.53578607780E+02  0.30081659643E+03  0.15294330000E+03 0.  0.
<mgrwt>
<rscale>  0 0.56793545E+03</rscale>
<asrwt>0</asrwt>
<pdfrwt beam="1">  1        2 0.23162301E+00 0.70571844E+03</pdfrwt>
<pdfrwt beam="2">  1       -2 0.41122451E-01 0.70571844E+03</pdfrwt>
<totfact> 0.72329426E+01</totfact>
</mgrwt>
</event>
<event>
 4    2  0.3171963E-007  0.7582700E+03  0.7818608E-02  0.9809607E-01
         -2   -1    0    0    0  501 -0.00000000000E+00  0.00000000000E+00  0.16434978713E+03  0.16434978715E+03  0.25500000000E-02 0.  1.
          2   -1    0    0  501    0  0.00000000000E+00 -0.00000000000E+00 -0.30392724941E+04  0.30392724941E+04  0.25500000000E-02 0. -1.
    8880023    1    1    2    0    0  0.34808197041E+03 -0.14142879681E+03 -0.26129030018E+04  0.27207049575E+04  0.65864270000E+03 0.  0.
    8880022    1    1    2    0    0 -0.34808197041E+03  0.14142879681E+03 -0.26201970521E+03  0.48291732380E+03  0.15294330000E+03 0.  0.
<mgrwt>
<rscale>  0 0.64849514E+03</rscale>
<asrwt>0</asrwt>
<pdfrwt beam="1">  1        2 0.46758034E+00 0.75826998E+03</pdfrwt>
<pdfrwt beam="2">  1       -2 0.25284585E-01 0.75826998E+03</pdfrwt>
<totfact> 0.24438548E+01</totfact>
</mgrwt>
</event>
<event>
 4    2  0.3171963E-007  0.7879034E+03  0.7818608E-02  0.9737589E-01
         -2   -1    0    0    0  501 -0.00000000000E+00  0.00000000000E+00  0.28893025228E+03  0.28893025229E+03  0.25500000000E-02 0.  1.
          2   -1    0    0  501    0  0.00000000000E+00 -0.00000000000E+00 -0.40777745335E+04  0.40777745335E+04  0.25500000000E-02 0. -1.
    8880023    1    1    2    0    0  0.87398715359E+02 -0.42348913315E+03 -0.38262376215E+04  0.39065184146E+04  0.65864270000E+03 0. -1.
    8880022    1    1    2    0    0 -0.87398715359E+02  0.42348913315E+03  0.37393340226E+02  0.46018637121E+03  0.15294330000E+03 0.  0.
<mgrwt>
<rscale>  0 0.68822199E+03</rscale>
<asrwt>0</asrwt>
<pdfrwt beam="1">  1        2 0.62734989E+00 0.78790341E+03</pdfrwt>
<pdfrwt beam="2">  1       -2 0.44450811E-01 0.78790341E+03</pdfrwt>
<totfact> 0.15658896E+00</totfact>
</mgrwt>
</event>
<event>
 4    2  0.3171963E-007  0.6619170E+03  0.7818608E-02  0.1022273E+00
         -2   -1    0    0    0  501 -0.00000000000E+00  0.00000000000E+00  0.10502966703E+04  0.10502966703E+04  0.25500000000E-02 0.  1.
          2   -1    0    0  501    0  0.00000000000E+00 -0.00000000000E+00 -0.19294821332E+03  0.19294821333E+03  0.25500000000E-02 0. -1.
    8880023    1    1    2    0    0  0.64190692287E+02  0.14263541297E+02  0.44240681615E+03  0.79615192698E+03  0.65864270000E+03 0. -1.
    8880022    1    1    2    0    0 -0.64190692287E+02 -0.14263541297E+02  0.41494164087E+03  0.44709295670E+03  0.15294330000E+03 0.  0.
<mgrwt>
<rscale>  0 0.46875194E+03</rscale>
<asrwt>0</asrwt>
<pdfrwt beam="1">  1        2 0.29684341E-01 0.66191699E+03</pdfrwt>
<pdfrwt beam="2">  1       -2 0.16158410E+00 0.66191699E+03</pdfrwt>
<totfact> 0.44924513E+01</totfact>
</mgrwt>
</event>
<event>
 4    2  0.3171963E-007  0.7982143E+03  0.7818608E-02  0.9714670E-01
          2   -1    0    0  501    0  0.00000000000E+00  0.00000000000E+00  0.28082096249E+04  0.28082096249E+04  0.25500000000E-02 0. -1.
         -2   -1    0    0    0  501 -0.00000000000E+00 -0.00000000000E+00 -0.20579580604E+03  0.20579580606E+03  0.25500000000E-02 0.  1.
    8880023    1    1    2    0    0 -0.55165115208E+02 -0.44754068932E+03  0.23355010106E+04  0.24681391848E+04  0.65864270000E+03 0. -1.
    8880022    1    1    2    0    0  0.55165115208E+02  0.44754068932E+03  0.26691280828E+03  0.54586624623E+03  0.15294330000E+03 0.  0.
<mgrwt>
<rscale>  0 0.70149997E+03</rscale>
<asrwt>0</asrwt>
<pdfrwt beam="1">  1        2 0.43203224E+00 0.79821430E+03</pdfrwt>
<pdfrwt beam="2">  1       -2 0.31660894E-01 0.79821430E+03</pdfrwt>
<totfact> 0.22146557E+01</totfact>
</mgrwt>
</event>
<event>
 4    2  0.3171963E-007  0.7366993E+03  0.7818608E-02  0.9869668E-01
          2   -1    0    0  501    0  0.00000000000E+00  0.00000000000E+00  0.93987843902E+03  0.93987843902E+03  0.25500000000E-02 0. -1.
         -2   -1    0    0    0  501 -0.00000000000E+00 -0.00000000000E+00 -0.39225587300E+03  0.39225587301E+03  0.25500000000E-02 0.  1.
    8880023    1    1    2    0    0  0.32122349410E+03 -0.75704560146E+02  0.61807263165E+03  0.96163386892E+03  0.65864270000E+03 0.  1.
    8880022    1    1    2    0    0 -0.32122349410E+03  0.75704560146E+02 -0.70450065635E+02  0.37050044312E+03  0.15294330000E+03 0.  0.
<mgrwt>
<rscale>  0 0.61754088E+03</rscale>
<asrwt>0</asrwt>
<pdfrwt beam="1">  1        2 0.14459668E+00 0.73669934E+03</pdfrwt>
<pdfrwt beam="2">  1       -2 0.60347058E-01 0.73669934E+03</pdfrwt>
<totfact> 0.71614557E+01</totfact>
</mgrwt>
</event>
<event>
 4    2  0.3171963E-007  0.7167825E+03  0.7818608E-02  0.9933627E-01
         -2   -1    0    0    0  501 -0.00000000000E+00  0.00000000000E+00  0.50910587666E+03  0.50910587666E+03  0.25500000000E-02 0.  1.
          2   -1    0    0  501    0  0.00000000000E+00 -0.00000000000E+00 -0.83827994254E+03  0.83827994254E+03  0.25500000000E-02 0. -1.
    8880023    1    1    2    0    0  0.12622047359E+03  0.25305192561E+03 -0.59395476125E+03  0.93089169600E+03  0.65864270000E+03 0. -1.
    8880022    1    1    2    0    0 -0.12622047359E+03 -0.25305192561E+03  0.26478069537E+03  0.41649412320E+03  0.15294330000E+03 0.  0.
<mgrwt>
<rscale>  0 0.58658887E+03</rscale>
<asrwt>0</asrwt>
<pdfrwt beam="1">  1        2 0.12896615E+00 0.71678246E+03</pdfrwt>
<pdfrwt beam="2">  1       -2 0.78323981E-01 0.71678246E+03</pdfrwt>
<totfact> 0.47678233E+01</totfact>
</mgrwt>
</event>
<event>
 4    2  0.3171963E-007  0.6725717E+03  0.7818608E-02  0.1013883E+00
         -2   -1    0    0    0  501 -0.00000000000E+00  0.00000000000E+00  0.48794608548E+03  0.48794608549E+03  0.25500000000E-02 0.  1.
          2   -1    0    0  501    0  0.00000000000E+00 -0.00000000000E+00 -0.92499020662E+03  0.92499020662E+03  0.25500000000E-02 0. -1.
    8880023    1    1    2    0    0 -0.77789114626E+01 -0.13594825540E+03 -0.76979558618E+03  0.10222220358E+04  0.65864270000E+03 0. -1.
    8880022    1    1    2    0    0  0.77789114626E+01  0.13594825540E+03  0.33275146505E+03  0.39071425635E+03  0.15294330000E+03 0.  0.
<mgrwt>
<rscale>  0 0.49960276E+03</rscale>
<asrwt>0</asrwt>
<pdfrwt beam="1">  1        2 0.14230619E+00 0.67257167E+03</pdfrwt>
<pdfrwt beam="2">  1       -2 0.75068629E-01 0.67257167E+03</pdfrwt>
<totfact> 0.45940558E+01</totfact>
</mgrwt>
</event>
<event>
 4    2  0.3171963E-007  0.7291431E+03  0.7818608E-02  0.9892782E-01
         -2   -1    0    0    0  501 -0.00000000000E+00  0.00000000000E+00  0.15872954815E+03  0.15872954817E+03  0.25500000000E-02 0.  1.
          2   -1    0    0  501    0  0.00000000000E+00 -0.00000000000E+00 -0.18585020675E+04  0.18585020675E+04  0.25500000000E-02 0. -1.
    8880023    1    1    2    0    0 -0.15866869485E+03 -0.26956215386E+03 -0.10244822742E+04  0.12574631787E+04  0.65864270000E+03 0.  0.
    8880022    1    1    2    0    0  0.15866869485E+03  0.26956215386E+03 -0.67529024520E+03  0.75976843696E+03  0.15294330000E+03 0.  1.
<mgrwt>
<rscale>  0 0.60612386E+03</rscale>
<asrwt>0</asrwt>
<pdfrwt beam="1">  1        2 0.28592338E+00 0.72914314E+03</pdfrwt>
<pdfrwt beam="2">  1       -2 0.24419932E-01 0.72914314E+03</pdfrwt>
<totfact> 0.12271528E+02</totfact>
</mgrwt>
</event>
<event>
 4    2  0.3171963E-007  0.6633540E+03  0.7818608E-02  0.1020956E+00
          2   -1    0    0  501    0  0.00000000000E+00  0.00000000000E+00  0.13379653261E+04  0.13379653261E+04  0.25500000000E-02 0. -1.
         -2   -1    0    0    0  501 -0.00000000000E+00 -0.00000000000E+00 -0.15984947707E+03  0.15984947709E+03  0.25500000000E-02 0.  1.
    8880023    1    1    2    0    0 -0.34316819847E+02  0.71068481211E+02  0.11439238279E+04  0.13223465141E+04  0.65864270000E+03 0. -1.
    8880022    1    1    2    0    0  0.34316819847E+02 -0.71068481211E+02  0.34192021156E+02  0.17546828908E+03  0.15294330000E+03 0.  0.
<mgrwt>
<rscale>  0 0.47343157E+03</rscale>
<asrwt>0</asrwt>
<pdfrwt beam="1">  1        2 0.20584082E+00 0.66335404E+03</pdfrwt>
<pdfrwt beam="2">  1       -2 0.24592227E-01 0.66335404E+03</pdfrwt>
<totfact> 0.23624297E+02</totfact>
</mgrwt>
</event>
<event>
 4    2  0.3171963E-007  0.7518891E+03  0.7818608E-02  0.9826577E-01
         -2   -1    0    0    0  501 -0.00000000000E+00  0.00000000000E+00  0.14520707166E+03  0.14520707168E+03  0.25500000000E-02 0.  1.
          2   -1    0    0  501    0  0.00000000000E+00 -0.00000000000E+00 -0.33961742699E+04  0.33961742699E+04  0.25500000000E-02 0. -1.
    8880023    1    1    2    0    0  0.29195771923E+03  0.21514589188E+03 -0.29543616652E+04  0.30485390140E+04  0.65864270000E+03 0. -1.
    8880022    1    1    2    0    0 -0.29195771923E+03 -0.21514589188E+03 -0.29660553295E+03  0.49284232752E+03  0.15294330000E+03 0.  0.
<mgrwt>
<rscale>  0 0.63955566E+03</rscale>
<asrwt>0</asrwt>
<pdfrwt beam="1">  1        2 0.52248829E+00 0.75188913E+03</pdfrwt>
<pdfrwt beam="2">  1       -2 0.22339552E-01 0.75188913E+03</pdfrwt>
<totfact> 0.18054851E+01</totfact>
</mgrwt>
</event>
<event>
 4    2  0.3171963E-007  0.7096019E+03  0.7818608E-02  0.9959482E-01
          2   -1    0    0  501    0  0.00000000000E+00  0.00000000000E+00  0.25203911538E+04  0.25203911538E+04  0.25500000000E-02 0. -1.
         -2   -1    0    0    0  501 -0.00000000000E+00 -0.00000000000E+00 -0.16033855147E+03  0.16033855149E+03  0.25500000000E-02 0.  1.
    8880023    1    1    2    0    0 -0.26037432144E+03  0.43930010998E+02  0.22452237574E+04  0.23546899074E+04  0.65864270000E+03 0. -1.
    8880022    1    1    2    0    0  0.26037432144E+03 -0.43930010998E+02  0.11482884492E+03  0.32603979784E+03  0.15294330000E+03 0.  0.
<mgrwt>
<rscale>  0 0.57463130E+03</rscale>
<asrwt>0</asrwt>
<pdfrwt beam="1">  1        2 0.38775245E+00 0.70960189E+03</pdfrwt>
<pdfrwt beam="2">  1       -2 0.24667472E-01 0.70960189E+03</pdfrwt>
<totfact> 0.52078468E+01</totfact>
</mgrwt>
</event>
<event>
 4    2  0.3171963E-007  0.1218521E+04  0.7818608E-02  0.9139325E-01
         -2   -1    0    0    0  501 -0.00000000000E+00  0.00000000000E+00  0.58510735471E+03  0.58510735472E+03  0.25500000000E-02 0.  1.
          2   -1    0    0  501    0  0.00000000000E+00 -0.00000000000E+00 -0.32384945329E+04  0.32384945329E+04  0.25500000000E-02 0. -1.
    8880023    1    1    2    0    0 -0.34062240165E+03 -0.96693362921E+03 -0.24928473427E+04  0.27747220301E+04  0.65864270000E+03 0. -1.
    8880022    1    1    2    0    0  0.34062240165E+03  0.96693362921E+03 -0.16053983549E+03  0.10488798576E+04  0.15294330000E+03 0.  0.
<mgrwt>
<rscale>  0 0.11702251E+04</rscale>
<asrwt>0</asrwt>
<pdfrwt beam="1">  1        2 0.49822992E+00 0.12185214E+04</pdfrwt>
<pdfrwt beam="2">  1       -2 0.90016518E-01 0.12185214E+04</pdfrwt>
<totfact> 0.12845782E+00</totfact>
</mgrwt>
</event>
<event>
 4    2  0.3171963E-007  0.6848350E+03  0.7818608E-02  0.1006711E+00
          2   -1    0    0  501    0  0.00000000000E+00  0.00000000000E+00  0.15379281497E+04  0.15379281497E+04  0.25500000000E-02 0. -1.
         -2   -1    0    0    0  501 -0.00000000000E+00 -0.00000000000E+00 -0.32407878125E+03  0.32407878126E+03  0.25500000000E-02 0.  1.
    8880023    1    1    2    0    0 -0.83179447470E+02  0.16813674020E+03  0.13987669790E+04  0.15574171091E+04  0.65864270000E+03 0. -1.
    8880022    1    1    2    0    0  0.83179447470E+02 -0.16813674020E+03 -0.18491761054E+03  0.30458982187E+03  0.15294330000E+03 0.  0.
<mgrwt>
<rscale>  0 0.52802993E+03</rscale>
<asrwt>0</asrwt>
<pdfrwt beam="1">  1        2 0.23660433E+00 0.68483501E+03</pdfrwt>
<pdfrwt beam="2">  1       -2 0.49858274E-01 0.68483501E+03</pdfrwt>
<totfact> 0.47373450E+01</totfact>
</mgrwt>
</event>
<event>
 4    2  0.3171963E-007  0.9593064E+03  0.7818608E-02  0.9436849E-01
         -2   -1    0    0    0  501 -0.00000000000E+00  0.00000000000E+00  0.11528908321E+04  0.11528908321E+04  0.25500000000E-02 0.  1.
          2   -1    0    0  501    0  0.00000000000E+00 -0.00000000000E+00 -0.15874638202E+04  0.15874638202E+04  0.25500000000E-02 0. -1.
    8880023    1    1    2    0    0  0.28345520249E+02  0.69688959307E+03 -0.13017463854E+04  0.16170381664E+04  0.65864270000E+03 0. -1.
    8880022    1    1    2    0    0 -0.28345520249E+02 -0.69688959307E+03  0.86717339735E+03  0.11233164859E+04  0.15294330000E+03 0.  0.
<mgrwt>
<rscale>  0 0.89104233E+03</rscale>
<asrwt>0</asrwt>
<pdfrwt beam="1">  1        2 0.24422520E+00 0.95930641E+03</pdfrwt>
<pdfrwt beam="2">  1       -2 0.17736782E+00 0.95930641E+03</pdfrwt>
<totfact> 0.21406242E+00</totfact>
</mgrwt>
</event>
<event>
 4    2  0.3171963E-007  0.7227044E+03  0.7818608E-02  0.9913539E-01
          2   -1    0    0  501    0  0.00000000000E+00  0.00000000000E+00  0.49046011723E+03  0.49046011724E+03  0.25500000000E-02 0. -1.
         -2   -1    0    0    0  501 -0.00000000000E+00 -0.00000000000E+00 -0.16115719228E+04  0.16115719228E+04  0.25500000000E-02 0.  1.
    8880023    1    1    2    0    0  0.24116144531E+03  0.17416237192E+03  0.19135839297E+03  0.74760926647E+03  0.65864270000E+03 0. -1.
    8880022    1    1    2    0    0 -0.24116144531E+03 -0.17416237192E+03 -0.13124701985E+04  0.13544227735E+04  0.15294330000E+03 0.  0.
<mgrwt>
<rscale>  0 0.59609575E+03</rscale>
<asrwt>0</asrwt>
<pdfrwt beam="1">  1        2 0.75455404E-01 0.72270435E+03</pdfrwt>
<pdfrwt beam="2">  1       -2 0.24793414E+00 0.72270435E+03</pdfrwt>
<totfact> 0.43021968E+00</totfact>
</mgrwt>
</event>
<event>
 4    2  0.3171963E-007  0.7705807E+03  0.7818608E-02  0.9778447E-01
         -2   -1    0    0    0  501 -0.00000000000E+00  0.00000000000E+00  0.73961396840E+03  0.73961396841E+03  0.25500000000E-02 0.  1.
          2   -1    0    0  501    0  0.00000000000E+00 -0.00000000000E+00 -0.10172734527E+04  0.10172734527E+04  0.25500000000E-02 0. -1.
    8880023    1    1    2    0    0  0.37736593831E+03 -0.13258709845E+03 -0.78023675285E+03  0.10966147851E+04  0.65864270000E+03 0. -1.
    8880022    1    1    2    0    0 -0.37736593831E+03  0.13258709845E+03  0.50257726853E+03  0.66027263606E+03  0.15294330000E+03 0.  0.
<mgrwt>
<rscale>  0 0.66532128E+03</rscale>
<asrwt>0</asrwt>
<pdfrwt beam="1">  1        2 0.15650361E+00 0.77058069E+03</pdfrwt>
<pdfrwt beam="2">  1       -2 0.11378676E+00 0.77058069E+03</pdfrwt>
<totfact> 0.15077004E+01</totfact>
</mgrwt>
</event>
<event>
 4    2  0.3171963E-007  0.8464928E+03  0.7818608E-02  0.9618057E-01
          2   -1    0    0  501    0  0.00000000000E+00  0.00000000000E+00  0.66445406038E+03  0.66445406038E+03  0.25500000000E-02 0. -1.
         -2   -1    0    0    0  501 -0.00000000000E+00 -0.00000000000E+00 -0.13000500223E+04  0.13000500223E+04  0.25500000000E-02 0.  1.
    8880023    1    1    2    0    0  0.44198448705E+03 -0.29561740370E+03  0.28265944438E+03  0.89243851549E+03  0.65864270000E+03 0. -1.
    8880022    1    1    2    0    0 -0.44198448705E+03  0.29561740370E+03 -0.91825540633E+03  0.10720655672E+04  0.15294330000E+03 0.  0.
<mgrwt>
<rscale>  0 0.76112500E+03</rscale>
<asrwt>0</asrwt>
<pdfrwt beam="1">  1        2 0.10222370E+00 0.84649285E+03</pdfrwt>
<pdfrwt beam="2">  1       -2 0.20000769E+00 0.84649285E+03</pdfrwt>
<totfact> 0.58717238E+00</totfact>
</mgrwt>
</event>
<event>
 4    2  0.3171963E-007  0.9534736E+03  0.7818608E-02  0.9445134E-01
          2   -1    0    0  501    0  0.00000000000E+00  0.00000000000E+00  0.95343419848E+03  0.95343419848E+03  0.25500000000E-02 0. -1.
         -2   -1    0    0    0  501 -0.00000000000E+00 -0.00000000000E+00 -0.13203712245E+04  0.13203712245E+04  0.25500000000E-02 0.  1.
    8880023    1    1    2    0    0  0.35852294108E+03 -0.58886585250E+03  0.56211086772E+03  0.11068335581E+04  0.65864270000E+03 0.  0.
    8880022    1    1    2    0    0 -0.35852294108E+03  0.58886585250E+03 -0.92904789378E+03  0.11669718649E+04  0.15294330000E+03 0.  0.
<mgrwt>
<rscale>  0 0.88452620E+03</rscale>
<asrwt>0</asrwt>
<pdfrwt beam="1">  1        2 0.14668218E+00 0.95347360E+03</pdfrwt>
<pdfrwt beam="2">  1       -2 0.20313403E+00 0.95347360E+03</pdfrwt>
<totfact> 0.34182209E+00</totfact>
</mgrwt>
</event>
<event>
 4    2  0.3171963E-007  0.1323193E+04  0.7818608E-02  0.9045786E-01
         -2   -1    0    0    0  501 -0.00000000000E+00  0.00000000000E+00  0.77534510778E+03  0.77534510778E+03  0.25500000000E-02 0.  1.
          2   -1    0    0  501    0  0.00000000000E+00 -0.00000000000E+00 -0.23559019965E+04  0.23559019965E+04  0.25500000000E-02 0. -1.
    8880023    1    1    2    0    0  0.57228410627E+03  0.99474634893E+03 -0.14550072007E+04  0.19666940681E+04  0.65864270000E+03 0.  0.
    8880022    1    1    2    0    0 -0.57228410627E+03 -0.99474634893E+03 -0.12554968802E+03  0.11645530362E+04  0.15294330000E+03 0.  0.
<mgrwt>
<rscale>  0 0.12797423E+04</rscale>
<asrwt>0</asrwt>
<pdfrwt beam="1">  1        2 0.36244646E+00 0.13231930E+04</pdfrwt>
<pdfrwt beam="2">  1       -2 0.11928386E+00 0.13231930E+04</pdfrwt>
<totfact> 0.21937579E+00</totfact>
</mgrwt>
</event>
<event>
 4    2  0.3171963E-007  0.7223413E+03  0.7818608E-02  0.9914742E-01
          2   -1    0    0  501    0  0.00000000000E+00  0.00000000000E+00  0.37880800733E+03  0.37880800734E+03  0.25500000000E-02 0. -1.
         -2   -1    0    0    0  501 -0.00000000000E+00 -0.00000000000E+00 -0.10356928418E+04  0.10356928418E+04  0.25500000000E-02 0.  1.
    8880023    1    1    2    0    0  0.28003375760E+03 -0.97713209938E+02 -0.52670178661E+02  0.72425902188E+03  0.65864270000E+03 0. -1.
    8880022    1    1    2    0    0 -0.28003375760E+03  0.97713209938E+02 -0.60421465581E+03  0.69024182726E+03  0.15294330000E+03 0.  0.
<mgrwt>
<rscale>  0 0.59552121E+03</rscale>
<asrwt>0</asrwt>
<pdfrwt beam="1">  1        2 0.58278155E-01 0.72234132E+03</pdfrwt>
<pdfrwt beam="2">  1       -2 0.15933736E+00 0.72234132E+03</pdfrwt>
<totfact> 0.21878845E+01</totfact>
</mgrwt>
</event>
<event>
 4    2  0.3171963E-007  0.8654729E+03  0.7818608E-02  0.9583901E-01
          2   -1    0    0  501    0  0.00000000000E+00  0.00000000000E+00  0.17262786484E+04  0.17262786484E+04  0.25500000000E-02 0. -1.
         -2   -1    0    0    0  501 -0.00000000000E+00 -0.00000000000E+00 -0.37626738101E+03  0.37626738102E+03  0.25500000000E-02 0.  1.
    8880023    1    1    2    0    0  0.36810971387E+03  0.42394391807E+03  0.12370842533E+04  0.15097751035E+04  0.65864270000E+03 0. -1.
    8880022    1    1    2    0    0 -0.36810971387E+03 -0.42394391807E+03  0.11292701411E+03  0.59277092595E+03  0.15294330000E+03 0.  0.
<mgrwt>
<rscale>  0 0.78370926E+03</rscale>
<asrwt>0</asrwt>
<pdfrwt beam="1">  1        2 0.26558133E+00 0.86547294E+03</pdfrwt>
<pdfrwt beam="2">  1       -2 0.57887290E-01 0.86547294E+03</pdfrwt>
<totfact> 0.26857501E+01</totfact>
</mgrwt>
</event>
<event>
 4    2  0.3171963E-007  0.9550072E+03  0.7818608E-02  0.9442946E-01
         -2   -1    0    0    0  501 -0.00000000000E+00  0.00000000000E+00  0.66893766238E+03  0.66893766238E+03  0.25500000000E-02 0.  1.
          2   -1    0    0  501    0  0.00000000000E+00 -0.00000000000E+00 -0.16859262210E+04  0.16859262210E+04  0.25500000000E-02 0. -1.
    8880023    1    1    2    0    0  0.68560488735E+03 -0.90413199929E+02 -0.12820369531E+04  0.15986424127E+04  0.65864270000E+03 0.  0.
    8880022    1    1    2    0    0 -0.68560488735E+03  0.90413199929E+02  0.26504839449E+03  0.75622147068E+03  0.15294330000E+03 0.  0.
<mgrwt>
<rscale>  0 0.88624108E+03</rscale>
<asrwt>0</asrwt>
<pdfrwt beam="1">  1        2 0.25937326E+00 0.95500723E+03</pdfrwt>
<pdfrwt beam="2">  1       -2 0.10291349E+00 0.95500723E+03</pdfrwt>
<totfact> 0.77155605E+00</totfact>
</mgrwt>
</event>
<event>
 4    2  0.3171963E-007  0.6916746E+03  0.7818608E-02  0.1003367E+00
         -2   -1    0    0    0  501 -0.00000000000E+00  0.00000000000E+00  0.48249454917E+03  0.48249454918E+03  0.25500000000E-02 0.  1.
          2   -1    0    0  501    0  0.00000000000E+00 -0.00000000000E+00 -0.58537234278E+03  0.58537234278E+03  0.25500000000E-02 0. -1.
    8880023    1    1    2    0    0 -0.13919916292E+03  0.15883038062E+03 -0.28679253221E+03  0.74877477225E+03  0.65864270000E+03 0.  1.
    8880022    1    1    2    0    0  0.13919916292E+03 -0.15883038062E+03  0.18391473860E+03  0.31909211971E+03  0.15294330000E+03 0.  0.
<mgrwt>
<rscale>  0 0.54198354E+03</rscale>
<asrwt>0</asrwt>
<pdfrwt beam="1">  1        2 0.90057284E-01 0.69167456E+03</pdfrwt>
<pdfrwt beam="2">  1       -2 0.74229931E-01 0.69167456E+03</pdfrwt>
<totfact> 0.84761692E+01</totfact>
</mgrwt>
</event>
<event>
 4    2  0.3171963E-007  0.8522877E+03  0.7818608E-02  0.9607432E-01
          2   -1    0    0  501    0  0.00000000000E+00  0.00000000000E+00  0.12417214703E+04  0.12417214703E+04  0.25500000000E-02 0. -1.
         -2   -1    0    0    0  501 -0.00000000000E+00 -0.00000000000E+00 -0.53421219911E+03  0.53421219912E+03  0.25500000000E-02 0.  1.
    8880023    1    1    2    0    0 -0.48616906410E+03  0.23711552758E+03  0.84187914253E+03  0.11979794778E+04  0.65864270000E+03 0.  0.
    8880022    1    1    2    0    0  0.48616906410E+03 -0.23711552758E+03 -0.13436987132E+03  0.57795419165E+03  0.15294330000E+03 0.  0.
<mgrwt>
<rscale>  0 0.76806220E+03</rscale>
<asrwt>0</asrwt>
<pdfrwt beam="1">  1        2 0.19103407E+00 0.85228771E+03</pdfrwt>
<pdfrwt beam="2">  1       -2 0.82186493E-01 0.85228771E+03</pdfrwt>
<totfact> 0.23472209E+01</totfact>
</mgrwt>
</event>
<event>
 4    2  0.3171963E-007  0.7706035E+03  0.7818608E-02  0.9778391E-01
          2   -1    0    0  501    0  0.00000000000E+00  0.00000000000E+00  0.28519310439E+04  0.28519310439E+04  0.25500000000E-02 0. -1.
         -2   -1    0    0    0  501 -0.00000000000E+00 -0.00000000000E+00 -0.20568809749E+03  0.20568809750E+03  0.25500000000E-02 0.  1.
    8880023    1    1    2    0    0 -0.39239486778E+02  0.39809528582E+03  0.24821072520E+04  0.25989779166E+04  0.65864270000E+03 0. -1.
    8880022    1    1    2    0    0  0.39239486778E+02 -0.39809528582E+03  0.16413569433E+03  0.45864122480E+03  0.15294330000E+03 0.  0.
<mgrwt>
<rscale>  0 0.66535204E+03</rscale>
<asrwt>0</asrwt>
<pdfrwt beam="1">  1        2 0.43875862E+00 0.77060353E+03</pdfrwt>
<pdfrwt beam="2">  1       -2 0.31644323E-01 0.77060353E+03</pdfrwt>
<totfact> 0.20967673E+01</totfact>
</mgrwt>
</event>
<event>
 4    2  0.3171963E-007  0.6763081E+03  0.7818608E-02  0.1011494E+00
         -2   -1    0    0    0  501 -0.00000000000E+00  0.00000000000E+00  0.42938665313E+03  0.42938665313E+03  0.25500000000E-02 0.  1.
          2   -1    0    0  501    0  0.00000000000E+00 -0.00000000000E+00 -0.11008151824E+04  0.11008151824E+04  0.25500000000E-02 0. -1.
    8880023    1    1    2    0    0  0.37578595415E+02  0.14889707734E+03 -0.95690314164E+03  0.11717748586E+04  0.65864270000E+03 0. -1.
    8880022    1    1    2    0    0 -0.37578595415E+02 -0.14889707734E+03  0.28547461237E+03  0.35842697694E+03  0.15294330000E+03 0.  0.
<mgrwt>
<rscale>  0 0.50885122E+03</rscale>
<asrwt>0</asrwt>
<pdfrwt beam="1">  1        2 0.16935618E+00 0.67630814E+03</pdfrwt>
<pdfrwt beam="2">  1       -2 0.66059486E-01 0.67630814E+03</pdfrwt>
<totfact> 0.46979870E+01</totfact>
</mgrwt>
</event>
<event>
 4    2  0.3171963E-007  0.7253323E+03  0.7818608E-02  0.9904939E-01
         -2   -1    0    0    0  501 -0.00000000000E+00  0.00000000000E+00  0.91758537075E+02  0.91758537110E+02  0.25500000000E-02 0.  1.
          2   -1    0    0  501    0  0.00000000000E+00 -0.00000000000E+00 -0.30962373397E+04  0.30962373397E+04  0.25500000000E-02 0. -1.
    8880023    1    1    2    0    0  0.39317349186E+02  0.30124899067E+03 -0.20933636583E+04  0.22154634776E+04  0.65864270000E+03 0. -1.
    8880022    1    1    2    0    0 -0.39317349186E+02 -0.30124899067E+03 -0.91111514432E+03  0.97253239923E+03  0.15294330000E+03 0.  1.
<mgrwt>
<rscale>  0 0.60022494E+03</rscale>
<asrwt>0</asrwt>
<pdfrwt beam="1">  1        2 0.47634413E+00 0.72533235E+03</pdfrwt>
<pdfrwt beam="2">  1       -2 0.14116700E-01 0.72533235E+03</pdfrwt>
<totfact> 0.62404429E+01</totfact>
</mgrwt>
</event>
<event>
 4    2  0.3171963E-007  0.6801271E+03  0.7818608E-02  0.1009252E+00
         -2   -1    0    0    0  501 -0.00000000000E+00  0.00000000000E+00  0.45343376936E+03  0.45343376937E+03  0.25500000000E-02 0.  1.
          2   -1    0    0  501    0  0.00000000000E+00 -0.00000000000E+00 -0.10425098809E+04  0.10425098809E+04  0.25500000000E-02 0. -1.
    8880023    1    1    2    0    0  0.16612326628E+03 -0.34143605869E+02 -0.88877549425E+03  0.11191491459E+04  0.65864270000E+03 0. -1.
    8880022    1    1    2    0    0 -0.16612326628E+03  0.34143605869E+02  0.29969938276E+03  0.37679450429E+03  0.15294330000E+03 0.  0.
<mgrwt>
<rscale>  0 0.51773071E+03</rscale>
<asrwt>0</asrwt>
<pdfrwt beam="1">  1        2 0.16038613E+00 0.68012714E+03</pdfrwt>
<pdfrwt beam="2">  1       -2 0.69759042E-01 0.68012714E+03</pdfrwt>
<totfact> 0.45336928E+01</totfact>
</mgrwt>
</event>
<event>
 4    2  0.3171963E-007  0.8791526E+03  0.7818608E-02  0.9560363E-01
          2   -1    0    0  501    0  0.00000000000E+00  0.00000000000E+00  0.22617193140E+04  0.22617193140E+04  0.25500000000E-02 0. -1.
         -2   -1    0    0    0  501 -0.00000000000E+00 -0.00000000000E+00 -0.62868051945E+03  0.62868051945E+03  0.25500000000E-02 0.  1.
    8880023    1    1    2    0    0  0.51302527891E+02  0.58005784611E+03  0.20004257364E+04  0.21850886452E+04  0.65864270000E+03 0.  0.
    8880022    1    1    2    0    0 -0.51302527891E+02 -0.58005784611E+03 -0.36738694187E+03  0.70531118825E+03  0.15294330000E+03 0.  0.
<mgrwt>
<rscale>  0 0.79976115E+03</rscale>
<asrwt>0</asrwt>
<pdfrwt beam="1">  1        2 0.34795681E+00 0.87915258E+03</pdfrwt>
<pdfrwt beam="2">  1       -2 0.96720081E-01 0.87915258E+03</pdfrwt>
<totfact> 0.43505649E+00</totfact>
</mgrwt>
</event>
<event>
 4    2  0.3171963E-007  0.7400217E+03  0.7818608E-02  0.9859884E-01
         -2   -1    0    0    0  501 -0.00000000000E+00  0.00000000000E+00  0.62909339356E+03  0.62909339357E+03  0.25500000000E-02 0.  1.
          2   -1    0    0  501    0  0.00000000000E+00 -0.00000000000E+00 -0.73153647875E+03  0.73153647876E+03  0.25500000000E-02 0. -1.
    8880023    1    1    2    0    0  0.18654467285E+03  0.28111031414E+03 -0.43875323475E+03  0.86031188005E+03  0.65864270000E+03 0. -1.
    8880022    1    1    2    0    0 -0.18654467285E+03 -0.28111031414E+03  0.33631014956E+03  0.50031799228E+03  0.15294330000E+03 0.  0.
<mgrwt>
<rscale>  0 0.62245503E+03</rscale>
<asrwt>0</asrwt>
<pdfrwt beam="1">  1        2 0.11254407E+00 0.74002171E+03</pdfrwt>
<pdfrwt beam="2">  1       -2 0.96783598E-01 0.74002171E+03</pdfrwt>
<totfact> 0.35050710E+01</totfact>
</mgrwt>
</event>
<event>
 4    2  0.3171963E-007  0.9155389E+03  0.7818608E-02  0.9501533E-01
         -2   -1    0    0    0  501 -0.00000000000E+00  0.00000000000E+00  0.47480727649E+03  0.47480727650E+03  0.25500000000E-02 0.  1.
          2   -1    0    0  501    0  0.00000000000E+00 -0.00000000000E+00 -0.14144718776E+04  0.14144718776E+04  0.25500000000E-02 0. -1.
    8880023    1    1    2    0    0  0.60855135085E+03  0.18457108879E+03 -0.81015196355E+03  0.12225210198E+04  0.65864270000E+03 0. -1.
    8880022    1    1    2    0    0 -0.60855135085E+03 -0.18457108879E+03 -0.12951263759E+03  0.66675813437E+03  0.15294330000E+03 0.  0.
<mgrwt>
<rscale>  0 0.84170865E+03</rscale>
<asrwt>0</asrwt>
<pdfrwt beam="1">  1        2 0.21761106E+00 0.91553888E+03</pdfrwt>
<pdfrwt beam="2">  1       -2 0.73047274E-01 0.91553888E+03</pdfrwt>
<totfact> 0.24147729E+01</totfact>
</mgrwt>
</event>
<event>
 4    2  0.3171963E-007  0.7216420E+03  0.7818608E-02  0.9917069E-01
         -2   -1    0    0    0  501 -0.00000000000E+00  0.00000000000E+00  0.21176035306E+03  0.21176035307E+03  0.25500000000E-02 0.  1.
          2   -1    0    0  501    0  0.00000000000E+00 -0.00000000000E+00 -0.15340049523E+04  0.15340049523E+04  0.25500000000E-02 0. -1.
    8880023    1    1    2    0    0 -0.10722912469E+03 -0.27469767740E+03 -0.11826596663E+04  0.13854425255E+04  0.65864270000E+03 0. -1.
    8880022    1    1    2    0    0  0.10722912469E+03  0.27469767740E+03 -0.13958493303E+03  0.36032277987E+03  0.15294330000E+03 0.  1.
<mgrwt>
<rscale>  0 0.59441144E+03</rscale>
<asrwt>0</asrwt>
<pdfrwt beam="1">  1        2 0.23600075E+00 0.72164195E+03</pdfrwt>
<pdfrwt beam="2">  1       -2 0.32578517E-01 0.72164195E+03</pdfrwt>
<totfact> 0.10886359E+02</totfact>
</mgrwt>
</event>
<event>
 4    2  0.3171963E-007  0.6753947E+03  0.7818608E-02  0.1012059E+00
          2   -1    0    0  501    0  0.00000000000E+00  0.00000000000E+00  0.18041209471E+04  0.18041209471E+04  0.25500000000E-02 0. -1.
         -2   -1    0    0    0  501 -0.00000000000E+00 -0.00000000000E+00 -0.25609394385E+03  0.25609394387E+03  0.25500000000E-02 0.  1.
    8880023    1    1    2    0    0 -0.14881263408E+03  0.14232560068E+02  0.16787781260E+04  0.18095452380E+04  0.65864270000E+03 0.  0.
    8880022    1    1    2    0    0  0.14881263408E+03 -0.14232560068E+02 -0.13075112271E+03  0.25066965300E+03  0.15294330000E+03 0.  0.
<mgrwt>
<rscale>  0 0.50664593E+03</rscale>
<asrwt>0</asrwt>
<pdfrwt beam="1">  1        2 0.27755707E+00 0.67539468E+03</pdfrwt>
<pdfrwt beam="2">  1       -2 0.39399068E-01 0.67539468E+03</pdfrwt>
<totfact> 0.54134065E+01</totfact>
</mgrwt>
</event>
<event>
 4    2  0.3171963E-007  0.7950924E+03  0.7818608E-02  0.9721509E-01
          2   -1    0    0  501    0  0.00000000000E+00  0.00000000000E+00  0.83857394008E+03  0.83857394008E+03  0.25500000000E-02 0. -1.
         -2   -1    0    0    0  501 -0.00000000000E+00 -0.00000000000E+00 -0.82386739129E+03  0.82386739129E+03  0.25500000000E-02 0.  1.
    8880023    1    1    2    0    0  0.25799015112E+03 -0.36304662460E+03  0.53681181419E+03  0.95934295214E+03  0.65864270000E+03 0. -1.
    8880022    1    1    2    0    0 -0.25799015112E+03  0.36304662460E+03 -0.52210526540E+03  0.70309837924E+03  0.15294330000E+03 0.  0.
<mgrwt>
<rscale>  0 0.69750449E+03</rscale>
<asrwt>0</asrwt>
<pdfrwt beam="1">  1        2 0.12901138E+00 0.79509243E+03</pdfrwt>
<pdfrwt beam="2">  1       -2 0.12674883E+00 0.79509243E+03</pdfrwt>
<totfact> 0.15128949E+01</totfact>
</mgrwt>
</event>
<event>
 4    2  0.3171963E-007  0.1152430E+04  0.7818608E-02  0.9204811E-01
         -2   -1    0    0    0  501 -0.00000000000E+00  0.00000000000E+00  0.44412058247E+03  0.44412058248E+03  0.25500000000E-02 0.  1.
          2   -1    0    0  501    0  0.00000000000E+00 -0.00000000000E+00 -0.31219910246E+04  0.31219910246E+04  0.25500000000E-02 0. -1.
    8880023    1    1    2    0    0  0.93679112113E+03  0.12925488204E+03 -0.22266625960E+04  0.25072137826E+04  0.65864270000E+03 0.  0.
    8880022    1    1    2    0    0 -0.93679112113E+03 -0.12925488204E+03 -0.45120784612E+03  0.10588978244E+04  0.15294330000E+03 0.  0.
<mgrwt>
<rscale>  0 0.11003911E+04</rscale>
<asrwt>0</asrwt>
<pdfrwt beam="1">  1        2 0.48030630E+00 0.11524299E+04</pdfrwt>
<pdfrwt beam="2">  1       -2 0.68326245E-01 0.11524299E+04</pdfrwt>
<totfact> 0.28650276E+00</totfact>
</mgrwt>
</event>
<event>
 4    2  0.3171963E-007  0.9405202E+03  0.7818608E-02  0.9463887E-01
         -2   -1    0    0    0  501 -0.00000000000E+00  0.00000000000E+00  0.58217112296E+03  0.58217112297E+03  0.25500000000E-02 0.  1.
          2   -1    0    0  501    0  0.00000000000E+00 -0.00000000000E+00 -0.25842238212E+04  0.25842238212E+04  0.25500000000E-02 0. -1.
    8880023    1    1    2    0    0 -0.63736058439E+03  0.21104400030E+03 -0.22467117881E+04  0.24356297234E+04  0.65864270000E+03 0.  0.
    8880022    1    1    2    0    0  0.63736058439E+03 -0.21104400030E+03  0.24465908985E+03  0.73076522075E+03  0.15294330000E+03 0.  0.
<mgrwt>
<rscale>  0 0.86999486E+03</rscale>
<asrwt>0</asrwt>
<pdfrwt beam="1">  1        2 0.39757289E+00 0.94052022E+03</pdfrwt>
<pdfrwt beam="2">  1       -2 0.89564789E-01 0.94052022E+03</pdfrwt>
<totfact> 0.33882954E+00</totfact>
</mgrwt>
</event>
<event>
 4    2  0.3171963E-007  0.6600843E+03  0.7818608E-02  0.1024070E+00
          2   -1    0    0  501    0  0.00000000000E+00  0.00000000000E+00  0.89091968380E+03  0.89091968380E+03  0.25500000000E-02 0. -1.
         -2   -1    0    0    0  501 -0.00000000000E+00 -0.00000000000E+00 -0.36712064684E+03  0.36712064685E+03  0.25500000000E-02 0.  1.
    8880023    1    1    2    0    0  0.42628861037E+02 -0.91539956419E+01  0.73872666542E+03  0.99067063543E+03  0.65864270000E+03 0. -1.
    8880022    1    1    2    0    0 -0.42628861037E+02  0.91539956419E+01 -0.21492762847E+03  0.26736969522E+03  0.15294330000E+03 0.  0.
<mgrwt>
<rscale>  0 0.46245967E+03</rscale>
<asrwt>0</asrwt>
<pdfrwt beam="1">  1        2 0.13706456E+00 0.66008425E+03</pdfrwt>
<pdfrwt beam="2">  1       -2 0.56480100E-01 0.66008425E+03</pdfrwt>
<totfact> 0.89244094E+01</totfact>
</mgrwt>
</event>
<event>
 4    2  0.3171963E-007  0.7258249E+03  0.7818608E-02  0.9903348E-01
          2   -1    0    0  501    0  0.00000000000E+00  0.00000000000E+00  0.23268101574E+04  0.23268101574E+04  0.25500000000E-02 0. -1.
         -2   -1    0    0    0  501 -0.00000000000E+00 -0.00000000000E+00 -0.12347484533E+03  0.12347484536E+03  0.25500000000E-02 0.  1.
    8880023    1    1    2    0    0  0.30490455877E+03  0.66880860983E+01  0.13846972227E+04  0.15633963430E+04  0.65864270000E+03 0. -1.
    8880022    1    1    2    0    0 -0.30490455877E+03 -0.66880860983E+01  0.81863808940E+03  0.88688865980E+03  0.15294330000E+03 0.  1.
<mgrwt>
<rscale>  0 0.60099309E+03</rscale>
<asrwt>0</asrwt>
<pdfrwt beam="1">  1        2 0.35797080E+00 0.72582486E+03</pdfrwt>
<pdfrwt beam="2">  1       -2 0.18996130E-01 0.72582486E+03</pdfrwt>
<totfact> 0.10592880E+02</totfact>
</mgrwt>
</event>
<event>
 4    2  0.3171963E-007  0.7323311E+03  0.7818608E-02  0.9882877E-01
          2   -1    0    0  501    0  0.00000000000E+00  0.00000000000E+00  0.79649510822E+03  0.79649510823E+03  0.25500000000E-02 0. -1.
         -2   -1    0    0    0  501 -0.00000000000E+00 -0.00000000000E+00 -0.12182727676E+04  0.12182727676E+04  0.25500000000E-02 0.  1.
    8880023    1    1    2    0    0 -0.27697819323E+03  0.16056677114E+03  0.59136876247E+03  0.94128944911E+03  0.65864270000E+03 0. -1.
    8880022    1    1    2    0    0  0.27697819323E+03 -0.16056677114E+03 -0.10131464219E+04  0.10734784267E+04  0.15294330000E+03 0.  0.
<mgrwt>
<rscale>  0 0.61098369E+03</rscale>
<asrwt>0</asrwt>
<pdfrwt beam="1">  1        2 0.12253771E+00 0.73233108E+03</pdfrwt>
<pdfrwt beam="2">  1       -2 0.18742658E+00 0.73233108E+03</pdfrwt>
<totfact> 0.57142623E+00</totfact>
</mgrwt>
</event>
<event>
 4    2  0.3171963E-007  0.1188934E+04  0.7818608E-02  0.9167955E-01
          2   -1    0    0  501    0  0.00000000000E+00  0.00000000000E+00  0.34414046763E+04  0.34414046763E+04  0.25500000000E-02 0. -1.
         -2   -1    0    0    0  501 -0.00000000000E+00 -0.00000000000E+00 -0.52053660003E+03  0.52053660003E+03  0.25500000000E-02 0.  1.
    8880023    1    1    2    0    0 -0.94811082299E+03 -0.28432375925E+03  0.26798912175E+04  0.29317880682E+04  0.65864270000E+03 0.  0.
    8880022    1    1    2    0    0  0.94811082299E+03  0.28432375925E+03  0.24097685872E+03  0.10301532081E+04  0.15294330000E+03 0.  0.
<mgrwt>
<rscale>  0 0.11390397E+04</rscale>
<asrwt>0</asrwt>
<pdfrwt beam="1">  1        2 0.52944686E+00 0.11889341E+04</pdfrwt>
<pdfrwt beam="2">  1       -2 0.80082556E-01 0.11889341E+04</pdfrwt>
<totfact> 0.12360388E+00</totfact>
</mgrwt>
</event>
<event>
 4    2  0.3171963E-007  0.9744169E+03  0.7818608E-02  0.9415821E-01
          2   -1    0    0  501    0  0.00000000000E+00  0.00000000000E+00  0.14205326779E+04  0.14205326779E+04  0.25500000000E-02 0. -1.
         -2   -1    0    0    0  501 -0.00000000000E+00 -0.00000000000E+00 -0.57507809571E+03  0.57507809571E+03  0.25500000000E-02 0.  1.
    8880023    1    1    2    0    0  0.71697557082E+03 -0.40299706552E+02  0.79867438674E+03  0.12599083371E+04  0.65864270000E+03 0.  0.
    8880022    1    1    2    0    0 -0.71697557082E+03  0.40299706552E+02  0.46780195495E+02  0.73570243659E+03  0.15294330000E+03 0.  0.
<mgrwt>
<rscale>  0 0.90785024E+03</rscale>
<asrwt>0</asrwt>
<pdfrwt beam="1">  1        2 0.21854349E+00 0.97441687E+03</pdfrwt>
<pdfrwt beam="2">  1       -2 0.88473555E-01 0.97441687E+03</pdfrwt>
<totfact> 0.15457226E+01</totfact>
</mgrwt>
</event>
<event>
 4    2  0.3171963E-007  0.9447278E+03  0.7818608E-02  0.9457741E-01
         -2   -1    0    0    0  501 -0.00000000000E+00  0.00000000000E+00  0.13572872518E+04  0.13572872518E+04  0.25500000000E-02 0.  1.
          2   -1    0    0  501    0  0.00000000000E+00 -0.00000000000E+00 -0.64442919096E+03  0.64442919096E+03  0.25500000000E-02 0. -1.
    8880023    1    1    2    0    0 -0.58715199361E+03  0.33756910577E+03 -0.79644218413E+02  0.94807899068E+03  0.65864270000E+03 0.  0.
    8880022    1    1    2    0    0  0.58715199361E+03 -0.33756910577E+03  0.79250227922E+03  0.10536374520E+04  0.15294330000E+03 0.  0.
<mgrwt>
<rscale>  0 0.87472443E+03</rscale>
<asrwt>0</asrwt>
<pdfrwt beam="1">  1        2 0.99142955E-01 0.94472778E+03</pdfrwt>
<pdfrwt beam="2">  1       -2 0.20881342E+00 0.94472778E+03</pdfrwt>
<totfact> 0.52955112E+00</totfact>
</mgrwt>
</event>
<event>
 4    2  0.3171963E-007  0.7201228E+03  0.7818608E-02  0.9922171E-01
         -2   -1    0    0    0  501 -0.00000000000E+00  0.00000000000E+00  0.57512698121E+03  0.57512698122E+03  0.25500000000E-02 0.  1.
          2   -1    0    0  501    0  0.00000000000E+00 -0.00000000000E+00 -0.10641998601E+04  0.10641998601E+04  0.25500000000E-02 0. -1.
    8880023    1    1    2    0    0  0.27694980237E+03 -0.89807651148E+02 -0.87438171150E+03  0.11327489532E+04  0.65864270000E+03 0. -1.
    8880022    1    1    2    0    0 -0.27694980237E+03  0.89807651148E+02  0.38530883263E+03  0.50657788814E+03  0.15294330000E+03 0.  0.
<mgrwt>
<rscale>  0 0.59198728E+03</rscale>
<asrwt>0</asrwt>
<pdfrwt beam="1">  1        2 0.16372306E+00 0.72012278E+03</pdfrwt>
<pdfrwt beam="2">  1       -2 0.88481074E-01 0.72012278E+03</pdfrwt>
<totfact> 0.25714657E+01</totfact>
</mgrwt>
</event>
<event>
 4    2  0.3171963E-007  0.9610172E+03  0.7818608E-02  0.9434437E-01
          2   -1    0    0  501    0  0.00000000000E+00  0.00000000000E+00  0.17204767611E+04  0.17204767611E+04  0.25500000000E-02 0. -1.
         -2   -1    0    0    0  501 -0.00000000000E+00 -0.00000000000E+00 -0.61364333817E+03  0.61364333817E+03  0.25500000000E-02 0.  1.
    8880023    1    1    2    0    0  0.69980692062E+03  0.37654265481E+01  0.12766489882E+04  0.15979320229E+04  0.65864270000E+03 0.  0.
    8880022    1    1    2    0    0 -0.69980692062E+03 -0.37654265481E+01 -0.16981556524E+03  0.73618807637E+03  0.15294330000E+03 0.  0.
<mgrwt>
<rscale>  0 0.89295052E+03</rscale>
<asrwt>0</asrwt>
<pdfrwt beam="1">  1        2 0.26468873E+00 0.96101723E+03</pdfrwt>
<pdfrwt beam="2">  1       -2 0.94406668E-01 0.96101723E+03</pdfrwt>
<totfact> 0.90529317E+00</totfact>
</mgrwt>
</event>
<event>
 4    2  0.3171963E-007  0.6997477E+03  0.7818608E-02  0.9998249E-01
         -2   -1    0    0    0  501 -0.00000000000E+00  0.00000000000E+00  0.43764387265E+03  0.43764387266E+03  0.25500000000E-02 0.  1.
          2   -1    0    0  501    0  0.00000000000E+00 -0.00000000000E+00 -0.79555151788E+03  0.79555151788E+03  0.25500000000E-02 0. -1.
    8880023    1    1    2    0    0 -0.20820728439E+03  0.11174233533E+03 -0.55202121595E+03  0.89127675382E+03  0.65864270000E+03 0. -1.
    8880022    1    1    2    0    0  0.20820728439E+03 -0.11174233533E+03  0.19411357072E+03  0.34191863672E+03  0.15294330000E+03 0.  0.
<mgrwt>
<rscale>  0 0.55727060E+03</rscale>
<asrwt>0</asrwt>
<pdfrwt beam="1">  1        2 0.12239254E+00 0.69974769E+03</pdfrwt>
<pdfrwt beam="2">  1       -2 0.67329827E-01 0.69974769E+03</pdfrwt>
<totfact> 0.71398399E+01</totfact>
</mgrwt>
</event>
<event>
 4    2  0.3171963E-007  0.7858579E+03  0.7818608E-02  0.9742252E-01
          2   -1    0    0  501    0  0.00000000000E+00  0.00000000000E+00  0.49504535932E+04  0.49504535932E+04  0.25500000000E-02 0. -1.
         -2   -1    0    0    0  501 -0.00000000000E+00 -0.00000000000E+00 -0.11378447903E+03  0.11378447906E+03  0.25500000000E-02 0.  1.
    8880023    1    1    2    0    0 -0.34441298475E+03  0.25522967492E+03  0.42483084475E+04  0.43203816224E+04  0.65864270000E+03 0.  0.
    8880022    1    1    2    0    0  0.34441298475E+03 -0.25522967492E+03  0.58836066663E+03  0.74385644991E+03  0.15294330000E+03 0.  0.
<mgrwt>
<rscale>  0 0.68555884E+03</rscale>
<asrwt>0</asrwt>
<pdfrwt beam="1">  1        2 0.76160818E+00 0.78585794E+03</pdfrwt>
<pdfrwt beam="2">  1       -2 0.17505306E-01 0.78585794E+03</pdfrwt>
<totfact> 0.12318055E+00</totfact>
</mgrwt>
</event>
<event>
 4    2  0.3171963E-007  0.7895136E+03  0.7818608E-02  0.9733946E-01
          2   -1    0    0  501    0  0.00000000000E+00  0.00000000000E+00  0.46357992041E+04  0.46357992041E+04  0.25500000000E-02 0. -1.
         -2   -1    0    0    0  501 -0.00000000000E+00 -0.00000000000E+00 -0.19788031109E+03  0.19788031110E+03  0.25500000000E-02 0.  1.
    8880023    1    1    2    0    0 -0.13309740693E+03 -0.41449556140E+03  0.66387779575E+03  0.10315354691E+04  0.65864270000E+03 0.  1.
    8880022    1    1    2    0    0  0.13309740693E+03  0.41449556140E+03  0.37740410973E+04  0.38021440461E+04  0.15294330000E+03 0.  0.
<mgrwt>
<rscale>  0 0.69031135E+03</rscale>
<asrwt>0</asrwt>
<pdfrwt beam="1">  1        2 0.71319982E+00 0.78951358E+03</pdfrwt>
<pdfrwt beam="2">  1       -2 0.30443127E-01 0.78951358E+03</pdfrwt>
<totfact> 0.10157195E+00</totfact>
</mgrwt>
</event>
<event>
 4    2  0.3171963E-007  0.7692684E+03  0.7818608E-02  0.9781678E-01
          2   -1    0    0  501    0  0.00000000000E+00  0.00000000000E+00  0.81632023964E+03  0.81632023964E+03  0.25500000000E-02 0. -1.
         -2   -1    0    0    0  501 -0.00000000000E+00 -0.00000000000E+00 -0.83977096140E+03  0.83977096141E+03  0.25500000000E-02 0.  1.
    8880023    1    1    2    0    0 -0.24295539886E+03 -0.31454148413E+03  0.54721359453E+03  0.94404268726E+03  0.65864270000E+03 0. -1.
    8880022    1    1    2    0    0  0.24295539886E+03  0.31454148413E+03 -0.57066431629E+03  0.71204851378E+03  0.15294330000E+03 0.  0.
<mgrwt>
<rscale>  0 0.66355161E+03</rscale>
<asrwt>0</asrwt>
<pdfrwt beam="1">  1        2 0.12558773E+00 0.76926840E+03</pdfrwt>
<pdfrwt beam="2">  1       -2 0.12919553E+00 0.76926840E+03</pdfrwt>
<totfact> 0.14986619E+01</totfact>
</mgrwt>
</event>
<event>
 4    2  0.3171963E-007  0.6636870E+03  0.7818608E-02  0.1020661E+00
          2   -1    0    0  501    0  0.00000000000E+00  0.00000000000E+00  0.13132367340E+04  0.13132367340E+04  0.25500000000E-02 0. -1.
         -2   -1    0    0    0  501 -0.00000000000E+00 -0.00000000000E+00 -0.64960111375E+03  0.64960111375E+03  0.25500000000E-02 0.  1.
    8880023    1    1    2    0    0 -0.66591141998E+02 -0.47284462050E+02  0.12152202390E+04  0.13846445883E+04  0.65864270000E+03 0. -1.
    8880022    1    1    2    0    0  0.66591141998E+02  0.47284462050E+02 -0.55158461875E+03  0.57819325939E+03  0.15294330000E+03 0.  0.
<mgrwt>
<rscale>  0 0.47448714E+03</rscale>
<asrwt>0</asrwt>
<pdfrwt beam="1">  1        2 0.20203642E+00 0.66368698E+03</pdfrwt>
<pdfrwt beam="2">  1       -2 0.99938634E-01 0.66368698E+03</pdfrwt>
<totfact> 0.13874951E+01</totfact>
</mgrwt>
</event>
<event>
 4    2  0.3171963E-007  0.6898481E+03  0.7818608E-02  0.1004225E+00
         -2   -1    0    0    0  501 -0.00000000000E+00  0.00000000000E+00  0.40981276933E+03  0.40981276934E+03  0.25500000000E-02 0.  1.
          2   -1    0    0  501    0  0.00000000000E+00 -0.00000000000E+00 -0.95832880916E+03  0.95832880917E+03  0.25500000000E-02 0. -1.
    8880023    1    1    2    0    0  0.90895204666E+02 -0.18389730532E+03 -0.76706341117E+03  0.10316378435E+04  0.65864270000E+03 0. -1.
    8880022    1    1    2    0    0 -0.90895204666E+02  0.18389730532E+03  0.21854737133E+03  0.33650373500E+03  0.15294330000E+03 0.  0.
<mgrwt>
<rscale>  0 0.53835889E+03</rscale>
<asrwt>0</asrwt>
<pdfrwt beam="1">  1        2 0.14743520E+00 0.68984807E+03</pdfrwt>
<pdfrwt beam="2">  1       -2 0.63048119E-01 0.68984807E+03</pdfrwt>
<totfact> 0.63719829E+01</totfact>
</mgrwt>
</event>
<event>
 4    2  0.3171963E-007  0.1191407E+04  0.7818608E-02  0.9165521E-01
         -2   -1    0    0    0  501 -0.00000000000E+00  0.00000000000E+00  0.17073244049E+04  0.17073244049E+04  0.25500000000E-02 0.  1.
          2   -1    0    0  501    0  0.00000000000E+00 -0.00000000000E+00 -0.12147904848E+04  0.12147904848E+04  0.25500000000E-02 0. -1.
    8880023    1    1    2    0    0 -0.28113709997E+03  0.95215623020E+03 -0.68503657344E+03  0.13743088695E+04  0.65864270000E+03 0.  0.
    8880022    1    1    2    0    0  0.28113709997E+03 -0.95215623020E+03  0.11775704936E+04  0.15478060202E+04  0.15294330000E+03 0.  0.
<mgrwt>
<rscale>  0 0.11416503E+04</rscale>
<asrwt>0</asrwt>
<pdfrwt beam="1">  1        2 0.18689084E+00 0.11914066E+04</pdfrwt>
<pdfrwt beam="2">  1       -2 0.26266529E+00 0.11914066E+04</pdfrwt>
<totfact> 0.97181372E-01</totfact>
</mgrwt>
</event>
<event>
 4    2  0.3171963E-007  0.7229611E+03  0.7818608E-02  0.9912691E-01
          2   -1    0    0  501    0  0.00000000000E+00  0.00000000000E+00  0.25611365599E+04  0.25611365599E+04  0.25500000000E-02 0. -1.
         -2   -1    0    0    0  501 -0.00000000000E+00 -0.00000000000E+00 -0.23723780341E+03  0.23723780342E+03  0.25500000000E-02 0.  1.
    8880023    1    1    2    0    0 -0.24534445077E+03 -0.16931805525E+03  0.23534875165E+04  0.24620268479E+04  0.65864270000E+03 0. -1.
    8880022    1    1    2    0    0  0.24534445077E+03  0.16931805525E+03 -0.29588760026E+02  0.33634751537E+03  0.15294330000E+03 0.  0.
<mgrwt>
<rscale>  0 0.59650143E+03</rscale>
<asrwt>0</asrwt>
<pdfrwt beam="1">  1        2 0.39402103E+00 0.72296107E+03</pdfrwt>
<pdfrwt beam="2">  1       -2 0.36498121E-01 0.72296107E+03</pdfrwt>
<totfact> 0.23813947E+01</totfact>
</mgrwt>
</event>
<event>
 4    2  0.3171963E-007  0.7738420E+03  0.7818608E-02  0.9770506E-01
         -2   -1    0    0    0  501 -0.00000000000E+00  0.00000000000E+00  0.78054494150E+03  0.78054494151E+03  0.25500000000E-02 0.  1.
          2   -1    0    0  501    0  0.00000000000E+00 -0.00000000000E+00 -0.68787403149E+03  0.68787403150E+03  0.25500000000E-02 0. -1.
    8880023    1    1    2    0    0  0.10297763247E+03 -0.39295915162E+03 -0.34922733213E+03  0.84899424227E+03  0.65864270000E+03 0.  0.
    8880022    1    1    2    0    0 -0.10297763247E+03  0.39295915162E+03  0.44189824214E+03  0.61942473074E+03  0.15294330000E+03 0.  0.
<mgrwt>
<rscale>  0 0.66969658E+03</rscale>
<asrwt>0</asrwt>
<pdfrwt beam="1">  1        2 0.10582677E+00 0.77384203E+03</pdfrwt>
<pdfrwt beam="2">  1       -2 0.12008384E+00 0.77384203E+03</pdfrwt>
<totfact> 0.22459603E+01</totfact>
</mgrwt>
</event>
<event>
 4    2  0.3171963E-007  0.9916951E+03  0.7818608E-02  0.9392504E-01
         -2   -1    0    0    0  501 -0.00000000000E+00  0.00000000000E+00  0.26424698866E+03  0.26424698867E+03  0.25500000000E-02 0.  1.
          2   -1    0    0  501    0  0.00000000000E+00 -0.00000000000E+00 -0.31548688339E+04  0.31548688339E+04  0.25500000000E-02 0. -1.
    8880023    1    1    2    0    0 -0.35558735030E+03 -0.65054337339E+03 -0.11347907428E+04  0.15070531777E+04  0.65864270000E+03 0. -1.
    8880022    1    1    2    0    0  0.35558735030E+03  0.65054337339E+03 -0.17558311025E+04  0.19120626448E+04  0.15294330000E+03 0.  1.
<mgrwt>
<rscale>  0 0.92695110E+03</rscale>
<asrwt>0</asrwt>
<pdfrwt beam="1">  1        2 0.48536441E+00 0.99169514E+03</pdfrwt>
<pdfrwt beam="2">  1       -2 0.40653385E-01 0.99169514E+03</pdfrwt>
<totfact> 0.81730023E+00</totfact>
</mgrwt>
</event>
<event>
 4    2  0.3171963E-007  0.8236177E+03  0.7818608E-02  0.9661880E-01
          2   -1    0    0  501    0  0.00000000000E+00  0.00000000000E+00  0.28667994650E+04  0.28667994650E+04  0.25500000000E-02 0. -1.
         -2   -1    0    0    0  501 -0.00000000000E+00 -0.00000000000E+00 -0.68236108430E+03  0.68236108431E+03  0.25500000000E-02 0.  1.
    8880023    1    1    2    0    0  0.86688317758E+02  0.48684805789E+03  0.26974510223E+04  0.28203879378E+04  0.65864270000E+03 0. -1.
    8880022    1    1    2    0    0 -0.86688317758E+02 -0.48684805789E+03 -0.51301264155E+03  0.72877261153E+03  0.15294330000E+03 0.  0.
<mgrwt>
<rscale>  0 0.73332488E+03</rscale>
<asrwt>0</asrwt>
<pdfrwt beam="1">  1        2 0.44104606E+00 0.82361769E+03</pdfrwt>
<pdfrwt beam="2">  1       -2 0.10497863E+00 0.82361769E+03</pdfrwt>
<totfact> 0.16219129E+00</totfact>
</mgrwt>
</event>
<event>
 4    2  0.3171963E-007  0.1220967E+04  0.7818608E-02  0.9137006E-01
         -2   -1    0    0    0  501 -0.00000000000E+00  0.00000000000E+00  0.20198593697E+04  0.20198593697E+04  0.25500000000E-02 0.  1.
          2   -1    0    0  501    0  0.00000000000E+00 -0.00000000000E+00 -0.10013748654E+04  0.10013748654E+04  0.25500000000E-02 0. -1.
    8880023    1    1    2    0    0  0.26277781411E+03  0.99393059305E+03 -0.38005391005E+03  0.12787499303E+04  0.65864270000E+03 0. -1.
    8880022    1    1    2    0    0 -0.26277781411E+03 -0.99393059305E+03  0.13985384144E+04  0.17424843049E+04  0.15294330000E+03 0.  0.
<mgrwt>
<rscale>  0 0.11727977E+04</rscale>
<asrwt>0</asrwt>
<pdfrwt beam="1">  1        2 0.15405767E+00 0.12209670E+04</pdfrwt>
<pdfrwt beam="2">  1       -2 0.31074759E+00 0.12209670E+04</pdfrwt>
<totfact> 0.67036589E-01</totfact>
</mgrwt>
</event>
<event>
 4    2  0.3171963E-007  0.8233283E+03  0.7818608E-02  0.9662455E-01
          2   -1    0    0  501    0  0.00000000000E+00  0.00000000000E+00  0.17533588629E+04  0.17533588629E+04  0.25500000000E-02 0. -1.
         -2   -1    0    0    0  501 -0.00000000000E+00 -0.00000000000E+00 -0.43589011517E+03  0.43589011518E+03  0.25500000000E-02 0.  1.
    8880023    1    1    2    0    0  0.48709171471E+03 -0.82468299645E+02  0.14391066404E+04  0.16579799418E+04  0.65864270000E+03 0.  0.
    8880022    1    1    2    0    0 -0.48709171471E+03  0.82468299645E+02 -0.12163789259E+03  0.53126903628E+03  0.15294330000E+03 0.  0.
<mgrwt>
<rscale>  0 0.73296853E+03</rscale>
<asrwt>0</asrwt>
<pdfrwt beam="1">  1        2 0.26974752E+00 0.82332835E+03</pdfrwt>
<pdfrwt beam="2">  1       -2 0.67060017E-01 0.82332835E+03</pdfrwt>
<totfact> 0.19057315E+01</totfact>
</mgrwt>
</event>
<event>
 4    2  0.3171963E-007  0.1131566E+04  0.7818608E-02  0.9226699E-01
         -2   -1    0    0    0  501 -0.00000000000E+00  0.00000000000E+00  0.64347782955E+03  0.64347782956E+03  0.25500000000E-02 0.  1.
          2   -1    0    0  501    0  0.00000000000E+00 -0.00000000000E+00 -0.20390761821E+04  0.20390761821E+04  0.25500000000E-02 0. -1.
    8880023    1    1    2    0    0 -0.83640293615E+03  0.38348526160E+03 -0.13318247605E+04  0.17476264522E+04  0.65864270000E+03 0. -1.
    8880022    1    1    2    0    0  0.83640293615E+03 -0.38348526160E+03 -0.63773592099E+02  0.93492755951E+03  0.15294330000E+03 0.  1.
<mgrwt>
<rscale>  0 0.10782045E+04</rscale>
<asrwt>0</asrwt>
<pdfrwt beam="1">  1        2 0.31370402E+00 0.11315657E+04</pdfrwt>
<pdfrwt beam="2">  1       -2 0.98996590E-01 0.11315657E+04</pdfrwt>
<totfact> 0.53019000E+00</totfact>
</mgrwt>
</event>
<event>
 4    2  0.3171963E-007  0.6904266E+03  0.7818608E-02  0.1003950E+00
          2   -1    0    0  501    0  0.00000000000E+00  0.00000000000E+00  0.13887772702E+04  0.13887772702E+04  0.25500000000E-02 0. -1.
         -2   -1    0    0    0  501 -0.00000000000E+00 -0.00000000000E+00 -0.27805654445E+03  0.27805654446E+03  0.25500000000E-02 0.  1.
    8880023    1    1    2    0    0  0.63128585063E+02  0.19721436643E+03  0.12082054867E+04  0.13915636633E+04  0.65864270000E+03 0. -1.
    8880022    1    1    2    0    0 -0.63128585063E+02 -0.19721436643E+03 -0.97484761001E+02  0.27527015134E+03  0.15294330000E+03 0.  0.
<mgrwt>
<rscale>  0 0.53951445E+03</rscale>
<asrwt>0</asrwt>
<pdfrwt beam="1">  1        2 0.21365804E+00 0.69042663E+03</pdfrwt>
<pdfrwt beam="2">  1       -2 0.42777931E-01 0.69042663E+03</pdfrwt>
<totfact> 0.77924888E+01</totfact>
</mgrwt>
</event>
<event>
 4    2  0.3171963E-007  0.9975757E+03  0.7818608E-02  0.9384736E-01
          2   -1    0    0  501    0  0.00000000000E+00  0.00000000000E+00  0.11353722171E+04  0.11353722171E+04  0.25500000000E-02 0. -1.
         -2   -1    0    0    0  501 -0.00000000000E+00 -0.00000000000E+00 -0.94221078746E+03  0.94221078746E+03  0.25500000000E-02 0.  1.
    8880023    1    1    2    0    0  0.89964546296E+02  0.74381008256E+03 -0.43469153237E+03  0.10881700203E+04  0.65864270000E+03 0.  1.
    8880022    1    1    2    0    0 -0.89964546296E+02 -0.74381008256E+03  0.62785296199E+03  0.98941298425E+03  0.15294330000E+03 0.  0.
<mgrwt>
<rscale>  0 0.93342542E+03</rscale>
<asrwt>0</asrwt>
<pdfrwt beam="1">  1        2 0.17467265E+00 0.99757569E+03</pdfrwt>
<pdfrwt beam="2">  1       -2 0.14495551E+00 0.99757569E+03</pdfrwt>
<totfact> 0.67392232E+00</totfact>
</mgrwt>
</event>
<event>
 4    2  0.3171963E-007  0.7691334E+03  0.7818608E-02  0.9782011E-01
         -2   -1    0    0    0  501 -0.00000000000E+00  0.00000000000E+00  0.29059904445E+03  0.29059904446E+03  0.25500000000E-02 0.  1.
          2   -1    0    0  501    0  0.00000000000E+00 -0.00000000000E+00 -0.18145305597E+04  0.18145305597E+04  0.25500000000E-02 0. -1.
    8880023    1    1    2    0    0  0.32801887421E+03  0.22396335407E+03 -0.14916795287E+04  0.16782949647E+04  0.65864270000E+03 0. -1.
    8880022    1    1    2    0    0 -0.32801887421E+03 -0.22396335407E+03 -0.32251986534E+02  0.42683463947E+03  0.15294330000E+03 0.  0.
<mgrwt>
<rscale>  0 0.66336924E+03</rscale>
<asrwt>0</asrwt>
<pdfrwt beam="1">  1        2 0.27915854E+00 0.76913339E+03</pdfrwt>
<pdfrwt beam="2">  1       -2 0.44707546E-01 0.76913339E+03</pdfrwt>
<totfact> 0.41204642E+01</totfact>
</mgrwt>
</event>
<event>
 4    2  0.3171963E-007  0.1098889E+04  0.7818608E-02  0.9262294E-01
          2   -1    0    0  501    0  0.00000000000E+00  0.00000000000E+00  0.29355962779E+04  0.29355962779E+04  0.25500000000E-02 0. -1.
         -2   -1    0    0    0  501 -0.00000000000E+00 -0.00000000000E+00 -0.52746974028E+03  0.52746974028E+03  0.25500000000E-02 0.  1.
    8880023    1    1    2    0    0 -0.84319175133E+03 -0.25054969878E+03  0.23185204928E+04  0.25657542678E+04  0.65864270000E+03 0.  0.
    8880022    1    1    2    0    0  0.84319175133E+03  0.25054969878E+03  0.89606044847E+02  0.89731175038E+03  0.15294330000E+03 0.  1.
<mgrwt>
<rscale>  0 0.10432952E+04</rscale>
<asrwt>0</asrwt>
<pdfrwt beam="1">  1        2 0.45163020E+00 0.10988893E+04</pdfrwt>
<pdfrwt beam="2">  1       -2 0.81149191E-01 0.10988893E+04</pdfrwt>
<totfact> 0.25699806E+00</totfact>
</mgrwt>
</event>
<event>
 4    2  0.3171963E-007  0.6749286E+03  0.7818608E-02  0.1012351E+00
          2   -1    0    0  501    0  0.00000000000E+00  0.00000000000E+00  0.50021650428E+03  0.50021650429E+03  0.25500000000E-02 0. -1.
         -2   -1    0    0    0  501 -0.00000000000E+00 -0.00000000000E+00 -0.59214819607E+03  0.59214819607E+03  0.25500000000E-02 0.  1.
    8880023    1    1    2    0    0  0.47145761411E+02  0.13962713226E+03  0.22447851693E+03  0.71128002201E+03  0.65864270000E+03 0. -1.
    8880022    1    1    2    0    0 -0.47145761411E+02 -0.13962713226E+03 -0.31641020871E+03  0.38108467835E+03  0.15294330000E+03 0.  0.
<mgrwt>
<rscale>  0 0.50550753E+03</rscale>
<asrwt>0</asrwt>
<pdfrwt beam="1">  1        2 0.76956385E-01 0.67492864E+03</pdfrwt>
<pdfrwt beam="2">  1       -2 0.91099723E-01 0.67492864E+03</pdfrwt>
<totfact> 0.64283983E+01</totfact>
</mgrwt>
</event>
<event>
 4    2  0.3171963E-007  0.7135038E+03  0.7818608E-02  0.9945213E-01
          2   -1    0    0  501    0  0.00000000000E+00  0.00000000000E+00  0.55532100731E+03  0.55532100732E+03  0.25500000000E-02 0. -1.
         -2   -1    0    0    0  501 -0.00000000000E+00 -0.00000000000E+00 -0.88171571365E+03  0.88171571365E+03  0.25500000000E-02 0.  1.
    8880023    1    1    2    0    0  0.13929842430E+01 -0.27436397104E+03  0.27007773715E+03  0.76290872284E+03  0.65864270000E+03 0. -1.
    8880022    1    1    2    0    0 -0.13929842430E+01  0.27436397104E+03 -0.59647244349E+03  0.67412799813E+03  0.15294330000E+03 0.  0.
<mgrwt>
<rscale>  0 0.58119240E+03</rscale>
<asrwt>0</asrwt>
<pdfrwt beam="1">  1        2 0.85434001E-01 0.71350384E+03</pdfrwt>
<pdfrwt beam="2">  1       -2 0.13564857E+00 0.71350384E+03</pdfrwt>
<totfact> 0.21559664E+01</totfact>
</mgrwt>
</event>
<event>
 4    2  0.3171963E-007  0.7667872E+03  0.7818608E-02  0.9787843E-01
          2   -1    0    0  501    0  0.00000000000E+00  0.00000000000E+00  0.16123967730E+04  0.16123967730E+04  0.25500000000E-02 0. -1.
         -2   -1    0    0    0  501 -0.00000000000E+00 -0.00000000000E+00 -0.29598555948E+03  0.29598555949E+03  0.25500000000E-02 0.  1.
    8880023    1    1    2    0    0 -0.31350431802E+03 -0.23636292419E+03  0.12712615154E+04  0.14846105335E+04  0.65864270000E+03 0. -1.
    8880022    1    1    2    0    0  0.31350431802E+03  0.23636292419E+03  0.45149698080E+02  0.42377179897E+03  0.15294330000E+03 0.  0.
<mgrwt>
<rscale>  0 0.66019070E+03</rscale>
<asrwt>0</asrwt>
<pdfrwt beam="1">  1        2 0.24806104E+00 0.76678719E+03</pdfrwt>
<pdfrwt beam="2">  1       -2 0.45536240E-01 0.76678719E+03</pdfrwt>
<totfact> 0.51268849E+01</totfact>
</mgrwt>
</event>
<event>
 4    2  0.3171963E-007  0.9469219E+03  0.7818608E-02  0.9454557E-01
         -2   -1    0    0    0  501 -0.00000000000E+00  0.00000000000E+00  0.69341944277E+03  0.69341944278E+03  0.25500000000E-02 0.  1.
          2   -1    0    0  501    0  0.00000000000E+00 -0.00000000000E+00 -0.20531628559E+04  0.20531628559E+04  0.25500000000E-02 0. -1.
    8880023    1    1    2    0    0  0.58367514470E+03 -0.34953433941E+03 -0.17187088379E+04  0.19622999783E+04  0.65864270000E+03 0. -1.
    8880022    1    1    2    0    0 -0.58367514470E+03  0.34953433941E+03  0.35896542475E+03  0.78428232043E+03  0.15294330000E+03 0.  0.
<mgrwt>
<rscale>  0 0.87718713E+03</rscale>
<asrwt>0</asrwt>
<pdfrwt beam="1">  1        2 0.31587121E+00 0.94692193E+03</pdfrwt>
<pdfrwt beam="2">  1       -2 0.10667992E+00 0.94692193E+03</pdfrwt>
<totfact> 0.44489239E+00</totfact>
</mgrwt>
</event>
<event>
 4    2  0.3171963E-007  0.6694220E+03  0.7818608E-02  0.1016081E+00
         -2   -1    0    0    0  501 -0.00000000000E+00  0.00000000000E+00  0.28832070759E+03  0.28832070761E+03  0.25500000000E-02 0.  1.
          2   -1    0    0  501    0  0.00000000000E+00 -0.00000000000E+00 -0.67162528322E+03  0.67162528323E+03  0.25500000000E-02 0. -1.
    8880023    1    1    2    0    0 -0.58062105243E+02  0.10461520461E+03 -0.37104531484E+03  0.76537597364E+03  0.65864270000E+03 0. -1.
    8880022    1    1    2    0    0  0.58062105243E+02 -0.10461520461E+03 -0.12259260793E+02  0.19457001719E+03  0.15294330000E+03 0.  1.
<mgrwt>
<rscale>  0 0.49127878E+03</rscale>
<asrwt>0</asrwt>
<pdfrwt beam="1">  1        2 0.10332697E+00 0.66942196E+03</pdfrwt>
<pdfrwt beam="2">  1       -2 0.44357032E-01 0.66942196E+03</pdfrwt>
<totfact> 0.21079859E+02</totfact>
</mgrwt>
</event>
<event>
 4    2  0.3171963E-007  0.7681890E+03  0.7818608E-02  0.9784350E-01
          2   -1    0    0  501    0  0.00000000000E+00  0.00000000000E+00  0.27973953932E+04  0.27973953932E+04  0.25500000000E-02 0. -1.
         -2   -1    0    0    0  501 -0.00000000000E+00 -0.00000000000E+00 -0.45174682131E+03  0.45174682131E+03  0.25500000000E-02 0.  1.
    8880023    1    1    2    0    0  0.28109147519E+03 -0.27801386714E+03  0.26292130261E+04  0.27391377239E+04  0.65864270000E+03 0. -1.
    8880022    1    1    2    0    0 -0.28109147519E+03  0.27801386714E+03 -0.28356445419E+03  0.51000449061E+03  0.15294330000E+03 0.  0.
<mgrwt>
<rscale>  0 0.66209193E+03</rscale>
<asrwt>0</asrwt>
<pdfrwt beam="1">  1        2 0.43036852E+00 0.76818900E+03</pdfrwt>
<pdfrwt beam="2">  1       -2 0.69499511E-01 0.76818900E+03</pdfrwt>
<totfact> 0.46269092E+00</totfact>
</mgrwt>
</event>
<event>
 4    2  0.3171963E-007  0.7255355E+03  0.7818608E-02  0.9904282E-01
         -2   -1    0    0    0  501 -0.00000000000E+00  0.00000000000E+00  0.70437478964E+03  0.70437478964E+03  0.25500000000E-02 0.  1.
          2   -1    0    0  501    0  0.00000000000E+00 -0.00000000000E+00 -0.97250190642E+03  0.97250190642E+03  0.25500000000E-02 0. -1.
    8880023    1    1    2    0    0  0.27260830353E+03  0.13518989272E+03 -0.77794812149E+03  0.10637692796E+04  0.65864270000E+03 0. -1.
    8880022    1    1    2    0    0 -0.27260830353E+03 -0.13518989272E+03  0.50982100471E+03  0.61310741645E+03  0.15294330000E+03 0.  0.
<mgrwt>
<rscale>  0 0.60054205E+03</rscale>
<asrwt>0</asrwt>
<pdfrwt beam="1">  1        2 0.14961568E+00 0.72553553E+03</pdfrwt>
<pdfrwt beam="2">  1       -2 0.10836535E+00 0.72553553E+03</pdfrwt>
<totfact> 0.18217941E+01</totfact>
</mgrwt>
</event>
<event>
 4    2  0.3171963E-007  0.9878503E+03  0.7818608E-02  0.9397629E-01
          2   -1    0    0  501    0  0.00000000000E+00  0.00000000000E+00  0.37875292588E+04  0.37875292588E+04  0.25500000000E-02 0. -1.
         -2   -1    0    0    0  501 -0.00000000000E+00 -0.00000000000E+00 -0.28631469809E+03  0.28631469810E+03  0.25500000000E-02 0.  1.
    8880023    1    1    2    0    0  0.13301868746E+03 -0.72411598259E+03  0.80372321695E+03  0.12735066326E+04  0.65864270000E+03 0.  0.
    8880022    1    1    2    0    0 -0.13301868746E+03  0.72411598259E+03  0.26974913437E+04  0.28003373243E+04  0.15294330000E+03 0.  0.
<mgrwt>
<rscale>  0 0.92271091E+03</rscale>
<asrwt>0</asrwt>
<pdfrwt beam="1">  1        2 0.58269681E+00 0.98785026E+03</pdfrwt>
<pdfrwt beam="2">  1       -2 0.44048415E-01 0.98785026E+03</pdfrwt>
<totfact> 0.25735141E+00</totfact>
</mgrwt>
</event>
<event>
 4    2  0.3171963E-007  0.7548623E+03  0.7818608E-02  0.9818595E-01
         -2   -1    0    0    0  501 -0.00000000000E+00  0.00000000000E+00  0.21318815694E+03  0.21318815695E+03  0.25500000000E-02 0.  1.
          2   -1    0    0  501    0  0.00000000000E+00 -0.00000000000E+00 -0.20895222949E+04  0.20895222949E+04  0.25500000000E-02 0. -1.
    8880023    1    1    2    0    0 -0.31605525337E+03  0.19004180526E+03 -0.17118743718E+04  0.18709171232E+04  0.65864270000E+03 0.  0.
    8880022    1    1    2    0    0  0.31605525337E+03 -0.19004180526E+03 -0.16445976616E+03  0.43179332861E+03  0.15294330000E+03 0.  0.
<mgrwt>
<rscale>  0 0.64374119E+03</rscale>
<asrwt>0</asrwt>
<pdfrwt beam="1">  1        2 0.32146496E+00 0.75486225E+03</pdfrwt>
<pdfrwt beam="2">  1       -2 0.32798179E-01 0.75486225E+03</pdfrwt>
<totfact> 0.53214019E+01</totfact>
</mgrwt>
</event>
<event>
 4    2  0.3171963E-007  0.6936193E+03  0.7818608E-02  0.1002478E+00
         -2   -1    0    0    0  501 -0.00000000000E+00  0.00000000000E+00  0.87802735532E+03  0.87802735533E+03  0.25500000000E-02 0.  1.
          2   -1    0    0  501    0  0.00000000000E+00 -0.00000000000E+00 -0.12646936303E+04  0.12646936303E+04  0.25500000000E-02 0. -1.
    8880023    1    1    2    0    0 -0.61668146271E+02 -0.20855365456E+03 -0.11452356040E+04  0.13389071596E+04  0.65864270000E+03 0. -1.
    8880022    1    1    2    0    0  0.61668146271E+02  0.20855365456E+03  0.75856932898E+03  0.80381382607E+03  0.15294330000E+03 0.  0.
<mgrwt>
<rscale>  0 0.54577050E+03</rscale>
<asrwt>0</asrwt>
<pdfrwt beam="1">  1        2 0.19456825E+00 0.69361934E+03</pdfrwt>
<pdfrwt beam="2">  1       -2 0.13508113E+00 0.69361934E+03</pdfrwt>
<totfact> 0.70320152E+00</totfact>
</mgrwt>
</event>
<event>
 4    2  0.3171963E-007  0.6971486E+03  0.7818608E-02  0.1000924E+00
          2   -1    0    0  501    0  0.00000000000E+00  0.00000000000E+00  0.80538664546E+03  0.80538664547E+03  0.25500000000E-02 0. -1.
         -2   -1    0    0    0  501 -0.00000000000E+00 -0.00000000000E+00 -0.32726627008E+03  0.32726627009E+03  0.25500000000E-02 0.  1.
    8880023    1    1    2    0    0  0.17199340724E+03 -0.15041335722E+03  0.49835973497E+03  0.85695889158E+03  0.65864270000E+03 0.  0.
    8880022    1    1    2    0    0 -0.17199340724E+03  0.15041335722E+03 -0.20239359588E+02  0.27569402398E+03  0.15294330000E+03 0.  0.
<mgrwt>
<rscale>  0 0.55246844E+03</rscale>
<asrwt>0</asrwt>
<pdfrwt beam="1">  1        2 0.12390564E+00 0.69714856E+03</pdfrwt>
<pdfrwt beam="2">  1       -2 0.50348657E-01 0.69714856E+03</pdfrwt>
<totfact> 0.12926503E+02</totfact>
</mgrwt>
</event>
<event>
 4    2  0.3171963E-007  0.6606954E+03  0.7818608E-02  0.1023455E+00
         -2   -1    0    0    0  501 -0.00000000000E+00  0.00000000000E+00  0.14938562794E+04  0.14938562794E+04  0.25500000000E-02 0.  1.
          2   -1    0    0  501    0  0.00000000000E+00 -0.00000000000E+00 -0.53274255996E+03  0.53274255997E+03  0.25500000000E-02 0. -1.
    8880023    1    1    2    0    0 -0.26850315128E+02  0.44579209936E+02 -0.32085979351E+03  0.73448584652E+03  0.65864270000E+03 0. -1.
    8880022    1    1    2    0    0  0.26850315128E+02 -0.44579209936E+02  0.12819735130E+04  0.12921129929E+04  0.15294330000E+03 0.  0.
<mgrwt>
<rscale>  0 0.46460174E+03</rscale>
<asrwt>0</asrwt>
<pdfrwt beam="1">  1        2 0.81960395E-01 0.66069543E+03</pdfrwt>
<pdfrwt beam="2">  1       -2 0.22982404E+00 0.66069543E+03</pdfrwt>
<totfact> 0.50842270E+00</totfact>
</mgrwt>
</event>
<event>
 4    2  0.3171963E-007  0.9315179E+03  0.7818608E-02  0.9477220E-01
          2   -1    0    0  501    0  0.00000000000E+00  0.00000000000E+00  0.11809318355E+04  0.11809318355E+04  0.25500000000E-02 0. -1.
         -2   -1    0    0    0  501 -0.00000000000E+00 -0.00000000000E+00 -0.76612349153E+03  0.76612349153E+03  0.25500000000E-02 0.  1.
    8880023    1    1    2    0    0  0.64355501184E+03  0.14054307459E+03  0.74660886803E+03  0.11937966398E+04  0.65864270000E+03 0. -1.
    8880022    1    1    2    0    0 -0.64355501184E+03 -0.14054307459E+03 -0.33180052409E+03  0.75325868722E+03  0.15294330000E+03 0.  1.
<mgrwt>
<rscale>  0 0.85984347E+03</rscale>
<asrwt>0</asrwt>
<pdfrwt beam="1">  1        2 0.18168182E+00 0.93151791E+03</pdfrwt>
<pdfrwt beam="2">  1       -2 0.11786515E+00 0.93151791E+03</pdfrwt>
<totfact> 0.10787914E+01</totfact>
</mgrwt>
</event>
<event>
 4    2  0.3171963E-007  0.6638248E+03  0.7818608E-02  0.1020540E+00
         -2   -1    0    0    0  501 -0.00000000000E+00  0.00000000000E+00  0.72311406904E+03  0.72311406905E+03  0.25500000000E-02 0.  1.
          2   -1    0    0  501    0  0.00000000000E+00 -0.00000000000E+00 -0.53632186689E+03  0.53632186689E+03  0.25500000000E-02 0. -1.
    8880023    1    1    2    0    0 -0.16278629036E+02  0.81167333394E+02 -0.31032313914E+03  0.73277812926E+03  0.65864270000E+03 0. -1.
    8880022    1    1    2    0    0  0.16278629036E+02 -0.81167333394E+02  0.49711534129E+03  0.52665780668E+03  0.15294330000E+03 0.  0.
<mgrwt>
<rscale>  0 0.47492103E+03</rscale>
<asrwt>0</asrwt>
<pdfrwt beam="1">  1        2 0.82511057E-01 0.66382478E+03</pdfrwt>
<pdfrwt beam="2">  1       -2 0.11124832E+00 0.66382478E+03</pdfrwt>
<totfact> 0.36952713E+01</totfact>
</mgrwt>
</event>
<event>
 4    2  0.3171963E-007  0.6615134E+03  0.7818608E-02  0.1022657E+00
         -2   -1    0    0    0  501 -0.00000000000E+00  0.00000000000E+00  0.69474624996E+02  0.69474625043E+02  0.25500000000E-02 0.  1.
          2   -1    0    0  501    0  0.00000000000E+00 -0.00000000000E+00 -0.25146282339E+04  0.25146282339E+04  0.25500000000E-02 0. -1.
    8880023    1    1    2    0    0 -0.58811620633E+02  0.18192579862E+02 -0.20974036092E+04  0.21992503001E+04  0.65864270000E+03 0. -1.
    8880022    1    1    2    0    0  0.58811620633E+02 -0.18192579862E+02 -0.34774999977E+03  0.38485255883E+03  0.15294330000E+03 0.  0.
<mgrwt>
<rscale>  0 0.46739926E+03</rscale>
<asrwt>0</asrwt>
<pdfrwt beam="1">  1        2 0.38686581E+00 0.66151340E+03</pdfrwt>
<pdfrwt beam="2">  1       -2 0.10688406E-01 0.66151340E+03</pdfrwt>
<totfact> 0.22027959E+02</totfact>
</mgrwt>
</event>
<event>
 4    2  0.3171963E-007  0.7560595E+03  0.7818608E-02  0.9815418E-01
         -2   -1    0    0    0  501 -0.00000000000E+00  0.00000000000E+00  0.46426501129E+03  0.46426501130E+03  0.25500000000E-02 0.  1.
          2   -1    0    0  501    0  0.00000000000E+00 -0.00000000000E+00 -0.15228948768E+04  0.15228948768E+04  0.25500000000E-02 0. -1.
    8880023    1    1    2    0    0  0.36510302622E+03 -0.67198133549E+02 -0.13106683956E+04  0.15131019986E+04  0.65864270000E+03 0.  0.
    8880022    1    1    2    0    0 -0.36510302622E+03  0.67198133549E+02  0.25203853005E+03  0.47405788945E+03  0.15294330000E+03 0.  0.
<mgrwt>
<rscale>  0 0.64541661E+03</rscale>
<asrwt>0</asrwt>
<pdfrwt beam="1">  1        2 0.23429152E+00 0.75605953E+03</pdfrwt>
<pdfrwt beam="2">  1       -2 0.71425387E-01 0.75605953E+03</pdfrwt>
<totfact> 0.22429443E+01</totfact>
</mgrwt>
</event>
<event>
 4    2  0.3171963E-007  0.8476083E+03  0.7818608E-02  0.9615998E-01
          2   -1    0    0  501    0  0.00000000000E+00  0.00000000000E+00  0.23847834469E+04  0.23847834469E+04  0.25500000000E-02 0. -1.
         -2   -1    0    0    0  501 -0.00000000000E+00 -0.00000000000E+00 -0.23306089257E+03  0.23306089259E+03  0.25500000000E-02 0.  1.
    8880023    1    1    2    0    0 -0.30982764908E+03  0.43432303463E+03  0.17099147303E+04  0.19084675166E+04  0.65864270000E+03 0. -1.
    8880022    1    1    2    0    0  0.30982764908E+03 -0.43432303463E+03  0.44180782402E+03  0.70937682294E+03  0.15294330000E+03 0.  0.
<mgrwt>
<rscale>  0 0.76246341E+03</rscale>
<asrwt>0</asrwt>
<pdfrwt beam="1">  1        2 0.36688976E+00 0.84760833E+03</pdfrwt>
<pdfrwt beam="2">  1       -2 0.35855522E-01 0.84760833E+03</pdfrwt>
<totfact> 0.30474134E+01</totfact>
</mgrwt>
</event>
<event>
 4    2  0.3171963E-007  0.6817659E+03  0.7818608E-02  0.1008342E+00
         -2   -1    0    0    0  501 -0.00000000000E+00  0.00000000000E+00  0.58971902845E+03  0.58971902845E+03  0.25500000000E-02 0.  1.
          2   -1    0    0  501    0  0.00000000000E+00 -0.00000000000E+00 -0.26918695197E+04  0.26918695197E+04  0.25500000000E-02 0. -1.
    8880023    1    1    2    0    0 -0.13459038847E+03  0.11348976307E+03 -0.26234037954E+04  0.27105446277E+04  0.65864270000E+03 0. -1.
    8880022    1    1    2    0    0  0.13459038847E+03 -0.11348976307E+03  0.52125330412E+03  0.57104392043E+03  0.15294330000E+03 0.  0.
<mgrwt>
<rscale>  0 0.52138974E+03</rscale>
<asrwt>0</asrwt>
<pdfrwt beam="1">  1        2 0.41413377E+00 0.68176587E+03</pdfrwt>
<pdfrwt beam="2">  1       -2 0.90726005E-01 0.68176587E+03</pdfrwt>
<totfact> 0.29844685E+00</totfact>
</mgrwt>
</event>
<event>
 4    2  0.3171963E-007  0.7333998E+03  0.7818608E-02  0.9879607E-01
          2   -1    0    0  501    0  0.00000000000E+00  0.00000000000E+00  0.25674726329E+03  0.25674726330E+03  0.25500000000E-02 0. -1.
         -2   -1    0    0    0  501 -0.00000000000E+00 -0.00000000000E+00 -0.17004118786E+04  0.17004118786E+04  0.25500000000E-02 0.  1.
    8880023    1    1    2    0    0  0.32214139693E+03 -0.17030237100E+02 -0.36155563806E+03  0.81767829510E+03  0.65864270000E+03 0.  0.
    8880022    1    1    2    0    0 -0.32214139693E+03  0.17030237100E+02 -0.10821089772E+04  0.11394808468E+04  0.15294330000E+03 0.  0.
<mgrwt>
<rscale>  0 0.61259855E+03</rscale>
<asrwt>0</asrwt>
<pdfrwt beam="1">  1        2 0.39499580E-01 0.73339983E+03</pdfrwt>
<pdfrwt beam="2">  1       -2 0.26160182E+00 0.73339983E+03</pdfrwt>
<totfact> 0.73486681E+00</totfact>
</mgrwt>
</event>
<event>
 4    2  0.3171963E-007  0.6844443E+03  0.7818608E-02  0.1006914E+00
          2   -1    0    0  501    0  0.00000000000E+00  0.00000000000E+00  0.10912196098E+04  0.10912196098E+04  0.25500000000E-02 0. -1.
         -2   -1    0    0    0  501 -0.00000000000E+00 -0.00000000000E+00 -0.22991349305E+03  0.22991349306E+03  0.25500000000E-02 0.  1.
    8880023    1    1    2    0    0 -0.18264209307E+03 -0.35994437598E+02  0.83364671252E+03  0.10786244857E+04  0.65864270000E+03 0. -1.
    8880022    1    1    2    0    0  0.18264209307E+03  0.35994437598E+02  0.27659404188E+02  0.24250861707E+03  0.15294330000E+03 0.  0.
<mgrwt>
<rscale>  0 0.52719894E+03</rscale>
<asrwt>0</asrwt>
<pdfrwt beam="1">  1        2 0.16787994E+00 0.68444426E+03</pdfrwt>
<pdfrwt beam="2">  1       -2 0.35371307E-01 0.68444426E+03</pdfrwt>
<totfact> 0.16828314E+02</totfact>
</mgrwt>
</event>
<event>
 4    2  0.3171963E-007  0.8286791E+03  0.7818608E-02  0.9651908E-01
         -2   -1    0    0    0  501 -0.00000000000E+00  0.00000000000E+00  0.44691270542E+03  0.44691270543E+03  0.25500000000E-02 0.  1.
          2   -1    0    0  501    0  0.00000000000E+00 -0.00000000000E+00 -0.15447219598E+04  0.15447219598E+04  0.25500000000E-02 0. -1.
    8880023    1    1    2    0    0 -0.11668160557E+03  0.48916695036E+03 -0.11978602557E+04  0.14565638677E+04  0.65864270000E+03 0.  0.
    8880022    1    1    2    0    0  0.11668160557E+03 -0.48916695036E+03  0.10005100134E+03  0.53507079745E+03  0.15294330000E+03 0.  0.
<mgrwt>
<rscale>  0 0.73953811E+03</rscale>
<asrwt>0</asrwt>
<pdfrwt beam="1">  1        2 0.23764953E+00 0.82867913E+03</pdfrwt>
<pdfrwt beam="2">  1       -2 0.68755802E-01 0.82867913E+03</pdfrwt>
<totfact> 0.23509277E+01</totfact>
</mgrwt>
</event>
<event>
 4    2  0.3171963E-007  0.6642312E+03  0.7818608E-02  0.1020187E+00
         -2   -1    0    0    0  501 -0.00000000000E+00  0.00000000000E+00  0.47092758081E+03  0.47092758081E+03  0.25500000000E-02 0.  1.
          2   -1    0    0  501    0  0.00000000000E+00 -0.00000000000E+00 -0.40800109193E+03  0.40800109194E+03  0.25500000000E-02 0. -1.
    8880023    1    1    2    0    0 -0.48393553388E+02  0.71069847101E+02  0.15311588075E+03  0.68165059846E+03  0.65864270000E+03 0.  1.
    8880022    1    1    2    0    0  0.48393553388E+02 -0.71069847101E+02 -0.90189391868E+02  0.19727807429E+03  0.15294330000E+03 0.  0.
<mgrwt>
<rscale>  0 0.47619078E+03</rscale>
<asrwt>0</asrwt>
<pdfrwt beam="1">  1        2 0.62769399E-01 0.66423118E+03</pdfrwt>
<pdfrwt beam="2">  1       -2 0.72450397E-01 0.66423118E+03</pdfrwt>
<totfact> 0.13592712E+02</totfact>
</mgrwt>
</event>
<event>
 4    2  0.3171963E-007  0.7200711E+03  0.7818608E-02  0.9922345E-01
          2   -1    0    0  501    0  0.00000000000E+00  0.00000000000E+00  0.59032090851E+03  0.59032090852E+03  0.25500000000E-02 0. -1.
         -2   -1    0    0    0  501 -0.00000000000E+00 -0.00000000000E+00 -0.48688007174E+03  0.48688007175E+03  0.25500000000E-02 0.  1.
    8880023    1    1    2    0    0  0.10917219159E+03  0.26976584255E+03  0.17435387922E+03  0.74087897708E+03  0.65864270000E+03 0.  0.
    8880022    1    1    2    0    0 -0.10917219159E+03 -0.26976584255E+03 -0.70913042445E+02  0.33632200318E+03  0.15294330000E+03 0.  0.
<mgrwt>
<rscale>  0 0.59190448E+03</rscale>
<asrwt>0</asrwt>
<pdfrwt beam="1">  1        2 0.90818601E-01 0.72007110E+03</pdfrwt>
<pdfrwt beam="2">  1       -2 0.74904626E-01 0.72007110E+03</pdfrwt>
<totfact> 0.82098226E+01</totfact>
</mgrwt>
</event>
<event>
 4    2  0.3171963E-007  0.1089541E+04  0.7818608E-02  0.9272791E-01
         -2   -1    0    0    0  501 -0.00000000000E+00  0.00000000000E+00  0.12144512362E+04  0.12144512362E+04  0.25500000000E-02 0.  1.
          2   -1    0    0  501    0  0.00000000000E+00 -0.00000000000E+00 -0.99548511563E+03  0.99548511563E+03  0.25500000000E-02 0. -1.
    8880023    1    1    2    0    0  0.80412342521E+03  0.32661028172E+03 -0.36920487306E+03  0.11503961073E+04  0.65864270000E+03 0. -1.
    8880022    1    1    2    0    0 -0.80412342521E+03 -0.32661028172E+03  0.58817099365E+03  0.10595402446E+04  0.15294330000E+03 0.  0.
<mgrwt>
<rscale>  0 0.10332678E+04</rscale>
<asrwt>0</asrwt>
<pdfrwt beam="1">  1        2 0.15315156E+00 0.10895407E+04</pdfrwt>
<pdfrwt beam="2">  1       -2 0.18683865E+00 0.10895407E+04</pdfrwt>
<totfact> 0.40568030E+00</totfact>
</mgrwt>
</event>
<event>
 4    2  0.3171963E-007  0.6625381E+03  0.7818608E-02  0.1021695E+00
         -2   -1    0    0    0  501 -0.00000000000E+00  0.00000000000E+00  0.15666126632E+03  0.15666126634E+03  0.25500000000E-02 0.  1.
          2   -1    0    0  501    0  0.00000000000E+00 -0.00000000000E+00 -0.12811986045E+04  0.12811986045E+04  0.25500000000E-02 0. -1.
    8880023    1    1    2    0    0  0.70422431295E+02 -0.13682142368E+02 -0.10733135473E+04  0.12613321121E+04  0.65864270000E+03 0. -1.
    8880022    1    1    2    0    0 -0.70422431295E+02  0.13682142368E+02 -0.51223790856E+02  0.17652775876E+03  0.15294330000E+03 0.  0.
<mgrwt>
<rscale>  0 0.47079995E+03</rscale>
<asrwt>0</asrwt>
<pdfrwt beam="1">  1        2 0.19710747E+00 0.66253809E+03</pdfrwt>
<pdfrwt beam="2">  1       -2 0.24101734E-01 0.66253809E+03</pdfrwt>
<totfact> 0.26400331E+02</totfact>
</mgrwt>
</event>
<event>
 4    2  0.3171963E-007  0.7262314E+03  0.7818608E-02  0.9902039E-01
          2   -1    0    0  501    0  0.00000000000E+00  0.00000000000E+00  0.12391907796E+04  0.12391907796E+04  0.25500000000E-02 0. -1.
         -2   -1    0    0    0  501 -0.00000000000E+00 -0.00000000000E+00 -0.24318581721E+03  0.24318581723E+03  0.25500000000E-02 0.  1.
    8880023    1    1    2    0    0  0.10688134125E+02  0.30575745589E+03  0.82780446059E+03  0.11012140070E+04  0.65864270000E+03 0.  0.
    8880022    1    1    2    0    0 -0.10688134125E+02 -0.30575745589E+03  0.16820050180E+03  0.38116258980E+03  0.15294330000E+03 0. -1.
<mgrwt>
<rscale>  0 0.60162586E+03</rscale>
<asrwt>0</asrwt>
<pdfrwt beam="1">  1        2 0.19064474E+00 0.72623141E+03</pdfrwt>
<pdfrwt beam="2">  1       -2 0.37413202E-01 0.72623141E+03</pdfrwt>
<totfact> 0.12290338E+02</totfact>
</mgrwt>
</event>
<event>
 4    2  0.3171963E-007  0.6871448E+03  0.7818608E-02  0.1005540E+00
         -2   -1    0    0    0  501 -0.00000000000E+00  0.00000000000E+00  0.72207107174E+03  0.72207107175E+03  0.25500000000E-02 0.  1.
          2   -1    0    0  501    0  0.00000000000E+00 -0.00000000000E+00 -0.77990308220E+03  0.77990308220E+03  0.25500000000E-02 0. -1.
    8880023    1    1    2    0    0 -0.13898464149E+03 -0.13798913900E+03 -0.59574373112E+03  0.90943858093E+03  0.65864270000E+03 0. -1.
    8880022    1    1    2    0    0  0.13898464149E+03  0.13798913900E+03  0.53791172066E+03  0.59253557302E+03  0.15294330000E+03 0.  0.
<mgrwt>
<rscale>  0 0.53286263E+03</rscale>
<asrwt>0</asrwt>
<pdfrwt beam="1">  1        2 0.11998509E+00 0.68714477E+03</pdfrwt>
<pdfrwt beam="2">  1       -2 0.11108786E+00 0.68714477E+03</pdfrwt>
<totfact> 0.23325204E+01</totfact>
</mgrwt>
</event>
<event>
 4    2  0.3171963E-007  0.7678235E+03  0.7818608E-02  0.9785259E-01
         -2   -1    0    0    0  501 -0.00000000000E+00  0.00000000000E+00  0.40854883782E+03  0.40854883782E+03  0.25500000000E-02 0.  1.
          2   -1    0    0  501    0  0.00000000000E+00 -0.00000000000E+00 -0.10830575263E+04  0.10830575263E+04  0.25500000000E-02 0. -1.
    8880023    1    1    2    0    0  0.32124026002E+03  0.22923229795E+03 -0.73638045046E+03  0.10638651819E+04  0.65864270000E+03 0.  0.
    8880022    1    1    2    0    0 -0.32124026002E+03 -0.22923229795E+03  0.61871761957E+02  0.42774118229E+03  0.15294330000E+03 0.  0.
<mgrwt>
<rscale>  0 0.66159686E+03</rscale>
<asrwt>0</asrwt>
<pdfrwt beam="1">  1        2 0.16662423E+00 0.76782352E+03</pdfrwt>
<pdfrwt beam="2">  1       -2 0.62853668E-01 0.76782352E+03</pdfrwt>
<totfact> 0.53131906E+01</totfact>
</mgrwt>
</event>
<event>
 4    2  0.3171963E-007  0.9116624E+03  0.7818608E-02  0.9507563E-01
         -2   -1    0    0    0  501 -0.00000000000E+00  0.00000000000E+00  0.62136885158E+03  0.62136885158E+03  0.25500000000E-02 0.  1.
          2   -1    0    0  501    0  0.00000000000E+00 -0.00000000000E+00 -0.14932590692E+04  0.14932590692E+04  0.25500000000E-02 0. -1.
    8880023    1    1    2    0    0  0.20239013610E+03  0.59695585030E+03 -0.10985313326E+04  0.14275501215E+04  0.65864270000E+03 0. -1.
    8880022    1    1    2    0    0 -0.20239013610E+03 -0.59695585030E+03  0.22664111491E+03  0.68707779936E+03  0.15294330000E+03 0.  0.
<mgrwt>
<rscale>  0 0.83728505E+03</rscale>
<asrwt>0</asrwt>
<pdfrwt beam="1">  1        2 0.22973216E+00 0.91166236E+03</pdfrwt>
<pdfrwt beam="2">  1       -2 0.95595208E-01 0.91166236E+03</pdfrwt>
<totfact> 0.11818938E+01</totfact>
</mgrwt>
</event>
<event>
 4    2  0.3171963E-007  0.6813895E+03  0.7818608E-02  0.1008548E+00
          2   -1    0    0  501    0  0.00000000000E+00  0.00000000000E+00  0.44805585981E+03  0.44805585982E+03  0.25500000000E-02 0. -1.
         -2   -1    0    0    0  501 -0.00000000000E+00 -0.00000000000E+00 -0.76646313839E+03  0.76646313839E+03  0.25500000000E-02 0.  1.
    8880023    1    1    2    0    0 -0.17442202529E+03 -0.76451492462E+01  0.14462532979E+03  0.69656886486E+03  0.65864270000E+03 0. -1.
    8880022    1    1    2    0    0  0.17442202529E+03  0.76451492462E+01 -0.46303260837E+03  0.51795013335E+03  0.15294330000E+03 0.  0.
<mgrwt>
<rscale>  0 0.52055681E+03</rscale>
<asrwt>0</asrwt>
<pdfrwt beam="1">  1        2 0.68931671E-01 0.68138953E+03</pdfrwt>
<pdfrwt beam="2">  1       -2 0.11791741E+00 0.68138953E+03</pdfrwt>
<totfact> 0.39409659E+01</totfact>
</mgrwt>
</event>
<event>
 4    2  0.3171963E-007  0.9822799E+03  0.7818608E-02  0.9405117E-01
          2   -1    0    0  501    0  0.00000000000E+00  0.00000000000E+00  0.97470633064E+03  0.97470633065E+03  0.25500000000E-02 0. -1.
         -2   -1    0    0    0  501 -0.00000000000E+00 -0.00000000000E+00 -0.84463393021E+03  0.84463393021E+03  0.25500000000E-02 0.  1.
    8880023    1    1    2    0    0  0.37670993102E+03  0.62382140105E+03  0.35024413550E+03  0.10428540997E+04  0.65864270000E+03 0.  0.
    8880022    1    1    2    0    0 -0.37670993102E+03 -0.62382140105E+03 -0.22017173506E+03  0.77648616116E+03  0.15294330000E+03 0.  0.
<mgrwt>
<rscale>  0 0.91655754E+03</rscale>
<asrwt>0</asrwt>
<pdfrwt beam="1">  1        2 0.14995482E+00 0.98227986E+03</pdfrwt>
<pdfrwt beam="2">  1       -2 0.12994368E+00 0.98227986E+03</pdfrwt>
<totfact> 0.11299573E+01</totfact>
</mgrwt>
</event>
<event>
 4    2  0.3171963E-007  0.7008105E+03  0.7818608E-02  0.9993855E-01
         -2   -1    0    0    0  501 -0.00000000000E+00  0.00000000000E+00  0.12680611644E+04  0.12680611644E+04  0.25500000000E-02 0.  1.
          2   -1    0    0  501    0  0.00000000000E+00 -0.00000000000E+00 -0.35940234627E+03  0.35940234628E+03  0.25500000000E-02 0. -1.
    8880023    1    1    2    0    0 -0.20274326741E+03  0.12735889149E+03  0.27187103943E+02  0.70133762526E+03  0.65864270000E+03 0.  0.
    8880022    1    1    2    0    0  0.20274326741E+03 -0.12735889149E+03  0.88147171424E+03  0.92612588547E+03  0.15294330000E+03 0.  0.
<mgrwt>
<rscale>  0 0.55920483E+03</rscale>
<asrwt>0</asrwt>
<pdfrwt beam="1">  1        2 0.55292668E-01 0.70081048E+03</pdfrwt>
<pdfrwt beam="2">  1       -2 0.19508633E+00 0.70081048E+03</pdfrwt>
<totfact> 0.13144031E+01</totfact>
</mgrwt>
</event>
<event>
 4    2  0.3171963E-007  0.7364880E+03  0.7818608E-02  0.9870298E-01
          2   -1    0    0  501    0  0.00000000000E+00  0.00000000000E+00  0.13475206856E+04  0.13475206856E+04  0.25500000000E-02 0. -1.
         -2   -1    0    0    0  501 -0.00000000000E+00 -0.00000000000E+00 -0.37652448622E+03  0.37652448623E+03  0.25500000000E-02 0.  1.
    8880023    1    1    2    0    0 -0.46625160728E+02 -0.32623693013E+03  0.11124628309E+04  0.13341619828E+04  0.65864270000E+03 0.  0.
    8880022    1    1    2    0    0  0.46625160728E+02  0.32623693013E+03 -0.14146663150E+03  0.38988318896E+03  0.15294330000E+03 0.  0.
<mgrwt>
<rscale>  0 0.61722629E+03</rscale>
<asrwt>0</asrwt>
<pdfrwt beam="1">  1        2 0.20731088E+00 0.73648805E+03</pdfrwt>
<pdfrwt beam="2">  1       -2 0.57926844E-01 0.73648805E+03</pdfrwt>
<totfact> 0.44196554E+01</totfact>
</mgrwt>
</event>
<event>
 4    2  0.3171963E-007  0.9192961E+03  0.7818608E-02  0.9495739E-01
          2   -1    0    0  501    0  0.00000000000E+00  0.00000000000E+00  0.77538678441E+03  0.77538678441E+03  0.25500000000E-02 0. -1.
         -2   -1    0    0    0  501 -0.00000000000E+00 -0.00000000000E+00 -0.93894856836E+03  0.93894856836E+03  0.25500000000E-02 0.  1.
    8880023    1    1    2    0    0 -0.55954929383E+02 -0.63887722885E+03  0.22849347076E+03  0.94726687903E+03  0.65864270000E+03 0. -1.
    8880022    1    1    2    0    0  0.55954929383E+02  0.63887722885E+03 -0.39205525471E+03  0.76706847375E+03  0.15294330000E+03 0. -1.
<mgrwt>
<rscale>  0 0.84598683E+03</rscale>
<asrwt>0</asrwt>
<pdfrwt beam="1">  1        2 0.11929027E+00 0.91929608E+03</pdfrwt>
<pdfrwt beam="2">  1       -2 0.14445363E+00 0.91929608E+03</pdfrwt>
<totfact> 0.11869756E+01</totfact>
</mgrwt>
</event>
<event>
 4    2  0.3171963E-007  0.7281108E+03  0.7818608E-02  0.9896040E-01
          2   -1    0    0  501    0  0.00000000000E+00  0.00000000000E+00  0.14526122319E+04  0.14526122319E+04  0.25500000000E-02 0. -1.
         -2   -1    0    0    0  501 -0.00000000000E+00 -0.00000000000E+00 -0.35324409392E+03  0.35324409393E+03  0.25500000000E-02 0.  1.
    8880023    1    1    2    0    0  0.23592728297E+03  0.20167672784E+03  0.12354492549E+04  0.14340433233E+04  0.65864270000E+03 0. -1.
    8880022    1    1    2    0    0 -0.23592728297E+03 -0.20167672784E+03 -0.13608111697E+03  0.37181300248E+03  0.15294330000E+03 0.  0.
<mgrwt>
<rscale>  0 0.60453585E+03</rscale>
<asrwt>0</asrwt>
<pdfrwt beam="1">  1        2 0.22347880E+00 0.72811084E+03</pdfrwt>
<pdfrwt beam="2">  1       -2 0.54345247E-01 0.72811084E+03</pdfrwt>
<totfact> 0.44068702E+01</totfact>
</mgrwt>
</event>
<event>
 4    2  0.3171963E-007  0.9324609E+03  0.7818608E-02  0.9475811E-01
         -2   -1    0    0    0  501 -0.00000000000E+00  0.00000000000E+00  0.45044401221E+03  0.45044401222E+03  0.25500000000E-02 0.  1.
          2   -1    0    0  501    0  0.00000000000E+00 -0.00000000000E+00 -0.22798591568E+04  0.22798591568E+04  0.25500000000E-02 0. -1.
    8880023    1    1    2    0    0  0.18404057165E+03  0.63387875483E+03 -0.18287532715E+04  0.20527595919E+04  0.65864270000E+03 0. -1.
    8880022    1    1    2    0    0 -0.18404057165E+03 -0.63387875483E+03 -0.66187311183E+00  0.67754357714E+03  0.15294330000E+03 0.  0.
<mgrwt>
<rscale>  0 0.86090899E+03</rscale>
<asrwt>0</asrwt>
<pdfrwt beam="1">  1        2 0.35074755E+00 0.93246095E+03</pdfrwt>
<pdfrwt beam="2">  1       -2 0.69299080E-01 0.93246095E+03</pdfrwt>
<totfact> 0.89831463E+00</totfact>
</mgrwt>
</event>
<event>
 4    2  0.3171963E-007  0.7774505E+03  0.7818608E-02  0.9761860E-01
         -2   -1    0    0    0  501 -0.00000000000E+00  0.00000000000E+00  0.11357895004E+04  0.11357895004E+04  0.25500000000E-02 0.  1.
          2   -1    0    0  501    0  0.00000000000E+00 -0.00000000000E+00 -0.17294339363E+04  0.17294339363E+04  0.25500000000E-02 0. -1.
    8880023    1    1    2    0    0  0.23395646058E+03  0.34041665029E+03 -0.15932835588E+04  0.17728456860E+04  0.65864270000E+03 0. -1.
    8880022    1    1    2    0    0 -0.23395646058E+03 -0.34041665029E+03  0.99963912293E+03  0.10923777508E+04  0.15294330000E+03 0.  0.
<mgrwt>
<rscale>  0 0.67450132E+03</rscale>
<asrwt>0</asrwt>
<pdfrwt beam="1">  1        2 0.26606676E+00 0.77745053E+03</pdfrwt>
<pdfrwt beam="2">  1       -2 0.17473685E+00 0.77745053E+03</pdfrwt>
<totfact> 0.19170695E+00</totfact>
</mgrwt>
</event>
<event>
 4    2  0.3171963E-007  0.7311671E+03  0.7818608E-02  0.9886466E-01
         -2   -1    0    0    0  501 -0.00000000000E+00  0.00000000000E+00  0.14882945318E+04  0.14882945318E+04  0.25500000000E-02 0.  1.
          2   -1    0    0  501    0  0.00000000000E+00 -0.00000000000E+00 -0.11584836845E+04  0.11584836845E+04  0.25500000000E-02 0. -1.
    8880023    1    1    2    0    0  0.41647406915E+02 -0.31473893638E+03 -0.10181640281E+04  0.12535004184E+04  0.65864270000E+03 0. -1.
    8880022    1    1    2    0    0 -0.41647406915E+02  0.31473893638E+03  0.13479748754E+04  0.13932777980E+04  0.15294330000E+03 0.  0.
<mgrwt>
<rscale>  0 0.60921682E+03</rscale>
<asrwt>0</asrwt>
<pdfrwt beam="1">  1        2 0.17822826E+00 0.73116709E+03</pdfrwt>
<pdfrwt beam="2">  1       -2 0.22896839E+00 0.73116709E+03</pdfrwt>
<totfact> 0.18021454E+00</totfact>
</mgrwt>
</event>
<event>
 4    2  0.3171963E-007  0.8832865E+03  0.7818608E-02  0.9553413E-01
          2   -1    0    0  501    0  0.00000000000E+00  0.00000000000E+00  0.24992628406E+04  0.24992628406E+04  0.25500000000E-02 0. -1.
         -2   -1    0    0    0  501 -0.00000000000E+00 -0.00000000000E+00 -0.77030336643E+03  0.77030336644E+03  0.25500000000E-02 0.  1.
    8880023    1    1    2    0    0 -0.14360116011E+03 -0.57075691396E+03  0.22823844917E+04  0.24473401730E+04  0.65864270000E+03 0.  0.
    8880022    1    1    2    0    0  0.14360116011E+03  0.57075691396E+03 -0.55342501755E+03  0.82222603406E+03  0.15294330000E+03 0.  0.
<mgrwt>
<rscale>  0 0.80457878E+03</rscale>
<asrwt>0</asrwt>
<pdfrwt beam="1">  1        2 0.38450197E+00 0.88328645E+03</pdfrwt>
<pdfrwt beam="2">  1       -2 0.11850821E+00 0.88328645E+03</pdfrwt>
<totfact> 0.19576339E+00</totfact>
</mgrwt>
</event>
<event>
 4    2  0.3171963E-007  0.1473064E+04  0.7818608E-02  0.8928894E-01
          2   -1    0    0  501    0  0.00000000000E+00  0.00000000000E+00  0.31563150663E+04  0.31563150663E+04  0.25500000000E-02 0. -1.
         -2   -1    0    0    0  501 -0.00000000000E+00 -0.00000000000E+00 -0.82492852697E+03  0.82492852698E+03  0.25500000000E-02 0.  1.
    8880023    1    1    2    0    0 -0.11987112694E+04  0.54698961048E+03  0.22009104327E+04  0.26483812566E+04  0.65864270000E+03 0.  0.
    8880022    1    1    2    0    0  0.11987112694E+04 -0.54698961048E+03  0.13047610667E+03  0.13328623367E+04  0.15294330000E+03 0.  0.
<mgrwt>
<rscale>  0 0.14349598E+04</rscale>
<asrwt>0</asrwt>
<pdfrwt beam="1">  1        2 0.48558695E+00 0.14730637E+04</pdfrwt>
<pdfrwt beam="2">  1       -2 0.12691208E+00 0.14730637E+04</pdfrwt>
<totfact> 0.61066596E-01</totfact>
</mgrwt>
</event>
<event>
 4    2  0.3171963E-007  0.7579034E+03  0.7818608E-02  0.9810566E-01
          2   -1    0    0  501    0  0.00000000000E+00  0.00000000000E+00  0.91366365559E+03  0.91366365559E+03  0.25500000000E-02 0. -1.
         -2   -1    0    0    0  501 -0.00000000000E+00 -0.00000000000E+00 -0.62378889741E+03  0.62378889741E+03  0.25500000000E-02 0.  1.
    8880023    1    1    2    0    0 -0.26326834232E+03 -0.26701530658E+03  0.64776507154E+03  0.99700410641E+03  0.65864270000E+03 0. -1.
    8880022    1    1    2    0    0  0.26326834232E+03  0.26701530658E+03 -0.35789031336E+03  0.54044844660E+03  0.15294330000E+03 0.  0.
<mgrwt>
<rscale>  0 0.64798592E+03</rscale>
<asrwt>0</asrwt>
<pdfrwt beam="1">  1        2 0.14056364E+00 0.75790342E+03</pdfrwt>
<pdfrwt beam="2">  1       -2 0.95967523E-01 0.75790342E+03</pdfrwt>
<totfact> 0.26506665E+01</totfact>
</mgrwt>
</event>
<event>
 4    2  0.3171963E-007  0.7366893E+03  0.7818608E-02  0.9869698E-01
          2   -1    0    0  501    0  0.00000000000E+00  0.00000000000E+00  0.10964435652E+04  0.10964435652E+04  0.25500000000E-02 0. -1.
         -2   -1    0    0    0  501 -0.00000000000E+00 -0.00000000000E+00 -0.60470041837E+03  0.60470041838E+03  0.25500000000E-02 0.  1.
    8880023    1    1    2    0    0 -0.31439715345E+03 -0.10027648340E+03  0.89426872913E+03  0.11586318265E+04  0.65864270000E+03 0.  0.
    8880022    1    1    2    0    0  0.31439715345E+03  0.10027648340E+03 -0.40252558227E+03  0.54251215711E+03  0.15294330000E+03 0.  0.
<mgrwt>
<rscale>  0 0.61752596E+03</rscale>
<asrwt>0</asrwt>
<pdfrwt beam="1">  1        2 0.16868362E+00 0.73668932E+03</pdfrwt>
<pdfrwt beam="2">  1       -2 0.93030835E-01 0.73668932E+03</pdfrwt>
<totfact> 0.21838784E+01</totfact>
</mgrwt>
</event>
<event>
 4    2  0.3171963E-007  0.8114865E+03  0.7818608E-02  0.9686489E-01
         -2   -1    0    0    0  501 -0.00000000000E+00  0.00000000000E+00  0.20404722802E+04  0.20404722802E+04  0.25500000000E-02 0.  1.
          2   -1    0    0  501    0  0.00000000000E+00 -0.00000000000E+00 -0.85420306894E+03  0.85420306895E+03  0.25500000000E-02 0. -1.
    8880023    1    1    2    0    0 -0.43586772838E+03 -0.18633161531E+03 -0.61984676026E+03  0.10211367979E+04  0.65864270000E+03 0.  0.
    8880022    1    1    2    0    0  0.43586772838E+03  0.18633161531E+03  0.18061159715E+04  0.18735385513E+04  0.15294330000E+03 0.  0.
<mgrwt>
<rscale>  0 0.71826967E+03</rscale>
<asrwt>0</asrwt>
<pdfrwt beam="1">  1        2 0.13141586E+00 0.81148651E+03</pdfrwt>
<pdfrwt beam="2">  1       -2 0.31391881E+00 0.81148651E+03</pdfrwt>
<totfact> 0.85304565E-01</totfact>
</mgrwt>
</event>
<event>
 4    2  0.3171963E-007  0.9238627E+03  0.7818608E-02  0.9488762E-01
         -2   -1    0    0    0  501 -0.00000000000E+00  0.00000000000E+00  0.12747266830E+04  0.12747266830E+04  0.25500000000E-02 0.  1.
          2   -1    0    0  501    0  0.00000000000E+00 -0.00000000000E+00 -0.68338096044E+03  0.68338096044E+03  0.25500000000E-02 0. -1.
    8880023    1    1    2    0    0  0.64287794950E+03  0.80124946987E+02 -0.17790038073E+03  0.94083516984E+03  0.65864270000E+03 0.  0.
    8880022    1    1    2    0    0 -0.64287794950E+03 -0.80124946987E+02  0.76924610329E+03  0.10172724736E+04  0.15294330000E+03 0.  0.
<mgrwt>
<rscale>  0 0.85117478E+03</rscale>
<asrwt>0</asrwt>
<pdfrwt beam="1">  1        2 0.10513553E+00 0.92386269E+03</pdfrwt>
<pdfrwt beam="2">  1       -2 0.19611180E+00 0.92386269E+03</pdfrwt>
<totfact> 0.59637020E+00</totfact>
</mgrwt>
</event>
<event>
 4    2  0.3171963E-007  0.8595320E+03  0.7818608E-02  0.9594397E-01
          2   -1    0    0  501    0  0.00000000000E+00  0.00000000000E+00  0.26460619171E+04  0.26460619171E+04  0.25500000000E-02 0. -1.
         -2   -1    0    0    0  501 -0.00000000000E+00 -0.00000000000E+00 -0.55049913197E+03  0.55049913197E+03  0.25500000000E-02 0.  1.
    8880023    1    1    2    0    0 -0.24277357475E+03  0.49603021943E+03  0.23988632235E+04  0.25482032805E+04  0.65864270000E+03 0. -1.
    8880022    1    1    2    0    0  0.24277357475E+03 -0.49603021943E+03 -0.30330043838E+03  0.64835776861E+03  0.15294330000E+03 0.  0.
<mgrwt>
<rscale>  0 0.77668167E+03</rscale>
<asrwt>0</asrwt>
<pdfrwt beam="1">  1        2 0.40708644E+00 0.85953196E+03</pdfrwt>
<pdfrwt beam="2">  1       -2 0.84692176E-01 0.85953196E+03</pdfrwt>
<totfact> 0.35929918E+00</totfact>
</mgrwt>
</event>
<event>
 4    2  0.3171963E-007  0.7142013E+03  0.7818608E-02  0.9942718E-01
         -2   -1    0    0    0  501 -0.00000000000E+00  0.00000000000E+00  0.30580539385E+03  0.30580539386E+03  0.25500000000E-02 0.  1.
          2   -1    0    0  501    0  0.00000000000E+00 -0.00000000000E+00 -0.22501323794E+04  0.22501323794E+04  0.25500000000E-02 0. -1.
    8880023    1    1    2    0    0  0.15573870391E+03  0.22807625803E+03 -0.20897001052E+04  0.22083772457E+04  0.65864270000E+03 0. -1.
    8880022    1    1    2    0    0 -0.15573870391E+03 -0.22807625803E+03  0.14537311966E+03  0.34756052755E+03  0.15294330000E+03 0.  0.
<mgrwt>
<rscale>  0 0.58234897E+03</rscale>
<asrwt>0</asrwt>
<pdfrwt beam="1">  1        2 0.34617420E+00 0.71420132E+03</pdfrwt>
<pdfrwt beam="2">  1       -2 0.47046985E-01 0.71420132E+03</pdfrwt>
<totfact> 0.21649271E+01</totfact>
</mgrwt>
</event>
<event>
 4    2  0.3171963E-007  0.7387976E+03  0.7818608E-02  0.9863464E-01
         -2   -1    0    0    0  501 -0.00000000000E+00  0.00000000000E+00  0.45628256243E+03  0.45628256243E+03  0.25500000000E-02 0.  1.
          2   -1    0    0  501    0  0.00000000000E+00 -0.00000000000E+00 -0.13514297607E+04  0.13514297607E+04  0.25500000000E-02 0. -1.
    8880023    1    1    2    0    0  0.62467340137E+02 -0.32880008396E+03 -0.11451926182E+04  0.13628235406E+04  0.65864270000E+03 0.  0.
    8880022    1    1    2    0    0 -0.62467340137E+02  0.32880008396E+03  0.25004541992E+03  0.44488878254E+03  0.15294330000E+03 0.  0.
<mgrwt>
<rscale>  0 0.62065143E+03</rscale>
<asrwt>0</asrwt>
<pdfrwt beam="1">  1        2 0.20791227E+00 0.73879758E+03</pdfrwt>
<pdfrwt beam="2">  1       -2 0.70197318E-01 0.73879758E+03</pdfrwt>
<totfact> 0.29144642E+01</totfact>
</mgrwt>
</event>
<event>
 4    2  0.3171963E-007  0.7998074E+03  0.7818608E-02  0.9711213E-01
          2   -1    0    0  501    0  0.00000000000E+00  0.00000000000E+00  0.10223452976E+04  0.10223452976E+04  0.25500000000E-02 0. -1.
         -2   -1    0    0    0  501 -0.00000000000E+00 -0.00000000000E+00 -0.96241965302E+03  0.96241965303E+03  0.25500000000E-02 0.  1.
    8880023    1    1    2    0    0  0.13354254804E+03  0.43364504069E+03  0.78185532539E+03  0.11184764591E+04  0.65864270000E+03 0. -1.
    8880022    1    1    2    0    0 -0.13354254804E+03 -0.43364504069E+03 -0.72192968083E+03  0.86628849151E+03  0.15294330000E+03 0.  0.
<mgrwt>
<rscale>  0 0.70353100E+03</rscale>
<asrwt>0</asrwt>
<pdfrwt beam="1">  1        2 0.15728389E+00 0.79980738E+03</pdfrwt>
<pdfrwt beam="2">  1       -2 0.14806456E+00 0.79980738E+03</pdfrwt>
<totfact> 0.76518068E+00</totfact>
</mgrwt>
</event>
<event>
 4    2  0.3171963E-007  0.8775535E+03  0.7818608E-02  0.9563071E-01
         -2   -1    0    0    0  501 -0.00000000000E+00  0.00000000000E+00  0.54830253562E+03  0.54830253562E+03  0.25500000000E-02 0.  1.
          2   -1    0    0  501    0  0.00000000000E+00 -0.00000000000E+00 -0.16564581262E+04  0.16564581262E+04  0.25500000000E-02 0. -1.
    8880023    1    1    2    0    0 -0.19389935632E+03 -0.54652811760E+03 -0.13058148102E+04  0.15732935100E+04  0.65864270000E+03 0. -1.
    8880022    1    1    2    0    0  0.19389935632E+03  0.54652811760E+03  0.19765921965E+03  0.63146715183E+03  0.15294330000E+03 0.  0.
<mgrwt>
<rscale>  0 0.79789360E+03</rscale>
<asrwt>0</asrwt>
<pdfrwt beam="1">  1        2 0.25483971E+00 0.87755350E+03</pdfrwt>
<pdfrwt beam="2">  1       -2 0.84354237E-01 0.87755350E+03</pdfrwt>
<totfact> 0.12856594E+01</totfact>
</mgrwt>
</event>
<event>
 4    2  0.3171963E-007  0.8082956E+03  0.7818608E-02  0.9693138E-01
          2   -1    0    0  501    0  0.00000000000E+00  0.00000000000E+00  0.10323269585E+04  0.10323269585E+04  0.25500000000E-02 0. -1.
         -2   -1    0    0    0  501 -0.00000000000E+00 -0.00000000000E+00 -0.57751726943E+03  0.57751726944E+03  0.25500000000E-02 0.  1.
    8880023    1    1    2    0    0 -0.30643729541E+03 -0.35443994413E+03  0.69090754567E+03  0.10633414000E+04  0.65864270000E+03 0. -1.
    8880022    1    1    2    0    0  0.30643729541E+03  0.35443994413E+03 -0.23609785663E+03  0.54650282792E+03  0.15294330000E+03 0.  1.
<mgrwt>
<rscale>  0 0.71426810E+03</rscale>
<asrwt>0</asrwt>
<pdfrwt beam="1">  1        2 0.15881953E+00 0.80829555E+03</pdfrwt>
<pdfrwt beam="2">  1       -2 0.88848812E-01 0.80829555E+03</pdfrwt>
<totfact> 0.26433772E+01</totfact>
</mgrwt>
</event>
<event>
 4    2  0.3171963E-007  0.6982652E+03  0.7818608E-02  0.1000448E+00
          2   -1    0    0  501    0  0.00000000000E+00  0.00000000000E+00  0.78084171219E+03  0.78084171219E+03  0.25500000000E-02 0. -1.
         -2   -1    0    0    0  501 -0.00000000000E+00 -0.00000000000E+00 -0.59190369431E+03  0.59190369431E+03  0.25500000000E-02 0.  1.
    8880023    1    1    2    0    0 -0.19074037635E+03  0.13184163632E+03  0.56987292585E+03  0.90129321873E+03  0.65864270000E+03 0. -1.
    8880022    1    1    2    0    0  0.19074037635E+03 -0.13184163632E+03 -0.38093490797E+03  0.47145218778E+03  0.15294330000E+03 0.  0.
<mgrwt>
<rscale>  0 0.55454444E+03</rscale>
<asrwt>0</asrwt>
<pdfrwt beam="1">  1        2 0.12012949E+00 0.69826522E+03</pdfrwt>
<pdfrwt beam="2">  1       -2 0.91062107E-01 0.69826522E+03</pdfrwt>
<totfact> 0.37259380E+01</totfact>
</mgrwt>
</event>
<event>
 4    2  0.3171963E-007  0.1066805E+04  0.7818608E-02  0.9298948E-01
          2   -1    0    0  501    0  0.00000000000E+00  0.00000000000E+00  0.20379868013E+04  0.20379868013E+04  0.25500000000E-02 0. -1.
         -2   -1    0    0    0  501 -0.00000000000E+00 -0.00000000000E+00 -0.59310156723E+03  0.59310156724E+03  0.25500000000E-02 0.  1.
    8880023    1    1    2    0    0  0.83832085680E+03 -0.38469651373E+02  0.14220939539E+04  0.17777579118E+04  0.65864270000E+03 0.  0.
    8880022    1    1    2    0    0 -0.83832085680E+03  0.38469651373E+02  0.22791280240E+02  0.85333045680E+03  0.15294330000E+03 0.  0.
<mgrwt>
<rscale>  0 0.10087980E+04</rscale>
<asrwt>0</asrwt>
<pdfrwt beam="1">  1        2 0.31353643E+00 0.10668046E+04</pdfrwt>
<pdfrwt beam="2">  1       -2 0.91246396E-01 0.10668046E+04</pdfrwt>
<totfact> 0.64757369E+00</totfact>
</mgrwt>
</event>
<event>
 4    2  0.3171963E-007  0.6664257E+03  0.7818608E-02  0.1018366E+00
         -2   -1    0    0    0  501 -0.00000000000E+00  0.00000000000E+00  0.21312147662E+04  0.21312147662E+04  0.25500000000E-02 0.  1.
          2   -1    0    0  501    0  0.00000000000E+00 -0.00000000000E+00 -0.94417715841E+02  0.94417715875E+02  0.25500000000E-02 0. -1.
    8880023    1    1    2    0    0  0.20887325954E+02 -0.99381757038E+02  0.12376362873E+04  0.14056552920E+04  0.65864270000E+03 0.  0.
    8880022    1    1    2    0    0 -0.20887325954E+02  0.99381757038E+02  0.79916076312E+03  0.81997719014E+03  0.15294330000E+03 0.  0.
<mgrwt>
<rscale>  0 0.48280867E+03</rscale>
<asrwt>0</asrwt>
<pdfrwt beam="1">  1        2 0.14525804E-01 0.66642570E+03</pdfrwt>
<pdfrwt beam="2">  1       -2 0.32787916E+00 0.66642570E+03</pdfrwt>
<totfact> 0.94333534E+00</totfact>
</mgrwt>
</event>
<event>
 4    2  0.3171963E-007  0.6883323E+03  0.7818608E-02  0.1004955E+00
          2   -1    0    0  501    0  0.00000000000E+00  0.00000000000E+00  0.14274667637E+03  0.14274667639E+03  0.25500000000E-02 0. -1.
         -2   -1    0    0    0  501 -0.00000000000E+00 -0.00000000000E+00 -0.16383776822E+04  0.16383776822E+04  0.25500000000E-02 0.  1.
    8880023    1    1    2    0    0 -0.92252882715E+02  0.17742769113E+03 -0.88904451930E+03  0.11243671747E+04  0.65864270000E+03 0.  0.
    8880022    1    1    2    0    0  0.92252882715E+02 -0.17742769113E+03 -0.60658648648E+03  0.65675718386E+03  0.15294330000E+03 0.  0.
<mgrwt>
<rscale>  0 0.53529733E+03</rscale>
<asrwt>0</asrwt>
<pdfrwt beam="1">  1        2 0.21961028E-01 0.68833232E+03</pdfrwt>
<pdfrwt beam="2">  1       -2 0.25205809E+00 0.68833232E+03</pdfrwt>
<totfact> 0.16414760E+01</totfact>
</mgrwt>
</event>
<event>
 4    2  0.3245397E-007  0.6813239E+03  0.7818608E-02  0.1008584E+00
         -2   -1    0    0    0  501 -0.00000000000E+00  0.00000000000E+00  0.60054393868E+03  0.60054393869E+03  0.25500000000E-02 0.  1.
          2   -1    0    0  501    0  0.00000000000E+00 -0.00000000000E+00 -0.25604243118E+04  0.25604243118E+04  0.25500000000E-02 0. -1.
    8880023    1    1    2    0    0  0.14358162910E+03 -0.98875267433E+02 -0.24904302330E+04  0.25819459628E+04  0.65864270000E+03 0. -1.
    8880022    1    1    2    0    0 -0.14358162910E+03  0.98875267433E+02  0.53054985996E+03  0.57902228769E+03  0.15294330000E+03 0.  0.
<mgrwt>
<rscale>  0 0.52041103E+03</rscale>
<asrwt>0</asrwt>
<pdfrwt beam="1">  1        2 0.39391143E+00 0.68132386E+03</pdfrwt>
<pdfrwt beam="2">  1       -2 0.92391376E-01 0.68132386E+03</pdfrwt>
<totfact> 0.34052346E+00</totfact>
</mgrwt>
</event>
<event>
 4    2  0.3171963E-007  0.6896409E+03  0.7818608E-02  0.1004324E+00
         -2   -1    0    0    0  501 -0.00000000000E+00  0.00000000000E+00  0.10959775445E+04  0.10959775445E+04  0.25500000000E-02 0.  1.
          2   -1    0    0  501    0  0.00000000000E+00 -0.00000000000E+00 -0.90285203149E+03  0.90285203149E+03  0.25500000000E-02 0. -1.
    8880023    1    1    2    0    0 -0.20193103123E+03  0.31908779026E+02 -0.75169373872E+03  0.10201215588E+04  0.65864270000E+03 0. -1.
    8880022    1    1    2    0    0  0.20193103123E+03 -0.31908779026E+02  0.94481925172E+03  0.97870801723E+03  0.15294330000E+03 0.  0.
<mgrwt>
<rscale>  0 0.53794330E+03</rscale>
<asrwt>0</asrwt>
<pdfrwt beam="1">  1        2 0.13890031E+00 0.68964086E+03</pdfrwt>
<pdfrwt beam="2">  1       -2 0.16861193E+00 0.68964086E+03</pdfrwt>
<totfact> 0.65378682E+00</totfact>
</mgrwt>
</event>
<event>
 4    2  0.3654670E-007  0.7507485E+03  0.7818608E-02  0.9829676E-01
         -2   -1    0    0    0  501 -0.00000000000E+00  0.00000000000E+00  0.13430290985E+04  0.13430290985E+04  0.25500000000E-02 0.  1.
          2   -1    0    0  501    0  0.00000000000E+00 -0.00000000000E+00 -0.12948220196E+04  0.12948220196E+04  0.25500000000E-02 0. -1.
    8880023    1    1    2    0    0 -0.11230638845E+03 -0.34234532777E+03 -0.11522208128E+04  0.13752221843E+04  0.65864270000E+03 0. -1.
    8880022    1    1    2    0    0  0.11230638845E+03  0.34234532777E+03  0.12004278917E+04  0.12626289338E+04  0.15294330000E+03 0.  0.
<mgrwt>
<rscale>  0 0.63794002E+03</rscale>
<asrwt>0</asrwt>
<pdfrwt beam="1">  1        2 0.19920339E+00 0.75074846E+03</pdfrwt>
<pdfrwt beam="2">  1       -2 0.20661986E+00 0.75074846E+03</pdfrwt>
<totfact> 0.20637456E+00</totfact>
</mgrwt>
</event>
<event>
 4    2  0.3171963E-007  0.6868096E+03  0.7818608E-02  0.1005707E+00
          2   -1    0    0  501    0  0.00000000000E+00  0.00000000000E+00  0.13989350285E+04  0.13989350285E+04  0.25500000000E-02 0. -1.
         -2   -1    0    0    0  501 -0.00000000000E+00 -0.00000000000E+00 -0.25414543876E+03  0.25414543877E+03  0.25500000000E-02 0.  1.
    8880023    1    1    2    0    0 -0.13816240156E+03 -0.13714371388E+03  0.12150591121E+04  0.13957349676E+04  0.65864270000E+03 0. -1.
    8880022    1    1    2    0    0  0.13816240156E+03  0.13714371388E+03 -0.70269522338E+02  0.25734549976E+03  0.15294330000E+03 0.  1.
<mgrwt>
<rscale>  0 0.53216953E+03</rscale>
<asrwt>0</asrwt>
<pdfrwt beam="1">  1        2 0.21522078E+00 0.68680962E+03</pdfrwt>
<pdfrwt beam="2">  1       -2 0.39099297E-01 0.68680962E+03</pdfrwt>
<totfact> 0.91722485E+01</totfact>
</mgrwt>
</event>
<event>
 4    2  0.3171963E-007  0.7125885E+03  0.7818608E-02  0.9948511E-01
         -2   -1    0    0    0  501 -0.00000000000E+00  0.00000000000E+00  0.72411621979E+03  0.72411621979E+03  0.25500000000E-02 0.  1.
          2   -1    0    0  501    0  0.00000000000E+00 -0.00000000000E+00 -0.40637792569E+03  0.40637792570E+03  0.25500000000E-02 0. -1.
    8880023    1    1    2    0    0  0.27183242772E+03 -0.89062028607E+01  0.41567558374E+02  0.71379987208E+03  0.65864270000E+03 0. -1.
    8880022    1    1    2    0    0 -0.27183242772E+03  0.89062028607E+01  0.27617073573E+03  0.41669427341E+03  0.15294330000E+03 0.  0.
<mgrwt>
<rscale>  0 0.57966734E+03</rscale>
<asrwt>0</asrwt>
<pdfrwt beam="1">  1        2 0.62519681E-01 0.71258852E+03</pdfrwt>
<pdfrwt beam="2">  1       -2 0.11140250E+00 0.71258852E+03</pdfrwt>
<totfact> 0.50444920E+01</totfact>
</mgrwt>
</event>
<event>
 4    2  0.7231697E-007  0.9950054E+03  0.7818608E-02  0.9388121E-01
          2   -1    0    0  501    0  0.00000000000E+00  0.00000000000E+00  0.17536552484E+04  0.17536552484E+04  0.25500000000E-02 0. -1.
         -2   -1    0    0    0  501 -0.00000000000E+00 -0.00000000000E+00 -0.25699060430E+04  0.25699060430E+04  0.25500000000E-02 0.  1.
    8880023    1    1    2    0    0  0.11153164629E+03  0.73741864942E+03  0.15477506526E+04  0.18399912667E+04  0.65864270000E+03 0.  0.
    8880022    1    1    2    0    0 -0.11153164629E+03 -0.73741864942E+03 -0.23640014472E+04  0.24835700247E+04  0.15294330000E+03 0.  0.
<mgrwt>
<rscale>  0 0.93059721E+03</rscale>
<asrwt>0</asrwt>
<pdfrwt beam="1">  1        2 0.26979312E+00 0.99500542E+03</pdfrwt>
<pdfrwt beam="2">  1       -2 0.39537016E+00 0.99500542E+03</pdfrwt>
<totfact> 0.74409122E-02</totfact>
</mgrwt>
</event>
<event>
 4    2  0.3171963E-007  0.8632437E+03  0.7818608E-02  0.9587819E-01
          2   -1    0    0  501    0  0.00000000000E+00  0.00000000000E+00  0.94497694565E+03  0.94497694565E+03  0.25500000000E-02 0. -1.
         -2   -1    0    0    0  501 -0.00000000000E+00 -0.00000000000E+00 -0.80555704735E+03  0.80555704736E+03  0.25500000000E-02 0.  1.
    8880023    1    1    2    0    0 -0.55192790057E+03  0.82189252819E+02  0.56550389844E+03  0.10319807877E+04  0.65864270000E+03 0. -1.
    8880022    1    1    2    0    0  0.55192790057E+03 -0.82189252819E+02 -0.42608400015E+03  0.71855320534E+03  0.15294330000E+03 0.  0.
<mgrwt>
<rscale>  0 0.78107649E+03</rscale>
<asrwt>0</asrwt>
<pdfrwt beam="1">  1        2 0.14538107E+00 0.86324370E+03</pdfrwt>
<pdfrwt beam="2">  1       -2 0.12393185E+00 0.86324370E+03</pdfrwt>
<totfact> 0.13464908E+01</totfact>
</mgrwt>
</event>
<event>
 4    2  0.3171963E-007  0.6770501E+03  0.7818608E-02  0.1011044E+00
         -2   -1    0    0    0  501 -0.00000000000E+00  0.00000000000E+00  0.21704653860E+04  0.21704653860E+04  0.25500000000E-02 0.  1.
          2   -1    0    0  501    0  0.00000000000E+00 -0.00000000000E+00 -0.35237009096E+03  0.35237009097E+03  0.25500000000E-02 0. -1.
    8880023    1    1    2    0    0 -0.11897437402E+03 -0.10213560756E+03 -0.14491169790E+02  0.67720512717E+03  0.65864270000E+03 0. -1.
    8880022    1    1    2    0    0  0.11897437402E+03  0.10213560756E+03  0.18325864648E+04  0.18456303498E+04  0.15294330000E+03 0.  0.
<mgrwt>
<rscale>  0 0.51061800E+03</rscale>
<asrwt>0</asrwt>
<pdfrwt beam="1">  1        2 0.54210784E-01 0.67705006E+03</pdfrwt>
<pdfrwt beam="2">  1       -2 0.33391774E+00 0.67705006E+03</pdfrwt>
<totfact> 0.19107928E+00</totfact>
</mgrwt>
</event>
<event>
 4    2  0.3171963E-007  0.7361692E+03  0.7818608E-02  0.9871250E-01
          2   -1    0    0  501    0  0.00000000000E+00  0.00000000000E+00  0.18667982390E+04  0.18667982390E+04  0.25500000000E-02 0. -1.
         -2   -1    0    0    0  501 -0.00000000000E+00 -0.00000000000E+00 -0.19789876352E+03  0.19789876354E+03  0.25500000000E-02 0.  1.
    8880023    1    1    2    0    0  0.21965996272E+03 -0.24471301019E+03  0.14863724840E+04  0.16586887364E+04  0.65864270000E+03 0.  0.
    8880022    1    1    2    0    0 -0.21965996272E+03  0.24471301019E+03  0.18252699144E+03  0.40600826617E+03  0.15294330000E+03 0. -1.
<mgrwt>
<rscale>  0 0.61675113E+03</rscale>
<asrwt>0</asrwt>
<pdfrwt beam="1">  1        2 0.28719972E+00 0.73616925E+03</pdfrwt>
<pdfrwt beam="2">  1       -2 0.30445965E-01 0.73616925E+03</pdfrwt>
<totfact> 0.81092436E+01</totfact>
</mgrwt>
</event>
<event>
 4    2  0.3171963E-007  0.7753829E+03  0.7818608E-02  0.9766797E-01
         -2   -1    0    0    0  501 -0.00000000000E+00  0.00000000000E+00  0.15669204243E+03  0.15669204245E+03  0.25500000000E-02 0.  1.
          2   -1    0    0  501    0  0.00000000000E+00 -0.00000000000E+00 -0.25711786391E+04  0.25711786391E+04  0.25500000000E-02 0. -1.
    8880023    1    1    2    0    0 -0.54947015114E+02 -0.40544940857E+03 -0.19050838766E+04  0.20568332894E+04  0.65864270000E+03 0.  0.
    8880022    1    1    2    0    0  0.54947015114E+02  0.40544940857E+03 -0.50940272004E+03  0.67103739209E+03  0.15294330000E+03 0.  0.
<mgrwt>
<rscale>  0 0.67175277E+03</rscale>
<asrwt>0</asrwt>
<pdfrwt beam="1">  1        2 0.39556591E+00 0.77538288E+03</pdfrwt>
<pdfrwt beam="2">  1       -2 0.24106470E-01 0.77538288E+03</pdfrwt>
<totfact> 0.50330391E+01</totfact>
</mgrwt>
</event>
<event>
 4    2  0.3171963E-007  0.7399214E+03  0.7818608E-02  0.9860176E-01
         -2   -1    0    0    0  501 -0.00000000000E+00  0.00000000000E+00  0.26088083707E+03  0.26088083709E+03  0.25500000000E-02 0.  1.
          2   -1    0    0  501    0  0.00000000000E+00 -0.00000000000E+00 -0.12358551687E+04  0.12358551688E+04  0.25500000000E-02 0. -1.
    8880023    1    1    2    0    0  0.24121607788E+03  0.23555943718E+03 -0.79167855635E+03  0.10836228991E+04  0.65864270000E+03 0. -1.
    8880022    1    1    2    0    0 -0.24121607788E+03 -0.23555943718E+03 -0.18329577532E+03  0.41311310671E+03  0.15294330000E+03 0. -1.
<mgrwt>
<rscale>  0 0.62230751E+03</rscale>
<asrwt>0</asrwt>
<pdfrwt beam="1">  1        2 0.19013156E+00 0.73992138E+03</pdfrwt>
<pdfrwt beam="2">  1       -2 0.40135514E-01 0.73992138E+03</pdfrwt>
<totfact> 0.10762460E+02</totfact>
</mgrwt>
</event>
<event>
 4    2  0.3171963E-007  0.8522964E+03  0.7818608E-02  0.9607416E-01
         -2   -1    0    0    0  501 -0.00000000000E+00  0.00000000000E+00  0.13614526024E+03  0.13614526027E+03  0.25500000000E-02 0.  1.
          2   -1    0    0  501    0  0.00000000000E+00 -0.00000000000E+00 -0.44030608911E+04  0.44030608911E+04  0.25500000000E-02 0. -1.
    8880023    1    1    2    0    0 -0.38255041769E+02 -0.53956980492E+03 -0.34060187163E+04  0.35110358478E+04  0.65864270000E+03 0.  0.
    8880022    1    1    2    0    0  0.38255041769E+02  0.53956980492E+03 -0.86089691459E+03  0.10281703036E+04  0.15294330000E+03 0.  0.
<mgrwt>
<rscale>  0 0.76807263E+03</rscale>
<asrwt>0</asrwt>
<pdfrwt beam="1">  1        2 0.67739387E+00 0.85229644E+03</pdfrwt>
<pdfrwt beam="2">  1       -2 0.20945428E-01 0.85229644E+03</pdfrwt>
<totfact> 0.33039456E+00</totfact>
</mgrwt>
</event>
<event>
 4    2  0.3171963E-007  0.1263471E+04  0.7818608E-02  0.9097764E-01
         -2   -1    0    0    0  501 -0.00000000000E+00  0.00000000000E+00  0.81071457055E+03  0.81071457056E+03  0.25500000000E-02 0.  1.
          2   -1    0    0  501    0  0.00000000000E+00 -0.00000000000E+00 -0.18550201901E+04  0.18550201901E+04  0.25500000000E-02 0. -1.
    8880023    1    1    2    0    0 -0.93326473966E+03  0.53996934668E+03 -0.93387490495E+03  0.15711405138E+04  0.65864270000E+03 0. -1.
    8880022    1    1    2    0    0  0.93326473966E+03 -0.53996934668E+03 -0.11043071464E+03  0.10945942469E+04  0.15294330000E+03 0.  1.
<mgrwt>
<rscale>  0 0.12173964E+04</rscale>
<asrwt>0</asrwt>
<pdfrwt beam="1">  1        2 0.28538772E+00 0.12634715E+04</pdfrwt>
<pdfrwt beam="2">  1       -2 0.12472532E+00 0.12634715E+04</pdfrwt>
<totfact> 0.37572596E+00</totfact>
</mgrwt>
</event>
<event>
 4    2  0.3171963E-007  0.8896269E+03  0.7818608E-02  0.9542893E-01
          2   -1    0    0  501    0  0.00000000000E+00  0.00000000000E+00  0.10043220637E+04  0.10043220637E+04  0.25500000000E-02 0. -1.
         -2   -1    0    0    0  501 -0.00000000000E+00 -0.00000000000E+00 -0.10035410436E+04  0.10035410436E+04  0.25500000000E-02 0.  1.
    8880023    1    1    2    0    0 -0.14553005976E+03  0.58004039441E+03  0.65777120295E+03  0.11063900845E+04  0.65864270000E+03 0.  1.
    8880022    1    1    2    0    0  0.14553005976E+03 -0.58004039441E+03 -0.65699018282E+03  0.90147302277E+03  0.15294330000E+03 0.  1.
<mgrwt>
<rscale>  0 0.81194022E+03</rscale>
<asrwt>0</asrwt>
<pdfrwt beam="1">  1        2 0.15451109E+00 0.88962692E+03</pdfrwt>
<pdfrwt beam="2">  1       -2 0.15439093E+00 0.88962692E+03</pdfrwt>
<totfact> 0.69596169E+00</totfact>
</mgrwt>
</event>
<event>
 4    2  0.3171963E-007  0.6596940E+03  0.7818608E-02  0.1024472E+00
         -2   -1    0    0    0  501 -0.00000000000E+00  0.00000000000E+00  0.90506262742E+02  0.90506262778E+02  0.25500000000E-02 0.  1.
          2   -1    0    0  501    0  0.00000000000E+00 -0.00000000000E+00 -0.24533479327E+04  0.24533479327E+04  0.25500000000E-02 0. -1.
    8880023    1    1    2    0    0 -0.40970715506E+01 -0.37002607460E+02 -0.22636040731E+04  0.23577742863E+04  0.65864270000E+03 0. -1.
    8880022    1    1    2    0    0  0.40970715506E+01  0.37002607460E+02 -0.99237596772E+02  0.18607990913E+03  0.15294330000E+03 0.  0.
<mgrwt>
<rscale>  0 0.46106736E+03</rscale>
<asrwt>0</asrwt>
<pdfrwt beam="1">  1        2 0.37743809E+00 0.65969401E+03</pdfrwt>
<pdfrwt beam="2">  1       -2 0.13924042E-01 0.65969401E+03</pdfrwt>
<totfact> 0.15406548E+02</totfact>
</mgrwt>
</event>
<event>
 4    2  0.3171963E-007  0.7739930E+03  0.7818608E-02  0.9770142E-01
          2   -1    0    0  501    0  0.00000000000E+00  0.00000000000E+00  0.56950939919E+03  0.56950939919E+03  0.25500000000E-02 0. -1.
         -2   -1    0    0    0  501 -0.00000000000E+00 -0.00000000000E+00 -0.10978796925E+04  0.10978796925E+04  0.25500000000E-02 0.  1.
    8880023    1    1    2    0    0 -0.40552524519E+03 -0.28358027309E+02  0.21776518886E+03  0.80404401991E+03  0.65864270000E+03 0.  1.
    8880022    1    1    2    0    0  0.40552524519E+03  0.28358027309E+02 -0.74613548217E+03  0.86334507178E+03  0.15294330000E+03 0.  0.
<mgrwt>
<rscale>  0 0.66989829E+03</rscale>
<asrwt>0</asrwt>
<pdfrwt beam="1">  1        2 0.87616831E-01 0.77399296E+03</pdfrwt>
<pdfrwt beam="2">  1       -2 0.16890457E+00 0.77399296E+03</pdfrwt>
<totfact> 0.11613729E+01</totfact>
</mgrwt>
</event>
<event>
 4    2  0.3171963E-007  0.7271060E+03  0.7818608E-02  0.9899236E-01
         -2   -1    0    0    0  501 -0.00000000000E+00  0.00000000000E+00  0.42994421366E+03  0.42994421366E+03  0.25500000000E-02 0.  1.
          2   -1    0    0  501    0  0.00000000000E+00 -0.00000000000E+00 -0.67627090884E+03  0.67627090884E+03  0.25500000000E-02 0. -1.
    8880023    1    1    2    0    0  0.31922135455E+02  0.30635583185E+03 -0.10600539967E+03  0.73479267107E+03  0.65864270000E+03 0.  1.
    8880022    1    1    2    0    0 -0.31922135455E+02 -0.30635583185E+03 -0.14032129551E+03  0.37142245143E+03  0.15294330000E+03 0. -1.
<mgrwt>
<rscale>  0 0.60298308E+03</rscale>
<asrwt>0</asrwt>
<pdfrwt beam="1">  1        2 0.10404168E+00 0.72710599E+03</pdfrwt>
<pdfrwt beam="2">  1       -2 0.66145263E-01 0.72710599E+03</pdfrwt>
<totfact> 0.91182044E+01</totfact>
</mgrwt>
</event>
<event>
 4    2  0.3171963E-007  0.1060049E+04  0.7818608E-02  0.9306897E-01
          2   -1    0    0  501    0  0.00000000000E+00  0.00000000000E+00  0.26786879018E+04  0.26786879018E+04  0.25500000000E-02 0. -1.
         -2   -1    0    0    0  501 -0.00000000000E+00 -0.00000000000E+00 -0.82934805128E+03  0.82934805128E+03  0.25500000000E-02 0.  1.
    8880023    1    1    2    0    0 -0.24995014731E+02 -0.83022274440E+03  0.23131642171E+04  0.25444908052E+04  0.65864270000E+03 0. -1.
    8880022    1    1    2    0    0  0.24995014731E+02  0.83022274440E+03 -0.46382436656E+03  0.96354514793E+03  0.15294330000E+03 0.  0.
<mgrwt>
<rscale>  0 0.10015037E+04</rscale>
<asrwt>0</asrwt>
<pdfrwt beam="1">  1        2 0.41210583E+00 0.10600494E+04</pdfrwt>
<pdfrwt beam="2">  1       -2 0.12759201E+00 0.10600494E+04</pdfrwt>
<totfact> 0.12463347E+00</totfact>
</mgrwt>
</event>
<event>
 4    2  0.3171963E-007  0.9212197E+03  0.7818608E-02  0.9492791E-01
         -2   -1    0    0    0  501 -0.00000000000E+00  0.00000000000E+00  0.68804595255E+03  0.68804595256E+03  0.25500000000E-02 0.  1.
          2   -1    0    0  501    0  0.00000000000E+00 -0.00000000000E+00 -0.12527432004E+04  0.12527432004E+04  0.25500000000E-02 0. -1.
    8880023    1    1    2    0    0 -0.16563635569E+03  0.62241479639E+03  0.18609842417E+03  0.93982892637E+03  0.65864270000E+03 0. -1.
    8880022    1    1    2    0    0  0.16563635569E+03 -0.62241479639E+03 -0.75079567204E+03  0.10009602266E+04  0.15294330000E+03 0.  0.
<mgrwt>
<rscale>  0 0.84817378E+03</rscale>
<asrwt>0</asrwt>
<pdfrwt beam="1">  1        2 0.19272972E+00 0.92121973E+03</pdfrwt>
<pdfrwt beam="2">  1       -2 0.10585322E+00 0.92121973E+03</pdfrwt>
<totfact> 0.12720336E+01</totfact>
</mgrwt>
</event>
<event>
 4    2  0.3171963E-007  0.1086887E+04  0.7818608E-02  0.9275798E-01
          2   -1    0    0  501    0  0.00000000000E+00  0.00000000000E+00  0.85363266755E+03  0.85363266755E+03  0.25500000000E-02 0. -1.
         -2   -1    0    0    0  501 -0.00000000000E+00 -0.00000000000E+00 -0.15949806089E+04  0.15949806089E+04  0.25500000000E-02 0.  1.
    8880023    1    1    2    0    0  0.81414363432E+03  0.29100412187E+03  0.25928272215E+03  0.11173857850E+04  0.65864270000E+03 0.  0.
    8880022    1    1    2    0    0 -0.81414363432E+03 -0.29100412187E+03 -0.10006306635E+04  0.13312274914E+04  0.15294330000E+03 0.  0.
<mgrwt>
<rscale>  0 0.10304179E+04</rscale>
<asrwt>0</asrwt>
<pdfrwt beam="1">  1        2 0.13132810E+00 0.10868871E+04</pdfrwt>
<pdfrwt beam="2">  1       -2 0.24538163E+00 0.10868871E+04</pdfrwt>
<totfact> 0.21368577E+00</totfact>
</mgrwt>
</event>
<event>
 4    2  0.3171963E-007  0.7023290E+03  0.7818608E-02  0.9987673E-01
         -2   -1    0    0    0  501 -0.00000000000E+00  0.00000000000E+00  0.16919531944E+03  0.16919531946E+03  0.25500000000E-02 0.  1.
          2   -1    0    0  501    0  0.00000000000E+00 -0.00000000000E+00 -0.19467353332E+04  0.19467353332E+04  0.25500000000E-02 0. -1.
    8880023    1    1    2    0    0  0.51738947779E+00 -0.24383505329E+03 -0.16646630186E+04  0.18067564785E+04  0.65864270000E+03 0.  0.
    8880022    1    1    2    0    0 -0.51738947779E+00  0.24383505329E+03 -0.11287699516E+03  0.30917417414E+03  0.15294330000E+03 0.  0.
<mgrwt>
<rscale>  0 0.56194051E+03</rscale>
<asrwt>0</asrwt>
<pdfrwt beam="1">  1        2 0.29949773E+00 0.70232899E+03</pdfrwt>
<pdfrwt beam="2">  1       -2 0.26030051E-01 0.70232899E+03</pdfrwt>
<totfact> 0.98187718E+01</totfact>
</mgrwt>
</event>
<event>
 4    2  0.3171963E-007  0.6904141E+03  0.7818608E-02  0.1003956E+00
         -2   -1    0    0    0  501 -0.00000000000E+00  0.00000000000E+00  0.24999345554E+03  0.24999345555E+03  0.25500000000E-02 0.  1.
          2   -1    0    0  501    0  0.00000000000E+00 -0.00000000000E+00 -0.17401138546E+04  0.17401138546E+04  0.25500000000E-02 0. -1.
    8880023    1    1    2    0    0 -0.20686498219E+03  0.82649951375E+01 -0.15745093664E+04  0.17192298806E+04  0.65864270000E+03 0.  0.
    8880022    1    1    2    0    0  0.20686498219E+03 -0.82649951375E+01  0.84388967406E+02  0.27087742954E+03  0.15294330000E+03 0.  0.
<mgrwt>
<rscale>  0 0.53948951E+03</rscale>
<asrwt>0</asrwt>
<pdfrwt beam="1">  1        2 0.26770982E+00 0.69041411E+03</pdfrwt>
<pdfrwt beam="2">  1       -2 0.38460533E-01 0.69041411E+03</pdfrwt>
<totfact> 0.61346160E+01</totfact>
</mgrwt>
</event>
<event>
 4    2  0.3171963E-007  0.7656340E+03  0.7818608E-02  0.9790734E-01
         -2   -1    0    0    0  501 -0.00000000000E+00  0.00000000000E+00  0.76938606194E+03  0.76938606195E+03  0.25500000000E-02 0.  1.
          2   -1    0    0  501    0  0.00000000000E+00 -0.00000000000E+00 -0.64764669767E+03  0.64764669768E+03  0.25500000000E-02 0. -1.
    8880023    1    1    2    0    0  0.29940922577E+02 -0.38921556429E+03  0.44684860100E+03  0.88649257910E+03  0.65864270000E+03 0.  0.
    8880022    1    1    2    0    0 -0.29940922577E+02  0.38921556429E+03 -0.32510923673E+03  0.53054018052E+03  0.15294330000E+03 0.  0.
<mgrwt>
<rscale>  0 0.65862183E+03</rscale>
<asrwt>0</asrwt>
<pdfrwt beam="1">  1        2 0.99637954E-01 0.76563400E+03</pdfrwt>
<pdfrwt beam="2">  1       -2 0.11836709E+00 0.76563400E+03</pdfrwt>
<totfact> 0.25107881E+01</totfact>
</mgrwt>
</event>
<event>
 4    2  0.3171963E-007  0.7661471E+03  0.7818608E-02  0.9789446E-01
         -2   -1    0    0    0  501 -0.00000000000E+00  0.00000000000E+00  0.10983588338E+04  0.10983588338E+04  0.25500000000E-02 0.  1.
          2   -1    0    0  501    0  0.00000000000E+00 -0.00000000000E+00 -0.12074581641E+04  0.12074581641E+04  0.25500000000E-02 0. -1.
    8880023    1    1    2    0    0 -0.14548663964E+03  0.36332466389E+03 -0.10357680384E+04  0.12883310170E+04  0.65864270000E+03 0. -1.
    8880022    1    1    2    0    0  0.14548663964E+03 -0.36332466389E+03  0.92666870812E+03  0.10174859809E+04  0.15294330000E+03 0.  0.
<mgrwt>
<rscale>  0 0.65932043E+03</rscale>
<asrwt>0</asrwt>
<pdfrwt beam="1">  1        2 0.18576279E+00 0.76614710E+03</pdfrwt>
<pdfrwt beam="2">  1       -2 0.16897828E+00 0.76614710E+03</pdfrwt>
<totfact> 0.41474338E+00</totfact>
</mgrwt>
</event>
<event>
 4    2  0.3171963E-007  0.9039706E+03  0.7818608E-02  0.9519687E-01
          2   -1    0    0  501    0  0.00000000000E+00  0.00000000000E+00  0.15116025142E+04  0.15116025142E+04  0.25500000000E-02 0. -1.
         -2   -1    0    0    0  501 -0.00000000000E+00 -0.00000000000E+00 -0.56678424040E+03  0.56678424040E+03  0.25500000000E-02 0.  1.
    8880023    1    1    2    0    0  0.41178131068E+03  0.46237306193E+03  0.10982420701E+04  0.14224269918E+04  0.65864270000E+03 0.  0.
    8880022    1    1    2    0    0 -0.41178131068E+03 -0.46237306193E+03 -0.15342379623E+03  0.65595976285E+03  0.15294330000E+03 0.  0.
<mgrwt>
<rscale>  0 0.82847791E+03</rscale>
<asrwt>0</asrwt>
<pdfrwt beam="1">  1        2 0.23255423E+00 0.90397063E+03</pdfrwt>
<pdfrwt beam="2">  1       -2 0.87197576E-01 0.90397063E+03</pdfrwt>
<totfact> 0.14301067E+01</totfact>
</mgrwt>
</event>
<event>
 4    2  0.3171963E-007  0.6628110E+03  0.7818608E-02  0.1021445E+00
         -2   -1    0    0    0  501 -0.00000000000E+00  0.00000000000E+00  0.14390017733E+03  0.14390017735E+03  0.25500000000E-02 0.  1.
          2   -1    0    0  501    0  0.00000000000E+00 -0.00000000000E+00 -0.19078774956E+04  0.19078774956E+04  0.25500000000E-02 0. -1.
    8880023    1    1    2    0    0 -0.61041163035E+02 -0.42215560042E+02 -0.17611595110E+04  0.18817548211E+04  0.65864270000E+03 0. -1.
    8880022    1    1    2    0    0  0.61041163035E+02  0.42215560042E+02 -0.28178072090E+01  0.17002285184E+03  0.15294330000E+03 0.  0.
<mgrwt>
<rscale>  0 0.47168729E+03</rscale>
<asrwt>0</asrwt>
<pdfrwt beam="1">  1        2 0.29351960E+00 0.66281097E+03</pdfrwt>
<pdfrwt beam="2">  1       -2 0.22138490E-01 0.66281097E+03</pdfrwt>
<totfact> 0.13836537E+02</totfact>
</mgrwt>
</event>
<event>
 4    2  0.3171963E-007  0.8289410E+03  0.7818608E-02  0.9651396E-01
         -2   -1    0    0    0  501 -0.00000000000E+00  0.00000000000E+00  0.28464594512E+03  0.28464594513E+03  0.25500000000E-02 0.  1.
          2   -1    0    0  501    0  0.00000000000E+00 -0.00000000000E+00 -0.28938753381E+04  0.28938753381E+04  0.25500000000E-02 0. -1.
    8880023    1    1    2    0    0  0.39953530806E+03 -0.30611187991E+03 -0.25098148697E+04  0.26431636029E+04  0.65864270000E+03 0.  0.
    8880022    1    1    2    0    0 -0.39953530806E+03  0.30611187991E+03 -0.99414523291E+02  0.53535768031E+03  0.15294330000E+03 0.  0.
<mgrwt>
<rscale>  0 0.73985852E+03</rscale>
<asrwt>0</asrwt>
<pdfrwt beam="1">  1        2 0.44521157E+00 0.82894098E+03</pdfrwt>
<pdfrwt beam="2">  1       -2 0.43791686E-01 0.82894098E+03</pdfrwt>
<totfact> 0.10480830E+01</totfact>
</mgrwt>
</event>
<event>
 4    2  0.3171963E-007  0.7257598E+03  0.7818608E-02  0.9903558E-01
         -2   -1    0    0    0  501 -0.00000000000E+00  0.00000000000E+00  0.99412261730E+03  0.99412261731E+03  0.25500000000E-02 0.  1.
          2   -1    0    0  501    0  0.00000000000E+00 -0.00000000000E+00 -0.76341625309E+03  0.76341625310E+03  0.25500000000E-02 0. -1.
    8880023    1    1    2    0    0 -0.91783430124E+02  0.29067669754E+03 -0.54669109041E+03  0.90862450723E+03  0.65864270000E+03 0. -1.
    8880022    1    1    2    0    0  0.91783430124E+02 -0.29067669754E+03  0.77739745462E+03  0.84891436318E+03  0.15294330000E+03 0.  0.
<mgrwt>
<rscale>  0 0.60089179E+03</rscale>
<asrwt>0</asrwt>
<pdfrwt beam="1">  1        2 0.11744865E+00 0.72575984E+03</pdfrwt>
<pdfrwt beam="2">  1       -2 0.15294194E+00 0.72575984E+03</pdfrwt>
<totfact> 0.10621723E+01</totfact>
</mgrwt>
</event>
<event>
 4    2  0.3171963E-007  0.1281465E+04  0.7818608E-02  0.9081733E-01
         -2   -1    0    0    0  501 -0.00000000000E+00  0.00000000000E+00  0.70645602459E+03  0.70645602460E+03  0.25500000000E-02 0.  1.
          2   -1    0    0  501    0  0.00000000000E+00 -0.00000000000E+00 -0.38575628376E+04  0.38575628376E+04  0.25500000000E-02 0. -1.
    8880023    1    1    2    0    0 -0.52922453185E+03  0.96346507784E+03 -0.32062103995E+04  0.34528160816E+04  0.65864270000E+03 0. -1.
    8880022    1    1    2    0    0  0.52922453185E+03 -0.96346507784E+03  0.55103586483E+02  0.11112027806E+04  0.15294330000E+03 0.  0.
<mgrwt>
<rscale>  0 0.12362174E+04</rscale>
<asrwt>0</asrwt>
<pdfrwt beam="1">  1        2 0.59347119E+00 0.12814655E+04</pdfrwt>
<pdfrwt beam="2">  1       -2 0.10868554E+00 0.12814655E+04</pdfrwt>
<totfact> 0.29869176E-01</totfact>
</mgrwt>
</event>
<event>
 4    2  0.3171963E-007  0.8172496E+03  0.7818608E-02  0.9674669E-01
          2   -1    0    0  501    0  0.00000000000E+00  0.00000000000E+00  0.75612479920E+03  0.75612479921E+03  0.25500000000E-02 0. -1.
         -2   -1    0    0    0  501 -0.00000000000E+00 -0.00000000000E+00 -0.60283781244E+03  0.60283781244E+03  0.25500000000E-02 0.  1.
    8880023    1    1    2    0    0 -0.31872976674E+03  0.36400282106E+03  0.22210774997E+03  0.84689360418E+03  0.65864270000E+03 0.  0.
    8880022    1    1    2    0    0  0.31872976674E+03 -0.36400282106E+03 -0.68820763204E+02  0.51206900747E+03  0.15294330000E+03 0.  0.
<mgrwt>
<rscale>  0 0.72545192E+03</rscale>
<asrwt>0</asrwt>
<pdfrwt beam="1">  1        2 0.11632689E+00 0.81724961E+03</pdfrwt>
<pdfrwt beam="2">  1       -2 0.92744279E-01 0.81724961E+03</pdfrwt>
<totfact> 0.36876014E+01</totfact>
</mgrwt>
</event>
<event>
 4    2  0.3171963E-007  0.7604848E+03  0.7818608E-02  0.9803854E-01
          2   -1    0    0  501    0  0.00000000000E+00  0.00000000000E+00  0.21205163416E+04  0.21205163416E+04  0.25500000000E-02 0. -1.
         -2   -1    0    0    0  501 -0.00000000000E+00 -0.00000000000E+00 -0.22842366625E+03  0.22842366626E+03  0.25500000000E-02 0.  1.
    8880023    1    1    2    0    0 -0.26176433527E+03 -0.27569254704E+03  0.17618328893E+04  0.19189560400E+04  0.65864270000E+03 0. -1.
    8880022    1    1    2    0    0  0.26176433527E+03  0.27569254704E+03  0.13025978614E+03  0.42998396785E+03  0.15294330000E+03 0.  0.
<mgrwt>
<rscale>  0 0.65156127E+03</rscale>
<asrwt>0</asrwt>
<pdfrwt beam="1">  1        2 0.32623327E+00 0.76048482E+03</pdfrwt>
<pdfrwt beam="2">  1       -2 0.35142104E-01 0.76048482E+03</pdfrwt>
<totfact> 0.44867592E+01</totfact>
</mgrwt>
</event>
<event>
 4    2  0.3171963E-007  0.7854246E+03  0.7818608E-02  0.9743245E-01
          2   -1    0    0  501    0  0.00000000000E+00  0.00000000000E+00  0.24996561527E+03  0.24996561528E+03  0.25500000000E-02 0. -1.
         -2   -1    0    0    0  501 -0.00000000000E+00 -0.00000000000E+00 -0.24982869532E+04  0.24982869532E+04  0.25500000000E-02 0.  1.
    8880023    1    1    2    0    0  0.42068709994E+03  0.78128059128E+02 -0.21421786249E+04  0.22816268531E+04  0.65864270000E+03 0.  0.
    8880022    1    1    2    0    0 -0.42068709994E+03 -0.78128059128E+02 -0.10614271303E+03  0.46662571535E+03  0.15294330000E+03 0.  0.
<mgrwt>
<rscale>  0 0.68499337E+03</rscale>
<asrwt>0</asrwt>
<pdfrwt beam="1">  1        2 0.38456250E-01 0.78542462E+03</pdfrwt>
<pdfrwt beam="2">  1       -2 0.38435182E+00 0.78542462E+03</pdfrwt>
<totfact> 0.13295991E+00</totfact>
</mgrwt>
</event>
<event>
 4    2  0.3171963E-007  0.7130244E+03  0.7818608E-02  0.9946937E-01
         -2   -1    0    0    0  501 -0.00000000000E+00  0.00000000000E+00  0.18257592755E+04  0.18257592755E+04  0.25500000000E-02 0.  1.
          2   -1    0    0  501    0  0.00000000000E+00 -0.00000000000E+00 -0.30470418097E+03  0.30470418098E+03  0.25500000000E-02 0. -1.
    8880023    1    1    2    0    0 -0.18626420733E+02 -0.27248249410E+03  0.15588533706E+03  0.72986580802E+03  0.65864270000E+03 0. -1.
    8880022    1    1    2    0    0  0.18626420733E+02  0.27248249410E+03  0.13651697575E+04  0.14005976485E+04  0.15294330000E+03 0.  0.
<mgrwt>
<rscale>  0 0.58039469E+03</rscale>
<asrwt>0</asrwt>
<pdfrwt beam="1">  1        2 0.46877566E-01 0.71302445E+03</pdfrwt>
<pdfrwt beam="2">  1       -2 0.28088604E+00 0.71302445E+03</pdfrwt>
<totfact> 0.46663060E+00</totfact>
</mgrwt>
</event>
<event>
 4    2  0.3171963E-007  0.6961326E+03  0.7818608E-02  0.1001364E+00
         -2   -1    0    0    0  501 -0.00000000000E+00  0.00000000000E+00  0.20037212173E+03  0.20037212174E+03  0.25500000000E-02 0.  1.
          2   -1    0    0  501    0  0.00000000000E+00 -0.00000000000E+00 -0.25797708590E+04  0.25797708590E+04  0.25500000000E-02 0. -1.
    8880023    1    1    2    0    0 -0.95580285755E+02 -0.20409514704E+03 -0.24076968735E+04  0.25063130014E+04  0.65864270000E+03 0. -1.
    8880022    1    1    2    0    0  0.95580285755E+02  0.20409514704E+03  0.28298136207E+02  0.27382997936E+03  0.15294330000E+03 0.  0.
<mgrwt>
<rscale>  0 0.55056216E+03</rscale>
<asrwt>0</asrwt>
<pdfrwt beam="1">  1        2 0.39688780E+00 0.69613262E+03</pdfrwt>
<pdfrwt beam="2">  1       -2 0.30826482E-01 0.69613262E+03</pdfrwt>
<totfact> 0.32107070E+01</totfact>
</mgrwt>
</event>
<event>
 4    2  0.3171963E-007  0.6884018E+03  0.7818608E-02  0.1004922E+00
          2   -1    0    0  501    0  0.00000000000E+00  0.00000000000E+00  0.32336672365E+03  0.32336672366E+03  0.25500000000E-02 0. -1.
         -2   -1    0    0    0  501 -0.00000000000E+00 -0.00000000000E+00 -0.73353860139E+03  0.73353860139E+03  0.25500000000E-02 0.  1.
    8880023    1    1    2    0    0  0.11845674124E+03 -0.16141521453E+03 -0.41702160930E+03  0.80486278328E+03  0.65864270000E+03 0.  1.
    8880022    1    1    2    0    0 -0.11845674124E+03  0.16141521453E+03  0.68497315646E+01  0.25204254177E+03  0.15294330000E+03 0.  0.
<mgrwt>
<rscale>  0 0.53543883E+03</rscale>
<asrwt>0</asrwt>
<pdfrwt beam="1">  1        2 0.49748727E-01 0.68840183E+03</pdfrwt>
<pdfrwt beam="2">  1       -2 0.11285209E+00 0.68840183E+03</pdfrwt>
<totfact> 0.63207883E+01</totfact>
</mgrwt>
</event>
<event>
 4    2  0.3171963E-007  0.9093238E+03  0.7818608E-02  0.9511227E-01
          2   -1    0    0  501    0  0.00000000000E+00  0.00000000000E+00  0.17701566706E+04  0.17701566706E+04  0.25500000000E-02 0. -1.
         -2   -1    0    0    0  501 -0.00000000000E+00 -0.00000000000E+00 -0.10891515170E+04  0.10891515170E+04  0.25500000000E-02 0.  1.
    8880023    1    1    2    0    0  0.26544940473E+03  0.56797544778E+03  0.15378839828E+04  0.17866048378E+04  0.65864270000E+03 0.  0.
    8880022    1    1    2    0    0 -0.26544940473E+03 -0.56797544778E+03 -0.85687882918E+03  0.10727033498E+04  0.15294330000E+03 0.  0.
<mgrwt>
<rscale>  0 0.83461159E+03</rscale>
<asrwt>0</asrwt>
<pdfrwt beam="1">  1        2 0.27233179E+00 0.90932376E+03</pdfrwt>
<pdfrwt beam="2">  1       -2 0.16756177E+00 0.90932376E+03</pdfrwt>
<totfact> 0.20039146E+00</totfact>
</mgrwt>
</event>
<event>
 4    2  0.3171963E-007  0.6678074E+03  0.7818608E-02  0.1017286E+00
         -2   -1    0    0    0  501 -0.00000000000E+00  0.00000000000E+00  0.22264833061E+03  0.22264833062E+03  0.25500000000E-02 0.  1.
          2   -1    0    0  501    0  0.00000000000E+00 -0.00000000000E+00 -0.89641790682E+03  0.89641790682E+03  0.25500000000E-02 0. -1.
    8880023    1    1    2    0    0  0.10151036100E+03 -0.43036665341E+02 -0.64482813377E+03  0.92831569863E+03  0.65864270000E+03 0.  1.
    8880022    1    1    2    0    0 -0.10151036100E+03  0.43036665341E+02 -0.28941442439E+02  0.19075053882E+03  0.15294330000E+03 0.  0.
<mgrwt>
<rscale>  0 0.48678878E+03</rscale>
<asrwt>0</asrwt>
<pdfrwt beam="1">  1        2 0.13791045E+00 0.66780739E+03</pdfrwt>
<pdfrwt beam="2">  1       -2 0.34253590E-01 0.66780739E+03</pdfrwt>
<totfact> 0.23850741E+02</totfact>
</mgrwt>
</event>
<event>
 4    2  0.3171963E-007  0.7912991E+03  0.7818608E-02  0.9729935E-01
         -2   -1    0    0    0  501 -0.00000000000E+00  0.00000000000E+00  0.93949608258E+03  0.93949608259E+03  0.25500000000E-02 0.  1.
          2   -1    0    0  501    0  0.00000000000E+00 -0.00000000000E+00 -0.43133026511E+03  0.43133026511E+03  0.25500000000E-02 0. -1.
    8880023    1    1    2    0    0  0.42628111403E+03 -0.10309447200E+03  0.42751839428E+03  0.89940326997E+03  0.65864270000E+03 0.  0.
    8880022    1    1    2    0    0 -0.42628111403E+03  0.10309447200E+03  0.80647423201E+02  0.47142307773E+03  0.15294330000E+03 0.  0.
<mgrwt>
<rscale>  0 0.69262117E+03</rscale>
<asrwt>0</asrwt>
<pdfrwt beam="1">  1        2 0.66358502E-01 0.79129910E+03</pdfrwt>
<pdfrwt beam="2">  1       -2 0.14453786E+00 0.79129910E+03</pdfrwt>
<totfact> 0.24350971E+01</totfact>
</mgrwt>
</event>
<event>
 4    2  0.3171963E-007  0.7340481E+03  0.7818608E-02  0.9877636E-01
         -2   -1    0    0    0  501 -0.00000000000E+00  0.00000000000E+00  0.83574713093E+03  0.83574713094E+03  0.25500000000E-02 0.  1.
          2   -1    0    0  501    0  0.00000000000E+00 -0.00000000000E+00 -0.40540634963E+03  0.40540634964E+03  0.25500000000E-02 0. -1.
    8880023    1    1    2    0    0  0.18688044608E+03 -0.26474926670E+03  0.77283652236E+02  0.73810530720E+03  0.65864270000E+03 0.  0.
    8880022    1    1    2    0    0 -0.18688044608E+03  0.26474926670E+03  0.35305712906E+03  0.50304817338E+03  0.15294330000E+03 0. -1.
<mgrwt>
<rscale>  0 0.61357474E+03</rscale>
<asrwt>0</asrwt>
<pdfrwt beam="1">  1        2 0.62370208E-01 0.73404815E+03</pdfrwt>
<pdfrwt beam="2">  1       -2 0.12857648E+00 0.73404815E+03</pdfrwt>
<totfact> 0.35426713E+01</totfact>
</mgrwt>
</event>
<event>
 4    2  0.3171963E-007  0.8082263E+03  0.7818608E-02  0.9693284E-01
         -2   -1    0    0    0  501 -0.00000000000E+00  0.00000000000E+00  0.69394193843E+03  0.69394193844E+03  0.25500000000E-02 0.  1.
          2   -1    0    0  501    0  0.00000000000E+00 -0.00000000000E+00 -0.20207379356E+04  0.20207379356E+04  0.25500000000E-02 0. -1.
    8880023    1    1    2    0    0 -0.46278850107E+03  0.72431139056E+02 -0.18360413061E+04  0.20060601563E+04  0.65864270000E+03 0. -1.
    8880022    1    1    2    0    0  0.46278850107E+03 -0.72431139056E+02  0.50924530897E+03  0.70861971773E+03  0.15294330000E+03 0.  0.
<mgrwt>
<rscale>  0 0.71418099E+03</rscale>
<asrwt>0</asrwt>
<pdfrwt beam="1">  1        2 0.31088276E+00 0.80822625E+03</pdfrwt>
<pdfrwt beam="2">  1       -2 0.10676030E+00 0.80822625E+03</pdfrwt>
<totfact> 0.47190852E+00</totfact>
</mgrwt>
</event>
<event>
 4    2  0.3171963E-007  0.8344339E+03  0.7818608E-02  0.9640766E-01
         -2   -1    0    0    0  501 -0.00000000000E+00  0.00000000000E+00  0.78721366095E+03  0.78721366096E+03  0.25500000000E-02 0.  1.
          2   -1    0    0  501    0  0.00000000000E+00 -0.00000000000E+00 -0.67573663456E+03  0.67573663457E+03  0.25500000000E-02 0. -1.
    8880023    1    1    2    0    0 -0.22035508469E+03  0.46250764428E+03 -0.18054006134E+03  0.85374153253E+03  0.65864270000E+03 0.  0.
    8880022    1    1    2    0    0  0.22035508469E+03 -0.46250764428E+03  0.29201708773E+03  0.60920876299E+03  0.15294330000E+03 0.  0.
<mgrwt>
<rscale>  0 0.74655769E+03</rscale>
<asrwt>0</asrwt>
<pdfrwt beam="1">  1        2 0.10395948E+00 0.83443387E+03</pdfrwt>
<pdfrwt beam="2">  1       -2 0.12110979E+00 0.83443387E+03</pdfrwt>
<totfact> 0.22370834E+01</totfact>
</mgrwt>
</event>
<event>
 4    2  0.3171963E-007  0.8360708E+03  0.7818608E-02  0.9637634E-01
         -2   -1    0    0    0  501 -0.00000000000E+00  0.00000000000E+00  0.28671361918E+03  0.28671361920E+03  0.25500000000E-02 0.  1.
          2   -1    0    0  501    0  0.00000000000E+00 -0.00000000000E+00 -0.19794720870E+04  0.19794720870E+04  0.25500000000E-02 0. -1.
    8880023    1    1    2    0    0  0.37632779161E+03  0.35154176698E+03 -0.14563087534E+04  0.16792407844E+04  0.65864270000E+03 0. -1.
    8880022    1    1    2    0    0 -0.37632779161E+03 -0.35154176698E+03 -0.23644971438E+03  0.58694492171E+03  0.15294330000E+03 0.  0.
<mgrwt>
<rscale>  0 0.74854613E+03</rscale>
<asrwt>0</asrwt>
<pdfrwt beam="1">  1        2 0.30453416E+00 0.83607083E+03</pdfrwt>
<pdfrwt beam="2">  1       -2 0.44109789E-01 0.83607083E+03</pdfrwt>
<totfact> 0.34131118E+01</totfact>
</mgrwt>
</event>
<event>
 4    2  0.3171963E-007  0.8627700E+03  0.7818608E-02  0.9588655E-01
          2   -1    0    0  501    0  0.00000000000E+00  0.00000000000E+00  0.23222626378E+04  0.23222626378E+04  0.25500000000E-02 0. -1.
         -2   -1    0    0    0  501 -0.00000000000E+00 -0.00000000000E+00 -0.64330214040E+03  0.64330214041E+03  0.25500000000E-02 0.  1.
    8880023    1    1    2    0    0  0.50711200838E+03  0.23108269976E+03  0.20868901920E+04  0.22582034193E+04  0.65864270000E+03 0. -1.
    8880022    1    1    2    0    0 -0.50711200838E+03 -0.23108269976E+03 -0.40792969468E+03  0.70736135885E+03  0.15294330000E+03 0.  0.
<mgrwt>
<rscale>  0 0.78051635E+03</rscale>
<asrwt>0</asrwt>
<pdfrwt beam="1">  1        2 0.35727117E+00 0.86276996E+03</pdfrwt>
<pdfrwt beam="2">  1       -2 0.98969560E-01 0.86276996E+03</pdfrwt>
<totfact> 0.38220537E+00</totfact>
</mgrwt>
</event>
<event>
 4    2  0.3171963E-007  0.6765082E+03  0.7818608E-02  0.1011372E+00
         -2   -1    0    0    0  501 -0.00000000000E+00  0.00000000000E+00  0.10252499014E+03  0.10252499017E+03  0.25500000000E-02 0.  1.
          2   -1    0    0  501    0  0.00000000000E+00 -0.00000000000E+00 -0.25735185559E+04  0.25735185560E+04  0.25500000000E-02 0. -1.
    8880023    1    1    2    0    0  0.13150822665E+03  0.80986028459E+02 -0.23059172142E+04  0.24031058145E+04  0.65864270000E+03 0. -1.
    8880022    1    1    2    0    0 -0.13150822665E+03 -0.80986028459E+02 -0.16507635159E+03  0.27293773164E+03  0.15294330000E+03 0.  1.
<mgrwt>
<rscale>  0 0.50932977E+03</rscale>
<asrwt>0</asrwt>
<pdfrwt beam="1">  1        2 0.39592588E+00 0.67650821E+03</pdfrwt>
<pdfrwt beam="2">  1       -2 0.15773077E-01 0.67650821E+03</pdfrwt>
<totfact> 0.10652888E+02</totfact>
</mgrwt>
</event>
<event>
 4    2  0.3171963E-007  0.9141051E+03  0.7818608E-02  0.9503757E-01
         -2   -1    0    0    0  501 -0.00000000000E+00  0.00000000000E+00  0.11649689932E+04  0.11649689932E+04  0.25500000000E-02 0.  1.
          2   -1    0    0  501    0  0.00000000000E+00 -0.00000000000E+00 -0.61317933158E+03  0.61317933159E+03  0.25500000000E-02 0. -1.
    8880023    1    1    2    0    0 -0.51947553244E+03 -0.36321208803E+03  0.64599357192E+03  0.11193282588E+04  0.65864270000E+03 0.  1.
    8880022    1    1    2    0    0  0.51947553244E+03  0.36321208803E+03 -0.94203910261E+02  0.65882006604E+03  0.15294330000E+03 0.  0.
<mgrwt>
<rscale>  0 0.84007362E+03</rscale>
<asrwt>0</asrwt>
<pdfrwt beam="1">  1        2 0.94335283E-01 0.91410506E+03</pdfrwt>
<pdfrwt beam="2">  1       -2 0.17922600E+00 0.91410506E+03</pdfrwt>
<totfact> 0.88744459E+00</totfact>
</mgrwt>
</event>
<event>
 4    2  0.3171963E-007  0.6799286E+03  0.7818608E-02  0.1009364E+00
          2   -1    0    0  501    0  0.00000000000E+00  0.00000000000E+00  0.24458529953E+04  0.24458529953E+04  0.25500000000E-02 0. -1.
         -2   -1    0    0    0  501 -0.00000000000E+00 -0.00000000000E+00 -0.25926797628E+03  0.25926797629E+03  0.25500000000E-02 0.  1.
    8880023    1    1    2    0    0 -0.14720733311E+03  0.82599308098E+02  0.23358455789E+04  0.24327921036E+04  0.65864270000E+03 0. -1.
    8880022    1    1    2    0    0  0.14720733311E+03 -0.82599308098E+02 -0.14926055984E+03  0.27232886802E+03  0.15294330000E+03 0.  0.
<mgrwt>
<rscale>  0 0.51728151E+03</rscale>
<asrwt>0</asrwt>
<pdfrwt beam="1">  1        2 0.37628509E+00 0.67992856E+03</pdfrwt>
<pdfrwt beam="2">  1       -2 0.39887380E-01 0.67992856E+03</pdfrwt>
<totfact> 0.23475845E+01</totfact>
</mgrwt>
</event>
<event>
 4    2  0.3171963E-007  0.6908811E+03  0.7818608E-02  0.1003737E+00
         -2   -1    0    0    0  501 -0.00000000000E+00  0.00000000000E+00  0.29347556677E+03  0.29347556678E+03  0.25500000000E-02 0.  1.
          2   -1    0    0  501    0  0.00000000000E+00 -0.00000000000E+00 -0.16003607304E+04  0.16003607304E+04  0.25500000000E-02 0. -1.
    8880023    1    1    2    0    0  0.42165435266E+02  0.20427586784E+03 -0.14442382697E+04  0.16009812429E+04  0.65864270000E+03 0. -1.
    8880022    1    1    2    0    0 -0.42165435266E+02 -0.20427586784E+03  0.13735310602E+03  0.29285505435E+03  0.15294330000E+03 0.  0.
<mgrwt>
<rscale>  0 0.54041739E+03</rscale>
<asrwt>0</asrwt>
<pdfrwt beam="1">  1        2 0.24620934E+00 0.69088115E+03</pdfrwt>
<pdfrwt beam="2">  1       -2 0.45150088E-01 0.69088115E+03</pdfrwt>
<totfact> 0.53394251E+01</totfact>
</mgrwt>
</event>
<event>
 4    2  0.3171963E-007  0.8004776E+03  0.7818608E-02  0.9709764E-01
         -2   -1    0    0    0  501 -0.00000000000E+00  0.00000000000E+00  0.85195208831E+03  0.85195208831E+03  0.25500000000E-02 0.  1.
          2   -1    0    0  501    0  0.00000000000E+00 -0.00000000000E+00 -0.71244027039E+03  0.71244027039E+03  0.25500000000E-02 0. -1.
    8880023    1    1    2    0    0 -0.16667397929E+03  0.42328943936E+03 -0.35464929084E+03  0.87552298120E+03  0.65864270000E+03 0. -1.
    8880022    1    1    2    0    0  0.16667397929E+03 -0.42328943936E+03  0.49416110876E+03  0.68886937751E+03  0.15294330000E+03 0.  0.
<mgrwt>
<rscale>  0 0.70438391E+03</rscale>
<asrwt>0</asrwt>
<pdfrwt beam="1">  1        2 0.10960620E+00 0.80047759E+03</pdfrwt>
<pdfrwt beam="2">  1       -2 0.13106955E+00 0.80047759E+03</pdfrwt>
<totfact> 0.17203643E+01</totfact>
</mgrwt>
</event>
<event>
 4    2  0.3171963E-007  0.6887951E+03  0.7818608E-02  0.1004731E+00
         -2   -1    0    0    0  501 -0.00000000000E+00  0.00000000000E+00  0.73208409768E+02  0.73208409813E+02  0.25500000000E-02 0.  1.
          2   -1    0    0  501    0  0.00000000000E+00 -0.00000000000E+00 -0.32892862171E+04  0.32892862171E+04  0.25500000000E-02 0. -1.
    8880023    1    1    2    0    0  0.19275860903E+03 -0.58929058693E+02 -0.27169025440E+04  0.28028553575E+04  0.65864270000E+03 0.  0.
    8880022    1    1    2    0    0 -0.19275860903E+03  0.58929058693E+02 -0.49917526334E+03  0.55963926940E+03  0.15294330000E+03 0.  0.
<mgrwt>
<rscale>  0 0.53623746E+03</rscale>
<asrwt>0</asrwt>
<pdfrwt beam="1">  1        2 0.50604392E+00 0.68879512E+03</pdfrwt>
<pdfrwt beam="2">  1       -2 0.11262835E-01 0.68879512E+03</pdfrwt>
<totfact> 0.68864705E+01</totfact>
</mgrwt>
</event>
<event>
 4    2  0.3171963E-007  0.6865772E+03  0.7818608E-02  0.1005824E+00
         -2   -1    0    0    0  501 -0.00000000000E+00  0.00000000000E+00  0.22128087769E+03  0.22128087770E+03  0.25500000000E-02 0.  1.
          2   -1    0    0  501    0  0.00000000000E+00 -0.00000000000E+00 -0.12444424066E+04  0.12444424066E+04  0.25500000000E-02 0. -1.
    8880023    1    1    2    0    0  0.10426813747E+03 -0.16342045302E+03 -0.10063275067E+04  0.12182295949E+04  0.65864270000E+03 0. -1.
    8880022    1    1    2    0    0 -0.10426813747E+03  0.16342045302E+03 -0.16834022193E+02  0.24749368936E+03  0.15294330000E+03 0.  0.
<mgrwt>
<rscale>  0 0.53168737E+03</rscale>
<asrwt>0</asrwt>
<pdfrwt beam="1">  1        2 0.19145267E+00 0.68657723E+03</pdfrwt>
<pdfrwt beam="2">  1       -2 0.34043213E-01 0.68657723E+03</pdfrwt>
<totfact> 0.14660442E+02</totfact>
</mgrwt>
</event>
<event>
 4    2  0.3171963E-007  0.7413190E+03  0.7818608E-02  0.9856121E-01
          2   -1    0    0  501    0  0.00000000000E+00  0.00000000000E+00  0.13894339889E+04  0.13894339889E+04  0.25500000000E-02 0. -1.
         -2   -1    0    0    0  501 -0.00000000000E+00 -0.00000000000E+00 -0.94379919696E+03  0.94379919697E+03  0.25500000000E-02 0.  1.
    8880023    1    1    2    0    0 -0.32797906977E+03  0.90407059311E+02  0.12462061599E+04  0.14500288638E+04  0.65864270000E+03 0. -1.
    8880022    1    1    2    0    0  0.32797906977E+03 -0.90407059311E+02 -0.80057136788E+03  0.88320432216E+03  0.15294330000E+03 0.  0.
<mgrwt>
<rscale>  0 0.62435782E+03</rscale>
<asrwt>0</asrwt>
<pdfrwt beam="1">  1        2 0.21375907E+00 0.74131904E+03</pdfrwt>
<pdfrwt beam="2">  1       -2 0.14519988E+00 0.74131904E+03</pdfrwt>
<totfact> 0.49131334E+00</totfact>
</mgrwt>
</event>
<event>
 4    2  0.3171963E-007  0.8634167E+03  0.7818608E-02  0.9587514E-01
          2   -1    0    0  501    0  0.00000000000E+00  0.00000000000E+00  0.20633232752E+04  0.20633232752E+04  0.25500000000E-02 0. -1.
         -2   -1    0    0    0  501 -0.00000000000E+00 -0.00000000000E+00 -0.30857277567E+03  0.30857277568E+03  0.25500000000E-02 0.  1.
    8880023    1    1    2    0    0 -0.54710989303E+03  0.11112618453E+03  0.15182615259E+04  0.17465985604E+04  0.65864270000E+03 0.  0.
    8880022    1    1    2    0    0  0.54710989303E+03 -0.11112618453E+03  0.23648897364E+03  0.62529749048E+03  0.15294330000E+03 0.  0.
<mgrwt>
<rscale>  0 0.78128103E+03</rscale>
<asrwt>0</asrwt>
<pdfrwt beam="1">  1        2 0.31743435E+00 0.86341674E+03</pdfrwt>
<pdfrwt beam="2">  1       -2 0.47472734E-01 0.86341674E+03</pdfrwt>
<totfact> 0.26414012E+01</totfact>
</mgrwt>
</event>
<event>
 4    2  0.3171963E-007  0.6814315E+03  0.7818608E-02  0.1008525E+00
         -2   -1    0    0    0  501 -0.00000000000E+00  0.00000000000E+00  0.88152052151E+03  0.88152052152E+03  0.25500000000E-02 0.  1.
          2   -1    0    0  501    0  0.00000000000E+00 -0.00000000000E+00 -0.81155865779E+03  0.81155865779E+03  0.25500000000E-02 0. -1.
    8880023    1    1    2    0    0  0.16029689789E+03 -0.69595712752E+02 -0.64686981925E+03  0.93956874577E+03  0.65864270000E+03 0. -1.
    8880022    1    1    2    0    0 -0.16029689789E+03  0.69595712752E+02  0.71683168298E+03  0.75351043353E+03  0.15294330000E+03 0.  0.
<mgrwt>
<rscale>  0 0.52064987E+03</rscale>
<asrwt>0</asrwt>
<pdfrwt beam="1">  1        2 0.12485518E+00 0.68143148E+03</pdfrwt>
<pdfrwt beam="2">  1       -2 0.13561854E+00 0.68143148E+03</pdfrwt>
<totfact> 0.13482375E+01</totfact>
</mgrwt>
</event>
<event>
 4    2  0.3171963E-007  0.7764716E+03  0.7818608E-02  0.9764191E-01
          2   -1    0    0  501    0  0.00000000000E+00  0.00000000000E+00  0.68468958940E+03  0.68468958940E+03  0.25500000000E-02 0. -1.
         -2   -1    0    0    0  501 -0.00000000000E+00 -0.00000000000E+00 -0.24914669916E+04  0.24914669916E+04  0.25500000000E-02 0.  1.
    8880023    1    1    2    0    0  0.31423101829E+03  0.26524864260E+03  0.43624539776E+03  0.89062799675E+03  0.65864270000E+03 0. -1.
    8880022    1    1    2    0    0 -0.31423101829E+03 -0.26524864260E+03 -0.22430228000E+04  0.22855285843E+04  0.15294330000E+03 0.  0.
<mgrwt>
<rscale>  0 0.67320155E+03</rscale>
<asrwt>0</asrwt>
<pdfrwt beam="1">  1        2 0.10533686E+00 0.77647162E+03</pdfrwt>
<pdfrwt beam="2">  1       -2 0.38330261E+00 0.77647162E+03</pdfrwt>
<totfact> 0.42450984E-01</totfact>
</mgrwt>
</event>
<event>
 4    2  0.3171963E-007  0.7381026E+03  0.7818608E-02  0.9865509E-01
          2   -1    0    0  501    0  0.00000000000E+00  0.00000000000E+00  0.18010725343E+04  0.18010725343E+04  0.25500000000E-02 0. -1.
         -2   -1    0    0    0  501 -0.00000000000E+00 -0.00000000000E+00 -0.18391937762E+03  0.18391937763E+03  0.25500000000E-02 0.  1.
    8880023    1    1    2    0    0  0.27887783754E+03 -0.18224248712E+03  0.13230890121E+04  0.15150445250E+04  0.65864270000E+03 0.  0.
    8880022    1    1    2    0    0 -0.27887783754E+03  0.18224248712E+03  0.29406414457E+03  0.46994738697E+03  0.15294330000E+03 0.  0.
<mgrwt>
<rscale>  0 0.61962378E+03</rscale>
<asrwt>0</asrwt>
<pdfrwt beam="1">  1        2 0.27708809E+00 0.73810255E+03</pdfrwt>
<pdfrwt beam="2">  1       -2 0.28295288E-01 0.73810255E+03</pdfrwt>
<totfact> 0.10081753E+02</totfact>
</mgrwt>
</event>
<event>
 4    2  0.3171963E-007  0.8343708E+03  0.7818608E-02  0.9640887E-01
          2   -1    0    0  501    0  0.00000000000E+00  0.00000000000E+00  0.25695431262E+04  0.25695431262E+04  0.25500000000E-02 0. -1.
         -2   -1    0    0    0  501 -0.00000000000E+00 -0.00000000000E+00 -0.20104361330E+03  0.20104361331E+03  0.25500000000E-02 0.  1.
    8880023    1    1    2    0    0 -0.40504512196E+03 -0.31353283705E+03  0.18328610957E+04  0.20138407070E+04  0.65864270000E+03 0.  0.
    8880022    1    1    2    0    0  0.40504512196E+03  0.31353283705E+03  0.53563841714E+03  0.75674603247E+03  0.15294330000E+03 0.  0.
<mgrwt>
<rscale>  0 0.74648097E+03</rscale>
<asrwt>0</asrwt>
<pdfrwt beam="1">  1        2 0.39531435E+00 0.83437078E+03</pdfrwt>
<pdfrwt beam="2">  1       -2 0.30929785E-01 0.83437078E+03</pdfrwt>
<totfact> 0.31711693E+01</totfact>
</mgrwt>
</event>
<event>
 4    2  0.3171963E-007  0.7080136E+03  0.7818608E-02  0.9965453E-01
         -2   -1    0    0    0  501 -0.00000000000E+00  0.00000000000E+00  0.17577435960E+03  0.17577435962E+03  0.25500000000E-02 0.  1.
          2   -1    0    0  501    0  0.00000000000E+00 -0.00000000000E+00 -0.25381786930E+04  0.25381786930E+04  0.25500000000E-02 0. -1.
    8880023    1    1    2    0    0  0.24799845014E+03 -0.77264531333E+02 -0.22994882402E+04  0.24060194122E+04  0.65864270000E+03 0.  0.
    8880022    1    1    2    0    0 -0.24799845014E+03  0.77264531333E+02 -0.62916093215E+02  0.30793364037E+03  0.15294330000E+03 0.  0.
<mgrwt>
<rscale>  0 0.57191382E+03</rscale>
<asrwt>0</asrwt>
<pdfrwt beam="1">  1        2 0.39048900E+00 0.70801359E+03</pdfrwt>
<pdfrwt beam="2">  1       -2 0.27042211E-01 0.70801359E+03</pdfrwt>
<totfact> 0.43087709E+01</totfact>
</mgrwt>
</event>
<event>
 4    2  0.3171963E-007  0.6934688E+03  0.7818608E-02  0.1002546E+00
          2   -1    0    0  501    0  0.00000000000E+00  0.00000000000E+00  0.83806575627E+03  0.83806575628E+03  0.25500000000E-02 0. -1.
         -2   -1    0    0    0  501 -0.00000000000E+00 -0.00000000000E+00 -0.31081647648E+03  0.31081647649E+03  0.25500000000E-02 0.  1.
    8880023    1    1    2    0    0 -0.14280670610E+03 -0.16338607320E+03  0.54617572363E+03  0.88272696321E+03  0.65864270000E+03 0. -1.
    8880022    1    1    2    0    0  0.14280670610E+03  0.16338607320E+03 -0.18926443838E+02  0.26615526956E+03  0.15294330000E+03 0.  0.
<mgrwt>
<rscale>  0 0.54547990E+03</rscale>
<asrwt>0</asrwt>
<pdfrwt beam="1">  1        2 0.12893319E+00 0.69346880E+03</pdfrwt>
<pdfrwt beam="2">  1       -2 0.47817919E-01 0.69346880E+03</pdfrwt>
<totfact> 0.13610330E+02</totfact>
</mgrwt>
</event>
<event>
 4    2  0.3171963E-007  0.7829268E+03  0.7818608E-02  0.9749006E-01
          2   -1    0    0  501    0  0.00000000000E+00  0.00000000000E+00  0.11110695219E+04  0.11110695219E+04  0.25500000000E-02 0. -1.
         -2   -1    0    0    0  501 -0.00000000000E+00 -0.00000000000E+00 -0.37756556262E+03  0.37756556263E+03  0.25500000000E-02 0.  1.
    8880023    1    1    2    0    0  0.36432883483E+03  0.21547305529E+03  0.67700409353E+03  0.10350405240E+04  0.65864270000E+03 0.  0.
    8880022    1    1    2    0    0 -0.36432883483E+03 -0.21547305529E+03  0.56499865711E+02  0.45359456047E+03  0.15294330000E+03 0. -1.
<mgrwt>
<rscale>  0 0.68172457E+03</rscale>
<asrwt>0</asrwt>
<pdfrwt beam="1">  1        2 0.17093377E+00 0.78292678E+03</pdfrwt>
<pdfrwt beam="2">  1       -2 0.58087011E-01 0.78292678E+03</pdfrwt>
<totfact> 0.60269253E+01</totfact>
</mgrwt>
</event>
<event>
 4    2  0.3171963E-007  0.7892989E+03  0.7818608E-02  0.9734430E-01
          2   -1    0    0  501    0  0.00000000000E+00  0.00000000000E+00  0.13481813458E+04  0.13481813458E+04  0.25500000000E-02 0. -1.
         -2   -1    0    0    0  501 -0.00000000000E+00 -0.00000000000E+00 -0.29991555489E+03  0.29991555490E+03  0.25500000000E-02 0.  1.
    8880023    1    1    2    0    0 -0.39535618317E+03  0.18131735029E+03  0.80256741419E+03  0.11256585422E+04  0.65864270000E+03 0. -1.
    8880022    1    1    2    0    0  0.39535618317E+03 -0.18131735029E+03  0.24569837672E+03  0.52243835849E+03  0.15294330000E+03 0.  1.
<mgrwt>
<rscale>  0 0.69003309E+03</rscale>
<asrwt>0</asrwt>
<pdfrwt beam="1">  1        2 0.20741252E+00 0.78929887E+03</pdfrwt>
<pdfrwt beam="2">  1       -2 0.46140854E-01 0.78929887E+03</pdfrwt>
<totfact> 0.70042827E+01</totfact>
</mgrwt>
</event>
<event>
 4    2  0.3171963E-007  0.7021171E+03  0.7818608E-02  0.9988529E-01
          2   -1    0    0  501    0  0.00000000000E+00  0.00000000000E+00  0.29431178935E+04  0.29431178935E+04  0.25500000000E-02 0. -1.
         -2   -1    0    0    0  501 -0.00000000000E+00 -0.00000000000E+00 -0.86512760872E+02  0.86512760909E+02  0.25500000000E-02 0.  1.
    8880023    1    1    2    0    0 -0.88472993514E+02  0.22656291977E+03  0.17319404670E+04  0.18688462255E+04  0.65864270000E+03 0.  1.
    8880022    1    1    2    0    0  0.88472993514E+02 -0.22656291977E+03  0.11246646656E+04  0.11607844288E+04  0.15294330000E+03 0.  1.
<mgrwt>
<rscale>  0 0.56156072E+03</rscale>
<asrwt>0</asrwt>
<pdfrwt beam="1">  1        2 0.45278731E+00 0.70211711E+03</pdfrwt>
<pdfrwt beam="2">  1       -2 0.13309657E-01 0.70211711E+03</pdfrwt>
<totfact> 0.85781484E+01</totfact>
</mgrwt>
</event>
<event>
 4    2  0.3171963E-007  0.8325247E+03  0.7818608E-02  0.9644440E-01
          2   -1    0    0  501    0  0.00000000000E+00  0.00000000000E+00  0.19835720659E+04  0.19835720659E+04  0.25500000000E-02 0. -1.
         -2   -1    0    0    0  501 -0.00000000000E+00 -0.00000000000E+00 -0.33616154314E+03  0.33616154315E+03  0.25500000000E-02 0.  1.
    8880023    1    1    2    0    0 -0.34835523618E+03  0.37139710439E+03  0.15772034498E+04  0.17834427683E+04  0.65864270000E+03 0.  0.
    8880022    1    1    2    0    0  0.34835523618E+03 -0.37139710439E+03  0.70207072993E+02  0.53629084072E+03  0.15294330000E+03 0.  0.
<mgrwt>
<rscale>  0 0.74423400E+03</rscale>
<asrwt>0</asrwt>
<pdfrwt beam="1">  1        2 0.30516494E+00 0.83252471E+03</pdfrwt>
<pdfrwt beam="2">  1       -2 0.51717160E-01 0.83252471E+03</pdfrwt>
<totfact> 0.24629944E+01</totfact>
</mgrwt>
</event>
<event>
 4    2  0.3171963E-007  0.7917620E+03  0.7818608E-02  0.9728900E-01
         -2   -1    0    0    0  501 -0.00000000000E+00  0.00000000000E+00  0.76672942734E+03  0.76672942735E+03  0.25500000000E-02 0.  1.
          2   -1    0    0  501    0  0.00000000000E+00 -0.00000000000E+00 -0.62467727743E+03  0.62467727744E+03  0.25500000000E-02 0. -1.
    8880023    1    1    2    0    0  0.42555414567E+03 -0.10945534684E+03 -0.19677072394E+03  0.81584663259E+03  0.65864270000E+03 0. -1.
    8880022    1    1    2    0    0 -0.42555414567E+03  0.10945534684E+03  0.33882287385E+03  0.57556007220E+03  0.15294330000E+03 0.  0.
<mgrwt>
<rscale>  0 0.69321876E+03</rscale>
<asrwt>0</asrwt>
<pdfrwt beam="1">  1        2 0.96104197E-01 0.79176197E+03</pdfrwt>
<pdfrwt beam="2">  1       -2 0.11795837E+00 0.79176197E+03</pdfrwt>
<totfact> 0.26413123E+01</totfact>
</mgrwt>
</event>
<event>
 4    2  0.3171963E-007  0.9313248E+03  0.7818608E-02  0.9477509E-01
          2   -1    0    0  501    0  0.00000000000E+00  0.00000000000E+00  0.26487682751E+04  0.26487682751E+04  0.25500000000E-02 0. -1.
         -2   -1    0    0    0  501 -0.00000000000E+00 -0.00000000000E+00 -0.96790483703E+03  0.96790483703E+03  0.25500000000E-02 0.  1.
    8880023    1    1    2    0    0  0.23534435486E+03  0.61495426009E+03  0.24331483509E+04  0.26052978354E+04  0.65864270000E+03 0.  0.
    8880022    1    1    2    0    0 -0.23534435486E+03 -0.61495426009E+03 -0.75228491281E+03  0.10113752768E+04  0.15294330000E+03 0.  0.
<mgrwt>
<rscale>  0 0.85962523E+03</rscale>
<asrwt>0</asrwt>
<pdfrwt beam="1">  1        2 0.40750281E+00 0.93132482E+03</pdfrwt>
<pdfrwt beam="2">  1       -2 0.14890844E+00 0.93132482E+03</pdfrwt>
<totfact> 0.88789541E-01</totfact>
</mgrwt>
</event>
<event>
 4    2  0.3171963E-007  0.6834732E+03  0.7818608E-02  0.1007423E+00
         -2   -1    0    0    0  501 -0.00000000000E+00  0.00000000000E+00  0.67897746190E+03  0.67897746190E+03  0.25500000000E-02 0.  1.
          2   -1    0    0  501    0  0.00000000000E+00 -0.00000000000E+00 -0.58660399854E+03  0.58660399855E+03  0.25500000000E-02 0. -1.
    8880023    1    1    2    0    0 -0.16500886145E+03  0.78086740641E+02 -0.34647481438E+03  0.76627701694E+03  0.65864270000E+03 0. -1.
    8880022    1    1    2    0    0  0.16500886145E+03 -0.78086740641E+02  0.43884827774E+03  0.49930444351E+03  0.15294330000E+03 0.  0.
<mgrwt>
<rscale>  0 0.52511619E+03</rscale>
<asrwt>0</asrwt>
<pdfrwt beam="1">  1        2 0.90246769E-01 0.68347324E+03</pdfrwt>
<pdfrwt beam="2">  1       -2 0.10445807E+00 0.68347324E+03</pdfrwt>
<totfact> 0.38610088E+01</totfact>
</mgrwt>
</event>
<event>
 4    2  0.3171963E-007  0.1069729E+04  0.7818608E-02  0.9295532E-01
         -2   -1    0    0    0  501 -0.00000000000E+00  0.00000000000E+00  0.52149673587E+03  0.52149673587E+03  0.25500000000E-02 0.  1.
          2   -1    0    0  501    0  0.00000000000E+00 -0.00000000000E+00 -0.20980957164E+04  0.20980957164E+04  0.25500000000E-02 0. -1.
    8880023    1    1    2    0    0 -0.20819779609E+03 -0.81680106087E+03 -0.13703356832E+04  0.17384304376E+04  0.65864270000E+03 0. -1.
    8880022    1    1    2    0    0  0.20819779609E+03  0.81680106087E+03 -0.20626329734E+03  0.88116201471E+03  0.15294330000E+03 0.  0.
<mgrwt>
<rscale>  0 0.10119525E+04</rscale>
<asrwt>0</asrwt>
<pdfrwt beam="1">  1        2 0.32278395E+00 0.10697292E+04</pdfrwt>
<pdfrwt beam="2">  1       -2 0.80230268E-01 0.10697292E+04</pdfrwt>
<totfact> 0.80541117E+00</totfact>
</mgrwt>
</event>
<event>
 4    2  0.3171963E-007  0.7436496E+03  0.7818608E-02  0.9849441E-01
         -2   -1    0    0    0  501 -0.00000000000E+00  0.00000000000E+00  0.21715914309E+03  0.21715914310E+03  0.25500000000E-02 0.  1.
          2   -1    0    0  501    0  0.00000000000E+00 -0.00000000000E+00 -0.26092754108E+04  0.26092754108E+04  0.25500000000E-02 0. -1.
    8880023    1    1    2    0    0  0.33811209476E+03  0.69890853642E+02 -0.23273891947E+04  0.24433082470E+04  0.65864270000E+03 0. -1.
    8880022    1    1    2    0    0 -0.33811209476E+03 -0.69890853642E+02 -0.64727073023E+02  0.38312630691E+03  0.15294330000E+03 0.  0.
<mgrwt>
<rscale>  0 0.62775437E+03</rscale>
<asrwt>0</asrwt>
<pdfrwt beam="1">  1        2 0.40142696E+00 0.74364960E+03</pdfrwt>
<pdfrwt beam="2">  1       -2 0.33409101E-01 0.74364960E+03</pdfrwt>
<totfact> 0.26362715E+01</totfact>
</mgrwt>
</event>
<event>
 4    2  0.3171963E-007  0.7054831E+03  0.7818608E-02  0.9975173E-01
          2   -1    0    0  501    0  0.00000000000E+00  0.00000000000E+00  0.42879050102E+03  0.42879050102E+03  0.25500000000E-02 0. -1.
         -2   -1    0    0    0  501 -0.00000000000E+00 -0.00000000000E+00 -0.70117398016E+03  0.70117398016E+03  0.25500000000E-02 0.  1.
    8880023    1    1    2    0    0 -0.12596660943E+03  0.21915445836E+03  0.31430412765E+02  0.70618293694E+03  0.65864270000E+03 0.  1.
    8880022    1    1    2    0    0  0.12596660943E+03 -0.21915445836E+03 -0.30381389191E+03  0.42378154425E+03  0.15294330000E+03 0.  0.
<mgrwt>
<rscale>  0 0.56752402E+03</rscale>
<asrwt>0</asrwt>
<pdfrwt beam="1">  1        2 0.65967769E-01 0.70548315E+03</pdfrwt>
<pdfrwt beam="2">  1       -2 0.10787292E+00 0.70548315E+03</pdfrwt>
<totfact> 0.51343369E+01</totfact>
</mgrwt>
</event>
<event>
 4    2  0.3171963E-007  0.9327954E+03  0.7818608E-02  0.9475312E-01
         -2   -1    0    0    0  501 -0.00000000000E+00  0.00000000000E+00  0.62665658831E+03  0.62665658831E+03  0.25500000000E-02 0.  1.
          2   -1    0    0  501    0  0.00000000000E+00 -0.00000000000E+00 -0.13968071884E+04  0.13968071884E+04  0.25500000000E-02 0. -1.
    8880023    1    1    2    0    0 -0.22448395363E+03 -0.62121175490E+03 -0.94024449810E+03  0.13244497017E+04  0.65864270000E+03 0.  0.
    8880022    1    1    2    0    0  0.22448395363E+03  0.62121175490E+03  0.17009389804E+03  0.69901407499E+03  0.15294330000E+03 0.  0.
<mgrwt>
<rscale>  0 0.86128679E+03</rscale>
<asrwt>0</asrwt>
<pdfrwt beam="1">  1        2 0.21489341E+00 0.93279542E+03</pdfrwt>
<pdfrwt beam="2">  1       -2 0.96408706E-01 0.93279542E+03</pdfrwt>
<totfact> 0.13106736E+01</totfact>
</mgrwt>
</event>
<event>
 4    2  0.3171963E-007  0.1153065E+04  0.7818608E-02  0.9204154E-01
         -2   -1    0    0    0  501 -0.00000000000E+00  0.00000000000E+00  0.44241730306E+03  0.44241730307E+03  0.25500000000E-02 0.  1.
          2   -1    0    0  501    0  0.00000000000E+00 -0.00000000000E+00 -0.31984469149E+04  0.31984469149E+04  0.25500000000E-02 0. -1.
    8880023    1    1    2    0    0  0.82492038534E+03 -0.46395541816E+03 -0.23135336601E+04  0.25849557975E+04  0.65864270000E+03 0.  0.
    8880022    1    1    2    0    0 -0.82492038534E+03  0.46395541816E+03 -0.44249595176E+03  0.10559084205E+04  0.15294330000E+03 0.  0.
<mgrwt>
<rscale>  0 0.11010651E+04</rscale>
<asrwt>0</asrwt>
<pdfrwt beam="1">  1        2 0.49206874E+00 0.11530648E+04</pdfrwt>
<pdfrwt beam="2">  1       -2 0.68064202E-01 0.11530648E+04</pdfrwt>
<totfact> 0.25816575E+00</totfact>
</mgrwt>
</event>
<event>
 4    2  0.3171963E-007  0.8275842E+03  0.7818608E-02  0.9654051E-01
          2   -1    0    0  501    0  0.00000000000E+00  0.00000000000E+00  0.25408963152E+04  0.25408963152E+04  0.25500000000E-02 0. -1.
         -2   -1    0    0    0  501 -0.00000000000E+00 -0.00000000000E+00 -0.21072210219E+03  0.21072210220E+03  0.25500000000E-02 0.  1.
    8880023    1    1    2    0    0 -0.26786791330E+03 -0.42347621260E+03  0.19046452335E+04  0.20766725773E+04  0.65864270000E+03 0. -1.
    8880022    1    1    2    0    0  0.26786791330E+03  0.42347621260E+03  0.42552897946E+03  0.67494584004E+03  0.15294330000E+03 0.  0.
<mgrwt>
<rscale>  0 0.73819715E+03</rscale>
<asrwt>0</asrwt>
<pdfrwt beam="1">  1        2 0.39090714E+00 0.82758415E+03</pdfrwt>
<pdfrwt beam="2">  1       -2 0.32418784E-01 0.82758415E+03</pdfrwt>
<totfact> 0.30179175E+01</totfact>
</mgrwt>
</event>
<event>
 4    2  0.3171963E-007  0.9325164E+03  0.7818608E-02  0.9475728E-01
          2   -1    0    0  501    0  0.00000000000E+00  0.00000000000E+00  0.40087437426E+04  0.40087437426E+04  0.25500000000E-02 0. -1.
         -2   -1    0    0    0  501 -0.00000000000E+00 -0.00000000000E+00 -0.28566501216E+03  0.28566501217E+03  0.25500000000E-02 0.  1.
    8880023    1    1    2    0    0  0.53009461409E+03 -0.39341616136E+03  0.34328479626E+04  0.35572506119E+04  0.65864270000E+03 0.  0.
    8880022    1    1    2    0    0 -0.53009461409E+03  0.39341616136E+03  0.29023076791E+03  0.73715814285E+03  0.15294330000E+03 0.  0.
<mgrwt>
<rscale>  0 0.86097160E+03</rscale>
<asrwt>0</asrwt>
<pdfrwt beam="1">  1        2 0.61672981E+00 0.93251637E+03</pdfrwt>
<pdfrwt beam="2">  1       -2 0.43948463E-01 0.93251637E+03</pdfrwt>
<totfact> 0.17654043E+00</totfact>
</mgrwt>
</event>
<event>
 4    2  0.3171963E-007  0.8076987E+03  0.7818608E-02  0.9694390E-01
         -2   -1    0    0    0  501 -0.00000000000E+00  0.00000000000E+00  0.35232346730E+03  0.35232346731E+03  0.25500000000E-02 0.  1.
          2   -1    0    0  501    0  0.00000000000E+00 -0.00000000000E+00 -0.24420348857E+04  0.24420348857E+04  0.25500000000E-02 0. -1.
    8880023    1    1    2    0    0 -0.45308694908E+03  0.11523569556E+03 -0.21519574332E+04  0.22985425925E+04  0.65864270000E+03 0. -1.
    8880022    1    1    2    0    0  0.45308694908E+03 -0.11523569556E+03  0.62246014843E+02  0.49581576048E+03  0.15294330000E+03 0.  0.
<mgrwt>
<rscale>  0 0.71351763E+03</rscale>
<asrwt>0</asrwt>
<pdfrwt beam="1">  1        2 0.37569767E+00 0.80769874E+03</pdfrwt>
<pdfrwt beam="2">  1       -2 0.54203612E-01 0.80769874E+03</pdfrwt>
<totfact> 0.12496627E+01</totfact>
</mgrwt>
</event>
<event>
 4    2  0.3171963E-007  0.7341311E+03  0.7818608E-02  0.9877385E-01
         -2   -1    0    0    0  501 -0.00000000000E+00  0.00000000000E+00  0.46005291682E+03  0.46005291682E+03  0.25500000000E-02 0.  1.
          2   -1    0    0  501    0  0.00000000000E+00 -0.00000000000E+00 -0.96739235605E+03  0.96739235605E+03  0.25500000000E-02 0. -1.
    8880023    1    1    2    0    0 -0.31251324996E+03  0.86450708504E+02 -0.70519405241E+03  0.10179622361E+04  0.65864270000E+03 0.  0.
    8880022    1    1    2    0    0  0.31251324996E+03 -0.86450708504E+02  0.19785461318E+03  0.40948303673E+03  0.15294330000E+03 0.  1.
<mgrwt>
<rscale>  0 0.61369946E+03</rscale>
<asrwt>0</asrwt>
<pdfrwt beam="1">  1        2 0.14882959E+00 0.73413109E+03</pdfrwt>
<pdfrwt beam="2">  1       -2 0.70777372E-01 0.73413109E+03</pdfrwt>
<totfact> 0.48781576E+01</totfact>
</mgrwt>
</event>
<event>
 4    2  0.3171963E-007  0.6933931E+03  0.7818608E-02  0.1002580E+00
         -2   -1    0    0    0  501 -0.00000000000E+00  0.00000000000E+00  0.34999439706E+03  0.34999439707E+03  0.25500000000E-02 0.  1.
          2   -1    0    0  501    0  0.00000000000E+00 -0.00000000000E+00 -0.74025044324E+03  0.74025044324E+03  0.25500000000E-02 0. -1.
    8880023    1    1    2    0    0 -0.88177850187E+02  0.19801108103E+03 -0.43877726259E+03  0.82056042673E+03  0.65864270000E+03 0. -1.
    8880022    1    1    2    0    0  0.88177850187E+02 -0.19801108103E+03  0.48521216417E+02  0.26968441359E+03  0.15294330000E+03 0.  1.
<mgrwt>
<rscale>  0 0.54533353E+03</rscale>
<asrwt>0</asrwt>
<pdfrwt beam="1">  1        2 0.11388468E+00 0.69339305E+03</pdfrwt>
<pdfrwt beam="2">  1       -2 0.53845292E-01 0.69339305E+03</pdfrwt>
<totfact> 0.12577009E+02</totfact>
</mgrwt>
</event>
<event>
 4    2  0.3171963E-007  0.6966032E+03  0.7818608E-02  0.1001160E+00
          2   -1    0    0  501    0  0.00000000000E+00  0.00000000000E+00  0.16055836806E+04  0.16055836806E+04  0.25500000000E-02 0. -1.
         -2   -1    0    0    0  501 -0.00000000000E+00 -0.00000000000E+00 -0.29416413297E+03  0.29416413298E+03  0.25500000000E-02 0.  1.
    8880023    1    1    2    0    0  0.15078426787E+03  0.16943996622E+03  0.14383601076E+04  0.15981663878E+04  0.65864270000E+03 0. -1.
    8880022    1    1    2    0    0 -0.15078426787E+03 -0.16943996622E+03 -0.12694056001E+03  0.30158142578E+03  0.15294330000E+03 0.  0.
<mgrwt>
<rscale>  0 0.55144724E+03</rscale>
<asrwt>0</asrwt>
<pdfrwt beam="1">  1        2 0.24701287E+00 0.69660319E+03</pdfrwt>
<pdfrwt beam="2">  1       -2 0.45256021E-01 0.69660319E+03</pdfrwt>
<totfact> 0.52760243E+01</totfact>
</mgrwt>
</event>
<event>
 4    2  0.3171963E-007  0.6713658E+03  0.7818608E-02  0.1014702E+00
         -2   -1    0    0    0  501 -0.00000000000E+00  0.00000000000E+00  0.16147893598E+04  0.16147893598E+04  0.25500000000E-02 0.  1.
          2   -1    0    0  501    0  0.00000000000E+00 -0.00000000000E+00 -0.55686906384E+03  0.55686906384E+03  0.25500000000E-02 0. -1.
    8880023    1    1    2    0    0  0.87461288649E+02 -0.96292788685E+02 -0.34473790102E+03  0.75470272613E+03  0.65864270000E+03 0. -1.
    8880022    1    1    2    0    0 -0.87461288649E+02  0.96292788685E+02  0.14026581970E+04  0.14169556975E+04  0.15294330000E+03 0.  0.
<mgrwt>
<rscale>  0 0.49647869E+03</rscale>
<asrwt>0</asrwt>
<pdfrwt beam="1">  1        2 0.85672164E-01 0.67136576E+03</pdfrwt>
<pdfrwt beam="2">  1       -2 0.24842913E+00 0.67136576E+03</pdfrwt>
<totfact> 0.37110849E+00</totfact>
</mgrwt>
</event>
<event>
 4    2  0.3171963E-007  0.7622829E+03  0.7818608E-02  0.9799233E-01
          2   -1    0    0  501    0  0.00000000000E+00  0.00000000000E+00  0.14159178805E+04  0.14159178805E+04  0.25500000000E-02 0. -1.
         -2   -1    0    0    0  501 -0.00000000000E+00 -0.00000000000E+00 -0.32681996937E+03  0.32681996938E+03  0.25500000000E-02 0.  1.
    8880023    1    1    2    0    0  0.11803691054E+03 -0.36514695196E+03  0.10894241572E+04  0.13296316066E+04  0.65864270000E+03 0. -1.
    8880022    1    1    2    0    0 -0.11803691054E+03  0.36514695196E+03 -0.32624607708E+00  0.41310624326E+03  0.15294330000E+03 0. -1.
<mgrwt>
<rscale>  0 0.65403733E+03</rscale>
<asrwt>0</asrwt>
<pdfrwt beam="1">  1        2 0.21783352E+00 0.76228290E+03</pdfrwt>
<pdfrwt beam="2">  1       -2 0.50279996E-01 0.76228290E+03</pdfrwt>
<totfact> 0.54021765E+01</totfact>
</mgrwt>
</event>
<event>
 4    2  0.3171963E-007  0.7124011E+03  0.7818608E-02  0.9949191E-01
         -2   -1    0    0    0  501 -0.00000000000E+00  0.00000000000E+00  0.41055409001E+03  0.41055409002E+03  0.25500000000E-02 0.  1.
          2   -1    0    0  501    0  0.00000000000E+00 -0.00000000000E+00 -0.37110355675E+04  0.37110355675E+04  0.25500000000E-02 0. -1.
    8880023    1    1    2    0    0  0.21627380517E+03  0.16410589680E+03 -0.36116398035E+04  0.36812304167E+04  0.65864270000E+03 0. -1.
    8880022    1    1    2    0    0 -0.21627380517E+03 -0.16410589680E+03  0.31115832599E+03  0.44035924086E+03  0.15294330000E+03 0.  0.
<mgrwt>
<rscale>  0 0.57935402E+03</rscale>
<asrwt>0</asrwt>
<pdfrwt beam="1">  1        2 0.57092853E+00 0.71240109E+03</pdfrwt>
<pdfrwt beam="2">  1       -2 0.63162170E-01 0.71240109E+03</pdfrwt>
<totfact> 0.14728502E+00</totfact>
</mgrwt>
</event>
<event>
 4    2  0.3171963E-007  0.7534530E+03  0.7818608E-02  0.9822362E-01
         -2   -1    0    0    0  501 -0.00000000000E+00  0.00000000000E+00  0.22847267215E+03  0.22847267217E+03  0.25500000000E-02 0.  1.
          2   -1    0    0  501    0  0.00000000000E+00 -0.00000000000E+00 -0.18721235303E+04  0.18721235303E+04  0.25500000000E-02 0. -1.
    8880023    1    1    2    0    0 -0.27857316110E+03 -0.23723023014E+03 -0.53756095591E+03  0.92556100596E+03  0.65864270000E+03 0.  0.
    8880022    1    1    2    0    0  0.27857316110E+03  0.23723023014E+03 -0.11060899023E+04  0.11750351965E+04  0.15294330000E+03 0.  0.
<mgrwt>
<rscale>  0 0.64176176E+03</rscale>
<asrwt>0</asrwt>
<pdfrwt beam="1">  1        2 0.28801900E+00 0.75345298E+03</pdfrwt>
<pdfrwt beam="2">  1       -2 0.35149643E-01 0.75345298E+03</pdfrwt>
<totfact> 0.61347939E+01</totfact>
</mgrwt>
</event>
<event>
 4    2  0.3171963E-007  0.7233892E+03  0.7818608E-02  0.9911281E-01
         -2   -1    0    0    0  501 -0.00000000000E+00  0.00000000000E+00  0.22713488512E+03  0.22713488513E+03  0.25500000000E-02 0.  1.
          2   -1    0    0  501    0  0.00000000000E+00 -0.00000000000E+00 -0.15785335687E+04  0.15785335687E+04  0.25500000000E-02 0. -1.
    8880023    1    1    2    0    0 -0.28647952265E+03 -0.86088381120E+02 -0.12674758245E+04  0.14593789426E+04  0.65864270000E+03 0. -1.
    8880022    1    1    2    0    0  0.28647952265E+03  0.86088381120E+02 -0.83922859074E+02  0.34628951118E+03  0.15294330000E+03 0.  0.
<mgrwt>
<rscale>  0 0.59717684E+03</rscale>
<asrwt>0</asrwt>
<pdfrwt beam="1">  1        2 0.24285131E+00 0.72338920E+03</pdfrwt>
<pdfrwt beam="2">  1       -2 0.34943829E-01 0.72338920E+03</pdfrwt>
<totfact> 0.90079059E+01</totfact>
</mgrwt>
</event>
<event>
 4    2  0.3171963E-007  0.6655953E+03  0.7818608E-02  0.1019039E+00
          2   -1    0    0  501    0  0.00000000000E+00  0.00000000000E+00  0.53437720174E+03  0.53437720174E+03  0.25500000000E-02 0. -1.
         -2   -1    0    0    0  501 -0.00000000000E+00 -0.00000000000E+00 -0.62847772150E+03  0.62847772150E+03  0.25500000000E-02 0.  1.
    8880023    1    1    2    0    0 -0.13700766930E+02 -0.94969046778E+02  0.29945789577E+03  0.72985756724E+03  0.65864270000E+03 0. -1.
    8880022    1    1    2    0    0  0.13700766930E+02  0.94969046778E+02 -0.39355841553E+03  0.43299735601E+03  0.15294330000E+03 0.  0.
<mgrwt>
<rscale>  0 0.48034949E+03</rscale>
<asrwt>0</asrwt>
<pdfrwt beam="1">  1        2 0.82211877E-01 0.66559525E+03</pdfrwt>
<pdfrwt beam="2">  1       -2 0.96688880E-01 0.66559525E+03</pdfrwt>
<totfact> 0.51857611E+01</totfact>
</mgrwt>
</event>
<event>
 4    2  0.3171963E-007  0.8181431E+03  0.7818608E-02  0.9672858E-01
         -2   -1    0    0    0  501 -0.00000000000E+00  0.00000000000E+00  0.27152778524E+03  0.27152778526E+03  0.25500000000E-02 0.  1.
          2   -1    0    0  501    0  0.00000000000E+00 -0.00000000000E+00 -0.17833082691E+04  0.17833082691E+04  0.25500000000E-02 0. -1.
    8880023    1    1    2    0    0  0.44589689645E+03 -0.19163479971E+03 -0.12179663499E+04  0.14672423707E+04  0.65864270000E+03 0.  0.
    8880022    1    1    2    0    0 -0.44589689645E+03  0.19163479971E+03 -0.29381413399E+03  0.58759368366E+03  0.15294330000E+03 0.  0.
<mgrwt>
<rscale>  0 0.72656047E+03</rscale>
<asrwt>0</asrwt>
<pdfrwt beam="1">  1        2 0.27435511E+00 0.81814311E+03</pdfrwt>
<pdfrwt beam="2">  1       -2 0.41773507E-01 0.81814311E+03</pdfrwt>
<totfact> 0.48759034E+01</totfact>
</mgrwt>
</event>
<event>
 4    2  0.3171963E-007  0.6935668E+03  0.7818608E-02  0.1002501E+00
         -2   -1    0    0    0  501 -0.00000000000E+00  0.00000000000E+00  0.80714887895E+03  0.80714887896E+03  0.25500000000E-02 0.  1.
          2   -1    0    0  501    0  0.00000000000E+00 -0.00000000000E+00 -0.10607488312E+04  0.10607488312E+04  0.25500000000E-02 0. -1.
    8880023    1    1    2    0    0  0.17359253529E+03 -0.13072990480E+03 -0.91902985259E+03  0.11513690775E+04  0.65864270000E+03 0. -1.
    8880022    1    1    2    0    0 -0.17359253529E+03  0.13072990480E+03  0.66542990030E+03  0.71652863275E+03  0.15294330000E+03 0.  0.
<mgrwt>
<rscale>  0 0.54566909E+03</rscale>
<asrwt>0</asrwt>
<pdfrwt beam="1">  1        2 0.16319213E+00 0.69356678E+03</pdfrwt>
<pdfrwt beam="2">  1       -2 0.12417675E+00 0.69356678E+03</pdfrwt>
<totfact> 0.11516351E+01</totfact>
</mgrwt>
</event>
<event>
 4    2  0.3171963E-007  0.7042941E+03  0.7818608E-02  0.9979833E-01
          2   -1    0    0  501    0  0.00000000000E+00  0.00000000000E+00  0.63317265333E+03  0.63317265333E+03  0.25500000000E-02 0. -1.
         -2   -1    0    0    0  501 -0.00000000000E+00 -0.00000000000E+00 -0.58463766474E+03  0.58463766475E+03  0.25500000000E-02 0.  1.
    8880023    1    1    2    0    0 -0.24428937885E+03  0.50425098995E+02  0.35957699925E+03  0.79077545225E+03  0.65864270000E+03 0.  0.
    8880022    1    1    2    0    0  0.24428937885E+03 -0.50425098995E+02 -0.31104201066E+03  0.42703486584E+03  0.15294330000E+03 0.  0.
<mgrwt>
<rscale>  0 0.56543430E+03</rscale>
<asrwt>0</asrwt>
<pdfrwt beam="1">  1        2 0.97411178E-01 0.70429411E+03</pdfrwt>
<pdfrwt beam="2">  1       -2 0.89944256E-01 0.70429411E+03</pdfrwt>
<totfact> 0.49935293E+01</totfact>
</mgrwt>
</event>
<event>
 4    2  0.3171963E-007  0.1324370E+04  0.7818608E-02  0.9044795E-01
          2   -1    0    0  501    0  0.00000000000E+00  0.00000000000E+00  0.19313605311E+04  0.19313605311E+04  0.25500000000E-02 0. -1.
         -2   -1    0    0    0  501 -0.00000000000E+00 -0.00000000000E+00 -0.81444341285E+03  0.81444341285E+03  0.25500000000E-02 0.  1.
    8880023    1    1    2    0    0 -0.20883108806E+02 -0.11487863015E+04  0.78740169147E+03  0.15407652971E+04  0.65864270000E+03 0.  1.
    8880022    1    1    2    0    0  0.20883108806E+02  0.11487863015E+04  0.32951542676E+03  0.12050386468E+04  0.15294330000E+03 0.  0.
<mgrwt>
<rscale>  0 0.12809680E+04</rscale>
<asrwt>0</asrwt>
<pdfrwt beam="1">  1        2 0.29713239E+00 0.13243701E+04</pdfrwt>
<pdfrwt beam="2">  1       -2 0.12529899E+00 0.13243701E+04</pdfrwt>
<totfact> 0.33497754E+00</totfact>
</mgrwt>
</event>
<event>
 4    2  0.3171963E-007  0.6619137E+03  0.7818608E-02  0.1022276E+00
         -2   -1    0    0    0  501 -0.00000000000E+00  0.00000000000E+00  0.64311796270E+02  0.64311796320E+02  0.25500000000E-02 0.  1.
          2   -1    0    0  501    0  0.00000000000E+00 -0.00000000000E+00 -0.26693658424E+04  0.26693658424E+04  0.25500000000E-02 0. -1.
    8880023    1    1    2    0    0  0.37619259869E+02  0.53892456265E+02 -0.21097514240E+04  0.22111492222E+04  0.65864270000E+03 0.  1.
    8880022    1    1    2    0    0 -0.37619259869E+02 -0.53892456265E+02 -0.49530262211E+03  0.52252841649E+03  0.15294330000E+03 0.  0.
<mgrwt>
<rscale>  0 0.46874115E+03</rscale>
<asrwt>0</asrwt>
<pdfrwt beam="1">  1        2 0.41067158E+00 0.66191375E+03</pdfrwt>
<pdfrwt beam="2">  1       -2 0.98941246E-02 0.66191375E+03</pdfrwt>
<totfact> 0.20377751E+02</totfact>
</mgrwt>
</event>
<event>
 4    2  0.3171963E-007  0.6841240E+03  0.7818608E-02  0.1007081E+00
         -2   -1    0    0    0  501 -0.00000000000E+00  0.00000000000E+00  0.27747326283E+03  0.27747326284E+03  0.25500000000E-02 0.  1.
          2   -1    0    0  501    0  0.00000000000E+00 -0.00000000000E+00 -0.14414720565E+04  0.14414720566E+04  0.25500000000E-02 0. -1.
    8880023    1    1    2    0    0  0.79224017986E+02 -0.16714967845E+03 -0.12807699928E+04  0.14520321762E+04  0.65864270000E+03 0. -1.
    8880022    1    1    2    0    0 -0.79224017986E+02  0.16714967845E+03  0.11677119911E+03  0.26691314315E+03  0.15294330000E+03 0.  0.
<mgrwt>
<rscale>  0 0.52651487E+03</rscale>
<asrwt>0</asrwt>
<pdfrwt beam="1">  1        2 0.22176493E+00 0.68412401E+03</pdfrwt>
<pdfrwt beam="2">  1       -2 0.42688195E-01 0.68412401E+03</pdfrwt>
<totfact> 0.73135751E+01</totfact>
</mgrwt>
</event>
<event>
 4    2  0.3171963E-007  0.7958899E+03  0.7818608E-02  0.9719754E-01
          2   -1    0    0  501    0  0.00000000000E+00  0.00000000000E+00  0.20471927677E+04  0.20471927677E+04  0.25500000000E-02 0. -1.
         -2   -1    0    0    0  501 -0.00000000000E+00 -0.00000000000E+00 -0.69630836953E+03  0.69630836954E+03  0.25500000000E-02 0.  1.
    8880023    1    1    2    0    0  0.13718274593E+03  0.42521924702E+03  0.18756511731E+04  0.20375249798E+04  0.65864270000E+03 0. -1.
    8880022    1    1    2    0    0 -0.13718274593E+03 -0.42521924702E+03 -0.52476677493E+03  0.70597615746E+03  0.15294330000E+03 0.  0.
<mgrwt>
<rscale>  0 0.69852708E+03</rscale>
<asrwt>0</asrwt>
<pdfrwt beam="1">  1        2 0.31495273E+00 0.79588989E+03</pdfrwt>
<pdfrwt beam="2">  1       -2 0.10712437E+00 0.79588989E+03</pdfrwt>
<totfact> 0.45357005E+00</totfact>
</mgrwt>
</event>
<event>
 4    2  0.3171963E-007  0.9491002E+03  0.7818608E-02  0.9451410E-01
          2   -1    0    0  501    0  0.00000000000E+00  0.00000000000E+00  0.15927206876E+04  0.15927206876E+04  0.25500000000E-02 0. -1.
         -2   -1    0    0    0  501 -0.00000000000E+00 -0.00000000000E+00 -0.11212351660E+04  0.11212351660E+04  0.25500000000E-02 0.  1.
    8880023    1    1    2    0    0 -0.44467621721E+03 -0.51888725999E+03  0.13124145991E+04  0.16196367533E+04  0.65864270000E+03 0.  0.
    8880022    1    1    2    0    0  0.44467621721E+03  0.51888725999E+03 -0.84092907749E+03  0.10943191002E+04  0.15294330000E+03 0.  0.
<mgrwt>
<rscale>  0 0.87962955E+03</rscale>
<asrwt>0</asrwt>
<pdfrwt beam="1">  1        2 0.24503395E+00 0.94910017E+03</pdfrwt>
<pdfrwt beam="2">  1       -2 0.17249772E+00 0.94910017E+03</pdfrwt>
<totfact> 0.23032565E+00</totfact>
</mgrwt>
</event>
<event>
 4    2  0.3171963E-007  0.7081379E+03  0.7818608E-02  0.9964982E-01
          2   -1    0    0  501    0  0.00000000000E+00  0.00000000000E+00  0.10522768899E+04  0.10522768899E+04  0.25500000000E-02 0. -1.
         -2   -1    0    0    0  501 -0.00000000000E+00 -0.00000000000E+00 -0.30092374714E+03  0.30092374715E+03  0.25500000000E-02 0.  1.
    8880023    1    1    2    0    0 -0.14942356941E+03  0.21288896810E+03  0.77590919680E+03  0.10504734189E+04  0.65864270000E+03 0.  1.
    8880022    1    1    2    0    0  0.14942356941E+03 -0.21288896810E+03 -0.24556054022E+02  0.30272721820E+03  0.15294330000E+03 0.  0.
<mgrwt>
<rscale>  0 0.57212758E+03</rscale>
<asrwt>0</asrwt>
<pdfrwt beam="1">  1        2 0.16188875E+00 0.70813793E+03</pdfrwt>
<pdfrwt beam="2">  1       -2 0.46295961E-01 0.70813793E+03</pdfrwt>
<totfact> 0.10495992E+02</totfact>
</mgrwt>
</event>
<event>
 4    2  0.3171963E-007  0.9066090E+03  0.7818608E-02  0.9515504E-01
          2   -1    0    0  501    0  0.00000000000E+00  0.00000000000E+00  0.29705805422E+04  0.29705805422E+04  0.25500000000E-02 0. -1.
         -2   -1    0    0    0  501 -0.00000000000E+00 -0.00000000000E+00 -0.70861433813E+03  0.70861433813E+03  0.25500000000E-02 0.  1.
    8880023    1    1    2    0    0 -0.42202661479E+03 -0.45828285214E+03  0.27355192606E+04  0.28818406388E+04  0.65864270000E+03 0.  0.
    8880022    1    1    2    0    0  0.42202661479E+03  0.45828285214E+03 -0.47355305651E+03  0.79735424154E+03  0.15294330000E+03 0.  0.
<mgrwt>
<rscale>  0 0.83150344E+03</rscale>
<asrwt>0</asrwt>
<pdfrwt beam="1">  1        2 0.45701239E+00 0.90660898E+03</pdfrwt>
<pdfrwt beam="2">  1       -2 0.10901759E+00 0.90660898E+03</pdfrwt>
<totfact> 0.12616584E+00</totfact>
</mgrwt>
</event>
<event>
 4    2  0.3171963E-007  0.1031054E+04  0.7818608E-02  0.9342012E-01
          2   -1    0    0  501    0  0.00000000000E+00  0.00000000000E+00  0.61674592175E+03  0.61674592176E+03  0.25500000000E-02 0. -1.
         -2   -1    0    0    0  501 -0.00000000000E+00 -0.00000000000E+00 -0.15111075084E+04  0.15111075084E+04  0.25500000000E-02 0.  1.
    8880023    1    1    2    0    0  0.56467203216E+03 -0.55714178745E+03 -0.81848116889E+03  0.13164281618E+04  0.65864270000E+03 0.  0.
    8880022    1    1    2    0    0 -0.56467203216E+03  0.55714178745E+03 -0.75880417745E+02  0.81142526830E+03  0.15294330000E+03 0.  0.
<mgrwt>
<rscale>  0 0.97005478E+03</rscale>
<asrwt>0</asrwt>
<pdfrwt beam="1">  1        2 0.94883988E-01 0.10310537E+04</pdfrwt>
<pdfrwt beam="2">  1       -2 0.23247808E+00 0.10310537E+04</pdfrwt>
<totfact> 0.39323753E+00</totfact>
</mgrwt>
</event>
<event>
 4    2  0.3171963E-007  0.1001871E+04  0.7818608E-02  0.9379114E-01
         -2   -1    0    0    0  501 -0.00000000000E+00  0.00000000000E+00  0.11573475859E+04  0.11573475859E+04  0.25500000000E-02 0.  1.
          2   -1    0    0  501    0  0.00000000000E+00 -0.00000000000E+00 -0.72662179606E+03  0.72662179606E+03  0.25500000000E-02 0. -1.
    8880023    1    1    2    0    0 -0.38937420807E+03  0.64677930565E+03  0.48240051787E+03  0.11119605254E+04  0.65864270000E+03 0.  1.
    8880022    1    1    2    0    0  0.38937420807E+03 -0.64677930565E+03 -0.51674728014E+02  0.77200885659E+03  0.15294330000E+03 0. -1.
<mgrwt>
<rscale>  0 0.93814664E+03</rscale>
<asrwt>0</asrwt>
<pdfrwt beam="1">  1        2 0.11178797E+00 0.10018712E+04</pdfrwt>
<pdfrwt beam="2">  1       -2 0.17805347E+00 0.10018712E+04</pdfrwt>
<totfact> 0.72509773E+00</totfact>
</mgrwt>
</event>
<event>
 4    2  0.3171963E-007  0.8358184E+03  0.7818608E-02  0.9638116E-01
          2   -1    0    0  501    0  0.00000000000E+00  0.00000000000E+00  0.10992072394E+04  0.10992072394E+04  0.25500000000E-02 0. -1.
         -2   -1    0    0    0  501 -0.00000000000E+00 -0.00000000000E+00 -0.60923046238E+03  0.60923046238E+03  0.25500000000E-02 0.  1.
    8880023    1    1    2    0    0  0.48900663880E+03  0.16017068577E+03 -0.17487772671E+03  0.85391718974E+03  0.65864270000E+03 0.  1.
    8880022    1    1    2    0    0 -0.48900663880E+03 -0.16017068577E+03  0.66485450377E+03  0.85452051208E+03  0.15294330000E+03 0. -1.
<mgrwt>
<rscale>  0 0.74823970E+03</rscale>
<asrwt>0</asrwt>
<pdfrwt beam="1">  1        2 0.16910880E+00 0.83581837E+03</pdfrwt>
<pdfrwt beam="2">  1       -2 0.93727765E-01 0.83581837E+03</pdfrwt>
<totfact> 0.21164176E+01</totfact>
</mgrwt>
</event>
<event>
 4    2  0.3171963E-007  0.9710370E+03  0.7818608E-02  0.9420471E-01
          2   -1    0    0  501    0  0.00000000000E+00  0.00000000000E+00  0.15059890498E+04  0.15059890498E+04  0.25500000000E-02 0. -1.
         -2   -1    0    0    0  501 -0.00000000000E+00 -0.00000000000E+00 -0.10066812388E+04  0.10066812388E+04  0.25500000000E-02 0.  1.
    8880023    1    1    2    0    0 -0.13183165322E+03 -0.70122973868E+03  0.11707492468E+04  0.15210413329E+04  0.65864270000E+03 0. -1.
    8880022    1    1    2    0    0  0.13183165322E+03  0.70122973868E+03 -0.67144143581E+03  0.99162895578E+03  0.15294330000E+03 0.  0.
<mgrwt>
<rscale>  0 0.90409950E+03</rscale>
<asrwt>0</asrwt>
<pdfrwt beam="1">  1        2 0.23169062E+00 0.97103704E+03</pdfrwt>
<pdfrwt beam="2">  1       -2 0.15487404E+00 0.97103704E+03</pdfrwt>
<totfact> 0.34517907E+00</totfact>
</mgrwt>
</event>
<event>
 4    2  0.3171963E-007  0.7312300E+03  0.7818608E-02  0.9886272E-01
         -2   -1    0    0    0  501 -0.00000000000E+00  0.00000000000E+00  0.25451740591E+03  0.25451740593E+03  0.25500000000E-02 0.  1.
          2   -1    0    0  501    0  0.00000000000E+00 -0.00000000000E+00 -0.14943624614E+04  0.14943624614E+04  0.25500000000E-02 0. -1.
    8880023    1    1    2    0    0 -0.30519621612E+03 -0.87991167484E+02 -0.11845049510E+04  0.13920306610E+04  0.65864270000E+03 0.  0.
    8880022    1    1    2    0    0  0.30519621612E+03  0.87991167484E+02 -0.55340104485E+02  0.35684920635E+03  0.15294330000E+03 0.  0.
<mgrwt>
<rscale>  0 0.60931261E+03</rscale>
<asrwt>0</asrwt>
<pdfrwt beam="1">  1        2 0.22990191E+00 0.73123005E+03</pdfrwt>
<pdfrwt beam="2">  1       -2 0.39156525E-01 0.73123005E+03</pdfrwt>
<totfact> 0.80522079E+01</totfact>
</mgrwt>
</event>
<event>
 4    2  0.3171963E-007  0.8647406E+03  0.7818608E-02  0.9585186E-01
          2   -1    0    0  501    0  0.00000000000E+00  0.00000000000E+00  0.14495393697E+04  0.14495393697E+04  0.25500000000E-02 0. -1.
         -2   -1    0    0    0  501 -0.00000000000E+00 -0.00000000000E+00 -0.43316534176E+03  0.43316534177E+03  0.25500000000E-02 0.  1.
    8880023    1    1    2    0    0 -0.36247975259E+03  0.42728733305E+03  0.97080965132E+03  0.13000952355E+04  0.65864270000E+03 0.  0.
    8880022    1    1    2    0    0  0.36247975259E+03 -0.42728733305E+03  0.45564376596E+02  0.58260947594E+03  0.15294330000E+03 0.  0.
<mgrwt>
<rscale>  0 0.78284485E+03</rscale>
<asrwt>0</asrwt>
<pdfrwt beam="1">  1        2 0.22300606E+00 0.86474056E+03</pdfrwt>
<pdfrwt beam="2">  1       -2 0.66640821E-01 0.86474056E+03</pdfrwt>
<totfact> 0.28335251E+01</totfact>
</mgrwt>
</event>
<event>
 4    2  0.3171963E-007  0.1066948E+04  0.7818608E-02  0.9298779E-01
         -2   -1    0    0    0  501 -0.00000000000E+00  0.00000000000E+00  0.62485722484E+03  0.62485722484E+03  0.25500000000E-02 0.  1.
          2   -1    0    0  501    0  0.00000000000E+00 -0.00000000000E+00 -0.20291430237E+04  0.20291430237E+04  0.25500000000E-02 0. -1.
    8880023    1    1    2    0    0  0.62217227605E+02 -0.83707675712E+03 -0.14492155268E+04  0.17996122721E+04  0.65864270000E+03 0. -1.
    8880022    1    1    2    0    0 -0.62217227605E+02  0.83707675712E+03  0.44929727925E+02  0.85438797639E+03  0.15294330000E+03 0.  0.
<mgrwt>
<rscale>  0 0.10089531E+04</rscale>
<asrwt>0</asrwt>
<pdfrwt beam="1">  1        2 0.31217585E+00 0.10669483E+04</pdfrwt>
<pdfrwt beam="2">  1       -2 0.96131882E-01 0.10669483E+04</pdfrwt>
<totfact> 0.57961160E+00</totfact>
</mgrwt>
</event>
<event>
 4    2  0.3171963E-007  0.8091886E+03  0.7818608E-02  0.9691269E-01
         -2   -1    0    0    0  501 -0.00000000000E+00  0.00000000000E+00  0.72025981282E+03  0.72025981283E+03  0.25500000000E-02 0.  1.
          2   -1    0    0  501    0  0.00000000000E+00 -0.00000000000E+00 -0.32644256815E+04  0.32644256816E+04  0.25500000000E-02 0. -1.
    8880023    1    1    2    0    0  0.23658076534E+03  0.40620879324E+03 -0.31214729356E+04  0.32246518473E+04  0.65864270000E+03 0. -1.
    8880022    1    1    2    0    0 -0.23658076534E+03 -0.40620879324E+03  0.57730706688E+03  0.76003364709E+03  0.15294330000E+03 0.  0.
<mgrwt>
<rscale>  0 0.71538990E+03</rscale>
<asrwt>0</asrwt>
<pdfrwt beam="1">  1        2 0.50221933E+00 0.80918864E+03</pdfrwt>
<pdfrwt beam="2">  1       -2 0.11080920E+00 0.80918864E+03</pdfrwt>
<totfact> 0.80803904E-01</totfact>
</mgrwt>
</event>
<event>
 4    2  0.3171963E-007  0.7521863E+03  0.7818608E-02  0.9825773E-01
          2   -1    0    0  501    0  0.00000000000E+00  0.00000000000E+00  0.40669807590E+03  0.40669807590E+03  0.25500000000E-02 0. -1.
         -2   -1    0    0    0  501 -0.00000000000E+00 -0.00000000000E+00 -0.15859411881E+04  0.15859411881E+04  0.25500000000E-02 0.  1.
    8880023    1    1    2    0    0 -0.31754020036E+03 -0.17647160750E+03 -0.30874237988E+01  0.75219262529E+03  0.65864270000E+03 0.  0.
    8880022    1    1    2    0    0  0.31754020036E+03  0.17647160750E+03 -0.11761556884E+04  0.12404466387E+04  0.15294330000E+03 0.  0.
<mgrwt>
<rscale>  0 0.63997563E+03</rscale>
<asrwt>0</asrwt>
<pdfrwt beam="1">  1        2 0.62568936E-01 0.75218629E+03</pdfrwt>
<pdfrwt beam="2">  1       -2 0.24399095E+00 0.75218629E+03</pdfrwt>
<totfact> 0.56077868E+00</totfact>
</mgrwt>
</event>
<event>
 4    2  0.3171963E-007  0.1309971E+04  0.7818608E-02  0.9056997E-01
         -2   -1    0    0    0  501 -0.00000000000E+00  0.00000000000E+00  0.17477914512E+04  0.17477914512E+04  0.25500000000E-02 0.  1.
          2   -1    0    0  501    0  0.00000000000E+00 -0.00000000000E+00 -0.10371183852E+04  0.10371183852E+04  0.25500000000E-02 0. -1.
    8880023    1    1    2    0    0 -0.10063607863E+04  0.51908758663E+03  0.94911386117E+03  0.16176653802E+04  0.65864270000E+03 0.  0.
    8880022    1    1    2    0    0  0.10063607863E+04 -0.51908758663E+03 -0.23844079516E+03  0.11672444562E+04  0.15294330000E+03 0.  0.
<mgrwt>
<rscale>  0 0.12659681E+04</rscale>
<asrwt>0</asrwt>
<pdfrwt beam="1">  1        2 0.15955667E+00 0.13099711E+04</pdfrwt>
<pdfrwt beam="2">  1       -2 0.26889099E+00 0.13099711E+04</pdfrwt>
<totfact> 0.11317517E+00</totfact>
</mgrwt>
</event>
<event>
 4    2  0.3171963E-007  0.7664386E+03  0.7818608E-02  0.9788715E-01
         -2   -1    0    0    0  501 -0.00000000000E+00  0.00000000000E+00  0.40631371322E+03  0.40631371323E+03  0.25500000000E-02 0.  1.
          2   -1    0    0  501    0  0.00000000000E+00 -0.00000000000E+00 -0.13828478348E+04  0.13828478348E+04  0.25500000000E-02 0. -1.
    8880023    1    1    2    0    0  0.35669439536E+03 -0.16244078283E+03 -0.45862083553E+02  0.76780950540E+03  0.65864270000E+03 0.  1.
    8880022    1    1    2    0    0 -0.35669439536E+03  0.16244078283E+03 -0.93067203805E+03  0.10213520427E+04  0.15294330000E+03 0.  0.
<mgrwt>
<rscale>  0 0.65971690E+03</rscale>
<asrwt>0</asrwt>
<pdfrwt beam="1">  1        2 0.21274582E+00 0.76643859E+03</pdfrwt>
<pdfrwt beam="2">  1       -2 0.62509803E-01 0.76643859E+03</pdfrwt>
<totfact> 0.35814276E+01</totfact>
</mgrwt>
</event>
<event>
 4    2  0.3171963E-007  0.6702016E+03  0.7818608E-02  0.1015519E+00
         -2   -1    0    0    0  501 -0.00000000000E+00  0.00000000000E+00  0.25710668464E+03  0.25710668465E+03  0.25500000000E-02 0.  1.
          2   -1    0    0  501    0  0.00000000000E+00 -0.00000000000E+00 -0.76256388921E+03  0.76256388921E+03  0.25500000000E-02 0. -1.
    8880023    1    1    2    0    0  0.84440449373E+02  0.90717908339E+02 -0.47264702395E+03  0.82010081325E+03  0.65864270000E+03 0. -1.
    8880022    1    1    2    0    0 -0.84440449373E+02 -0.90717908339E+02 -0.32810180615E+02  0.19956976061E+03  0.15294330000E+03 0.  1.
<mgrwt>
<rscale>  0 0.49338990E+03</rscale>
<asrwt>0</asrwt>
<pdfrwt beam="1">  1        2 0.11731752E+00 0.67020156E+03</pdfrwt>
<pdfrwt beam="2">  1       -2 0.39554875E-01 0.67020156E+03</pdfrwt>
<totfact> 0.22472314E+02</totfact>
</mgrwt>
</event>
<event>
 4    2  0.3171963E-007  0.6995681E+03  0.7818608E-02  0.9998998E-01
          2   -1    0    0  501    0  0.00000000000E+00  0.00000000000E+00  0.32601287539E+04  0.32601287539E+04  0.25500000000E-02 0. -1.
         -2   -1    0    0    0  501 -0.00000000000E+00 -0.00000000000E+00 -0.79619141303E+02  0.79619141344E+02  0.25500000000E-02 0.  1.
    8880023    1    1    2    0    0 -0.22475130217E+03  0.71219224342E+02  0.26326872516E+04  0.27240480350E+04  0.65864270000E+03 0.  0.
    8880022    1    1    2    0    0  0.22475130217E+03 -0.71219224342E+02  0.54782236103E+03  0.61569986033E+03  0.15294330000E+03 0.  0.
<mgrwt>
<rscale>  0 0.55694212E+03</rscale>
<asrwt>0</asrwt>
<pdfrwt beam="1">  1        2 0.50155844E+00 0.69956810E+03</pdfrwt>
<pdfrwt beam="2">  1       -2 0.12249094E-01 0.69956810E+03</pdfrwt>
<totfact> 0.62513151E+01</totfact>
</mgrwt>
</event>
<event>
 4    2  0.3171963E-007  0.1030449E+04  0.7818608E-02  0.9342762E-01
          2   -1    0    0  501    0  0.00000000000E+00  0.00000000000E+00  0.73689045100E+03  0.73689045101E+03  0.25500000000E-02 0. -1.
         -2   -1    0    0    0  501 -0.00000000000E+00 -0.00000000000E+00 -0.14982818229E+04  0.14982818229E+04  0.25500000000E-02 0.  1.
    8880023    1    1    2    0    0  0.69282835366E+03 -0.38471206441E+03  0.12311340211E+03  0.10377772479E+04  0.65864270000E+03 0.  0.
    8880022    1    1    2    0    0 -0.69282835366E+03  0.38471206441E+03 -0.88450477396E+03  0.11973950260E+04  0.15294330000E+03 0.  0.
<mgrwt>
<rscale>  0 0.96939615E+03</rscale>
<asrwt>0</asrwt>
<pdfrwt beam="1">  1        2 0.11336776E+00 0.10304488E+04</pdfrwt>
<pdfrwt beam="2">  1       -2 0.23050489E+00 0.10304488E+04</pdfrwt>
<totfact> 0.32320845E+00</totfact>
</mgrwt>
</event>
<event>
 4    2  0.3171963E-007  0.7790926E+03  0.7818608E-02  0.9757973E-01
         -2   -1    0    0    0  501 -0.00000000000E+00  0.00000000000E+00  0.99575184638E+02  0.99575184671E+02  0.25500000000E-02 0.  1.
          2   -1    0    0  501    0  0.00000000000E+00 -0.00000000000E+00 -0.42997588315E+04  0.42997588315E+04  0.25500000000E-02 0. -1.
    8880023    1    1    2    0    0 -0.31867456545E+03  0.26762202201E+03 -0.33622703310E+04  0.34513543733E+04  0.65864270000E+03 0.  0.
    8880022    1    1    2    0    0  0.31867456545E+03 -0.26762202201E+03 -0.83791331590E+03  0.94797964287E+03  0.15294330000E+03 0.  0.
<mgrwt>
<rscale>  0 0.67667563E+03</rscale>
<asrwt>0</asrwt>
<pdfrwt beam="1">  1        2 0.66150122E+00 0.77909257E+03</pdfrwt>
<pdfrwt beam="2">  1       -2 0.15319263E-01 0.77909257E+03</pdfrwt>
<totfact> 0.71332808E+00</totfact>
</mgrwt>
</event>
<event>
 4    2  0.3171963E-007  0.8790302E+03  0.7818608E-02  0.9560570E-01
         -2   -1    0    0    0  501 -0.00000000000E+00  0.00000000000E+00  0.75414246627E+03  0.75414246627E+03  0.25500000000E-02 0.  1.
          2   -1    0    0  501    0  0.00000000000E+00 -0.00000000000E+00 -0.18681810656E+04  0.18681810656E+04  0.25500000000E-02 0. -1.
    8880023    1    1    2    0    0  0.53814754454E+02  0.57964452279E+03 -0.16153299859E+04  0.18390173926E+04  0.65864270000E+03 0.  0.
    8880022    1    1    2    0    0 -0.53814754454E+02 -0.57964452279E+03  0.50129138657E+03  0.78330613930E+03  0.15294330000E+03 0.  0.
<mgrwt>
<rscale>  0 0.79961824E+03</rscale>
<asrwt>0</asrwt>
<pdfrwt beam="1">  1        2 0.28741247E+00 0.87903015E+03</pdfrwt>
<pdfrwt beam="2">  1       -2 0.11602192E+00 0.87903015E+03</pdfrwt>
<totfact> 0.46241077E+00</totfact>
</mgrwt>
</event>
<event>
 4    2  0.3171963E-007  0.6979103E+03  0.7818608E-02  0.1000598E+00
          2   -1    0    0  501    0  0.00000000000E+00  0.00000000000E+00  0.11847636355E+04  0.11847636355E+04  0.25500000000E-02 0. -1.
         -2   -1    0    0    0  501 -0.00000000000E+00 -0.00000000000E+00 -0.23465943236E+03  0.23465943238E+03  0.25500000000E-02 0.  1.
    8880023    1    1    2    0    0 -0.13539800478E+03  0.18691157985E+03  0.89861643132E+03  0.11378006219E+04  0.65864270000E+03 0. -1.
    8880022    1    1    2    0    0  0.13539800478E+03 -0.18691157985E+03  0.51487771786E+02  0.28162244591E+03  0.15294330000E+03 0.  0.
<mgrwt>
<rscale>  0 0.55388672E+03</rscale>
<asrwt>0</asrwt>
<pdfrwt beam="1">  1        2 0.18227133E+00 0.69791028E+03</pdfrwt>
<pdfrwt beam="2">  1       -2 0.36101451E-01 0.69791028E+03</pdfrwt>
<totfact> 0.14201526E+02</totfact>
</mgrwt>
</event>
<event>
 4    2  0.3171963E-007  0.7668911E+03  0.7818608E-02  0.9787583E-01
         -2   -1    0    0    0  501 -0.00000000000E+00  0.00000000000E+00  0.71110900588E+03  0.71110900588E+03  0.25500000000E-02 0.  1.
          2   -1    0    0  501    0  0.00000000000E+00 -0.00000000000E+00 -0.13596352904E+04  0.13596352904E+04  0.25500000000E-02 0. -1.
    8880023    1    1    2    0    0 -0.75692583181E+02  0.38546392458E+03 -0.11707789731E+04  0.13995875872E+04  0.65864270000E+03 0.  0.
    8880022    1    1    2    0    0  0.75692583181E+02 -0.38546392458E+03  0.52225268858E+03  0.67115670901E+03  0.15294330000E+03 0.  0.
<mgrwt>
<rscale>  0 0.66033189E+03</rscale>
<asrwt>0</asrwt>
<pdfrwt beam="1">  1        2 0.20917466E+00 0.76689113E+03</pdfrwt>
<pdfrwt beam="2">  1       -2 0.10940139E+00 0.76689113E+03</pdfrwt>
<totfact> 0.10366080E+01</totfact>
</mgrwt>
</event>
<event>
 4    2  0.3171963E-007  0.1140141E+04  0.7818608E-02  0.9217627E-01
          2   -1    0    0  501    0  0.00000000000E+00  0.00000000000E+00  0.55324482392E+03  0.55324482393E+03  0.25500000000E-02 0. -1.
         -2   -1    0    0    0  501 -0.00000000000E+00 -0.00000000000E+00 -0.25546268969E+04  0.25546268969E+04  0.25500000000E-02 0.  1.
    8880023    1    1    2    0    0 -0.49698016574E+03  0.78684348827E+03 -0.32694823051E+03  0.11860932981E+04  0.65864270000E+03 0.  0.
    8880022    1    1    2    0    0  0.49698016574E+03 -0.78684348827E+03 -0.16744338425E+04  0.19217784227E+04  0.15294330000E+03 0.  0.
<mgrwt>
<rscale>  0 0.10873328E+04</rscale>
<asrwt>0</asrwt>
<pdfrwt beam="1">  1        2 0.85114590E-01 0.11401413E+04</pdfrwt>
<pdfrwt beam="2">  1       -2 0.39301951E+00 0.11401413E+04</pdfrwt>
<totfact> 0.45061277E-01</totfact>
</mgrwt>
</event>
<event>
 4    2  0.3171963E-007  0.9772388E+03  0.7818608E-02  0.9411961E-01
          2   -1    0    0  501    0  0.00000000000E+00  0.00000000000E+00  0.25181844519E+04  0.25181844519E+04  0.25500000000E-02 0. -1.
         -2   -1    0    0    0  501 -0.00000000000E+00 -0.00000000000E+00 -0.10974158378E+04  0.10974158378E+04  0.25500000000E-02 0.  1.
    8880023    1    1    2    0    0  0.68483418699E+03  0.22844591821E+03  0.22814089192E+04  0.24818989230E+04  0.65864270000E+03 0. -1.
    8880022    1    1    2    0    0 -0.68483418699E+03 -0.22844591821E+03 -0.86064030509E+03  0.11337013668E+04  0.15294330000E+03 0.  0.
<mgrwt>
<rscale>  0 0.91097809E+03</rscale>
<asrwt>0</asrwt>
<pdfrwt beam="1">  1        2 0.38741299E+00 0.97723877E+03</pdfrwt>
<pdfrwt beam="2">  1       -2 0.16883321E+00 0.97723877E+03</pdfrwt>
<totfact> 0.74538393E-01</totfact>
</mgrwt>
</event>
<event>
 4    2  0.3171963E-007  0.1094887E+04  0.7818608E-02  0.9266770E-01
         -2   -1    0    0    0  501 -0.00000000000E+00  0.00000000000E+00  0.73148758724E+03  0.73148758725E+03  0.25500000000E-02 0.  1.
          2   -1    0    0  501    0  0.00000000000E+00 -0.00000000000E+00 -0.22011336201E+04  0.22011336201E+04  0.25500000000E-02 0. -1.
    8880023    1    1    2    0    0  0.20555451079E+03  0.85012642809E+03  0.13050443424E+03  0.11026373902E+04  0.65864270000E+03 0.  0.
    8880022    1    1    2    0    0 -0.20555451079E+03 -0.85012642809E+03 -0.16001504671E+04  0.18299838171E+04  0.15294330000E+03 0.  0.
<mgrwt>
<rscale>  0 0.10390047E+04</rscale>
<asrwt>0</asrwt>
<pdfrwt beam="1">  1        2 0.33863594E+00 0.10948871E+04</pdfrwt>
<pdfrwt beam="2">  1       -2 0.11253655E+00 0.10948871E+04</pdfrwt>
<totfact> 0.31749031E+00</totfact>
</mgrwt>
</event>
<event>
 4    2  0.3171963E-007  0.7108349E+03  0.7818608E-02  0.9954913E-01
          2   -1    0    0  501    0  0.00000000000E+00  0.00000000000E+00  0.20132211335E+04  0.20132211335E+04  0.25500000000E-02 0. -1.
         -2   -1    0    0    0  501 -0.00000000000E+00 -0.00000000000E+00 -0.41987787875E+03  0.41987787876E+03  0.25500000000E-02 0.  1.
    8880023    1    1    2    0    0 -0.10772700401E+03  0.24468552741E+03  0.18815088940E+04  0.20113085390E+04  0.65864270000E+03 0. -1.
    8880022    1    1    2    0    0  0.10772700401E+03 -0.24468552741E+03 -0.28816563920E+03  0.42179047327E+03  0.15294330000E+03 0.  0.
<mgrwt>
<rscale>  0 0.57672186E+03</rscale>
<asrwt>0</asrwt>
<pdfrwt beam="1">  1        2 0.30972633E+00 0.71083495E+03</pdfrwt>
<pdfrwt beam="2">  1       -2 0.64596596E-01 0.71083495E+03</pdfrwt>
<totfact> 0.15130927E+01</totfact>
</mgrwt>
</event>
<event>
 4    2  0.3171963E-007  0.7117007E+03  0.7818608E-02  0.9951739E-01
          2   -1    0    0  501    0  0.00000000000E+00  0.00000000000E+00  0.87184892837E+03  0.87184892837E+03  0.25500000000E-02 0. -1.
         -2   -1    0    0    0  501 -0.00000000000E+00 -0.00000000000E+00 -0.46233772834E+03  0.46233772835E+03  0.25500000000E-02 0.  1.
    8880023    1    1    2    0    0 -0.24056398951E+03 -0.12180585234E+03  0.63264140858E+03  0.95223581997E+03  0.65864270000E+03 0. -1.
    8880022    1    1    2    0    0  0.24056398951E+03  0.12180585234E+03 -0.22313020855E+03  0.38195083675E+03  0.15294330000E+03 0.  0.
<mgrwt>
<rscale>  0 0.57818006E+03</rscale>
<asrwt>0</asrwt>
<pdfrwt beam="1">  1        2 0.13413060E+00 0.71170071E+03</pdfrwt>
<pdfrwt beam="2">  1       -2 0.71128882E-01 0.71170071E+03</pdfrwt>
<totfact> 0.55964071E+01</totfact>
</mgrwt>
</event>
<event>
 4    2  0.3171963E-007  0.6659634E+03  0.7818608E-02  0.1018738E+00
          2   -1    0    0  501    0  0.00000000000E+00  0.00000000000E+00  0.10667960172E+04  0.10667960172E+04  0.25500000000E-02 0. -1.
         -2   -1    0    0    0  501 -0.00000000000E+00 -0.00000000000E+00 -0.94615147784E+03  0.94615147785E+03  0.25500000000E-02 0.  1.
    8880023    1    1    2    0    0  0.10419787817E+01 -0.98468346243E+02  0.95206145668E+03  0.11618641592E+04  0.65864270000E+03 0. -1.
    8880022    1    1    2    0    0 -0.10419787817E+01  0.98468346243E+02 -0.83141691737E+03  0.85108333578E+03  0.15294330000E+03 0.  0.
<mgrwt>
<rscale>  0 0.48144629E+03</rscale>
<asrwt>0</asrwt>
<pdfrwt beam="1">  1        2 0.16412246E+00 0.66596344E+03</pdfrwt>
<pdfrwt beam="2">  1       -2 0.14556177E+00 0.66596344E+03</pdfrwt>
<totfact> 0.76387937E+00</totfact>
</mgrwt>
</event>
<event>
 4    2  0.3171963E-007  0.6597421E+03  0.7818608E-02  0.1024422E+00
          2   -1    0    0  501    0  0.00000000000E+00  0.00000000000E+00  0.44861014970E+04  0.44861014970E+04  0.25500000000E-02 0. -1.
         -2   -1    0    0    0  501 -0.00000000000E+00 -0.00000000000E+00 -0.62329564229E+02  0.62329564281E+02  0.25500000000E-02 0.  1.
    8880023    1    1    2    0    0  0.13974467695E+02 -0.35413916809E+02  0.42936680906E+04  0.43440586218E+04  0.65864270000E+03 0. -1.
    8880022    1    1    2    0    0 -0.13974467695E+02  0.35413916809E+02  0.13010384217E+03  0.20437243946E+03  0.15294330000E+03 0.  0.
<mgrwt>
<rscale>  0 0.46124000E+03</rscale>
<asrwt>0</asrwt>
<pdfrwt beam="1">  1        2 0.69016976E+00 0.65974210E+03</pdfrwt>
<pdfrwt beam="2">  1       -2 0.95891596E-02 0.65974210E+03</pdfrwt>
<totfact> 0.10767516E+01</totfact>
</mgrwt>
</event>
<event>
 4    2  0.3171963E-007  0.8111644E+03  0.7818608E-02  0.9687157E-01
         -2   -1    0    0    0  501 -0.00000000000E+00  0.00000000000E+00  0.55321350270E+03  0.55321350271E+03  0.25500000000E-02 0.  1.
          2   -1    0    0  501    0  0.00000000000E+00 -0.00000000000E+00 -0.11498067879E+04  0.11498067879E+04  0.25500000000E-02 0. -1.
    8880023    1    1    2    0    0  0.37099562257E+03  0.29417629582E+03 -0.82371746690E+03  0.11560701175E+04  0.65864270000E+03 0.  0.
    8880022    1    1    2    0    0 -0.37099562257E+03 -0.29417629582E+03  0.22712418169E+03  0.54695017315E+03  0.15294330000E+03 0.  0.
<mgrwt>
<rscale>  0 0.71786653E+03</rscale>
<asrwt>0</asrwt>
<pdfrwt beam="1">  1        2 0.17689335E+00 0.81116438E+03</pdfrwt>
<pdfrwt beam="2">  1       -2 0.85109770E-01 0.81116438E+03</pdfrwt>
<totfact> 0.24687333E+01</totfact>
</mgrwt>
</event>
<event>
 4    2  0.3171963E-007  0.6848717E+03  0.7818608E-02  0.1006692E+00
          2   -1    0    0  501    0  0.00000000000E+00  0.00000000000E+00  0.33478030545E+04  0.33478030545E+04  0.25500000000E-02 0. -1.
         -2   -1    0    0    0  501 -0.00000000000E+00 -0.00000000000E+00 -0.78676737147E+02  0.78676737189E+02  0.25500000000E-02 0.  1.
    8880023    1    1    2    0    0 -0.11665970909E+03  0.14706976255E+03  0.29349608976E+04  0.30138089985E+04  0.65864270000E+03 0. -1.
    8880022    1    1    2    0    0  0.11665970909E+03 -0.14706976255E+03  0.33416541981E+03  0.41267079323E+03  0.15294330000E+03 0.  1.
<mgrwt>
<rscale>  0 0.52810770E+03</rscale>
<asrwt>0</asrwt>
<pdfrwt beam="1">  1        2 0.51504665E+00 0.68487167E+03</pdfrwt>
<pdfrwt beam="2">  1       -2 0.12104113E-01 0.68487167E+03</pdfrwt>
<totfact> 0.56052378E+01</totfact>
</mgrwt>
</event>
<event>
 4    2  0.3171963E-007  0.8707811E+03  0.7818608E-02  0.9574666E-01
          2   -1    0    0  501    0  0.00000000000E+00  0.00000000000E+00  0.27573457866E+04  0.27573457866E+04  0.25500000000E-02 0. -1.
         -2   -1    0    0    0  501 -0.00000000000E+00 -0.00000000000E+00 -0.48282890010E+03  0.48282890011E+03  0.25500000000E-02 0.  1.
    8880023    1    1    2    0    0  0.13965971679E+03 -0.55221790161E+03  0.24698742898E+04  0.26188811850E+04  0.65864270000E+03 0.  0.
    8880022    1    1    2    0    0 -0.13965971679E+03  0.55221790161E+03 -0.19535740324E+03  0.62129350179E+03  0.15294330000E+03 0.  0.
<mgrwt>
<rscale>  0 0.78995862E+03</rscale>
<asrwt>0</asrwt>
<pdfrwt beam="1">  1        2 0.42420704E+00 0.87078106E+03</pdfrwt>
<pdfrwt beam="2">  1       -2 0.74281370E-01 0.87078106E+03</pdfrwt>
<totfact> 0.41463503E+00</totfact>
</mgrwt>
</event>
<event>
 4    2  0.3171963E-007  0.8519168E+03  0.7818608E-02  0.9608107E-01
         -2   -1    0    0    0  501 -0.00000000000E+00  0.00000000000E+00  0.63923220084E+03  0.63923220085E+03  0.25500000000E-02 0.  1.
          2   -1    0    0  501    0  0.00000000000E+00 -0.00000000000E+00 -0.16891185586E+04  0.16891185586E+04  0.25500000000E-02 0. -1.
    8880023    1    1    2    0    0  0.52102405858E+03 -0.14312934272E+03 -0.14198934381E+04  0.16558561714E+04  0.65864270000E+03 0. -1.
    8880022    1    1    2    0    0 -0.52102405858E+03  0.14312934272E+03  0.37000708041E+03  0.67249458804E+03  0.15294330000E+03 0.  0.
<mgrwt>
<rscale>  0 0.76761937E+03</rscale>
<asrwt>0</asrwt>
<pdfrwt beam="1">  1        2 0.25986439E+00 0.85191683E+03</pdfrwt>
<pdfrwt beam="2">  1       -2 0.98343416E-01 0.85191683E+03</pdfrwt>
<totfact> 0.86684920E+00</totfact>
</mgrwt>
</event>
<event>
 4    2  0.3171963E-007  0.7528507E+03  0.7818608E-02  0.9823981E-01
          2   -1    0    0  501    0  0.00000000000E+00  0.00000000000E+00  0.45520710673E+03  0.45520710673E+03  0.25500000000E-02 0. -1.
         -2   -1    0    0    0  501 -0.00000000000E+00 -0.00000000000E+00 -0.16623358846E+04  0.16623358846E+04  0.25500000000E-02 0.  1.
    8880023    1    1    2    0    0  0.65732509641E+02  0.35868265955E+03  0.93033588023E+02  0.75857726557E+03  0.65864270000E+03 0. -1.
    8880022    1    1    2    0    0 -0.65732509641E+02 -0.35868265955E+03 -0.13001623659E+04  0.13589657257E+04  0.15294330000E+03 0.  0.
<mgrwt>
<rscale>  0 0.64091337E+03</rscale>
<asrwt>0</asrwt>
<pdfrwt beam="1">  1        2 0.70031863E-01 0.75285073E+03</pdfrwt>
<pdfrwt beam="2">  1       -2 0.25574398E+00 0.75285073E+03</pdfrwt>
<totfact> 0.41875053E+00</totfact>
</mgrwt>
</event>
<event>
 4    2  0.3171963E-007  0.7401202E+03  0.7818608E-02  0.9859597E-01
          2   -1    0    0  501    0  0.00000000000E+00  0.00000000000E+00  0.54337281437E+03  0.54337281437E+03  0.25500000000E-02 0. -1.
         -2   -1    0    0    0  501 -0.00000000000E+00 -0.00000000000E+00 -0.94460983479E+03  0.94460983480E+03  0.25500000000E-02 0.  1.
    8880023    1    1    2    0    0 -0.21885861339E+03 -0.25703813381E+03  0.21338276014E+03  0.77026625492E+03  0.65864270000E+03 0. -1.
    8880022    1    1    2    0    0  0.21885861339E+03  0.25703813381E+03 -0.61461978057E+03  0.71771639424E+03  0.15294330000E+03 0.  0.
<mgrwt>
<rscale>  0 0.62259979E+03</rscale>
<asrwt>0</asrwt>
<pdfrwt beam="1">  1        2 0.83595818E-01 0.74012019E+03</pdfrwt>
<pdfrwt beam="2">  1       -2 0.14532459E+00 0.74012019E+03</pdfrwt>
<totfact> 0.18458355E+01</totfact>
</mgrwt>
</event>
<event>
 4    2  0.3171963E-007  0.6662337E+03  0.7818608E-02  0.1018520E+00
         -2   -1    0    0    0  501 -0.00000000000E+00  0.00000000000E+00  0.10355329402E+03  0.10355329406E+03  0.25500000000E-02 0.  1.
          2   -1    0    0  501    0  0.00000000000E+00 -0.00000000000E+00 -0.17423941422E+04  0.17423941422E+04  0.25500000000E-02 0. -1.
    8880023    1    1    2    0    0  0.99001297977E+02 -0.15997898736E+02 -0.12615715452E+04  0.14266850247E+04  0.65864270000E+03 0.  0.
    8880022    1    1    2    0    0 -0.99001297977E+02  0.15997898736E+02 -0.37726930291E+03  0.41926241151E+03  0.15294330000E+03 0.  0.
<mgrwt>
<rscale>  0 0.48224486E+03</rscale>
<asrwt>0</asrwt>
<pdfrwt beam="1">  1        2 0.26806061E+00 0.66623374E+03</pdfrwt>
<pdfrwt beam="2">  1       -2 0.15931277E-01 0.66623374E+03</pdfrwt>
<totfact> 0.30090239E+02</totfact>
</mgrwt>
</event>
<event>
 4    2  0.3171963E-007  0.7367903E+03  0.7818608E-02  0.9869397E-01
         -2   -1    0    0    0  501 -0.00000000000E+00  0.00000000000E+00  0.27866267933E+03  0.27866267934E+03  0.25500000000E-02 0.  1.
          2   -1    0    0  501    0  0.00000000000E+00 -0.00000000000E+00 -0.16603466362E+04  0.16603466362E+04  0.25500000000E-02 0. -1.
    8880023    1    1    2    0    0  0.32092434268E+03 -0.77828397795E+02 -0.13919674490E+04  0.15749391349E+04  0.65864270000E+03 0.  0.
    8880022    1    1    2    0    0 -0.32092434268E+03  0.77828397795E+02  0.10283492123E+02  0.36407018067E+03  0.15294330000E+03 0.  0.
<mgrwt>
<rscale>  0 0.61767619E+03</rscale>
<asrwt>0</asrwt>
<pdfrwt beam="1">  1        2 0.25543794E+00 0.73679027E+03</pdfrwt>
<pdfrwt beam="2">  1       -2 0.42871182E-01 0.73679027E+03</pdfrwt>
<totfact> 0.54568330E+01</totfact>
</mgrwt>
</event>
<event>
 4    2  0.3171963E-007  0.1312618E+04  0.7818608E-02  0.9054740E-01
         -2   -1    0    0    0  501 -0.00000000000E+00  0.00000000000E+00  0.13425515799E+04  0.13425515799E+04  0.25500000000E-02 0.  1.
          2   -1    0    0  501    0  0.00000000000E+00 -0.00000000000E+00 -0.14866230719E+04  0.14866230719E+04  0.25500000000E-02 0. -1.
    8880023    1    1    2    0    0  0.95304644455E+03 -0.61713642755E+03 -0.77190267213E+03  0.15227602691E+04  0.65864270000E+03 0. -1.
    8880022    1    1    2    0    0 -0.95304644455E+03  0.61713642755E+03  0.62783118015E+03  0.13064143828E+04  0.15294330000E+03 0.  0.
<mgrwt>
<rscale>  0 0.12687265E+04</rscale>
<asrwt>0</asrwt>
<pdfrwt beam="1">  1        2 0.22871124E+00 0.13126177E+04</pdfrwt>
<pdfrwt beam="2">  1       -2 0.20654640E+00 0.13126177E+04</pdfrwt>
<totfact> 0.14927103E+00</totfact>
</mgrwt>
</event>
<event>
 4    2  0.3171963E-007  0.7472741E+03  0.7818608E-02  0.9839243E-01
          2   -1    0    0  501    0  0.00000000000E+00  0.00000000000E+00  0.48970220817E+03  0.48970220818E+03  0.25500000000E-02 0. -1.
         -2   -1    0    0    0  501 -0.00000000000E+00 -0.00000000000E+00 -0.96933970407E+03  0.96933970407E+03  0.25500000000E-02 0.  1.
    8880023    1    1    2    0    0 -0.28594731519E+03 -0.20698427862E+03  0.10966940290E+03  0.75527871866E+03  0.65864270000E+03 0. -1.
    8880022    1    1    2    0    0  0.28594731519E+03  0.20698427862E+03 -0.58930689880E+03  0.70376319359E+03  0.15294330000E+03 0.  0.
<mgrwt>
<rscale>  0 0.63298390E+03</rscale>
<asrwt>0</asrwt>
<pdfrwt beam="1">  1        2 0.75338802E-01 0.74727409E+03</pdfrwt>
<pdfrwt beam="2">  1       -2 0.14912918E+00 0.74727409E+03</pdfrwt>
<totfact> 0.19460846E+01</totfact>
</mgrwt>
</event>
<event>
 4    2  0.3171963E-007  0.1199194E+04  0.7818608E-02  0.9157906E-01
         -2   -1    0    0    0  501 -0.00000000000E+00  0.00000000000E+00  0.10229266586E+04  0.10229266586E+04  0.25500000000E-02 0.  1.
          2   -1    0    0  501    0  0.00000000000E+00 -0.00000000000E+00 -0.13577977371E+04  0.13577977371E+04  0.25500000000E-02 0. -1.
    8880023    1    1    2    0    0  0.48912522372E+03 -0.87465017276E+03 -0.58840347508E+03  0.13357714119E+04  0.65864270000E+03 0. -1.
    8880022    1    1    2    0    0 -0.48912522372E+03  0.87465017276E+03  0.25353239655E+03  0.10449529838E+04  0.15294330000E+03 0.  0.
<mgrwt>
<rscale>  0 0.11498672E+04</rscale>
<asrwt>0</asrwt>
<pdfrwt beam="1">  1        2 0.20889196E+00 0.11991942E+04</pdfrwt>
<pdfrwt beam="2">  1       -2 0.15737333E+00 0.11991942E+04</pdfrwt>
<totfact> 0.39184883E+00</totfact>
</mgrwt>
</event>
<event>
 4    2  0.3171963E-007  0.7205455E+03  0.7818608E-02  0.9920745E-01
          2   -1    0    0  501    0  0.00000000000E+00  0.00000000000E+00  0.26452534528E+04  0.26452534528E+04  0.25500000000E-02 0. -1.
         -2   -1    0    0    0  501 -0.00000000000E+00 -0.00000000000E+00 -0.13065791542E+03  0.13065791545E+03  0.25500000000E-02 0.  1.
    8880023    1    1    2    0    0 -0.28736096318E+03  0.52908096470E+02  0.22189107428E+04  0.23329703557E+04  0.65864270000E+03 0. -1.
    8880022    1    1    2    0    0  0.28736096318E+03 -0.52908096470E+02  0.29568479456E+03  0.44294101253E+03  0.15294330000E+03 0.  0.
<mgrwt>
<rscale>  0 0.59266368E+03</rscale>
<asrwt>0</asrwt>
<pdfrwt beam="1">  1        2 0.40696205E+00 0.72054549E+03</pdfrwt>
<pdfrwt beam="2">  1       -2 0.20101219E-01 0.72054549E+03</pdfrwt>
<totfact> 0.63428772E+01</totfact>
</mgrwt>
</event>
<event>
 4    2  0.3171963E-007  0.9596391E+03  0.7818608E-02  0.9436379E-01
         -2   -1    0    0    0  501 -0.00000000000E+00  0.00000000000E+00  0.83741651477E+03  0.83741651477E+03  0.25500000000E-02 0.  1.
          2   -1    0    0  501    0  0.00000000000E+00 -0.00000000000E+00 -0.14631256095E+04  0.14631256095E+04  0.25500000000E-02 0. -1.
    8880023    1    1    2    0    0  0.31929679369E+03 -0.62060183744E+03 -0.10870717866E+04  0.14500456402E+04  0.65864270000E+03 0.  0.
    8880022    1    1    2    0    0 -0.31929679369E+03  0.62060183744E+03  0.46136269184E+03  0.85049648414E+03  0.15294330000E+03 0.  0.
<mgrwt>
<rscale>  0 0.89141356E+03</rscale>
<asrwt>0</asrwt>
<pdfrwt beam="1">  1        2 0.22509625E+00 0.95963915E+03</pdfrwt>
<pdfrwt beam="2">  1       -2 0.12883331E+00 0.95963915E+03</pdfrwt>
<totfact> 0.59046014E+00</totfact>
</mgrwt>
</event>
<event>
 4    2  0.3171963E-007  0.6716645E+03  0.7818608E-02  0.1014497E+00
          2   -1    0    0  501    0  0.00000000000E+00  0.00000000000E+00  0.27631512081E+03  0.27631512082E+03  0.25500000000E-02 0. -1.
         -2   -1    0    0    0  501 -0.00000000000E+00 -0.00000000000E+00 -0.16411927128E+04  0.16411927128E+04  0.25500000000E-02 0.  1.
    8880023    1    1    2    0    0 -0.26819159110E+02 -0.12885548808E+03 -0.15289970661E+03  0.68884797354E+03  0.65864270000E+03 0. -1.
    8880022    1    1    2    0    0  0.26819159110E+02  0.12885548808E+03 -0.12119778854E+04  0.12286598601E+04  0.15294330000E+03 0.  0.
<mgrwt>
<rscale>  0 0.49725957E+03</rscale>
<asrwt>0</asrwt>
<pdfrwt beam="1">  1        2 0.42510020E-01 0.67166451E+03</pdfrwt>
<pdfrwt beam="2">  1       -2 0.25249118E+00 0.67166451E+03</pdfrwt>
<totfact> 0.77420276E+00</totfact>
</mgrwt>
</event>
<event>
 4    2  0.3171963E-007  0.1018980E+04  0.7818608E-02  0.9357136E-01
         -2   -1    0    0    0  501 -0.00000000000E+00  0.00000000000E+00  0.17994745773E+04  0.17994745773E+04  0.25500000000E-02 0.  1.
          2   -1    0    0  501    0  0.00000000000E+00 -0.00000000000E+00 -0.67412438016E+03  0.67412438017E+03  0.25500000000E-02 0. -1.
    8880023    1    1    2    0    0 -0.68727242638E+03 -0.36354801255E+03 -0.89781240833E+02  0.10229278679E+04  0.65864270000E+03 0.  0.
    8880022    1    1    2    0    0  0.68727242638E+03  0.36354801255E+03  0.12151314379E+04  0.14506710895E+04  0.15294330000E+03 0.  0.
<mgrwt>
<rscale>  0 0.95688738E+03</rscale>
<asrwt>0</asrwt>
<pdfrwt beam="1">  1        2 0.10371145E+00 0.10189803E+04</pdfrwt>
<pdfrwt beam="2">  1       -2 0.27684223E+00 0.10189803E+04</pdfrwt>
<totfact> 0.18909240E+00</totfact>
</mgrwt>
</event>
<event>
 4    2  0.3171963E-007  0.1133194E+04  0.7818608E-02  0.9224968E-01
          2   -1    0    0  501    0  0.00000000000E+00  0.00000000000E+00  0.27435160601E+04  0.27435160601E+04  0.25500000000E-02 0. -1.
         -2   -1    0    0    0  501 -0.00000000000E+00 -0.00000000000E+00 -0.83290420080E+03  0.83290420081E+03  0.25500000000E-02 0.  1.
    8880023    1    1    2    0    0 -0.70189138981E+03 -0.59805282848E+03  0.22998644750E+04  0.25638848489E+04  0.65864270000E+03 0.  0.
    8880022    1    1    2    0    0  0.70189138981E+03  0.59805282848E+03 -0.38925261570E+03  0.10125354120E+04  0.15294330000E+03 0.  0.
<mgrwt>
<rscale>  0 0.10799389E+04</rscale>
<asrwt>0</asrwt>
<pdfrwt beam="1">  1        2 0.42207938E+00 0.11331941E+04</pdfrwt>
<pdfrwt beam="2">  1       -2 0.12813911E+00 0.11331941E+04</pdfrwt>
<totfact> 0.11174072E+00</totfact>
</mgrwt>
</event>
<event>
 4    2  0.3171963E-007  0.7108854E+03  0.7818608E-02  0.9954728E-01
         -2   -1    0    0    0  501 -0.00000000000E+00  0.00000000000E+00  0.47222171498E+03  0.47222171499E+03  0.25500000000E-02 0.  1.
          2   -1    0    0  501    0  0.00000000000E+00 -0.00000000000E+00 -0.16392583403E+04  0.16392583403E+04  0.25500000000E-02 0. -1.
    8880023    1    1    2    0    0  0.25343938834E+03 -0.85535714366E+02 -0.14987149394E+04  0.16587659744E+04  0.65864270000E+03 0. -1.
    8880022    1    1    2    0    0 -0.25343938834E+03  0.85535714366E+02  0.33167831408E+03  0.45271408089E+03  0.15294330000E+03 0.  0.
<mgrwt>
<rscale>  0 0.57680710E+03</rscale>
<asrwt>0</asrwt>
<pdfrwt beam="1">  1        2 0.25219359E+00 0.71088543E+03</pdfrwt>
<pdfrwt beam="2">  1       -2 0.72649495E-01 0.71088543E+03</pdfrwt>
<totfact> 0.18745605E+01</totfact>
</mgrwt>
</event>
<event>
 4    2  0.3171963E-007  0.7725042E+03  0.7818608E-02  0.9773749E-01
          2   -1    0    0  501    0  0.00000000000E+00  0.00000000000E+00  0.28465402780E+04  0.28465402780E+04  0.25500000000E-02 0. -1.
         -2   -1    0    0    0  501 -0.00000000000E+00 -0.00000000000E+00 -0.13221096468E+03  0.13221096470E+03  0.25500000000E-02 0.  1.
    8880023    1    1    2    0    0  0.15550781959E+02 -0.40337421241E+03  0.20014624976E+04  0.21453705781E+04  0.65864270000E+03 0.  0.
    8880022    1    1    2    0    0 -0.15550781959E+02  0.40337421241E+03  0.71286681573E+03  0.83338066455E+03  0.15294330000E+03 0.  0.
<mgrwt>
<rscale>  0 0.66790569E+03</rscale>
<asrwt>0</asrwt>
<pdfrwt beam="1">  1        2 0.43792930E+00 0.77250423E+03</pdfrwt>
<pdfrwt beam="2">  1       -2 0.20340147E-01 0.77250423E+03</pdfrwt>
<totfact> 0.47013967E+01</totfact>
</mgrwt>
</event>
<event>
 4    2  0.3171963E-007  0.1079842E+04  0.7818608E-02  0.9283838E-01
          2   -1    0    0  501    0  0.00000000000E+00  0.00000000000E+00  0.13040148424E+04  0.13040148424E+04  0.25500000000E-02 0. -1.
         -2   -1    0    0    0  501 -0.00000000000E+00 -0.00000000000E+00 -0.12004277101E+04  0.12004277101E+04  0.25500000000E-02 0.  1.
    8880023    1    1    2    0    0  0.72592327085E+03  0.45308327676E+03  0.83768344541E+03  0.13666648498E+04  0.65864270000E+03 0.  0.
    8880022    1    1    2    0    0 -0.72592327085E+03 -0.45308327676E+03 -0.73409631313E+03  0.11377777027E+04  0.15294330000E+03 0.  0.
<mgrwt>
<rscale>  0 0.10228446E+04</rscale>
<asrwt>0</asrwt>
<pdfrwt beam="1">  1        2 0.20061767E+00 0.10798422E+04</pdfrwt>
<pdfrwt beam="2">  1       -2 0.18468119E+00 0.10798422E+04</pdfrwt>
<totfact> 0.27214230E+00</totfact>
</mgrwt>
</event>
<event>
 4    2  0.3171963E-007  0.1339337E+04  0.7818608E-02  0.9032313E-01
         -2   -1    0    0    0  501 -0.00000000000E+00  0.00000000000E+00  0.17334300990E+04  0.17334300990E+04  0.25500000000E-02 0.  1.
          2   -1    0    0  501    0  0.00000000000E+00 -0.00000000000E+00 -0.12799413670E+04  0.12799413670E+04  0.25500000000E-02 0. -1.
    8880023    1    1    2    0    0  0.10121920379E+04  0.57920711604E+03 -0.56870384729E+03  0.14550765880E+04  0.65864270000E+03 0.  0.
    8880022    1    1    2    0    0 -0.10121920379E+04 -0.57920711604E+03  0.10221925792E+04  0.15582948780E+04  0.15294330000E+03 0.  0.
<mgrwt>
<rscale>  0 0.12965405E+04</rscale>
<asrwt>0</asrwt>
<pdfrwt beam="1">  1        2 0.19691406E+00 0.13393371E+04</pdfrwt>
<pdfrwt beam="2">  1       -2 0.26668155E+00 0.13393371E+04</pdfrwt>
<totfact> 0.82651938E-01</totfact>
</mgrwt>
</event>
<event>
 4    2  0.3171963E-007  0.7139265E+03  0.7818608E-02  0.9943699E-01
          2   -1    0    0  501    0  0.00000000000E+00  0.00000000000E+00  0.94535848063E+03  0.94535848063E+03  0.25500000000E-02 0. -1.
         -2   -1    0    0    0  501 -0.00000000000E+00 -0.00000000000E+00 -0.43038839194E+03  0.43038839195E+03  0.25500000000E-02 0.  1.
    8880023    1    1    2    0    0  0.17368362604E+03 -0.21381043571E+03  0.70863582620E+03  0.10059104557E+04  0.65864270000E+03 0.  0.
    8880022    1    1    2    0    0 -0.17368362604E+03  0.21381043571E+03 -0.19366573751E+03  0.36983641691E+03  0.15294330000E+03 0.  1.
<mgrwt>
<rscale>  0 0.58189389E+03</rscale>
<asrwt>0</asrwt>
<pdfrwt beam="1">  1        2 0.14543976E+00 0.71392654E+03</pdfrwt>
<pdfrwt beam="2">  1       -2 0.66213600E-01 0.71392654E+03</pdfrwt>
<totfact> 0.58374743E+01</totfact>
</mgrwt>
</event>
<event>
 4    2  0.3171963E-007  0.9067945E+03  0.7818608E-02  0.9515211E-01
          2   -1    0    0  501    0  0.00000000000E+00  0.00000000000E+00  0.13634855256E+04  0.13634855256E+04  0.25500000000E-02 0. -1.
         -2   -1    0    0    0  501 -0.00000000000E+00 -0.00000000000E+00 -0.16767259764E+04  0.16767259764E+04  0.25500000000E-02 0.  1.
    8880023    1    1    2    0    0  0.48451566788E+03 -0.39205936462E+03  0.11369997160E+04  0.14543192697E+04  0.65864270000E+03 0.  0.
    8880022    1    1    2    0    0 -0.48451566788E+03  0.39205936462E+03 -0.14502401669E+04  0.15858922323E+04  0.15294330000E+03 0.  0.
<mgrwt>
<rscale>  0 0.83171595E+03</rscale>
<asrwt>0</asrwt>
<pdfrwt beam="1">  1        2 0.20976700E+00 0.90679446E+03</pdfrwt>
<pdfrwt beam="2">  1       -2 0.25795784E+00 0.90679446E+03</pdfrwt>
<totfact> 0.88330043E-01</totfact>
</mgrwt>
</event>
<event>
 4    2  0.3171963E-007  0.8604152E+03  0.7818608E-02  0.9592825E-01
          2   -1    0    0  501    0  0.00000000000E+00  0.00000000000E+00  0.50789256630E+03  0.50789256631E+03  0.25500000000E-02 0. -1.
         -2   -1    0    0    0  501 -0.00000000000E+00 -0.00000000000E+00 -0.18094628738E+04  0.18094628738E+04  0.25500000000E-02 0.  1.
    8880023    1    1    2    0    0 -0.53481573127E+03 -0.14309521896E+03  0.36533101448E+02  0.86119044460E+03  0.65864270000E+03 0. -1.
    8880022    1    1    2    0    0  0.53481573127E+03  0.14309521896E+03 -0.13381034090E+04  0.14561649955E+04  0.15294330000E+03 0.  0.
<mgrwt>
<rscale>  0 0.77772874E+03</rscale>
<asrwt>0</asrwt>
<pdfrwt beam="1">  1        2 0.78137319E-01 0.86041520E+03</pdfrwt>
<pdfrwt beam="2">  1       -2 0.27837890E+00 0.86041520E+03</pdfrwt>
<totfact> 0.26582226E+00</totfact>
</mgrwt>
</event>
<event>
 4    2  0.3171963E-007  0.1083219E+04  0.7818608E-02  0.9279973E-01
         -2   -1    0    0    0  501 -0.00000000000E+00  0.00000000000E+00  0.53686424106E+03  0.53686424107E+03  0.25500000000E-02 0.  1.
          2   -1    0    0  501    0  0.00000000000E+00 -0.00000000000E+00 -0.27025744318E+04  0.27025744318E+04  0.25500000000E-02 0. -1.
    8880023    1    1    2    0    0 -0.83863730637E+03 -0.19037101821E+03 -0.21007232261E+04  0.23635570514E+04  0.65864270000E+03 0.  0.
    8880022    1    1    2    0    0  0.83863730637E+03  0.19037101821E+03 -0.64986964598E+02  0.87588162145E+03  0.15294330000E+03 0.  1.
<mgrwt>
<rscale>  0 0.10264763E+04</rscale>
<asrwt>0</asrwt>
<pdfrwt beam="1">  1        2 0.41578067E+00 0.10832192E+04</pdfrwt>
<pdfrwt beam="2">  1       -2 0.82594501E-01 0.10832192E+04</pdfrwt>
<totfact> 0.34127407E+00</totfact>
</mgrwt>
</event>
<event>
 4    2  0.3171963E-007  0.7671097E+03  0.7818608E-02  0.9787037E-01
         -2   -1    0    0    0  501 -0.00000000000E+00  0.00000000000E+00  0.12550741143E+04  0.12550741143E+04  0.25500000000E-02 0.  1.
          2   -1    0    0  501    0  0.00000000000E+00 -0.00000000000E+00 -0.11780208022E+04  0.11780208022E+04  0.25500000000E-02 0. -1.
    8880023    1    1    2    0    0  0.30232523760E+03 -0.25148848806E+03 -0.10092675314E+04  0.12677058669E+04  0.65864270000E+03 0. -1.
    8880022    1    1    2    0    0 -0.30232523760E+03  0.25148848806E+03  0.10863208435E+04  0.11653890496E+04  0.15294330000E+03 0.  0.
<mgrwt>
<rscale>  0 0.66062861E+03</rscale>
<asrwt>0</asrwt>
<pdfrwt beam="1">  1        2 0.18123397E+00 0.76710965E+03</pdfrwt>
<pdfrwt beam="2">  1       -2 0.19308833E+00 0.76710965E+03</pdfrwt>
<totfact> 0.29519361E+00</totfact>
</mgrwt>
</event>
<event>
 4    2  0.3171963E-007  0.7231218E+03  0.7818608E-02  0.9912161E-01
          2   -1    0    0  501    0  0.00000000000E+00  0.00000000000E+00  0.51162102135E+03  0.51162102136E+03  0.25500000000E-02 0. -1.
         -2   -1    0    0    0  501 -0.00000000000E+00 -0.00000000000E+00 -0.12353651057E+04  0.12353651057E+04  0.25500000000E-02 0.  1.
    8880023    1    1    2    0    0  0.22456982616E+03  0.19663005800E+03  0.21150457987E+03  0.75341846281E+03  0.65864270000E+03 0.  0.
    8880022    1    1    2    0    0 -0.22456982616E+03 -0.19663005800E+03 -0.93524866421E+03  0.99356766425E+03  0.15294330000E+03 0.  0.
<mgrwt>
<rscale>  0 0.59675522E+03</rscale>
<asrwt>0</asrwt>
<pdfrwt beam="1">  1        2 0.78710927E-01 0.72312184E+03</pdfrwt>
<pdfrwt beam="2">  1       -2 0.19005617E+00 0.72312184E+03</pdfrwt>
<totfact> 0.94787965E+00</totfact>
</mgrwt>
</event>
<event>
 4    2  0.3171963E-007  0.1145235E+04  0.7818608E-02  0.9212289E-01
          2   -1    0    0  501    0  0.00000000000E+00  0.00000000000E+00  0.17247768210E+04  0.17247768210E+04  0.25500000000E-02 0. -1.
         -2   -1    0    0    0  501 -0.00000000000E+00 -0.00000000000E+00 -0.87115999168E+03  0.87115999168E+03  0.25500000000E-02 0.  1.
    8880023    1    1    2    0    0 -0.79667287051E+03 -0.49301577718E+03 -0.21642552880E+03  0.11655052273E+04  0.65864270000E+03 0.  1.
    8880022    1    1    2    0    0  0.79667287051E+03  0.49301577718E+03  0.10700423581E+04  0.14304315853E+04  0.15294330000E+03 0.  0.
<mgrwt>
<rscale>  0 0.10927483E+04</rscale>
<asrwt>0</asrwt>
<pdfrwt beam="1">  1        2 0.26535028E+00 0.11452347E+04</pdfrwt>
<pdfrwt beam="2">  1       -2 0.13402461E+00 0.11452347E+04</pdfrwt>
<totfact> 0.37382996E+00</totfact>
</mgrwt>
</event>
<event>
 4    2  0.3171963E-007  0.1187393E+04  0.7818608E-02  0.9169475E-01
          2   -1    0    0  501    0  0.00000000000E+00  0.00000000000E+00  0.18321770545E+04  0.18321770545E+04  0.25500000000E-02 0. -1.
         -2   -1    0    0    0  501 -0.00000000000E+00 -0.00000000000E+00 -0.98932468314E+03  0.98932468314E+03  0.25500000000E-02 0.  1.
    8880023    1    1    2    0    0 -0.48109437817E+03  0.86292553270E+03  0.12661749001E+04  0.17358287242E+04  0.65864270000E+03 0. -1.
    8880022    1    1    2    0    0  0.48109437817E+03 -0.86292553270E+03 -0.42332252881E+03  0.10856730134E+04  0.15294330000E+03 0.  0.
<mgrwt>
<rscale>  0 0.11374122E+04</rscale>
<asrwt>0</asrwt>
<pdfrwt beam="1">  1        2 0.28187339E+00 0.11873931E+04</pdfrwt>
<pdfrwt beam="2">  1       -2 0.15220380E+00 0.11873931E+04</pdfrwt>
<totfact> 0.23239867E+00</totfact>
</mgrwt>
</event>
<event>
 4    2  0.3171963E-007  0.8776785E+03  0.7818608E-02  0.9562859E-01
          2   -1    0    0  501    0  0.00000000000E+00  0.00000000000E+00  0.20647255467E+04  0.20647255467E+04  0.25500000000E-02 0. -1.
         -2   -1    0    0    0  501 -0.00000000000E+00 -0.00000000000E+00 -0.38707100672E+03  0.38707100673E+03  0.25500000000E-02 0.  1.
    8880023    1    1    2    0    0  0.21517539698E+03 -0.53871036586E+03  0.16283925242E+04  0.18498599214E+04  0.65864270000E+03 0.  0.
    8880022    1    1    2    0    0 -0.21517539698E+03  0.53871036586E+03  0.49262015797E+02  0.60193663202E+03  0.15294330000E+03 0.  0.
<mgrwt>
<rscale>  0 0.79803964E+03</rscale>
<asrwt>0</asrwt>
<pdfrwt beam="1">  1        2 0.31765008E+00 0.87767848E+03</pdfrwt>
<pdfrwt beam="2">  1       -2 0.59549386E-01 0.87767848E+03</pdfrwt>
<totfact> 0.16481595E+01</totfact>
</mgrwt>
</event>
<event>
 4    2  0.3171963E-007  0.7227510E+03  0.7818608E-02  0.9913385E-01
          2   -1    0    0  501    0  0.00000000000E+00  0.00000000000E+00  0.43604722726E+03  0.43604722727E+03  0.25500000000E-02 0. -1.
         -2   -1    0    0    0  501 -0.00000000000E+00 -0.00000000000E+00 -0.10516426864E+04  0.10516426864E+04  0.25500000000E-02 0.  1.
    8880023    1    1    2    0    0 -0.17143473171E+03  0.24324674225E+03  0.68665216518E+02  0.72600548419E+03  0.65864270000E+03 0.  1.
    8880022    1    1    2    0    0  0.17143473171E+03 -0.24324674225E+03 -0.68426067568E+03  0.76168442950E+03  0.15294330000E+03 0.  0.
<mgrwt>
<rscale>  0 0.59616955E+03</rscale>
<asrwt>0</asrwt>
<pdfrwt beam="1">  1        2 0.67084189E-01 0.72275103E+03</pdfrwt>
<pdfrwt beam="2">  1       -2 0.16179118E+00 0.72275103E+03</pdfrwt>
<totfact> 0.17909614E+01</totfact>
</mgrwt>
</event>
<event>
 4    2  0.3171963E-007  0.8559490E+03  0.7818608E-02  0.9600810E-01
         -2   -1    0    0    0  501 -0.00000000000E+00  0.00000000000E+00  0.15321906792E+04  0.15321906792E+04  0.25500000000E-02 0.  1.
          2   -1    0    0  501    0  0.00000000000E+00 -0.00000000000E+00 -0.52466167826E+03  0.52466167827E+03  0.25500000000E-02 0. -1.
    8880023    1    1    2    0    0 -0.51881248639E+03  0.17225587279E+03 -0.49142772087E+02  0.85735855980E+03  0.65864270000E+03 0. -1.
    8880022    1    1    2    0    0  0.51881248639E+03 -0.17225587279E+03  0.10566717731E+04  0.11994937977E+04  0.15294330000E+03 0.  0.
<mgrwt>
<rscale>  0 0.77242565E+03</rscale>
<asrwt>0</asrwt>
<pdfrwt beam="1">  1        2 0.80717180E-01 0.85594900E+03</pdfrwt>
<pdfrwt beam="2">  1       -2 0.23572165E+00 0.85594900E+03</pdfrwt>
<totfact> 0.46439582E+00</totfact>
</mgrwt>
</event>
<event>
 4    2  0.3171963E-007  0.7121839E+03  0.7818608E-02  0.9949979E-01
          2   -1    0    0  501    0  0.00000000000E+00  0.00000000000E+00  0.19458239993E+04  0.19458239993E+04  0.25500000000E-02 0. -1.
         -2   -1    0    0    0  501 -0.00000000000E+00 -0.00000000000E+00 -0.34146988539E+03  0.34146988540E+03  0.25500000000E-02 0.  1.
    8880023    1    1    2    0    0  0.23656266373E+03 -0.13203741077E+03  0.17889808763E+04  0.19255281233E+04  0.65864270000E+03 0. -1.
    8880022    1    1    2    0    0 -0.23656266373E+03  0.13203741077E+03 -0.18462676237E+03  0.36176576139E+03  0.15294330000E+03 0.  0.
<mgrwt>
<rscale>  0 0.57899059E+03</rscale>
<asrwt>0</asrwt>
<pdfrwt beam="1">  1        2 0.29935753E+00 0.71218395E+03</pdfrwt>
<pdfrwt beam="2">  1       -2 0.52533830E-01 0.71218395E+03</pdfrwt>
<totfact> 0.25399981E+01</totfact>
</mgrwt>
</event>
<event>
 4    2  0.3171963E-007  0.1001506E+04  0.7818608E-02  0.9379590E-01
         -2   -1    0    0    0  501 -0.00000000000E+00  0.00000000000E+00  0.16677770142E+04  0.16677770143E+04  0.25500000000E-02 0.  1.
          2   -1    0    0  501    0  0.00000000000E+00 -0.00000000000E+00 -0.88802724931E+03  0.88802724931E+03  0.25500000000E-02 0. -1.
    8880023    1    1    2    0    0 -0.29646876984E+03  0.69376566259E+03  0.12893444333E+04  0.16326125689E+04  0.65864270000E+03 0.  1.
    8880022    1    1    2    0    0  0.29646876984E+03 -0.69376566259E+03 -0.50959466837E+03  0.92319169468E+03  0.15294330000E+03 0.  0.
<mgrwt>
<rscale>  0 0.93774574E+03</rscale>
<asrwt>0</asrwt>
<pdfrwt beam="1">  1        2 0.13661958E+00 0.10015062E+04</pdfrwt>
<pdfrwt beam="2">  1       -2 0.25658108E+00 0.10015062E+04</pdfrwt>
<totfact> 0.17453330E+00</totfact>
</mgrwt>
</event>
<event>
 4    2  0.3171963E-007  0.6861719E+03  0.7818608E-02  0.1006028E+00
         -2   -1    0    0    0  501 -0.00000000000E+00  0.00000000000E+00  0.59525597181E+03  0.59525597182E+03  0.25500000000E-02 0.  1.
          2   -1    0    0  501    0  0.00000000000E+00 -0.00000000000E+00 -0.12747357156E+04  0.12747357156E+04  0.25500000000E-02 0. -1.
    8880023    1    1    2    0    0  0.33839108475E+02  0.18941111832E+03 -0.11499927957E+04  0.13391472262E+04  0.65864270000E+03 0. -1.
    8880022    1    1    2    0    0 -0.33839108475E+02 -0.18941111832E+03  0.47051305190E+03  0.53084446124E+03  0.15294330000E+03 0.  0.
<mgrwt>
<rscale>  0 0.53084322E+03</rscale>
<asrwt>0</asrwt>
<pdfrwt beam="1">  1        2 0.19611319E+00 0.68617189E+03</pdfrwt>
<pdfrwt beam="2">  1       -2 0.91577842E-01 0.68617189E+03</pdfrwt>
<totfact> 0.17855269E+01</totfact>
</mgrwt>
</event>
<event>
 4    2  0.3171963E-007  0.7079608E+03  0.7818608E-02  0.9965653E-01
          2   -1    0    0  501    0  0.00000000000E+00  0.00000000000E+00  0.27483272071E+04  0.27483272071E+04  0.25500000000E-02 0. -1.
         -2   -1    0    0    0  501 -0.00000000000E+00 -0.00000000000E+00 -0.10275057152E+03  0.10275057155E+03  0.25500000000E-02 0.  1.
    8880023    1    1    2    0    0 -0.19865231062E+03 -0.16713943617E+03  0.22161575493E+04  0.23264915261E+04  0.65864270000E+03 0.  0.
    8880022    1    1    2    0    0  0.19865231062E+03  0.16713943617E+03  0.42941908624E+03  0.52458625247E+03  0.15294330000E+03 0.  0.
<mgrwt>
<rscale>  0 0.57182306E+03</rscale>
<asrwt>0</asrwt>
<pdfrwt beam="1">  1        2 0.42281950E+00 0.70796083E+03</pdfrwt>
<pdfrwt beam="2">  1       -2 0.15807783E-01 0.70796083E+03</pdfrwt>
<totfact> 0.83761160E+01</totfact>
</mgrwt>
</event>
<event>
 4    2  0.3171963E-007  0.6743019E+03  0.7818608E-02  0.1012750E+00
          2   -1    0    0  501    0  0.00000000000E+00  0.00000000000E+00  0.14275873636E+04  0.14275873636E+04  0.25500000000E-02 0. -1.
         -2   -1    0    0    0  501 -0.00000000000E+00 -0.00000000000E+00 -0.31878254278E+03  0.31878254279E+03  0.25500000000E-02 0.  1.
    8880023    1    1    2    0    0 -0.11287437882E+03  0.90178575322E+02  0.12984650694E+04  0.14631112547E+04  0.65864270000E+03 0. -1.
    8880022    1    1    2    0    0  0.11287437882E+03 -0.90178575322E+02 -0.18966024860E+03  0.28325865169E+03  0.15294330000E+03 0.  0.
<mgrwt>
<rscale>  0 0.50396185E+03</rscale>
<asrwt>0</asrwt>
<pdfrwt beam="1">  1        2 0.21962882E+00 0.67430187E+03</pdfrwt>
<pdfrwt beam="2">  1       -2 0.49043469E-01 0.67430187E+03</pdfrwt>
<totfact> 0.56489999E+01</totfact>
</mgrwt>
</event>
<event>
 4    2  0.3171963E-007  0.9624838E+03  0.7818608E-02  0.9432376E-01
          2   -1    0    0  501    0  0.00000000000E+00  0.00000000000E+00  0.12651180430E+04  0.12651180430E+04  0.25500000000E-02 0. -1.
         -2   -1    0    0    0  501 -0.00000000000E+00 -0.00000000000E+00 -0.18893729776E+04  0.18893729776E+04  0.25500000000E-02 0.  1.
    8880023    1    1    2    0    0  0.14404005165E+03  0.68688960471E+03 -0.16452712398E+04  0.19061197560E+04  0.65864270000E+03 0.  0.
    8880022    1    1    2    0    0 -0.14404005165E+03 -0.68688960471E+03  0.10210163052E+04  0.12483712645E+04  0.15294330000E+03 0.  0.
<mgrwt>
<rscale>  0 0.89458520E+03</rscale>
<asrwt>0</asrwt>
<pdfrwt beam="1">  1        2 0.19463355E+00 0.96248380E+03</pdfrwt>
<pdfrwt beam="2">  1       -2 0.29067277E+00 0.96248380E+03</pdfrwt>
<totfact> 0.63347457E-01</totfact>
</mgrwt>
</event>
<event>
 4    2  0.3171963E-007  0.7579650E+03  0.7818608E-02  0.9810405E-01
          2   -1    0    0  501    0  0.00000000000E+00  0.00000000000E+00  0.38995873685E+03  0.38995873686E+03  0.25500000000E-02 0. -1.
         -2   -1    0    0    0  501 -0.00000000000E+00 -0.00000000000E+00 -0.10450746314E+04  0.10450746314E+04  0.25500000000E-02 0.  1.
    8880023    1    1    2    0    0 -0.24835734851E+02 -0.37427778066E+03 -0.69451608571E+03  0.10280386522E+04  0.65864270000E+03 0.  1.
    8880022    1    1    2    0    0  0.24835734851E+02  0.37427778066E+03  0.39400191173E+02  0.40699471606E+03  0.15294330000E+03 0.  0.
<mgrwt>
<rscale>  0 0.64807143E+03</rscale>
<asrwt>0</asrwt>
<pdfrwt beam="1">  1        2 0.59993652E-01 0.75796496E+03</pdfrwt>
<pdfrwt beam="2">  1       -2 0.16078071E+00 0.75796496E+03</pdfrwt>
<totfact> 0.20605522E+01</totfact>
</mgrwt>
</event>
<event>
 4    2  0.3171963E-007  0.6908092E+03  0.7818608E-02  0.1003770E+00
         -2   -1    0    0    0  501 -0.00000000000E+00  0.00000000000E+00  0.31827587048E+03  0.31827587049E+03  0.25500000000E-02 0.  1.
          2   -1    0    0  501    0  0.00000000000E+00 -0.00000000000E+00 -0.73438116358E+03  0.73438116358E+03  0.25500000000E-02 0. -1.
    8880023    1    1    2    0    0 -0.55797202245E+01  0.20826895280E+03 -0.20981514691E+03  0.72196931522E+03  0.65864270000E+03 0.  1.
    8880022    1    1    2    0    0  0.55797202245E+01 -0.20826895280E+03 -0.20629014618E+03  0.33068771886E+03  0.15294330000E+03 0. -1.
<mgrwt>
<rscale>  0 0.54027466E+03</rscale>
<asrwt>0</asrwt>
<pdfrwt beam="1">  1        2 0.11298172E+00 0.69080916E+03</pdfrwt>
<pdfrwt beam="2">  1       -2 0.48965519E-01 0.69080916E+03</pdfrwt>
<totfact> 0.15431526E+02</totfact>
</mgrwt>
</event>
<event>
 4    2  0.3171963E-007  0.7866901E+03  0.7818608E-02  0.9740350E-01
         -2   -1    0    0    0  501 -0.00000000000E+00  0.00000000000E+00  0.64657366019E+03  0.64657366020E+03  0.25500000000E-02 0.  1.
          2   -1    0    0  501    0  0.00000000000E+00 -0.00000000000E+00 -0.99059249195E+03  0.99059249196E+03  0.25500000000E-02 0. -1.
    8880023    1    1    2    0    0 -0.41858462816E+03  0.99287662851E+02 -0.70403777898E+03  0.10557227531E+04  0.65864270000E+03 0.  0.
    8880022    1    1    2    0    0  0.41858462816E+03 -0.99287662851E+02  0.36001894722E+03  0.58144339905E+03  0.15294330000E+03 0.  0.
<mgrwt>
<rscale>  0 0.68664354E+03</rscale>
<asrwt>0</asrwt>
<pdfrwt beam="1">  1        2 0.15239885E+00 0.78669012E+03</pdfrwt>
<pdfrwt beam="2">  1       -2 0.99472871E-01 0.78669012E+03</pdfrwt>
<totfact> 0.21633755E+01</totfact>
</mgrwt>
</event>
<event>
 4    2  0.3171963E-007  0.7233964E+03  0.7818608E-02  0.9911257E-01
          2   -1    0    0  501    0  0.00000000000E+00  0.00000000000E+00  0.15715507127E+04  0.15715507128E+04  0.25500000000E-02 0. -1.
         -2   -1    0    0    0  501 -0.00000000000E+00 -0.00000000000E+00 -0.52759193467E+03  0.52759193467E+03  0.25500000000E-02 0.  1.
    8880023    1    1    2    0    0 -0.29641543501E+03 -0.40374241011E+02  0.14207486797E+04  0.15943115149E+04  0.65864270000E+03 0. -1.
    8880022    1    1    2    0    0  0.29641543501E+03  0.40374241011E+02 -0.37678990157E+03  0.50483113255E+03  0.15294330000E+03 0.  0.
<mgrwt>
<rscale>  0 0.59718824E+03</rscale>
<asrwt>0</asrwt>
<pdfrwt beam="1">  1        2 0.24177703E+00 0.72339643E+03</pdfrwt>
<pdfrwt beam="2">  1       -2 0.81167990E-01 0.72339643E+03</pdfrwt>
<totfact> 0.15928704E+01</totfact>
</mgrwt>
</event>
<event>
 4    2  0.3171963E-007  0.1105341E+04  0.7818608E-02  0.9255133E-01
          2   -1    0    0  501    0  0.00000000000E+00  0.00000000000E+00  0.14829899790E+04  0.14829899790E+04  0.25500000000E-02 0. -1.
         -2   -1    0    0    0  501 -0.00000000000E+00 -0.00000000000E+00 -0.70223563379E+03  0.70223563380E+03  0.25500000000E-02 0.  1.
    8880023    1    1    2    0    0  0.39214499320E+03 -0.79636087505E+03  0.22868310898E+03  0.11287490906E+04  0.65864270000E+03 0.  1.
    8880022    1    1    2    0    0 -0.39214499320E+03  0.79636087505E+03  0.55207123623E+03  0.10564765222E+04  0.15294330000E+03 0.  0.
<mgrwt>
<rscale>  0 0.10502045E+04</rscale>
<asrwt>0</asrwt>
<pdfrwt beam="1">  1        2 0.22815230E+00 0.11053409E+04</pdfrwt>
<pdfrwt beam="2">  1       -2 0.10803625E+00 0.11053409E+04</pdfrwt>
<totfact> 0.87706236E+00</totfact>
</mgrwt>
</event>
<event>
 4    2  0.3171963E-007  0.6959277E+03  0.7818608E-02  0.1001453E+00
          2   -1    0    0  501    0  0.00000000000E+00  0.00000000000E+00  0.72153880783E+03  0.72153880783E+03  0.25500000000E-02 0. -1.
         -2   -1    0    0    0  501 -0.00000000000E+00 -0.00000000000E+00 -0.32882940083E+03  0.32882940084E+03  0.25500000000E-02 0.  1.
    8880023    1    1    2    0    0 -0.10516669396E+03  0.19860799680E+03  0.33548478874E+03  0.77257065674E+03  0.65864270000E+03 0.  1.
    8880022    1    1    2    0    0  0.10516669396E+03 -0.19860799680E+03  0.57224618255E+02  0.27779755193E+03  0.15294330000E+03 0.  0.
<mgrwt>
<rscale>  0 0.55017559E+03</rscale>
<asrwt>0</asrwt>
<pdfrwt beam="1">  1        2 0.11100597E+00 0.69592771E+03</pdfrwt>
<pdfrwt beam="2">  1       -2 0.50589140E-01 0.69592771E+03</pdfrwt>
<totfact> 0.14766526E+02</totfact>
</mgrwt>
</event>
<event>
 4    2  0.3171963E-007  0.8888116E+03  0.7818608E-02  0.9544237E-01
         -2   -1    0    0    0  501 -0.00000000000E+00  0.00000000000E+00  0.89131855551E+03  0.89131855551E+03  0.25500000000E-02 0.  1.
          2   -1    0    0  501    0  0.00000000000E+00 -0.00000000000E+00 -0.16904471689E+04  0.16904471689E+04  0.25500000000E-02 0. -1.
    8880023    1    1    2    0    0 -0.44306187481E+03  0.39983994445E+03 -0.14403647704E+04  0.16925237618E+04  0.65864270000E+03 0. -1.
    8880022    1    1    2    0    0  0.44306187481E+03 -0.39983994445E+03  0.64123615700E+03  0.88924196266E+03  0.15294330000E+03 0.  0.
<mgrwt>
<rscale>  0 0.81099541E+03</rscale>
<asrwt>0</asrwt>
<pdfrwt beam="1">  1        2 0.26006879E+00 0.88881157E+03</pdfrwt>
<pdfrwt beam="2">  1       -2 0.13712593E+00 0.88881157E+03</pdfrwt>
<totfact> 0.37958152E+00</totfact>
</mgrwt>
</event>
<event>
 4    2  0.3171963E-007  0.7301160E+03  0.7818608E-02  0.9889734E-01
          2   -1    0    0  501    0  0.00000000000E+00  0.00000000000E+00  0.30762372978E+04  0.30762372978E+04  0.25500000000E-02 0. -1.
         -2   -1    0    0    0  501 -0.00000000000E+00 -0.00000000000E+00 -0.15227480508E+03  0.15227480510E+03  0.25500000000E-02 0.  1.
    8880023    1    1    2    0    0 -0.44302562563E+02 -0.31192370954E+03  0.27345806304E+04  0.28303710972E+04  0.65864270000E+03 0. -1.
    8880022    1    1    2    0    0  0.44302562563E+02  0.31192370954E+03  0.18938186238E+03  0.39814100572E+03  0.15294330000E+03 0.  0.
<mgrwt>
<rscale>  0 0.60761386E+03</rscale>
<asrwt>0</asrwt>
<pdfrwt beam="1">  1        2 0.47326725E+00 0.73011597E+03</pdfrwt>
<pdfrwt beam="2">  1       -2 0.23426894E-01 0.73011597E+03</pdfrwt>
<totfact> 0.26713977E+01</totfact>
</mgrwt>
</event>
<event>
 4    2  0.3171963E-007  0.7144560E+03  0.7818608E-02  0.9941812E-01
         -2   -1    0    0    0  501 -0.00000000000E+00  0.00000000000E+00  0.89225983752E+02  0.89225983788E+02  0.25500000000E-02 0.  1.
          2   -1    0    0  501    0  0.00000000000E+00 -0.00000000000E+00 -0.35567813628E+04  0.35567813628E+04  0.25500000000E-02 0. -1.
    8880023    1    1    2    0    0 -0.26370687692E+03 -0.84236893690E+02 -0.29830169723E+04  0.30673828640E+04  0.65864270000E+03 0. -1.
    8880022    1    1    2    0    0  0.26370687692E+03  0.84236893690E+02 -0.48453840671E+03  0.57862448253E+03  0.15294330000E+03 0.  0.
<mgrwt>
<rscale>  0 0.58277010E+03</rscale>
<asrwt>0</asrwt>
<pdfrwt beam="1">  1        2 0.54719702E+00 0.71445600E+03</pdfrwt>
<pdfrwt beam="2">  1       -2 0.13727077E-01 0.71445600E+03</pdfrwt>
<totfact> 0.32718105E+01</totfact>
</mgrwt>
</event>
<event>
 4    2  0.3171963E-007  0.7463058E+03  0.7818608E-02  0.9841945E-01
          2   -1    0    0  501    0  0.00000000000E+00  0.00000000000E+00  0.11584107062E+04  0.11584107062E+04  0.25500000000E-02 0. -1.
         -2   -1    0    0    0  501 -0.00000000000E+00 -0.00000000000E+00 -0.12799181025E+04  0.12799181026E+04  0.25500000000E-02 0.  1.
    8880023    1    1    2    0    0 -0.16387612578E+03 -0.31033337242E+03  0.10031436788E+04  0.12503078154E+04  0.65864270000E+03 0. -1.
    8880022    1    1    2    0    0  0.16387612578E+03  0.31033337242E+03 -0.11246510752E+04  0.11880209933E+04  0.15294330000E+03 0.  0.
<mgrwt>
<rscale>  0 0.63159295E+03</rscale>
<asrwt>0</asrwt>
<pdfrwt beam="1">  1        2 0.17821703E+00 0.74630583E+03</pdfrwt>
<pdfrwt beam="2">  1       -2 0.19691048E+00 0.74630583E+03</pdfrwt>
<totfact> 0.28710719E+00</totfact>
</mgrwt>
</event>
<event>
 4    2  0.3171963E-007  0.6617004E+03  0.7818608E-02  0.1022478E+00
         -2   -1    0    0    0  501 -0.00000000000E+00  0.00000000000E+00  0.18697520504E+03  0.18697520505E+03  0.25500000000E-02 0.  1.
          2   -1    0    0  501    0  0.00000000000E+00 -0.00000000000E+00 -0.22223849403E+04  0.22223849403E+04  0.25500000000E-02 0. -1.
    8880023    1    1    2    0    0  0.58205332213E+02 -0.25481491356E+02 -0.21217867402E+04  0.22225720111E+04  0.65864270000E+03 0. -1.
    8880022    1    1    2    0    0 -0.58205332213E+02  0.25481491356E+02  0.86377004984E+02  0.18678813427E+03  0.15294330000E+03 0.  0.
<mgrwt>
<rscale>  0 0.46802809E+03</rscale>
<asrwt>0</asrwt>
<pdfrwt beam="1">  1        2 0.34190536E+00 0.66170037E+03</pdfrwt>
<pdfrwt beam="2">  1       -2 0.28765418E-01 0.66170037E+03</pdfrwt>
<totfact> 0.58136499E+01</totfact>
</mgrwt>
</event>
<event>
 4    2  0.3171963E-007  0.6737917E+03  0.7818608E-02  0.1013079E+00
         -2   -1    0    0    0  501 -0.00000000000E+00  0.00000000000E+00  0.28784995093E+03  0.28784995095E+03  0.25500000000E-02 0.  1.
          2   -1    0    0  501    0  0.00000000000E+00 -0.00000000000E+00 -0.89059385484E+03  0.89059385485E+03  0.25500000000E-02 0. -1.
    8880023    1    1    2    0    0 -0.55487152355E+02  0.13079099723E+03 -0.67864448204E+03  0.95632298325E+03  0.65864270000E+03 0. -1.
    8880022    1    1    2    0    0  0.55487152355E+02 -0.13079099723E+03  0.75900578126E+02  0.22212082254E+03  0.15294330000E+03 0.  0.
<mgrwt>
<rscale>  0 0.50269103E+03</rscale>
<asrwt>0</asrwt>
<pdfrwt beam="1">  1        2 0.13701444E+00 0.67379174E+03</pdfrwt>
<pdfrwt beam="2">  1       -2 0.44284608E-01 0.67379174E+03</pdfrwt>
<totfact> 0.14624477E+02</totfact>
</mgrwt>
</event>
<event>
 4    2  0.3171963E-007  0.1087520E+04  0.7818608E-02  0.9275080E-01
          2   -1    0    0  501    0  0.00000000000E+00  0.00000000000E+00  0.19372393928E+04  0.19372393928E+04  0.25500000000E-02 0. -1.
         -2   -1    0    0    0  501 -0.00000000000E+00 -0.00000000000E+00 -0.69906142674E+03  0.69906142675E+03  0.25500000000E-02 0.  1.
    8880023    1    1    2    0    0  0.47159244506E+03  0.72559637890E+03  0.13683906566E+04  0.17479109630E+04  0.65864270000E+03 0. -1.
    8880022    1    1    2    0    0 -0.47159244506E+03 -0.72559637890E+03 -0.13021269059E+03  0.88838985649E+03  0.15294330000E+03 0.  0.
<mgrwt>
<rscale>  0 0.10310978E+04</rscale>
<asrwt>0</asrwt>
<pdfrwt beam="1">  1        2 0.29803683E+00 0.10875200E+04</pdfrwt>
<pdfrwt beam="2">  1       -2 0.10754791E+00 0.10875200E+04</pdfrwt>
<totfact> 0.49689142E+00</totfact>
</mgrwt>
</event>
<event>
 4    2  0.3171963E-007  0.8558300E+03  0.7818608E-02  0.9601024E-01
          2   -1    0    0  501    0  0.00000000000E+00  0.00000000000E+00  0.29891043863E+03  0.29891043864E+03  0.25500000000E-02 0. -1.
         -2   -1    0    0    0  501 -0.00000000000E+00 -0.00000000000E+00 -0.23030832809E+04  0.23030832809E+04  0.25500000000E-02 0.  1.
    8880023    1    1    2    0    0 -0.44088804472E+03  0.32288169846E+03 -0.49273933308E+03  0.98754094386E+03  0.65864270000E+03 0.  0.
    8880022    1    1    2    0    0  0.44088804472E+03 -0.32288169846E+03 -0.15114335092E+04  0.16144527757E+04  0.15294330000E+03 0.  0.
<mgrwt>
<rscale>  0 0.77228411E+03</rscale>
<asrwt>0</asrwt>
<pdfrwt beam="1">  1        2 0.45986223E-01 0.85583004E+03</pdfrwt>
<pdfrwt beam="2">  1       -2 0.35432049E+00 0.85583004E+03</pdfrwt>
<totfact> 0.16695755E+00</totfact>
</mgrwt>
</event>
<event>
 4    2  0.3171963E-007  0.7618724E+03  0.7818608E-02  0.9800284E-01
          2   -1    0    0  501    0  0.00000000000E+00  0.00000000000E+00  0.16196120175E+04  0.16196120175E+04  0.25500000000E-02 0. -1.
         -2   -1    0    0    0  501 -0.00000000000E+00 -0.00000000000E+00 -0.24447429004E+03  0.24447429005E+03  0.25500000000E-02 0.  1.
    8880023    1    1    2    0    0 -0.44310759474E+02  0.38036288240E+03  0.11878855239E+04  0.14112128081E+04  0.65864270000E+03 0.  0.
    8880022    1    1    2    0    0  0.44310759474E+02 -0.38036288240E+03  0.18725220357E+03  0.45287349942E+03  0.15294330000E+03 0.  0.
<mgrwt>
<rscale>  0 0.65347309E+03</rscale>
<asrwt>0</asrwt>
<pdfrwt beam="1">  1        2 0.24917108E+00 0.76187241E+03</pdfrwt>
<pdfrwt beam="2">  1       -2 0.37611429E-01 0.76187241E+03</pdfrwt>
<totfact> 0.73984359E+01</totfact>
</mgrwt>
</event>
<event>
 4    2  0.3171963E-007  0.7517841E+03  0.7818608E-02  0.9826861E-01
          2   -1    0    0  501    0  0.00000000000E+00  0.00000000000E+00  0.32995086824E+03  0.32995086825E+03  0.25500000000E-02 0. -1.
         -2   -1    0    0    0  501 -0.00000000000E+00 -0.00000000000E+00 -0.22893659827E+04  0.22893659827E+04  0.25500000000E-02 0.  1.
    8880023    1    1    2    0    0 -0.17093451369E+03  0.31960998928E+03 -0.14868649497E+03  0.76634654907E+03  0.65864270000E+03 0.  0.
    8880022    1    1    2    0    0  0.17093451369E+03 -0.31960998928E+03 -0.18107286195E+04  0.18529703019E+04  0.15294330000E+03 0.  0.
<mgrwt>
<rscale>  0 0.63940714E+03</rscale>
<asrwt>0</asrwt>
<pdfrwt beam="1">  1        2 0.50761674E-01 0.75178412E+03</pdfrwt>
<pdfrwt beam="2">  1       -2 0.35221014E+00 0.75178412E+03</pdfrwt>
<totfact> 0.15657082E+00</totfact>
</mgrwt>
</event>
<event>
 4    2  0.3171963E-007  0.7355051E+03  0.7818608E-02  0.9873239E-01
          2   -1    0    0  501    0  0.00000000000E+00  0.00000000000E+00  0.33083069063E+03  0.33083069064E+03  0.25500000000E-02 0. -1.
         -2   -1    0    0    0  501 -0.00000000000E+00 -0.00000000000E+00 -0.10222796784E+04  0.10222796784E+04  0.25500000000E-02 0.  1.
    8880023    1    1    2    0    0 -0.31898399368E+03 -0.73530300433E+02 -0.23745359354E+03  0.77288544342E+03  0.65864270000E+03 0.  0.
    8880022    1    1    2    0    0  0.31898399368E+03  0.73530300433E+02 -0.45399539422E+03  0.58022492560E+03  0.15294330000E+03 0.  0.
<mgrwt>
<rscale>  0 0.61575934E+03</rscale>
<asrwt>0</asrwt>
<pdfrwt beam="1">  1        2 0.50897030E-01 0.73550506E+03</pdfrwt>
<pdfrwt beam="2">  1       -2 0.15727380E+00 0.73550506E+03</pdfrwt>
<totfact> 0.26337204E+01</totfact>
</mgrwt>
</event>
<event>
 4    2  0.3171963E-007  0.7306001E+03  0.7818608E-02  0.9888226E-01
         -2   -1    0    0    0  501 -0.00000000000E+00  0.00000000000E+00  0.17505378796E+04  0.17505378796E+04  0.25500000000E-02 0.  1.
          2   -1    0    0  501    0  0.00000000000E+00 -0.00000000000E+00 -0.46017379190E+03  0.46017379191E+03  0.25500000000E-02 0. -1.
    8880023    1    1    2    0    0 -0.30401456020E+03  0.86841168159E+02 -0.13477857451E+03  0.74292779711E+03  0.65864270000E+03 0.  0.
    8880022    1    1    2    0    0  0.30401456020E+03 -0.86841168159E+02  0.14251426622E+04  0.14677838744E+04  0.15294330000E+03 0.  0.
<mgrwt>
<rscale>  0 0.60835299E+03</rscale>
<asrwt>0</asrwt>
<pdfrwt beam="1">  1        2 0.70795967E-01 0.73060006E+03</pdfrwt>
<pdfrwt beam="2">  1       -2 0.26931352E+00 0.73060006E+03</pdfrwt>
<totfact> 0.34375577E+00</totfact>
</mgrwt>
</event>
<event>
 4    2  0.3171963E-007  0.1043567E+04  0.7818608E-02  0.9326655E-01
         -2   -1    0    0    0  501 -0.00000000000E+00  0.00000000000E+00  0.76800644069E+03  0.76800644070E+03  0.25500000000E-02 0.  1.
          2   -1    0    0  501    0  0.00000000000E+00 -0.00000000000E+00 -0.14314276431E+04  0.14314276431E+04  0.25500000000E-02 0. -1.
    8880023    1    1    2    0    0 -0.11738694838E+03 -0.80090100405E+03 -0.86029309854E+03  0.13524557426E+04  0.65864270000E+03 0.  0.
    8880022    1    1    2    0    0  0.11738694838E+03  0.80090100405E+03  0.19687189617E+03  0.84697834120E+03  0.15294330000E+03 0.  0.
<mgrwt>
<rscale>  0 0.98365572E+03</rscale>
<asrwt>0</asrwt>
<pdfrwt beam="1">  1        2 0.22021964E+00 0.10435671E+04</pdfrwt>
<pdfrwt beam="2">  1       -2 0.11815484E+00 0.10435671E+04</pdfrwt>
<totfact> 0.75797733E+00</totfact>
</mgrwt>
</event>
<event>
 4    2  0.3171963E-007  0.9442643E+03  0.7818608E-02  0.9458415E-01
         -2   -1    0    0    0  501 -0.00000000000E+00  0.00000000000E+00  0.13048489303E+04  0.13048489303E+04  0.25500000000E-02 0.  1.
          2   -1    0    0  501    0  0.00000000000E+00 -0.00000000000E+00 -0.98711971389E+03  0.98711971389E+03  0.25500000000E-02 0. -1.
    8880023    1    1    2    0    0  0.67467745797E+03  0.51333619252E+02 -0.61698400362E+03  0.11279646625E+04  0.65864270000E+03 0.  0.
    8880022    1    1    2    0    0 -0.67467745797E+03 -0.51333619252E+02  0.93471322003E+03  0.11640039817E+04  0.15294330000E+03 0.  0.
<mgrwt>
<rscale>  0 0.87420388E+03</rscale>
<asrwt>0</asrwt>
<pdfrwt beam="1">  1        2 0.15186457E+00 0.94426427E+03</pdfrwt>
<pdfrwt beam="2">  1       -2 0.20074599E+00 0.94426427E+03</pdfrwt>
<totfact> 0.33714972E+00</totfact>
</mgrwt>
</event>
<event>
 4    2  0.3171963E-007  0.8543079E+03  0.7818608E-02  0.9603770E-01
         -2   -1    0    0    0  501 -0.00000000000E+00  0.00000000000E+00  0.35758068679E+03  0.35758068680E+03  0.25500000000E-02 0.  1.
          2   -1    0    0  501    0  0.00000000000E+00 -0.00000000000E+00 -0.27025483251E+04  0.27025483251E+04  0.25500000000E-02 0. -1.
    8880023    1    1    2    0    0 -0.29591136830E+03 -0.45658316863E+03 -0.23441305093E+04  0.24949528610E+04  0.65864270000E+03 0. -1.
    8880022    1    1    2    0    0  0.29591136830E+03  0.45658316863E+03 -0.83712904570E+00  0.56517615092E+03  0.15294330000E+03 0.  0.
<mgrwt>
<rscale>  0 0.77047161E+03</rscale>
<asrwt>0</asrwt>
<pdfrwt beam="1">  1        2 0.41577665E+00 0.85430787E+03</pdfrwt>
<pdfrwt beam="2">  1       -2 0.55012415E-01 0.85430787E+03</pdfrwt>
<totfact> 0.85275924E+00</totfact>
</mgrwt>
</event>
<event>
 4    2  0.3171963E-007  0.9922343E+03  0.7818608E-02  0.9391789E-01
          2   -1    0    0  501    0  0.00000000000E+00  0.00000000000E+00  0.21460527352E+04  0.21460527352E+04  0.25500000000E-02 0. -1.
         -2   -1    0    0    0  501 -0.00000000000E+00 -0.00000000000E+00 -0.47893184345E+03  0.47893184345E+03  0.25500000000E-02 0.  1.
    8880023    1    1    2    0    0  0.72325415050E+03 -0.16619893204E+03  0.25825417195E+03  0.10252921900E+04  0.65864270000E+03 0.  0.
    8880022    1    1    2    0    0 -0.72325415050E+03  0.16619893204E+03  0.14088667198E+04  0.15996923887E+04  0.15294330000E+03 0.  0.
<mgrwt>
<rscale>  0 0.92754521E+03</rscale>
<asrwt>0</asrwt>
<pdfrwt beam="1">  1        2 0.33016196E+00 0.99223428E+03</pdfrwt>
<pdfrwt beam="2">  1       -2 0.73681821E-01 0.99223428E+03</pdfrwt>
<totfact> 0.92478775E+00</totfact>
</mgrwt>
</event>
<event>
 4    2  0.3171963E-007  0.7397495E+03  0.7818608E-02  0.9860677E-01
         -2   -1    0    0    0  501 -0.00000000000E+00  0.00000000000E+00  0.24010032950E+04  0.24010032950E+04  0.25500000000E-02 0.  1.
          2   -1    0    0  501    0  0.00000000000E+00 -0.00000000000E+00 -0.55539767173E+03  0.55539767174E+03  0.25500000000E-02 0. -1.
    8880023    1    1    2    0    0  0.29434890123E+03  0.16363926098E+03 -0.28587456270E+03  0.79306592112E+03  0.65864270000E+03 0. -1.
    8880022    1    1    2    0    0 -0.29434890123E+03 -0.16363926098E+03  0.21314801859E+04  0.21633350456E+04  0.15294330000E+03 0.  0.
<mgrwt>
<rscale>  0 0.62205462E+03</rscale>
<asrwt>0</asrwt>
<pdfrwt beam="1">  1        2 0.85445794E-01 0.73974948E+03</pdfrwt>
<pdfrwt beam="2">  1       -2 0.36938513E+00 0.73974948E+03</pdfrwt>
<totfact> 0.67631838E-01</totfact>
</mgrwt>
</event>
<event>
 4    2  0.3171963E-007  0.6619199E+03  0.7818608E-02  0.1022270E+00
          2   -1    0    0  501    0  0.00000000000E+00  0.00000000000E+00  0.74895952576E+03  0.74895952576E+03  0.25500000000E-02 0. -1.
         -2   -1    0    0    0  501 -0.00000000000E+00 -0.00000000000E+00 -0.28869054088E+03  0.28869054089E+03  0.25500000000E-02 0.  1.
    8880023    1    1    2    0    0  0.61633518724E+02  0.23002232355E+02  0.53887375895E+03  0.85353554564E+03  0.65864270000E+03 0. -1.
    8880022    1    1    2    0    0 -0.61633518724E+02 -0.23002232355E+02 -0.78604774072E+02  0.18411452101E+03  0.15294330000E+03 0.  0.
<mgrwt>
<rscale>  0 0.46876175E+03</rscale>
<asrwt>0</asrwt>
<pdfrwt beam="1">  1        2 0.11522454E+00 0.66191993E+03</pdfrwt>
<pdfrwt beam="2">  1       -2 0.44413930E-01 0.66191993E+03</pdfrwt>
<totfact> 0.18328536E+02</totfact>
</mgrwt>
</event>
<event>
 4    2  0.3171963E-007  0.6945860E+03  0.7818608E-02  0.1002045E+00
          2   -1    0    0  501    0  0.00000000000E+00  0.00000000000E+00  0.11675117578E+04  0.11675117578E+04  0.25500000000E-02 0. -1.
         -2   -1    0    0    0  501 -0.00000000000E+00 -0.00000000000E+00 -0.28682340361E+03  0.28682340362E+03  0.25500000000E-02 0.  1.
    8880023    1    1    2    0    0  0.21636735719E+03 -0.42716105185E+02  0.95028791925E+03  0.11770712955E+04  0.65864270000E+03 0. -1.
    8880022    1    1    2    0    0 -0.21636735719E+03  0.42716105185E+02 -0.69599565037E+02  0.27726386596E+03  0.15294330000E+03 0.  0.
<mgrwt>
<rscale>  0 0.54762663E+03</rscale>
<asrwt>0</asrwt>
<pdfrwt beam="1">  1        2 0.17961719E+00 0.69458600E+03</pdfrwt>
<pdfrwt beam="2">  1       -2 0.44126678E-01 0.69458600E+03</pdfrwt>
<totfact> 0.98384770E+01</totfact>
</mgrwt>
</event>
<event>
 4    2  0.3171963E-007  0.7736118E+03  0.7818608E-02  0.9771063E-01
         -2   -1    0    0    0  501 -0.00000000000E+00  0.00000000000E+00  0.43520746147E+03  0.43520746148E+03  0.25500000000E-02 0.  1.
          2   -1    0    0  501    0  0.00000000000E+00 -0.00000000000E+00 -0.21481469064E+04  0.21481469064E+04  0.25500000000E-02 0. -1.
    8880023    1    1    2    0    0  0.30397130587E+03 -0.26882429011E+03 -0.19437919899E+04  0.20920809162E+04  0.65864270000E+03 0. -1.
    8880022    1    1    2    0    0 -0.30397130587E+03  0.26882429011E+03  0.23085254499E+03  0.49127345164E+03  0.15294330000E+03 0.  0.
<mgrwt>
<rscale>  0 0.66938878E+03</rscale>
<asrwt>0</asrwt>
<pdfrwt beam="1">  1        2 0.33048413E+00 0.77361183E+03</pdfrwt>
<pdfrwt beam="2">  1       -2 0.66954995E-01 0.77361183E+03</pdfrwt>
<totfact> 0.11705722E+01</totfact>
</mgrwt>
</event>
<event>
 4    2  0.3171963E-007  0.7007398E+03  0.7818608E-02  0.9994146E-01
         -2   -1    0    0    0  501 -0.00000000000E+00  0.00000000000E+00  0.44369362644E+03  0.44369362645E+03  0.25500000000E-02 0.  1.
          2   -1    0    0  501    0  0.00000000000E+00 -0.00000000000E+00 -0.30763719133E+04  0.30763719133E+04  0.25500000000E-02 0. -1.
    8880023    1    1    2    0    0 -0.84614171430E+02 -0.22375544580E+03 -0.29858140832E+04  0.30669401695E+04  0.65864270000E+03 0. -1.
    8880022    1    1    2    0    0  0.84614171430E+02  0.22375544580E+03  0.35313579632E+03  0.45312537028E+03  0.15294330000E+03 0.  0.
<mgrwt>
<rscale>  0 0.55907670E+03</rscale>
<asrwt>0</asrwt>
<pdfrwt beam="1">  1        2 0.47328797E+00 0.70073980E+03</pdfrwt>
<pdfrwt beam="2">  1       -2 0.68260560E-01 0.70073980E+03</pdfrwt>
<totfact> 0.33070037E+00</totfact>
</mgrwt>
</event>
<event>
 4    2  0.3171963E-007  0.1014985E+04  0.7818608E-02  0.9362210E-01
          2   -1    0    0  501    0  0.00000000000E+00  0.00000000000E+00  0.14325308579E+04  0.14325308579E+04  0.25500000000E-02 0. -1.
         -2   -1    0    0    0  501 -0.00000000000E+00 -0.00000000000E+00 -0.18227636690E+04  0.18227636690E+04  0.25500000000E-02 0.  1.
    8880023    1    1    2    0    0  0.76063774102E+03  0.13347072999E+03  0.11449231110E+04  0.15300468441E+04  0.65864270000E+03 0. -1.
    8880022    1    1    2    0    0 -0.76063774102E+03 -0.13347072999E+03 -0.15351559221E+04  0.17252476828E+04  0.15294330000E+03 0.  0.
<mgrwt>
<rscale>  0 0.95251984E+03</rscale>
<asrwt>0</asrwt>
<pdfrwt beam="1">  1        2 0.22038936E+00 0.10149849E+04</pdfrwt>
<pdfrwt beam="2">  1       -2 0.28042518E+00 0.10149849E+04</pdfrwt>
<totfact> 0.58015293E-01</totfact>
</mgrwt>
</event>
<event>
 4    2  0.3171963E-007  0.1048247E+04  0.7818608E-02  0.9320992E-01
          2   -1    0    0  501    0  0.00000000000E+00  0.00000000000E+00  0.22691260113E+04  0.22691260113E+04  0.25500000000E-02 0. -1.
         -2   -1    0    0    0  501 -0.00000000000E+00 -0.00000000000E+00 -0.51004322212E+03  0.51004322213E+03  0.25500000000E-02 0.  1.
    8880023    1    1    2    0    0  0.79464674872E+03 -0.18316024660E+03  0.16322056996E+04  0.19398239052E+04  0.65864270000E+03 0. -1.
    8880022    1    1    2    0    0 -0.79464674872E+03  0.18316024660E+03  0.12687708962E+03  0.83934532826E+03  0.15294330000E+03 0.  0.
<mgrwt>
<rscale>  0 0.98873062E+03</rscale>
<asrwt>0</asrwt>
<pdfrwt beam="1">  1        2 0.34909630E+00 0.10482468E+04</pdfrwt>
<pdfrwt beam="2">  1       -2 0.78468189E-01 0.10482468E+04</pdfrwt>
<totfact> 0.68170485E+00</totfact>
</mgrwt>
</event>
<event>
 4    2  0.3171963E-007  0.7935705E+03  0.7818608E-02  0.9724874E-01
         -2   -1    0    0    0  501 -0.00000000000E+00  0.00000000000E+00  0.23901257212E+03  0.23901257213E+03  0.25500000000E-02 0.  1.
          2   -1    0    0  501    0  0.00000000000E+00 -0.00000000000E+00 -0.19210840464E+04  0.19210840464E+04  0.25500000000E-02 0. -1.
    8880023    1    1    2    0    0  0.35217872965E+03  0.26816806503E+03 -0.14113302491E+04  0.16191378098E+04  0.65864270000E+03 0.  1.
    8880022    1    1    2    0    0 -0.35217872965E+03 -0.26816806503E+03 -0.27074122513E+03  0.54095880871E+03  0.15294330000E+03 0.  0.
<mgrwt>
<rscale>  0 0.69554910E+03</rscale>
<asrwt>0</asrwt>
<pdfrwt beam="1">  1        2 0.29555138E+00 0.79357052E+03</pdfrwt>
<pdfrwt beam="2">  1       -2 0.36771166E-01 0.79357052E+03</pdfrwt>
<totfact> 0.52684031E+01</totfact>
</mgrwt>
</event>
<event>
 4    2  0.3171963E-007  0.7072707E+03  0.7818608E-02  0.9968279E-01
         -2   -1    0    0    0  501 -0.00000000000E+00  0.00000000000E+00  0.66872029900E+03  0.66872029901E+03  0.25500000000E-02 0.  1.
          2   -1    0    0  501    0  0.00000000000E+00 -0.00000000000E+00 -0.10136494938E+04  0.10136494938E+04  0.25500000000E-02 0. -1.
    8880023    1    1    2    0    0 -0.20098941837E+03  0.16132214099E+03 -0.84342410650E+03  0.11007252196E+04  0.65864270000E+03 0. -1.
    8880022    1    1    2    0    0  0.20098941837E+03 -0.16132214099E+03  0.49849491171E+03  0.58164457316E+03  0.15294330000E+03 0.  0.
<mgrwt>
<rscale>  0 0.57063285E+03</rscale>
<asrwt>0</asrwt>
<pdfrwt beam="1">  1        2 0.15594608E+00 0.70727066E+03</pdfrwt>
<pdfrwt beam="2">  1       -2 0.10288005E+00 0.70727066E+03</pdfrwt>
<totfact> 0.19464220E+01</totfact>
</mgrwt>
</event>
<event>
 4    2  0.3171963E-007  0.8843200E+03  0.7818608E-02  0.9551687E-01
         -2   -1    0    0    0  501 -0.00000000000E+00  0.00000000000E+00  0.13871679246E+04  0.13871679246E+04  0.25500000000E-02 0.  1.
          2   -1    0    0  501    0  0.00000000000E+00 -0.00000000000E+00 -0.53538744107E+03  0.53538744107E+03  0.25500000000E-02 0. -1.
    8880023    1    1    2    0    0  0.32640321742E+03 -0.49160215068E+03  0.95802114635E+03  0.13037739290E+04  0.65864270000E+03 0.  1.
    8880022    1    1    2    0    0 -0.32640321742E+03  0.49160215068E+03 -0.10624066281E+03  0.61878143666E+03  0.15294330000E+03 0.  0.
<mgrwt>
<rscale>  0 0.80578107E+03</rscale>
<asrwt>0</asrwt>
<pdfrwt beam="1">  1        2 0.82367300E-01 0.88432004E+03</pdfrwt>
<pdfrwt beam="2">  1       -2 0.21341045E+00 0.88432004E+03</pdfrwt>
<totfact> 0.62304275E+00</totfact>
</mgrwt>
</event>
<event>
 4    2  0.3171963E-007  0.1162141E+04  0.7818608E-02  0.9194832E-01
         -2   -1    0    0    0  501 -0.00000000000E+00  0.00000000000E+00  0.10856858451E+04  0.10856858451E+04  0.25500000000E-02 0.  1.
          2   -1    0    0  501    0  0.00000000000E+00 -0.00000000000E+00 -0.12946284749E+04  0.12946284749E+04  0.25500000000E-02 0. -1.
    8880023    1    1    2    0    0 -0.19679640406E+03 -0.93703442698E+03 -0.63148687625E+03  0.13226292841E+04  0.65864270000E+03 0.  0.
    8880022    1    1    2    0    0  0.19679640406E+03  0.93703442698E+03  0.42254424638E+03  0.10576850359E+04  0.15294330000E+03 0.  0.
<mgrwt>
<rscale>  0 0.11106932E+04</rscale>
<asrwt>0</asrwt>
<pdfrwt beam="1">  1        2 0.19917361E+00 0.11621414E+04</pdfrwt>
<pdfrwt beam="2">  1       -2 0.16702859E+00 0.11621414E+04</pdfrwt>
<totfact> 0.36337978E+00</totfact>
</mgrwt>
</event>
<event>
 4    2  0.3171963E-007  0.1128761E+04  0.7818608E-02  0.9229690E-01
          2   -1    0    0  501    0  0.00000000000E+00  0.00000000000E+00  0.10977030539E+04  0.10977030539E+04  0.25500000000E-02 0. -1.
         -2   -1    0    0    0  501 -0.00000000000E+00 -0.00000000000E+00 -0.10275771363E+04  0.10275771363E+04  0.25500000000E-02 0.  1.
    8880023    1    1    2    0    0  0.61361623184E+03  0.68100363356E+03  0.29995961294E+03  0.11679369866E+04  0.65864270000E+03 0.  0.
    8880022    1    1    2    0    0 -0.61361623184E+03 -0.68100363356E+03 -0.22983369534E+03  0.95734320358E+03  0.15294330000E+03 0.  0.
<mgrwt>
<rscale>  0 0.10752160E+04</rscale>
<asrwt>0</asrwt>
<pdfrwt beam="1">  1        2 0.16887739E+00 0.11287608E+04</pdfrwt>
<pdfrwt beam="2">  1       -2 0.15808879E+00 0.11287608E+04</pdfrwt>
<totfact> 0.55700094E+00</totfact>
</mgrwt>
</event>
<event>
 4    2  0.3171963E-007  0.7023825E+03  0.7818608E-02  0.9987458E-01
         -2   -1    0    0    0  501 -0.00000000000E+00  0.00000000000E+00  0.18715337359E+03  0.18715337361E+03  0.25500000000E-02 0.  1.
          2   -1    0    0  501    0  0.00000000000E+00 -0.00000000000E+00 -0.14060494364E+04  0.14060494364E+04  0.25500000000E-02 0. -1.
    8880023    1    1    2    0    0 -0.31190529272E+02 -0.24198779106E+03 -0.10374096964E+04  0.12528208270E+04  0.65864270000E+03 0. -1.
    8880022    1    1    2    0    0  0.31190529272E+02  0.24198779106E+03 -0.18148636640E+03  0.34038198299E+03  0.15294330000E+03 0.  1.
<mgrwt>
<rscale>  0 0.56203629E+03</rscale>
<asrwt>0</asrwt>
<pdfrwt beam="1">  1        2 0.21631529E+00 0.70238248E+03</pdfrwt>
<pdfrwt beam="2">  1       -2 0.28792828E-01 0.70238248E+03</pdfrwt>
<totfact> 0.16177208E+02</totfact>
</mgrwt>
</event>
<event>
 4    2  0.3171963E-007  0.9402294E+03  0.7818608E-02  0.9464313E-01
         -2   -1    0    0    0  501 -0.00000000000E+00  0.00000000000E+00  0.80467572856E+03  0.80467572857E+03  0.25500000000E-02 0.  1.
          2   -1    0    0  501    0  0.00000000000E+00 -0.00000000000E+00 -0.16202416166E+04  0.16202416166E+04  0.25500000000E-02 0. -1.
    8880023    1    1    2    0    0  0.63828575824E+03  0.20691151061E+03 -0.12847177734E+04  0.15920210570E+04  0.65864270000E+03 0. -1.
    8880022    1    1    2    0    0 -0.63828575824E+03 -0.20691151061E+03  0.46915188532E+03  0.83289628820E+03  0.15294330000E+03 0.  0.
<mgrwt>
<rscale>  0 0.86966759E+03</rscale>
<asrwt>0</asrwt>
<pdfrwt beam="1">  1        2 0.24926794E+00 0.94022938E+03</pdfrwt>
<pdfrwt beam="2">  1       -2 0.12379627E+00 0.94022938E+03</pdfrwt>
<totfact> 0.53463207E+00</totfact>
</mgrwt>
</event>
<event>
 4    2  0.3171963E-007  0.8007059E+03  0.7818608E-02  0.9709272E-01
         -2   -1    0    0    0  501 -0.00000000000E+00  0.00000000000E+00  0.22712730462E+03  0.22712730464E+03  0.25500000000E-02 0.  1.
          2   -1    0    0  501    0  0.00000000000E+00 -0.00000000000E+00 -0.27026132054E+04  0.27026132055E+04  0.25500000000E-02 0. -1.
    8880023    1    1    2    0    0 -0.20110675196E+03 -0.40850435483E+03 -0.22704158725E+04  0.24074713236E+04  0.65864270000E+03 0. -1.
    8880022    1    1    2    0    0  0.20110675196E+03  0.40850435483E+03 -0.20507002829E+03  0.52226918646E+03  0.15294330000E+03 0.  0.
<mgrwt>
<rscale>  0 0.70467425E+03</rscale>
<asrwt>0</asrwt>
<pdfrwt beam="1">  1        2 0.41578662E+00 0.80070590E+03</pdfrwt>
<pdfrwt beam="2">  1       -2 0.34942664E-01 0.80070590E+03</pdfrwt>
<totfact> 0.21198165E+01</totfact>
</mgrwt>
</event>
<event>
 4    2  0.3171963E-007  0.7740356E+03  0.7818608E-02  0.9770039E-01
         -2   -1    0    0    0  501 -0.00000000000E+00  0.00000000000E+00  0.26929232590E+03  0.26929232591E+03  0.25500000000E-02 0.  1.
          2   -1    0    0  501    0  0.00000000000E+00 -0.00000000000E+00 -0.16246707510E+04  0.16246707510E+04  0.25500000000E-02 0. -1.
    8880023    1    1    2    0    0 -0.38344605750E+02 -0.40478469166E+03 -0.12090013101E+04  0.14355540148E+04  0.65864270000E+03 0. -1.
    8880022    1    1    2    0    0  0.38344605750E+02  0.40478469166E+03 -0.14637711500E+03  0.45840906209E+03  0.15294330000E+03 0.  1.
<mgrwt>
<rscale>  0 0.66995530E+03</rscale>
<asrwt>0</asrwt>
<pdfrwt beam="1">  1        2 0.24994934E+00 0.77403563E+03</pdfrwt>
<pdfrwt beam="2">  1       -2 0.41429590E-01 0.77403563E+03</pdfrwt>
<totfact> 0.60827494E+01</totfact>
</mgrwt>
</event>
<event>
 4    2  0.3171963E-007  0.7261899E+03  0.7818608E-02  0.9902172E-01
          2   -1    0    0  501    0  0.00000000000E+00  0.00000000000E+00  0.15612391836E+04  0.15612391836E+04  0.25500000000E-02 0. -1.
         -2   -1    0    0    0  501 -0.00000000000E+00 -0.00000000000E+00 -0.53054475788E+03  0.53054475789E+03  0.25500000000E-02 0.  1.
    8880023    1    1    2    0    0 -0.20297906780E+03  0.22878182857E+03  0.14069787154E+04  0.15833322263E+04  0.65864270000E+03 0. -1.
    8880022    1    1    2    0    0  0.20297906780E+03 -0.22878182857E+03 -0.37628428964E+03  0.50845171521E+03  0.15294330000E+03 0.  0.
<mgrwt>
<rscale>  0 0.60156137E+03</rscale>
<asrwt>0</asrwt>
<pdfrwt beam="1">  1        2 0.24019064E+00 0.72618994E+03</pdfrwt>
<pdfrwt beam="2">  1       -2 0.81622273E-01 0.72618994E+03</pdfrwt>
<totfact> 0.15931073E+01</totfact>
</mgrwt>
</event>
<event>
 4    2  0.3171963E-007  0.9790310E+03  0.7818608E-02  0.9409521E-01
          2   -1    0    0  501    0  0.00000000000E+00  0.00000000000E+00  0.22801878038E+04  0.22801878038E+04  0.25500000000E-02 0. -1.
         -2   -1    0    0    0  501 -0.00000000000E+00 -0.00000000000E+00 -0.37830614966E+03  0.37830614967E+03  0.25500000000E-02 0.  1.
    8880023    1    1    2    0    0 -0.29102501706E+03  0.66332195945E+03  0.15629648118E+04  0.18442778510E+04  0.65864270000E+03 0.  0.
    8880022    1    1    2    0    0  0.29102501706E+03 -0.66332195945E+03  0.33891684224E+03  0.81421610240E+03  0.15294330000E+03 0.  0.
<mgrwt>
<rscale>  0 0.91296297E+03</rscale>
<asrwt>0</asrwt>
<pdfrwt beam="1">  1        2 0.35079813E+00 0.97903105E+03</pdfrwt>
<pdfrwt beam="2">  1       -2 0.58200946E-01 0.97903105E+03</pdfrwt>
<totfact> 0.12982571E+01</totfact>
</mgrwt>
</event>
<event>
 4    2  0.3171963E-007  0.8236310E+03  0.7818608E-02  0.9661854E-01
         -2   -1    0    0    0  501 -0.00000000000E+00  0.00000000000E+00  0.40597823060E+03  0.40597823061E+03  0.25500000000E-02 0.  1.
          2   -1    0    0  501    0  0.00000000000E+00 -0.00000000000E+00 -0.13201053582E+04  0.13201053582E+04  0.25500000000E-02 0. -1.
    8880023    1    1    2    0    0 -0.49112154123E+03  0.57943664247E+02 -0.20612221395E+03  0.84903145397E+03  0.65864270000E+03 0.  1.
    8880022    1    1    2    0    0  0.49112154123E+03 -0.57943664247E+02 -0.70800491367E+03  0.87705213487E+03  0.15294330000E+03 0.  0.
<mgrwt>
<rscale>  0 0.73334128E+03</rscale>
<asrwt>0</asrwt>
<pdfrwt beam="1">  1        2 0.20309313E+00 0.82363101E+03</pdfrwt>
<pdfrwt beam="2">  1       -2 0.62458190E-01 0.82363101E+03</pdfrwt>
<totfact> 0.38745501E+01</totfact>
</mgrwt>
</event>
<event>
 4    2  0.3171963E-007  0.8362952E+03  0.7818608E-02  0.9637206E-01
         -2   -1    0    0    0  501 -0.00000000000E+00  0.00000000000E+00  0.87120958356E+03  0.87120958357E+03  0.25500000000E-02 0.  1.
          2   -1    0    0  501    0  0.00000000000E+00 -0.00000000000E+00 -0.13801760638E+04  0.13801760638E+04  0.25500000000E-02 0. -1.
    8880023    1    1    2    0    0 -0.44110379695E+03  0.26647130453E+03 -0.11454596632E+04  0.14182621627E+04  0.65864270000E+03 0. -1.
    8880022    1    1    2    0    0  0.44110379695E+03 -0.26647130453E+03  0.63649318294E+03  0.83312348470E+03  0.15294330000E+03 0.  0.
<mgrwt>
<rscale>  0 0.74881844E+03</rscale>
<asrwt>0</asrwt>
<pdfrwt beam="1">  1        2 0.21233478E+00 0.83629524E+03</pdfrwt>
<pdfrwt beam="2">  1       -2 0.13403224E+00 0.83629524E+03</pdfrwt>
<totfact> 0.60381380E+00</totfact>
</mgrwt>
</event>
<event>
 4    2  0.3171963E-007  0.7606270E+03  0.7818608E-02  0.9803487E-01
         -2   -1    0    0    0  501 -0.00000000000E+00  0.00000000000E+00  0.41677141415E+03  0.41677141415E+03  0.25500000000E-02 0.  1.
          2   -1    0    0  501    0  0.00000000000E+00 -0.00000000000E+00 -0.13916002291E+04  0.13916002291E+04  0.25500000000E-02 0. -1.
    8880023    1    1    2    0    0 -0.42388239868E+02 -0.37808266185E+03 -0.11365507378E+04  0.13675895027E+04  0.65864270000E+03 0. -1.
    8880022    1    1    2    0    0  0.42388239868E+02  0.37808266185E+03  0.16172192285E+03  0.44078214053E+03  0.15294330000E+03 0.  0.
<mgrwt>
<rscale>  0 0.65175752E+03</rscale>
<asrwt>0</asrwt>
<pdfrwt beam="1">  1        2 0.21409234E+00 0.76062702E+03</pdfrwt>
<pdfrwt beam="2">  1       -2 0.64118680E-01 0.76062702E+03</pdfrwt>
<totfact> 0.33556829E+01</totfact>
</mgrwt>
</event>
<event>
 4    2  0.3171963E-007  0.8707760E+03  0.7818608E-02  0.9574675E-01
          2   -1    0    0  501    0  0.00000000000E+00  0.00000000000E+00  0.10126290002E+04  0.10126290002E+04  0.25500000000E-02 0. -1.
         -2   -1    0    0    0  501 -0.00000000000E+00 -0.00000000000E+00 -0.13114576750E+04  0.13114576750E+04  0.25500000000E-02 0.  1.
    8880023    1    1    2    0    0 -0.32898350885E+03 -0.46498432293E+03  0.73126755755E+03  0.11371029050E+04  0.65864270000E+03 0.  0.
    8880022    1    1    2    0    0  0.32898350885E+03  0.46498432293E+03 -0.10300962324E+04  0.11869837702E+04  0.15294330000E+03 0.  0.
<mgrwt>
<rscale>  0 0.78995263E+03</rscale>
<asrwt>0</asrwt>
<pdfrwt beam="1">  1        2 0.15578908E+00 0.87077596E+03</pdfrwt>
<pdfrwt beam="2">  1       -2 0.20176272E+00 0.87077596E+03</pdfrwt>
<totfact> 0.32261698E+00</totfact>
</mgrwt>
</event>
<event>
 4    2  0.3171963E-007  0.7151898E+03  0.7818608E-02  0.9939211E-01
          2   -1    0    0  501    0  0.00000000000E+00  0.00000000000E+00  0.23175175949E+04  0.23175175949E+04  0.25500000000E-02 0. -1.
         -2   -1    0    0    0  501 -0.00000000000E+00 -0.00000000000E+00 -0.24193936123E+03  0.24193936125E+03  0.25500000000E-02 0.  1.
    8880023    1    1    2    0    0 -0.55745865438E+02 -0.27309084338E+03  0.21209702521E+04  0.22383054365E+04  0.65864270000E+03 0. -1.
    8880022    1    1    2    0    0  0.55745865438E+02  0.27309084338E+03 -0.45392018445E+02  0.32115151970E+03  0.15294330000E+03 0.  0.
<mgrwt>
<rscale>  0 0.58398001E+03</rscale>
<asrwt>0</asrwt>
<pdfrwt beam="1">  1        2 0.35654117E+00 0.71518978E+03</pdfrwt>
<pdfrwt beam="2">  1       -2 0.37221440E-01 0.71518978E+03</pdfrwt>
<totfact> 0.31480283E+01</totfact>
</mgrwt>
</event>
<event>
 4    2  0.3171963E-007  0.8738524E+03  0.7818608E-02  0.9569382E-01
         -2   -1    0    0    0  501 -0.00000000000E+00  0.00000000000E+00  0.68998698247E+03  0.68998698247E+03  0.25500000000E-02 0.  1.
          2   -1    0    0  501    0  0.00000000000E+00 -0.00000000000E+00 -0.19814551220E+04  0.19814551220E+04  0.25500000000E-02 0. -1.
    8880023    1    1    2    0    0 -0.37535712861E+03  0.43464341433E+03 -0.17264177657E+04  0.19349771006E+04  0.65864270000E+03 0. -1.
    8880022    1    1    2    0    0  0.37535712861E+03 -0.43464341433E+03  0.43494962621E+03  0.73646500390E+03  0.15294330000E+03 0.  0.
<mgrwt>
<rscale>  0 0.79356241E+03</rscale>
<asrwt>0</asrwt>
<pdfrwt beam="1">  1        2 0.30483925E+00 0.87385243E+03</pdfrwt>
<pdfrwt beam="2">  1       -2 0.10615184E+00 0.87385243E+03</pdfrwt>
<totfact> 0.49791007E+00</totfact>
</mgrwt>
</event>
<event>
 4    2  0.3171963E-007  0.6951959E+03  0.7818608E-02  0.1001775E+00
         -2   -1    0    0    0  501 -0.00000000000E+00  0.00000000000E+00  0.37833721264E+03  0.37833721265E+03  0.25500000000E-02 0.  1.
          2   -1    0    0  501    0  0.00000000000E+00 -0.00000000000E+00 -0.38680901684E+04  0.38680901684E+04  0.25500000000E-02 0. -1.
    8880023    1    1    2    0    0  0.58991483952E+02  0.21449282367E+03 -0.37838675200E+04  0.38472003824E+04  0.65864270000E+03 0. -1.
    8880022    1    1    2    0    0 -0.58991483952E+02 -0.21449282367E+03  0.29411456425E+03  0.39922699872E+03  0.15294330000E+03 0.  0.
<mgrwt>
<rscale>  0 0.54878923E+03</rscale>
<asrwt>0</asrwt>
<pdfrwt beam="1">  1        2 0.59509077E+00 0.69519592E+03</pdfrwt>
<pdfrwt beam="2">  1       -2 0.58205728E-01 0.69519592E+03</pdfrwt>
<totfact> 0.13469913E+00</totfact>
</mgrwt>
</event>
<event>
 4    2  0.3171963E-007  0.8042216E+03  0.7818608E-02  0.9701741E-01
          2   -1    0    0  501    0  0.00000000000E+00  0.00000000000E+00  0.11001504341E+04  0.11001504341E+04  0.25500000000E-02 0. -1.
         -2   -1    0    0    0  501 -0.00000000000E+00 -0.00000000000E+00 -0.10413273744E+04  0.10413273744E+04  0.25500000000E-02 0.  1.
    8880023    1    1    2    0    0 -0.20343801840E+03 -0.41421626844E+03  0.87690179489E+03  0.11898441530E+04  0.65864270000E+03 0.  0.
    8880022    1    1    2    0    0  0.20343801840E+03  0.41421626844E+03 -0.81807873519E+03  0.95163365554E+03  0.15294330000E+03 0.  0.
<mgrwt>
<rscale>  0 0.70913205E+03</rscale>
<asrwt>0</asrwt>
<pdfrwt beam="1">  1        2 0.16925391E+00 0.80422158E+03</pdfrwt>
<pdfrwt beam="2">  1       -2 0.16020421E+00 0.80422158E+03</pdfrwt>
<totfact> 0.55406463E+00</totfact>
</mgrwt>
</event>
<event>
 4    2  0.3171963E-007  0.6647353E+03  0.7818608E-02  0.1019757E+00
         -2   -1    0    0    0  501 -0.00000000000E+00  0.00000000000E+00  0.11950679478E+03  0.11950679480E+03  0.25500000000E-02 0.  1.
          2   -1    0    0  501    0  0.00000000000E+00 -0.00000000000E+00 -0.24479719715E+04  0.24479719715E+04  0.25500000000E-02 0. -1.
    8880023    1    1    2    0    0 -0.64105824597E+02 -0.62875092744E+02 -0.22919552974E+04  0.23864056917E+04  0.65864270000E+03 0. -1.
    8880022    1    1    2    0    0  0.64105824597E+02  0.62875092744E+02 -0.36509879349E+02  0.18107307459E+03  0.15294330000E+03 0.  0.
<mgrwt>
<rscale>  0 0.47774581E+03</rscale>
<asrwt>0</asrwt>
<pdfrwt beam="1">  1        2 0.37661103E+00 0.66473532E+03</pdfrwt>
<pdfrwt beam="2">  1       -2 0.18385663E-01 0.66473532E+03</pdfrwt>
<totfact> 0.96649289E+01</totfact>
</mgrwt>
</event>
<event>
 4    2  0.3171963E-007  0.9164761E+03  0.7818608E-02  0.9500084E-01
         -2   -1    0    0    0  501 -0.00000000000E+00  0.00000000000E+00  0.59913805985E+03  0.59913805985E+03  0.25500000000E-02 0.  1.
          2   -1    0    0  501    0  0.00000000000E+00 -0.00000000000E+00 -0.16035836765E+04  0.16035836765E+04  0.25500000000E-02 0. -1.
    8880023    1    1    2    0    0 -0.62613402047E+03  0.11863529333E+03 -0.12081456126E+04  0.15164247993E+04  0.65864270000E+03 0.  0.
    8880022    1    1    2    0    0  0.62613402047E+03 -0.11863529333E+03  0.20369999597E+03  0.68629693704E+03  0.15294330000E+03 0.  0.
<mgrwt>
<rscale>  0 0.84277661E+03</rscale>
<asrwt>0</asrwt>
<pdfrwt beam="1">  1        2 0.24670518E+00 0.91647605E+03</pdfrwt>
<pdfrwt beam="2">  1       -2 0.92175087E-01 0.91647605E+03</pdfrwt>
<totfact> 0.11163693E+01</totfact>
</mgrwt>
</event>
<event>
 4    2  0.3171963E-007  0.8668343E+03  0.7818608E-02  0.9581520E-01
          2   -1    0    0  501    0  0.00000000000E+00  0.00000000000E+00  0.24641216060E+04  0.24641216060E+04  0.25500000000E-02 0. -1.
         -2   -1    0    0    0  501 -0.00000000000E+00 -0.00000000000E+00 -0.23828249977E+03  0.23828249978E+03  0.25500000000E-02 0.  1.
    8880023    1    1    2    0    0  0.52093660799E+03 -0.21498043951E+03  0.17353381470E+04  0.19397938626E+04  0.65864270000E+03 0. -1.
    8880022    1    1    2    0    0 -0.52093660799E+03  0.21498043951E+03  0.49050095928E+03  0.76261024317E+03  0.15294330000E+03 0.  0.
<mgrwt>
<rscale>  0 0.78531464E+03</rscale>
<asrwt>0</asrwt>
<pdfrwt beam="1">  1        2 0.37909565E+00 0.86683432E+03</pdfrwt>
<pdfrwt beam="2">  1       -2 0.36658845E-01 0.86683432E+03</pdfrwt>
<totfact> 0.26279205E+01</totfact>
</mgrwt>
</event>
<event>
 4    2  0.3171963E-007  0.8125075E+03  0.7818608E-02  0.9684377E-01
          2   -1    0    0  501    0  0.00000000000E+00  0.00000000000E+00  0.76373715344E+03  0.76373715345E+03  0.25500000000E-02 0. -1.
         -2   -1    0    0    0  501 -0.00000000000E+00 -0.00000000000E+00 -0.84166033649E+03  0.84166033650E+03  0.25500000000E-02 0.  1.
    8880023    1    1    2    0    0 -0.10975225688E+03  0.46293920265E+03  0.40726613663E+03  0.90886422284E+03  0.65864270000E+03 0. -1.
    8880022    1    1    2    0    0  0.10975225688E+03 -0.46293920265E+03 -0.48518931969E+03  0.69653326711E+03  0.15294330000E+03 0.  0.
<mgrwt>
<rscale>  0 0.71954624E+03</rscale>
<asrwt>0</asrwt>
<pdfrwt beam="1">  1        2 0.11749802E+00 0.81250752E+03</pdfrwt>
<pdfrwt beam="2">  1       -2 0.12948621E+00 0.81250752E+03</pdfrwt>
<totfact> 0.16203546E+01</totfact>
</mgrwt>
</event>
<event>
 4    2  0.3171963E-007  0.7055699E+03  0.7818608E-02  0.9974835E-01
         -2   -1    0    0    0  501 -0.00000000000E+00  0.00000000000E+00  0.13251644821E+03  0.13251644824E+03  0.25500000000E-02 0.  1.
          2   -1    0    0  501    0  0.00000000000E+00 -0.00000000000E+00 -0.23120211921E+04  0.23120211921E+04  0.25500000000E-02 0. -1.
    8880023    1    1    2    0    0 -0.77175541932E+02  0.24096191125E+03 -0.19391099334E+04  0.20634864300E+04  0.65864270000E+03 0. -1.
    8880022    1    1    2    0    0  0.77175541932E+02 -0.24096191125E+03 -0.24039481052E+03  0.38105121032E+03  0.15294330000E+03 0.  1.
<mgrwt>
<rscale>  0 0.56767583E+03</rscale>
<asrwt>0</asrwt>
<pdfrwt beam="1">  1        2 0.35569554E+00 0.70556992E+03</pdfrwt>
<pdfrwt beam="2">  1       -2 0.20387148E-01 0.70556992E+03</pdfrwt>
<totfact> 0.95655901E+01</totfact>
</mgrwt>
</event>
<event>
 4    2  0.3171963E-007  0.7325563E+03  0.7818608E-02  0.9882186E-01
         -2   -1    0    0    0  501 -0.00000000000E+00  0.00000000000E+00  0.55310471800E+03  0.55310471800E+03  0.25500000000E-02 0.  1.
          2   -1    0    0  501    0  0.00000000000E+00 -0.00000000000E+00 -0.84669881766E+03  0.84669881766E+03  0.25500000000E-02 0. -1.
    8880023    1    1    2    0    0  0.22130868440E+03  0.23205810992E+03 -0.58724468030E+03  0.93887966267E+03  0.65864270000E+03 0. -1.
    8880022    1    1    2    0    0 -0.22130868440E+03 -0.23205810992E+03  0.29365058064E+03  0.46092387299E+03  0.15294330000E+03 0.  0.
<mgrwt>
<rscale>  0 0.61132455E+03</rscale>
<asrwt>0</asrwt>
<pdfrwt beam="1">  1        2 0.13026136E+00 0.73255628E+03</pdfrwt>
<pdfrwt beam="2">  1       -2 0.85093033E-01 0.73255628E+03</pdfrwt>
<totfact> 0.38958659E+01</totfact>
</mgrwt>
</event>
<event>
 4    2  0.3171963E-007  0.6923422E+03  0.7818608E-02  0.1003059E+00
         -2   -1    0    0    0  501 -0.00000000000E+00  0.00000000000E+00  0.17852509650E+03  0.17852509652E+03  0.25500000000E-02 0.  1.
          2   -1    0    0  501    0  0.00000000000E+00 -0.00000000000E+00 -0.14187629658E+04  0.14187629658E+04  0.25500000000E-02 0. -1.
    8880023    1    1    2    0    0  0.21330722958E+03  0.52416626204E+01 -0.10997578212E+04  0.12995402728E+04  0.65864270000E+03 0. -1.
    8880022    1    1    2    0    0 -0.21330722958E+03 -0.52416626204E+01 -0.14048004815E+03  0.29774778952E+03  0.15294330000E+03 0.  0.
<mgrwt>
<rscale>  0 0.54329165E+03</rscale>
<asrwt>0</asrwt>
<pdfrwt beam="1">  1        2 0.21827122E+00 0.69234215E+03</pdfrwt>
<pdfrwt beam="2">  1       -2 0.27465400E-01 0.69234215E+03</pdfrwt>
<totfact> 0.17367120E+02</totfact>
</mgrwt>
</event>
<event>
 4    2  0.3171963E-007  0.7701852E+03  0.7818608E-02  0.9779419E-01
          2   -1    0    0  501    0  0.00000000000E+00  0.00000000000E+00  0.47797362755E+03  0.47797362756E+03  0.25500000000E-02 0. -1.
         -2   -1    0    0    0  501 -0.00000000000E+00 -0.00000000000E+00 -0.10012615057E+04  0.10012615057E+04  0.25500000000E-02 0.  1.
    8880023    1    1    2    0    0 -0.38225268090E+03 -0.11514295674E+03  0.41015842092E+02  0.77127655099E+03  0.65864270000E+03 0. -1.
    8880022    1    1    2    0    0  0.38225268090E+03  0.11514295674E+03 -0.56430372028E+03  0.70795858232E+03  0.15294330000E+03 0.  0.
<mgrwt>
<rscale>  0 0.66478849E+03</rscale>
<asrwt>0</asrwt>
<pdfrwt beam="1">  1        2 0.73534404E-01 0.77018518E+03</pdfrwt>
<pdfrwt beam="2">  1       -2 0.15404023E+00 0.77018518E+03</pdfrwt>
<totfact> 0.18329130E+01</totfact>
</mgrwt>
</event>
<event>
 4    2  0.3171963E-007  0.6888126E+03  0.7818608E-02  0.1004722E+00
          2   -1    0    0  501    0  0.00000000000E+00  0.00000000000E+00  0.28729690387E+04  0.28729690387E+04  0.25500000000E-02 0. -1.
         -2   -1    0    0    0  501 -0.00000000000E+00 -0.00000000000E+00 -0.26357119011E+03  0.26357119012E+03  0.25500000000E-02 0.  1.
    8880023    1    1    2    0    0 -0.94874279066E+02  0.17790873000E+03  0.27582381315E+04  0.28429457331E+04  0.65864270000E+03 0. -1.
    8880022    1    1    2    0    0  0.94874279066E+02 -0.17790873000E+03 -0.14884028296E+03  0.29359449567E+03  0.15294330000E+03 0.  0.
<mgrwt>
<rscale>  0 0.53627295E+03</rscale>
<asrwt>0</asrwt>
<pdfrwt beam="1">  1        2 0.44199526E+00 0.68881264E+03</pdfrwt>
<pdfrwt beam="2">  1       -2 0.40549412E-01 0.68881264E+03</pdfrwt>
<totfact> 0.12858563E+01</totfact>
</mgrwt>
</event>
<event>
 4    2  0.3171963E-007  0.6599231E+03  0.7818608E-02  0.1024235E+00
          2   -1    0    0  501    0  0.00000000000E+00  0.00000000000E+00  0.14414429687E+04  0.14414429687E+04  0.25500000000E-02 0. -1.
         -2   -1    0    0    0  501 -0.00000000000E+00 -0.00000000000E+00 -0.14377603006E+03  0.14377603008E+03  0.25500000000E-02 0.  1.
    8880023    1    1    2    0    0  0.35261874729E+02 -0.21090976703E+02  0.12601194187E+04  0.14224624371E+04  0.65864270000E+03 0. -1.
    8880022    1    1    2    0    0 -0.35261874729E+02  0.21090976703E+02  0.37547519861E+02  0.16275656168E+03  0.15294330000E+03 0.  0.
<mgrwt>
<rscale>  0 0.46188692E+03</rscale>
<asrwt>0</asrwt>
<pdfrwt beam="1">  1        2 0.22176045E+00 0.65992305E+03</pdfrwt>
<pdfrwt beam="2">  1       -2 0.22119390E-01 0.65992305E+03</pdfrwt>
<totfact> 0.24955477E+02</totfact>
</mgrwt>
</event>
<event>
 4    2  0.3171963E-007  0.9569744E+03  0.7818608E-02  0.9440150E-01
         -2   -1    0    0    0  501 -0.00000000000E+00  0.00000000000E+00  0.22411394099E+04  0.22411394099E+04  0.25500000000E-02 0.  1.
          2   -1    0    0  501    0  0.00000000000E+00 -0.00000000000E+00 -0.13727002910E+04  0.13727002910E+04  0.25500000000E-02 0. -1.
    8880023    1    1    2    0    0  0.11940914816E+03 -0.68390879527E+03 -0.11370000328E+04  0.14861255215E+04  0.65864270000E+03 0.  0.
    8880022    1    1    2    0    0 -0.11940914816E+03  0.68390879527E+03  0.20054391516E+04  0.21277141793E+04  0.15294330000E+03 0.  0.
<mgrwt>
<rscale>  0 0.88843907E+03</rscale>
<asrwt>0</asrwt>
<pdfrwt beam="1">  1        2 0.21118466E+00 0.95697439E+03</pdfrwt>
<pdfrwt beam="2">  1       -2 0.34479067E+00 0.95697439E+03</pdfrwt>
<totfact> 0.25654444E-01</totfact>
</mgrwt>
</event>
<event>
 4    2  0.3171963E-007  0.7813338E+03  0.7818608E-02  0.9752713E-01
          2   -1    0    0  501    0  0.00000000000E+00  0.00000000000E+00  0.23424780956E+04  0.23424780956E+04  0.25500000000E-02 0. -1.
         -2   -1    0    0    0  501 -0.00000000000E+00 -0.00000000000E+00 -0.23339259620E+03  0.23339259622E+03  0.25500000000E-02 0.  1.
    8880023    1    1    2    0    0  0.40981288377E+03 -0.93411818103E+02  0.19507187646E+04  0.21013772322E+04  0.65864270000E+03 0.  0.
    8880022    1    1    2    0    0 -0.40981288377E+03  0.93411818103E+02  0.15836673482E+03  0.47449345957E+03  0.15294330000E+03 0.  0.
<mgrwt>
<rscale>  0 0.67963166E+03</rscale>
<asrwt>0</asrwt>
<pdfrwt beam="1">  1        2 0.36038125E+00 0.78133384E+03</pdfrwt>
<pdfrwt beam="2">  1       -2 0.35906553E-01 0.78133384E+03</pdfrwt>
<totfact> 0.32370239E+01</totfact>
</mgrwt>
</event>
<event>
 4    2  0.3171963E-007  0.6626036E+03  0.7818608E-02  0.1021634E+00
         -2   -1    0    0    0  501 -0.00000000000E+00  0.00000000000E+00  0.80648338802E+03  0.80648338802E+03  0.25500000000E-02 0.  1.
          2   -1    0    0  501    0  0.00000000000E+00 -0.00000000000E+00 -0.46517243653E+03  0.46517243654E+03  0.25500000000E-02 0. -1.
    8880023    1    1    2    0    0  0.35857415088E+01  0.72253212716E+02 -0.20990678171E+03  0.69505715417E+03  0.65864270000E+03 0. -1.
    8880022    1    1    2    0    0 -0.35857415088E+01 -0.72253212716E+02  0.55121773320E+03  0.57659867039E+03  0.15294330000E+03 0.  0.
<mgrwt>
<rscale>  0 0.47101379E+03</rscale>
<asrwt>0</asrwt>
<pdfrwt beam="1">  1        2 0.71564991E-01 0.66260365E+03</pdfrwt>
<pdfrwt beam="2">  1       -2 0.12407437E+00 0.66260365E+03</pdfrwt>
<totfact> 0.33327470E+01</totfact>
</mgrwt>
</event>
<event>
 4    2  0.3171963E-007  0.1009029E+04  0.7818608E-02  0.9369839E-01
          2   -1    0    0  501    0  0.00000000000E+00  0.00000000000E+00  0.64476030577E+03  0.64476030577E+03  0.25500000000E-02 0. -1.
         -2   -1    0    0    0  501 -0.00000000000E+00 -0.00000000000E+00 -0.19428647849E+04  0.19428647849E+04  0.25500000000E-02 0.  1.
    8880023    1    1    2    0    0  0.36018227237E+03 -0.67423848722E+03  0.71651220139E+02  0.10115695283E+04  0.65864270000E+03 0.  0.
    8880022    1    1    2    0    0 -0.36018227237E+03  0.67423848722E+03 -0.13697556993E+04  0.15760555624E+04  0.15294330000E+03 0.  0.
<mgrwt>
<rscale>  0 0.94599891E+03</rscale>
<asrwt>0</asrwt>
<pdfrwt beam="1">  1        2 0.99193894E-01 0.10090287E+04</pdfrwt>
<pdfrwt beam="2">  1       -2 0.29890227E+00 0.10090287E+04</pdfrwt>
<totfact> 0.14723582E+00</totfact>
</mgrwt>
</event>
<event>
 4    2  0.3171963E-007  0.6789486E+03  0.7818608E-02  0.1009925E+00
          2   -1    0    0  501    0  0.00000000000E+00  0.00000000000E+00  0.37208288288E+04  0.37208288288E+04  0.25500000000E-02 0. -1.
         -2   -1    0    0    0  501 -0.00000000000E+00 -0.00000000000E+00 -0.73928489559E+02  0.73928489603E+02  0.25500000000E-02 0.  1.
    8880023    1    1    2    0    0 -0.26793609861E+02 -0.16261315637E+03  0.33717376230E+04  0.34394164826E+04  0.65864270000E+03 0.  0.
    8880022    1    1    2    0    0  0.26793609861E+02  0.16261315637E+03  0.27516271616E+03  0.35534083572E+03  0.15294330000E+03 0.  0.
<mgrwt>
<rscale>  0 0.51504548E+03</rscale>
<asrwt>0</asrwt>
<pdfrwt beam="1">  1        2 0.57243508E+00 0.67894856E+03</pdfrwt>
<pdfrwt beam="2">  1       -2 0.11373616E-01 0.67894856E+03</pdfrwt>
<totfact> 0.34453162E+01</totfact>
</mgrwt>
</event>
<event>
 4    2  0.3171963E-007  0.7165680E+03  0.7818608E-02  0.9934374E-01
          2   -1    0    0  501    0  0.00000000000E+00  0.00000000000E+00  0.54834722900E+03  0.54834722900E+03  0.25500000000E-02 0. -1.
         -2   -1    0    0    0  501 -0.00000000000E+00 -0.00000000000E+00 -0.49523654701E+03  0.49523654701E+03  0.25500000000E-02 0.  1.
    8880023    1    1    2    0    0 -0.20850678556E+03  0.19022214001E+03 -0.89501531042E+01  0.71662392765E+03  0.65864270000E+03 0.  0.
    8880022    1    1    2    0    0  0.20850678556E+03 -0.19022214001E+03  0.62060835093E+02  0.32695984837E+03  0.15294330000E+03 0. -1.
<mgrwt>
<rscale>  0 0.58623899E+03</rscale>
<asrwt>0</asrwt>
<pdfrwt beam="1">  1        2 0.84361112E-01 0.71656803E+03</pdfrwt>
<pdfrwt beam="2">  1       -2 0.76190238E-01 0.71656803E+03</pdfrwt>
<totfact> 0.86331556E+01</totfact>
</mgrwt>
</event>
<event>
 4    2  0.3171963E-007  0.1063870E+04  0.7818608E-02  0.9302391E-01
         -2   -1    0    0    0  501 -0.00000000000E+00  0.00000000000E+00  0.22596380368E+04  0.22596380368E+04  0.25500000000E-02 0.  1.
          2   -1    0    0  501    0  0.00000000000E+00 -0.00000000000E+00 -0.63077806824E+03  0.63077806824E+03  0.25500000000E-02 0. -1.
    8880023    1    1    2    0    0 -0.65551040342E+03 -0.51799110323E+03  0.11878532481E+02  0.10639360779E+04  0.65864270000E+03 0.  0.
    8880022    1    1    2    0    0  0.65551040342E+03  0.51799110323E+03  0.16169814361E+04  0.18264800272E+04  0.15294330000E+03 0.  0.
<mgrwt>
<rscale>  0 0.10056304E+04</rscale>
<asrwt>0</asrwt>
<pdfrwt beam="1">  1        2 0.97042782E-01 0.10638698E+04</pdfrwt>
<pdfrwt beam="2">  1       -2 0.34763661E+00 0.10638698E+04</pdfrwt>
<totfact> 0.75447945E-01</totfact>
</mgrwt>
</event>
<event>
 4    2  0.3171963E-007  0.8181425E+03  0.7818608E-02  0.9672859E-01
         -2   -1    0    0    0  501 -0.00000000000E+00  0.00000000000E+00  0.26384427936E+04  0.26384427936E+04  0.25500000000E-02 0.  1.
          2   -1    0    0  501    0  0.00000000000E+00 -0.00000000000E+00 -0.24782200875E+03  0.24782200876E+03  0.25500000000E-02 0. -1.
    8880023    1    1    2    0    0  0.48160108293E+03  0.60061016139E+02  0.57321817136E+03  0.99896757053E+03  0.65864270000E+03 0.  0.
    8880022    1    1    2    0    0 -0.48160108293E+03 -0.60061016139E+02  0.18174026135E+04  0.18872972318E+04  0.15294330000E+03 0. -1.
<mgrwt>
<rscale>  0 0.72655970E+03</rscale>
<asrwt>0</asrwt>
<pdfrwt beam="1">  1        2 0.38126466E-01 0.81814249E+03</pdfrwt>
<pdfrwt beam="2">  1       -2 0.40591424E+00 0.81814249E+03</pdfrwt>
<totfact> 0.96891794E-01</totfact>
</mgrwt>
</event>
<event>
 4    2  0.3171963E-007  0.1049540E+04  0.7818608E-02  0.9319434E-01
         -2   -1    0    0    0  501 -0.00000000000E+00  0.00000000000E+00  0.25257884045E+04  0.25257884045E+04  0.25500000000E-02 0.  1.
          2   -1    0    0  501    0  0.00000000000E+00 -0.00000000000E+00 -0.45211915909E+03  0.45211915910E+03  0.25500000000E-02 0. -1.
    8880023    1    1    2    0    0 -0.17324932908E+03 -0.79856714784E+03  0.42659929695E+03  0.11329262933E+04  0.65864270000E+03 0. -1.
    8880022    1    1    2    0    0  0.17324932908E+03  0.79856714784E+03  0.16470699484E+04  0.18449812703E+04  0.15294330000E+03 0.  0.
<mgrwt>
<rscale>  0 0.99013240E+03</rscale>
<asrwt>0</asrwt>
<pdfrwt beam="1">  1        2 0.69556794E-01 0.10495404E+04</pdfrwt>
<pdfrwt beam="2">  1       -2 0.38858283E+00 0.10495404E+04</pdfrwt>
<totfact> 0.61731539E-01</totfact>
</mgrwt>
</event>
<event>
 4    2  0.3171963E-007  0.1209102E+04  0.7818608E-02  0.9148325E-01
         -2   -1    0    0    0  501 -0.00000000000E+00  0.00000000000E+00  0.11606273711E+04  0.11606273711E+04  0.25500000000E-02 0.  1.
          2   -1    0    0  501    0  0.00000000000E+00 -0.00000000000E+00 -0.19092503230E+04  0.19092503230E+04  0.25500000000E-02 0. -1.
    8880023    1    1    2    0    0 -0.99804227871E+03  0.17896367256E+03 -0.14040223533E+04  0.18528910818E+04  0.65864270000E+03 0.  0.
    8880022    1    1    2    0    0  0.99804227871E+03 -0.17896367256E+03  0.65539940136E+03  0.12169866123E+04  0.15294330000E+03 0.  0.
<mgrwt>
<rscale>  0 0.11603090E+04</rscale>
<asrwt>0</asrwt>
<pdfrwt beam="1">  1        2 0.29373082E+00 0.12091016E+04</pdfrwt>
<pdfrwt beam="2">  1       -2 0.17855806E+00 0.12091016E+04</pdfrwt>
<totfact> 0.13509573E+00</totfact>
</mgrwt>
</event>
<event>
 4    2  0.3171963E-007  0.6753163E+03  0.7818608E-02  0.1012108E+00
         -2   -1    0    0    0  501 -0.00000000000E+00  0.00000000000E+00  0.33663860088E+03  0.33663860089E+03  0.25500000000E-02 0.  1.
          2   -1    0    0  501    0  0.00000000000E+00 -0.00000000000E+00 -0.11957731161E+04  0.11957731161E+04  0.25500000000E-02 0. -1.
    8880023    1    1    2    0    0 -0.10724638066E+03  0.10363480973E+03 -0.10483560857E+04  0.12470375490E+04  0.65864270000E+03 0. -1.
    8880022    1    1    2    0    0  0.10724638066E+03 -0.10363480973E+03  0.18922157054E+03  0.28537416793E+03  0.15294330000E+03 0.  0.
<mgrwt>
<rscale>  0 0.50645522E+03</rscale>
<asrwt>0</asrwt>
<pdfrwt beam="1">  1        2 0.18396509E+00 0.67531635E+03</pdfrwt>
<pdfrwt beam="2">  1       -2 0.51790555E-01 0.67531635E+03</pdfrwt>
<totfact> 0.68673416E+01</totfact>
</mgrwt>
</event>
<event>
 4    2  0.3171963E-007  0.7088364E+03  0.7818608E-02  0.9962348E-01
         -2   -1    0    0    0  501 -0.00000000000E+00  0.00000000000E+00  0.79572899831E+03  0.79572899831E+03  0.25500000000E-02 0.  1.
          2   -1    0    0  501    0  0.00000000000E+00 -0.00000000000E+00 -0.15137442963E+04  0.15137442963E+04  0.25500000000E-02 0. -1.
    8880023    1    1    2    0    0 -0.13933558171E+03 -0.22186567180E+03 -0.13965878635E+04  0.15661758034E+04  0.65864270000E+03 0. -1.
    8880022    1    1    2    0    0  0.13933558171E+03  0.22186567180E+03  0.67857256550E+03  0.74329749113E+03  0.15294330000E+03 0.  0.
<mgrwt>
<rscale>  0 0.57332506E+03</rscale>
<asrwt>0</asrwt>
<pdfrwt beam="1">  1        2 0.23288374E+00 0.70883636E+03</pdfrwt>
<pdfrwt beam="2">  1       -2 0.12241985E+00 0.70883636E+03</pdfrwt>
<totfact> 0.64994747E+00</totfact>
</mgrwt>
</event>
<event>
 4    2  0.3171963E-007  0.7212004E+03  0.7818608E-02  0.9918545E-01
          2   -1    0    0  501    0  0.00000000000E+00  0.00000000000E+00  0.27518507243E+04  0.27518507243E+04  0.25500000000E-02 0. -1.
         -2   -1    0    0    0  501 -0.00000000000E+00 -0.00000000000E+00 -0.26713276784E+03  0.26713276785E+03  0.25500000000E-02 0.  1.
    8880023    1    1    2    0    0 -0.30582662729E+02  0.29220627384E+03  0.25762895217E+04  0.26753313274E+04  0.65864270000E+03 0.  0.
    8880022    1    1    2    0    0  0.30582662729E+02 -0.29220627384E+03 -0.91571565244E+02  0.34365216471E+03  0.15294330000E+03 0.  0.
<mgrwt>
<rscale>  0 0.59370877E+03</rscale>
<asrwt>0</asrwt>
<pdfrwt beam="1">  1        2 0.42336165E+00 0.72120040E+03</pdfrwt>
<pdfrwt beam="2">  1       -2 0.41097348E-01 0.72120040E+03</pdfrwt>
<totfact> 0.14683863E+01</totfact>
</mgrwt>
</event>
<event>
 4    2  0.3171963E-007  0.8637101E+03  0.7818608E-02  0.9586998E-01
         -2   -1    0    0    0  501 -0.00000000000E+00  0.00000000000E+00  0.47715174465E+03  0.47715174466E+03  0.25500000000E-02 0.  1.
          2   -1    0    0  501    0  0.00000000000E+00 -0.00000000000E+00 -0.12128920957E+04  0.12128920957E+04  0.25500000000E-02 0. -1.
    8880023    1    1    2    0    0  0.53377503304E+03 -0.16513364505E+03 -0.69627466523E+03  0.11094113405E+04  0.65864270000E+03 0. -1.
    8880022    1    1    2    0    0 -0.53377503304E+03  0.16513364505E+03 -0.39465685865E+02  0.58063249995E+03  0.15294330000E+03 0.  0.
<mgrwt>
<rscale>  0 0.78162771E+03</rscale>
<asrwt>0</asrwt>
<pdfrwt beam="1">  1        2 0.18659878E+00 0.86371009E+03</pdfrwt>
<pdfrwt beam="2">  1       -2 0.73407961E-01 0.86371009E+03</pdfrwt>
<totfact> 0.31398148E+01</totfact>
</mgrwt>
</event>
<event>
 4    2  0.3171963E-007  0.8022447E+03  0.7818608E-02  0.9705963E-01
          2   -1    0    0  501    0  0.00000000000E+00  0.00000000000E+00  0.35301931575E+04  0.35301931575E+04  0.25500000000E-02 0. -1.
         -2   -1    0    0    0  501 -0.00000000000E+00 -0.00000000000E+00 -0.28535445004E+03  0.28535445005E+03  0.25500000000E-02 0.  1.
    8880023    1    1    2    0    0 -0.42263378758E+03  0.17654179024E+03  0.32345498387E+04  0.33325529534E+04  0.65864270000E+03 0.  0.
    8880022    1    1    2    0    0  0.42263378758E+03 -0.17654179024E+03  0.10288868804E+02  0.48299465416E+03  0.15294330000E+03 0.  0.
<mgrwt>
<rscale>  0 0.70662838E+03</rscale>
<asrwt>0</asrwt>
<pdfrwt beam="1">  1        2 0.54310660E+00 0.80224468E+03</pdfrwt>
<pdfrwt beam="2">  1       -2 0.43900688E-01 0.80224468E+03</pdfrwt>
<totfact> 0.40932875E+00</totfact>
</mgrwt>
</event>
<event>
 4    2  0.3171963E-007  0.1448942E+04  0.7818608E-02  0.8946557E-01
          2   -1    0    0  501    0  0.00000000000E+00  0.00000000000E+00  0.24646663268E+04  0.24646663268E+04  0.25500000000E-02 0. -1.
         -2   -1    0    0    0  501 -0.00000000000E+00 -0.00000000000E+00 -0.10669877015E+04  0.10669877015E+04  0.25500000000E-02 0.  1.
    8880023    1    1    2    0    0  0.62123172866E+03 -0.11312354831E+04  0.16625299914E+04  0.22053205566E+04  0.65864270000E+03 0.  0.
    8880022    1    1    2    0    0 -0.62123172866E+03  0.11312354831E+04 -0.26485136611E+03  0.13263334717E+04  0.15294330000E+03 0.  0.
<mgrwt>
<rscale>  0 0.14100756E+04</rscale>
<asrwt>0</asrwt>
<pdfrwt beam="1">  1        2 0.37917943E+00 0.14489420E+04</pdfrwt>
<pdfrwt beam="2">  1       -2 0.16415196E+00 0.14489420E+04</pdfrwt>
<totfact> 0.81236302E-01</totfact>
</mgrwt>
</event>
<event>
 4    2  0.3171963E-007  0.6938365E+03  0.7818608E-02  0.1002380E+00
          2   -1    0    0  501    0  0.00000000000E+00  0.00000000000E+00  0.19861291336E+04  0.19861291336E+04  0.25500000000E-02 0. -1.
         -2   -1    0    0    0  501 -0.00000000000E+00 -0.00000000000E+00 -0.17211145820E+03  0.17211145822E+03  0.25500000000E-02 0.  1.
    8880023    1    1    2    0    0 -0.19473656502E+03 -0.98369484296E+02  0.17524133458E+04  0.18847709744E+04  0.65864270000E+03 0. -1.
    8880022    1    1    2    0    0  0.19473656502E+03  0.98369484296E+02  0.61604329583E+02  0.27346961739E+03  0.15294330000E+03 0.  0.
<mgrwt>
<rscale>  0 0.54618896E+03</rscale>
<asrwt>0</asrwt>
<pdfrwt beam="1">  1        2 0.30555832E+00 0.69383650E+03</pdfrwt>
<pdfrwt beam="2">  1       -2 0.26478687E-01 0.69383650E+03</pdfrwt>
<totfact> 0.90692751E+01</totfact>
</mgrwt>
</event>
<event>
 4    2  0.3171963E-007  0.6606818E+03  0.7818608E-02  0.1023469E+00
          2   -1    0    0  501    0  0.00000000000E+00  0.00000000000E+00  0.19672673537E+04  0.19672673538E+04  0.25500000000E-02 0. -1.
         -2   -1    0    0    0  501 -0.00000000000E+00 -0.00000000000E+00 -0.11821367209E+03  0.11821367212E+03  0.25500000000E-02 0.  1.
    8880023    1    1    2    0    0  0.35714066049E+02 -0.37612931324E+02  0.17988783380E+04  0.19163673208E+04  0.65864270000E+03 0. -1.
    8880022    1    1    2    0    0 -0.35714066049E+02  0.37612931324E+02  0.50175343681E+02  0.16911370508E+03  0.15294330000E+03 0.  0.
<mgrwt>
<rscale>  0 0.46455444E+03</rscale>
<asrwt>0</asrwt>
<pdfrwt beam="1">  1        2 0.30265652E+00 0.66068179E+03</pdfrwt>
<pdfrwt beam="2">  1       -2 0.18186719E-01 0.66068179E+03</pdfrwt>
<totfact> 0.18117550E+02</totfact>
</mgrwt>
</event>
<event>
 4    2  0.3171963E-007  0.8251111E+03  0.7818608E-02  0.9658921E-01
          2   -1    0    0  501    0  0.00000000000E+00  0.00000000000E+00  0.97297148679E+03  0.97297148679E+03  0.25500000000E-02 0. -1.
         -2   -1    0    0    0  501 -0.00000000000E+00 -0.00000000000E+00 -0.91445850534E+03  0.91445850534E+03  0.25500000000E-02 0.  1.
    8880023    1    1    2    0    0  0.44345873854E+03 -0.22437129327E+03 -0.62035136717E+03  0.10323004190E+04  0.65864270000E+03 0.  1.
    8880022    1    1    2    0    0 -0.44345873854E+03  0.22437129327E+03  0.67886434862E+03  0.85512957315E+03  0.15294330000E+03 0.  0.
<mgrwt>
<rscale>  0 0.73516210E+03</rscale>
<asrwt>0</asrwt>
<pdfrwt beam="1">  1        2 0.14968792E+00 0.82511111E+03</pdfrwt>
<pdfrwt beam="2">  1       -2 0.14068592E+00 0.82511111E+03</pdfrwt>
<totfact> 0.93817394E+00</totfact>
</mgrwt>
</event>
<event>
 4    2  0.3171963E-007  0.1216746E+04  0.7818608E-02  0.9141013E-01
          2   -1    0    0  501    0  0.00000000000E+00  0.00000000000E+00  0.23318752225E+04  0.23318752225E+04  0.25500000000E-02 0. -1.
         -2   -1    0    0    0  501 -0.00000000000E+00 -0.00000000000E+00 -0.87849723530E+03  0.87849723530E+03  0.25500000000E-02 0.  1.
    8880023    1    1    2    0    0 -0.54230668621E+03  0.86750492719E+03  0.17525739161E+04  0.21335385814E+04  0.65864270000E+03 0. -1.
    8880022    1    1    2    0    0  0.54230668621E+03 -0.86750492719E+03 -0.29919592886E+03  0.10768338764E+04  0.15294330000E+03 0.  0.
<mgrwt>
<rscale>  0 0.11683573E+04</rscale>
<asrwt>0</asrwt>
<pdfrwt beam="1">  1        2 0.35875004E+00 0.12167463E+04</pdfrwt>
<pdfrwt beam="2">  1       -2 0.13515342E+00 0.12167463E+04</pdfrwt>
<totfact> 0.16682730E+00</totfact>
</mgrwt>
</event>
<event>
 4    2  0.3171963E-007  0.6768233E+03  0.7818608E-02  0.1011181E+00
          2   -1    0    0  501    0  0.00000000000E+00  0.00000000000E+00  0.14667871064E+03  0.14667871066E+03  0.25500000000E-02 0. -1.
         -2   -1    0    0    0  501 -0.00000000000E+00 -0.00000000000E+00 -0.14041427170E+04  0.14041427170E+04  0.25500000000E-02 0.  1.
    8880023    1    1    2    0    0 -0.34924868732E+02  0.15185484461E+03 -0.83131550337E+03  0.10719959481E+04  0.65864270000E+03 0.  0.
    8880022    1    1    2    0    0  0.34924868732E+02 -0.15185484461E+03 -0.42614850302E+03  0.47882547962E+03  0.15294330000E+03 0. -1.
<mgrwt>
<rscale>  0 0.51008038E+03</rscale>
<asrwt>0</asrwt>
<pdfrwt beam="1">  1        2 0.22565956E-01 0.67682335E+03</pdfrwt>
<pdfrwt beam="2">  1       -2 0.21602195E+00 0.67682335E+03</pdfrwt>
<totfact> 0.26495308E+01</totfact>
</mgrwt>
</event>
<event>
 4    2  0.3171963E-007  0.9960391E+03  0.7818608E-02  0.9386758E-01
         -2   -1    0    0    0  501 -0.00000000000E+00  0.00000000000E+00  0.40978469509E+03  0.40978469510E+03  0.25500000000E-02 0.  1.
          2   -1    0    0  501    0  0.00000000000E+00 -0.00000000000E+00 -0.22700017543E+04  0.22700017543E+04  0.25500000000E-02 0. -1.
    8880023    1    1    2    0    0 -0.72933247876E+03 -0.16235102178E+03 -0.15790216131E+04  0.18669234531E+04  0.65864270000E+03 0.  0.
    8880022    1    1    2    0    0  0.72933247876E+03  0.16235102178E+03 -0.28119544612E+03  0.81286299631E+03  0.15294330000E+03 0.  0.
<mgrwt>
<rscale>  0 0.93173494E+03</rscale>
<asrwt>0</asrwt>
<pdfrwt beam="1">  1        2 0.34923103E+00 0.99603912E+03</pdfrwt>
<pdfrwt beam="2">  1       -2 0.63043801E-01 0.99603912E+03</pdfrwt>
<totfact> 0.11077559E+01</totfact>
</mgrwt>
</event>
<event>
 4    2  0.3171963E-007  0.8914391E+03  0.7818608E-02  0.9539917E-01
         -2   -1    0    0    0  501 -0.00000000000E+00  0.00000000000E+00  0.43270859669E+04  0.43270859669E+04  0.25500000000E-02 0.  1.
          2   -1    0    0  501    0  0.00000000000E+00 -0.00000000000E+00 -0.36732931015E+03  0.36732931016E+03  0.25500000000E-02 0. -1.
    8880023    1    1    2    0    0 -0.57118972658E+03 -0.18599948550E+03  0.23974982395E+03  0.92311629641E+03  0.65864270000E+03 0.  0.
    8880022    1    1    2    0    0  0.57118972658E+03  0.18599948550E+03  0.37200068328E+04  0.37712989806E+04  0.15294330000E+03 0.  0.
<mgrwt>
<rscale>  0 0.81403827E+03</rscale>
<asrwt>0</asrwt>
<pdfrwt beam="1">  1        2 0.56512201E-01 0.89143913E+03</pdfrwt>
<pdfrwt beam="2">  1       -2 0.66570554E+00 0.89143913E+03</pdfrwt>
<totfact> 0.26409739E-02</totfact>
</mgrwt>
</event>
<event>
 4    2  0.3171963E-007  0.8488699E+03  0.7818608E-02  0.9613677E-01
         -2   -1    0    0    0  501 -0.00000000000E+00  0.00000000000E+00  0.10634194106E+04  0.10634194106E+04  0.25500000000E-02 0.  1.
          2   -1    0    0  501    0  0.00000000000E+00 -0.00000000000E+00 -0.98561157931E+03  0.98561157931E+03  0.25500000000E-02 0. -1.
    8880023    1    1    2    0    0 -0.24165997264E+03 -0.47788104117E+03 -0.69456363472E+03  0.10968129653E+04  0.65864270000E+03 0.  0.
    8880022    1    1    2    0    0  0.24165997264E+03  0.47788104117E+03  0.77237146598E+03  0.95221802459E+03  0.15294330000E+03 0.  0.
<mgrwt>
<rscale>  0 0.76397530E+03</rscale>
<asrwt>0</asrwt>
<pdfrwt beam="1">  1        2 0.15163255E+00 0.84886986E+03</pdfrwt>
<pdfrwt beam="2">  1       -2 0.16360299E+00 0.84886986E+03</pdfrwt>
<totfact> 0.61420996E+00</totfact>
</mgrwt>
</event>
<event>
 4    2  0.3171963E-007  0.9607372E+03  0.7818608E-02  0.9434831E-01
         -2   -1    0    0    0  501 -0.00000000000E+00  0.00000000000E+00  0.51698162356E+03  0.51698162357E+03  0.25500000000E-02 0.  1.
          2   -1    0    0  501    0  0.00000000000E+00 -0.00000000000E+00 -0.22803534080E+04  0.22803534080E+04  0.25500000000E-02 0. -1.
    8880023    1    1    2    0    0 -0.35955400915E+03  0.59993893452E+03 -0.18415756918E+04  0.20771174847E+04  0.65864270000E+03 0.  0.
    8880022    1    1    2    0    0  0.35955400915E+03 -0.59993893452E+03  0.78203907302E+02  0.72021754685E+03  0.15294330000E+03 0.  0.
<mgrwt>
<rscale>  0 0.89263831E+03</rscale>
<asrwt>0</asrwt>
<pdfrwt beam="1">  1        2 0.35082360E+00 0.96073723E+03</pdfrwt>
<pdfrwt beam="2">  1       -2 0.79535635E-01 0.96073723E+03</pdfrwt>
<totfact> 0.65887259E+00</totfact>
</mgrwt>
</event>
<event>
 4    2  0.3171963E-007  0.6614847E+03  0.7818608E-02  0.1022684E+00
          2   -1    0    0  501    0  0.00000000000E+00  0.00000000000E+00  0.68578024092E+03  0.68578024092E+03  0.25500000000E-02 0. -1.
         -2   -1    0    0    0  501 -0.00000000000E+00 -0.00000000000E+00 -0.81854136675E+03  0.81854136676E+03  0.25500000000E-02 0.  1.
    8880023    1    1    2    0    0 -0.39420383583E+01  0.61124543056E+02  0.51349206253E+03  0.83739838427E+03  0.65864270000E+03 0. -1.
    8880022    1    1    2    0    0  0.39420383583E+01 -0.61124543056E+02 -0.64625318837E+03  0.66692322341E+03  0.15294330000E+03 0.  0.
<mgrwt>
<rscale>  0 0.46730225E+03</rscale>
<asrwt>0</asrwt>
<pdfrwt beam="1">  1        2 0.10550465E+00 0.66148466E+03</pdfrwt>
<pdfrwt beam="2">  1       -2 0.12592944E+00 0.66148466E+03</pdfrwt>
<totfact> 0.20241064E+01</totfact>
</mgrwt>
</event>
<event>
 4    2  0.3171963E-007  0.1118455E+04  0.7818608E-02  0.9240782E-01
         -2   -1    0    0    0  501 -0.00000000000E+00  0.00000000000E+00  0.67722365434E+03  0.67722365434E+03  0.25500000000E-02 0.  1.
          2   -1    0    0  501    0  0.00000000000E+00 -0.00000000000E+00 -0.21825438721E+04  0.21825438721E+04  0.25500000000E-02 0. -1.
    8880023    1    1    2    0    0 -0.52307492341E+03 -0.73724049499E+03 -0.25233622218E+02  0.11187394088E+04  0.65864270000E+03 0.  0.
    8880022    1    1    2    0    0  0.52307492341E+03  0.73724049499E+03 -0.14800865956E+04  0.17410281176E+04  0.15294330000E+03 0.  0.
<mgrwt>
<rscale>  0 0.10642227E+04</rscale>
<asrwt>0</asrwt>
<pdfrwt beam="1">  1        2 0.33577598E+00 0.11184548E+04</pdfrwt>
<pdfrwt beam="2">  1       -2 0.10418826E+00 0.11184548E+04</pdfrwt>
<totfact> 0.39101587E+00</totfact>
</mgrwt>
</event>
<event>
 4    2  0.3171963E-007  0.6635820E+03  0.7818608E-02  0.1020754E+00
          2   -1    0    0  501    0  0.00000000000E+00  0.00000000000E+00  0.21918824323E+04  0.21918824323E+04  0.25500000000E-02 0. -1.
         -2   -1    0    0    0  501 -0.00000000000E+00 -0.00000000000E+00 -0.86890645323E+02  0.86890645360E+02  0.25500000000E-02 0.  1.
    8880023    1    1    2    0    0  0.65451408355E+02  0.47402363627E+02  0.18883036505E+04  0.20015073703E+04  0.65864270000E+03 0. -1.
    8880022    1    1    2    0    0 -0.65451408355E+02 -0.47402363627E+02  0.21668813652E+03  0.27726570732E+03  0.15294330000E+03 0.  0.
<mgrwt>
<rscale>  0 0.47415543E+03</rscale>
<asrwt>0</asrwt>
<pdfrwt beam="1">  1        2 0.33721266E+00 0.66358200E+03</pdfrwt>
<pdfrwt beam="2">  1       -2 0.13367793E-01 0.66358200E+03</pdfrwt>
<totfact> 0.23021922E+02</totfact>
</mgrwt>
</event>
<event>
 4    2  0.3171963E-007  0.7266288E+03  0.7818608E-02  0.9900763E-01
          2   -1    0    0  501    0  0.00000000000E+00  0.00000000000E+00  0.31889629903E+04  0.31889629903E+04  0.25500000000E-02 0. -1.
         -2   -1    0    0    0  501 -0.00000000000E+00 -0.00000000000E+00 -0.60722980836E+03  0.60722980836E+03  0.25500000000E-02 0.  1.
    8880023    1    1    2    0    0 -0.16664679612E+03  0.25769751929E+03  0.30948762784E+04  0.31790326439E+04  0.65864270000E+03 0. -1.
    8880022    1    1    2    0    0  0.16664679612E+03 -0.25769751929E+03 -0.51314309649E+03  0.61716015474E+03  0.15294330000E+03 0.  0.
<mgrwt>
<rscale>  0 0.60224317E+03</rscale>
<asrwt>0</asrwt>
<pdfrwt beam="1">  1        2 0.49060970E+00 0.72662877E+03</pdfrwt>
<pdfrwt beam="2">  1       -2 0.93419969E-01 0.72662877E+03</pdfrwt>
<totfact> 0.13810761E+00</totfact>
</mgrwt>
</event>
<event>
 4    2  0.3171963E-007  0.7352750E+03  0.7818608E-02  0.9873931E-01
          2   -1    0    0  501    0  0.00000000000E+00  0.00000000000E+00  0.81918429118E+03  0.81918429119E+03  0.25500000000E-02 0. -1.
         -2   -1    0    0    0  501 -0.00000000000E+00 -0.00000000000E+00 -0.97763504672E+03  0.97763504673E+03  0.25500000000E-02 0.  1.
    8880023    1    1    2    0    0  0.61817942614E+02 -0.32093247056E+03  0.60513116732E+03  0.95226731783E+03  0.65864270000E+03 0. -1.
    8880022    1    1    2    0    0 -0.61817942614E+02  0.32093247056E+03 -0.76358192286E+03  0.84455202008E+03  0.15294330000E+03 0.  0.
<mgrwt>
<rscale>  0 0.61541518E+03</rscale>
<asrwt>0</asrwt>
<pdfrwt beam="1">  1        2 0.12602835E+00 0.73527499E+03</pdfrwt>
<pdfrwt beam="2">  1       -2 0.15040539E+00 0.73527499E+03</pdfrwt>
<totfact> 0.10106604E+01</totfact>
</mgrwt>
</event>
<event>
 4    2  0.3171963E-007  0.6670430E+03  0.7818608E-02  0.1017878E+00
         -2   -1    0    0    0  501 -0.00000000000E+00  0.00000000000E+00  0.21313244426E+03  0.21313244428E+03  0.25500000000E-02 0.  1.
          2   -1    0    0  501    0  0.00000000000E+00 -0.00000000000E+00 -0.12834892869E+04  0.12834892869E+04  0.25500000000E-02 0. -1.
    8880023    1    1    2    0    0 -0.82095322931E+02 -0.66306615270E+02 -0.11206239207E+04  0.13041259093E+04  0.65864270000E+03 0. -1.
    8880022    1    1    2    0    0  0.82095322931E+02  0.66306615270E+02  0.50267078134E+02  0.19249582186E+03  0.15294330000E+03 0.  0.
<mgrwt>
<rscale>  0 0.48460356E+03</rscale>
<asrwt>0</asrwt>
<pdfrwt beam="1">  1        2 0.19745989E+00 0.66704304E+03</pdfrwt>
<pdfrwt beam="2">  1       -2 0.32789608E-01 0.66704304E+03</pdfrwt>
<totfact> 0.14960611E+02</totfact>
</mgrwt>
</event>
<event>
 4    2  0.3171963E-007  0.8632797E+03  0.7818608E-02  0.9587756E-01
         -2   -1    0    0    0  501 -0.00000000000E+00  0.00000000000E+00  0.14896445908E+03  0.14896445910E+03  0.25500000000E-02 0.  1.
          2   -1    0    0  501    0  0.00000000000E+00 -0.00000000000E+00 -0.41269235746E+04  0.41269235746E+04  0.25500000000E-02 0. -1.
    8880023    1    1    2    0    0  0.55782594623E+03  0.16489727571E+02 -0.14945715685E+04  0.17259768472E+04  0.65864270000E+03 0. -1.
    8880022    1    1    2    0    0 -0.55782594623E+03 -0.16489727571E+02 -0.24833875470E+04  0.25499111865E+04  0.15294330000E+03 0.  0.
<mgrwt>
<rscale>  0 0.78111908E+03</rscale>
<asrwt>0</asrwt>
<pdfrwt beam="1">  1        2 0.63491123E+00 0.86327974E+03</pdfrwt>
<pdfrwt beam="2">  1       -2 0.22917612E-01 0.86327974E+03</pdfrwt>
<totfact> 0.48851318E+00</totfact>
</mgrwt>
</event>
<event>
 4    2  0.3171963E-007  0.6699469E+03  0.7818608E-02  0.1015701E+00
          2   -1    0    0  501    0  0.00000000000E+00  0.00000000000E+00  0.28867718390E+04  0.28867718390E+04  0.25500000000E-02 0. -1.
         -2   -1    0    0    0  501 -0.00000000000E+00 -0.00000000000E+00 -0.25318790136E+03  0.25318790137E+03  0.25500000000E-02 0.  1.
    8880023    1    1    2    0    0  0.12034164470E+03 -0.23163314305E+02  0.28023537782E+04  0.28813218416E+04  0.65864270000E+03 0. -1.
    8880022    1    1    2    0    0 -0.12034164470E+03  0.23163314305E+02 -0.16876984055E+03  0.25863789876E+03  0.15294330000E+03 0.  0.
<mgrwt>
<rscale>  0 0.49270419E+03</rscale>
<asrwt>0</asrwt>
<pdfrwt beam="1">  1        2 0.44411874E+00 0.66994691E+03</pdfrwt>
<pdfrwt beam="2">  1       -2 0.38951986E-01 0.66994691E+03</pdfrwt>
<totfact> 0.13691974E+01</totfact>
</mgrwt>
</event>
<event>
 4    2  0.3171963E-007  0.9737695E+03  0.7818608E-02  0.9416710E-01
          2   -1    0    0  501    0  0.00000000000E+00  0.00000000000E+00  0.13279905728E+04  0.13279905728E+04  0.25500000000E-02 0. -1.
         -2   -1    0    0    0  501 -0.00000000000E+00 -0.00000000000E+00 -0.11488363851E+04  0.11488363851E+04  0.25500000000E-02 0.  1.
    8880023    1    1    2    0    0  0.71555614776E+03  0.48950467255E+02  0.98648819852E+03  0.13861406570E+04  0.65864270000E+03 0.  0.
    8880022    1    1    2    0    0 -0.71555614776E+03 -0.48950467255E+02 -0.80733401082E+03  0.10906863009E+04  0.15294330000E+03 0.  0.
<mgrwt>
<rscale>  0 0.90713215E+03</rscale>
<asrwt>0</asrwt>
<pdfrwt beam="1">  1        2 0.20430624E+00 0.97376946E+03</pdfrwt>
<pdfrwt beam="2">  1       -2 0.17674406E+00 0.97376946E+03</pdfrwt>
<totfact> 0.30260369E+00</totfact>
</mgrwt>
</event>
<event>
 4    2  0.3171963E-007  0.1100125E+04  0.7818608E-02  0.9260917E-01
          2   -1    0    0  501    0  0.00000000000E+00  0.00000000000E+00  0.36503964643E+04  0.36503964643E+04  0.25500000000E-02 0. -1.
         -2   -1    0    0    0  501 -0.00000000000E+00 -0.00000000000E+00 -0.33651746149E+03  0.33651746150E+03  0.25500000000E-02 0.  1.
    8880023    1    1    2    0    0 -0.48253652472E+03 -0.73730863678E+03  0.26615151537E+04  0.28799199023E+04  0.65864270000E+03 0.  0.
    8880022    1    1    2    0    0  0.48253652472E+03  0.73730863678E+03  0.65236384904E+03  0.11069940235E+04  0.15294330000E+03 0.  0.
<mgrwt>
<rscale>  0 0.10446196E+04</rscale>
<asrwt>0</asrwt>
<pdfrwt beam="1">  1        2 0.56159945E+00 0.11001253E+04</pdfrwt>
<pdfrwt beam="2">  1       -2 0.51771918E-01 0.11001253E+04</pdfrwt>
<totfact> 0.22941818E+00</totfact>
</mgrwt>
</event>
<event>
 4    2  0.3171963E-007  0.7043248E+03  0.7818608E-02  0.9979712E-01
          2   -1    0    0  501    0  0.00000000000E+00  0.00000000000E+00  0.85095003630E+03  0.85095003630E+03  0.25500000000E-02 0. -1.
         -2   -1    0    0    0  501 -0.00000000000E+00 -0.00000000000E+00 -0.58178583589E+03  0.58178583590E+03  0.25500000000E-02 0.  1.
    8880023    1    1    2    0    0  0.15626140485E+03 -0.19453935762E+03  0.64592115223E+03  0.95566078159E+03  0.65864270000E+03 0. -1.
    8880022    1    1    2    0    0 -0.15626140485E+03  0.19453935762E+03 -0.37675695183E+03  0.47707509061E+03  0.15294330000E+03 0. -1.
<mgrwt>
<rscale>  0 0.56548842E+03</rscale>
<asrwt>0</asrwt>
<pdfrwt beam="1">  1        2 0.13091539E+00 0.70432478E+03</pdfrwt>
<pdfrwt beam="2">  1       -2 0.89505514E-01 0.70432478E+03</pdfrwt>
<totfact> 0.34553985E+01</totfact>
</mgrwt>
</event>
<event>
 4    2  0.4180017E-007  0.8935322E+03  0.7818608E-02  0.9536495E-01
          2   -1    0    0  501    0  0.00000000000E+00  0.00000000000E+00  0.18039110030E+04  0.18039110030E+04  0.25500000000E-02 0. -1.
         -2   -1    0    0    0  501 -0.00000000000E+00 -0.00000000000E+00 -0.16125799895E+04  0.16125799895E+04  0.25500000000E-02 0.  1.
    8880023    1    1    2    0    0  0.25331722857E+03  0.54810582131E+03  0.16243844915E+04  0.18539214633E+04  0.65864270000E+03 0. -1.
    8880022    1    1    2    0    0 -0.25331722857E+03 -0.54810582131E+03 -0.14330534780E+04  0.15625695292E+04  0.15294330000E+03 0.  0.
<mgrwt>
<rscale>  0 0.81645829E+03</rscale>
<asrwt>0</asrwt>
<pdfrwt beam="1">  1        2 0.27752477E+00 0.89353221E+03</pdfrwt>
<pdfrwt beam="2">  1       -2 0.24808923E+00 0.89353221E+03</pdfrwt>
<totfact> 0.57767498E-01</totfact>
</mgrwt>
</event>
<event>
 4    2  0.3171963E-007  0.9310336E+03  0.7818608E-02  0.9477944E-01
         -2   -1    0    0    0  501 -0.00000000000E+00  0.00000000000E+00  0.22710152388E+03  0.22710152389E+03  0.25500000000E-02 0.  1.
          2   -1    0    0  501    0  0.00000000000E+00 -0.00000000000E+00 -0.28545315078E+04  0.28545315078E+04  0.25500000000E-02 0. -1.
    8880023    1    1    2    0    0  0.61803451804E+03 -0.22593517972E+03 -0.16245904198E+04  0.18724629795E+04  0.65864270000E+03 0.  0.
    8880022    1    1    2    0    0 -0.61803451804E+03  0.22593517972E+03 -0.10028395641E+04  0.12091700523E+04  0.15294330000E+03 0. -1.
<mgrwt>
<rscale>  0 0.85929606E+03</rscale>
<asrwt>0</asrwt>
<pdfrwt beam="1">  1        2 0.43915867E+00 0.93103361E+03</pdfrwt>
<pdfrwt beam="2">  1       -2 0.34938698E-01 0.93103361E+03</pdfrwt>
<totfact> 0.16931198E+01</totfact>
</mgrwt>
</event>
<event>
 4    2  0.3171963E-007  0.8209599E+03  0.7818608E-02  0.9667185E-01
          2   -1    0    0  501    0  0.00000000000E+00  0.00000000000E+00  0.16903971494E+04  0.16903971494E+04  0.25500000000E-02 0. -1.
         -2   -1    0    0    0  501 -0.00000000000E+00 -0.00000000000E+00 -0.77869326591E+03  0.77869326591E+03  0.25500000000E-02 0.  1.
    8880023    1    1    2    0    0  0.10759111277E+03 -0.47810986466E+03  0.14866710264E+04  0.16982832029E+04  0.65864270000E+03 0.  0.
    8880022    1    1    2    0    0 -0.10759111277E+03  0.47810986466E+03 -0.57496714293E+03  0.77080721240E+03  0.15294330000E+03 0.  1.
<mgrwt>
<rscale>  0 0.73004674E+03</rscale>
<asrwt>0</asrwt>
<pdfrwt beam="1">  1        2 0.26006110E+00 0.82095986E+03</pdfrwt>
<pdfrwt beam="2">  1       -2 0.11979896E+00 0.82095986E+03</pdfrwt>
<totfact> 0.53912034E+00</totfact>
</mgrwt>
</event>
<event>
 4    2  0.3171963E-007  0.8310780E+03  0.7818608E-02  0.9647239E-01
         -2   -1    0    0    0  501 -0.00000000000E+00  0.00000000000E+00  0.51462432649E+03  0.51462432649E+03  0.25500000000E-02 0.  1.
          2   -1    0    0  501    0  0.00000000000E+00 -0.00000000000E+00 -0.11684942216E+04  0.11684942216E+04  0.25500000000E-02 0. -1.
    8880023    1    1    2    0    0  0.27568677793E+03 -0.42529660193E+03 -0.77903499878E+03  0.11391163833E+04  0.65864270000E+03 0. -1.
    8880022    1    1    2    0    0 -0.27568677793E+03  0.42529660193E+03  0.12516510364E+03  0.54400216481E+03  0.15294330000E+03 0.  0.
<mgrwt>
<rscale>  0 0.74246982E+03</rscale>
<asrwt>0</asrwt>
<pdfrwt beam="1">  1        2 0.17976834E+00 0.83107798E+03</pdfrwt>
<pdfrwt beam="2">  1       -2 0.79172974E-01 0.83107798E+03</pdfrwt>
<totfact> 0.28281281E+01</totfact>
</mgrwt>
</event>
<event>
 4    2  0.3171963E-007  0.8674267E+03  0.7818608E-02  0.9580487E-01
          2   -1    0    0  501    0  0.00000000000E+00  0.00000000000E+00  0.59054030565E+03  0.59054030566E+03  0.25500000000E-02 0. -1.
         -2   -1    0    0    0  501 -0.00000000000E+00 -0.00000000000E+00 -0.22050871575E+04  0.22050871575E+04  0.25500000000E-02 0.  1.
    8880023    1    1    2    0    0  0.55092854307E+03 -0.12286802201E+03  0.19913465790E+03  0.88999080256E+03  0.65864270000E+03 0. -1.
    8880022    1    1    2    0    0 -0.55092854307E+03  0.12286802201E+03 -0.18136815098E+04  0.19056366606E+04  0.15294330000E+03 0.  0.
<mgrwt>
<rscale>  0 0.78601259E+03</rscale>
<asrwt>0</asrwt>
<pdfrwt beam="1">  1        2 0.90852356E-01 0.86742666E+03</pdfrwt>
<pdfrwt beam="2">  1       -2 0.33924417E+00 0.86742666E+03</pdfrwt>
<totfact> 0.94808439E-01</totfact>
</mgrwt>
</event>
<event>
 4    2  0.3171963E-007  0.7457333E+03  0.7818608E-02  0.9843551E-01
          2   -1    0    0  501    0  0.00000000000E+00  0.00000000000E+00  0.62805106255E+03  0.62805106256E+03  0.25500000000E-02 0. -1.
         -2   -1    0    0    0  501 -0.00000000000E+00 -0.00000000000E+00 -0.60939086495E+03  0.60939086496E+03  0.25500000000E-02 0.  1.
    8880023    1    1    2    0    0 -0.20569855038E+02 -0.34911998977E+03 -0.23176716299E+03  0.78091876037E+03  0.65864270000E+03 0. -1.
    8880022    1    1    2    0    0  0.20569855038E+02  0.34911998977E+03  0.25042736058E+03  0.45652316714E+03  0.15294330000E+03 0.  0.
<mgrwt>
<rscale>  0 0.63076837E+03</rscale>
<asrwt>0</asrwt>
<pdfrwt beam="1">  1        2 0.96623241E-01 0.74573326E+03</pdfrwt>
<pdfrwt beam="2">  1       -2 0.93752440E-01 0.74573326E+03</pdfrwt>
<totfact> 0.45669421E+01</totfact>
</mgrwt>
</event>
<event>
 4    2  0.3171963E-007  0.6660904E+03  0.7818608E-02  0.1018636E+00
         -2   -1    0    0    0  501 -0.00000000000E+00  0.00000000000E+00  0.30291275743E+03  0.30291275744E+03  0.25500000000E-02 0.  1.
          2   -1    0    0  501    0  0.00000000000E+00 -0.00000000000E+00 -0.66018556770E+03  0.66018556770E+03  0.25500000000E-02 0. -1.
    8880023    1    1    2    0    0 -0.34011313768E+02  0.93324291492E+02 -0.39841006763E+03  0.77614881376E+03  0.65864270000E+03 0. -1.
    8880022    1    1    2    0    0  0.34011313768E+02 -0.93324291492E+02  0.41137257361E+02  0.18694951138E+03  0.15294330000E+03 0.  0.
<mgrwt>
<rscale>  0 0.48182201E+03</rscale>
<asrwt>0</asrwt>
<pdfrwt beam="1">  1        2 0.10156701E+00 0.66609038E+03</pdfrwt>
<pdfrwt beam="2">  1       -2 0.46601963E-01 0.66609038E+03</pdfrwt>
<totfact> 0.19517331E+02</totfact>
</mgrwt>
</event>
<event>
 4    2  0.3171963E-007  0.9974302E+03  0.7818608E-02  0.9384928E-01
         -2   -1    0    0    0  501 -0.00000000000E+00  0.00000000000E+00  0.12017938113E+04  0.12017938113E+04  0.25500000000E-02 0.  1.
          2   -1    0    0  501    0  0.00000000000E+00 -0.00000000000E+00 -0.87591255863E+03  0.87591255864E+03  0.25500000000E-02 0. -1.
    8880023    1    1    2    0    0 -0.74770185840E+03 -0.44706698546E+02 -0.35022864639E+03  0.10571315287E+04  0.65864270000E+03 0.  0.
    8880022    1    1    2    0    0  0.74770185840E+03  0.44706698546E+02  0.67610989902E+03  0.10205748412E+04  0.15294330000E+03 0.  0.
<mgrwt>
<rscale>  0 0.93326537E+03</rscale>
<asrwt>0</asrwt>
<pdfrwt beam="1">  1        2 0.13475578E+00 0.99743018E+03</pdfrwt>
<pdfrwt beam="2">  1       -2 0.18489136E+00 0.99743018E+03</pdfrwt>
<totfact> 0.50706490E+00</totfact>
</mgrwt>
</event>
<event>
 4    2  0.4336644E-007  0.7174484E+03  0.7818608E-02  0.9931316E-01
          2   -1    0    0  501    0  0.00000000000E+00  0.00000000000E+00  0.15009002512E+04  0.15009002512E+04  0.25500000000E-02 0. -1.
         -2   -1    0    0    0  501 -0.00000000000E+00 -0.00000000000E+00 -0.18177955220E+04  0.18177955220E+04  0.25500000000E-02 0.  1.
    8880023    1    1    2    0    0 -0.21547831603E+03 -0.18571776483E+03  0.13992299044E+04  0.15724428525E+04  0.65864270000E+03 0.  0.
    8880022    1    1    2    0    0  0.21547831603E+03  0.18571776483E+03 -0.17161251752E+04  0.17462529206E+04  0.15294330000E+03 0.  0.
<mgrwt>
<rscale>  0 0.58767287E+03</rscale>
<asrwt>0</asrwt>
<pdfrwt beam="1">  1        2 0.23090773E+00 0.71744839E+03</pdfrwt>
<pdfrwt beam="2">  1       -2 0.27966085E+00 0.71744839E+03</pdfrwt>
<totfact> 0.56710863E-01</totfact>
</mgrwt>
</event>
<event>
 4    2  0.3171963E-007  0.1237858E+04  0.7818608E-02  0.9121172E-01
         -2   -1    0    0    0  501 -0.00000000000E+00  0.00000000000E+00  0.90945189291E+03  0.90945189291E+03  0.25500000000E-02 0.  1.
          2   -1    0    0  501    0  0.00000000000E+00 -0.00000000000E+00 -0.20693719251E+04  0.20693719251E+04  0.25500000000E-02 0. -1.
    8880023    1    1    2    0    0  0.90403030895E+03 -0.53029368568E+03  0.20124304190E+03  0.12541097084E+04  0.65864270000E+03 0.  1.
    8880022    1    1    2    0    0 -0.90403030895E+03  0.53029368568E+03 -0.13611630741E+04  0.17247141096E+04  0.15294330000E+03 0.  0.
<mgrwt>
<rscale>  0 0.11905458E+04</rscale>
<asrwt>0</asrwt>
<pdfrwt beam="1">  1        2 0.31836491E+00 0.12378580E+04</pdfrwt>
<pdfrwt beam="2">  1       -2 0.13991568E+00 0.12378580E+04</pdfrwt>
<totfact> 0.21338853E+00</totfact>
</mgrwt>
</event>
<event>
 4    2  0.3171963E-007  0.8295194E+03  0.7818608E-02  0.9650268E-01
          2   -1    0    0  501    0  0.00000000000E+00  0.00000000000E+00  0.10228563026E+04  0.10228563026E+04  0.25500000000E-02 0. -1.
         -2   -1    0    0    0  501 -0.00000000000E+00 -0.00000000000E+00 -0.17170162359E+04  0.17170162359E+04  0.25500000000E-02 0.  1.
    8880023    1    1    2    0    0 -0.21523519510E+03 -0.45603296360E+03  0.80187995817E+03  0.11537391068E+04  0.65864270000E+03 0. -1.
    8880022    1    1    2    0    0  0.21523519510E+03  0.45603296360E+03 -0.14960398914E+04  0.15861334316E+04  0.15294330000E+03 0.  0.
<mgrwt>
<rscale>  0 0.74056598E+03</rscale>
<asrwt>0</asrwt>
<pdfrwt beam="1">  1        2 0.15736251E+00 0.82951941E+03</pdfrwt>
<pdfrwt beam="2">  1       -2 0.26415635E+00 0.82951941E+03</pdfrwt>
<totfact> 0.13119679E+00</totfact>
</mgrwt>
</event>
<event>
 4    2  0.3171963E-007  0.1008670E+04  0.7818608E-02  0.9370302E-01
         -2   -1    0    0    0  501 -0.00000000000E+00  0.00000000000E+00  0.10803322412E+04  0.10803322412E+04  0.25500000000E-02 0.  1.
          2   -1    0    0  501    0  0.00000000000E+00 -0.00000000000E+00 -0.22034041717E+04  0.22034041717E+04  0.25500000000E-02 0. -1.
    8880023    1    1    2    0    0 -0.29331158173E+03  0.70538847949E+03 -0.19202607187E+04  0.21690587878E+04  0.65864270000E+03 0.  0.
    8880022    1    1    2    0    0  0.29331158173E+03 -0.70538847949E+03  0.79718878814E+03  0.11146776251E+04  0.15294330000E+03 0.  0.
<mgrwt>
<rscale>  0 0.94560556E+03</rscale>
<asrwt>0</asrwt>
<pdfrwt beam="1">  1        2 0.33898526E+00 0.10086698E+04</pdfrwt>
<pdfrwt beam="2">  1       -2 0.16620496E+00 0.10086698E+04</pdfrwt>
<totfact> 0.11656644E+00</totfact>
</mgrwt>
</event>
<event>
 4    2  0.3171963E-007  0.8048775E+03  0.7818608E-02  0.9700347E-01
         -2   -1    0    0    0  501 -0.00000000000E+00  0.00000000000E+00  0.49268381530E+03  0.49268381531E+03  0.25500000000E-02 0.  1.
          2   -1    0    0  501    0  0.00000000000E+00 -0.00000000000E+00 -0.16543208289E+04  0.16543208289E+04  0.25500000000E-02 0. -1.
    8880023    1    1    2    0    0  0.16075685386E+03  0.43379122661E+03 -0.13920770251E+04  0.16080131357E+04  0.65864270000E+03 0.  0.
    8880022    1    1    2    0    0 -0.16075685386E+03 -0.43379122661E+03  0.23044001153E+03  0.53899150854E+03  0.15294330000E+03 0.  0.
<mgrwt>
<rscale>  0 0.70996109E+03</rscale>
<asrwt>0</asrwt>
<pdfrwt beam="1">  1        2 0.25451089E+00 0.80487751E+03</pdfrwt>
<pdfrwt beam="2">  1       -2 0.75797511E-01 0.80487751E+03</pdfrwt>
<totfact> 0.16544568E+01</totfact>
</mgrwt>
</event>
<event>
 4    2  0.3171963E-007  0.7858989E+03  0.7818608E-02  0.9742158E-01
         -2   -1    0    0    0  501 -0.00000000000E+00  0.00000000000E+00  0.14035127417E+04  0.14035127417E+04  0.25500000000E-02 0.  1.
          2   -1    0    0  501    0  0.00000000000E+00 -0.00000000000E+00 -0.45151170801E+03  0.45151170802E+03  0.25500000000E-02 0. -1.
    8880023    1    1    2    0    0 -0.33130083889E+03  0.27215197917E+03 -0.15209441390E+02  0.78604610487E+03  0.65864270000E+03 0. -1.
    8880022    1    1    2    0    0  0.33130083889E+03 -0.27215197917E+03  0.96721047504E+03  0.10689783448E+04  0.15294330000E+03 0.  0.
<mgrwt>
<rscale>  0 0.68561233E+03</rscale>
<asrwt>0</asrwt>
<pdfrwt beam="1">  1        2 0.69463340E-01 0.78589895E+03</pdfrwt>
<pdfrwt beam="2">  1       -2 0.21592504E+00 0.78589895E+03</pdfrwt>
<totfact> 0.73970707E+00</totfact>
</mgrwt>
</event>
<event>
 4    2  0.3171963E-007  0.7814955E+03  0.7818608E-02  0.9752336E-01
         -2   -1    0    0    0  501 -0.00000000000E+00  0.00000000000E+00  0.16651964468E+04  0.16651964468E+04  0.25500000000E-02 0.  1.
          2   -1    0    0  501    0  0.00000000000E+00 -0.00000000000E+00 -0.30803301765E+03  0.30803301766E+03  0.25500000000E-02 0. -1.
    8880023    1    1    2    0    0  0.41831771894E+03 -0.43991399066E+02  0.32159095836E+03  0.84507745677E+03  0.65864270000E+03 0.  0.
    8880022    1    1    2    0    0 -0.41831771894E+03  0.43991399066E+02  0.10355724707E+04  0.11281520076E+04  0.15294330000E+03 0.  0.
<mgrwt>
<rscale>  0 0.67984431E+03</rscale>
<asrwt>0</asrwt>
<pdfrwt beam="1">  1        2 0.47389695E-01 0.78149547E+03</pdfrwt>
<pdfrwt beam="2">  1       -2 0.25618407E+00 0.78149547E+03</pdfrwt>
<totfact> 0.64339293E+00</totfact>
</mgrwt>
</event>
<event>
 4    2  0.3171963E-007  0.9216134E+03  0.7818608E-02  0.9492190E-01
          2   -1    0    0  501    0  0.00000000000E+00  0.00000000000E+00  0.23181929008E+04  0.23181929008E+04  0.25500000000E-02 0. -1.
         -2   -1    0    0    0  501 -0.00000000000E+00 -0.00000000000E+00 -0.29445945592E+03  0.29445945593E+03  0.25500000000E-02 0.  1.
    8880023    1    1    2    0    0 -0.58301594878E+03  0.27505183749E+03  0.15309528353E+04  0.17869493278E+04  0.65864270000E+03 0.  1.
    8880022    1    1    2    0    0  0.58301594878E+03 -0.27505183749E+03  0.49278060956E+03  0.82570302895E+03  0.15294330000E+03 0. -1.
<mgrwt>
<rscale>  0 0.84862109E+03</rscale>
<asrwt>0</asrwt>
<pdfrwt beam="1">  1        2 0.35664505E+00 0.92161343E+03</pdfrwt>
<pdfrwt beam="2">  1       -2 0.45301456E-01 0.92161343E+03</pdfrwt>
<totfact> 0.20822358E+01</totfact>
</mgrwt>
</event>
<event>
 4    2  0.3171963E-007  0.8176579E+03  0.7818608E-02  0.9673841E-01
          2   -1    0    0  501    0  0.00000000000E+00  0.00000000000E+00  0.12653535754E+04  0.12653535754E+04  0.25500000000E-02 0. -1.
         -2   -1    0    0    0  501 -0.00000000000E+00 -0.00000000000E+00 -0.48134769972E+03  0.48134769973E+03  0.25500000000E-02 0.  1.
    8880023    1    1    2    0    0 -0.42123413592E+03  0.23940759341E+03  0.90984697639E+03  0.12232685395E+04  0.65864270000E+03 0.  0.
    8880022    1    1    2    0    0  0.42123413592E+03 -0.23940759341E+03 -0.12584110073E+03  0.52343273560E+03  0.15294330000E+03 0.  0.
<mgrwt>
<rscale>  0 0.72595861E+03</rscale>
<asrwt>0</asrwt>
<pdfrwt beam="1">  1        2 0.19466978E+00 0.81765787E+03</pdfrwt>
<pdfrwt beam="2">  1       -2 0.74053492E-01 0.81765787E+03</pdfrwt>
<totfact> 0.28809800E+01</totfact>
</mgrwt>
</event>
<event>
 4    2  0.3171963E-007  0.7113704E+03  0.7818608E-02  0.9952947E-01
          2   -1    0    0  501    0  0.00000000000E+00  0.00000000000E+00  0.36097573104E+04  0.36097573104E+04  0.25500000000E-02 0. -1.
         -2   -1    0    0    0  501 -0.00000000000E+00 -0.00000000000E+00 -0.28387048747E+03  0.28387048748E+03  0.25500000000E-02 0.  1.
    8880023    1    1    2    0    0  0.18442583191E+03 -0.19551137131E+03  0.34772934350E+04  0.35493122465E+04  0.65864270000E+03 0. -1.
    8880022    1    1    2    0    0 -0.18442583191E+03  0.19551137131E+03 -0.15140661202E+03  0.34431555144E+03  0.15294330000E+03 0.  0.
<mgrwt>
<rscale>  0 0.57762457E+03</rscale>
<asrwt>0</asrwt>
<pdfrwt beam="1">  1        2 0.55534726E+00 0.71137036E+03</pdfrwt>
<pdfrwt beam="2">  1       -2 0.43672384E-01 0.71137036E+03</pdfrwt>
<totfact> 0.37117091E+00</totfact>
</mgrwt>
</event>
<event>
 4    2  0.3171963E-007  0.7250348E+03  0.7818608E-02  0.9905904E-01
          2   -1    0    0  501    0  0.00000000000E+00  0.00000000000E+00  0.48252436492E+03  0.48252436493E+03  0.25500000000E-02 0. -1.
         -2   -1    0    0    0  501 -0.00000000000E+00 -0.00000000000E+00 -0.92484212888E+03  0.92484212889E+03  0.25500000000E-02 0.  1.
    8880023    1    1    2    0    0  0.20975854903E+03  0.21878453326E+03  0.13512394998E+03  0.73751881942E+03  0.65864270000E+03 0.  1.
    8880022    1    1    2    0    0 -0.20975854903E+03 -0.21878453326E+03 -0.57744171394E+03  0.66984767439E+03  0.15294330000E+03 0.  0.
<mgrwt>
<rscale>  0 0.59976009E+03</rscale>
<asrwt>0</asrwt>
<pdfrwt beam="1">  1        2 0.74234518E-01 0.72503485E+03</pdfrwt>
<pdfrwt beam="2">  1       -2 0.14228340E+00 0.72503485E+03</pdfrwt>
<totfact> 0.22433355E+01</totfact>
</mgrwt>
</event>
<event>
 4    2  0.3171963E-007  0.6955754E+03  0.7818608E-02  0.1001608E+00
          2   -1    0    0  501    0  0.00000000000E+00  0.00000000000E+00  0.29803253468E+03  0.29803253469E+03  0.25500000000E-02 0. -1.
         -2   -1    0    0    0  501 -0.00000000000E+00 -0.00000000000E+00 -0.12790677149E+04  0.12790677149E+04  0.25500000000E-02 0.  1.
    8880023    1    1    2    0    0 -0.50088059411E+01 -0.22358403118E+03 -0.16168988719E+03  0.71412095125E+03  0.65864270000E+03 0. -1.
    8880022    1    1    2    0    0  0.50088059411E+01  0.22358403118E+03 -0.81934529301E+03  0.86297929832E+03  0.15294330000E+03 0.  0.
<mgrwt>
<rscale>  0 0.54950926E+03</rscale>
<asrwt>0</asrwt>
<pdfrwt beam="1">  1        2 0.45851160E-01 0.69557538E+03</pdfrwt>
<pdfrwt beam="2">  1       -2 0.19677965E+00 0.69557538E+03</pdfrwt>
<totfact> 0.15787977E+01</totfact>
</mgrwt>
</event>
<event>
 4    2  0.3171963E-007  0.9014786E+03  0.7818608E-02  0.9523662E-01
          2   -1    0    0  501    0  0.00000000000E+00  0.00000000000E+00  0.95178095957E+03  0.95178095957E+03  0.25500000000E-02 0. -1.
         -2   -1    0    0    0  501 -0.00000000000E+00 -0.00000000000E+00 -0.15853496251E+04  0.15853496251E+04  0.25500000000E-02 0.  1.
    8880023    1    1    2    0    0  0.30081197165E+03  0.53699691463E+03  0.64597363644E+03  0.11090291582E+04  0.65864270000E+03 0.  0.
    8880022    1    1    2    0    0 -0.30081197165E+03 -0.53699691463E+03 -0.12795423020E+04  0.14281014264E+04  0.15294330000E+03 0.  0.
<mgrwt>
<rscale>  0 0.82561569E+03</rscale>
<asrwt>0</asrwt>
<pdfrwt beam="1">  1        2 0.14642784E+00 0.90147864E+03</pdfrwt>
<pdfrwt beam="2">  1       -2 0.24389994E+00 0.90147864E+03</pdfrwt>
<totfact> 0.19142616E+00</totfact>
</mgrwt>
</event>
<event>
 4    2  0.3171963E-007  0.7076416E+03  0.7818608E-02  0.9966865E-01
         -2   -1    0    0    0  501 -0.00000000000E+00  0.00000000000E+00  0.46479012717E+03  0.46479012718E+03  0.25500000000E-02 0.  1.
          2   -1    0    0  501    0  0.00000000000E+00 -0.00000000000E+00 -0.63614914000E+03  0.63614914000E+03  0.25500000000E-02 0. -1.
    8880023    1    1    2    0    0  0.10457744570E+03  0.23666434301E+03 -0.30677854995E+03  0.77127799034E+03  0.65864270000E+03 0. -1.
    8880022    1    1    2    0    0 -0.10457744570E+03 -0.23666434301E+03  0.13541953713E+03  0.32966127685E+03  0.15294330000E+03 0.  0.
<mgrwt>
<rscale>  0 0.57127326E+03</rscale>
<asrwt>0</asrwt>
<pdfrwt beam="1">  1        2 0.97869099E-01 0.70764162E+03</pdfrwt>
<pdfrwt beam="2">  1       -2 0.71506173E-01 0.70764162E+03</pdfrwt>
<totfact> 0.83125903E+01</totfact>
</mgrwt>
</event>
<event>
 4    2  0.3171963E-007  0.8570958E+03  0.7818608E-02  0.9598751E-01
         -2   -1    0    0    0  501 -0.00000000000E+00  0.00000000000E+00  0.14485930869E+04  0.14485930869E+04  0.25500000000E-02 0.  1.
          2   -1    0    0  501    0  0.00000000000E+00 -0.00000000000E+00 -0.60138323680E+03  0.60138323680E+03  0.25500000000E-02 0. -1.
    8880023    1    1    2    0    0 -0.37946215463E+03  0.39599424523E+03 -0.17974455071E+03  0.87574041749E+03  0.65864270000E+03 0.  0.
    8880022    1    1    2    0    0  0.37946215463E+03 -0.39599424523E+03  0.10269544008E+04  0.11742359062E+04  0.15294330000E+03 0.  0.
<mgrwt>
<rscale>  0 0.77378934E+03</rscale>
<asrwt>0</asrwt>
<pdfrwt beam="1">  1        2 0.92520499E-01 0.85709578E+03</pdfrwt>
<pdfrwt beam="2">  1       -2 0.22286047E+00 0.85709578E+03</pdfrwt>
<totfact> 0.47402549E+00</totfact>
</mgrwt>
</event>
<event>
 4    2  0.3171963E-007  0.6589610E+03  0.7818608E-02  0.1025247E+00
          2   -1    0    0  501    0  0.00000000000E+00  0.00000000000E+00  0.35536901533E+03  0.35536901534E+03  0.25500000000E-02 0. -1.
         -2   -1    0    0    0  501 -0.00000000000E+00 -0.00000000000E+00 -0.54245745275E+03  0.54245745276E+03  0.25500000000E-02 0.  1.
    8880023    1    1    2    0    0 -0.62092558106E+01  0.19514386188E+02 -0.47770806905E+01  0.65897829470E+03  0.65864270000E+03 0. -1.
    8880022    1    1    2    0    0  0.62092558106E+01 -0.19514386188E+02 -0.18231135673E+03  0.23884817339E+03  0.15294330000E+03 0.  0.
<mgrwt>
<rscale>  0 0.45839727E+03</rscale>
<asrwt>0</asrwt>
<pdfrwt beam="1">  1        2 0.54672156E-01 0.65896098E+03</pdfrwt>
<pdfrwt beam="2">  1       -2 0.83454993E-01 0.65896098E+03</pdfrwt>
<totfact> 0.11576160E+02</totfact>
</mgrwt>
</event>
<event>
 4    2  0.3171963E-007  0.6857131E+03  0.7818608E-02  0.1006261E+00
          2   -1    0    0  501    0  0.00000000000E+00  0.00000000000E+00  0.14984644944E+04  0.14984644944E+04  0.25500000000E-02 0. -1.
         -2   -1    0    0    0  501 -0.00000000000E+00 -0.00000000000E+00 -0.22757057980E+03  0.22757057981E+03  0.25500000000E-02 0.  1.
    8880023    1    1    2    0    0 -0.16496574328E+03  0.95804985941E+02  0.13098130619E+04  0.14784494429E+04  0.65864270000E+03 0.  0.
    8880022    1    1    2    0    0  0.16496574328E+03 -0.95804985941E+02 -0.38919147310E+02  0.24758563131E+03  0.15294330000E+03 0.  0.
<mgrwt>
<rscale>  0 0.52988292E+03</rscale>
<asrwt>0</asrwt>
<pdfrwt beam="1">  1        2 0.23053300E+00 0.68571313E+03</pdfrwt>
<pdfrwt beam="2">  1       -2 0.35010859E-01 0.68571313E+03</pdfrwt>
<totfact> 0.99762445E+01</totfact>
</mgrwt>
</event>
<event>
 4    2  0.3171963E-007  0.7227944E+03  0.7818608E-02  0.9913242E-01
          2   -1    0    0  501    0  0.00000000000E+00  0.00000000000E+00  0.97314427366E+03  0.97314427366E+03  0.25500000000E-02 0. -1.
         -2   -1    0    0    0  501 -0.00000000000E+00 -0.00000000000E+00 -0.43286195849E+03  0.43286195850E+03  0.25500000000E-02 0.  1.
    8880023    1    1    2    0    0 -0.27955365159E+03 -0.10232913575E+03  0.72498770702E+03  0.10237376997E+04  0.65864270000E+03 0. -1.
    8880022    1    1    2    0    0  0.27955365159E+03  0.10232913575E+03 -0.18470539185E+03  0.38226853249E+03  0.15294330000E+03 0.  0.
<mgrwt>
<rscale>  0 0.59623806E+03</rscale>
<asrwt>0</asrwt>
<pdfrwt beam="1">  1        2 0.14971450E+00 0.72279437E+03</pdfrwt>
<pdfrwt beam="2">  1       -2 0.66594147E-01 0.72279437E+03</pdfrwt>
<totfact> 0.55265806E+01</totfact>
</mgrwt>
</event>
<event>
 4    2  0.3171963E-007  0.9676923E+03  0.7818608E-02  0.9425103E-01
          2   -1    0    0  501    0  0.00000000000E+00  0.00000000000E+00  0.27872659528E+04  0.27872659528E+04  0.25500000000E-02 0. -1.
         -2   -1    0    0    0  501 -0.00000000000E+00 -0.00000000000E+00 -0.45306013694E+03  0.45306013694E+03  0.25500000000E-02 0.  1.
    8880023    1    1    2    0    0  0.37672459019E+03  0.60058032194E+03  0.20254412461E+03  0.98866195872E+03  0.65864270000E+03 0.  0.
    8880022    1    1    2    0    0 -0.37672459019E+03 -0.60058032194E+03  0.21316616913E+04  0.22516641311E+04  0.15294330000E+03 0.  0.
<mgrwt>
<rscale>  0 0.90038279E+03</rscale>
<asrwt>0</asrwt>
<pdfrwt beam="1">  1        2 0.42881014E+00 0.96769228E+03</pdfrwt>
<pdfrwt beam="2">  1       -2 0.69701561E-01 0.96769228E+03</pdfrwt>
<totfact> 0.45126595E+00</totfact>
</mgrwt>
</event>
<event>
 4    2  0.3171963E-007  0.7080686E+03  0.7818608E-02  0.9965244E-01
         -2   -1    0    0    0  501 -0.00000000000E+00  0.00000000000E+00  0.56210112809E+03  0.56210112809E+03  0.25500000000E-02 0.  1.
          2   -1    0    0  501    0  0.00000000000E+00 -0.00000000000E+00 -0.83317882986E+03  0.83317882987E+03  0.25500000000E-02 0. -1.
    8880023    1    1    2    0    0  0.25990534360E+03  0.38091653228E+00 -0.61500432049E+03  0.93786537052E+03  0.65864270000E+03 0. -1.
    8880022    1    1    2    0    0 -0.25990534360E+03 -0.38091653228E+00  0.34392661871E+03  0.45741458744E+03  0.15294330000E+03 0.  0.
<mgrwt>
<rscale>  0 0.57200841E+03</rscale>
<asrwt>0</asrwt>
<pdfrwt beam="1">  1        2 0.12818136E+00 0.70806860E+03</pdfrwt>
<pdfrwt beam="2">  1       -2 0.86477096E-01 0.70806860E+03</pdfrwt>
<totfact> 0.38460254E+01</totfact>
</mgrwt>
</event>
<event>
 4    2  0.3171963E-007  0.9254776E+03  0.7818608E-02  0.9486311E-01
          2   -1    0    0  501    0  0.00000000000E+00  0.00000000000E+00  0.24491693748E+04  0.24491693748E+04  0.25500000000E-02 0. -1.
         -2   -1    0    0    0  501 -0.00000000000E+00 -0.00000000000E+00 -0.25919050593E+03  0.25919050595E+03  0.25500000000E-02 0.  1.
    8880023    1    1    2    0    0 -0.35912636803E+03 -0.54196573609E+03  0.12561979181E+04  0.15603019013E+04  0.65864270000E+03 0.  0.
    8880022    1    1    2    0    0  0.35912636803E+03  0.54196573609E+03  0.93378095078E+03  0.11480579795E+04  0.15294330000E+03 0.  1.
<mgrwt>
<rscale>  0 0.85300638E+03</rscale>
<asrwt>0</asrwt>
<pdfrwt beam="1">  1        2 0.37679528E+00 0.92547761E+03</pdfrwt>
<pdfrwt beam="2">  1       -2 0.39875463E-01 0.92547761E+03</pdfrwt>
<totfact> 0.22602913E+01</totfact>
</mgrwt>
</event>
<event>
 4    2  0.3171963E-007  0.6922007E+03  0.7818608E-02  0.1003124E+00
          2   -1    0    0  501    0  0.00000000000E+00  0.00000000000E+00  0.54199455607E+03  0.54199455607E+03  0.25500000000E-02 0. -1.
         -2   -1    0    0    0  501 -0.00000000000E+00 -0.00000000000E+00 -0.56407344901E+03  0.56407344902E+03  0.25500000000E-02 0.  1.
    8880023    1    1    2    0    0 -0.19964562281E+03  0.73981708231E+02  0.24265373499E+03  0.73350031304E+03  0.65864270000E+03 0. -1.
    8880022    1    1    2    0    0  0.19964562281E+03 -0.73981708231E+02 -0.26473262793E+03  0.37256769206E+03  0.15294330000E+03 0.  0.
<mgrwt>
<rscale>  0 0.54301530E+03</rscale>
<asrwt>0</asrwt>
<pdfrwt beam="1">  1        2 0.83383778E-01 0.69220075E+03</pdfrwt>
<pdfrwt beam="2">  1       -2 0.86780530E-01 0.69220075E+03</pdfrwt>
<totfact> 0.65373806E+01</totfact>
</mgrwt>
</event>
<event>
 4    2  0.3171963E-007  0.7343272E+03  0.7818608E-02  0.9876791E-01
         -2   -1    0    0    0  501 -0.00000000000E+00  0.00000000000E+00  0.24006443593E+03  0.24006443594E+03  0.25500000000E-02 0.  1.
          2   -1    0    0  501    0  0.00000000000E+00 -0.00000000000E+00 -0.17271197323E+04  0.17271197323E+04  0.25500000000E-02 0. -1.
    8880023    1    1    2    0    0  0.28147523111E+03  0.16185765745E+03 -0.14248165963E+04  0.16029157016E+04  0.65864270000E+03 0. -1.
    8880022    1    1    2    0    0 -0.28147523111E+03 -0.16185765745E+03 -0.62238700069E+02  0.36426846667E+03  0.15294330000E+03 0.  0.
<mgrwt>
<rscale>  0 0.61399412E+03</rscale>
<asrwt>0</asrwt>
<pdfrwt beam="1">  1        2 0.26571072E+00 0.73432718E+03</pdfrwt>
<pdfrwt beam="2">  1       -2 0.36932991E-01 0.73432718E+03</pdfrwt>
<totfact> 0.67089039E+01</totfact>
</mgrwt>
</event>
<event>
 4    2  0.3171963E-007  0.7099887E+03  0.7818608E-02  0.9958043E-01
         -2   -1    0    0    0  501 -0.00000000000E+00  0.00000000000E+00  0.20612690708E+03  0.20612690709E+03  0.25500000000E-02 0.  1.
          2   -1    0    0  501    0  0.00000000000E+00 -0.00000000000E+00 -0.17957840415E+04  0.17957840415E+04  0.25500000000E-02 0. -1.
    8880023    1    1    2    0    0 -0.16973763043E+03  0.20362438098E+03 -0.15346934385E+04  0.16909665603E+04  0.65864270000E+03 0. -1.
    8880022    1    1    2    0    0  0.16973763043E+03 -0.20362438098E+03 -0.54963695933E+02  0.31094438828E+03  0.15294330000E+03 0.  0.
<mgrwt>
<rscale>  0 0.57528888E+03</rscale>
<asrwt>0</asrwt>
<pdfrwt beam="1">  1        2 0.27627446E+00 0.70998870E+03</pdfrwt>
<pdfrwt beam="2">  1       -2 0.31711833E-01 0.70998870E+03</pdfrwt>
<totfact> 0.82389032E+01</totfact>
</mgrwt>
</event>
<event>
 4    2  0.3171963E-007  0.7162906E+03  0.7818608E-02  0.9935343E-01
         -2   -1    0    0    0  501 -0.00000000000E+00  0.00000000000E+00  0.16140124423E+03  0.16140124425E+03  0.25500000000E-02 0.  1.
          2   -1    0    0  501    0  0.00000000000E+00 -0.00000000000E+00 -0.20553619017E+04  0.20553619017E+04  0.25500000000E-02 0. -1.
    8880023    1    1    2    0    0  0.26832110297E+03 -0.85239358590E+02 -0.16936801056E+04  0.18389193753E+04  0.65864270000E+03 0.  1.
    8880022    1    1    2    0    0 -0.26832110297E+03  0.85239358590E+02 -0.20028055191E+03  0.37784377068E+03  0.15294330000E+03 0.  0.
<mgrwt>
<rscale>  0 0.58578562E+03</rscale>
<asrwt>0</asrwt>
<pdfrwt beam="1">  1        2 0.31620951E+00 0.71629056E+03</pdfrwt>
<pdfrwt beam="2">  1       -2 0.24830962E-01 0.71629056E+03</pdfrwt>
<totfact> 0.93151157E+01</totfact>
</mgrwt>
</event>
<event>
 4    2  0.3171963E-007  0.8435771E+03  0.7818608E-02  0.9623472E-01
          2   -1    0    0  501    0  0.00000000000E+00  0.00000000000E+00  0.18009366772E+04  0.18009366772E+04  0.25500000000E-02 0. -1.
         -2   -1    0    0    0  501 -0.00000000000E+00 -0.00000000000E+00 -0.43892058862E+03  0.43892058862E+03  0.25500000000E-02 0.  1.
    8880023    1    1    2    0    0  0.40916374508E+03  0.33226078525E+03  0.14563134809E+04  0.16829947595E+04  0.65864270000E+03 0.  0.
    8880022    1    1    2    0    0 -0.40916374508E+03 -0.33226078525E+03 -0.94297392311E+02  0.55686250629E+03  0.15294330000E+03 0.  0.
<mgrwt>
<rscale>  0 0.75761955E+03</rscale>
<asrwt>0</asrwt>
<pdfrwt beam="1">  1        2 0.27706718E+00 0.84357715E+03</pdfrwt>
<pdfrwt beam="2">  1       -2 0.67526245E-01 0.84357715E+03</pdfrwt>
<totfact> 0.17637300E+01</totfact>
</mgrwt>
</event>
<event>
 4    2  0.3171963E-007  0.8069894E+03  0.7818608E-02  0.9695882E-01
          2   -1    0    0  501    0  0.00000000000E+00  0.00000000000E+00  0.14522720205E+04  0.14522720205E+04  0.25500000000E-02 0. -1.
         -2   -1    0    0    0  501 -0.00000000000E+00 -0.00000000000E+00 -0.47530181332E+03  0.47530181333E+03  0.25500000000E-02 0.  1.
    8880023    1    1    2    0    0 -0.46622818577E+03  0.72831628297E+01  0.11520285592E+04  0.14065567081E+04  0.65864270000E+03 0.  0.
    8880022    1    1    2    0    0  0.46622818577E+03 -0.72831628297E+01 -0.17505835202E+03  0.52101712572E+03  0.15294330000E+03 0.  0.
<mgrwt>
<rscale>  0 0.71262488E+03</rscale>
<asrwt>0</asrwt>
<pdfrwt beam="1">  1        2 0.22342646E+00 0.80698945E+03</pdfrwt>
<pdfrwt beam="2">  1       -2 0.73123357E-01 0.80698945E+03</pdfrwt>
<totfact> 0.23190091E+01</totfact>
</mgrwt>
</event>
<event>
 4    2  0.3171963E-007  0.8985598E+03  0.7818608E-02  0.9528348E-01
         -2   -1    0    0    0  501 -0.00000000000E+00  0.00000000000E+00  0.54147406012E+03  0.54147406013E+03  0.25500000000E-02 0.  1.
          2   -1    0    0  501    0  0.00000000000E+00 -0.00000000000E+00 -0.14874633276E+04  0.14874633276E+04  0.25500000000E-02 0. -1.
    8880023    1    1    2    0    0  0.60899238115E+03 -0.52227509503E+02 -0.10589631147E+04  0.13888169489E+04  0.65864270000E+03 0. -1.
    8880022    1    1    2    0    0 -0.60899238115E+03  0.52227509503E+02  0.11297384720E+03  0.64012043883E+03  0.15294330000E+03 0.  0.
<mgrwt>
<rscale>  0 0.82225745E+03</rscale>
<asrwt>0</asrwt>
<pdfrwt beam="1">  1        2 0.22884051E+00 0.89855976E+03</pdfrwt>
<pdfrwt beam="2">  1       -2 0.83303702E-01 0.89855976E+03</pdfrwt>
<totfact> 0.16385903E+01</totfact>
</mgrwt>
</event>
<event>
 4    2  0.3171963E-007  0.6727119E+03  0.7818608E-02  0.1013789E+00
          2   -1    0    0  501    0  0.00000000000E+00  0.00000000000E+00  0.17021068406E+04  0.17021068406E+04  0.25500000000E-02 0. -1.
         -2   -1    0    0    0  501 -0.00000000000E+00 -0.00000000000E+00 -0.48620120769E+03  0.48620120770E+03  0.25500000000E-02 0.  1.
    8880023    1    1    2    0    0 -0.95790060393E+02  0.97751219838E+02  0.16094935624E+04  0.17444227614E+04  0.65864270000E+03 0. -1.
    8880022    1    1    2    0    0  0.95790060393E+02 -0.97751219838E+02 -0.39358792953E+03  0.44388528691E+03  0.15294330000E+03 0.  0.
<mgrwt>
<rscale>  0 0.49996123E+03</rscale>
<asrwt>0</asrwt>
<pdfrwt beam="1">  1        2 0.26186259E+00 0.67271186E+03</pdfrwt>
<pdfrwt beam="2">  1       -2 0.74800187E-01 0.67271186E+03</pdfrwt>
<totfact> 0.16328998E+01</totfact>
</mgrwt>
</event>
<event>
 4    2  0.3171963E-007  0.8369596E+03  0.7818608E-02  0.9635940E-01
         -2   -1    0    0    0  501 -0.00000000000E+00  0.00000000000E+00  0.81475957298E+03  0.81475957299E+03  0.25500000000E-02 0.  1.
          2   -1    0    0  501    0  0.00000000000E+00 -0.00000000000E+00 -0.71235778270E+03  0.71235778271E+03  0.25500000000E-02 0. -1.
    8880023    1    1    2    0    0 -0.45157487865E+03  0.25054207181E+03 -0.26179308477E+03  0.87694756187E+03  0.65864270000E+03 0. -1.
    8880022    1    1    2    0    0  0.45157487865E+03 -0.25054207181E+03  0.36419487505E+03  0.65016979382E+03  0.15294330000E+03 0.  0.
<mgrwt>
<rscale>  0 0.74962427E+03</rscale>
<asrwt>0</asrwt>
<pdfrwt beam="1">  1        2 0.10959351E+00 0.83695962E+03</pdfrwt>
<pdfrwt beam="2">  1       -2 0.12534763E+00 0.83695962E+03</pdfrwt>
<totfact> 0.19197167E+01</totfact>
</mgrwt>
</event>
<event>
 4    2  0.3171963E-007  0.7864895E+03  0.7818608E-02  0.9740808E-01
         -2   -1    0    0    0  501 -0.00000000000E+00  0.00000000000E+00  0.40858712885E+03  0.40858712886E+03  0.25500000000E-02 0.  1.
          2   -1    0    0  501    0  0.00000000000E+00 -0.00000000000E+00 -0.16231540138E+04  0.16231540138E+04  0.25500000000E-02 0. -1.
    8880023    1    1    2    0    0  0.35463464531E+03 -0.24287813753E+03 -0.13442597995E+04  0.15574338304E+04  0.65864270000E+03 0.  0.
    8880022    1    1    2    0    0 -0.35463464531E+03  0.24287813753E+03  0.12969291453E+03  0.47430731224E+03  0.15294330000E+03 0.  0.
<mgrwt>
<rscale>  0 0.68638220E+03</rscale>
<asrwt>0</asrwt>
<pdfrwt beam="1">  1        2 0.24971600E+00 0.78648950E+03</pdfrwt>
<pdfrwt beam="2">  1       -2 0.62859559E-01 0.78648950E+03</pdfrwt>
<totfact> 0.25932041E+01</totfact>
</mgrwt>
</event>
<event>
 4    2  0.3171963E-007  0.9568970E+03  0.7818608E-02  0.9440259E-01
         -2   -1    0    0    0  501 -0.00000000000E+00  0.00000000000E+00  0.53744880803E+03  0.53744880804E+03  0.25500000000E-02 0.  1.
          2   -1    0    0  501    0  0.00000000000E+00 -0.00000000000E+00 -0.15860017806E+04  0.15860017806E+04  0.25500000000E-02 0. -1.
    8880023    1    1    2    0    0 -0.67287171814E+03 -0.17054412329E+03 -0.10391147395E+04  0.14125902786E+04  0.65864270000E+03 0.  0.
    8880022    1    1    2    0    0  0.67287171814E+03  0.17054412329E+03 -0.94382330029E+01  0.71086030999E+03  0.15294330000E+03 0.  0.
<mgrwt>
<rscale>  0 0.88835262E+03</rscale>
<asrwt>0</asrwt>
<pdfrwt beam="1">  1        2 0.24400027E+00 0.95689699E+03</pdfrwt>
<pdfrwt beam="2">  1       -2 0.82684432E-01 0.95689699E+03</pdfrwt>
<totfact> 0.14594679E+01</totfact>
</mgrwt>
</event>
<event>
 4    2  0.3171963E-007  0.8870590E+03  0.7818608E-02  0.9547134E-01
          2   -1    0    0  501    0  0.00000000000E+00  0.00000000000E+00  0.59951863929E+03  0.59951863930E+03  0.25500000000E-02 0. -1.
         -2   -1    0    0    0  501 -0.00000000000E+00 -0.00000000000E+00 -0.18860876111E+04  0.18860876111E+04  0.25500000000E-02 0.  1.
    8880023    1    1    2    0    0 -0.32761135909E+02 -0.59328753349E+03  0.17169510895E+03  0.90352244362E+03  0.65864270000E+03 0.  0.
    8880022    1    1    2    0    0  0.32761135909E+02  0.59328753349E+03 -0.14582640807E+04  0.15820838068E+04  0.15294330000E+03 0.  0.
<mgrwt>
<rscale>  0 0.80896271E+03</rscale>
<asrwt>0</asrwt>
<pdfrwt beam="1">  1        2 0.92233638E-01 0.88705896E+03</pdfrwt>
<pdfrwt beam="2">  1       -2 0.29016732E+00 0.88705896E+03</pdfrwt>
<totfact> 0.18466497E+00</totfact>
</mgrwt>
</event>
<event>
 4    2  0.3171963E-007  0.6758242E+03  0.7818608E-02  0.1011792E+00
          2   -1    0    0  501    0  0.00000000000E+00  0.00000000000E+00  0.12602106276E+04  0.12602106276E+04  0.25500000000E-02 0. -1.
         -2   -1    0    0    0  501 -0.00000000000E+00 -0.00000000000E+00 -0.66232887651E+03  0.66232887652E+03  0.25500000000E-02 0.  1.
    8880023    1    1    2    0    0 -0.11367882706E+03 -0.10002662694E+03  0.11478118237E+04  0.13319948914E+04  0.65864270000E+03 0. -1.
    8880022    1    1    2    0    0  0.11367882706E+03  0.10002662694E+03 -0.54993007263E+03  0.59054461272E+03  0.15294330000E+03 0.  0.
<mgrwt>
<rscale>  0 0.50768721E+03</rscale>
<asrwt>0</asrwt>
<pdfrwt beam="1">  1        2 0.19387855E+00 0.67582424E+03</pdfrwt>
<pdfrwt beam="2">  1       -2 0.10189675E+00 0.67582424E+03</pdfrwt>
<totfact> 0.14192030E+01</totfact>
</mgrwt>
</event>
<event>
 4    2  0.3171963E-007  0.1214713E+04  0.7818608E-02  0.9142952E-01
          2   -1    0    0  501    0  0.00000000000E+00  0.00000000000E+00  0.14909551744E+04  0.14909551744E+04  0.25500000000E-02 0. -1.
         -2   -1    0    0    0  501 -0.00000000000E+00 -0.00000000000E+00 -0.92608970988E+03  0.92608970988E+03  0.25500000000E-02 0.  1.
    8880023    1    1    2    0    0  0.75841915441E+02  0.10178234142E+04 -0.49972007113E+02  0.12157400653E+04  0.65864270000E+03 0.  0.
    8880022    1    1    2    0    0 -0.75841915441E+02 -0.10178234142E+04  0.61483747167E+03  0.12013048190E+04  0.15294330000E+03 0.  0.
<mgrwt>
<rscale>  0 0.11662170E+04</rscale>
<asrwt>0</asrwt>
<pdfrwt beam="1">  1        2 0.22937772E+00 0.12147126E+04</pdfrwt>
<pdfrwt beam="2">  1       -2 0.14247534E+00 0.12147126E+04</pdfrwt>
<totfact> 0.42807348E+00</totfact>
</mgrwt>
</event>
<event>
 4    2  0.3171963E-007  0.1120903E+04  0.7818608E-02  0.9238133E-01
         -2   -1    0    0    0  501 -0.00000000000E+00  0.00000000000E+00  0.71059026674E+03  0.71059026674E+03  0.25500000000E-02 0.  1.
          2   -1    0    0  501    0  0.00000000000E+00 -0.00000000000E+00 -0.20912482350E+04  0.20912482350E+04  0.25500000000E-02 0. -1.
    8880023    1    1    2    0    0 -0.46295230745E+02  0.90579751403E+03 -0.15019328099E+04  0.18740930490E+04  0.65864270000E+03 0. -1.
    8880022    1    1    2    0    0  0.46295230745E+02 -0.90579751403E+03  0.12127484161E+03  0.92774545272E+03  0.15294330000E+03 0.  0.
<mgrwt>
<rscale>  0 0.10668355E+04</rscale>
<asrwt>0</asrwt>
<pdfrwt beam="1">  1        2 0.32173050E+00 0.11209026E+04</pdfrwt>
<pdfrwt beam="2">  1       -2 0.10932158E+00 0.11209026E+04</pdfrwt>
<totfact> 0.39105780E+00</totfact>
</mgrwt>
</event>
<event>
 4    2  0.3171963E-007  0.6639891E+03  0.7818608E-02  0.1020397E+00
          2   -1    0    0  501    0  0.00000000000E+00  0.00000000000E+00  0.13397447509E+04  0.13397447509E+04  0.25500000000E-02 0. -1.
         -2   -1    0    0    0  501 -0.00000000000E+00 -0.00000000000E+00 -0.71644820052E+03  0.71644820053E+03  0.25500000000E-02 0.  1.
    8880023    1    1    2    0    0  0.82373156287E+02  0.16911647267E+02  0.12447071165E+04  0.14107364576E+04  0.65864270000E+03 0. -1.
    8880022    1    1    2    0    0 -0.82373156287E+02 -0.16911647267E+02 -0.62141056613E+03  0.64545649381E+03  0.15294330000E+03 0.  0.
<mgrwt>
<rscale>  0 0.47543625E+03</rscale>
<asrwt>0</asrwt>
<pdfrwt beam="1">  1        2 0.20611457E+00 0.66398912E+03</pdfrwt>
<pdfrwt beam="2">  1       -2 0.11022280E+00 0.66398912E+03</pdfrwt>
<totfact> 0.10597510E+01</totfact>
</mgrwt>
</event>
<event>
 4    2  0.3171963E-007  0.7494755E+03  0.7818608E-02  0.9833158E-01
         -2   -1    0    0    0  501 -0.00000000000E+00  0.00000000000E+00  0.13074424085E+03  0.13074424088E+03  0.25500000000E-02 0.  1.
          2   -1    0    0  501    0  0.00000000000E+00 -0.00000000000E+00 -0.33735496487E+04  0.33735496487E+04  0.25500000000E-02 0. -1.
    8880023    1    1    2    0    0  0.27459417117E+03 -0.22913163745E+03 -0.28673493453E+04  0.29636811132E+04  0.65864270000E+03 0.  0.
    8880022    1    1    2    0    0 -0.27459417117E+03  0.22913163745E+03 -0.37545606250E+03  0.54061277640E+03  0.15294330000E+03 0.  0.
<mgrwt>
<rscale>  0 0.63613034E+03</rscale>
<asrwt>0</asrwt>
<pdfrwt beam="1">  1        2 0.51900757E+00 0.74947546E+03</pdfrwt>
<pdfrwt beam="2">  1       -2 0.20114501E-01 0.74947546E+03</pdfrwt>
<totfact> 0.22498147E+01</totfact>
</mgrwt>
</event>
<event>
 4    2  0.3171963E-007  0.6897567E+03  0.7818608E-02  0.1004268E+00
         -2   -1    0    0    0  501 -0.00000000000E+00  0.00000000000E+00  0.21175969723E+03  0.21175969725E+03  0.25500000000E-02 0.  1.
          2   -1    0    0  501    0  0.00000000000E+00 -0.00000000000E+00 -0.15538570166E+04  0.15538570166E+04  0.25500000000E-02 0. -1.
    8880023    1    1    2    0    0 -0.20481374429E+03  0.23323333217E+01 -0.41735857910E+03  0.80619631569E+03  0.65864270000E+03 0.  1.
    8880022    1    1    2    0    0  0.20481374429E+03 -0.23323333217E+01 -0.92473874026E+03  0.95942039814E+03  0.15294330000E+03 0.  0.
<mgrwt>
<rscale>  0 0.53817575E+03</rscale>
<asrwt>0</asrwt>
<pdfrwt beam="1">  1        2 0.23905492E+00 0.68975671E+03</pdfrwt>
<pdfrwt beam="2">  1       -2 0.32578416E-01 0.68975671E+03</pdfrwt>
<totfact> 0.10647347E+02</totfact>
</mgrwt>
</event>
<event>
 4    2  0.3171963E-007  0.7079392E+03  0.7818608E-02  0.9965735E-01
          2   -1    0    0  501    0  0.00000000000E+00  0.00000000000E+00  0.59754765813E+03  0.59754765813E+03  0.25500000000E-02 0. -1.
         -2   -1    0    0    0  501 -0.00000000000E+00 -0.00000000000E+00 -0.72353882200E+03  0.72353882200E+03  0.25500000000E-02 0.  1.
    8880023    1    1    2    0    0  0.36349907754E+02  0.25699491435E+03  0.32480198449E+03  0.77889295618E+03  0.65864270000E+03 0. -1.
    8880022    1    1    2    0    0 -0.36349907754E+02 -0.25699491435E+03 -0.45079314836E+03  0.54219352396E+03  0.15294330000E+03 0.  0.
<mgrwt>
<rscale>  0 0.57178584E+03</rscale>
<asrwt>0</asrwt>
<pdfrwt beam="1">  1        2 0.91930409E-01 0.70793920E+03</pdfrwt>
<pdfrwt beam="2">  1       -2 0.11131366E+00 0.70793920E+03</pdfrwt>
<totfact> 0.32333405E+01</totfact>
</mgrwt>
</event>
<event>
 4    2  0.3171963E-007  0.9177668E+03  0.7818608E-02  0.9498092E-01
          2   -1    0    0  501    0  0.00000000000E+00  0.00000000000E+00  0.49176905652E+03  0.49176905653E+03  0.25500000000E-02 0. -1.
         -2   -1    0    0    0  501 -0.00000000000E+00 -0.00000000000E+00 -0.14007352512E+04  0.14007352512E+04  0.25500000000E-02 0.  1.
    8880023    1    1    2    0    0  0.62867517695E+03 -0.11512221229E+03 -0.22699153234E+03  0.94542105111E+03  0.65864270000E+03 0.  0.
    8880022    1    1    2    0    0 -0.62867517695E+03  0.11512221229E+03 -0.68197466232E+03  0.94708325660E+03  0.15294330000E+03 0.  0.
<mgrwt>
<rscale>  0 0.84424652E+03</rscale>
<asrwt>0</asrwt>
<pdfrwt beam="1">  1        2 0.75656779E-01 0.91776675E+03</pdfrwt>
<pdfrwt beam="2">  1       -2 0.21549773E+00 0.91776675E+03</pdfrwt>
<totfact> 0.66549365E+00</totfact>
</mgrwt>
</event>
<event>
 4    2  0.3171963E-007  0.6682652E+03  0.7818608E-02  0.1016938E+00
          2   -1    0    0  501    0  0.00000000000E+00  0.00000000000E+00  0.50535933789E+03  0.50535933790E+03  0.25500000000E-02 0. -1.
         -2   -1    0    0    0  501 -0.00000000000E+00 -0.00000000000E+00 -0.27135589632E+04  0.27135589632E+04  0.25500000000E-02 0.  1.
    8880023    1    1    2    0    0  0.32655876845E+02 -0.10817462070E+03  0.27921124220E+03  0.72424945902E+03  0.65864270000E+03 0. -1.
    8880022    1    1    2    0    0 -0.32655876845E+02  0.10817462070E+03 -0.24874108675E+04  0.24946688421E+04  0.15294330000E+03 0.  0.
<mgrwt>
<rscale>  0 0.48807874E+03</rscale>
<asrwt>0</asrwt>
<pdfrwt beam="1">  1        2 0.77747592E-01 0.66826519E+03</pdfrwt>
<pdfrwt beam="2">  1       -2 0.41747060E+00 0.66826519E+03</pdfrwt>
<totfact> 0.37589561E-01</totfact>
</mgrwt>
</event>
<event>
 4    2  0.3171963E-007  0.1039734E+04  0.7818608E-02  0.9331326E-01
         -2   -1    0    0    0  501 -0.00000000000E+00  0.00000000000E+00  0.11345046082E+04  0.11345046082E+04  0.25500000000E-02 0.  1.
          2   -1    0    0  501    0  0.00000000000E+00 -0.00000000000E+00 -0.10750929520E+04  0.10750929520E+04  0.25500000000E-02 0. -1.
    8880023    1    1    2    0    0 -0.59562414108E+03  0.54080307057E+03 -0.56172058857E+03  0.11817682956E+04  0.65864270000E+03 0.  0.
    8880022    1    1    2    0    0  0.59562414108E+03 -0.54080307057E+03  0.62113224477E+03  0.10278292646E+04  0.15294330000E+03 0.  0.
<mgrwt>
<rscale>  0 0.97949404E+03</rscale>
<asrwt>0</asrwt>
<pdfrwt beam="1">  1        2 0.16539892E+00 0.10397338E+04</pdfrwt>
<pdfrwt beam="2">  1       -2 0.17453917E+00 0.10397338E+04</pdfrwt>
<totfact> 0.44113141E+00</totfact>
</mgrwt>
</event>
<event>
 4    2  0.3171963E-007  0.6758429E+03  0.7818608E-02  0.1011780E+00
          2   -1    0    0  501    0  0.00000000000E+00  0.00000000000E+00  0.93232240457E+03  0.93232240458E+03  0.25500000000E-02 0. -1.
         -2   -1    0    0    0  501 -0.00000000000E+00 -0.00000000000E+00 -0.62239595316E+03  0.62239595317E+03  0.25500000000E-02 0.  1.
    8880023    1    1    2    0    0  0.14239146458E+03 -0.51750844645E+02  0.78337665554E+03  0.10346219937E+04  0.65864270000E+03 0. -1.
    8880022    1    1    2    0    0 -0.14239146458E+03  0.51750844645E+02 -0.47345020413E+03  0.52009636406E+03  0.15294330000E+03 0.  0.
<mgrwt>
<rscale>  0 0.50773237E+03</rscale>
<asrwt>0</asrwt>
<pdfrwt beam="1">  1        2 0.14343422E+00 0.67584294E+03</pdfrwt>
<pdfrwt beam="2">  1       -2 0.95753224E-01 0.67584294E+03</pdfrwt>
<totfact> 0.26113083E+01</totfact>
</mgrwt>
</event>
<event>
 4    2  0.3171963E-007  0.7021421E+03  0.7818608E-02  0.9988429E-01
         -2   -1    0    0    0  501 -0.00000000000E+00  0.00000000000E+00  0.17011518825E+03  0.17011518827E+03  0.25500000000E-02 0.  1.
          2   -1    0    0  501    0  0.00000000000E+00 -0.00000000000E+00 -0.25593729487E+04  0.25593729487E+04  0.25500000000E-02 0. -1.
    8880023    1    1    2    0    0  0.72104138102E+01  0.24318978525E+03 -0.23333768239E+04  0.24367295439E+04  0.65864270000E+03 0. -1.
    8880022    1    1    2    0    0 -0.72104138102E+01 -0.24318978525E+03 -0.55880936566E+02  0.29275859305E+03  0.15294330000E+03 0.  1.
<mgrwt>
<rscale>  0 0.56160547E+03</rscale>
<asrwt>0</asrwt>
<pdfrwt beam="1">  1        2 0.39374966E+00 0.70214206E+03</pdfrwt>
<pdfrwt beam="2">  1       -2 0.26171569E-01 0.70214206E+03</pdfrwt>
<totfact> 0.44516265E+01</totfact>
</mgrwt>
</event>
<event>
 4    2  0.3171963E-007  0.1018946E+04  0.7818608E-02  0.9357179E-01
          2   -1    0    0  501    0  0.00000000000E+00  0.00000000000E+00  0.19142034557E+04  0.19142034557E+04  0.25500000000E-02 0. -1.
         -2   -1    0    0    0  501 -0.00000000000E+00 -0.00000000000E+00 -0.56374321254E+03  0.56374321254E+03  0.25500000000E-02 0.  1.
    8880023    1    1    2    0    0 -0.76467027077E+03  0.14043081097E+03  0.13426932530E+04  0.16855494100E+04  0.65864270000E+03 0.  1.
    8880022    1    1    2    0    0  0.76467027077E+03 -0.14043081097E+03  0.77669901348E+01  0.79239725821E+03  0.15294330000E+03 0.  0.
<mgrwt>
<rscale>  0 0.95685033E+03</rscale>
<asrwt>0</asrwt>
<pdfrwt beam="1">  1        2 0.29449284E+00 0.10189463E+04</pdfrwt>
<pdfrwt beam="2">  1       -2 0.86729725E-01 0.10189463E+04</pdfrwt>
<totfact> 0.85667713E+00</totfact>
</mgrwt>
</event>
<event>
 4    2  0.3171963E-007  0.6792366E+03  0.7818608E-02  0.1009759E+00
          2   -1    0    0  501    0  0.00000000000E+00  0.00000000000E+00  0.98283272281E+03  0.98283272281E+03  0.25500000000E-02 0. -1.
         -2   -1    0    0    0  501 -0.00000000000E+00 -0.00000000000E+00 -0.57509196097E+03  0.57509196098E+03  0.25500000000E-02 0.  1.
    8880023    1    1    2    0    0 -0.85742329196E+02 -0.14212825799E+03  0.83399685080E+03  0.10755989690E+04  0.65864270000E+03 0. -1.
    8880022    1    1    2    0    0  0.85742329196E+02  0.14212825799E+03 -0.42625608897E+03  0.48232571477E+03  0.15294330000E+03 0.  0.
<mgrwt>
<rscale>  0 0.51570612E+03</rscale>
<asrwt>0</asrwt>
<pdfrwt beam="1">  1        2 0.15120503E+00 0.67923663E+03</pdfrwt>
<pdfrwt beam="2">  1       -2 0.88475687E-01 0.67923663E+03</pdfrwt>
<totfact> 0.29067417E+01</totfact>
</mgrwt>
</event>
<event>
 4    2  0.3171963E-007  0.9590399E+03  0.7818608E-02  0.9437225E-01
          2   -1    0    0  501    0  0.00000000000E+00  0.00000000000E+00  0.23481069792E+04  0.23481069792E+04  0.25500000000E-02 0. -1.
         -2   -1    0    0    0  501 -0.00000000000E+00 -0.00000000000E+00 -0.89248292994E+03  0.89248292995E+03  0.25500000000E-02 0.  1.
    8880023    1    1    2    0    0  0.29372411774E+03 -0.63219728738E+03  0.20812045271E+04  0.22915430953E+04  0.65864270000E+03 0.  0.
    8880022    1    1    2    0    0 -0.29372411774E+03  0.63219728738E+03 -0.62558047790E+03  0.94904681384E+03  0.15294330000E+03 0.  0.
<mgrwt>
<rscale>  0 0.89074492E+03</rscale>
<asrwt>0</asrwt>
<pdfrwt beam="1">  1        2 0.36124722E+00 0.95903987E+03</pdfrwt>
<pdfrwt beam="2">  1       -2 0.13730507E+00 0.95903987E+03</pdfrwt>
<totfact> 0.16233335E+00</totfact>
</mgrwt>
</event>
<event>
 4    2  0.3171963E-007  0.6606984E+03  0.7818608E-02  0.1023452E+00
          2   -1    0    0  501    0  0.00000000000E+00  0.00000000000E+00  0.26042481778E+04  0.26042481778E+04  0.25500000000E-02 0. -1.
         -2   -1    0    0    0  501 -0.00000000000E+00 -0.00000000000E+00 -0.12026314970E+03  0.12026314973E+03  0.25500000000E-02 0.  1.
    8880023    1    1    2    0    0 -0.44208739213E+01  0.51890118654E+02  0.24761225924E+04  0.25627534855E+04  0.65864270000E+03 0. -1.
    8880022    1    1    2    0    0  0.44208739213E+01 -0.51890118654E+02  0.78624356659E+01  0.16175784200E+03  0.15294330000E+03 0.  0.
<mgrwt>
<rscale>  0 0.46461193E+03</rscale>
<asrwt>0</asrwt>
<pdfrwt beam="1">  1        2 0.40065352E+00 0.66069837E+03</pdfrwt>
<pdfrwt beam="2">  1       -2 0.18502025E-01 0.66069837E+03</pdfrwt>
<totfact> 0.78010001E+01</totfact>
</mgrwt>
</event>
<event>
 4    2  0.3171963E-007  0.7566030E+03  0.7818608E-02  0.9813983E-01
         -2   -1    0    0    0  501 -0.00000000000E+00  0.00000000000E+00  0.51031839476E+03  0.51031839476E+03  0.25500000000E-02 0.  1.
          2   -1    0    0  501    0  0.00000000000E+00 -0.00000000000E+00 -0.13976180577E+04  0.13976180577E+04  0.25500000000E-02 0. -1.
    8880023    1    1    2    0    0 -0.25151446137E+03 -0.27455123571E+03 -0.11859315723E+04  0.14067273388E+04  0.65864270000E+03 0.  0.
    8880022    1    1    2    0    0  0.25151446137E+03  0.27455123571E+03  0.29863190937E+03  0.50120911366E+03  0.15294330000E+03 0.  1.
<mgrwt>
<rscale>  0 0.64617526E+03</rscale>
<asrwt>0</asrwt>
<pdfrwt beam="1">  1        2 0.21501816E+00 0.75660301E+03</pdfrwt>
<pdfrwt beam="2">  1       -2 0.78510523E-01 0.75660301E+03</pdfrwt>
<totfact> 0.21377404E+01</totfact>
</mgrwt>
</event>
<event>
 4    2  0.3171963E-007  0.8222546E+03  0.7818608E-02  0.9664595E-01
         -2   -1    0    0    0  501 -0.00000000000E+00  0.00000000000E+00  0.36051748411E+03  0.36051748412E+03  0.25500000000E-02 0.  1.
          2   -1    0    0  501    0  0.00000000000E+00 -0.00000000000E+00 -0.14953508421E+04  0.14953508421E+04  0.25500000000E-02 0. -1.
    8880023    1    1    2    0    0 -0.41776833524E+03  0.26031148287E+03 -0.30106829590E+03  0.87563963770E+03  0.65864270000E+03 0.  0.
    8880022    1    1    2    0    0  0.41776833524E+03 -0.26031148287E+03 -0.83376506213E+03  0.98022868857E+03  0.15294330000E+03 0.  0.
<mgrwt>
<rscale>  0 0.73164505E+03</rscale>
<asrwt>0</asrwt>
<pdfrwt beam="1">  1        2 0.23005397E+00 0.82225462E+03</pdfrwt>
<pdfrwt beam="2">  1       -2 0.55464229E-01 0.82225462E+03</pdfrwt>
<totfact> 0.39592504E+01</totfact>
</mgrwt>
</event>
<event>
 4    2  0.3171963E-007  0.6964546E+03  0.7818608E-02  0.1001224E+00
          2   -1    0    0  501    0  0.00000000000E+00  0.00000000000E+00  0.17538420773E+04  0.17538420773E+04  0.25500000000E-02 0. -1.
         -2   -1    0    0    0  501 -0.00000000000E+00 -0.00000000000E+00 -0.32318962429E+03  0.32318962430E+03  0.25500000000E-02 0.  1.
    8880023    1    1    2    0    0 -0.12928150319E+03 -0.18580932255E+03  0.16073043635E+04  0.17517066919E+04  0.65864270000E+03 0. -1.
    8880022    1    1    2    0    0  0.12928150319E+03  0.18580932255E+03 -0.17665191049E+03  0.32532500966E+03  0.15294330000E+03 0.  0.
<mgrwt>
<rscale>  0 0.55116817E+03</rscale>
<asrwt>0</asrwt>
<pdfrwt beam="1">  1        2 0.26982186E+00 0.69645461E+03</pdfrwt>
<pdfrwt beam="2">  1       -2 0.49721481E-01 0.69645461E+03</pdfrwt>
<totfact> 0.36225494E+01</totfact>
</mgrwt>
</event>
<event>
 4    2  0.3171963E-007  0.7049376E+03  0.7818608E-02  0.9977303E-01
          2   -1    0    0  501    0  0.00000000000E+00  0.00000000000E+00  0.17916248163E+04  0.17916248163E+04  0.25500000000E-02 0. -1.
         -2   -1    0    0    0  501 -0.00000000000E+00 -0.00000000000E+00 -0.23898001714E+03  0.23898001716E+03  0.25500000000E-02 0.  1.
    8880023    1    1    2    0    0 -0.24942562499E+03  0.30227026725E+02  0.15849968739E+04  0.17346907829E+04  0.65864270000E+03 0. -1.
    8880022    1    1    2    0    0  0.24942562499E+03 -0.30227026725E+02 -0.32352074825E+02  0.29591405054E+03  0.15294330000E+03 0.  0.
<mgrwt>
<rscale>  0 0.56656744E+03</rscale>
<asrwt>0</asrwt>
<pdfrwt beam="1">  1        2 0.27563459E+00 0.70493760E+03</pdfrwt>
<pdfrwt beam="2">  1       -2 0.36766156E-01 0.70493760E+03</pdfrwt>
<totfact> 0.62616224E+01</totfact>
</mgrwt>
</event>
<event>
 4    2  0.3171963E-007  0.8404394E+03  0.7818608E-02  0.9629352E-01
          2   -1    0    0  501    0  0.00000000000E+00  0.00000000000E+00  0.47830497898E+03  0.47830497898E+03  0.25500000000E-02 0. -1.
         -2   -1    0    0    0  501 -0.00000000000E+00 -0.00000000000E+00 -0.16238608808E+04  0.16238608808E+04  0.25500000000E-02 0.  1.
    8880023    1    1    2    0    0 -0.25149926125E+03 -0.45746731844E+03 -0.71548923331E+01  0.84046988322E+03  0.65864270000E+03 0. -1.
    8880022    1    1    2    0    0  0.25149926125E+03  0.45746731844E+03 -0.11384010095E+04  0.12616959765E+04  0.15294330000E+03 0.  0.
<mgrwt>
<rscale>  0 0.75383549E+03</rscale>
<asrwt>0</asrwt>
<pdfrwt beam="1">  1        2 0.73585382E-01 0.84043943E+03</pdfrwt>
<pdfrwt beam="2">  1       -2 0.24982475E+00 0.84043943E+03</pdfrwt>
<totfact> 0.42496498E+00</totfact>
</mgrwt>
</event>
<event>
 4    2  0.3171963E-007  0.1012245E+04  0.7818608E-02  0.9365710E-01
         -2   -1    0    0    0  501 -0.00000000000E+00  0.00000000000E+00  0.83731351217E+03  0.83731351218E+03  0.25500000000E-02 0.  1.
          2   -1    0    0  501    0  0.00000000000E+00 -0.00000000000E+00 -0.28055332633E+04  0.28055332633E+04  0.25500000000E-02 0. -1.
    8880023    1    1    2    0    0 -0.67607493469E+03  0.36572097400E+03 -0.24990498572E+04  0.26962732693E+04  0.65864270000E+03 0. -1.
    8880022    1    1    2    0    0  0.67607493469E+03 -0.36572097400E+03  0.53083010599E+03  0.94657350617E+03  0.15294330000E+03 0.  0.
<mgrwt>
<rscale>  0 0.94952128E+03</rscale>
<asrwt>0</asrwt>
<pdfrwt beam="1">  1        2 0.43162050E+00 0.10122447E+04</pdfrwt>
<pdfrwt beam="2">  1       -2 0.12881746E+00 0.10122447E+04</pdfrwt>
<totfact> 0.10310635E+00</totfact>
</mgrwt>
</event>
<event>
 4    2  0.3171963E-007  0.9757254E+03  0.7818608E-02  0.9414029E-01
         -2   -1    0    0    0  501 -0.00000000000E+00  0.00000000000E+00  0.73835384519E+03  0.73835384520E+03  0.25500000000E-02 0.  1.
          2   -1    0    0  501    0  0.00000000000E+00 -0.00000000000E+00 -0.14723856961E+04  0.14723856961E+04  0.25500000000E-02 0. -1.
    8880023    1    1    2    0    0 -0.38671318015E+03  0.60719250743E+03 -0.10288393941E+04  0.14179388315E+04  0.65864270000E+03 0.  0.
    8880022    1    1    2    0    0  0.38671318015E+03 -0.60719250743E+03  0.29480754325E+03  0.79280070973E+03  0.15294330000E+03 0.  0.
<mgrwt>
<rscale>  0 0.90930104E+03</rscale>
<asrwt>0</asrwt>
<pdfrwt beam="1">  1        2 0.22652088E+00 0.97572539E+03</pdfrwt>
<pdfrwt beam="2">  1       -2 0.11359290E+00 0.97572539E+03</pdfrwt>
<totfact> 0.79705296E+00</totfact>
</mgrwt>
</event>
<event>
 4    2  0.3171963E-007  0.6761353E+03  0.7818608E-02  0.1011600E+00
         -2   -1    0    0    0  501 -0.00000000000E+00  0.00000000000E+00  0.18257456960E+03  0.18257456962E+03  0.25500000000E-02 0.  1.
          2   -1    0    0  501    0  0.00000000000E+00 -0.00000000000E+00 -0.26573843854E+04  0.26573843854E+04  0.25500000000E-02 0. -1.
    8880023    1    1    2    0    0  0.15272296998E+03  0.49425657137E+01 -0.25283808583E+04  0.26172253830E+04  0.65864270000E+03 0.  0.
    8880022    1    1    2    0    0 -0.15272296998E+03 -0.49425657137E+01  0.53571042462E+02  0.22273357206E+03  0.15294330000E+03 0.  1.
<mgrwt>
<rscale>  0 0.50843653E+03</rscale>
<asrwt>0</asrwt>
<pdfrwt beam="1">  1        2 0.40882834E+00 0.67613530E+03</pdfrwt>
<pdfrwt beam="2">  1       -2 0.28088397E-01 0.67613530E+03</pdfrwt>
<totfact> 0.34521821E+01</totfact>
</mgrwt>
</event>
<event>
 4    2  0.3171963E-007  0.1210699E+04  0.7818608E-02  0.9146792E-01
          2   -1    0    0  501    0  0.00000000000E+00  0.00000000000E+00  0.18373243845E+04  0.18373243845E+04  0.25500000000E-02 0. -1.
         -2   -1    0    0    0  501 -0.00000000000E+00 -0.00000000000E+00 -0.86788874003E+03  0.86788874003E+03  0.25500000000E-02 0.  1.
    8880023    1    1    2    0    0  0.68938647940E+03 -0.74614247549E+03  0.11410460747E+04  0.16636642277E+04  0.65864270000E+03 0.  0.
    8880022    1    1    2    0    0 -0.68938647940E+03  0.74614247549E+03 -0.17161043022E+03  0.10415488968E+04  0.15294330000E+03 0.  0.
<mgrwt>
<rscale>  0 0.11619916E+04</rscale>
<asrwt>0</asrwt>
<pdfrwt beam="1">  1        2 0.28266529E+00 0.12106992E+04</pdfrwt>
<pdfrwt beam="2">  1       -2 0.13352134E+00 0.12106992E+04</pdfrwt>
<totfact> 0.32479132E+00</totfact>
</mgrwt>
</event>
<event>
 4    2  0.3171963E-007  0.7810053E+03  0.7818608E-02  0.9753481E-01
          2   -1    0    0  501    0  0.00000000000E+00  0.00000000000E+00  0.23464340797E+04  0.23464340797E+04  0.25500000000E-02 0. -1.
         -2   -1    0    0    0  501 -0.00000000000E+00 -0.00000000000E+00 -0.21837807540E+03  0.21837807541E+03  0.25500000000E-02 0.  1.
    8880023    1    1    2    0    0  0.38386134010E+03 -0.16973370786E+03  0.19185236694E+04  0.20714010563E+04  0.65864270000E+03 0. -1.
    8880022    1    1    2    0    0 -0.38386134010E+03  0.16973370786E+03  0.20953233495E+03  0.49341109879E+03  0.15294330000E+03 0.  0.
<mgrwt>
<rscale>  0 0.67919916E+03</rscale>
<asrwt>0</asrwt>
<pdfrwt beam="1">  1        2 0.36098986E+00 0.78100529E+03</pdfrwt>
<pdfrwt beam="2">  1       -2 0.33596627E-01 0.78100529E+03</pdfrwt>
<totfact> 0.36552296E+01</totfact>
</mgrwt>
</event>
<event>
 4    2  0.3171963E-007  0.6811908E+03  0.7818608E-02  0.1008658E+00
          2   -1    0    0  501    0  0.00000000000E+00  0.00000000000E+00  0.25962471598E+04  0.25962471598E+04  0.25500000000E-02 0. -1.
         -2   -1    0    0    0  501 -0.00000000000E+00 -0.00000000000E+00 -0.11435219565E+03  0.11435219568E+03  0.25500000000E-02 0.  1.
    8880023    1    1    2    0    0 -0.16077011629E+03  0.66058332215E+02  0.23443309337E+04  0.24412923763E+04  0.65864270000E+03 0.  0.
    8880022    1    1    2    0    0  0.16077011629E+03 -0.66058332215E+02  0.13756403042E+03  0.26930697917E+03  0.15294330000E+03 0.  0.
<mgrwt>
<rscale>  0 0.52011527E+03</rscale>
<asrwt>0</asrwt>
<pdfrwt beam="1">  1        2 0.39942265E+00 0.68119082E+03</pdfrwt>
<pdfrwt beam="2">  1       -2 0.17592645E-01 0.68119082E+03</pdfrwt>
<totfact> 0.85745558E+01</totfact>
</mgrwt>
</event>
<event>
 4    2  0.3171963E-007  0.9443222E+03  0.7818608E-02  0.9458331E-01
         -2   -1    0    0    0  501 -0.00000000000E+00  0.00000000000E+00  0.39375078192E+03  0.39375078192E+03  0.25500000000E-02 0.  1.
          2   -1    0    0  501    0  0.00000000000E+00 -0.00000000000E+00 -0.24631783291E+04  0.24631783291E+04  0.25500000000E-02 0. -1.
    8880023    1    1    2    0    0 -0.55538249010E+03  0.38663234998E+03 -0.19309162374E+04  0.21494608641E+04  0.65864270000E+03 0.  1.
    8880022    1    1    2    0    0  0.55538249010E+03 -0.38663234998E+03 -0.13851130975E+03  0.70746824685E+03  0.15294330000E+03 0.  0.
<mgrwt>
<rscale>  0 0.87426898E+03</rscale>
<asrwt>0</asrwt>
<pdfrwt beam="1">  1        2 0.37895050E+00 0.94432224E+03</pdfrwt>
<pdfrwt beam="2">  1       -2 0.60577045E-01 0.94432224E+03</pdfrwt>
<totfact> 0.94479902E+00</totfact>
</mgrwt>
</event>
<event>
 4    2  0.3171963E-007  0.7963937E+03  0.7818608E-02  0.9718649E-01
          2   -1    0    0  501    0  0.00000000000E+00  0.00000000000E+00  0.19548704935E+04  0.19548704935E+04  0.25500000000E-02 0. -1.
         -2   -1    0    0    0  501 -0.00000000000E+00 -0.00000000000E+00 -0.40501656999E+03  0.40501657000E+03  0.25500000000E-02 0.  1.
    8880023    1    1    2    0    0 -0.43928715135E+03  0.86368091668E+02  0.16884999186E+04  0.18668890781E+04  0.65864270000E+03 0.  0.
    8880022    1    1    2    0    0  0.43928715135E+03 -0.86368091668E+02 -0.13864599512E+03  0.49299798537E+03  0.15294330000E+03 0.  0.
<mgrwt>
<rscale>  0 0.69917236E+03</rscale>
<asrwt>0</asrwt>
<pdfrwt beam="1">  1        2 0.30074929E+00 0.79639366E+03</pdfrwt>
<pdfrwt beam="2">  1       -2 0.62310244E-01 0.79639366E+03</pdfrwt>
<totfact> 0.17374673E+01</totfact>
</mgrwt>
</event>
<event>
 4    2  0.3171963E-007  0.9407093E+03  0.7818608E-02  0.9463609E-01
         -2   -1    0    0    0  501 -0.00000000000E+00  0.00000000000E+00  0.13495100393E+04  0.13495100393E+04  0.25500000000E-02 0.  1.
          2   -1    0    0  501    0  0.00000000000E+00 -0.00000000000E+00 -0.58656906851E+03  0.58656906852E+03  0.25500000000E-02 0. -1.
    8880023    1    1    2    0    0  0.61351584124E+03  0.27335356664E+03  0.45996445814E+02  0.94183318010E+03  0.65864270000E+03 0.  1.
    8880022    1    1    2    0    0 -0.61351584124E+03 -0.27335356664E+03  0.71694452494E+03  0.99424592768E+03  0.15294330000E+03 0.  0.
<mgrwt>
<rscale>  0 0.87020765E+03</rscale>
<asrwt>0</asrwt>
<pdfrwt beam="1">  1        2 0.90241397E-01 0.94070934E+03</pdfrwt>
<pdfrwt beam="2">  1       -2 0.20761692E+00 0.94070934E+03</pdfrwt>
<totfact> 0.60500293E+00</totfact>
</mgrwt>
</event>
<event>
 4    2  0.3171963E-007  0.9385887E+03  0.7818608E-02  0.9466726E-01
         -2   -1    0    0    0  501 -0.00000000000E+00  0.00000000000E+00  0.41000878526E+03  0.41000878527E+03  0.25500000000E-02 0.  1.
          2   -1    0    0  501    0  0.00000000000E+00 -0.00000000000E+00 -0.21533507609E+04  0.21533507609E+04  0.25500000000E-02 0. -1.
    8880023    1    1    2    0    0  0.49458561291E+03  0.45002631381E+03 -0.33452538280E+03  0.99642162242E+03  0.65864270000E+03 0.  1.
    8880022    1    1    2    0    0 -0.49458561291E+03 -0.45002631381E+03 -0.14088165929E+04  0.15669379238E+04  0.15294330000E+03 0.  0.
<mgrwt>
<rscale>  0 0.86782059E+03</rscale>
<asrwt>0</asrwt>
<pdfrwt beam="1">  1        2 0.33128473E+00 0.93858874E+03</pdfrwt>
<pdfrwt beam="2">  1       -2 0.63078276E-01 0.93858874E+03</pdfrwt>
<totfact> 0.12934747E+01</totfact>
</mgrwt>
</event>
<event>
 4    2  0.3171963E-007  0.1248655E+04  0.7818608E-02  0.9111218E-01
          2   -1    0    0  501    0  0.00000000000E+00  0.00000000000E+00  0.32214332816E+04  0.32214332816E+04  0.25500000000E-02 0. -1.
         -2   -1    0    0    0  501 -0.00000000000E+00 -0.00000000000E+00 -0.51610291629E+03  0.51610291630E+03  0.25500000000E-02 0.  1.
    8880023    1    1    2    0    0  0.49436620387E+03  0.93857975014E+03  0.22495591714E+04  0.25728693249E+04  0.65864270000E+03 0. -1.
    8880022    1    1    2    0    0 -0.49436620387E+03 -0.93857975014E+03  0.45577119388E+03  0.11646668730E+04  0.15294330000E+03 0.  0.
<mgrwt>
<rscale>  0 0.12018735E+04</rscale>
<asrwt>0</asrwt>
<pdfrwt beam="1">  1        2 0.49560513E+00 0.12486553E+04</pdfrwt>
<pdfrwt beam="2">  1       -2 0.79400447E-01 0.12486553E+04</pdfrwt>
<totfact> 0.17498400E+00</totfact>
</mgrwt>
</event>
<event>
 4    2  0.5998433E-007  0.1096738E+04  0.7818608E-02  0.9264696E-01
          2   -1    0    0  501    0  0.00000000000E+00  0.00000000000E+00  0.17609570023E+04  0.17609570023E+04  0.25500000000E-02 0. -1.
         -2   -1    0    0    0  501 -0.00000000000E+00 -0.00000000000E+00 -0.27077072561E+04  0.27077072561E+04  0.25500000000E-02 0.  1.
    8880023    1    1    2    0    0  0.15402494088E+03  0.86330837495E+03  0.15039095528E+04  0.18613380085E+04  0.65864270000E+03 0.  0.
    8880022    1    1    2    0    0 -0.15402494088E+03 -0.86330837495E+03 -0.24506598066E+04  0.26073262499E+04  0.15294330000E+03 0.  0.
<mgrwt>
<rscale>  0 0.10409899E+04</rscale>
<asrwt>0</asrwt>
<pdfrwt beam="1">  1        2 0.27091646E+00 0.10967385E+04</pdfrwt>
<pdfrwt beam="2">  1       -2 0.41657035E+00 0.10967385E+04</pdfrwt>
<totfact> 0.52514940E-02</totfact>
</mgrwt>
</event>
<event>
 4    2  0.3171963E-007  0.6612204E+03  0.7818608E-02  0.1022940E+00
         -2   -1    0    0    0  501 -0.00000000000E+00  0.00000000000E+00  0.61964519028E+03  0.61964519029E+03  0.25500000000E-02 0.  1.
          2   -1    0    0  501    0  0.00000000000E+00 -0.00000000000E+00 -0.30228652772E+03  0.30228652773E+03  0.25500000000E-02 0. -1.
    8880023    1    1    2    0    0 -0.27896927053E+02 -0.51224874126E+02  0.13132297852E+03  0.67413511792E+03  0.65864270000E+03 0. -1.
    8880022    1    1    2    0    0  0.27896927053E+02  0.51224874126E+02  0.18603568404E+03  0.24779660010E+03  0.15294330000E+03 0.  0.
<mgrwt>
<rscale>  0 0.46640601E+03</rscale>
<asrwt>0</asrwt>
<pdfrwt beam="1">  1        2 0.46505620E-01 0.66122041E+03</pdfrwt>
<pdfrwt beam="2">  1       -2 0.95330029E-01 0.66122041E+03</pdfrwt>
<totfact> 0.10204129E+02</totfact>
</mgrwt>
</event>
<event>
 4    2  0.3171963E-007  0.6670965E+03  0.7818608E-02  0.1017836E+00
         -2   -1    0    0    0  501 -0.00000000000E+00  0.00000000000E+00  0.19627751409E+03  0.19627751410E+03  0.25500000000E-02 0.  1.
          2   -1    0    0  501    0  0.00000000000E+00 -0.00000000000E+00 -0.24459744951E+04  0.24459744951E+04  0.25500000000E-02 0. -1.
    8880023    1    1    2    0    0 -0.32156606264E+02  0.10086358644E+03 -0.23416054428E+04  0.24347759171E+04  0.65864270000E+03 0. -1.
    8880022    1    1    2    0    0  0.32156606264E+02 -0.10086358644E+03  0.91908461860E+02  0.20747609205E+03  0.15294330000E+03 0.  0.
<mgrwt>
<rscale>  0 0.48475767E+03</rscale>
<asrwt>0</asrwt>
<pdfrwt beam="1">  1        2 0.37630375E+00 0.66709648E+03</pdfrwt>
<pdfrwt beam="2">  1       -2 0.30196542E-01 0.66709648E+03</pdfrwt>
<totfact> 0.39902342E+01</totfact>
</mgrwt>
</event>
<event>
 4    2  0.3171963E-007  0.9916180E+03  0.7818608E-02  0.9392607E-01
         -2   -1    0    0    0  501 -0.00000000000E+00  0.00000000000E+00  0.17708703061E+04  0.17708703061E+04  0.25500000000E-02 0.  1.
          2   -1    0    0  501    0  0.00000000000E+00 -0.00000000000E+00 -0.70516315878E+03  0.70516315878E+03  0.25500000000E-02 0. -1.
    8880023    1    1    2    0    0 -0.41755691875E+03  0.61248861583E+03 -0.19018707875E+03  0.10096917431E+04  0.65864270000E+03 0.  0.
    8880022    1    1    2    0    0  0.41755691875E+03 -0.61248861583E+03  0.12558942260E+04  0.14663417217E+04  0.15294330000E+03 0.  0.
<mgrwt>
<rscale>  0 0.92686610E+03</rscale>
<asrwt>0</asrwt>
<pdfrwt beam="1">  1        2 0.10848664E+00 0.99161802E+03</pdfrwt>
<pdfrwt beam="2">  1       -2 0.27244158E+00 0.99161802E+03</pdfrwt>
<totfact> 0.19049797E+00</totfact>
</mgrwt>
</event>
<event>
 4    2  0.3171963E-007  0.7117873E+03  0.7818608E-02  0.9951423E-01
         -2   -1    0    0    0  501 -0.00000000000E+00  0.00000000000E+00  0.19454664815E+03  0.19454664817E+03  0.25500000000E-02 0.  1.
          2   -1    0    0  501    0  0.00000000000E+00 -0.00000000000E+00 -0.32738466822E+04  0.32738466822E+04  0.25500000000E-02 0. -1.
    8880023    1    1    2    0    0  0.26967890913E+03  0.10207218465E+02 -0.30769306088E+04  0.31581866758E+04  0.65864270000E+03 0.  0.
    8880022    1    1    2    0    0 -0.26967890913E+03 -0.10207218465E+02 -0.23694251915E+01  0.31020665455E+03  0.15294330000E+03 0.  0.
<mgrwt>
<rscale>  0 0.57832540E+03</rscale>
<asrwt>0</asrwt>
<pdfrwt beam="1">  1        2 0.50366868E+00 0.71178726E+03</pdfrwt>
<pdfrwt beam="2">  1       -2 0.29930256E-01 0.71178726E+03</pdfrwt>
<totfact> 0.12869328E+01</totfact>
</mgrwt>
</event>
<event>
 4    2  0.3171963E-007  0.8959317E+03  0.7818608E-02  0.9532594E-01
         -2   -1    0    0    0  501 -0.00000000000E+00  0.00000000000E+00  0.27708842764E+03  0.27708842766E+03  0.25500000000E-02 0.  1.
          2   -1    0    0  501    0  0.00000000000E+00 -0.00000000000E+00 -0.21289949667E+04  0.21289949667E+04  0.25500000000E-02 0. -1.
    8880023    1    1    2    0    0 -0.34864980591E+03  0.49731955626E+03 -0.12458268669E+04  0.15345286627E+04  0.65864270000E+03 0. -1.
    8880022    1    1    2    0    0  0.34864980591E+03 -0.49731955626E+03 -0.60607967217E+03  0.87155473163E+03  0.15294330000E+03 0.  1.
<mgrwt>
<rscale>  0 0.81922844E+03</rscale>
<asrwt>0</asrwt>
<pdfrwt beam="1">  1        2 0.32753768E+00 0.89593171E+03</pdfrwt>
<pdfrwt beam="2">  1       -2 0.42628990E-01 0.89593171E+03</pdfrwt>
<totfact> 0.30025782E+01</totfact>
</mgrwt>
</event>
<event>
 4    2  0.3171963E-007  0.1094386E+04  0.7818608E-02  0.9267333E-01
          2   -1    0    0  501    0  0.00000000000E+00  0.00000000000E+00  0.10950045775E+04  0.10950045775E+04  0.25500000000E-02 0. -1.
         -2   -1    0    0    0  501 -0.00000000000E+00 -0.00000000000E+00 -0.10933874860E+04  0.10933874860E+04  0.25500000000E-02 0.  1.
    8880023    1    1    2    0    0  0.51205663961E+03 -0.70828548731E+03  0.46303181055E+03  0.11883093021E+04  0.65864270000E+03 0.  0.
    8880022    1    1    2    0    0 -0.51205663961E+03  0.70828548731E+03 -0.46141471897E+03  0.10000827614E+04  0.15294330000E+03 0.  0.
<mgrwt>
<rscale>  0 0.10384672E+04</rscale>
<asrwt>0</asrwt>
<pdfrwt beam="1">  1        2 0.16846224E+00 0.10943859E+04</pdfrwt>
<pdfrwt beam="2">  1       -2 0.16821346E+00 0.10943859E+04</pdfrwt>
<totfact> 0.47287738E+00</totfact>
</mgrwt>
</event>
<event>
 4    2  0.3171963E-007  0.7607037E+03  0.7818608E-02  0.9803289E-01
         -2   -1    0    0    0  501 -0.00000000000E+00  0.00000000000E+00  0.42539431332E+03  0.42539431333E+03  0.25500000000E-02 0.  1.
          2   -1    0    0  501    0  0.00000000000E+00 -0.00000000000E+00 -0.21814342154E+04  0.21814342154E+04  0.25500000000E-02 0. -1.
    8880023    1    1    2    0    0  0.18212073161E+03  0.33420348457E+03 -0.19929139238E+04  0.21331610450E+04  0.65864270000E+03 0. -1.
    8880022    1    1    2    0    0 -0.18212073161E+03 -0.33420348457E+03  0.23687402171E+03  0.47366748375E+03  0.15294330000E+03 0.  0.
<mgrwt>
<rscale>  0 0.65186332E+03</rscale>
<asrwt>0</asrwt>
<pdfrwt beam="1">  1        2 0.33560526E+00 0.76070371E+03</pdfrwt>
<pdfrwt beam="2">  1       -2 0.65445280E-01 0.76070371E+03</pdfrwt>
<totfact> 0.11810884E+01</totfact>
</mgrwt>
</event>
<event>
 4    2  0.3171963E-007  0.7180420E+03  0.7818608E-02  0.9929268E-01
          2   -1    0    0  501    0  0.00000000000E+00  0.00000000000E+00  0.11673151481E+04  0.11673151481E+04  0.25500000000E-02 0. -1.
         -2   -1    0    0    0  501 -0.00000000000E+00 -0.00000000000E+00 -0.41167806346E+03  0.41167806347E+03  0.25500000000E-02 0.  1.
    8880023    1    1    2    0    0 -0.16124028955E+03  0.23616879836E+03  0.95763588092E+03  0.11969339242E+04  0.65864270000E+03 0. -1.
    8880022    1    1    2    0    0  0.16124028955E+03 -0.23616879836E+03 -0.20199879631E+03  0.38205928731E+03  0.15294330000E+03 0.  0.
<mgrwt>
<rscale>  0 0.58863584E+03</rscale>
<asrwt>0</asrwt>
<pdfrwt beam="1">  1        2 0.17958694E+00 0.71804202E+03</pdfrwt>
<pdfrwt beam="2">  1       -2 0.63335088E-01 0.71804202E+03</pdfrwt>
<totfact> 0.46686714E+01</totfact>
</mgrwt>
</event>
<event>
 4    2  0.3171963E-007  0.9977085E+03  0.7818608E-02  0.9384562E-01
          2   -1    0    0  501    0  0.00000000000E+00  0.00000000000E+00  0.26574284876E+04  0.26574284876E+04  0.25500000000E-02 0. -1.
         -2   -1    0    0    0  501 -0.00000000000E+00 -0.00000000000E+00 -0.79708812122E+03  0.79708812122E+03  0.25500000000E-02 0.  1.
    8880023    1    1    2    0    0 -0.57832028807E+03 -0.47661067536E+03  0.23454214586E+04  0.25488083718E+04  0.65864270000E+03 0.  0.
    8880022    1    1    2    0    0  0.57832028807E+03  0.47661067536E+03 -0.48508109225E+03  0.90570823698E+03  0.15294330000E+03 0.  0.
<mgrwt>
<rscale>  0 0.93357152E+03</rscale>
<asrwt>0</asrwt>
<pdfrwt beam="1">  1        2 0.40883516E+00 0.99770852E+03</pdfrwt>
<pdfrwt beam="2">  1       -2 0.12262894E+00 0.99770852E+03</pdfrwt>
<totfact> 0.14308319E+00</totfact>
</mgrwt>
</event>
<event>
 4    2  0.3171963E-007  0.6990075E+03  0.7818608E-02  0.1000134E+00
          2   -1    0    0  501    0  0.00000000000E+00  0.00000000000E+00  0.10403005856E+04  0.10403005856E+04  0.25500000000E-02 0. -1.
         -2   -1    0    0    0  501 -0.00000000000E+00 -0.00000000000E+00 -0.31274107832E+03  0.31274107833E+03  0.25500000000E-02 0.  1.
    8880023    1    1    2    0    0  0.89845202224E+02  0.21616903900E+03  0.80180688434E+03  0.10637225671E+04  0.65864270000E+03 0.  0.
    8880022    1    1    2    0    0 -0.89845202224E+02 -0.21616903900E+03 -0.74247377027E+02  0.28931909684E+03  0.15294330000E+03 0.  0.
<mgrwt>
<rscale>  0 0.55591353E+03</rscale>
<asrwt>0</asrwt>
<pdfrwt beam="1">  1        2 0.16004625E+00 0.69900745E+03</pdfrwt>
<pdfrwt beam="2">  1       -2 0.48114012E-01 0.69900745E+03</pdfrwt>
<totfact> 0.98895511E+01</totfact>
</mgrwt>
</event>
<event>
 4    2  0.3171963E-007  0.9009709E+03  0.7818608E-02  0.9524475E-01
         -2   -1    0    0    0  501 -0.00000000000E+00  0.00000000000E+00  0.40458468551E+03  0.40458468551E+03  0.25500000000E-02 0.  1.
          2   -1    0    0  501    0  0.00000000000E+00 -0.00000000000E+00 -0.21773541636E+04  0.21773541636E+04  0.25500000000E-02 0. -1.
    8880023    1    1    2    0    0 -0.57073914047E+03  0.22846271477E+03 -0.17256365068E+04  0.19466817763E+04  0.65864270000E+03 0. -1.
    8880022    1    1    2    0    0  0.57073914047E+03 -0.22846271477E+03 -0.47132971296E+02  0.63525707277E+03  0.15294330000E+03 0.  0.
<mgrwt>
<rscale>  0 0.82503198E+03</rscale>
<asrwt>0</asrwt>
<pdfrwt beam="1">  1        2 0.33497756E+00 0.90097091E+03</pdfrwt>
<pdfrwt beam="2">  1       -2 0.62243799E-01 0.90097091E+03</pdfrwt>
<totfact> 0.12966431E+01</totfact>
</mgrwt>
</event>
<event>
 4    2  0.3171963E-007  0.1027242E+04  0.7818608E-02  0.9346754E-01
         -2   -1    0    0    0  501 -0.00000000000E+00  0.00000000000E+00  0.40907930340E+03  0.40907930341E+03  0.25500000000E-02 0.  1.
          2   -1    0    0  501    0  0.00000000000E+00 -0.00000000000E+00 -0.21525710183E+04  0.21525710183E+04  0.25500000000E-02 0. -1.
    8880023    1    1    2    0    0 -0.33799472803E+03  0.71216258333E+03 -0.69190047160E+03  0.12385283405E+04  0.65864270000E+03 0.  0.
    8880022    1    1    2    0    0  0.33799472803E+03 -0.71216258333E+03 -0.10515912433E+04  0.13231219812E+04  0.15294330000E+03 0.  0.
<mgrwt>
<rscale>  0 0.96590265E+03</rscale>
<asrwt>0</asrwt>
<pdfrwt beam="1">  1        2 0.33116477E+00 0.10272420E+04</pdfrwt>
<pdfrwt beam="2">  1       -2 0.62935279E-01 0.10272420E+04</pdfrwt>
<totfact> 0.12879744E+01</totfact>
</mgrwt>
</event>
<event>
 4    2  0.3171963E-007  0.8566522E+03  0.7818608E-02  0.9599547E-01
         -2   -1    0    0    0  501 -0.00000000000E+00  0.00000000000E+00  0.84064100202E+03  0.84064100202E+03  0.25500000000E-02 0.  1.
          2   -1    0    0  501    0  0.00000000000E+00 -0.00000000000E+00 -0.17867992322E+04  0.17867992322E+04  0.25500000000E-02 0. -1.
    8880023    1    1    2    0    0 -0.11579585142E+03  0.53538213804E+03 -0.15667633783E+04  0.17856652550E+04  0.65864270000E+03 0. -1.
    8880022    1    1    2    0    0  0.11579585142E+03 -0.53538213804E+03  0.62060514808E+03  0.84177497930E+03  0.15294330000E+03 0.  0.
<mgrwt>
<rscale>  0 0.77326198E+03</rscale>
<asrwt>0</asrwt>
<pdfrwt beam="1">  1        2 0.27489219E+00 0.85665216E+03</pdfrwt>
<pdfrwt beam="2">  1       -2 0.12932938E+00 0.85665216E+03</pdfrwt>
<totfact> 0.39189908E+00</totfact>
</mgrwt>
</event>
<event>
 4    2  0.3171963E-007  0.1090284E+04  0.7818608E-02  0.9271951E-01
          2   -1    0    0  501    0  0.00000000000E+00  0.00000000000E+00  0.21607734257E+04  0.21607734257E+04  0.25500000000E-02 0. -1.
         -2   -1    0    0    0  501 -0.00000000000E+00 -0.00000000000E+00 -0.86173348034E+03  0.86173348034E+03  0.25500000000E-02 0.  1.
    8880023    1    1    2    0    0 -0.26281952481E+02 -0.86845766031E+03  0.17266937168E+04  0.20421045141E+04  0.65864270000E+03 0. -1.
    8880022    1    1    2    0    0  0.26281952481E+02  0.86845766031E+03 -0.42765377145E+03  0.98040239189E+03  0.15294330000E+03 0.  0.
<mgrwt>
<rscale>  0 0.10340660E+04</rscale>
<asrwt>0</asrwt>
<pdfrwt beam="1">  1        2 0.33242668E+00 0.10902842E+04</pdfrwt>
<pdfrwt beam="2">  1       -2 0.13257438E+00 0.10902842E+04</pdfrwt>
<totfact> 0.22197529E+00</totfact>
</mgrwt>
</event>
<event>
 4    2  0.3171963E-007  0.1133380E+04  0.7818608E-02  0.9224771E-01
         -2   -1    0    0    0  501 -0.00000000000E+00  0.00000000000E+00  0.78876956197E+03  0.78876956197E+03  0.25500000000E-02 0.  1.
          2   -1    0    0  501    0  0.00000000000E+00 -0.00000000000E+00 -0.27371899101E+04  0.27371899101E+04  0.25500000000E-02 0. -1.
    8880023    1    1    2    0    0 -0.77311743861E+03 -0.50302117187E+03 -0.22700302984E+04  0.25372403582E+04  0.65864270000E+03 0.  0.
    8880022    1    1    2    0    0  0.77311743861E+03  0.50302117187E+03  0.32160995020E+03  0.98871911396E+03  0.15294330000E+03 0.  0.
<mgrwt>
<rscale>  0 0.10801372E+04</rscale>
<asrwt>0</asrwt>
<pdfrwt beam="1">  1        2 0.42110613E+00 0.11333804E+04</pdfrwt>
<pdfrwt beam="2">  1       -2 0.12134917E+00 0.11333804E+04</pdfrwt>
<totfact> 0.12930008E+00</totfact>
</mgrwt>
</event>
<event>
 4    2  0.3171963E-007  0.8246946E+03  0.7818608E-02  0.9659745E-01
         -2   -1    0    0    0  501 -0.00000000000E+00  0.00000000000E+00  0.29719497701E+03  0.29719497702E+03  0.25500000000E-02 0.  1.
          2   -1    0    0  501    0  0.00000000000E+00 -0.00000000000E+00 -0.30157615239E+04  0.30157615239E+04  0.25500000000E-02 0. -1.
    8880023    1    1    2    0    0 -0.48609103812E+03  0.10013245762E+03 -0.26663892760E+04  0.27910128957E+04  0.65864270000E+03 0. -1.
    8880022    1    1    2    0    0  0.48609103812E+03 -0.10013245762E+03 -0.52177270848E+02  0.52194360521E+03  0.15294330000E+03 0.  0.
<mgrwt>
<rscale>  0 0.73465007E+03</rscale>
<asrwt>0</asrwt>
<pdfrwt beam="1">  1        2 0.46396329E+00 0.82469462E+03</pdfrwt>
<pdfrwt beam="2">  1       -2 0.45722306E-01 0.82469462E+03</pdfrwt>
<totfact> 0.81124102E+00</totfact>
</mgrwt>
</event>
<event>
 4    2  0.3171963E-007  0.6807737E+03  0.7818608E-02  0.1008889E+00
          2   -1    0    0  501    0  0.00000000000E+00  0.00000000000E+00  0.52801390829E+03  0.52801390829E+03  0.25500000000E-02 0. -1.
         -2   -1    0    0    0  501 -0.00000000000E+00 -0.00000000000E+00 -0.74972260903E+03  0.74972260904E+03  0.25500000000E-02 0.  1.
    8880023    1    1    2    0    0 -0.73708696811E+02 -0.15559441422E+03  0.27188897796E+03  0.73305962672E+03  0.65864270000E+03 0. -1.
    8880022    1    1    2    0    0  0.73708696811E+02  0.15559441422E+03 -0.49359767871E+03  0.54467689061E+03  0.15294330000E+03 0.  0.
<mgrwt>
<rscale>  0 0.51918438E+03</rscale>
<asrwt>0</asrwt>
<pdfrwt beam="1">  1        2 0.81232909E-01 0.68077368E+03</pdfrwt>
<pdfrwt beam="2">  1       -2 0.11534194E+00 0.68077368E+03</pdfrwt>
<totfact> 0.34421520E+01</totfact>
</mgrwt>
</event>
<event>
 4    2  0.3171963E-007  0.8974301E+03  0.7818608E-02  0.9530170E-01
          2   -1    0    0  501    0  0.00000000000E+00  0.00000000000E+00  0.12109755307E+04  0.12109755307E+04  0.25500000000E-02 0. -1.
         -2   -1    0    0    0  501 -0.00000000000E+00 -0.00000000000E+00 -0.49552080884E+03  0.49552080885E+03  0.25500000000E-02 0.  1.
    8880023    1    1    2    0    0 -0.54601099497E+03  0.27100279933E+03  0.27344769605E+03  0.93816542924E+03  0.65864270000E+03 0.  1.
    8880022    1    1    2    0    0  0.54601099497E+03 -0.27100279933E+03  0.44200702581E+03  0.76833091032E+03  0.15294330000E+03 0.  0.
<mgrwt>
<rscale>  0 0.82095604E+03</rscale>
<asrwt>0</asrwt>
<pdfrwt beam="1">  1        2 0.18630392E+00 0.89743007E+03</pdfrwt>
<pdfrwt beam="2">  1       -2 0.76233972E-01 0.89743007E+03</pdfrwt>
<totfact> 0.28861835E+01</totfact>
</mgrwt>
</event>
<event>
 4    2  0.3171963E-007  0.7489923E+03  0.7818608E-02  0.9834487E-01
          2   -1    0    0  501    0  0.00000000000E+00  0.00000000000E+00  0.15025889909E+04  0.15025889909E+04  0.25500000000E-02 0. -1.
         -2   -1    0    0    0  501 -0.00000000000E+00 -0.00000000000E+00 -0.21614434011E+03  0.21614434012E+03  0.25500000000E-02 0.  1.
    8880023    1    1    2    0    0  0.56839002953E+02 -0.35206324913E+03  0.78978307111E+03  0.10884607064E+04  0.65864270000E+03 0.  0.
    8880022    1    1    2    0    0 -0.56839002953E+02  0.35206324913E+03  0.49666157970E+03  0.63027262467E+03  0.15294330000E+03 0. -1.
<mgrwt>
<rscale>  0 0.63544156E+03</rscale>
<asrwt>0</asrwt>
<pdfrwt beam="1">  1        2 0.23116754E+00 0.74899226E+03</pdfrwt>
<pdfrwt beam="2">  1       -2 0.33252974E-01 0.74899226E+03</pdfrwt>
<totfact> 0.10876494E+02</totfact>
</mgrwt>
</event>
<event>
 4    2  0.3171963E-007  0.7939348E+03  0.7818608E-02  0.9724067E-01
          2   -1    0    0  501    0  0.00000000000E+00  0.00000000000E+00  0.26870924595E+04  0.26870924595E+04  0.25500000000E-02 0. -1.
         -2   -1    0    0    0  501 -0.00000000000E+00 -0.00000000000E+00 -0.20697430599E+03  0.20697430601E+03  0.25500000000E-02 0.  1.
    8880023    1    1    2    0    0  0.44328052596E+03  0.49663178833E+01  0.22202403252E+04  0.23579227292E+04  0.65864270000E+03 0.  0.
    8880022    1    1    2    0    0 -0.44328052596E+03 -0.49663178833E+01  0.25987782833E+03  0.53614403632E+03  0.15294330000E+03 0.  0.
<mgrwt>
<rscale>  0 0.69601762E+03</rscale>
<asrwt>0</asrwt>
<pdfrwt beam="1">  1        2 0.41339883E+00 0.79393482E+03</pdfrwt>
<pdfrwt beam="2">  1       -2 0.31842202E-01 0.79393482E+03</pdfrwt>
<totfact> 0.25826542E+01</totfact>
</mgrwt>
</event>
<event>
 4    2  0.3171963E-007  0.6809812E+03  0.7818608E-02  0.1008774E+00
          2   -1    0    0  501    0  0.00000000000E+00  0.00000000000E+00  0.59507158302E+03  0.59507158302E+03  0.25500000000E-02 0. -1.
         -2   -1    0    0    0  501 -0.00000000000E+00 -0.00000000000E+00 -0.76851636541E+03  0.76851636541E+03  0.25500000000E-02 0.  1.
    8880023    1    1    2    0    0 -0.60961682995E+02  0.16189160679E+03  0.36865137879E+03  0.77436378046E+03  0.65864270000E+03 0. -1.
    8880022    1    1    2    0    0  0.60961682995E+02 -0.16189160679E+03 -0.54209616118E+03  0.58922416797E+03  0.15294330000E+03 0.  0.
<mgrwt>
<rscale>  0 0.51964821E+03</rscale>
<asrwt>0</asrwt>
<pdfrwt beam="1">  1        2 0.91549475E-01 0.68098122E+03</pdfrwt>
<pdfrwt beam="2">  1       -2 0.11823329E+00 0.68098122E+03</pdfrwt>
<totfact> 0.28119023E+01</totfact>
</mgrwt>
</event>
<event>
 4    2  0.3171963E-007  0.9461438E+03  0.7818608E-02  0.9455684E-01
          2   -1    0    0  501    0  0.00000000000E+00  0.00000000000E+00  0.10973649898E+04  0.10973649898E+04  0.25500000000E-02 0. -1.
         -2   -1    0    0    0  501 -0.00000000000E+00 -0.00000000000E+00 -0.75698353988E+03  0.75698353989E+03  0.25500000000E-02 0.  1.
    8880023    1    1    2    0    0 -0.67888878837E+03  0.22090242300E+02 -0.20719708573E+03  0.96856533304E+03  0.65864270000E+03 0.  0.
    8880022    1    1    2    0    0  0.67888878837E+03 -0.22090242300E+02  0.54757853568E+03  0.88578319669E+03  0.15294330000E+03 0.  0.
<mgrwt>
<rscale>  0 0.87631410E+03</rscale>
<asrwt>0</asrwt>
<pdfrwt beam="1">  1        2 0.16882538E+00 0.94614384E+03</pdfrwt>
<pdfrwt beam="2">  1       -2 0.11645901E+00 0.94614384E+03</pdfrwt>
<totfact> 0.12472936E+01</totfact>
</mgrwt>
</event>
<event>
 4    2  0.3171963E-007  0.1039412E+04  0.7818608E-02  0.9331719E-01
          2   -1    0    0  501    0  0.00000000000E+00  0.00000000000E+00  0.29054931752E+03  0.29054931754E+03  0.25500000000E-02 0. -1.
         -2   -1    0    0    0  501 -0.00000000000E+00 -0.00000000000E+00 -0.36651611436E+04  0.36651611436E+04  0.25500000000E-02 0.  1.
    8880023    1    1    2    0    0  0.35061756737E+03  0.72362622036E+03 -0.99353465892E+03  0.14378765281E+04  0.65864270000E+03 0.  0.
    8880022    1    1    2    0    0 -0.35061756737E+03 -0.72362622036E+03 -0.23810771671E+04  0.25178339330E+04  0.15294330000E+03 0.  0.
<mgrwt>
<rscale>  0 0.97914479E+03</rscale>
<asrwt>0</asrwt>
<pdfrwt beam="1">  1        2 0.44699898E-01 0.10394122E+04</pdfrwt>
<pdfrwt beam="2">  1       -2 0.56387091E+00 0.10394122E+04</pdfrwt>
<totfact> 0.81936340E-02</totfact>
</mgrwt>
</event>
<event>
 4    2  0.3171963E-007  0.8963792E+03  0.7818608E-02  0.9531869E-01
         -2   -1    0    0    0  501 -0.00000000000E+00  0.00000000000E+00  0.66044072439E+03  0.66044072440E+03  0.25500000000E-02 0.  1.
          2   -1    0    0  501    0  0.00000000000E+00 -0.00000000000E+00 -0.88668909538E+03  0.88668909538E+03  0.25500000000E-02 0. -1.
    8880023    1    1    2    0    0 -0.53425724252E+03  0.29026659793E+03 -0.20651371350E+03  0.91986065205E+03  0.65864270000E+03 0. -1.
    8880022    1    1    2    0    0  0.53425724252E+03 -0.29026659793E+03 -0.19734657484E+02  0.62726916773E+03  0.15294330000E+03 0.  1.
<mgrwt>
<rscale>  0 0.81974459E+03</rscale>
<asrwt>0</asrwt>
<pdfrwt beam="1">  1        2 0.13641371E+00 0.89637922E+03</pdfrwt>
<pdfrwt beam="2">  1       -2 0.10160627E+00 0.89637922E+03</pdfrwt>
<totfact> 0.23859756E+01</totfact>
</mgrwt>
</event>
<event>
 4    2  0.3171963E-007  0.8498749E+03  0.7818608E-02  0.9611834E-01
          2   -1    0    0  501    0  0.00000000000E+00  0.00000000000E+00  0.13413579623E+04  0.13413579623E+04  0.25500000000E-02 0. -1.
         -2   -1    0    0    0  501 -0.00000000000E+00 -0.00000000000E+00 -0.65934650537E+03  0.65934650538E+03  0.25500000000E-02 0.  1.
    8880023    1    1    2    0    0 -0.31764337867E+02  0.53616053781E+03  0.10356310793E+04  0.13397085631E+04  0.65864270000E+03 0. -1.
    8880022    1    1    2    0    0  0.31764337867E+02 -0.53616053781E+03 -0.35361962237E+03  0.66099590453E+03  0.15294330000E+03 0.  0.
<mgrwt>
<rscale>  0 0.76517844E+03</rscale>
<asrwt>0</asrwt>
<pdfrwt beam="1">  1        2 0.20636276E+00 0.84987487E+03</pdfrwt>
<pdfrwt beam="2">  1       -2 0.10143793E+00 0.84987487E+03</pdfrwt>
<totfact> 0.12609421E+01</totfact>
</mgrwt>
</event>
<event>
 4    2  0.3171963E-007  0.8388991E+03  0.7818608E-02  0.9632260E-01
          2   -1    0    0  501    0  0.00000000000E+00  0.00000000000E+00  0.11343015995E+04  0.11343015995E+04  0.25500000000E-02 0. -1.
         -2   -1    0    0    0  501 -0.00000000000E+00 -0.00000000000E+00 -0.80785586370E+03  0.80785586371E+03  0.25500000000E-02 0.  1.
    8880023    1    1    2    0    0  0.51867609451E+03  0.30276387863E+02  0.84616416444E+03  0.11915307592E+04  0.65864270000E+03 0.  0.
    8880022    1    1    2    0    0 -0.51867609451E+03 -0.30276387863E+02 -0.51971842865E+03  0.75062670401E+03  0.15294330000E+03 0.  0.
<mgrwt>
<rscale>  0 0.75197337E+03</rscale>
<asrwt>0</asrwt>
<pdfrwt beam="1">  1        2 0.17450794E+00 0.83889913E+03</pdfrwt>
<pdfrwt beam="2">  1       -2 0.12428552E+00 0.83889913E+03</pdfrwt>
<totfact> 0.10181056E+01</totfact>
</mgrwt>
</event>
<event>
 4    2  0.3179266E-007  0.7414376E+03  0.7818608E-02  0.9855779E-01
         -2   -1    0    0    0  501 -0.00000000000E+00  0.00000000000E+00  0.24449362241E+04  0.24449362242E+04  0.25500000000E-02 0.  1.
          2   -1    0    0  501    0  0.00000000000E+00 -0.00000000000E+00 -0.10397824317E+04  0.10397824317E+04  0.25500000000E-02 0. -1.
    8880023    1    1    2    0    0 -0.33777055537E+03  0.42784687533E+02 -0.89059255552E+03  0.11588290572E+04  0.65864270000E+03 0.  0.
    8880022    1    1    2    0    0  0.33777055537E+03 -0.42784687533E+02  0.22957463480E+04  0.23258895986E+04  0.15294330000E+03 0.  0.
<mgrwt>
<rscale>  0 0.62453125E+03</rscale>
<asrwt>0</asrwt>
<pdfrwt beam="1">  1        2 0.15996653E+00 0.74143758E+03</pdfrwt>
<pdfrwt beam="2">  1       -2 0.37614404E+00 0.74143758E+03</pdfrwt>
<totfact> 0.26884919E-01</totfact>
</mgrwt>
</event>
<event>
 4    2  0.3171963E-007  0.1157885E+04  0.7818608E-02  0.9199189E-01
         -2   -1    0    0    0  501 -0.00000000000E+00  0.00000000000E+00  0.21451225913E+04  0.21451225913E+04  0.25500000000E-02 0.  1.
          2   -1    0    0  501    0  0.00000000000E+00 -0.00000000000E+00 -0.10266245897E+04  0.10266245897E+04  0.25500000000E-02 0. -1.
    8880023    1    1    2    0    0  0.77678413012E+03  0.55090366789E+03 -0.52090647584E+03  0.12696622381E+04  0.65864270000E+03 0.  0.
    8880022    1    1    2    0    0 -0.77678413012E+03 -0.55090366789E+03  0.16394044775E+04  0.19020849429E+04  0.15294330000E+03 0.  0.
<mgrwt>
<rscale>  0 0.11061803E+04</rscale>
<asrwt>0</asrwt>
<pdfrwt beam="1">  1        2 0.15794225E+00 0.11578854E+04</pdfrwt>
<pdfrwt beam="2">  1       -2 0.33001886E+00 0.11578854E+04</pdfrwt>
<totfact> 0.49563956E-01</totfact>
</mgrwt>
</event>
<event>
 4    2  0.3171963E-007  0.8393257E+03  0.7818608E-02  0.9631453E-01
          2   -1    0    0  501    0  0.00000000000E+00  0.00000000000E+00  0.38505727285E+03  0.38505727285E+03  0.25500000000E-02 0. -1.
         -2   -1    0    0    0  501 -0.00000000000E+00 -0.00000000000E+00 -0.16957555163E+04  0.16957555163E+04  0.25500000000E-02 0.  1.
    8880023    1    1    2    0    0  0.41442849494E+03  0.31449387981E+03 -0.22773395102E+03  0.86967254560E+03  0.65864270000E+03 0. -1.
    8880022    1    1    2    0    0 -0.41442849494E+03 -0.31449387981E+03 -0.10829642925E+04  0.12111402436E+04  0.15294330000E+03 0.  0.
<mgrwt>
<rscale>  0 0.75248934E+03</rscale>
<asrwt>0</asrwt>
<pdfrwt beam="1">  1        2 0.59239581E-01 0.83932567E+03</pdfrwt>
<pdfrwt beam="2">  1       -2 0.26088546E+00 0.83932567E+03</pdfrwt>
<totfact> 0.46640449E+00</totfact>
</mgrwt>
</event>
<event>
 4    2  0.3171963E-007  0.1187856E+04  0.7818608E-02  0.9169019E-01
         -2   -1    0    0    0  501 -0.00000000000E+00  0.00000000000E+00  0.12067166897E+04  0.12067166897E+04  0.25500000000E-02 0.  1.
          2   -1    0    0  501    0  0.00000000000E+00 -0.00000000000E+00 -0.11034204635E+04  0.11034204635E+04  0.25500000000E-02 0. -1.
    8880023    1    1    2    0    0  0.55773942808E+02  0.98695522466E+03  0.42154863781E+03  0.12604383398E+04  0.65864270000E+03 0.  0.
    8880022    1    1    2    0    0 -0.55773942808E+02 -0.98695522466E+03 -0.31825241160E+03  0.10496988133E+04  0.15294330000E+03 0.  0.
<mgrwt>
<rscale>  0 0.11379009E+04</rscale>
<asrwt>0</asrwt>
<pdfrwt beam="1">  1        2 0.16975700E+00 0.11878559E+04</pdfrwt>
<pdfrwt beam="2">  1       -2 0.18564872E+00 0.11878559E+04</pdfrwt>
<totfact> 0.34987197E+00</totfact>
</mgrwt>
</event>
<event>
 4    2  0.3171963E-007  0.9489465E+03  0.7818608E-02  0.9451631E-01
          2   -1    0    0  501    0  0.00000000000E+00  0.00000000000E+00  0.33911561999E+04  0.33911561999E+04  0.25500000000E-02 0. -1.
         -2   -1    0    0    0  501 -0.00000000000E+00 -0.00000000000E+00 -0.23639604647E+03  0.23639604648E+03  0.25500000000E-02 0.  1.
    8880023    1    1    2    0    0  0.60935763447E+03  0.30882444846E+03  0.24795480670E+04  0.26549309011E+04  0.65864270000E+03 0. -1.
    8880022    1    1    2    0    0 -0.60935763447E+03 -0.30882444846E+03  0.67521208639E+03  0.97262134527E+03  0.15294330000E+03 0.  0.
<mgrwt>
<rscale>  0 0.87945733E+03</rscale>
<asrwt>0</asrwt>
<pdfrwt beam="1">  1        2 0.52171636E+00 0.94894651E+03</pdfrwt>
<pdfrwt beam="2">  1       -2 0.36368621E-01 0.94894651E+03</pdfrwt>
<totfact> 0.71644617E+00</totfact>
</mgrwt>
</event>
<event>
 4    2  0.3171963E-007  0.6903646E+03  0.7818608E-02  0.1003980E+00
         -2   -1    0    0    0  501 -0.00000000000E+00  0.00000000000E+00  0.23221996849E+03  0.23221996851E+03  0.25500000000E-02 0.  1.
          2   -1    0    0  501    0  0.00000000000E+00 -0.00000000000E+00 -0.17222371723E+04  0.17222371723E+04  0.25500000000E-02 0. -1.
    8880023    1    1    2    0    0  0.51513615731E+02  0.20034815404E+03 -0.15442482297E+04  0.16915394872E+04  0.65864270000E+03 0. -1.
    8880022    1    1    2    0    0 -0.51513615731E+02 -0.20034815404E+03  0.54231025863E+02  0.26291765368E+03  0.15294330000E+03 0.  0.
<mgrwt>
<rscale>  0 0.53939084E+03</rscale>
<asrwt>0</asrwt>
<pdfrwt beam="1">  1        2 0.26495956E+00 0.69036457E+03</pdfrwt>
<pdfrwt beam="2">  1       -2 0.35726150E-01 0.69036457E+03</pdfrwt>
<totfact> 0.72287750E+01</totfact>
</mgrwt>
</event>
<event>
 4    2  0.3171963E-007  0.9417909E+03  0.7818608E-02  0.9462025E-01
         -2   -1    0    0    0  501 -0.00000000000E+00  0.00000000000E+00  0.97991956173E+03  0.97991956173E+03  0.25500000000E-02 0.  1.
          2   -1    0    0  501    0  0.00000000000E+00 -0.00000000000E+00 -0.11365933250E+04  0.11365933250E+04  0.25500000000E-02 0. -1.
    8880023    1    1    2    0    0  0.65812419150E+03  0.14153616328E+03 -0.75180716581E+03  0.12050660388E+04  0.65864270000E+03 0. -1.
    8880022    1    1    2    0    0 -0.65812419150E+03 -0.14153616328E+03  0.59513340250E+03  0.91144684801E+03  0.15294330000E+03 0.  0.
<mgrwt>
<rscale>  0 0.87142420E+03</rscale>
<asrwt>0</asrwt>
<pdfrwt beam="1">  1        2 0.17486051E+00 0.94179092E+03</pdfrwt>
<pdfrwt beam="2">  1       -2 0.15075686E+00 0.94179092E+03</pdfrwt>
<totfact> 0.60992795E+00</totfact>
</mgrwt>
</event>
<event>
 4    2  0.3171963E-007  0.8178406E+03  0.7818608E-02  0.9673471E-01
          2   -1    0    0  501    0  0.00000000000E+00  0.00000000000E+00  0.20100115796E+04  0.20100115796E+04  0.25500000000E-02 0. -1.
         -2   -1    0    0    0  501 -0.00000000000E+00 -0.00000000000E+00 -0.36072255453E+03  0.36072255454E+03  0.25500000000E-02 0.  1.
    8880023    1    1    2    0    0  0.44501036170E+03  0.19240260636E+03  0.21010125833E+03  0.84439666625E+03  0.65864270000E+03 0.  1.
    8880022    1    1    2    0    0 -0.44501036170E+03 -0.19240260636E+03  0.14391877668E+04  0.15263374679E+04  0.15294330000E+03 0.  0.
<mgrwt>
<rscale>  0 0.72618526E+03</rscale>
<asrwt>0</asrwt>
<pdfrwt beam="1">  1        2 0.30923255E+00 0.81784057E+03</pdfrwt>
<pdfrwt beam="2">  1       -2 0.55495778E-01 0.81784057E+03</pdfrwt>
<totfact> 0.20628747E+01</totfact>
</mgrwt>
</event>
<event>
 4    2  0.3171963E-007  0.1070619E+04  0.7818608E-02  0.9294495E-01
         -2   -1    0    0    0  501 -0.00000000000E+00  0.00000000000E+00  0.47030357437E+03  0.47030357437E+03  0.25500000000E-02 0.  1.
          2   -1    0    0  501    0  0.00000000000E+00 -0.00000000000E+00 -0.32363649536E+04  0.32363649536E+04  0.25500000000E-02 0. -1.
    8880023    1    1    2    0    0 -0.28689953176E+03 -0.79379072389E+03 -0.26281633709E+04  0.28378632746E+04  0.65864270000E+03 0. -1.
    8880022    1    1    2    0    0  0.28689953176E+03  0.79379072389E+03 -0.13789800834E+03  0.86880525343E+03  0.15294330000E+03 0.  0.
<mgrwt>
<rscale>  0 0.10129120E+04</rscale>
<asrwt>0</asrwt>
<pdfrwt beam="1">  1        2 0.49790229E+00 0.10706191E+04</pdfrwt>
<pdfrwt beam="2">  1       -2 0.72354398E-01 0.10706191E+04</pdfrwt>
<totfact> 0.21581457E+00</totfact>
</mgrwt>
</event>
<event>
 4    2  0.3171963E-007  0.7176047E+03  0.7818608E-02  0.9930776E-01
          2   -1    0    0  501    0  0.00000000000E+00  0.00000000000E+00  0.95182291537E+03  0.95182291538E+03  0.25500000000E-02 0. -1.
         -2   -1    0    0    0  501 -0.00000000000E+00 -0.00000000000E+00 -0.43008682151E+03  0.43008682152E+03  0.25500000000E-02 0.  1.
    8880023    1    1    2    0    0 -0.24356609720E+03  0.14772245376E+03  0.70857699119E+03  0.10084829824E+04  0.65864270000E+03 0.  0.
    8880022    1    1    2    0    0  0.24356609720E+03 -0.14772245376E+03 -0.18684089733E+03  0.37342675451E+03  0.15294330000E+03 0.  0.
<mgrwt>
<rscale>  0 0.58792680E+03</rscale>
<asrwt>0</asrwt>
<pdfrwt beam="1">  1        2 0.14643429E+00 0.71760475E+03</pdfrwt>
<pdfrwt beam="2">  1       -2 0.66167204E-01 0.71760475E+03</pdfrwt>
<totfact> 0.57878483E+01</totfact>
</mgrwt>
</event>
<event>
 4    2  0.3171963E-007  0.1208856E+04  0.7818608E-02  0.9148561E-01
          2   -1    0    0  501    0  0.00000000000E+00  0.00000000000E+00  0.21196266329E+04  0.21196266329E+04  0.25500000000E-02 0. -1.
         -2   -1    0    0    0  501 -0.00000000000E+00 -0.00000000000E+00 -0.78366760287E+03  0.78366760288E+03  0.25500000000E-02 0.  1.
    8880023    1    1    2    0    0  0.83440386335E+03  0.57558035519E+03  0.14315830690E+04  0.18737029760E+04  0.65864270000E+03 0. -1.
    8880022    1    1    2    0    0 -0.83440386335E+03 -0.57558035519E+03 -0.95624038956E+02  0.10295912598E+04  0.15294330000E+03 0.  1.
<mgrwt>
<rscale>  0 0.11600503E+04</rscale>
<asrwt>0</asrwt>
<pdfrwt beam="1">  1        2 0.32609640E+00 0.12088560E+04</pdfrwt>
<pdfrwt beam="2">  1       -2 0.12056425E+00 0.12088560E+04</pdfrwt>
<totfact> 0.29350029E+00</totfact>
</mgrwt>
</event>
<event>
 4    2  0.3171963E-007  0.7893195E+03  0.7818608E-02  0.9734384E-01
         -2   -1    0    0    0  501 -0.00000000000E+00  0.00000000000E+00  0.37326979574E+03  0.37326979575E+03  0.25500000000E-02 0.  1.
          2   -1    0    0  501    0  0.00000000000E+00 -0.00000000000E+00 -0.27082371583E+04  0.27082371583E+04  0.25500000000E-02 0. -1.
    8880023    1    1    2    0    0 -0.27363467072E+03 -0.33814069414E+03 -0.24764482900E+04  0.25991962991E+04  0.65864270000E+03 0. -1.
    8880022    1    1    2    0    0  0.27363467072E+03  0.33814069414E+03  0.14148092740E+03  0.48231065496E+03  0.15294330000E+03 0.  0.
<mgrwt>
<rscale>  0 0.69005983E+03</rscale>
<asrwt>0</asrwt>
<pdfrwt beam="1">  1        2 0.41665186E+00 0.78931950E+03</pdfrwt>
<pdfrwt beam="2">  1       -2 0.57426124E-01 0.78931950E+03</pdfrwt>
<totfact> 0.78183330E+00</totfact>
</mgrwt>
</event>
<event>
 4    2  0.3171963E-007  0.9265696E+03  0.7818608E-02  0.9484658E-01
          2   -1    0    0  501    0  0.00000000000E+00  0.00000000000E+00  0.25149223539E+04  0.25149223539E+04  0.25500000000E-02 0. -1.
         -2   -1    0    0    0  501 -0.00000000000E+00 -0.00000000000E+00 -0.41875555480E+03  0.41875555481E+03  0.25500000000E-02 0.  1.
    8880023    1    1    2    0    0 -0.12262615842E+02  0.65159082353E+03  0.20652193459E+04  0.22635507783E+04  0.65864270000E+03 0.  0.
    8880022    1    1    2    0    0  0.12262615842E+02 -0.65159082353E+03  0.30947453213E+02  0.67012713042E+03  0.15294330000E+03 0.  0.
<mgrwt>
<rscale>  0 0.85424398E+03</rscale>
<asrwt>0</asrwt>
<pdfrwt beam="1">  1        2 0.38691113E+00 0.92656958E+03</pdfrwt>
<pdfrwt beam="2">  1       -2 0.64423931E-01 0.92656958E+03</pdfrwt>
<totfact> 0.77577436E+00</totfact>
</mgrwt>
</event>
<event>
 4    2  0.3171963E-007  0.1405308E+04  0.7818608E-02  0.8979569E-01
         -2   -1    0    0    0  501 -0.00000000000E+00  0.00000000000E+00  0.12073980010E+04  0.12073980010E+04  0.25500000000E-02 0.  1.
          2   -1    0    0  501    0  0.00000000000E+00 -0.00000000000E+00 -0.14709393711E+04  0.14709393711E+04  0.25500000000E-02 0. -1.
    8880023    1    1    2    0    0  0.35692867515E+03  0.11889838296E+04 -0.25062753212E+03  0.14274820462E+04  0.65864270000E+03 0.  0.
    8880022    1    1    2    0    0 -0.35692867515E+03 -0.11889838296E+04 -0.12913837925E+02  0.12508553259E+04  0.15294330000E+03 0.  0.
<mgrwt>
<rscale>  0 0.13649748E+04</rscale>
<asrwt>0</asrwt>
<pdfrwt beam="1">  1        2 0.22629836E+00 0.14053081E+04</pdfrwt>
<pdfrwt beam="2">  1       -2 0.18575354E+00 0.14053081E+04</pdfrwt>
<totfact> 0.20769999E+00</totfact>
</mgrwt>
</event>
<event>
 4    2  0.3171963E-007  0.7294637E+03  0.7818608E-02  0.9891775E-01
         -2   -1    0    0    0  501 -0.00000000000E+00  0.00000000000E+00  0.32055069425E+03  0.32055069426E+03  0.25500000000E-02 0.  1.
          2   -1    0    0  501    0  0.00000000000E+00 -0.00000000000E+00 -0.21068806856E+04  0.21068806856E+04  0.25500000000E-02 0. -1.
    8880023    1    1    2    0    0 -0.30556187228E+03  0.70277692262E+02 -0.19199556500E+04  0.20538614647E+04  0.65864270000E+03 0. -1.
    8880022    1    1    2    0    0  0.30556187228E+03 -0.70277692262E+02  0.13362565870E+03  0.37356991514E+03  0.15294330000E+03 0.  0.
<mgrwt>
<rscale>  0 0.60661545E+03</rscale>
<asrwt>0</asrwt>
<pdfrwt beam="1">  1        2 0.32413548E+00 0.72946365E+03</pdfrwt>
<pdfrwt beam="2">  1       -2 0.49315493E-01 0.72946365E+03</pdfrwt>
<totfact> 0.23547241E+01</totfact>
</mgrwt>
</event>
<event>
 4    2  0.3171963E-007  0.7067997E+03  0.7818608E-02  0.9970083E-01
          2   -1    0    0  501    0  0.00000000000E+00  0.00000000000E+00  0.26459873988E+04  0.26459873988E+04  0.25500000000E-02 0. -1.
         -2   -1    0    0    0  501 -0.00000000000E+00 -0.00000000000E+00 -0.44847833235E+03  0.44847833236E+03  0.25500000000E-02 0.  1.
    8880023    1    1    2    0    0  0.23555922772E+03  0.10132852443E+03  0.25420920959E+04  0.26385219442E+04  0.65864270000E+03 0. -1.
    8880022    1    1    2    0    0 -0.23555922772E+03 -0.10132852443E+03 -0.34458302949E+03  0.45594378695E+03  0.15294330000E+03 0.  0.
<mgrwt>
<rscale>  0 0.56981749E+03</rscale>
<asrwt>0</asrwt>
<pdfrwt beam="1">  1        2 0.40707498E+00 0.70679971E+03</pdfrwt>
<pdfrwt beam="2">  1       -2 0.68996667E-01 0.70679971E+03</pdfrwt>
<totfact> 0.58284437E+00</totfact>
</mgrwt>
</event>
<event>
 4    2  0.3171963E-007  0.7491532E+03  0.7818608E-02  0.9834044E-01
         -2   -1    0    0    0  501 -0.00000000000E+00  0.00000000000E+00  0.63175497774E+03  0.63175497775E+03  0.25500000000E-02 0.  1.
          2   -1    0    0  501    0  0.00000000000E+00 -0.00000000000E+00 -0.17277978958E+04  0.17277978958E+04  0.25500000000E-02 0. -1.
    8880023    1    1    2    0    0 -0.25028420657E+03 -0.25451537773E+03 -0.15743141695E+04  0.17434722746E+04  0.65864270000E+03 0. -1.
    8880022    1    1    2    0    0  0.25028420657E+03  0.25451537773E+03  0.47827125141E+03  0.61608059903E+03  0.15294330000E+03 0.  0.
<mgrwt>
<rscale>  0 0.63567103E+03</rscale>
<asrwt>0</asrwt>
<pdfrwt beam="1">  1        2 0.26581506E+00 0.74915317E+03</pdfrwt>
<pdfrwt beam="2">  1       -2 0.97193074E-01 0.74915317E+03</pdfrwt>
<totfact> 0.86068728E+00</totfact>
</mgrwt>
</event>
<event>
 4    2  0.3171963E-007  0.7779791E+03  0.7818608E-02  0.9760606E-01
          2   -1    0    0  501    0  0.00000000000E+00  0.00000000000E+00  0.51020866616E+03  0.51020866617E+03  0.25500000000E-02 0. -1.
         -2   -1    0    0    0  501 -0.00000000000E+00 -0.00000000000E+00 -0.74671238331E+03  0.74671238331E+03  0.25500000000E-02 0.  1.
    8880023    1    1    2    0    0  0.24217317846E+03 -0.33584739198E+03 -0.55840320583E+02  0.77998055535E+03  0.65864270000E+03 0.  0.
    8880022    1    1    2    0    0 -0.24217317846E+03  0.33584739198E+03 -0.18066339657E+03  0.47694049413E+03  0.15294330000E+03 0.  1.
<mgrwt>
<rscale>  0 0.67520207E+03</rscale>
<asrwt>0</asrwt>
<pdfrwt beam="1">  1        2 0.78493641E-01 0.77797913E+03</pdfrwt>
<pdfrwt beam="2">  1       -2 0.11487883E+00 0.77797913E+03</pdfrwt>
<totfact> 0.35912948E+01</totfact>
</mgrwt>
</event>
<event>
 4    2  0.3171963E-007  0.7220818E+03  0.7818608E-02  0.9915604E-01
          2   -1    0    0  501    0  0.00000000000E+00  0.00000000000E+00  0.22775187164E+04  0.22775187164E+04  0.25500000000E-02 0. -1.
         -2   -1    0    0    0  501 -0.00000000000E+00 -0.00000000000E+00 -0.62159104179E+03  0.62159104180E+03  0.25500000000E-02 0.  1.
    8880023    1    1    2    0    0 -0.26153152422E+03  0.13853945326E+03  0.21697453249E+04  0.22867437328E+04  0.65864270000E+03 0. -1.
    8880022    1    1    2    0    0  0.26153152422E+03 -0.13853945326E+03 -0.51381765031E+03  0.61236602539E+03  0.15294330000E+03 0.  0.
<mgrwt>
<rscale>  0 0.59510985E+03</rscale>
<asrwt>0</asrwt>
<pdfrwt beam="1">  1        2 0.35038750E+00 0.72208180E+03</pdfrwt>
<pdfrwt beam="2">  1       -2 0.95629391E-01 0.72208180E+03</pdfrwt>
<totfact> 0.44929321E+00</totfact>
</mgrwt>
</event>
<event>
 4    2  0.3171963E-007  0.7517963E+03  0.7818608E-02  0.9826829E-01
         -2   -1    0    0    0  501 -0.00000000000E+00  0.00000000000E+00  0.57932132841E+03  0.57932132841E+03  0.25500000000E-02 0.  1.
          2   -1    0    0  501    0  0.00000000000E+00 -0.00000000000E+00 -0.81094040046E+03  0.81094040046E+03  0.25500000000E-02 0. -1.
    8880023    1    1    2    0    0  0.35923488916E+03  0.48349853686E+02 -0.50987147510E+03  0.90838677958E+03  0.65864270000E+03 0. -1.
    8880022    1    1    2    0    0 -0.35923488916E+03 -0.48349853686E+02  0.27825240305E+03  0.48187494929E+03  0.15294330000E+03 0.  0.
<mgrwt>
<rscale>  0 0.63942432E+03</rscale>
<asrwt>0</asrwt>
<pdfrwt beam="1">  1        2 0.12476006E+00 0.75179626E+03</pdfrwt>
<pdfrwt beam="2">  1       -2 0.89126358E-01 0.75179626E+03</pdfrwt>
<totfact> 0.37070057E+01</totfact>
</mgrwt>
</event>
<event>
 4    2  0.3171963E-007  0.1162174E+04  0.7818608E-02  0.9194799E-01
          2   -1    0    0  501    0  0.00000000000E+00  0.00000000000E+00  0.15463751591E+04  0.15463751591E+04  0.25500000000E-02 0. -1.
         -2   -1    0    0    0  501 -0.00000000000E+00 -0.00000000000E+00 -0.15269268015E+04  0.15269268015E+04  0.25500000000E-02 0.  1.
    8880023    1    1    2    0    0 -0.88944402639E+03  0.35458073009E+03  0.11148050858E+04  0.16104157090E+04  0.65864270000E+03 0.  0.
    8880022    1    1    2    0    0  0.88944402639E+03 -0.35458073009E+03 -0.10953567282E+04  0.14628862516E+04  0.15294330000E+03 0.  0.
<mgrwt>
<rscale>  0 0.11107277E+04</rscale>
<asrwt>0</asrwt>
<pdfrwt beam="1">  1        2 0.23790387E+00 0.11621740E+04</pdfrwt>
<pdfrwt beam="2">  1       -2 0.23491182E+00 0.11621740E+04</pdfrwt>
<totfact> 0.92874341E-01</totfact>
</mgrwt>
</event>
<event>
 4    2  0.3171963E-007  0.7859502E+03  0.7818608E-02  0.9742041E-01
          2   -1    0    0  501    0  0.00000000000E+00  0.00000000000E+00  0.98777205392E+03  0.98777205393E+03  0.25500000000E-02 0. -1.
         -2   -1    0    0    0  501 -0.00000000000E+00 -0.00000000000E+00 -0.88232393280E+03  0.88232393281E+03  0.25500000000E-02 0.  1.
    8880023    1    1    2    0    0 -0.33345302105E+03  0.26966003887E+03  0.74639659251E+03  0.10838936910E+04  0.65864270000E+03 0.  0.
    8880022    1    1    2    0    0  0.33345302105E+03 -0.26966003887E+03 -0.64094847139E+03  0.78620229573E+03  0.15294330000E+03 0.  0.
<mgrwt>
<rscale>  0 0.68567914E+03</rscale>
<asrwt>0</asrwt>
<pdfrwt beam="1">  1        2 0.15196493E+00 0.78595016E+03</pdfrwt>
<pdfrwt beam="2">  1       -2 0.13574214E+00 0.78595016E+03</pdfrwt>
<totfact> 0.10110043E+01</totfact>
</mgrwt>
</event>
<event>
 4    2  0.3171963E-007  0.7593579E+03  0.7818608E-02  0.9806773E-01
         -2   -1    0    0    0  501 -0.00000000000E+00  0.00000000000E+00  0.25620463354E+03  0.25620463355E+03  0.25500000000E-02 0.  1.
          2   -1    0    0  501    0  0.00000000000E+00 -0.00000000000E+00 -0.22953878193E+04  0.22953878193E+04  0.25500000000E-02 0. -1.
    8880023    1    1    2    0    0  0.31392185788E+03 -0.21039793689E+03 -0.20032323551E+04  0.21423268423E+04  0.65864270000E+03 0.  0.
    8880022    1    1    2    0    0 -0.31392185788E+03  0.21039793689E+03 -0.35950830678E+02  0.40926561051E+03  0.15294330000E+03 0.  1.
<mgrwt>
<rscale>  0 0.65000349E+03</rscale>
<asrwt>0</asrwt>
<pdfrwt beam="1">  1        2 0.35313657E+00 0.75935791E+03</pdfrwt>
<pdfrwt beam="2">  1       -2 0.39416099E-01 0.75935791E+03</pdfrwt>
<totfact> 0.28807818E+01</totfact>
</mgrwt>
</event>
<event>
 4    2  0.3171963E-007  0.9354286E+03  0.7818608E-02  0.9471397E-01
          2   -1    0    0  501    0  0.00000000000E+00  0.00000000000E+00  0.42792832347E+04  0.42792832347E+04  0.25500000000E-02 0. -1.
         -2   -1    0    0    0  501 -0.00000000000E+00 -0.00000000000E+00 -0.21084452366E+03  0.21084452368E+03  0.25500000000E-02 0.  1.
    8880023    1    1    2    0    0 -0.37226689111E+03  0.55012170380E+03  0.34333221190E+04  0.35584726368E+04  0.65864270000E+03 0. -1.
    8880022    1    1    2    0    0  0.37226689111E+03 -0.55012170380E+03  0.63511659201E+03  0.93165512164E+03  0.15294330000E+03 0.  1.
<mgrwt>
<rscale>  0 0.86425888E+03</rscale>
<asrwt>0</asrwt>
<pdfrwt beam="1">  1        2 0.65835119E+00 0.93542864E+03</pdfrwt>
<pdfrwt beam="2">  1       -2 0.32437623E-01 0.93542864E+03</pdfrwt>
<totfact> 0.18906012E+00</totfact>
</mgrwt>
</event>
<event>
 4    2  0.3171963E-007  0.7038222E+03  0.7818608E-02  0.9981700E-01
         -2   -1    0    0    0  501 -0.00000000000E+00  0.00000000000E+00  0.63156920554E+03  0.63156920555E+03  0.25500000000E-02 0.  1.
          2   -1    0    0  501    0  0.00000000000E+00 -0.00000000000E+00 -0.20155447039E+04  0.20155447039E+04  0.25500000000E-02 0. -1.
    8880023    1    1    2    0    0 -0.19306056783E+03 -0.15583027965E+03 -0.19156170747E+04  0.20408220015E+04  0.65864270000E+03 0. -1.
    8880022    1    1    2    0    0  0.19306056783E+03  0.15583027965E+03  0.53164157632E+03  0.60629190791E+03  0.15294330000E+03 0.  0.
<mgrwt>
<rscale>  0 0.56459989E+03</rscale>
<asrwt>0</asrwt>
<pdfrwt beam="1">  1        2 0.31008380E+00 0.70382218E+03</pdfrwt>
<pdfrwt beam="2">  1       -2 0.97164494E-01 0.70382218E+03</pdfrwt>
<totfact> 0.60465749E+00</totfact>
</mgrwt>
</event>
<event>
 4    2  0.3171963E-007  0.6692290E+03  0.7818608E-02  0.1016222E+00
         -2   -1    0    0    0  501 -0.00000000000E+00  0.00000000000E+00  0.61209551274E+03  0.61209551274E+03  0.25500000000E-02 0.  1.
          2   -1    0    0  501    0  0.00000000000E+00 -0.00000000000E+00 -0.15254032804E+04  0.15254032804E+04  0.25500000000E-02 0. -1.
    8880023    1    1    2    0    0 -0.85736359396E+02  0.81893261321E+02 -0.14337476689E+04  0.15822451813E+04  0.65864270000E+03 0. -1.
    8880022    1    1    2    0    0  0.85736359396E+02 -0.81893261321E+02  0.52043990124E+03  0.55525361178E+03  0.15294330000E+03 0.  0.
<mgrwt>
<rscale>  0 0.49075069E+03</rscale>
<asrwt>0</asrwt>
<pdfrwt beam="1">  1        2 0.23467743E+00 0.66922899E+03</pdfrwt>
<pdfrwt beam="2">  1       -2 0.94168541E-01 0.66922899E+03</pdfrwt>
<totfact> 0.12113291E+01</totfact>
</mgrwt>
</event>
<event>
 4    2  0.3171963E-007  0.8888857E+03  0.7818608E-02  0.9544114E-01
         -2   -1    0    0    0  501 -0.00000000000E+00  0.00000000000E+00  0.93161727497E+03  0.93161727497E+03  0.25500000000E-02 0.  1.
          2   -1    0    0  501    0  0.00000000000E+00 -0.00000000000E+00 -0.17804488000E+04  0.17804488000E+04  0.25500000000E-02 0. -1.
    8880023    1    1    2    0    0  0.58234987231E+03 -0.13105830460E+03 -0.15449428891E+04  0.17824046650E+04  0.65864270000E+03 0. -1.
    8880022    1    1    2    0    0 -0.58234987231E+03  0.13105830460E+03  0.69611136407E+03  0.92966140997E+03  0.15294330000E+03 0.  0.
<mgrwt>
<rscale>  0 0.81108138E+03</rscale>
<asrwt>0</asrwt>
<pdfrwt beam="1">  1        2 0.27391520E+00 0.88888574E+03</pdfrwt>
<pdfrwt beam="2">  1       -2 0.14332573E+00 0.88888574E+03</pdfrwt>
<totfact> 0.30190398E+00</totfact>
</mgrwt>
</event>
<event>
 4    2  0.3171963E-007  0.6876658E+03  0.7818608E-02  0.1005282E+00
         -2   -1    0    0    0  501 -0.00000000000E+00  0.00000000000E+00  0.45417822967E+03  0.45417822967E+03  0.25500000000E-02 0.  1.
          2   -1    0    0  501    0  0.00000000000E+00 -0.00000000000E+00 -0.73494567010E+03  0.73494567011E+03  0.25500000000E-02 0. -1.
    8880023    1    1    2    0    0 -0.14332571992E+03  0.13613164973E+03 -0.50513589551E+03  0.85325644870E+03  0.65864270000E+03 0. -1.
    8880022    1    1    2    0    0  0.14332571992E+03 -0.13613164973E+03  0.22436845507E+03  0.33586745108E+03  0.15294330000E+03 0.  0.
<mgrwt>
<rscale>  0 0.53393491E+03</rscale>
<asrwt>0</asrwt>
<pdfrwt beam="1">  1        2 0.11306857E+00 0.68766583E+03</pdfrwt>
<pdfrwt beam="2">  1       -2 0.69873573E-01 0.68766583E+03</pdfrwt>
<totfact> 0.73086394E+01</totfact>
</mgrwt>
</event>
<event>
 4    2  0.3171963E-007  0.7414389E+03  0.7818608E-02  0.9855775E-01
          2   -1    0    0  501    0  0.00000000000E+00  0.00000000000E+00  0.18314240056E+04  0.18314240056E+04  0.25500000000E-02 0. -1.
         -2   -1    0    0    0  501 -0.00000000000E+00 -0.00000000000E+00 -0.26868710819E+03  0.26868710820E+03  0.25500000000E-02 0.  1.
    8880023    1    1    2    0    0 -0.13650610771E+03 -0.31190946705E+03  0.15595778123E+04  0.17268510625E+04  0.65864270000E+03 0. -1.
    8880022    1    1    2    0    0  0.13650610771E+03  0.31190946705E+03  0.31590851032E+01  0.37326005132E+03  0.15294330000E+03 0.  0.
<mgrwt>
<rscale>  0 0.62453318E+03</rscale>
<asrwt>0</asrwt>
<pdfrwt beam="1">  1        2 0.28175754E+00 0.74143890E+03</pdfrwt>
<pdfrwt beam="2">  1       -2 0.41336479E-01 0.74143890E+03</pdfrwt>
<totfact> 0.47253803E+01</totfact>
</mgrwt>
</event>
<event>
 4    2  0.3171963E-007  0.1148974E+04  0.7818608E-02  0.9208393E-01
         -2   -1    0    0    0  501 -0.00000000000E+00  0.00000000000E+00  0.55862967026E+03  0.55862967026E+03  0.25500000000E-02 0.  1.
          2   -1    0    0  501    0  0.00000000000E+00 -0.00000000000E+00 -0.19807927057E+04  0.19807927057E+04  0.25500000000E-02 0. -1.
    8880023    1    1    2    0    0 -0.75777298785E+03  0.55866963084E+03 -0.73678191709E+03  0.13649137178E+04  0.65864270000E+03 0.  0.
    8880022    1    1    2    0    0  0.75777298785E+03 -0.55866963084E+03 -0.68538111831E+03  0.11745086581E+04  0.15294330000E+03 0. -1.
<mgrwt>
<rscale>  0 0.10967216E+04</rscale>
<asrwt>0</asrwt>
<pdfrwt beam="1">  1        2 0.30473734E+00 0.11489743E+04</pdfrwt>
<pdfrwt beam="2">  1       -2 0.85943027E-01 0.11489743E+04</pdfrwt>
<totfact> 0.79305917E+00</totfact>
</mgrwt>
</event>
<event>
 4    2  0.3171963E-007  0.1523328E+04  0.7818608E-02  0.8893336E-01
          2   -1    0    0  501    0  0.00000000000E+00  0.00000000000E+00  0.23081712602E+04  0.23081712602E+04  0.25500000000E-02 0. -1.
         -2   -1    0    0    0  501 -0.00000000000E+00 -0.00000000000E+00 -0.15199086962E+04  0.15199086962E+04  0.25500000000E-02 0.  1.
    8880023    1    1    2    0    0 -0.12854905358E+04 -0.48397570242E+03  0.16130107399E+04  0.22186329691E+04  0.65864270000E+03 0. -1.
    8880022    1    1    2    0    0  0.12854905358E+04  0.48397570242E+03 -0.82474817589E+03  0.16094469873E+04  0.15294330000E+03 0.  0.
<mgrwt>
<rscale>  0 0.14867139E+04</rscale>
<asrwt>0</asrwt>
<pdfrwt beam="1">  1        2 0.35510327E+00 0.15233281E+04</pdfrwt>
<pdfrwt beam="2">  1       -2 0.23383211E+00 0.15233281E+04</pdfrwt>
<totfact> 0.33938845E-01</totfact>
</mgrwt>
</event>
<event>
 4    2  0.3171963E-007  0.6888486E+03  0.7818608E-02  0.1004705E+00
         -2   -1    0    0    0  501 -0.00000000000E+00  0.00000000000E+00  0.95009593856E+02  0.95009593890E+02  0.25500000000E-02 0.  1.
          2   -1    0    0  501    0  0.00000000000E+00 -0.00000000000E+00 -0.23539799952E+04  0.23539799952E+04  0.25500000000E-02 0. -1.
    8880023    1    1    2    0    0  0.17209071031E+03  0.10529472965E+03 -0.17452201908E+04  0.18762478284E+04  0.65864270000E+03 0.  0.
    8880022    1    1    2    0    0 -0.17209071031E+03 -0.10529472965E+03 -0.51375021047E+03  0.57274176069E+03  0.15294330000E+03 0.  0.
<mgrwt>
<rscale>  0 0.53634579E+03</rscale>
<asrwt>0</asrwt>
<pdfrwt beam="1">  1        2 0.36215073E+00 0.68884860E+03</pdfrwt>
<pdfrwt beam="2">  1       -2 0.14616862E-01 0.68884860E+03</pdfrwt>
<totfact> 0.16082724E+02</totfact>
</mgrwt>
</event>
<event>
 4    2  0.3171963E-007  0.7120783E+03  0.7818608E-02  0.9950363E-01
         -2   -1    0    0    0  501 -0.00000000000E+00  0.00000000000E+00  0.20580837442E+03  0.20580837444E+03  0.25500000000E-02 0.  1.
          2   -1    0    0  501    0  0.00000000000E+00 -0.00000000000E+00 -0.19210673161E+04  0.19210673161E+04  0.25500000000E-02 0. -1.
    8880023    1    1    2    0    0 -0.21307531191E+03  0.16686576560E+03 -0.16664379803E+04  0.18122006017E+04  0.65864270000E+03 0.  0.
    8880022    1    1    2    0    0  0.21307531191E+03 -0.16686576560E+03 -0.48820961391E+02  0.31467508888E+03  0.15294330000E+03 0.  0.
<mgrwt>
<rscale>  0 0.57881355E+03</rscale>
<asrwt>0</asrwt>
<pdfrwt beam="1">  1        2 0.29554881E+00 0.71207828E+03</pdfrwt>
<pdfrwt beam="2">  1       -2 0.31662828E-01 0.71207828E+03</pdfrwt>
<totfact> 0.70608856E+01</totfact>
</mgrwt>
</event>
<event>
 4    2  0.3171963E-007  0.6760521E+03  0.7818608E-02  0.1011651E+00
          2   -1    0    0  501    0  0.00000000000E+00  0.00000000000E+00  0.21266492715E+04  0.21266492715E+04  0.25500000000E-02 0. -1.
         -2   -1    0    0    0  501 -0.00000000000E+00 -0.00000000000E+00 -0.41296448052E+03  0.41296448053E+03  0.25500000000E-02 0.  1.
    8880023    1    1    2    0    0 -0.12309495369E+03 -0.89910524116E+02  0.20395613937E+04  0.21486873098E+04  0.65864270000E+03 0. -1.
    8880022    1    1    2    0    0  0.12309495369E+03  0.89910524116E+02 -0.32587660280E+03  0.39092644224E+03  0.15294330000E+03 0.  0.
<mgrwt>
<rscale>  0 0.50823655E+03</rscale>
<asrwt>0</asrwt>
<pdfrwt beam="1">  1        2 0.32717680E+00 0.67605213E+03</pdfrwt>
<pdfrwt beam="2">  1       -2 0.63532998E-01 0.67605213E+03</pdfrwt>
<totfact> 0.13670978E+01</totfact>
</mgrwt>
</event>
<event>
 4    2  0.3171963E-007  0.6877228E+03  0.7818608E-02  0.1005254E+00
         -2   -1    0    0    0  501 -0.00000000000E+00  0.00000000000E+00  0.42942195844E+03  0.42942195844E+03  0.25500000000E-02 0.  1.
          2   -1    0    0  501    0  0.00000000000E+00 -0.00000000000E+00 -0.75080901848E+03  0.75080901849E+03  0.25500000000E-02 0. -1.
    8880023    1    1    2    0    0  0.17977948909E+03  0.82654208783E+02 -0.51892586335E+03  0.86153737054E+03  0.65864270000E+03 0. -1.
    8880022    1    1    2    0    0 -0.17977948909E+03 -0.82654208783E+02  0.19753880330E+03  0.31869360639E+03  0.15294330000E+03 0.  0.
<mgrwt>
<rscale>  0 0.53405168E+03</rscale>
<asrwt>0</asrwt>
<pdfrwt beam="1">  1        2 0.11550908E+00 0.68772276E+03</pdfrwt>
<pdfrwt beam="2">  1       -2 0.66064917E-01 0.68772276E+03</pdfrwt>
<totfact> 0.80287291E+01</totfact>
</mgrwt>
</event>
<event>
 4    2  0.3171963E-007  0.6780564E+03  0.7818608E-02  0.1010445E+00
          2   -1    0    0  501    0  0.00000000000E+00  0.00000000000E+00  0.59374894218E+03  0.59374894219E+03  0.25500000000E-02 0. -1.
         -2   -1    0    0    0  501 -0.00000000000E+00 -0.00000000000E+00 -0.75349751557E+03  0.75349751557E+03  0.25500000000E-02 0.  1.
    8880023    1    1    2    0    0 -0.15920075918E+03 -0.24604504894E+02  0.37026655368E+03  0.77256571916E+03  0.65864270000E+03 0. -1.
    8880022    1    1    2    0    0  0.15920075918E+03  0.24604504894E+02 -0.53001512706E+03  0.57468073860E+03  0.15294330000E+03 0.  0.
<mgrwt>
<rscale>  0 0.51298110E+03</rscale>
<asrwt>0</asrwt>
<pdfrwt beam="1">  1        2 0.91345991E-01 0.67805639E+03</pdfrwt>
<pdfrwt beam="2">  1       -2 0.11592269E+00 0.67805639E+03</pdfrwt>
<totfact> 0.29596866E+01</totfact>
</mgrwt>
</event>
<event>
 4    2  0.3171963E-007  0.7962990E+03  0.7818608E-02  0.9718856E-01
          2   -1    0    0  501    0  0.00000000000E+00  0.00000000000E+00  0.15482838776E+04  0.15482838776E+04  0.25500000000E-02 0. -1.
         -2   -1    0    0    0  501 -0.00000000000E+00 -0.00000000000E+00 -0.36368489057E+03  0.36368489058E+03  0.25500000000E-02 0.  1.
    8880023    1    1    2    0    0  0.30606839674E+02  0.44648083136E+03  0.20206799750E+03  0.82153733530E+03  0.65864270000E+03 0.  0.
    8880022    1    1    2    0    0 -0.30606839674E+02 -0.44648083136E+03  0.98253098948E+03  0.10904314328E+04  0.15294330000E+03 0.  0.
<mgrwt>
<rscale>  0 0.69905117E+03</rscale>
<asrwt>0</asrwt>
<pdfrwt beam="1">  1        2 0.23819752E+00 0.79629901E+03</pdfrwt>
<pdfrwt beam="2">  1       -2 0.55951521E-01 0.79629901E+03</pdfrwt>
<totfact> 0.36422868E+01</totfact>
</mgrwt>
</event>
<event>
 4    2  0.3171963E-007  0.1196693E+04  0.7818608E-02  0.9160344E-01
         -2   -1    0    0    0  501 -0.00000000000E+00  0.00000000000E+00  0.15248733239E+04  0.15248733239E+04  0.25500000000E-02 0.  1.
          2   -1    0    0  501    0  0.00000000000E+00 -0.00000000000E+00 -0.12035208737E+04  0.12035208737E+04  0.25500000000E-02 0. -1.
    8880023    1    1    2    0    0  0.84768034465E+03  0.52886792199E+03 -0.61947165899E+03  0.13475231308E+04  0.65864270000E+03 0.  0.
    8880022    1    1    2    0    0 -0.84768034465E+03 -0.52886792199E+03  0.94082410918E+03  0.13808710668E+04  0.15294330000E+03 0.  0.
<mgrwt>
<rscale>  0 0.11472287E+04</rscale>
<asrwt>0</asrwt>
<pdfrwt beam="1">  1        2 0.18515706E+00 0.11966927E+04</pdfrwt>
<pdfrwt beam="2">  1       -2 0.23459590E+00 0.11966927E+04</pdfrwt>
<totfact> 0.14665487E+00</totfact>
</mgrwt>
</event>
<event>
 4    2  0.3171963E-007  0.8108838E+03  0.7818608E-02  0.9687739E-01
         -2   -1    0    0    0  501 -0.00000000000E+00  0.00000000000E+00  0.50644418430E+03  0.50644418430E+03  0.25500000000E-02 0.  1.
          2   -1    0    0  501    0  0.00000000000E+00 -0.00000000000E+00 -0.13197962462E+04  0.13197962462E+04  0.25500000000E-02 0. -1.
    8880023    1    1    2    0    0  0.39785426263E+03 -0.25580126003E+03 -0.10068704574E+04  0.12927956618E+04  0.65864270000E+03 0.  0.
    8880022    1    1    2    0    0 -0.39785426263E+03  0.25580126003E+03  0.19351839543E+03  0.53344476875E+03  0.15294330000E+03 0.  0.
<mgrwt>
<rscale>  0 0.71751522E+03</rscale>
<asrwt>0</asrwt>
<pdfrwt beam="1">  1        2 0.20304558E+00 0.81088378E+03</pdfrwt>
<pdfrwt beam="2">  1       -2 0.77914490E-01 0.81088378E+03</pdfrwt>
<totfact> 0.23942779E+01</totfact>
</mgrwt>
</event>
<event>
 4    2  0.3171963E-007  0.6649681E+03  0.7818608E-02  0.1019560E+00
         -2   -1    0    0    0  501 -0.00000000000E+00  0.00000000000E+00  0.12525868771E+04  0.12525868771E+04  0.25500000000E-02 0.  1.
          2   -1    0    0  501    0  0.00000000000E+00 -0.00000000000E+00 -0.10613983003E+04  0.10613983003E+04  0.25500000000E-02 0. -1.
    8880023    1    1    2    0    0 -0.74106139278E+02  0.53671558433E+02 -0.94964524630E+03  0.11593138730E+04  0.65864270000E+03 0. -1.
    8880022    1    1    2    0    0  0.74106139278E+02 -0.53671558433E+02  0.11408338232E+04  0.11546713044E+04  0.15294330000E+03 0.  0.
<mgrwt>
<rscale>  0 0.47845657E+03</rscale>
<asrwt>0</asrwt>
<pdfrwt beam="1">  1        2 0.16329205E+00 0.66496809E+03</pdfrwt>
<pdfrwt beam="2">  1       -2 0.19270567E+00 0.66496809E+03</pdfrwt>
<totfact> 0.35523848E+00</totfact>
</mgrwt>
</event>
<event>
 4    2  0.3171963E-007  0.7695681E+03  0.7818608E-02  0.9780938E-01
          2   -1    0    0  501    0  0.00000000000E+00  0.00000000000E+00  0.31135396700E+04  0.31135396700E+04  0.25500000000E-02 0. -1.
         -2   -1    0    0    0  501 -0.00000000000E+00 -0.00000000000E+00 -0.16904604729E+03  0.16904604730E+03  0.25500000000E-02 0.  1.
    8880023    1    1    2    0    0 -0.34336904243E+03 -0.20130219552E+03  0.26622242964E+04  0.27712223447E+04  0.65864270000E+03 0. -1.
    8880022    1    1    2    0    0  0.34336904243E+03  0.20130219552E+03  0.28226932627E+03  0.51136337255E+03  0.15294330000E+03 0.  0.
<mgrwt>
<rscale>  0 0.66395626E+03</rscale>
<asrwt>0</asrwt>
<pdfrwt beam="1">  1        2 0.47900609E+00 0.76956811E+03</pdfrwt>
<pdfrwt beam="2">  1       -2 0.26007085E-01 0.76956811E+03</pdfrwt>
<totfact> 0.20844808E+01</totfact>
</mgrwt>
</event>
<event>
 4    2  0.3171963E-007  0.9587729E+03  0.7818608E-02  0.9437602E-01
          2   -1    0    0  501    0  0.00000000000E+00  0.00000000000E+00  0.18390002741E+04  0.18390002741E+04  0.25500000000E-02 0. -1.
         -2   -1    0    0    0  501 -0.00000000000E+00 -0.00000000000E+00 -0.41359713743E+03  0.41359713744E+03  0.25500000000E-02 0.  1.
    8880023    1    1    2    0    0 -0.68740831698E+03  0.11360091068E+03  0.11262602132E+04  0.14790901376E+04  0.65864270000E+03 0.  0.
    8880022    1    1    2    0    0  0.68740831698E+03 -0.11360091068E+03  0.29914292356E+03  0.77350727397E+03  0.15294330000E+03 0.  0.
<mgrwt>
<rscale>  0 0.89044705E+03</rscale>
<asrwt>0</asrwt>
<pdfrwt beam="1">  1        2 0.28292312E+00 0.95877295E+03</pdfrwt>
<pdfrwt beam="2">  1       -2 0.63630328E-01 0.95877295E+03</pdfrwt>
<totfact> 0.18866683E+01</totfact>
</mgrwt>
</event>
<event>
 4    2  0.3171963E-007  0.7202911E+03  0.7818608E-02  0.9921602E-01
         -2   -1    0    0    0  501 -0.00000000000E+00  0.00000000000E+00  0.82878395197E+03  0.82878395197E+03  0.25500000000E-02 0.  1.
          2   -1    0    0  501    0  0.00000000000E+00 -0.00000000000E+00 -0.15832223710E+04  0.15832223710E+04  0.25500000000E-02 0. -1.
    8880023    1    1    2    0    0 -0.29043252617E+03 -0.25652381800E+02 -0.14629916713E+04  0.16306943103E+04  0.65864270000E+03 0.  0.
    8880022    1    1    2    0    0  0.29043252617E+03  0.25652381800E+02  0.70855325225E+03  0.78131201274E+03  0.15294330000E+03 0.  1.
<mgrwt>
<rscale>  0 0.59225684E+03</rscale>
<asrwt>0</asrwt>
<pdfrwt beam="1">  1        2 0.24357267E+00 0.72029112E+03</pdfrwt>
<pdfrwt beam="2">  1       -2 0.12750522E+00 0.72029112E+03</pdfrwt>
<totfact> 0.53628306E+00</totfact>
</mgrwt>
</event>
<event>
 4    2  0.3171963E-007  0.6969936E+03  0.7818608E-02  0.1000991E+00
          2   -1    0    0  501    0  0.00000000000E+00  0.00000000000E+00  0.74838996423E+03  0.74838996424E+03  0.25500000000E-02 0. -1.
         -2   -1    0    0    0  501 -0.00000000000E+00 -0.00000000000E+00 -0.67069087341E+03  0.67069087342E+03  0.25500000000E-02 0.  1.
    8880023    1    1    2    0    0 -0.20630838124E+03 -0.97091036962E+02  0.53979239247E+03  0.88157577715E+03  0.65864270000E+03 0. -1.
    8880022    1    1    2    0    0  0.20630838124E+03  0.97091036962E+02 -0.46209330165E+03  0.53750506051E+03  0.15294330000E+03 0.  0.
<mgrwt>
<rscale>  0 0.55217870E+03</rscale>
<asrwt>0</asrwt>
<pdfrwt beam="1">  1        2 0.11513692E+00 0.69699356E+03</pdfrwt>
<pdfrwt beam="2">  1       -2 0.10318321E+00 0.69699356E+03</pdfrwt>
<totfact> 0.29362789E+01</totfact>
</mgrwt>
</event>
<event>
 4    2  0.3171963E-007  0.8553697E+03  0.7818608E-02  0.9601854E-01
          2   -1    0    0  501    0  0.00000000000E+00  0.00000000000E+00  0.11674529605E+04  0.11674529605E+04  0.25500000000E-02 0. -1.
         -2   -1    0    0    0  501 -0.00000000000E+00 -0.00000000000E+00 -0.64474132852E+03  0.64474132852E+03  0.25500000000E-02 0.  1.
    8880023    1    1    2    0    0 -0.52082065189E+03 -0.16307324980E+03  0.80888617025E+03  0.11772655091E+04  0.65864270000E+03 0. -1.
    8880022    1    1    2    0    0  0.52082065189E+03  0.16307324980E+03 -0.28617453825E+03  0.63492877994E+03  0.15294330000E+03 0.  0.
<mgrwt>
<rscale>  0 0.77173618E+03</rscale>
<asrwt>0</asrwt>
<pdfrwt beam="1">  1        2 0.17960814E+00 0.85536965E+03</pdfrwt>
<pdfrwt beam="2">  1       -2 0.99190975E-01 0.85536965E+03</pdfrwt>
<totfact> 0.16808146E+01</totfact>
</mgrwt>
</event>
<event>
 4    2  0.3171963E-007  0.1764938E+04  0.7818608E-02  0.8742184E-01
          2   -1    0    0  501    0  0.00000000000E+00  0.00000000000E+00  0.36769912169E+04  0.36769912169E+04  0.25500000000E-02 0. -1.
         -2   -1    0    0    0  501 -0.00000000000E+00 -0.00000000000E+00 -0.97873664194E+03  0.97873664195E+03  0.25500000000E-02 0.  1.
    8880023    1    1    2    0    0  0.15163314004E+04 -0.61800796956E+03  0.36686108102E+03  0.18026624823E+04  0.65864270000E+03 0.  0.
    8880022    1    1    2    0    0 -0.15163314004E+04  0.61800796956E+03  0.23313934940E+04  0.28530653766E+04  0.15294330000E+03 0.  0.
<mgrwt>
<rscale>  0 0.17340421E+04</rscale>
<asrwt>0</asrwt>
<pdfrwt beam="1">  1        2 0.56569097E+00 0.17649377E+04</pdfrwt>
<pdfrwt beam="2">  1       -2 0.15057487E+00 0.17649377E+04</pdfrwt>
<totfact> 0.16661862E-01</totfact>
</mgrwt>
</event>
<event>
 4    2  0.3171963E-007  0.1278267E+04  0.7818608E-02  0.9084559E-01
         -2   -1    0    0    0  501 -0.00000000000E+00  0.00000000000E+00  0.11065825257E+04  0.11065825257E+04  0.25500000000E-02 0.  1.
          2   -1    0    0  501    0  0.00000000000E+00 -0.00000000000E+00 -0.23767919054E+04  0.23767919054E+04  0.25500000000E-02 0. -1.
    8880023    1    1    2    0    0  0.53710919818E+03  0.95481385423E+03 -0.18389562423E+04  0.22395816695E+04  0.65864270000E+03 0.  0.
    8880022    1    1    2    0    0 -0.53710919818E+03 -0.95481385423E+03  0.56874686262E+03  0.12437927616E+04  0.15294330000E+03 0.  0.
<mgrwt>
<rscale>  0 0.12328741E+04</rscale>
<asrwt>0</asrwt>
<pdfrwt beam="1">  1        2 0.36566029E+00 0.12782668E+04</pdfrwt>
<pdfrwt beam="2">  1       -2 0.17024347E+00 0.12782668E+04</pdfrwt>
<totfact> 0.84019265E-01</totfact>
</mgrwt>
</event>
<event>
 4    2  0.3171963E-007  0.6752868E+03  0.7818608E-02  0.1012126E+00
          2   -1    0    0  501    0  0.00000000000E+00  0.00000000000E+00  0.13439549256E+04  0.13439549256E+04  0.25500000000E-02 0. -1.
         -2   -1    0    0    0  501 -0.00000000000E+00 -0.00000000000E+00 -0.72850647799E+03  0.72850647800E+03  0.25500000000E-02 0.  1.
    8880023    1    1    2    0    0 -0.45238345968E+02 -0.14197027007E+03  0.12402542306E+04  0.14121766279E+04  0.65864270000E+03 0. -1.
    8880022    1    1    2    0    0  0.45238345968E+02  0.14197027007E+03 -0.62480578301E+03  0.66028477571E+03  0.15294330000E+03 0.  0.
<mgrwt>
<rscale>  0 0.50638324E+03</rscale>
<asrwt>0</asrwt>
<pdfrwt beam="1">  1        2 0.20676229E+00 0.67528681E+03</pdfrwt>
<pdfrwt beam="2">  1       -2 0.11207792E+00 0.67528681E+03</pdfrwt>
<totfact> 0.10104915E+01</totfact>
</mgrwt>
</event>
<event>
 4    2  0.3171963E-007  0.1251930E+04  0.7818608E-02  0.9108224E-01
         -2   -1    0    0    0  501 -0.00000000000E+00  0.00000000000E+00  0.11058683157E+04  0.11058683157E+04  0.25500000000E-02 0.  1.
          2   -1    0    0  501    0  0.00000000000E+00 -0.00000000000E+00 -0.13151539797E+04  0.13151539797E+04  0.25500000000E-02 0. -1.
    8880023    1    1    2    0    0  0.10637252685E+04  0.44806335177E+02 -0.42865576029E+03  0.13232819132E+04  0.65864270000E+03 0.  0.
    8880022    1    1    2    0    0 -0.10637252685E+04 -0.44806335177E+02  0.21937009632E+03  0.10977403822E+04  0.15294330000E+03 0.  0.
<mgrwt>
<rscale>  0 0.12053067E+04</rscale>
<asrwt>0</asrwt>
<pdfrwt beam="1">  1        2 0.20233138E+00 0.12519302E+04</pdfrwt>
<pdfrwt beam="2">  1       -2 0.17013359E+00 0.12519302E+04</pdfrwt>
<totfact> 0.33296645E+00</totfact>
</mgrwt>
</event>
<event>
 4    2  0.3171963E-007  0.7845696E+03  0.7818608E-02  0.9745210E-01
         -2   -1    0    0    0  501 -0.00000000000E+00  0.00000000000E+00  0.65497645660E+03  0.65497645660E+03  0.25500000000E-02 0.  1.
          2   -1    0    0  501    0  0.00000000000E+00 -0.00000000000E+00 -0.89723701376E+03  0.89723701377E+03  0.25500000000E-02 0. -1.
    8880023    1    1    2    0    0 -0.15289512554E+01 -0.42630609712E+03 -0.58962466602E+03  0.98143093449E+03  0.65864270000E+03 0. -1.
    8880022    1    1    2    0    0  0.15289512554E+01  0.42630609712E+03  0.34736410885E+03  0.57078253588E+03  0.15294330000E+03 0.  0.
<mgrwt>
<rscale>  0 0.68387619E+03</rscale>
<asrwt>0</asrwt>
<pdfrwt beam="1">  1        2 0.13803646E+00 0.78456958E+03</pdfrwt>
<pdfrwt beam="2">  1       -2 0.10076561E+00 0.78456958E+03</pdfrwt>
<totfact> 0.24172210E+01</totfact>
</mgrwt>
</event>
<event>
 4    2  0.3171963E-007  0.6892940E+03  0.7818608E-02  0.1004490E+00
          2   -1    0    0  501    0  0.00000000000E+00  0.00000000000E+00  0.70602262540E+03  0.70602262540E+03  0.25500000000E-02 0. -1.
         -2   -1    0    0    0  501 -0.00000000000E+00 -0.00000000000E+00 -0.38840945596E+03  0.38840945597E+03  0.25500000000E-02 0.  1.
    8880023    1    1    2    0    0  0.17559595084E+03  0.10238203367E+03  0.43415751666E+03  0.81462812025E+03  0.65864270000E+03 0. -1.
    8880022    1    1    2    0    0 -0.17559595084E+03 -0.10238203367E+03 -0.11654434722E+03  0.27980396111E+03  0.15294330000E+03 0.  0.
<mgrwt>
<rscale>  0 0.53724558E+03</rscale>
<asrwt>0</asrwt>
<pdfrwt beam="1">  1        2 0.10861887E+00 0.68929400E+03</pdfrwt>
<pdfrwt beam="2">  1       -2 0.59755301E-01 0.68929400E+03</pdfrwt>
<totfact> 0.10753240E+02</totfact>
</mgrwt>
</event>
<event>
 4    2  0.3171963E-007  0.9601236E+03  0.7818608E-02  0.9435696E-01
          2   -1    0    0  501    0  0.00000000000E+00  0.00000000000E+00  0.11600185848E+04  0.11600185848E+04  0.25500000000E-02 0. -1.
         -2   -1    0    0    0  501 -0.00000000000E+00 -0.00000000000E+00 -0.13696409012E+04  0.13696409012E+04  0.25500000000E-02 0.  1.
    8880023    1    1    2    0    0 -0.19387271671E+03  0.67114860216E+03  0.82910255296E+03  0.12685615184E+04  0.65864270000E+03 0. -1.
    8880022    1    1    2    0    0  0.19387271671E+03 -0.67114860216E+03 -0.10387248694E+04  0.12610979675E+04  0.15294330000E+03 0.  0.
<mgrwt>
<rscale>  0 0.89195394E+03</rscale>
<asrwt>0</asrwt>
<pdfrwt beam="1">  1        2 0.17846440E+00 0.96012358E+03</pdfrwt>
<pdfrwt beam="2">  1       -2 0.21071398E+00 0.96012358E+03</pdfrwt>
<totfact> 0.22634104E+00</totfact>
</mgrwt>
</event>
<event>
 4    2  0.3606512E-007  0.6969837E+03  0.7818608E-02  0.1000995E+00
         -2   -1    0    0    0  501 -0.00000000000E+00  0.00000000000E+00  0.73005100711E+03  0.73005100712E+03  0.25500000000E-02 0.  1.
          2   -1    0    0  501    0  0.00000000000E+00 -0.00000000000E+00 -0.27987979204E+04  0.27987979204E+04  0.25500000000E-02 0. -1.
    8880023    1    1    2    0    0 -0.17630399218E+03  0.14454401716E+03 -0.27275183858E+04  0.28151630187E+04  0.65864270000E+03 0. -1.
    8880022    1    1    2    0    0  0.17630399218E+03 -0.14454401716E+03  0.65877147248E+03  0.71368590887E+03  0.15294330000E+03 0.  0.
<mgrwt>
<rscale>  0 0.55216025E+03</rscale>
<asrwt>0</asrwt>
<pdfrwt beam="1">  1        2 0.43058429E+00 0.69698370E+03</pdfrwt>
<pdfrwt beam="2">  1       -2 0.11231554E+00 0.69698370E+03</pdfrwt>
<totfact> 0.15525338E+00</totfact>
</mgrwt>
</event>
<event>
 4    2  0.3171963E-007  0.8303784E+03  0.7818608E-02  0.9648597E-01
          2   -1    0    0  501    0  0.00000000000E+00  0.00000000000E+00  0.34522757555E+04  0.34522757555E+04  0.25500000000E-02 0. -1.
         -2   -1    0    0    0  501 -0.00000000000E+00 -0.00000000000E+00 -0.18787372622E+03  0.18787372624E+03  0.25500000000E-02 0.  1.
    8880023    1    1    2    0    0  0.49667722602E+03  0.95025645440E+02  0.28505771685E+04  0.29690602115E+04  0.65864270000E+03 0.  1.
    8880022    1    1    2    0    0 -0.49667722602E+03 -0.95025645440E+02  0.41382486085E+03  0.67108927022E+03  0.15294330000E+03 0.  0.
<mgrwt>
<rscale>  0 0.74161573E+03</rscale>
<asrwt>0</asrwt>
<pdfrwt beam="1">  1        2 0.53111938E+00 0.83037844E+03</pdfrwt>
<pdfrwt beam="2">  1       -2 0.28903648E-01 0.83037844E+03</pdfrwt>
<totfact> 0.10244134E+01</totfact>
</mgrwt>
</event>
<event>
 4    2  0.3171963E-007  0.7200734E+03  0.7818608E-02  0.9922338E-01
         -2   -1    0    0    0  501 -0.00000000000E+00  0.00000000000E+00  0.14519425885E+03  0.14519425888E+03  0.25500000000E-02 0.  1.
          2   -1    0    0  501    0  0.00000000000E+00 -0.00000000000E+00 -0.24188666535E+04  0.24188666535E+04  0.25500000000E-02 0. -1.
    8880023    1    1    2    0    0 -0.28155526173E+03  0.73634864832E+02 -0.20326066417E+04  0.21563848044E+04  0.65864270000E+03 0. -1.
    8880022    1    1    2    0    0  0.28155526173E+03 -0.73634864832E+02 -0.24106575297E+03  0.40767610795E+03  0.15294330000E+03 0.  0.
<mgrwt>
<rscale>  0 0.59190813E+03</rscale>
<asrwt>0</asrwt>
<pdfrwt beam="1">  1        2 0.37213330E+00 0.72007337E+03</pdfrwt>
<pdfrwt beam="2">  1       -2 0.22337580E-01 0.72007337E+03</pdfrwt>
<totfact> 0.70845232E+01</totfact>
</mgrwt>
</event>
<event>
 4    2  0.3171963E-007  0.8066170E+03  0.7818608E-02  0.9696667E-01
          2   -1    0    0  501    0  0.00000000000E+00  0.00000000000E+00  0.10511629286E+04  0.10511629286E+04  0.25500000000E-02 0. -1.
         -2   -1    0    0    0  501 -0.00000000000E+00 -0.00000000000E+00 -0.14510500810E+04  0.14510500810E+04  0.25500000000E-02 0.  1.
    8880023    1    1    2    0    0 -0.31977006403E+03 -0.33847871742E+03  0.84266251417E+03  0.11664952015E+04  0.65864270000E+03 0. -1.
    8880022    1    1    2    0    0  0.31977006403E+03  0.33847871742E+03 -0.12425496665E+04  0.13357178081E+04  0.15294330000E+03 0.  0.
<mgrwt>
<rscale>  0 0.71215568E+03</rscale>
<asrwt>0</asrwt>
<pdfrwt beam="1">  1        2 0.16171737E+00 0.80661697E+03</pdfrwt>
<pdfrwt beam="2">  1       -2 0.22323847E+00 0.80661697E+03</pdfrwt>
<totfact> 0.22472924E+00</totfact>
</mgrwt>
</event>
<event>
 4    2  0.3171963E-007  0.1276164E+04  0.7818608E-02  0.9086422E-01
         -2   -1    0    0    0  501 -0.00000000000E+00  0.00000000000E+00  0.88201269457E+03  0.88201269457E+03  0.25500000000E-02 0.  1.
          2   -1    0    0  501    0  0.00000000000E+00 -0.00000000000E+00 -0.16224751621E+04  0.16224751621E+04  0.25500000000E-02 0. -1.
    8880023    1    1    2    0    0 -0.10860176636E+04 -0.12389619104E+03 -0.52504564761E+03  0.13799520898E+04  0.65864270000E+03 0. -1.
    8880022    1    1    2    0    0  0.10860176636E+04  0.12389619104E+03 -0.21541681991E+03  0.11245357669E+04  0.15294330000E+03 0.  1.
<mgrwt>
<rscale>  0 0.12306758E+04</rscale>
<asrwt>0</asrwt>
<pdfrwt beam="1">  1        2 0.24961156E+00 0.12761641E+04</pdfrwt>
<pdfrwt beam="2">  1       -2 0.13569426E+00 0.12761641E+04</pdfrwt>
<totfact> 0.40764569E+00</totfact>
</mgrwt>
</event>
<event>
 4    2  0.3171963E-007  0.7990027E+03  0.7818608E-02  0.9712957E-01
          2   -1    0    0  501    0  0.00000000000E+00  0.00000000000E+00  0.30532499067E+04  0.30532499067E+04  0.25500000000E-02 0. -1.
         -2   -1    0    0    0  501 -0.00000000000E+00 -0.00000000000E+00 -0.17676472760E+03  0.17676472762E+03  0.25500000000E-02 0.  1.
    8880023    1    1    2    0    0  0.39276744516E+03 -0.22434102290E+03  0.24920570120E+04  0.26170123266E+04  0.65864270000E+03 0. -1.
    8880022    1    1    2    0    0 -0.39276744516E+03  0.22434102290E+03  0.38442816711E+03  0.61300230767E+03  0.15294330000E+03 0.  0.
<mgrwt>
<rscale>  0 0.70250580E+03</rscale>
<asrwt>0</asrwt>
<pdfrwt beam="1">  1        2 0.46973075E+00 0.79900273E+03</pdfrwt>
<pdfrwt beam="2">  1       -2 0.27194574E-01 0.79900273E+03</pdfrwt>
<totfact> 0.20852981E+01</totfact>
</mgrwt>
</event>
<event>
 4    2  0.3547903E-007  0.6635853E+03  0.7818608E-02  0.1020751E+00
          2   -1    0    0  501    0  0.00000000000E+00  0.00000000000E+00  0.31414421539E+04  0.31414421539E+04  0.25500000000E-02 0. -1.
         -2   -1    0    0    0  501 -0.00000000000E+00 -0.00000000000E+00 -0.64457454734E+03  0.64457454735E+03  0.25500000000E-02 0.  1.
    8880023    1    1    2    0    0 -0.52676353332E+02  0.61322041378E+02  0.30939841086E+04  0.31643455977E+04  0.65864270000E+03 0. -1.
    8880022    1    1    2    0    0  0.52676353332E+02 -0.61322041378E+02 -0.59711650206E+03  0.62167110356E+03  0.15294330000E+03 0.  0.
<mgrwt>
<rscale>  0 0.47416573E+03</rscale>
<asrwt>0</asrwt>
<pdfrwt beam="1">  1        2 0.48329879E+00 0.66358526E+03</pdfrwt>
<pdfrwt beam="2">  1       -2 0.99165316E-01 0.66358526E+03</pdfrwt>
<totfact> 0.13066910E+00</totfact>
</mgrwt>
</event>
<event>
 4    2  0.3171963E-007  0.8374116E+03  0.7818608E-02  0.9635080E-01
          2   -1    0    0  501    0  0.00000000000E+00  0.00000000000E+00  0.18180223628E+04  0.18180223628E+04  0.25500000000E-02 0. -1.
         -2   -1    0    0    0  501 -0.00000000000E+00 -0.00000000000E+00 -0.80065653792E+03  0.80065653792E+03  0.25500000000E-02 0.  1.
    8880023    1    1    2    0    0 -0.15398107085E+03 -0.49369810729E+03  0.16116188604E+04  0.18161975523E+04  0.65864270000E+03 0. -1.
    8880022    1    1    2    0    0  0.15398107085E+03  0.49369810729E+03 -0.59425303555E+03  0.80248134844E+03  0.15294330000E+03 0.  0.
<mgrwt>
<rscale>  0 0.75017214E+03</rscale>
<asrwt>0</asrwt>
<pdfrwt beam="1">  1        2 0.27969574E+00 0.83741161E+03</pdfrwt>
<pdfrwt beam="2">  1       -2 0.12317793E+00 0.83741161E+03</pdfrwt>
<totfact> 0.42714730E+00</totfact>
</mgrwt>
</event>
<event>
 4    2  0.3171963E-007  0.6629709E+03  0.7818608E-02  0.1021300E+00
         -2   -1    0    0    0  501 -0.00000000000E+00  0.00000000000E+00  0.61871892427E+03  0.61871892427E+03  0.25500000000E-02 0.  1.
          2   -1    0    0  501    0  0.00000000000E+00 -0.00000000000E+00 -0.12679475425E+04  0.12679475425E+04  0.25500000000E-02 0. -1.
    8880023    1    1    2    0    0  0.47289674779E+02 -0.59024845111E+02 -0.11666355959E+04  0.13418528480E+04  0.65864270000E+03 0.  0.
    8880022    1    1    2    0    0 -0.47289674779E+02  0.59024845111E+02  0.51740697767E+03  0.54481361881E+03  0.15294330000E+03 0.  1.
<mgrwt>
<rscale>  0 0.47220402E+03</rscale>
<asrwt>0</asrwt>
<pdfrwt beam="1">  1        2 0.19506885E+00 0.66297093E+03</pdfrwt>
<pdfrwt beam="2">  1       -2 0.95187527E-01 0.66297093E+03</pdfrwt>
<totfact> 0.16519622E+01</totfact>
</mgrwt>
</event>
<event>
 4    2  0.3171963E-007  0.8614180E+03  0.7818608E-02  0.9591046E-01
          2   -1    0    0  501    0  0.00000000000E+00  0.00000000000E+00  0.14763371149E+04  0.14763371149E+04  0.25500000000E-02 0. -1.
         -2   -1    0    0    0  501 -0.00000000000E+00 -0.00000000000E+00 -0.42098438844E+03  0.42098438845E+03  0.25500000000E-02 0.  1.
    8880023    1    1    2    0    0 -0.55466009809E+03  0.24143227161E+02  0.23118896306E+03  0.89190204773E+03  0.65864270000E+03 0.  1.
    8880022    1    1    2    0    0  0.55466009809E+03 -0.24143227161E+02  0.82416376339E+03  0.10054194556E+04  0.15294330000E+03 0. -1.
<mgrwt>
<rscale>  0 0.77891654E+03</rscale>
<asrwt>0</asrwt>
<pdfrwt beam="1">  1        2 0.22712879E+00 0.86141797E+03</pdfrwt>
<pdfrwt beam="2">  1       -2 0.64766828E-01 0.86141797E+03</pdfrwt>
<totfact> 0.29115440E+01</totfact>
</mgrwt>
</event>
<event>
 4    2  0.3171963E-007  0.6928121E+03  0.7818608E-02  0.1002844E+00
          2   -1    0    0  501    0  0.00000000000E+00  0.00000000000E+00  0.29948356959E+04  0.29948356959E+04  0.25500000000E-02 0. -1.
         -2   -1    0    0    0  501 -0.00000000000E+00 -0.00000000000E+00 -0.23513981521E+03  0.23513981523E+03  0.25500000000E-02 0.  1.
    8880023    1    1    2    0    0  0.19142396255E+03 -0.97648857239E+02  0.28638012557E+04  0.29464124408E+04  0.65864270000E+03 0. -1.
    8880022    1    1    2    0    0 -0.19142396255E+03  0.97648857239E+02 -0.10410537500E+03  0.28356307037E+03  0.15294330000E+03 0.  0.
<mgrwt>
<rscale>  0 0.54420738E+03</rscale>
<asrwt>0</asrwt>
<pdfrwt beam="1">  1        2 0.46074389E+00 0.69281212E+03</pdfrwt>
<pdfrwt beam="2">  1       -2 0.36175361E-01 0.69281212E+03</pdfrwt>
<totfact> 0.13525643E+01</totfact>
</mgrwt>
</event>
<event>
 4    2  0.3171963E-007  0.8181773E+03  0.7818608E-02  0.9672789E-01
         -2   -1    0    0    0  501 -0.00000000000E+00  0.00000000000E+00  0.10648803647E+03  0.10648803650E+03  0.25500000000E-02 0.  1.
          2   -1    0    0  501    0  0.00000000000E+00 -0.00000000000E+00 -0.46716315287E+04  0.46716315287E+04  0.25500000000E-02 0. -1.
    8880023    1    1    2    0    0 -0.17467753267E+03 -0.45287037133E+03 -0.35436043124E+04  0.36368318002E+04  0.65864270000E+03 0.  0.
    8880022    1    1    2    0    0  0.17467753267E+03  0.45287037133E+03 -0.10215391798E+04  0.11412877650E+04  0.15294330000E+03 0.  0.
<mgrwt>
<rscale>  0 0.72660281E+03</rscale>
<asrwt>0</asrwt>
<pdfrwt beam="1">  1        2 0.71871238E+00 0.81817725E+03</pdfrwt>
<pdfrwt beam="2">  1       -2 0.16382778E-01 0.81817725E+03</pdfrwt>
<totfact> 0.27943226E+00</totfact>
</mgrwt>
</event>
<event>
 4    2  0.3171963E-007  0.8829950E+03  0.7818608E-02  0.9553901E-01
          2   -1    0    0  501    0  0.00000000000E+00  0.00000000000E+00  0.32932552230E+04  0.32932552230E+04  0.25500000000E-02 0. -1.
         -2   -1    0    0    0  501 -0.00000000000E+00 -0.00000000000E+00 -0.22208238501E+03  0.22208238503E+03  0.25500000000E-02 0.  1.
    8880023    1    1    2    0    0 -0.33210952433E+03 -0.48535878819E+03  0.26016485699E+04  0.27474088478E+04  0.65864270000E+03 0. -1.
    8880022    1    1    2    0    0  0.33210952433E+03  0.48535878819E+03  0.46952426804E+03  0.76792876018E+03  0.15294330000E+03 0.  0.
<mgrwt>
<rscale>  0 0.80423955E+03</rscale>
<asrwt>0</asrwt>
<pdfrwt beam="1">  1        2 0.50665463E+00 0.88299496E+03</pdfrwt>
<pdfrwt beam="2">  1       -2 0.34166522E-01 0.88299496E+03</pdfrwt>
<totfact> 0.94651923E+00</totfact>
</mgrwt>
</event>
<event>
 4    2  0.3171963E-007  0.7002960E+03  0.7818608E-02  0.9995976E-01
          2   -1    0    0  501    0  0.00000000000E+00  0.00000000000E+00  0.37563003229E+04  0.37563003229E+04  0.25500000000E-02 0. -1.
         -2   -1    0    0    0  501 -0.00000000000E+00 -0.00000000000E+00 -0.98606828196E+02  0.98606828229E+02  0.25500000000E-02 0.  1.
    8880023    1    1    2    0    0  0.23782288660E+03 -0.66706658471E+01  0.34029587448E+04  0.34742686494E+04  0.65864270000E+03 0. -1.
    8880022    1    1    2    0    0 -0.23782288660E+03  0.66706658471E+01  0.25473474990E+03  0.38063850173E+03  0.15294330000E+03 0.  0.
<mgrwt>
<rscale>  0 0.55827048E+03</rscale>
<asrwt>0</asrwt>
<pdfrwt beam="1">  1        2 0.57789233E+00 0.70029596E+03</pdfrwt>
<pdfrwt beam="2">  1       -2 0.15170282E-01 0.70029596E+03</pdfrwt>
<totfact> 0.20007674E+01</totfact>
</mgrwt>
</event>
<event>
 4    2  0.3171963E-007  0.7204418E+03  0.7818608E-02  0.9921094E-01
          2   -1    0    0  501    0  0.00000000000E+00  0.00000000000E+00  0.18756040691E+04  0.18756040691E+04  0.25500000000E-02 0. -1.
         -2   -1    0    0    0  501 -0.00000000000E+00 -0.00000000000E+00 -0.35008442542E+03  0.35008442543E+03  0.25500000000E-02 0.  1.
    8880023    1    1    2    0    0  0.29128567691E+03  0.19464694424E+02  0.17046079566E+04  0.18506011758E+04  0.65864270000E+03 0. -1.
    8880022    1    1    2    0    0 -0.29128567691E+03 -0.19464694424E+02 -0.17908831286E+03  0.37508731879E+03  0.15294330000E+03 0.  0.
<mgrwt>
<rscale>  0 0.59249795E+03</rscale>
<asrwt>0</asrwt>
<pdfrwt beam="1">  1        2 0.28855447E+00 0.72044183E+03</pdfrwt>
<pdfrwt beam="2">  1       -2 0.53859144E-01 0.72044183E+03</pdfrwt>
<totfact> 0.26318624E+01</totfact>
</mgrwt>
</event>
<event>
 4    2  0.3171963E-007  0.7856753E+03  0.7818608E-02  0.9742670E-01
          2   -1    0    0  501    0  0.00000000000E+00  0.00000000000E+00  0.40432063883E+04  0.40432063883E+04  0.25500000000E-02 0. -1.
         -2   -1    0    0    0  501 -0.00000000000E+00 -0.00000000000E+00 -0.13060899315E+03  0.13060899318E+03  0.25500000000E-02 0.  1.
    8880023    1    1    2    0    0 -0.41474660776E+03  0.10705512615E+03  0.12775764077E+04  0.14998290677E+04  0.65864270000E+03 0. -1.
    8880022    1    1    2    0    0  0.41474660776E+03 -0.10705512615E+03  0.26350209875E+04  0.26739863137E+04  0.15294330000E+03 0.  0.
<mgrwt>
<rscale>  0 0.68532062E+03</rscale>
<asrwt>0</asrwt>
<pdfrwt beam="1">  1        2 0.62203181E+00 0.78567535E+03</pdfrwt>
<pdfrwt beam="2">  1       -2 0.20093690E-01 0.78567535E+03</pdfrwt>
<totfact> 0.73224577E+00</totfact>
</mgrwt>
</event>
<event>
 4    2  0.3171963E-007  0.7168688E+03  0.7818608E-02  0.9933327E-01
          2   -1    0    0  501    0  0.00000000000E+00  0.00000000000E+00  0.17485583731E+04  0.17485583731E+04  0.25500000000E-02 0. -1.
         -2   -1    0    0    0  501 -0.00000000000E+00 -0.00000000000E+00 -0.47372620678E+03  0.47372620678E+03  0.25500000000E-02 0.  1.
    8880023    1    1    2    0    0 -0.27609616691E+03  0.62142151148E+02  0.16071442117E+04  0.17597765380E+04  0.65864270000E+03 0. -1.
    8880022    1    1    2    0    0  0.27609616691E+03 -0.62142151148E+02 -0.33231204533E+03  0.46250804190E+03  0.15294330000E+03 0.  0.
<mgrwt>
<rscale>  0 0.58672972E+03</rscale>
<asrwt>0</asrwt>
<pdfrwt beam="1">  1        2 0.26900898E+00 0.71686885E+03</pdfrwt>
<pdfrwt beam="2">  1       -2 0.72880954E-01 0.71686885E+03</pdfrwt>
<totfact> 0.16208386E+01</totfact>
</mgrwt>
</event>
<event>
 4    2  0.3171963E-007  0.7935203E+03  0.7818608E-02  0.9724986E-01
          2   -1    0    0  501    0  0.00000000000E+00  0.00000000000E+00  0.65380257893E+03  0.65380257894E+03  0.25500000000E-02 0. -1.
         -2   -1    0    0    0  501 -0.00000000000E+00 -0.00000000000E+00 -0.85295871064E+03  0.85295871064E+03  0.25500000000E-02 0.  1.
    8880023    1    1    2    0    0 -0.44239795934E+03  0.12178108342E+02 -0.51132490883E+03  0.94399556641E+03  0.65864270000E+03 0.  1.
    8880022    1    1    2    0    0  0.44239795934E+03 -0.12178108342E+02  0.31216877712E+03  0.56276572317E+03  0.15294330000E+03 0.  0.
<mgrwt>
<rscale>  0 0.69548448E+03</rscale>
<asrwt>0</asrwt>
<pdfrwt beam="1">  1        2 0.10058501E+00 0.79352030E+03</pdfrwt>
<pdfrwt beam="2">  1       -2 0.13122442E+00 0.79352030E+03</pdfrwt>
<totfact> 0.19116489E+01</totfact>
</mgrwt>
</event>
<event>
 4    2  0.3171963E-007  0.8933729E+03  0.7818608E-02  0.9536755E-01
          2   -1    0    0  501    0  0.00000000000E+00  0.00000000000E+00  0.13189995192E+04  0.13189995192E+04  0.25500000000E-02 0. -1.
         -2   -1    0    0    0  501 -0.00000000000E+00 -0.00000000000E+00 -0.57177930701E+03  0.57177930702E+03  0.25500000000E-02 0.  1.
    8880023    1    1    2    0    0 -0.10792357094E+03 -0.59384966290E+03  0.88013858410E+03  0.12540969072E+04  0.65864270000E+03 0.  0.
    8880022    1    1    2    0    0  0.10792357094E+03  0.59384966290E+03 -0.13291837195E+03  0.63668191894E+03  0.15294330000E+03 0.  0.
<mgrwt>
<rscale>  0 0.81627421E+03</rscale>
<asrwt>0</asrwt>
<pdfrwt beam="1">  1        2 0.20292300E+00 0.89337289E+03</pdfrwt>
<pdfrwt beam="2">  1       -2 0.87966049E-01 0.89337289E+03</pdfrwt>
<totfact> 0.18048114E+01</totfact>
</mgrwt>
</event>
<event>
 4    2  0.3171963E-007  0.7102087E+03  0.7818608E-02  0.9957227E-01
         -2   -1    0    0    0  501 -0.00000000000E+00  0.00000000000E+00  0.18787351284E+03  0.18787351286E+03  0.25500000000E-02 0.  1.
          2   -1    0    0  501    0  0.00000000000E+00 -0.00000000000E+00 -0.34868062997E+04  0.34868062997E+04  0.25500000000E-02 0. -1.
    8880023    1    1    2    0    0 -0.26553332084E+03  0.88428018803E+01 -0.32923195330E+04  0.33680505123E+04  0.65864270000E+03 0. -1.
    8880022    1    1    2    0    0  0.26553332084E+03 -0.88428018803E+01 -0.66132538085E+01  0.30662930024E+03  0.15294330000E+03 0.  0.
<mgrwt>
<rscale>  0 0.57566209E+03</rscale>
<asrwt>0</asrwt>
<pdfrwt beam="1">  1        2 0.53643169E+00 0.71020866E+03</pdfrwt>
<pdfrwt beam="2">  1       -2 0.28903620E-01 0.71020866E+03</pdfrwt>
<totfact> 0.99253859E+00</totfact>
</mgrwt>
</event>
<event>
 4    2  0.3171963E-007  0.8355413E+03  0.7818608E-02  0.9638645E-01
         -2   -1    0    0    0  501 -0.00000000000E+00  0.00000000000E+00  0.84969982561E+03  0.84969982561E+03  0.25500000000E-02 0.  1.
          2   -1    0    0  501    0  0.00000000000E+00 -0.00000000000E+00 -0.18614574997E+04  0.18614574997E+04  0.25500000000E-02 0. -1.
    8880023    1    1    2    0    0  0.50638464216E+02 -0.51161981599E+03 -0.16668146577E+04  0.18645107668E+04  0.65864270000E+03 0. -1.
    8880022    1    1    2    0    0 -0.50638464216E+02  0.51161981599E+03  0.65505698363E+03  0.84664655848E+03  0.15294330000E+03 0.  0.
<mgrwt>
<rscale>  0 0.74790332E+03</rscale>
<asrwt>0</asrwt>
<pdfrwt beam="1">  1        2 0.28637808E+00 0.83554132E+03</pdfrwt>
<pdfrwt beam="2">  1       -2 0.13072305E+00 0.83554132E+03</pdfrwt>
<totfact> 0.34823025E+00</totfact>
</mgrwt>
</event>
<event>
 4    2  0.3171963E-007  0.1163119E+04  0.7818608E-02  0.9193835E-01
         -2   -1    0    0    0  501 -0.00000000000E+00  0.00000000000E+00  0.10686244951E+04  0.10686244951E+04  0.25500000000E-02 0.  1.
          2   -1    0    0  501    0  0.00000000000E+00 -0.00000000000E+00 -0.12373318840E+04  0.12373318840E+04  0.25500000000E-02 0. -1.
    8880023    1    1    2    0    0 -0.95744309439E+03 -0.48344608992E+02 -0.51932942475E+03  0.12737926589E+04  0.65864270000E+03 0.  0.
    8880022    1    1    2    0    0  0.95744309439E+03  0.48344608992E+02  0.35062203590E+03  0.10321637202E+04  0.15294330000E+03 0.  0.
<mgrwt>
<rscale>  0 0.11117289E+04</rscale>
<asrwt>0</asrwt>
<pdfrwt beam="1">  1        2 0.19035875E+00 0.11631185E+04</pdfrwt>
<pdfrwt beam="2">  1       -2 0.16440377E+00 0.11631185E+04</pdfrwt>
<totfact> 0.41036068E+00</totfact>
</mgrwt>
</event>
<event>
 4    2  0.3171963E-007  0.1131731E+04  0.7818608E-02  0.9226524E-01
          2   -1    0    0  501    0  0.00000000000E+00  0.00000000000E+00  0.10491680535E+04  0.10491680535E+04  0.25500000000E-02 0. -1.
         -2   -1    0    0    0  501 -0.00000000000E+00 -0.00000000000E+00 -0.17776230557E+04  0.17776230557E+04  0.25500000000E-02 0.  1.
    8880023    1    1    2    0    0  0.89359449065E+03  0.22021189815E+03  0.53856641519E+03  0.12533428835E+04  0.65864270000E+03 0.  0.
    8880022    1    1    2    0    0 -0.89359449065E+03 -0.22021189815E+03 -0.12670214174E+04  0.15734482257E+04  0.15294330000E+03 0.  0.
<mgrwt>
<rscale>  0 0.10783803E+04</rscale>
<asrwt>0</asrwt>
<pdfrwt beam="1">  1        2 0.16141047E+00 0.11317308E+04</pdfrwt>
<pdfrwt beam="2">  1       -2 0.27348047E+00 0.11317308E+04</pdfrwt>
<totfact> 0.10635009E+00</totfact>
</mgrwt>
</event>
<event>
 4    2  0.3171963E-007  0.9979737E+03  0.7818608E-02  0.9384213E-01
          2   -1    0    0  501    0  0.00000000000E+00  0.00000000000E+00  0.39557858127E+04  0.39557858127E+04  0.25500000000E-02 0. -1.
         -2   -1    0    0    0  501 -0.00000000000E+00 -0.00000000000E+00 -0.22808519759E+03  0.22808519760E+03  0.25500000000E-02 0.  1.
    8880023    1    1    2    0    0 -0.41254722943E+00 -0.74976078071E+03  0.28487676410E+04  0.30185143162E+04  0.65864270000E+03 0. -1.
    8880022    1    1    2    0    0  0.41254722943E+00  0.74976078071E+03  0.87893297415E+03  0.11653566941E+04  0.15294330000E+03 0.  0.
<mgrwt>
<rscale>  0 0.93386321E+03</rscale>
<asrwt>0</asrwt>
<pdfrwt beam="1">  1        2 0.60858243E+00 0.99797375E+03</pdfrwt>
<pdfrwt beam="2">  1       -2 0.35090031E-01 0.99797375E+03</pdfrwt>
<totfact> 0.29808220E+00</totfact>
</mgrwt>
</event>
<event>
 4    2  0.3171963E-007  0.6920261E+03  0.7818608E-02  0.1003204E+00
          2   -1    0    0  501    0  0.00000000000E+00  0.00000000000E+00  0.21955666398E+04  0.21955666399E+04  0.25500000000E-02 0. -1.
         -2   -1    0    0    0  501 -0.00000000000E+00 -0.00000000000E+00 -0.13016701983E+03  0.13016701985E+03  0.25500000000E-02 0.  1.
    8880023    1    1    2    0    0  0.16930944174E+03  0.12815731507E+03  0.18846577134E+04  0.20076939227E+04  0.65864270000E+03 0.  0.
    8880022    1    1    2    0    0 -0.16930944174E+03 -0.12815731507E+03  0.18074190664E+03  0.31803973698E+03  0.15294330000E+03 0.  0.
<mgrwt>
<rscale>  0 0.54267354E+03</rscale>
<asrwt>0</asrwt>
<pdfrwt beam="1">  1        2 0.33777947E+00 0.69202615E+03</pdfrwt>
<pdfrwt beam="2">  1       -2 0.20025696E-01 0.69202615E+03</pdfrwt>
<totfact> 0.11463697E+02</totfact>
</mgrwt>
</event>
<event>
 4    2  0.3171963E-007  0.7088289E+03  0.7818608E-02  0.9962376E-01
          2   -1    0    0  501    0  0.00000000000E+00  0.00000000000E+00  0.13555001026E+04  0.13555001026E+04  0.25500000000E-02 0. -1.
         -2   -1    0    0    0  501 -0.00000000000E+00 -0.00000000000E+00 -0.27946502693E+03  0.27946502694E+03  0.25500000000E-02 0.  1.
    8880023    1    1    2    0    0  0.26196977811E+03  0.20536426181E+00  0.11230095594E+04  0.13280018387E+04  0.65864270000E+03 0. -1.
    8880022    1    1    2    0    0 -0.26196977811E+03 -0.20536426181E+00 -0.46974483684E+02  0.30696329089E+03  0.15294330000E+03 0.  0.
<mgrwt>
<rscale>  0 0.57331230E+03</rscale>
<asrwt>0</asrwt>
<pdfrwt beam="1">  1        2 0.20853847E+00 0.70882890E+03</pdfrwt>
<pdfrwt beam="2">  1       -2 0.42994620E-01 0.70882890E+03</pdfrwt>
<totfact> 0.80430878E+01</totfact>
</mgrwt>
</event>
<event>
 4    2  0.3171963E-007  0.1023272E+04  0.7818608E-02  0.9351725E-01
          2   -1    0    0  501    0  0.00000000000E+00  0.00000000000E+00  0.29032281407E+03  0.29032281408E+03  0.25500000000E-02 0. -1.
         -2   -1    0    0    0  501 -0.00000000000E+00 -0.00000000000E+00 -0.40838638731E+04  0.40838638731E+04  0.25500000000E-02 0.  1.
    8880023    1    1    2    0    0  0.78215067077E+03 -0.38919082912E+02 -0.32536916147E+04  0.34108054323E+04  0.65864270000E+03 0. -1.
    8880022    1    1    2    0    0 -0.78215067077E+03  0.38919082912E+02 -0.53984944436E+03  0.96338125495E+03  0.15294330000E+03 0.  0.
<mgrwt>
<rscale>  0 0.96157269E+03</rscale>
<asrwt>0</asrwt>
<pdfrwt beam="1">  1        2 0.44665051E-01 0.10232715E+04</pdfrwt>
<pdfrwt beam="2">  1       -2 0.62828671E+00 0.10232715E+04</pdfrwt>
<totfact> 0.44662481E-02</totfact>
</mgrwt>
</event>
<event>
 4    2  0.3171963E-007  0.6587660E+03  0.7818608E-02  0.1025458E+00
          2   -1    0    0  501    0  0.00000000000E+00  0.00000000000E+00  0.13135051653E+04  0.13135051653E+04  0.25500000000E-02 0. -1.
         -2   -1    0    0    0  501 -0.00000000000E+00 -0.00000000000E+00 -0.12665006889E+03  0.12665006892E+03  0.25500000000E-02 0.  1.
    8880023    1    1    2    0    0 -0.11761996295E+02  0.49053420169E+01  0.10117123963E+04  0.12072839708E+04  0.65864270000E+03 0. -1.
    8880022    1    1    2    0    0  0.11761996295E+02 -0.49053420169E+01  0.17514270012E+03  0.23287126349E+03  0.15294330000E+03 0.  0.
<mgrwt>
<rscale>  0 0.45767437E+03</rscale>
<asrwt>0</asrwt>
<pdfrwt beam="1">  1        2 0.20207772E+00 0.65876598E+03</pdfrwt>
<pdfrwt beam="2">  1       -2 0.19484626E-01 0.65876598E+03</pdfrwt>
<totfact> 0.36828905E+02</totfact>
</mgrwt>
</event>
<event>
 4    2  0.3171963E-007  0.8020045E+03  0.7818608E-02  0.9706479E-01
         -2   -1    0    0    0  501 -0.00000000000E+00  0.00000000000E+00  0.21935295452E+03  0.21935295453E+03  0.25500000000E-02 0.  1.
          2   -1    0    0  501    0  0.00000000000E+00 -0.00000000000E+00 -0.21446283356E+04  0.21446283356E+04  0.25500000000E-02 0. -1.
    8880023    1    1    2    0    0 -0.21541433011E+03  0.40372968085E+03 -0.15760435129E+04  0.17683677077E+04  0.65864270000E+03 0. -1.
    8880022    1    1    2    0    0  0.21541433011E+03 -0.40372968085E+03 -0.34923186822E+03  0.59561358246E+03  0.15294330000E+03 0.  0.
<mgrwt>
<rscale>  0 0.70632366E+03</rscale>
<asrwt>0</asrwt>
<pdfrwt beam="1">  1        2 0.32994281E+00 0.80200449E+03</pdfrwt>
<pdfrwt beam="2">  1       -2 0.33746610E-01 0.80200449E+03</pdfrwt>
<totfact> 0.46769069E+01</totfact>
</mgrwt>
</event>
<event>
 4    2  0.3171963E-007  0.6670456E+03  0.7818608E-02  0.1017876E+00
          2   -1    0    0  501    0  0.00000000000E+00  0.00000000000E+00  0.12471546237E+04  0.12471546237E+04  0.25500000000E-02 0. -1.
         -2   -1    0    0    0  501 -0.00000000000E+00 -0.00000000000E+00 -0.21932046349E+03  0.21932046351E+03  0.25500000000E-02 0.  1.
    8880023    1    1    2    0    0  0.73895112026E+02  0.75359716445E+02  0.10836072247E+04  0.12724599790E+04  0.65864270000E+03 0. -1.
    8880022    1    1    2    0    0 -0.73895112026E+02 -0.75359716445E+02 -0.55773064568E+02  0.19401510815E+03  0.15294330000E+03 0.  0.
<mgrwt>
<rscale>  0 0.48461084E+03</rscale>
<asrwt>0</asrwt>
<pdfrwt beam="1">  1        2 0.19186994E+00 0.66704556E+03</pdfrwt>
<pdfrwt beam="2">  1       -2 0.33741610E-01 0.66704556E+03</pdfrwt>
<totfact> 0.14878868E+02</totfact>
</mgrwt>
</event>
<event>
 4    2  0.3171963E-007  0.8203670E+03  0.7818608E-02  0.9668374E-01
         -2   -1    0    0    0  501 -0.00000000000E+00  0.00000000000E+00  0.49309113909E+03  0.49309113910E+03  0.25500000000E-02 0.  1.
          2   -1    0    0  501    0  0.00000000000E+00 -0.00000000000E+00 -0.10107166091E+04  0.10107166091E+04  0.25500000000E-02 0. -1.
    8880023    1    1    2    0    0 -0.46727294434E+03  0.14438792039E+03 -0.55428722408E+03  0.99006889109E+03  0.65864270000E+03 0.  0.
    8880022    1    1    2    0    0  0.46727294434E+03 -0.14438792039E+03  0.36661754079E+02  0.51373885710E+03  0.15294330000E+03 0.  0.
<mgrwt>
<rscale>  0 0.72931406E+03</rscale>
<asrwt>0</asrwt>
<pdfrwt beam="1">  1        2 0.15549486E+00 0.82036704E+03</pdfrwt>
<pdfrwt beam="2">  1       -2 0.75860175E-01 0.82036704E+03</pdfrwt>
<totfact> 0.38972608E+01</totfact>
</mgrwt>
</event>
<event>
 4    2  0.3171963E-007  0.6640089E+03  0.7818608E-02  0.1020380E+00
         -2   -1    0    0    0  501 -0.00000000000E+00  0.00000000000E+00  0.93234468116E+03  0.93234468116E+03  0.25500000000E-02 0.  1.
          2   -1    0    0  501    0  0.00000000000E+00 -0.00000000000E+00 -0.22774866721E+03  0.22774866722E+03  0.25500000000E-02 0. -1.
    8880023    1    1    2    0    0  0.51849049318E+02 -0.66402035402E+02  0.31869904085E+03  0.73653027034E+03  0.65864270000E+03 0. -1.
    8880022    1    1    2    0    0 -0.51849049318E+02  0.66402035402E+02  0.38589697310E+03  0.42356307804E+03  0.15294330000E+03 0.  0.
<mgrwt>
<rscale>  0 0.47549797E+03</rscale>
<asrwt>0</asrwt>
<pdfrwt beam="1">  1        2 0.35038257E-01 0.66400886E+03</pdfrwt>
<pdfrwt beam="2">  1       -2 0.14343764E+00 0.66400886E+03</pdfrwt>
<totfact> 0.51151842E+01</totfact>
</mgrwt>
</event>
<event>
 4    2  0.3171963E-007  0.8522097E+03  0.7818608E-02  0.9607574E-01
         -2   -1    0    0    0  501 -0.00000000000E+00  0.00000000000E+00  0.85911369606E+03  0.85911369606E+03  0.25500000000E-02 0.  1.
          2   -1    0    0  501    0  0.00000000000E+00 -0.00000000000E+00 -0.14296321380E+04  0.14296321380E+04  0.25500000000E-02 0. -1.
    8880023    1    1    2    0    0 -0.16404620911E+03 -0.51530578523E+03  0.56449806604E+03  0.10222130325E+04  0.65864270000E+03 0.  0.
    8880022    1    1    2    0    0  0.16404620911E+03  0.51530578523E+03 -0.11350165079E+04  0.12665328015E+04  0.15294330000E+03 0.  0.
<mgrwt>
<rscale>  0 0.76796910E+03</rscale>
<asrwt>0</asrwt>
<pdfrwt beam="1">  1        2 0.21994340E+00 0.85220973E+03</pdfrwt>
<pdfrwt beam="2">  1       -2 0.13217134E+00 0.85220973E+03</pdfrwt>
<totfact> 0.58538743E+00</totfact>
</mgrwt>
</event>
<event>
 4    2  0.3171963E-007  0.7446438E+03  0.7818608E-02  0.9846621E-01
         -2   -1    0    0    0  501 -0.00000000000E+00  0.00000000000E+00  0.26551777497E+03  0.26551777498E+03  0.25500000000E-02 0.  1.
          2   -1    0    0  501    0  0.00000000000E+00 -0.00000000000E+00 -0.17219205438E+04  0.17219205438E+04  0.25500000000E-02 0. -1.
    8880023    1    1    2    0    0  0.21156538850E+03  0.27554369329E+03 -0.35982246317E+03  0.82702276377E+03  0.65864270000E+03 0.  0.
    8880022    1    1    2    0    0 -0.21156538850E+03 -0.27554369329E+03 -0.10965803056E+04  0.11604155550E+04  0.15294330000E+03 0.  0.
<mgrwt>
<rscale>  0 0.62919515E+03</rscale>
<asrwt>0</asrwt>
<pdfrwt beam="1">  1        2 0.26491085E+00 0.74464384E+03</pdfrwt>
<pdfrwt beam="2">  1       -2 0.40848889E-01 0.74464384E+03</pdfrwt>
<totfact> 0.55478436E+01</totfact>
</mgrwt>
</event>
<event>
 4    2  0.3171963E-007  0.8093313E+03  0.7818608E-02  0.9690972E-01
          2   -1    0    0  501    0  0.00000000000E+00  0.00000000000E+00  0.13933452358E+04  0.13933452358E+04  0.25500000000E-02 0. -1.
         -2   -1    0    0    0  501 -0.00000000000E+00 -0.00000000000E+00 -0.60881624727E+03  0.60881624727E+03  0.25500000000E-02 0.  1.
    8880023    1    1    2    0    0 -0.43280639524E+03 -0.18408017985E+03  0.11364357612E+04  0.13951714353E+04  0.65864270000E+03 0. -1.
    8880022    1    1    2    0    0  0.43280639524E+03  0.18408017985E+03 -0.35190677268E+03  0.60699004773E+03  0.15294330000E+03 0.  0.
<mgrwt>
<rscale>  0 0.71556892E+03</rscale>
<asrwt>0</asrwt>
<pdfrwt beam="1">  1        2 0.21436080E+00 0.80933126E+03</pdfrwt>
<pdfrwt beam="2">  1       -2 0.93664039E-01 0.80933126E+03</pdfrwt>
<totfact> 0.14276909E+01</totfact>
</mgrwt>
</event>
<event>
 4    2  0.3171963E-007  0.6632890E+03  0.7818608E-02  0.1021014E+00
          2   -1    0    0  501    0  0.00000000000E+00  0.00000000000E+00  0.24813035280E+04  0.24813035280E+04  0.25500000000E-02 0. -1.
         -2   -1    0    0    0  501 -0.00000000000E+00 -0.00000000000E+00 -0.23152434304E+03  0.23152434306E+03  0.25500000000E-02 0.  1.
    8880023    1    1    2    0    0 -0.58572808335E+02 -0.52069748447E+02  0.23966641316E+04  0.24867551545E+04  0.65864270000E+03 0. -1.
    8880022    1    1    2    0    0  0.58572808335E+02  0.52069748447E+02 -0.14688494667E+03  0.22607271651E+03  0.15294330000E+03 0.  0.
<mgrwt>
<rscale>  0 0.47322402E+03</rscale>
<asrwt>0</asrwt>
<pdfrwt beam="1">  1        2 0.38173899E+00 0.66328896E+03</pdfrwt>
<pdfrwt beam="2">  1       -2 0.35619131E-01 0.66328896E+03</pdfrwt>
<totfact> 0.27960192E+01</totfact>
</mgrwt>
</event>
<event>
 4    2  0.3171963E-007  0.8063267E+03  0.7818608E-02  0.9697280E-01
         -2   -1    0    0    0  501 -0.00000000000E+00  0.00000000000E+00  0.24330045969E+03  0.24330045970E+03  0.25500000000E-02 0.  1.
          2   -1    0    0  501    0  0.00000000000E+00 -0.00000000000E+00 -0.21655657718E+04  0.21655657718E+04  0.25500000000E-02 0. -1.
    8880023    1    1    2    0    0 -0.25252625958E+03  0.39061877568E+03 -0.16780094501E+04  0.18616869932E+04  0.65864270000E+03 0. -1.
    8880022    1    1    2    0    0  0.25252625958E+03 -0.39061877568E+03 -0.24425586198E+03  0.54717923830E+03  0.15294330000E+03 0.  0.
<mgrwt>
<rscale>  0 0.71178985E+03</rscale>
<asrwt>0</asrwt>
<pdfrwt beam="1">  1        2 0.33316395E+00 0.80632670E+03</pdfrwt>
<pdfrwt beam="2">  1       -2 0.37430841E-01 0.80632670E+03</pdfrwt>
<totfact> 0.37340392E+01</totfact>
</mgrwt>
</event>
<event>
 4    2  0.3171963E-007  0.6676813E+03  0.7818608E-02  0.1017383E+00
          2   -1    0    0  501    0  0.00000000000E+00  0.00000000000E+00  0.16554356190E+04  0.16554356190E+04  0.25500000000E-02 0. -1.
         -2   -1    0    0    0  501 -0.00000000000E+00 -0.00000000000E+00 -0.47575545497E+03  0.47575545497E+03  0.25500000000E-02 0.  1.
    8880023    1    1    2    0    0  0.31767125658E+02 -0.10478081643E+03  0.15655144268E+04  0.17019499982E+04  0.65864270000E+03 0. -1.
    8880022    1    1    2    0    0 -0.31767125658E+02  0.10478081643E+03 -0.38583426276E+03  0.42924107573E+03  0.15294330000E+03 0.  0.
<mgrwt>
<rscale>  0 0.48643116E+03</rscale>
<asrwt>0</asrwt>
<pdfrwt beam="1">  1        2 0.25468240E+00 0.66768134E+03</pdfrwt>
<pdfrwt beam="2">  1       -2 0.73193147E-01 0.66768134E+03</pdfrwt>
<totfact> 0.18179103E+01</totfact>
</mgrwt>
</event>
<event>
 4    2  0.3171963E-007  0.8732245E+03  0.7818608E-02  0.9570459E-01
         -2   -1    0    0    0  501 -0.00000000000E+00  0.00000000000E+00  0.22071884388E+03  0.22071884389E+03  0.25500000000E-02 0.  1.
          2   -1    0    0  501    0  0.00000000000E+00 -0.00000000000E+00 -0.27922451594E+04  0.27922451594E+04  0.25500000000E-02 0. -1.
    8880023    1    1    2    0    0  0.24810673276E+03  0.51686924310E+03 -0.20290944116E+04  0.22090145094E+04  0.65864270000E+03 0.  0.
    8880022    1    1    2    0    0 -0.24810673276E+03 -0.51686924310E+03 -0.54243190388E+03  0.80394949385E+03  0.15294330000E+03 0.  0.
<mgrwt>
<rscale>  0 0.79282630E+03</rscale>
<asrwt>0</asrwt>
<pdfrwt beam="1">  1        2 0.42957615E+00 0.87322447E+03</pdfrwt>
<pdfrwt beam="2">  1       -2 0.33956747E-01 0.87322447E+03</pdfrwt>
<totfact> 0.19622185E+01</totfact>
</mgrwt>
</event>
<event>
 4    2  0.3171963E-007  0.6707217E+03  0.7818608E-02  0.1015151E+00
         -2   -1    0    0    0  501 -0.00000000000E+00  0.00000000000E+00  0.30570781626E+03  0.30570781627E+03  0.25500000000E-02 0.  1.
          2   -1    0    0  501    0  0.00000000000E+00 -0.00000000000E+00 -0.15655326157E+04  0.15655326157E+04  0.25500000000E-02 0. -1.
    8880023    1    1    2    0    0  0.97134168049E+02  0.81377442070E+02 -0.14491519058E+04  0.15968433821E+04  0.65864270000E+03 0. -1.
    8880022    1    1    2    0    0 -0.97134168049E+02 -0.81377442070E+02  0.18932710644E+03  0.27439704978E+03  0.15294330000E+03 0.  0.
<mgrwt>
<rscale>  0 0.49477897E+03</rscale>
<asrwt>0</asrwt>
<pdfrwt beam="1">  1        2 0.24085117E+00 0.67072166E+03</pdfrwt>
<pdfrwt beam="2">  1       -2 0.47031973E-01 0.67072166E+03</pdfrwt>
<totfact> 0.51548379E+01</totfact>
</mgrwt>
</event>
<event>
 4    2  0.3171963E-007  0.6798798E+03  0.7818608E-02  0.1009392E+00
          2   -1    0    0  501    0  0.00000000000E+00  0.00000000000E+00  0.91075359087E+03  0.91075359087E+03  0.25500000000E-02 0. -1.
         -2   -1    0    0    0  501 -0.00000000000E+00 -0.00000000000E+00 -0.38592089764E+03  0.38592089765E+03  0.25500000000E-02 0.  1.
    8880023    1    1    2    0    0  0.18946144887E+02 -0.16753321244E+03  0.72473872666E+03  0.99372167223E+03  0.65864270000E+03 0. -1.
    8880022    1    1    2    0    0 -0.18946144887E+02  0.16753321244E+03 -0.19990603343E+03  0.30295281628E+03  0.15294330000E+03 0.  0.
<mgrwt>
<rscale>  0 0.51717101E+03</rscale>
<asrwt>0</asrwt>
<pdfrwt beam="1">  1        2 0.14011594E+00 0.67987980E+03</pdfrwt>
<pdfrwt beam="2">  1       -2 0.59372446E-01 0.67987980E+03</pdfrwt>
<totfact> 0.77837222E+01</totfact>
</mgrwt>
</event>
<event>
 4    2  0.3171963E-007  0.8225825E+03  0.7818608E-02  0.9663941E-01
          2   -1    0    0  501    0  0.00000000000E+00  0.00000000000E+00  0.73145233814E+03  0.73145233814E+03  0.25500000000E-02 0. -1.
         -2   -1    0    0    0  501 -0.00000000000E+00 -0.00000000000E+00 -0.18978504422E+04  0.18978504422E+04  0.25500000000E-02 0.  1.
    8880023    1    1    2    0    0 -0.40582906102E+03  0.27952542058E+03  0.44645390815E+03  0.93592894276E+03  0.65864270000E+03 0. -1.
    8880022    1    1    2    0    0  0.40582906102E+03 -0.27952542058E+03 -0.16128520122E+04  0.16933738376E+04  0.15294330000E+03 0.  0.
<mgrwt>
<rscale>  0 0.73204933E+03</rscale>
<asrwt>0</asrwt>
<pdfrwt beam="1">  1        2 0.11253113E+00 0.82258245E+03</pdfrwt>
<pdfrwt beam="2">  1       -2 0.29197699E+00 0.82258245E+03</pdfrwt>
<totfact> 0.14184987E+00</totfact>
</mgrwt>
</event>
<event>
 4    2  0.3171963E-007  0.7186738E+03  0.7818608E-02  0.9927099E-01
         -2   -1    0    0    0  501 -0.00000000000E+00  0.00000000000E+00  0.23413065369E+03  0.23413065370E+03  0.25500000000E-02 0.  1.
          2   -1    0    0  501    0  0.00000000000E+00 -0.00000000000E+00 -0.13913312582E+04  0.13913312582E+04  0.25500000000E-02 0. -1.
    8880023    1    1    2    0    0  0.72740436849E+02 -0.27819180414E+03 -0.10688610934E+04  0.12880046949E+04  0.65864270000E+03 0.  0.
    8880022    1    1    2    0    0 -0.72740436849E+02  0.27819180414E+03 -0.88339511186E+02  0.33745721699E+03  0.15294330000E+03 0.  0.
<mgrwt>
<rscale>  0 0.58965737E+03</rscale>
<asrwt>0</asrwt>
<pdfrwt beam="1">  1        2 0.21405096E+00 0.71867382E+03</pdfrwt>
<pdfrwt beam="2">  1       -2 0.36020101E-01 0.71867382E+03</pdfrwt>
<totfact> 0.10816417E+02</totfact>
</mgrwt>
</event>
<event>
 4    2  0.3171963E-007  0.7525603E+03  0.7818608E-02  0.9824763E-01
          2   -1    0    0  501    0  0.00000000000E+00  0.00000000000E+00  0.82864091930E+03  0.82864091931E+03  0.25500000000E-02 0. -1.
         -2   -1    0    0    0  501 -0.00000000000E+00 -0.00000000000E+00 -0.89956003353E+03  0.89956003354E+03  0.25500000000E-02 0.  1.
    8880023    1    1    2    0    0 -0.27458650931E+03 -0.23903763833E+03  0.59137933376E+03  0.95711883604E+03  0.65864270000E+03 0. -1.
    8880022    1    1    2    0    0  0.27458650931E+03  0.23903763833E+03 -0.66229844799E+03  0.77108211681E+03  0.15294330000E+03 0.  0.
<mgrwt>
<rscale>  0 0.64050366E+03</rscale>
<asrwt>0</asrwt>
<pdfrwt beam="1">  1        2 0.12748322E+00 0.75256026E+03</pdfrwt>
<pdfrwt beam="2">  1       -2 0.13839385E+00 0.75256026E+03</pdfrwt>
<totfact> 0.12347622E+01</totfact>
</mgrwt>
</event>
<event>
 4    2  0.3171963E-007  0.7653658E+03  0.7818608E-02  0.9791409E-01
          2   -1    0    0  501    0  0.00000000000E+00  0.00000000000E+00  0.23421134502E+04  0.23421134502E+04  0.25500000000E-02 0. -1.
         -2   -1    0    0    0  501 -0.00000000000E+00 -0.00000000000E+00 -0.55640513535E+03  0.55640513536E+03  0.25500000000E-02 0.  1.
    8880023    1    1    2    0    0 -0.33527593020E+03  0.19890865602E+03  0.21878925371E+04  0.23178996016E+04  0.65864270000E+03 0. -1.
    8880022    1    1    2    0    0  0.33527593020E+03 -0.19890865602E+03 -0.40218422231E+03  0.58061898393E+03  0.15294330000E+03 0.  0.
<mgrwt>
<rscale>  0 0.65825633E+03</rscale>
<asrwt>0</asrwt>
<pdfrwt beam="1">  1        2 0.36032514E+00 0.76536580E+03</pdfrwt>
<pdfrwt beam="2">  1       -2 0.85600791E-01 0.76536580E+03</pdfrwt>
<totfact> 0.53026074E+00</totfact>
</mgrwt>
</event>
<event>
 4    2  0.3171963E-007  0.6811085E+03  0.7818608E-02  0.1008703E+00
         -2   -1    0    0    0  501 -0.00000000000E+00  0.00000000000E+00  0.86197560621E+02  0.86197560659E+02  0.25500000000E-02 0.  1.
          2   -1    0    0  501    0  0.00000000000E+00 -0.00000000000E+00 -0.26289722168E+04  0.26289722168E+04  0.25500000000E-02 0. -1.
    8880023    1    1    2    0    0  0.78927002317E+02 -0.15449623109E+03 -0.21888942528E+04  0.22924150613E+04  0.65864270000E+03 0.  0.
    8880022    1    1    2    0    0 -0.78927002317E+02  0.15449623109E+03 -0.35388040337E+03  0.42275471614E+03  0.15294330000E+03 0.  0.
<mgrwt>
<rscale>  0 0.51993195E+03</rscale>
<asrwt>0</asrwt>
<pdfrwt beam="1">  1        2 0.40445720E+00 0.68110848E+03</pdfrwt>
<pdfrwt beam="2">  1       -2 0.13261165E-01 0.68110848E+03</pdfrwt>
<totfact> 0.13249920E+02</totfact>
</mgrwt>
</event>
<event>
 4    2  0.3171963E-007  0.6772587E+03  0.7818608E-02  0.1010919E+00
         -2   -1    0    0    0  501 -0.00000000000E+00  0.00000000000E+00  0.95738936459E+03  0.95738936460E+03  0.25500000000E-02 0.  1.
          2   -1    0    0  501    0  0.00000000000E+00 -0.00000000000E+00 -0.51707156590E+03  0.51707156590E+03  0.25500000000E-02 0. -1.
    8880023    1    1    2    0    0 -0.52448127545E+02 -0.14872240896E+03 -0.27139653977E+03  0.72961321882E+03  0.65864270000E+03 0. -1.
    8880022    1    1    2    0    0  0.52448127545E+02  0.14872240896E+03  0.71171433846E+03  0.74484771168E+03  0.15294330000E+03 0.  0.
<mgrwt>
<rscale>  0 0.51111106E+03</rscale>
<asrwt>0</asrwt>
<pdfrwt beam="1">  1        2 0.79549471E-01 0.67725872E+03</pdfrwt>
<pdfrwt beam="2">  1       -2 0.14729067E+00 0.67725872E+03</pdfrwt>
<totfact> 0.18999301E+01</totfact>
</mgrwt>
</event>
<event>
 4    2  0.3171963E-007  0.6755368E+03  0.7818608E-02  0.1011970E+00
          2   -1    0    0  501    0  0.00000000000E+00  0.00000000000E+00  0.58941670557E+03  0.58941670557E+03  0.25500000000E-02 0. -1.
         -2   -1    0    0    0  501 -0.00000000000E+00 -0.00000000000E+00 -0.55032264887E+03  0.55032264887E+03  0.25500000000E-02 0.  1.
    8880023    1    1    2    0    0  0.49244916524E+02 -0.14182620214E+03  0.35101330064E+03  0.76128856349E+03  0.65864270000E+03 0. -1.
    8880022    1    1    2    0    0 -0.49244916524E+02  0.14182620214E+03 -0.31191924394E+03  0.37845079095E+03  0.15294330000E+03 0.  0.
<mgrwt>
<rscale>  0 0.50699123E+03</rscale>
<asrwt>0</asrwt>
<pdfrwt beam="1">  1        2 0.90679493E-01 0.67553678E+03</pdfrwt>
<pdfrwt beam="2">  1       -2 0.84665024E-01 0.67553678E+03</pdfrwt>
<totfact> 0.62674851E+01</totfact>
</mgrwt>
</event>
<event>
 4    2  0.3171963E-007  0.9547610E+03  0.7818608E-02  0.9443297E-01
          2   -1    0    0  501    0  0.00000000000E+00  0.00000000000E+00  0.13129642688E+04  0.13129642688E+04  0.25500000000E-02 0. -1.
         -2   -1    0    0    0  501 -0.00000000000E+00 -0.00000000000E+00 -0.73323776654E+03  0.73323776654E+03  0.25500000000E-02 0.  1.
    8880023    1    1    2    0    0 -0.60799938712E+03  0.32877820070E+03  0.85984722951E+03  0.12848758011E+04  0.65864270000E+03 0.  0.
    8880022    1    1    2    0    0  0.60799938712E+03 -0.32877820070E+03 -0.28012072726E+03  0.76132623418E+03  0.15294330000E+03 0.  0.
<mgrwt>
<rscale>  0 0.88596583E+03</rscale>
<asrwt>0</asrwt>
<pdfrwt beam="1">  1        2 0.20199450E+00 0.95476100E+03</pdfrwt>
<pdfrwt beam="2">  1       -2 0.11280581E+00 0.95476100E+03</pdfrwt>
<totfact> 0.10019996E+01</totfact>
</mgrwt>
</event>
<event>
 4    2  0.3171963E-007  0.1311416E+04  0.7818608E-02  0.9055764E-01
         -2   -1    0    0    0  501 -0.00000000000E+00  0.00000000000E+00  0.75753285462E+03  0.75753285462E+03  0.25500000000E-02 0.  1.
          2   -1    0    0  501    0  0.00000000000E+00 -0.00000000000E+00 -0.39327303112E+04  0.39327303112E+04  0.25500000000E-02 0. -1.
    8880023    1    1    2    0    0 -0.10207496714E+04  0.49403583780E+03 -0.32885342938E+04  0.35403770009E+04  0.65864270000E+03 0.  0.
    8880022    1    1    2    0    0  0.10207496714E+04 -0.49403583780E+03  0.11333683717E+03  0.11498861650E+04  0.15294330000E+03 0.  0.
<mgrwt>
<rscale>  0 0.12674740E+04</rscale>
<asrwt>0</asrwt>
<pdfrwt beam="1">  1        2 0.60503542E+00 0.13114158E+04</pdfrwt>
<pdfrwt beam="2">  1       -2 0.11654352E+00 0.13114158E+04</pdfrwt>
<totfact> 0.21920507E-01</totfact>
</mgrwt>
</event>
<event>
 4    2  0.3171963E-007  0.1151266E+04  0.7818608E-02  0.9206016E-01
         -2   -1    0    0    0  501 -0.00000000000E+00  0.00000000000E+00  0.13482603688E+04  0.13482603688E+04  0.25500000000E-02 0.  1.
          2   -1    0    0  501    0  0.00000000000E+00 -0.00000000000E+00 -0.23499200273E+04  0.23499200273E+04  0.25500000000E-02 0. -1.
    8880023    1    1    2    0    0 -0.56907384515E+03  0.75349699607E+03 -0.20049441131E+04  0.23119718569E+04  0.65864270000E+03 0. -1.
    8880022    1    1    2    0    0  0.56907384515E+03 -0.75349699607E+03  0.10032844546E+04  0.13862085392E+04  0.15294330000E+03 0.  0.
<mgrwt>
<rscale>  0 0.10991552E+04</rscale>
<asrwt>0</asrwt>
<pdfrwt beam="1">  1        2 0.36152616E+00 0.11512658E+04</pdfrwt>
<pdfrwt beam="2">  1       -2 0.20742467E+00 0.11512658E+04</pdfrwt>
<totfact> 0.49562546E-01</totfact>
</mgrwt>
</event>
<event>
 4    2  0.3171963E-007  0.6973766E+03  0.7818608E-02  0.1000826E+00
         -2   -1    0    0    0  501 -0.00000000000E+00  0.00000000000E+00  0.41198083836E+03  0.41198083837E+03  0.25500000000E-02 0.  1.
          2   -1    0    0  501    0  0.00000000000E+00 -0.00000000000E+00 -0.61403974994E+03  0.61403974994E+03  0.25500000000E-02 0. -1.
    8880023    1    1    2    0    0 -0.21947103013E+03 -0.66002699734E+02 -0.26035794308E+03  0.74439260758E+03  0.65864270000E+03 0. -1.
    8880022    1    1    2    0    0  0.21947103013E+03  0.66002699734E+02  0.58299031503E+02  0.28162798072E+03  0.15294330000E+03 0.  1.
<mgrwt>
<rscale>  0 0.55289397E+03</rscale>
<asrwt>0</asrwt>
<pdfrwt beam="1">  1        2 0.94467654E-01 0.69737658E+03</pdfrwt>
<pdfrwt beam="2">  1       -2 0.63381667E-01 0.69737658E+03</pdfrwt>
<totfact> 0.11272184E+02</totfact>
</mgrwt>
</event>
<event>
 4    2  0.3171963E-007  0.7169562E+03  0.7818608E-02  0.9933023E-01
         -2   -1    0    0    0  501 -0.00000000000E+00  0.00000000000E+00  0.48898783614E+03  0.48898783615E+03  0.25500000000E-02 0.  1.
          2   -1    0    0  501    0  0.00000000000E+00 -0.00000000000E+00 -0.27649892275E+04  0.27649892275E+04  0.25500000000E-02 0. -1.
    8880023    1    1    2    0    0  0.27841773490E+03  0.51956805892E+02 -0.26588379755E+04  0.27538056451E+04  0.65864270000E+03 0. -1.
    8880022    1    1    2    0    0 -0.27841773490E+03 -0.51956805892E+02  0.38283658413E+03  0.50017141856E+03  0.15294330000E+03 0.  0.
<mgrwt>
<rscale>  0 0.58687202E+03</rscale>
<asrwt>0</asrwt>
<pdfrwt beam="1">  1        2 0.42538295E+00 0.71695617E+03</pdfrwt>
<pdfrwt beam="2">  1       -2 0.75228900E-01 0.71695617E+03</pdfrwt>
<totfact> 0.41019904E+00</totfact>
</mgrwt>
</event>
<event>
 4    2  0.3171963E-007  0.6889269E+03  0.7818608E-02  0.1004667E+00
         -2   -1    0    0    0  501 -0.00000000000E+00  0.00000000000E+00  0.21020400604E+03  0.21020400606E+03  0.25500000000E-02 0.  1.
          2   -1    0    0  501    0  0.00000000000E+00 -0.00000000000E+00 -0.13968573791E+04  0.13968573791E+04  0.25500000000E-02 0. -1.
    8880023    1    1    2    0    0 -0.14518264215E+03  0.14047075915E+03 -0.11640960386E+04  0.13526787598E+04  0.65864270000E+03 0. -1.
    8880022    1    1    2    0    0  0.14518264215E+03 -0.14047075915E+03 -0.22557334471E+02  0.25438262541E+03  0.15294330000E+03 0.  0.
<mgrwt>
<rscale>  0 0.53650423E+03</rscale>
<asrwt>0</asrwt>
<pdfrwt beam="1">  1        2 0.21490113E+00 0.68892688E+03</pdfrwt>
<pdfrwt beam="2">  1       -2 0.32339079E-01 0.68892688E+03</pdfrwt>
<totfact> 0.13206980E+02</totfact>
</mgrwt>
</event>
<event>
 4    2  0.3171963E-007  0.6725992E+03  0.7818608E-02  0.1013864E+00
         -2   -1    0    0    0  501 -0.00000000000E+00  0.00000000000E+00  0.49928150842E+03  0.49928150842E+03  0.25500000000E-02 0.  1.
          2   -1    0    0  501    0  0.00000000000E+00 -0.00000000000E+00 -0.38683690622E+03  0.38683690623E+03  0.25500000000E-02 0. -1.
    8880023    1    1    2    0    0 -0.13086509043E+03  0.38129538237E+02  0.10790187654E+03  0.68119935027E+03  0.65864270000E+03 0.  1.
    8880022    1    1    2    0    0  0.13086509043E+03 -0.38129538237E+02  0.45427256479E+01  0.20491906439E+03  0.15294330000E+03 0. -1.
<mgrwt>
<rscale>  0 0.49967335E+03</rscale>
<asrwt>0</asrwt>
<pdfrwt beam="1">  1        2 0.59513370E-01 0.67259924E+03</pdfrwt>
<pdfrwt beam="2">  1       -2 0.76812540E-01 0.67259924E+03</pdfrwt>
<totfact> 0.12675864E+02</totfact>
</mgrwt>
</event>
<event>
 4    2  0.3171963E-007  0.7249866E+03  0.7818608E-02  0.9906061E-01
          2   -1    0    0  501    0  0.00000000000E+00  0.00000000000E+00  0.27860435664E+04  0.27860435664E+04  0.25500000000E-02 0. -1.
         -2   -1    0    0    0  501 -0.00000000000E+00 -0.00000000000E+00 -0.26572258327E+03  0.26572258328E+03  0.25500000000E-02 0.  1.
    8880023    1    1    2    0    0 -0.24179375801E+03  0.18256813024E+03  0.26033103312E+04  0.27023749241E+04  0.65864270000E+03 0. -1.
    8880022    1    1    2    0    0  0.24179375801E+03 -0.18256813024E+03 -0.82989348089E+02  0.34939122557E+03  0.15294330000E+03 0.  0.
<mgrwt>
<rscale>  0 0.59968462E+03</rscale>
<asrwt>0</asrwt>
<pdfrwt beam="1">  1        2 0.42862211E+00 0.72498659E+03</pdfrwt>
<pdfrwt beam="2">  1       -2 0.40880396E-01 0.72498659E+03</pdfrwt>
<totfact> 0.14156948E+01</totfact>
</mgrwt>
</event>
<event>
 4    2  0.3171963E-007  0.1672557E+04  0.7818608E-02  0.8796516E-01
          2   -1    0    0  501    0  0.00000000000E+00  0.00000000000E+00  0.30901610031E+04  0.30901610031E+04  0.25500000000E-02 0. -1.
         -2   -1    0    0    0  501 -0.00000000000E+00 -0.00000000000E+00 -0.14351309587E+04  0.14351309587E+04  0.25500000000E-02 0.  1.
    8880023    1    1    2    0    0  0.58158319161E+03  0.14231644220E+04  0.23060439908E+04  0.28487339424E+04  0.65864270000E+03 0.  0.
    8880022    1    1    2    0    0 -0.58158319161E+03 -0.14231644220E+04 -0.65101394646E+03  0.16765580194E+04  0.15294330000E+03 0.  0.
<mgrwt>
<rscale>  0 0.16397130E+04</rscale>
<asrwt>0</asrwt>
<pdfrwt beam="1">  1        2 0.47540938E+00 0.16725568E+04</pdfrwt>
<pdfrwt beam="2">  1       -2 0.22078938E+00 0.16725568E+04</pdfrwt>
<totfact> 0.13760284E-01</totfact>
</mgrwt>
</event>
<event>
 4    2  0.3171963E-007  0.7010407E+03  0.7818608E-02  0.9992911E-01
         -2   -1    0    0    0  501 -0.00000000000E+00  0.00000000000E+00  0.12713405369E+04  0.12713405369E+04  0.25500000000E-02 0.  1.
          2   -1    0    0  501    0  0.00000000000E+00 -0.00000000000E+00 -0.49999046682E+03  0.49999046683E+03  0.25500000000E-02 0. -1.
    8880023    1    1    2    0    0 -0.23732413737E+03  0.36402652795E+02 -0.22409005330E+03  0.73598536504E+03  0.65864270000E+03 0. -1.
    8880022    1    1    2    0    0  0.23732413737E+03 -0.36402652795E+02  0.99544012342E+03  0.10353456387E+04  0.15294330000E+03 0.  0.
<mgrwt>
<rscale>  0 0.55962173E+03</rscale>
<asrwt>0</asrwt>
<pdfrwt beam="1">  1        2 0.76921610E-01 0.70104073E+03</pdfrwt>
<pdfrwt beam="2">  1       -2 0.19559085E+00 0.70104073E+03</pdfrwt>
<totfact> 0.89714299E+00</totfact>
</mgrwt>
</event>
<event>
 4    2  0.3171963E-007  0.6714254E+03  0.7818608E-02  0.1014661E+00
          2   -1    0    0  501    0  0.00000000000E+00  0.00000000000E+00  0.15647198555E+04  0.15647198555E+04  0.25500000000E-02 0. -1.
         -2   -1    0    0    0  501 -0.00000000000E+00 -0.00000000000E+00 -0.14324188908E+03  0.14324188910E+03  0.25500000000E-02 0.  1.
    8880023    1    1    2    0    0 -0.12334174106E+03 -0.42292296393E+02  0.13241597281E+04  0.14846585517E+04  0.65864270000E+03 0. -1.
    8880022    1    1    2    0    0  0.12334174106E+03  0.42292296393E+02  0.97318238320E+02  0.22330319287E+03  0.15294330000E+03 0.  0.
<mgrwt>
<rscale>  0 0.49663488E+03</rscale>
<asrwt>0</asrwt>
<pdfrwt beam="1">  1        2 0.24072613E+00 0.67142537E+03</pdfrwt>
<pdfrwt beam="2">  1       -2 0.22037214E-01 0.67142537E+03</pdfrwt>
<totfact> 0.21441188E+02</totfact>
</mgrwt>
</event>
<event>
 4    2  0.3171963E-007  0.7015595E+03  0.7818608E-02  0.9990792E-01
          2   -1    0    0  501    0  0.00000000000E+00  0.00000000000E+00  0.64266912599E+03  0.64266912600E+03  0.25500000000E-02 0. -1.
         -2   -1    0    0    0  501 -0.00000000000E+00 -0.00000000000E+00 -0.40210307711E+03  0.40210307712E+03  0.25500000000E-02 0.  1.
    8880023    1    1    2    0    0 -0.15677879419E+03  0.18383662110E+03  0.28145935181E+03  0.75591339884E+03  0.65864270000E+03 0.  0.
    8880022    1    1    2    0    0  0.15677879419E+03 -0.18383662110E+03 -0.40893302931E+02  0.28885880427E+03  0.15294330000E+03 0.  0.
<mgrwt>
<rscale>  0 0.56055822E+03</rscale>
<asrwt>0</asrwt>
<pdfrwt beam="1">  1        2 0.98872173E-01 0.70155948E+03</pdfrwt>
<pdfrwt beam="2">  1       -2 0.61862012E-01 0.70155948E+03</pdfrwt>
<totfact> 0.11225244E+02</totfact>
</mgrwt>
</event>
<event>
 4    2  0.3171963E-007  0.6689243E+03  0.7818608E-02  0.1016446E+00
          2   -1    0    0  501    0  0.00000000000E+00  0.00000000000E+00  0.69060043923E+03  0.69060043924E+03  0.25500000000E-02 0. -1.
         -2   -1    0    0    0  501 -0.00000000000E+00 -0.00000000000E+00 -0.49366639174E+03  0.49366639175E+03  0.25500000000E-02 0.  1.
    8880023    1    1    2    0    0  0.11640473874E+03 -0.99720376407E+01  0.49312207927E+03  0.83104097135E+03  0.65864270000E+03 0. -1.
    8880022    1    1    2    0    0 -0.11640473874E+03  0.99720376407E+01 -0.29618803178E+03  0.35322585964E+03  0.15294330000E+03 0.  0.
<mgrwt>
<rscale>  0 0.48991225E+03</rscale>
<asrwt>0</asrwt>
<pdfrwt beam="1">  1        2 0.10624622E+00 0.66892429E+03</pdfrwt>
<pdfrwt beam="2">  1       -2 0.75948676E-01 0.66892429E+03</pdfrwt>
<totfact> 0.65925576E+01</totfact>
</mgrwt>
</event>
<event>
 4    2  0.3171963E-007  0.6689621E+03  0.7818608E-02  0.1016418E+00
         -2   -1    0    0    0  501 -0.00000000000E+00  0.00000000000E+00  0.89530167560E+03  0.89530167561E+03  0.25500000000E-02 0.  1.
          2   -1    0    0  501    0  0.00000000000E+00 -0.00000000000E+00 -0.43892726940E+03  0.43892726941E+03  0.25500000000E-02 0. -1.
    8880023    1    1    2    0    0  0.11673894678E+03  0.84891060014E+01 -0.16053592420E+03  0.68795496643E+03  0.65864270000E+03 0. -1.
    8880022    1    1    2    0    0 -0.11673894678E+03 -0.84891060014E+01  0.61691033040E+03  0.64627397858E+03  0.15294330000E+03 0.  0.
<mgrwt>
<rscale>  0 0.49001651E+03</rscale>
<asrwt>0</asrwt>
<pdfrwt beam="1">  1        2 0.67527273E-01 0.66896207E+03</pdfrwt>
<pdfrwt beam="2">  1       -2 0.13773872E+00 0.66896207E+03</pdfrwt>
<totfact> 0.27324179E+01</totfact>
</mgrwt>
</event>
<event>
 4    2  0.3171963E-007  0.7782832E+03  0.7818608E-02  0.9759885E-01
         -2   -1    0    0    0  501 -0.00000000000E+00  0.00000000000E+00  0.70405865151E+03  0.70405865152E+03  0.25500000000E-02 0.  1.
          2   -1    0    0  501    0  0.00000000000E+00 -0.00000000000E+00 -0.13695130357E+04  0.13695130357E+04  0.25500000000E-02 0. -1.
    8880023    1    1    2    0    0  0.21982454900E+03 -0.35155616250E+03 -0.11685058168E+04  0.14039695930E+04  0.65864270000E+03 0.  0.
    8880022    1    1    2    0    0 -0.21982454900E+03  0.35155616250E+03  0.50305143264E+03  0.66960209426E+03  0.15294330000E+03 0.  0.
<mgrwt>
<rscale>  0 0.67560485E+03</rscale>
<asrwt>0</asrwt>
<pdfrwt beam="1">  1        2 0.21069431E+00 0.77828322E+03</pdfrwt>
<pdfrwt beam="2">  1       -2 0.10831672E+00 0.77828322E+03</pdfrwt>
<totfact> 0.10467106E+01</totfact>
</mgrwt>
</event>
<event>
 4    2  0.3171963E-007  0.7871057E+03  0.7818608E-02  0.9739403E-01
          2   -1    0    0  501    0  0.00000000000E+00  0.00000000000E+00  0.19300035432E+04  0.19300035432E+04  0.25500000000E-02 0. -1.
         -2   -1    0    0    0  501 -0.00000000000E+00 -0.00000000000E+00 -0.35606722337E+03  0.35606722338E+03  0.25500000000E-02 0.  1.
    8880023    1    1    2    0    0 -0.20219968506E+02 -0.43048376443E+03  0.16446941718E+04  0.18233360205E+04  0.65864270000E+03 0.  1.
    8880022    1    1    2    0    0  0.20219968506E+02  0.43048376443E+03 -0.70757852035E+02  0.46273474605E+03  0.15294330000E+03 0.  1.
<mgrwt>
<rscale>  0 0.68718455E+03</rscale>
<asrwt>0</asrwt>
<pdfrwt beam="1">  1        2 0.29692362E+00 0.78710566E+03</pdfrwt>
<pdfrwt beam="2">  1       -2 0.54779574E-01 0.78710566E+03</pdfrwt>
<totfact> 0.23530033E+01</totfact>
</mgrwt>
</event>
<event>
 4    2  0.3171963E-007  0.6758249E+03  0.7818608E-02  0.1011791E+00
         -2   -1    0    0    0  501 -0.00000000000E+00  0.00000000000E+00  0.11093838504E+03  0.11093838507E+03  0.25500000000E-02 0.  1.
          2   -1    0    0  501    0  0.00000000000E+00 -0.00000000000E+00 -0.29945448799E+04  0.29945448799E+04  0.25500000000E-02 0. -1.
    8880023    1    1    2    0    0  0.53807556023E+02 -0.14154079336E+03 -0.27901737931E+04  0.28708551080E+04  0.65864270000E+03 0. -1.
    8880022    1    1    2    0    0 -0.53807556023E+02  0.14154079336E+03 -0.93432701799E+02  0.23462815698E+03  0.15294330000E+03 0.  0.
<mgrwt>
<rscale>  0 0.50768873E+03</rscale>
<asrwt>0</asrwt>
<pdfrwt beam="1">  1        2 0.46069915E+00 0.67582487E+03</pdfrwt>
<pdfrwt beam="2">  1       -2 0.17067446E-01 0.67582487E+03</pdfrwt>
<totfact> 0.52644142E+01</totfact>
</mgrwt>
</event>
<event>
 4    2  0.3171963E-007  0.7911372E+03  0.7818608E-02  0.9730297E-01
          2   -1    0    0  501    0  0.00000000000E+00  0.00000000000E+00  0.18351373104E+04  0.18351373104E+04  0.25500000000E-02 0. -1.
         -2   -1    0    0    0  501 -0.00000000000E+00 -0.00000000000E+00 -0.51321087238E+03  0.51321087239E+03  0.25500000000E-02 0.  1.
    8880023    1    1    2    0    0 -0.39266406920E+03 -0.19468640359E+03 -0.14976167584E+03  0.80518732777E+03  0.65864270000E+03 0.  1.
    8880022    1    1    2    0    0  0.39266406920E+03  0.19468640359E+03  0.14716881139E+04  0.15431608550E+04  0.15294330000E+03 0.  0.
<mgrwt>
<rscale>  0 0.69241203E+03</rscale>
<asrwt>0</asrwt>
<pdfrwt beam="1">  1        2 0.28232882E+00 0.79113720E+03</pdfrwt>
<pdfrwt beam="2">  1       -2 0.78955517E-01 0.79113720E+03</pdfrwt>
<totfact> 0.12044827E+01</totfact>
</mgrwt>
</event>
<event>
 4    2  0.3171963E-007  0.7076032E+03  0.7818608E-02  0.9967011E-01
         -2   -1    0    0    0  501 -0.00000000000E+00  0.00000000000E+00  0.83314969197E+03  0.83314969197E+03  0.25500000000E-02 0.  1.
          2   -1    0    0  501    0  0.00000000000E+00 -0.00000000000E+00 -0.71274538629E+03  0.71274538630E+03  0.25500000000E-02 0. -1.
    8880023    1    1    2    0    0  0.90472822742E+02  0.24229486061E+03 -0.49330019099E+03  0.86258183138E+03  0.65864270000E+03 0. -1.
    8880022    1    1    2    0    0 -0.90472822742E+02 -0.24229486061E+03  0.61370449666E+03  0.68331324689E+03  0.15294330000E+03 0.  0.
<mgrwt>
<rscale>  0 0.57120707E+03</rscale>
<asrwt>0</asrwt>
<pdfrwt beam="1">  1        2 0.10965314E+00 0.70760323E+03</pdfrwt>
<pdfrwt beam="2">  1       -2 0.12817688E+00 0.70760323E+03</pdfrwt>
<totfact> 0.18355596E+01</totfact>
</mgrwt>
</event>
<event>
 4    2  0.3171963E-007  0.6824772E+03  0.7818608E-02  0.1007956E+00
          2   -1    0    0  501    0  0.00000000000E+00  0.00000000000E+00  0.28739338090E+03  0.28739338091E+03  0.25500000000E-02 0. -1.
         -2   -1    0    0    0  501 -0.00000000000E+00 -0.00000000000E+00 -0.81416351907E+03  0.81416351907E+03  0.25500000000E-02 0.  1.
    8880023    1    1    2    0    0  0.13645568194E+03  0.11551972872E+03 -0.22437852676E+03  0.71841554158E+03  0.65864270000E+03 0. -1.
    8880022    1    1    2    0    0 -0.13645568194E+03 -0.11551972872E+03 -0.30239161141E+03  0.38314135840E+03  0.15294330000E+03 0.  0.
<mgrwt>
<rscale>  0 0.52295258E+03</rscale>
<asrwt>0</asrwt>
<pdfrwt beam="1">  1        2 0.44214367E-01 0.68247723E+03</pdfrwt>
<pdfrwt beam="2">  1       -2 0.12525592E+00 0.68247723E+03</pdfrwt>
<totfact> 0.55727520E+01</totfact>
</mgrwt>
</event>
<event>
 4    2  0.3171963E-007  0.7015802E+03  0.7818608E-02  0.9990708E-01
         -2   -1    0    0    0  501 -0.00000000000E+00  0.00000000000E+00  0.36508150619E+03  0.36508150620E+03  0.25500000000E-02 0.  1.
          2   -1    0    0  501    0  0.00000000000E+00 -0.00000000000E+00 -0.10460734244E+04  0.10460734244E+04  0.25500000000E-02 0. -1.
    8880023    1    1    2    0    0 -0.20790425503E+03 -0.12320888329E+03 -0.83152621405E+03  0.10879571035E+04  0.65864270000E+03 0. -1.
    8880022    1    1    2    0    0  0.20790425503E+03  0.12320888329E+03  0.15053429585E+03  0.32319782707E+03  0.15294330000E+03 0.  0.
<mgrwt>
<rscale>  0 0.56059560E+03</rscale>
<asrwt>0</asrwt>
<pdfrwt beam="1">  1        2 0.16093437E+00 0.70158023E+03</pdfrwt>
<pdfrwt beam="2">  1       -2 0.56166386E-01 0.70158023E+03</pdfrwt>
<totfact> 0.71405618E+01</totfact>
</mgrwt>
</event>
<event>
 4    2  0.3171963E-007  0.8879228E+03  0.7818608E-02  0.9545704E-01
          2   -1    0    0  501    0  0.00000000000E+00  0.00000000000E+00  0.18333284383E+04  0.18333284383E+04  0.25500000000E-02 0. -1.
         -2   -1    0    0    0  501 -0.00000000000E+00 -0.00000000000E+00 -0.33943282461E+03  0.33943282462E+03  0.25500000000E-02 0.  1.
    8880023    1    1    2    0    0  0.30328861029E+02 -0.59470741889E+03  0.54417563155E+03  0.10414096591E+04  0.65864270000E+03 0.  0.
    8880022    1    1    2    0    0 -0.30328861029E+02  0.59470741889E+03  0.94971998209E+03  0.11313516037E+04  0.15294330000E+03 0.  0.
<mgrwt>
<rscale>  0 0.80996496E+03</rscale>
<asrwt>0</asrwt>
<pdfrwt beam="1">  1        2 0.28205054E+00 0.88792283E+03</pdfrwt>
<pdfrwt beam="2">  1       -2 0.52220433E-01 0.88792283E+03</pdfrwt>
<totfact> 0.28998038E+01</totfact>
</mgrwt>
</event>
<event>
 4    2  0.3171963E-007  0.7865545E+03  0.7818608E-02  0.9740660E-01
         -2   -1    0    0    0  501 -0.00000000000E+00  0.00000000000E+00  0.15992799458E+04  0.15992799458E+04  0.25500000000E-02 0.  1.
          2   -1    0    0  501    0  0.00000000000E+00 -0.00000000000E+00 -0.35168730524E+03  0.35168730525E+03  0.25500000000E-02 0. -1.
    8880023    1    1    2    0    0 -0.20653195794E+03  0.37709729581E+03  0.12702562467E+04  0.14940612299E+04  0.65864270000E+03 0.  1.
    8880022    1    1    2    0    0  0.20653195794E+03 -0.37709729581E+03 -0.22663606087E+02  0.45690602120E+03  0.15294330000E+03 0.  0.
<mgrwt>
<rscale>  0 0.68646692E+03</rscale>
<asrwt>0</asrwt>
<pdfrwt beam="1">  1        2 0.54105739E-01 0.78655453E+03</pdfrwt>
<pdfrwt beam="2">  1       -2 0.24604307E+00 0.78655453E+03</pdfrwt>
<totfact> 0.63893923E+00</totfact>
</mgrwt>
</event>
<event>
 4    2  0.3171963E-007  0.6827216E+03  0.7818608E-02  0.1007824E+00
          2   -1    0    0  501    0  0.00000000000E+00  0.00000000000E+00  0.12578523430E+04  0.12578523430E+04  0.25500000000E-02 0. -1.
         -2   -1    0    0    0  501 -0.00000000000E+00 -0.00000000000E+00 -0.19091983841E+03  0.19091983843E+03  0.25500000000E-02 0.  1.
    8880023    1    1    2    0    0 -0.62152338355E+02 -0.16862879449E+03  0.98599729597E+03  0.11992912313E+04  0.65864270000E+03 0.  1.
    8880022    1    1    2    0    0  0.62152338355E+02  0.16862879449E+03  0.80935208664E+02  0.24948095020E+03  0.15294330000E+03 0.  0.
<mgrwt>
<rscale>  0 0.52348606E+03</rscale>
<asrwt>0</asrwt>
<pdfrwt beam="1">  1        2 0.19351574E+00 0.68272160E+03</pdfrwt>
<pdfrwt beam="2">  1       -2 0.29372283E-01 0.68272160E+03</pdfrwt>
<totfact> 0.18980294E+02</totfact>
</mgrwt>
</event>
<event>
 4    2  0.3171963E-007  0.7754338E+03  0.7818608E-02  0.9766674E-01
          2   -1    0    0  501    0  0.00000000000E+00  0.00000000000E+00  0.86652628787E+03  0.86652628788E+03  0.25500000000E-02 0. -1.
         -2   -1    0    0    0  501 -0.00000000000E+00 -0.00000000000E+00 -0.47691115858E+03  0.47691115859E+03  0.25500000000E-02 0.  1.
    8880023    1    1    2    0    0 -0.37204287724E+03 -0.17050356464E+03  0.27400292434E+02  0.77591774715E+03  0.65864270000E+03 0.  1.
    8880022    1    1    2    0    0  0.37204287724E+03  0.17050356464E+03  0.36221483686E+03  0.56751969932E+03  0.15294330000E+03 0.  0.
<mgrwt>
<rscale>  0 0.67182060E+03</rscale>
<asrwt>0</asrwt>
<pdfrwt beam="1">  1        2 0.13331174E+00 0.77543380E+03</pdfrwt>
<pdfrwt beam="2">  1       -2 0.73370948E-01 0.77543380E+03</pdfrwt>
<totfact> 0.52443576E+01</totfact>
</mgrwt>
</event>
<event>
 4    2  0.3171963E-007  0.7538797E+03  0.7818608E-02  0.9821218E-01
         -2   -1    0    0    0  501 -0.00000000000E+00  0.00000000000E+00  0.55424287217E+03  0.55424287218E+03  0.25500000000E-02 0.  1.
          2   -1    0    0  501    0  0.00000000000E+00 -0.00000000000E+00 -0.11330589545E+04  0.11330589545E+04  0.25500000000E-02 0. -1.
    8880023    1    1    2    0    0 -0.36649495374E+03 -0.14349287067E+02 -0.90166251921E+03  0.11752999438E+04  0.65864270000E+03 0. -1.
    8880022    1    1    2    0    0  0.36649495374E+03  0.14349287067E+02  0.32284643692E+03  0.51200188281E+03  0.15294330000E+03 0.  0.
<mgrwt>
<rscale>  0 0.64236202E+03</rscale>
<asrwt>0</asrwt>
<pdfrwt beam="1">  1        2 0.17431676E+00 0.75387974E+03</pdfrwt>
<pdfrwt beam="2">  1       -2 0.85268134E-01 0.75387974E+03</pdfrwt>
<totfact> 0.25307859E+01</totfact>
</mgrwt>
</event>
<event>
 4    2  0.3171963E-007  0.7273854E+03  0.7818608E-02  0.9898345E-01
          2   -1    0    0  501    0  0.00000000000E+00  0.00000000000E+00  0.85280819944E+03  0.85280819944E+03  0.25500000000E-02 0. -1.
         -2   -1    0    0    0  501 -0.00000000000E+00 -0.00000000000E+00 -0.64078217419E+03  0.64078217419E+03  0.25500000000E-02 0.  1.
    8880023    1    1    2    0    0  0.30505371289E+03 -0.47133668813E+02  0.62273105625E+03  0.95754035172E+03  0.65864270000E+03 0. -1.
    8880022    1    1    2    0    0 -0.30505371289E+03  0.47133668813E+02 -0.41070503101E+03  0.53605002191E+03  0.15294330000E+03 0.  0.
<mgrwt>
<rscale>  0 0.60341558E+03</rscale>
<asrwt>0</asrwt>
<pdfrwt beam="1">  1        2 0.13120126E+00 0.72738543E+03</pdfrwt>
<pdfrwt beam="2">  1       -2 0.98581873E-01 0.72738543E+03</pdfrwt>
<totfact> 0.27450330E+01</totfact>
</mgrwt>
</event>
<event>
 4    2  0.3171963E-007  0.8582141E+03  0.7818608E-02  0.9596748E-01
         -2   -1    0    0    0  501 -0.00000000000E+00  0.00000000000E+00  0.45461889577E+03  0.45461889578E+03  0.25500000000E-02 0.  1.
          2   -1    0    0  501    0  0.00000000000E+00 -0.00000000000E+00 -0.19032873401E+04  0.19032873401E+04  0.25500000000E-02 0. -1.
    8880023    1    1    2    0    0  0.52505349072E+03  0.16443884431E+03 -0.64583584474E+02  0.86064077714E+03  0.65864270000E+03 0.  1.
    8880022    1    1    2    0    0 -0.52505349072E+03 -0.16443884431E+03 -0.13840848599E+04  0.14972654588E+04  0.15294330000E+03 0.  0.
<mgrwt>
<rscale>  0 0.77511788E+03</rscale>
<asrwt>0</asrwt>
<pdfrwt beam="1">  1        2 0.29281343E+00 0.85821414E+03</pdfrwt>
<pdfrwt beam="2">  1       -2 0.69941369E-01 0.85821414E+03</pdfrwt>
<totfact> 0.14335001E+01</totfact>
</mgrwt>
</event>
<event>
 4    2  0.3171963E-007  0.8087491E+03  0.7818608E-02  0.9692188E-01
          2   -1    0    0  501    0  0.00000000000E+00  0.00000000000E+00  0.26241489652E+04  0.26241489652E+04  0.25500000000E-02 0. -1.
         -2   -1    0    0    0  501 -0.00000000000E+00 -0.00000000000E+00 -0.19504031654E+03  0.19504031655E+03  0.25500000000E-02 0.  1.
    8880023    1    1    2    0    0  0.33573143102E+03 -0.32794713896E+03  0.20274535546E+04  0.21828062310E+04  0.65864270000E+03 0.  0.
    8880022    1    1    2    0    0 -0.33573143102E+03  0.32794713896E+03  0.40165509411E+03  0.63638305081E+03  0.15294330000E+03 0.  0.
<mgrwt>
<rscale>  0 0.71483800E+03</rscale>
<asrwt>0</asrwt>
<pdfrwt beam="1">  1        2 0.40371522E+00 0.80874911E+03</pdfrwt>
<pdfrwt beam="2">  1       -2 0.30006203E-01 0.80874911E+03</pdfrwt>
<totfact> 0.31319302E+01</totfact>
</mgrwt>
</event>
<event>
 4    2  0.3171963E-007  0.1266927E+04  0.7818608E-02  0.9094660E-01
         -2   -1    0    0    0  501 -0.00000000000E+00  0.00000000000E+00  0.10419048180E+04  0.10419048180E+04  0.25500000000E-02 0.  1.
          2   -1    0    0  501    0  0.00000000000E+00 -0.00000000000E+00 -0.26788814776E+04  0.26788814776E+04  0.25500000000E-02 0. -1.
    8880023    1    1    2    0    0 -0.10598798856E+04 -0.21896888992E+03 -0.21638130308E+04  0.25074269252E+04  0.65864270000E+03 0. -1.
    8880022    1    1    2    0    0  0.10598798856E+04  0.21896888992E+03  0.52683637121E+03  0.12133593704E+04  0.15294330000E+03 0.  0.
<mgrwt>
<rscale>  0 0.12210128E+04</rscale>
<asrwt>0</asrwt>
<pdfrwt beam="1">  1        2 0.41213561E+00 0.12669266E+04</pdfrwt>
<pdfrwt beam="2">  1       -2 0.16029305E+00 0.12669266E+04</pdfrwt>
<totfact> 0.66493291E-01</totfact>
</mgrwt>
</event>
<event>
 4    2  0.3171963E-007  0.7470522E+03  0.7818608E-02  0.9839861E-01
          2   -1    0    0  501    0  0.00000000000E+00  0.00000000000E+00  0.90150938388E+03  0.90150938389E+03  0.25500000000E-02 0. -1.
         -2   -1    0    0    0  501 -0.00000000000E+00 -0.00000000000E+00 -0.55371312115E+03  0.55371312115E+03  0.25500000000E-02 0.  1.
    8880023    1    1    2    0    0 -0.60106356981E+02  0.34736727016E+03  0.63098620995E+03  0.97787044026E+03  0.65864270000E+03 0. -1.
    8880022    1    1    2    0    0  0.60106356981E+02 -0.34736727016E+03 -0.28318994721E+03  0.47735206478E+03  0.15294330000E+03 0.  0.
<mgrwt>
<rscale>  0 0.63266554E+03</rscale>
<asrwt>0</asrwt>
<pdfrwt beam="1">  1        2 0.13869375E+00 0.74705221E+03</pdfrwt>
<pdfrwt beam="2">  1       -2 0.85186635E-01 0.74705221E+03</pdfrwt>
<totfact> 0.35603796E+01</totfact>
</mgrwt>
</event>
<event>
 4    2  0.3171963E-007  0.6659959E+03  0.7818608E-02  0.1018712E+00
         -2   -1    0    0    0  501 -0.00000000000E+00  0.00000000000E+00  0.55964781151E+03  0.55964781152E+03  0.25500000000E-02 0.  1.
          2   -1    0    0  501    0  0.00000000000E+00 -0.00000000000E+00 -0.74738378636E+03  0.74738378636E+03  0.25500000000E-02 0. -1.
    8880023    1    1    2    0    0  0.43967814622E+01  0.98595146513E+02 -0.57451930941E+03  0.87955839928E+03  0.65864270000E+03 0. -1.
    8880022    1    1    2    0    0 -0.43967814622E+01 -0.98595146513E+02  0.38678333456E+03  0.42747319859E+03  0.15294330000E+03 0.  0.
<mgrwt>
<rscale>  0 0.48154248E+03</rscale>
<asrwt>0</asrwt>
<pdfrwt beam="1">  1        2 0.11498212E+00 0.66599590E+03</pdfrwt>
<pdfrwt beam="2">  1       -2 0.86099664E-01 0.66599590E+03</pdfrwt>
<totfact> 0.44982485E+01</totfact>
</mgrwt>
</event>
<event>
 4    2  0.3462745E-007  0.6695301E+03  0.7818608E-02  0.1016002E+00
          2   -1    0    0  501    0  0.00000000000E+00  0.00000000000E+00  0.12113640296E+04  0.12113640296E+04  0.25500000000E-02 0. -1.
         -2   -1    0    0    0  501 -0.00000000000E+00 -0.00000000000E+00 -0.12732112144E+04  0.12732112144E+04  0.25500000000E-02 0.  1.
    8880023    1    1    2    0    0  0.43773419924E+02  0.11200094306E+03  0.11102150081E+04  0.12964751807E+04  0.65864270000E+03 0. -1.
    8880022    1    1    2    0    0 -0.43773419924E+02 -0.11200094306E+03 -0.11720621929E+04  0.11881000634E+04  0.15294330000E+03 0.  0.
<mgrwt>
<rscale>  0 0.49157370E+03</rscale>
<asrwt>0</asrwt>
<pdfrwt beam="1">  1        2 0.18636370E+00 0.66953008E+03</pdfrwt>
<pdfrwt beam="2">  1       -2 0.19587865E+00 0.66953008E+03</pdfrwt>
<totfact> 0.27478959E+00</totfact>
</mgrwt>
</event>
<event>
 4    2  0.3171963E-007  0.7274509E+03  0.7818608E-02  0.9898136E-01
         -2   -1    0    0    0  501 -0.00000000000E+00  0.00000000000E+00  0.20422458677E+03  0.20422458679E+03  0.25500000000E-02 0.  1.
          2   -1    0    0  501    0  0.00000000000E+00 -0.00000000000E+00 -0.23211252027E+04  0.23211252027E+04  0.25500000000E-02 0. -1.
    8880023    1    1    2    0    0 -0.30882642641E+03 -0.91156737224E+00 -0.20487306169E+04  0.21740473636E+04  0.65864270000E+03 0. -1.
    8880022    1    1    2    0    0  0.30882642641E+03  0.91156737224E+00 -0.68169999031E+02  0.35130242582E+03  0.15294330000E+03 0.  0.
<mgrwt>
<rscale>  0 0.60351683E+03</rscale>
<asrwt>0</asrwt>
<pdfrwt beam="1">  1        2 0.35709616E+00 0.72745089E+03</pdfrwt>
<pdfrwt beam="2">  1       -2 0.31419169E-01 0.72745089E+03</pdfrwt>
<totfact> 0.43134411E+01</totfact>
</mgrwt>
</event>
<event>
 4    2  0.3171963E-007  0.8721999E+03  0.7818608E-02  0.9572220E-01
         -2   -1    0    0    0  501 -0.00000000000E+00  0.00000000000E+00  0.15483139976E+04  0.15483139976E+04  0.25500000000E-02 0.  1.
          2   -1    0    0  501    0  0.00000000000E+00 -0.00000000000E+00 -0.50375725479E+03  0.50375725480E+03  0.25500000000E-02 0. -1.
    8880023    1    1    2    0    0  0.51148299263E+03  0.25555337992E+03  0.11576973016E+04  0.14494811589E+04  0.65864270000E+03 0.  0.
    8880022    1    1    2    0    0 -0.51148299263E+03 -0.25555337992E+03 -0.11314055875E+03  0.60259009350E+03  0.15294330000E+03 0.  0.
<mgrwt>
<rscale>  0 0.79162445E+03</rscale>
<asrwt>0</asrwt>
<pdfrwt beam="1">  1        2 0.77501118E-01 0.87219986E+03</pdfrwt>
<pdfrwt beam="2">  1       -2 0.23820215E+00 0.87219986E+03</pdfrwt>
<totfact> 0.46940720E+00</totfact>
</mgrwt>
</event>
<event>
 4    2  0.3171963E-007  0.6677877E+03  0.7818608E-02  0.1017301E+00
         -2   -1    0    0    0  501 -0.00000000000E+00  0.00000000000E+00  0.43798831456E+03  0.43798831457E+03  0.25500000000E-02 0.  1.
          2   -1    0    0  501    0  0.00000000000E+00 -0.00000000000E+00 -0.18550097970E+04  0.18550097970E+04  0.25500000000E-02 0. -1.
    8880023    1    1    2    0    0  0.87617292458E+02  0.66733995750E+02 -0.17705892226E+04  0.18923336433E+04  0.65864270000E+03 0. -1.
    8880022    1    1    2    0    0 -0.87617292458E+02 -0.66733995750E+02  0.35356774023E+03  0.40066446819E+03  0.15294330000E+03 0.  0.
<mgrwt>
<rscale>  0 0.48673300E+03</rscale>
<asrwt>0</asrwt>
<pdfrwt beam="1">  1        2 0.28538612E+00 0.66778771E+03</pdfrwt>
<pdfrwt beam="2">  1       -2 0.67382818E-01 0.66778771E+03</pdfrwt>
<totfact> 0.16955188E+01</totfact>
</mgrwt>
</event>
<event>
 4    2  0.3171963E-007  0.6596881E+03  0.7818608E-02  0.1024478E+00
          2   -1    0    0  501    0  0.00000000000E+00  0.00000000000E+00  0.26260352017E+03  0.26260352018E+03  0.25500000000E-02 0. -1.
         -2   -1    0    0    0  501 -0.00000000000E+00 -0.00000000000E+00 -0.18474535349E+04  0.18474535349E+04  0.25500000000E-02 0.  1.
    8880023    1    1    2    0    0 -0.31309129021E+02 -0.19947824042E+02 -0.16300555390E+03  0.67952865584E+03  0.65864270000E+03 0. -1.
    8880022    1    1    2    0    0  0.31309129021E+02  0.19947824042E+02 -0.14218444608E+04  0.14305283993E+04  0.15294330000E+03 0.  0.
<mgrwt>
<rscale>  0 0.46104611E+03</rscale>
<asrwt>0</asrwt>
<pdfrwt beam="1">  1        2 0.40400543E-01 0.65968810E+03</pdfrwt>
<pdfrwt beam="2">  1       -2 0.28422361E+00 0.65968810E+03</pdfrwt>
<totfact> 0.52955350E+00</totfact>
</mgrwt>
</event>
<event>
 4    2  0.3171963E-007  0.8726521E+03  0.7818608E-02  0.9571442E-01
          2   -1    0    0  501    0  0.00000000000E+00  0.00000000000E+00  0.51611731820E+03  0.51611731820E+03  0.25500000000E-02 0. -1.
         -2   -1    0    0    0  501 -0.00000000000E+00 -0.00000000000E+00 -0.29546217493E+04  0.29546217493E+04  0.25500000000E-02 0.  1.
    8880023    1    1    2    0    0  0.70098987732E+02 -0.56815274402E+03  0.86698116375E+02  0.87694821869E+03  0.65864270000E+03 0. -1.
    8880022    1    1    2    0    0 -0.70098987732E+02  0.56815274402E+03 -0.25252025475E+04  0.25937908488E+04  0.15294330000E+03 0.  0.
<mgrwt>
<rscale>  0 0.79215500E+03</rscale>
<asrwt>0</asrwt>
<pdfrwt beam="1">  1        2 0.79402666E-01 0.87265206E+03</pdfrwt>
<pdfrwt beam="2">  1       -2 0.45455718E+00 0.87265206E+03</pdfrwt>
<totfact> 0.20018478E-01</totfact>
</mgrwt>
</event>
<event>
 4    2  0.3171963E-007  0.1172948E+04  0.7818608E-02  0.9183878E-01
          2   -1    0    0  501    0  0.00000000000E+00  0.00000000000E+00  0.17804430674E+04  0.17804430674E+04  0.25500000000E-02 0. -1.
         -2   -1    0    0    0  501 -0.00000000000E+00 -0.00000000000E+00 -0.10018615278E+04  0.10018615278E+04  0.25500000000E-02 0.  1.
    8880023    1    1    2    0    0  0.32859515448E+03 -0.91324792182E+03  0.12312303434E+04  0.17005101902E+04  0.65864270000E+03 0.  0.
    8880022    1    1    2    0    0 -0.32859515448E+03  0.91324792182E+03 -0.45264880370E+03  0.10817944050E+04  0.15294330000E+03 0.  0.
<mgrwt>
<rscale>  0 0.11221393E+04</rscale>
<asrwt>0</asrwt>
<pdfrwt beam="1">  1        2 0.27391431E+00 0.11729479E+04</pdfrwt>
<pdfrwt beam="2">  1       -2 0.15413255E+00 0.11729479E+04</pdfrwt>
<totfact> 0.24036929E+00</totfact>
</mgrwt>
</event>
<event>
 4    2  0.3171963E-007  0.6955568E+03  0.7818608E-02  0.1001616E+00
         -2   -1    0    0    0  501 -0.00000000000E+00  0.00000000000E+00  0.18416845669E+03  0.18416845671E+03  0.25500000000E-02 0.  1.
          2   -1    0    0  501    0  0.00000000000E+00 -0.00000000000E+00 -0.25473545219E+04  0.25473545219E+04  0.25500000000E-02 0. -1.
    8880023    1    1    2    0    0  0.14154954707E+03  0.17306876752E+03 -0.23602635124E+04  0.24606184439E+04  0.65864270000E+03 0. -1.
    8880022    1    1    2    0    0 -0.14154954707E+03 -0.17306876752E+03 -0.29225528280E+01  0.27090453465E+03  0.15294330000E+03 0.  0.
<mgrwt>
<rscale>  0 0.54947407E+03</rscale>
<asrwt>0</asrwt>
<pdfrwt beam="1">  1        2 0.39190067E+00 0.69555681E+03</pdfrwt>
<pdfrwt beam="2">  1       -2 0.28333611E-01 0.69555681E+03</pdfrwt>
<totfact> 0.39161141E+01</totfact>
</mgrwt>
</event>
<event>
 4    2  0.3171963E-007  0.7514084E+03  0.7818608E-02  0.9827881E-01
         -2   -1    0    0    0  501 -0.00000000000E+00  0.00000000000E+00  0.51254607778E+03  0.51254607779E+03  0.25500000000E-02 0.  1.
          2   -1    0    0  501    0  0.00000000000E+00 -0.00000000000E+00 -0.90556233075E+03  0.90556233075E+03  0.25500000000E-02 0. -1.
    8880023    1    1    2    0    0 -0.31256751437E+03 -0.18195016028E+03 -0.61145947202E+03  0.96876065364E+03  0.65864270000E+03 0.  0.
    8880022    1    1    2    0    0  0.31256751437E+03  0.18195016028E+03  0.21844321905E+03  0.44934775489E+03  0.15294330000E+03 0.  0.
<mgrwt>
<rscale>  0 0.63887536E+03</rscale>
<asrwt>0</asrwt>
<pdfrwt beam="1">  1        2 0.13931728E+00 0.75140836E+03</pdfrwt>
<pdfrwt beam="2">  1       -2 0.78853243E-01 0.75140836E+03</pdfrwt>
<totfact> 0.42115174E+01</totfact>
</mgrwt>
</event>
<event>
 4    2  0.3171963E-007  0.6606992E+03  0.7818608E-02  0.1023451E+00
          2   -1    0    0  501    0  0.00000000000E+00  0.00000000000E+00  0.44293436622E+04  0.44293436622E+04  0.25500000000E-02 0. -1.
         -2   -1    0    0    0  501 -0.00000000000E+00 -0.00000000000E+00 -0.13071917069E+03  0.13071917072E+03  0.25500000000E-02 0.  1.
    8880023    1    1    2    0    0 -0.60738298394E+01  0.51733037339E+02  0.43426336995E+04  0.43926063849E+04  0.65864270000E+03 0. -1.
    8880022    1    1    2    0    0  0.60738298394E+01 -0.51733037339E+02 -0.44009208017E+02  0.16745644797E+03  0.15294330000E+03 0.  0.
<mgrwt>
<rscale>  0 0.46461473E+03</rscale>
<asrwt>0</asrwt>
<pdfrwt beam="1">  1        2 0.68143749E+00 0.66069918E+03</pdfrwt>
<pdfrwt beam="2">  1       -2 0.20110642E-01 0.66069918E+03</pdfrwt>
<totfact> 0.35114262E+00</totfact>
</mgrwt>
</event>
<event>
 4    2  0.3171963E-007  0.6893316E+03  0.7818608E-02  0.1004472E+00
          2   -1    0    0  501    0  0.00000000000E+00  0.00000000000E+00  0.51129763185E+03  0.51129763186E+03  0.25500000000E-02 0. -1.
         -2   -1    0    0    0  501 -0.00000000000E+00 -0.00000000000E+00 -0.55873369788E+03  0.55873369788E+03  0.25500000000E-02 0.  1.
    8880023    1    1    2    0    0  0.17633122158E+03  0.10136617806E+03  0.19725304656E+03  0.71699844658E+03  0.65864270000E+03 0. -1.
    8880022    1    1    2    0    0 -0.17633122158E+03 -0.10136617806E+03 -0.24468911259E+03  0.35303288316E+03  0.15294330000E+03 0.  0.
<mgrwt>
<rscale>  0 0.53732126E+03</rscale>
<asrwt>0</asrwt>
<pdfrwt beam="1">  1        2 0.78661174E-01 0.68933157E+03</pdfrwt>
<pdfrwt beam="2">  1       -2 0.85959031E-01 0.68933157E+03</pdfrwt>
<totfact> 0.71538507E+01</totfact>
</mgrwt>
</event>
<event>
 4    2  0.3171963E-007  0.9972223E+03  0.7818608E-02  0.9385201E-01
          2   -1    0    0  501    0  0.00000000000E+00  0.00000000000E+00  0.18534190175E+04  0.18534190175E+04  0.25500000000E-02 0. -1.
         -2   -1    0    0    0  501 -0.00000000000E+00 -0.00000000000E+00 -0.55757483643E+03  0.55757483643E+03  0.25500000000E-02 0.  1.
    8880023    1    1    2    0    0  0.26407788181E+02 -0.74829452780E+03  0.13103269297E+04  0.16466356430E+04  0.65864270000E+03 0.  0.
    8880022    1    1    2    0    0 -0.26407788181E+02  0.74829452780E+03 -0.14482748702E+02  0.76435821094E+03  0.15294330000E+03 0.  0.
<mgrwt>
<rscale>  0 0.93303669E+03</rscale>
<asrwt>0</asrwt>
<pdfrwt beam="1">  1        2 0.28514138E+00 0.99722228E+03</pdfrwt>
<pdfrwt beam="2">  1       -2 0.85780745E-01 0.99722228E+03</pdfrwt>
<totfact> 0.95118209E+00</totfact>
</mgrwt>
</event>
<event>
 4    2  0.3171963E-007  0.7877998E+03  0.7818608E-02  0.9737824E-01
         -2   -1    0    0    0  501 -0.00000000000E+00  0.00000000000E+00  0.25301099280E+03  0.25301099281E+03  0.25500000000E-02 0.  1.
          2   -1    0    0  501    0  0.00000000000E+00 -0.00000000000E+00 -0.17058510967E+04  0.17058510967E+04  0.25500000000E-02 0. -1.
    8880023    1    1    2    0    0  0.43072521312E+03 -0.35972980150E+02 -0.11994078327E+04  0.14349939442E+04  0.65864270000E+03 0.  0.
    8880022    1    1    2    0    0 -0.43072521312E+03  0.35972980150E+02 -0.25343227112E+03  0.52386814523E+03  0.15294330000E+03 0. -1.
<mgrwt>
<rscale>  0 0.68808729E+03</rscale>
<asrwt>0</asrwt>
<pdfrwt beam="1">  1        2 0.26243862E+00 0.78779977E+03</pdfrwt>
<pdfrwt beam="2">  1       -2 0.38924769E-01 0.78779977E+03</pdfrwt>
<totfact> 0.61915878E+01</totfact>
</mgrwt>
</event>
<event>
 4    2  0.3171963E-007  0.1025584E+04  0.7818608E-02  0.9348825E-01
          2   -1    0    0  501    0  0.00000000000E+00  0.00000000000E+00  0.80200750791E+03  0.80200750791E+03  0.25500000000E-02 0. -1.
         -2   -1    0    0    0  501 -0.00000000000E+00 -0.00000000000E+00 -0.15626472324E+04  0.15626472324E+04  0.25500000000E-02 0.  1.
    8880023    1    1    2    0    0 -0.50648021278E+03 -0.60124126279E+03  0.26894190280E+03  0.10602609185E+04  0.65864270000E+03 0.  0.
    8880022    1    1    2    0    0  0.50648021278E+03  0.60124126279E+03 -0.10295816273E+04  0.13043938218E+04  0.15294330000E+03 0.  0.
<mgrwt>
<rscale>  0 0.96409561E+03</rscale>
<asrwt>0</asrwt>
<pdfrwt beam="1">  1        2 0.12338577E+00 0.10255845E+04</pdfrwt>
<pdfrwt beam="2">  1       -2 0.24040727E+00 0.10255845E+04</pdfrwt>
<totfact> 0.25119463E+00</totfact>
</mgrwt>
</event>
<event>
 4    2  0.3171963E-007  0.1487096E+04  0.7818608E-02  0.8918802E-01
         -2   -1    0    0    0  501 -0.00000000000E+00  0.00000000000E+00  0.13483944385E+04  0.13483944385E+04  0.25500000000E-02 0.  1.
          2   -1    0    0  501    0  0.00000000000E+00 -0.00000000000E+00 -0.18470755939E+04  0.18470755939E+04  0.25500000000E-02 0. -1.
    8880023    1    1    2    0    0  0.12936120219E+04 -0.32282111676E+03 -0.96725857098E+03  0.17739912306E+04  0.65864270000E+03 0.  0.
    8880022    1    1    2    0    0 -0.12936120219E+04  0.32282111676E+03  0.46857741554E+03  0.14214788018E+04  0.15294330000E+03 0.  0.
<mgrwt>
<rscale>  0 0.14494214E+04</rscale>
<asrwt>0</asrwt>
<pdfrwt beam="1">  1        2 0.28416548E+00 0.14870964E+04</pdfrwt>
<pdfrwt beam="2">  1       -2 0.20744530E+00 0.14870964E+04</pdfrwt>
<totfact> 0.90900042E-01</totfact>
</mgrwt>
</event>
<event>
 4    2  0.3171963E-007  0.7117668E+03  0.7818608E-02  0.9951498E-01
         -2   -1    0    0    0  501 -0.00000000000E+00  0.00000000000E+00  0.69471097248E+03  0.69471097249E+03  0.25500000000E-02 0.  1.
          2   -1    0    0  501    0  0.00000000000E+00 -0.00000000000E+00 -0.14944987772E+04  0.14944987772E+04  0.25500000000E-02 0. -1.
    8880023    1    1    2    0    0 -0.26440609572E+03 -0.53769138572E+02 -0.13678721347E+04  0.15419747361E+04  0.65864270000E+03 0. -1.
    8880022    1    1    2    0    0  0.26440609572E+03  0.53769138572E+02  0.56808433001E+03  0.64723501353E+03  0.15294330000E+03 0.  0.
<mgrwt>
<rscale>  0 0.57829097E+03</rscale>
<asrwt>0</asrwt>
<pdfrwt beam="1">  1        2 0.22992289E+00 0.71176675E+03</pdfrwt>
<pdfrwt beam="2">  1       -2 0.10687861E+00 0.71176675E+03</pdfrwt>
<totfact> 0.92772542E+00</totfact>
</mgrwt>
</event>
<event>
 4    2  0.3171963E-007  0.7032954E+03  0.7818608E-02  0.9983796E-01
         -2   -1    0    0    0  501 -0.00000000000E+00  0.00000000000E+00  0.43222665807E+03  0.43222665808E+03  0.25500000000E-02 0.  1.
          2   -1    0    0  501    0  0.00000000000E+00 -0.00000000000E+00 -0.11175787473E+04  0.11175787473E+04  0.25500000000E-02 0. -1.
    8880023    1    1    2    0    0 -0.13758545500E+03  0.20465689680E+03 -0.93295425642E+03  0.11683441504E+04  0.65864270000E+03 0.  0.
    8880022    1    1    2    0    0  0.13758545500E+03 -0.20465689680E+03  0.24760216722E+03  0.38146125499E+03  0.15294330000E+03 0.  0.
<mgrwt>
<rscale>  0 0.56366506E+03</rscale>
<asrwt>0</asrwt>
<pdfrwt beam="1">  1        2 0.17193519E+00 0.70329539E+03</pdfrwt>
<pdfrwt beam="2">  1       -2 0.66496409E-01 0.70329539E+03</pdfrwt>
<totfact> 0.45119613E+01</totfact>
</mgrwt>
</event>
<event>
 4    2  0.3171963E-007  0.6634535E+03  0.7818608E-02  0.1020868E+00
          2   -1    0    0  501    0  0.00000000000E+00  0.00000000000E+00  0.79452456145E+03  0.79452456146E+03  0.25500000000E-02 0. -1.
         -2   -1    0    0    0  501 -0.00000000000E+00 -0.00000000000E+00 -0.23576962960E+03  0.23576962961E+03  0.25500000000E-02 0.  1.
    8880023    1    1    2    0    0 -0.43206684147E+02 -0.67033586876E+02  0.54254850394E+03  0.85704690928E+03  0.65864270000E+03 0. -1.
    8880022    1    1    2    0    0  0.43206684147E+02  0.67033586876E+02  0.16206427916E+02  0.17324728178E+03  0.15294330000E+03 0.  1.
<mgrwt>
<rscale>  0 0.47374793E+03</rscale>
<asrwt>0</asrwt>
<pdfrwt beam="1">  1        2 0.12223455E+00 0.66345348E+03</pdfrwt>
<pdfrwt beam="2">  1       -2 0.36272251E-01 0.66345348E+03</pdfrwt>
<totfact> 0.25178689E+02</totfact>
</mgrwt>
</event>
<event>
 4    2  0.3171963E-007  0.1280754E+04  0.7818608E-02  0.9082361E-01
         -2   -1    0    0    0  501 -0.00000000000E+00  0.00000000000E+00  0.78319028850E+03  0.78319028851E+03  0.25500000000E-02 0.  1.
          2   -1    0    0  501    0  0.00000000000E+00 -0.00000000000E+00 -0.20426294032E+04  0.20426294032E+04  0.25500000000E-02 0. -1.
    8880023    1    1    2    0    0  0.81524994147E+03  0.73613065207E+03 -0.11323523276E+04  0.17095475437E+04  0.65864270000E+03 0.  1.
    8880022    1    1    2    0    0 -0.81524994147E+03 -0.73613065207E+03 -0.12708678706E+03  0.11162721480E+04  0.15294330000E+03 0. -1.
<mgrwt>
<rscale>  0 0.12354739E+04</rscale>
<asrwt>0</asrwt>
<pdfrwt beam="1">  1        2 0.31425067E+00 0.12807541E+04</pdfrwt>
<pdfrwt beam="2">  1       -2 0.12049081E+00 0.12807541E+04</pdfrwt>
<totfact> 0.32200134E+00</totfact>
</mgrwt>
</event>
<event>
 4    2  0.3171963E-007  0.7216119E+03  0.7818608E-02  0.9917169E-01
         -2   -1    0    0    0  501 -0.00000000000E+00  0.00000000000E+00  0.48179323908E+03  0.48179323909E+03  0.25500000000E-02 0.  1.
          2   -1    0    0  501    0  0.00000000000E+00 -0.00000000000E+00 -0.78072692494E+03  0.78072692494E+03  0.25500000000E-02 0. -1.
    8880023    1    1    2    0    0  0.23001071274E+03 -0.18441438998E+03 -0.49664624140E+03  0.87600301972E+03  0.65864270000E+03 0.  0.
    8880022    1    1    2    0    0 -0.23001071274E+03  0.18441438998E+03  0.19771255554E+03  0.38651714430E+03  0.15294330000E+03 0.  0.
<mgrwt>
<rscale>  0 0.59436374E+03</rscale>
<asrwt>0</asrwt>
<pdfrwt beam="1">  1        2 0.12011183E+00 0.72161195E+03</pdfrwt>
<pdfrwt beam="2">  1       -2 0.74122037E-01 0.72161195E+03</pdfrwt>
<totfact> 0.59218881E+01</totfact>
</mgrwt>
</event>
<event>
 4    2  0.3171963E-007  0.6859046E+03  0.7818608E-02  0.1006163E+00
         -2   -1    0    0    0  501 -0.00000000000E+00  0.00000000000E+00  0.16778335794E+04  0.16778335794E+04  0.25500000000E-02 0.  1.
          2   -1    0    0  501    0  0.00000000000E+00 -0.00000000000E+00 -0.40659605953E+03  0.40659605953E+03  0.25500000000E-02 0. -1.
    8880023    1    1    2    0    0 -0.91459959278E+02 -0.16819615580E+03 -0.98504158947E+02  0.69294166174E+03  0.65864270000E+03 0.  0.
    8880022    1    1    2    0    0  0.91459959278E+02  0.16819615580E+03  0.13697416788E+04  0.13914879772E+04  0.15294330000E+03 0.  1.
<mgrwt>
<rscale>  0 0.53028428E+03</rscale>
<asrwt>0</asrwt>
<pdfrwt beam="1">  1        2 0.62553240E-01 0.68590457E+03</pdfrwt>
<pdfrwt beam="2">  1       -2 0.25812824E+00 0.68590457E+03</pdfrwt>
<totfact> 0.46472923E+00</totfact>
</mgrwt>
</event>
<event>
 4    2  0.3171963E-007  0.1819599E+04  0.7818608E-02  0.8711772E-01
          2   -1    0    0  501    0  0.00000000000E+00  0.00000000000E+00  0.27014323988E+04  0.27014323988E+04  0.25500000000E-02 0. -1.
         -2   -1    0    0    0  501 -0.00000000000E+00 -0.00000000000E+00 -0.15435151280E+04  0.15435151280E+04  0.25500000000E-02 0.  1.
    8880023    1    1    2    0    0  0.72122546315E+03 -0.15352404245E+04  0.16666247657E+04  0.24675043355E+04  0.65864270000E+03 0.  0.
    8880022    1    1    2    0    0 -0.72122546315E+03  0.15352404245E+04 -0.50870749488E+03  0.17774431913E+04  0.15294330000E+03 0.  0.
<mgrwt>
<rscale>  0 0.17897453E+04</rscale>
<asrwt>0</asrwt>
<pdfrwt beam="1">  1        2 0.41560498E+00 0.18195987E+04</pdfrwt>
<pdfrwt beam="2">  1       -2 0.23746387E+00 0.18195987E+04</pdfrwt>
<totfact> 0.18438334E-01</totfact>
</mgrwt>
</event>
<event>
 4    2  0.3171963E-007  0.7735061E+03  0.7818608E-02  0.9771318E-01
         -2   -1    0    0    0  501 -0.00000000000E+00  0.00000000000E+00  0.23831228018E+03  0.23831228019E+03  0.25500000000E-02 0.  1.
          2   -1    0    0  501    0  0.00000000000E+00 -0.00000000000E+00 -0.19949934733E+04  0.19949934733E+04  0.25500000000E-02 0. -1.
    8880023    1    1    2    0    0 -0.12936148691E+03 -0.38440480532E+03 -0.15913487407E+04  0.17693791197E+04  0.65864270000E+03 0. -1.
    8880022    1    1    2    0    0  0.12936148691E+03  0.38440480532E+03 -0.16533245241E+03  0.46392663373E+03  0.15294330000E+03 0.  0.
<mgrwt>
<rscale>  0 0.66924734E+03</rscale>
<asrwt>0</asrwt>
<pdfrwt beam="1">  1        2 0.30692206E+00 0.77350608E+03</pdfrwt>
<pdfrwt beam="2">  1       -2 0.36663429E-01 0.77350608E+03</pdfrwt>
<totfact> 0.48389379E+01</totfact>
</mgrwt>
</event>
<event>
 4    2  0.3171963E-007  0.1158123E+04  0.7818608E-02  0.9198945E-01
          2   -1    0    0  501    0  0.00000000000E+00  0.00000000000E+00  0.10833766619E+04  0.10833766619E+04  0.25500000000E-02 0. -1.
         -2   -1    0    0    0  501 -0.00000000000E+00 -0.00000000000E+00 -0.11136727814E+04  0.11136727814E+04  0.25500000000E-02 0.  1.
    8880023    1    1    2    0    0 -0.92189767127E+03 -0.23988277612E+03  0.26503807206E+03  0.11880633184E+04  0.65864270000E+03 0. -1.
    8880022    1    1    2    0    0  0.92189767127E+03  0.23988277612E+03 -0.29533419160E+03  0.10089861249E+04  0.15294330000E+03 0.  1.
<mgrwt>
<rscale>  0 0.11064324E+04</rscale>
<asrwt>0</asrwt>
<pdfrwt beam="1">  1        2 0.16667333E+00 0.11581232E+04</pdfrwt>
<pdfrwt beam="2">  1       -2 0.17133427E+00 0.11581232E+04</pdfrwt>
<totfact> 0.45411670E+00</totfact>
</mgrwt>
</event>
<event>
 4    2  0.3171963E-007  0.7102140E+03  0.7818608E-02  0.9957207E-01
          2   -1    0    0  501    0  0.00000000000E+00  0.00000000000E+00  0.39383511893E+03  0.39383511894E+03  0.25500000000E-02 0. -1.
         -2   -1    0    0    0  501 -0.00000000000E+00 -0.00000000000E+00 -0.16023835412E+04  0.16023835412E+04  0.25500000000E-02 0.  1.
    8880023    1    1    2    0    0 -0.22729453104E+03 -0.13758966451E+03  0.39263449199E+02  0.71129849172E+03  0.65864270000E+03 0. -1.
    8880022    1    1    2    0    0  0.22729453104E+03  0.13758966451E+03 -0.12478118715E+04  0.12849201684E+04  0.15294330000E+03 0.  0.
<mgrwt>
<rscale>  0 0.57567114E+03</rscale>
<asrwt>0</asrwt>
<pdfrwt beam="1">  1        2 0.60590019E-01 0.71021400E+03</pdfrwt>
<pdfrwt beam="2">  1       -2 0.24652054E+00 0.71021400E+03</pdfrwt>
<totfact> 0.56420068E+00</totfact>
</mgrwt>
</event>
<event>
 4    2  0.3171963E-007  0.8345898E+03  0.7818608E-02  0.9640467E-01
          2   -1    0    0  501    0  0.00000000000E+00  0.00000000000E+00  0.17335660792E+04  0.17335660792E+04  0.25500000000E-02 0. -1.
         -2   -1    0    0    0  501 -0.00000000000E+00 -0.00000000000E+00 -0.27320880858E+03  0.27320880859E+03  0.25500000000E-02 0.  1.
    8880023    1    1    2    0    0 -0.18684020711E+03 -0.47730570615E+03  0.98641063150E+03  0.12921091828E+04  0.65864270000E+03 0.  1.
    8880022    1    1    2    0    0  0.18684020711E+03  0.47730570615E+03  0.47394663912E+03  0.71466570498E+03  0.15294330000E+03 0. -1.
<mgrwt>
<rscale>  0 0.74674730E+03</rscale>
<asrwt>0</asrwt>
<pdfrwt beam="1">  1        2 0.26670248E+00 0.83458984E+03</pdfrwt>
<pdfrwt beam="2">  1       -2 0.42032124E-01 0.83458984E+03</pdfrwt>
<totfact> 0.51202435E+01</totfact>
</mgrwt>
</event>
<event>
 4    2  0.3171963E-007  0.8159175E+03  0.7818608E-02  0.9677380E-01
         -2   -1    0    0    0  501 -0.00000000000E+00  0.00000000000E+00  0.68107238866E+03  0.68107238866E+03  0.25500000000E-02 0.  1.
          2   -1    0    0  501    0  0.00000000000E+00 -0.00000000000E+00 -0.19693039244E+04  0.19693039244E+04  0.25500000000E-02 0. -1.
    8880023    1    1    2    0    0  0.44438910368E+03  0.18555176935E+03 -0.17720187317E+04  0.19508387239E+04  0.65864270000E+03 0. -1.
    8880022    1    1    2    0    0 -0.44438910368E+03 -0.18555176935E+03  0.48378719605E+03  0.69953758916E+03  0.15294330000E+03 0.  0.
<mgrwt>
<rscale>  0 0.72379674E+03</rscale>
<asrwt>0</asrwt>
<pdfrwt beam="1">  1        2 0.30296983E+00 0.81591748E+03</pdfrwt>
<pdfrwt beam="2">  1       -2 0.10478037E+00 0.81591748E+03</pdfrwt>
<totfact> 0.52608598E+00</totfact>
</mgrwt>
</event>
<event>
 4    2  0.3171963E-007  0.8962951E+03  0.7818608E-02  0.9532006E-01
         -2   -1    0    0    0  501 -0.00000000000E+00  0.00000000000E+00  0.48780027875E+03  0.48780027875E+03  0.25500000000E-02 0.  1.
          2   -1    0    0  501    0  0.00000000000E+00 -0.00000000000E+00 -0.18712907869E+04  0.18712907869E+04  0.25500000000E-02 0. -1.
    8880023    1    1    2    0    0  0.20863277250E+03 -0.57097021917E+03 -0.14746387184E+04  0.17256605057E+04  0.65864270000E+03 0.  0.
    8880022    1    1    2    0    0 -0.20863277250E+03  0.57097021917E+03  0.91148210297E+02  0.63343055989E+03  0.15294330000E+03 0.  0.
<mgrwt>
<rscale>  0 0.81964753E+03</rscale>
<asrwt>0</asrwt>
<pdfrwt beam="1">  1        2 0.28789089E+00 0.89629506E+03</pdfrwt>
<pdfrwt beam="2">  1       -2 0.75046198E-01 0.89629506E+03</pdfrwt>
<totfact> 0.12719976E+01</totfact>
</mgrwt>
</event>
<event>
 4    2  0.3171963E-007  0.1049239E+04  0.7818608E-02  0.9319797E-01
         -2   -1    0    0    0  501 -0.00000000000E+00  0.00000000000E+00  0.80613414136E+03  0.80613414137E+03  0.25500000000E-02 0.  1.
          2   -1    0    0  501    0  0.00000000000E+00 -0.00000000000E+00 -0.11725658427E+04  0.11725658427E+04  0.25500000000E-02 0. -1.
    8880023    1    1    2    0    0  0.51939022263E+03  0.63033806952E+03  0.47585321617E+02  0.10503175017E+04  0.65864270000E+03 0.  0.
    8880022    1    1    2    0    0 -0.51939022263E+03 -0.63033806952E+03 -0.41401702291E+03  0.92838248234E+03  0.15294330000E+03 0.  0.
<mgrwt>
<rscale>  0 0.98980585E+03</rscale>
<asrwt>0</asrwt>
<pdfrwt beam="1">  1        2 0.18039475E+00 0.10492390E+04</pdfrwt>
<pdfrwt beam="2">  1       -2 0.12402064E+00 0.10492390E+04</pdfrwt>
<totfact> 0.95051466E+00</totfact>
</mgrwt>
</event>
<event>
 4    2  0.3171963E-007  0.1337223E+04  0.7818608E-02  0.9034064E-01
          2   -1    0    0  501    0  0.00000000000E+00  0.00000000000E+00  0.14897020932E+04  0.14897020932E+04  0.25500000000E-02 0. -1.
         -2   -1    0    0    0  501 -0.00000000000E+00 -0.00000000000E+00 -0.18892988119E+04  0.18892988119E+04  0.25500000000E-02 0.  1.
    8880023    1    1    2    0    0 -0.54675035480E+03 -0.10273358419E+04  0.91220227968E+03  0.16187273050E+04  0.65864270000E+03 0.  0.
    8880022    1    1    2    0    0  0.54675035480E+03  0.10273358419E+04 -0.13117989984E+04  0.17602736002E+04  0.15294330000E+03 0.  0.
<mgrwt>
<rscale>  0 0.12943419E+04</rscale>
<asrwt>0</asrwt>
<pdfrwt beam="1">  1        2 0.22918494E+00 0.13372229E+04</pdfrwt>
<pdfrwt beam="2">  1       -2 0.29066136E+00 0.13372229E+04</pdfrwt>
<totfact> 0.44684264E-01</totfact>
</mgrwt>
</event>
<event>
 4    2  0.3171963E-007  0.1100948E+04  0.7818608E-02  0.9260002E-01
          2   -1    0    0  501    0  0.00000000000E+00  0.00000000000E+00  0.33171166905E+04  0.33171166905E+04  0.25500000000E-02 0. -1.
         -2   -1    0    0    0  501 -0.00000000000E+00 -0.00000000000E+00 -0.13480555469E+04  0.13480555469E+04  0.25500000000E-02 0.  1.
    8880023    1    1    2    0    0 -0.67489556095E+03 -0.56814779950E+03 -0.10468237601E+04  0.15191860095E+04  0.65864270000E+03 0.  1.
    8880022    1    1    2    0    0  0.67489556095E+03  0.56814779950E+03  0.30158849038E+04  0.31459862279E+04  0.15294330000E+03 0.  0.
<mgrwt>
<rscale>  0 0.10455008E+04</rscale>
<asrwt>0</asrwt>
<pdfrwt beam="1">  1        2 0.51032565E+00 0.11009478E+04</pdfrwt>
<pdfrwt beam="2">  1       -2 0.20739316E+00 0.11009478E+04</pdfrwt>
<totfact> 0.12996519E-01</totfact>
</mgrwt>
</event>
<event>
 4    2  0.3171963E-007  0.6724594E+03  0.7818608E-02  0.1013958E+00
          2   -1    0    0  501    0  0.00000000000E+00  0.00000000000E+00  0.44458729445E+03  0.44458729445E+03  0.25500000000E-02 0. -1.
         -2   -1    0    0    0  501 -0.00000000000E+00 -0.00000000000E+00 -0.94823268922E+03  0.94823268923E+03  0.25500000000E-02 0.  1.
    8880023    1    1    2    0    0  0.93612740755E+01 -0.13529150725E+03  0.16602175192E+03  0.69265060006E+03  0.65864270000E+03 0. -1.
    8880022    1    1    2    0    0 -0.93612740755E+01  0.13529150725E+03 -0.66966714670E+03  0.70016938362E+03  0.15294330000E+03 0.  0.
<mgrwt>
<rscale>  0 0.49931499E+03</rscale>
<asrwt>0</asrwt>
<pdfrwt beam="1">  1        2 0.68398045E-01 0.67245939E+03</pdfrwt>
<pdfrwt beam="2">  1       -2 0.14588195E+00 0.67245939E+03</pdfrwt>
<totfact> 0.23190804E+01</totfact>
</mgrwt>
</event>
<event>
 4    2  0.3171963E-007  0.9854789E+03  0.7818608E-02  0.9400807E-01
          2   -1    0    0  501    0  0.00000000000E+00  0.00000000000E+00  0.14559903120E+04  0.14559903120E+04  0.25500000000E-02 0. -1.
         -2   -1    0    0    0  501 -0.00000000000E+00 -0.00000000000E+00 -0.61834689774E+03  0.61834689774E+03  0.25500000000E-02 0.  1.
    8880023    1    1    2    0    0 -0.52358205634E+03 -0.51304994137E+03  0.48827019870E+02  0.98668773996E+03  0.65864270000E+03 0.  0.
    8880022    1    1    2    0    0  0.52358205634E+03  0.51304994137E+03  0.78881639441E+03  0.10876494698E+04  0.15294330000E+03 0.  0.
<mgrwt>
<rscale>  0 0.92009285E+03</rscale>
<asrwt>0</asrwt>
<pdfrwt beam="1">  1        2 0.22399851E+00 0.98547888E+03</pdfrwt>
<pdfrwt beam="2">  1       -2 0.95130292E-01 0.98547888E+03</pdfrwt>
<totfact> 0.12452511E+01</totfact>
</mgrwt>
</event>
<event>
 4    2  0.3171963E-007  0.1097173E+04  0.7818608E-02  0.9264210E-01
         -2   -1    0    0    0  501 -0.00000000000E+00  0.00000000000E+00  0.35493233736E+03  0.35493233737E+03  0.25500000000E-02 0.  1.
          2   -1    0    0  501    0  0.00000000000E+00 -0.00000000000E+00 -0.28682139805E+04  0.28682139805E+04  0.25500000000E-02 0. -1.
    8880023    1    1    2    0    0 -0.78264627632E+03 -0.39679226973E+03 -0.16589439984E+04  0.19889405962E+04  0.65864270000E+03 0.  0.
    8880022    1    1    2    0    0  0.78264627632E+03  0.39679226973E+03 -0.85433764478E+03  0.12342057217E+04  0.15294330000E+03 0.  0.
<mgrwt>
<rscale>  0 0.10414562E+04</rscale>
<asrwt>0</asrwt>
<pdfrwt beam="1">  1        2 0.44126367E+00 0.10971734E+04</pdfrwt>
<pdfrwt beam="2">  1       -2 0.54604977E-01 0.10971734E+04</pdfrwt>
<totfact> 0.66795502E+00</totfact>
</mgrwt>
</event>
<event>
 4    2  0.3171963E-007  0.9427791E+03  0.7818608E-02  0.9460580E-01
         -2   -1    0    0    0  501 -0.00000000000E+00  0.00000000000E+00  0.10298767567E+04  0.10298767567E+04  0.25500000000E-02 0.  1.
          2   -1    0    0  501    0  0.00000000000E+00 -0.00000000000E+00 -0.95793449921E+03  0.95793449922E+03  0.25500000000E-02 0. -1.
    8880023    1    1    2    0    0 -0.31087938550E+03  0.59864529169E+03 -0.52065716778E+03  0.10769940901E+04  0.65864270000E+03 0. -1.
    8880022    1    1    2    0    0  0.31087938550E+03 -0.59864529169E+03  0.59259942523E+03  0.91081716573E+03  0.15294330000E+03 0.  0.
<mgrwt>
<rscale>  0 0.87253512E+03</rscale>
<asrwt>0</asrwt>
<pdfrwt beam="1">  1        2 0.14737454E+00 0.94277907E+03</pdfrwt>
<pdfrwt beam="2">  1       -2 0.15844258E+00 0.94277907E+03</pdfrwt>
<totfact> 0.69169628E+00</totfact>
</mgrwt>
</event>
<event>
 4    2  0.3171963E-007  0.9912334E+03  0.7818608E-02  0.9393118E-01
         -2   -1    0    0    0  501 -0.00000000000E+00  0.00000000000E+00  0.90931433927E+03  0.90931433927E+03  0.25500000000E-02 0.  1.
          2   -1    0    0  501    0  0.00000000000E+00 -0.00000000000E+00 -0.18343056103E+04  0.18343056103E+04  0.25500000000E-02 0. -1.
    8880023    1    1    2    0    0 -0.17168849951E+03 -0.72059453511E+03 -0.14969096200E+04  0.17953501167E+04  0.65864270000E+03 0.  0.
    8880022    1    1    2    0    0  0.17168849951E+03  0.72059453511E+03  0.57191834901E+03  0.94826983282E+03  0.15294330000E+03 0.  0.
<mgrwt>
<rscale>  0 0.92644217E+03</rscale>
<asrwt>0</asrwt>
<pdfrwt beam="1">  1        2 0.28220086E+00 0.99123339E+03</pdfrwt>
<pdfrwt beam="2">  1       -2 0.13989451E+00 0.99123339E+03</pdfrwt>
<totfact> 0.29634235E+00</totfact>
</mgrwt>
</event>
<event>
 4    2  0.3171963E-007  0.7303470E+03  0.7818608E-02  0.9889014E-01
          2   -1    0    0  501    0  0.00000000000E+00  0.00000000000E+00  0.84411428473E+03  0.84411428474E+03  0.25500000000E-02 0. -1.
         -2   -1    0    0    0  501 -0.00000000000E+00 -0.00000000000E+00 -0.66773832841E+03  0.66773832841E+03  0.25500000000E-02 0.  1.
    8880023    1    1    2    0    0  0.13472454110E+03 -0.28538705003E+03  0.61181834423E+03  0.95274779606E+03  0.65864270000E+03 0. -1.
    8880022    1    1    2    0    0 -0.13472454110E+03  0.28538705003E+03 -0.43544238790E+03  0.55910481709E+03  0.15294330000E+03 0.  0.
<mgrwt>
<rscale>  0 0.60796673E+03</rscale>
<asrwt>0</asrwt>
<pdfrwt beam="1">  1        2 0.12986374E+00 0.73034696E+03</pdfrwt>
<pdfrwt beam="2">  1       -2 0.10272897E+00 0.73034696E+03</pdfrwt>
<totfact> 0.25233159E+01</totfact>
</mgrwt>
</event>
<event>
 4    2  0.3171963E-007  0.1298738E+04  0.7818608E-02  0.9066651E-01
          2   -1    0    0  501    0  0.00000000000E+00  0.00000000000E+00  0.50464036135E+03  0.50464036136E+03  0.25500000000E-02 0. -1.
         -2   -1    0    0    0  501 -0.00000000000E+00 -0.00000000000E+00 -0.35460815836E+04  0.35460815836E+04  0.25500000000E-02 0.  1.
    8880023    1    1    2    0    0  0.22619534822E+03 -0.10962414863E+04 -0.24561389199E+04  0.27783697256E+04  0.65864270000E+03 0.  0.
    8880022    1    1    2    0    0 -0.22619534822E+03  0.10962414863E+04 -0.58530230230E+03  0.12723522193E+04  0.15294330000E+03 0.  0.
<mgrwt>
<rscale>  0 0.12542534E+04</rscale>
<asrwt>0</asrwt>
<pdfrwt beam="1">  1        2 0.77636981E-01 0.12987378E+04</pdfrwt>
<pdfrwt beam="2">  1       -2 0.54555100E+00 0.12987378E+04</pdfrwt>
<totfact> 0.52715088E-02</totfact>
</mgrwt>
</event>
<event>
 4    2  0.3171963E-007  0.8451965E+03  0.7818608E-02  0.9620459E-01
          2   -1    0    0  501    0  0.00000000000E+00  0.00000000000E+00  0.36913367577E+04  0.36913367577E+04  0.25500000000E-02 0. -1.
         -2   -1    0    0    0  501 -0.00000000000E+00 -0.00000000000E+00 -0.17147745304E+03  0.17147745306E+03  0.25500000000E-02 0.  1.
    8880023    1    1    2    0    0 -0.48826919314E+03  0.20528049655E+03  0.29550451620E+04  0.30735401418E+04  0.65864270000E+03 0. -1.
    8880022    1    1    2    0    0  0.48826919314E+03 -0.20528049655E+03  0.56481414265E+03  0.78927406899E+03  0.15294330000E+03 0.  0.
<mgrwt>
<rscale>  0 0.75956769E+03</rscale>
<asrwt>0</asrwt>
<pdfrwt beam="1">  1        2 0.56789796E+00 0.84519648E+03</pdfrwt>
<pdfrwt beam="2">  1       -2 0.26381147E-01 0.84519648E+03</pdfrwt>
<totfact> 0.82303583E+00</totfact>
</mgrwt>
</event>
<event>
 4    2  0.3171963E-007  0.7052771E+03  0.7818608E-02  0.9975976E-01
          2   -1    0    0  501    0  0.00000000000E+00  0.00000000000E+00  0.14150529317E+04  0.14150529317E+04  0.25500000000E-02 0. -1.
         -2   -1    0    0    0  501 -0.00000000000E+00 -0.00000000000E+00 -0.55330741779E+03  0.55330741779E+03  0.25500000000E-02 0.  1.
    8880023    1    1    2    0    0 -0.24447468428E+03  0.61948710554E+02  0.12771171353E+04  0.14589187426E+04  0.65864270000E+03 0. -1.
    8880022    1    1    2    0    0  0.24447468428E+03 -0.61948710554E+02 -0.41537162137E+03  0.50944160690E+03  0.15294330000E+03 0.  0.
<mgrwt>
<rscale>  0 0.56716308E+03</rscale>
<asrwt>0</asrwt>
<pdfrwt beam="1">  1        2 0.21770045E+00 0.70527705E+03</pdfrwt>
<pdfrwt beam="2">  1       -2 0.85124218E-01 0.70527705E+03</pdfrwt>
<totfact> 0.17520299E+01</totfact>
</mgrwt>
</event>
<event>
 4    2  0.3171963E-007  0.7874145E+03  0.7818608E-02  0.9738700E-01
          2   -1    0    0  501    0  0.00000000000E+00  0.00000000000E+00  0.18774073202E+04  0.18774073202E+04  0.25500000000E-02 0. -1.
         -2   -1    0    0    0  501 -0.00000000000E+00 -0.00000000000E+00 -0.53105539618E+03  0.53105539619E+03  0.25500000000E-02 0.  1.
    8880023    1    1    2    0    0 -0.36237069808E+03 -0.23430517922E+03  0.16709888799E+04  0.18472210162E+04  0.65864270000E+03 0. -1.
    8880022    1    1    2    0    0  0.36237069808E+03  0.23430517922E+03 -0.32463695589E+03  0.56124170014E+03  0.15294330000E+03 0.  0.
<mgrwt>
<rscale>  0 0.68758640E+03</rscale>
<asrwt>0</asrwt>
<pdfrwt beam="1">  1        2 0.28883189E+00 0.78741453E+03</pdfrwt>
<pdfrwt beam="2">  1       -2 0.81700830E-01 0.78741453E+03</pdfrwt>
<totfact> 0.10580735E+01</totfact>
</mgrwt>
</event>
<event>
 4    2  0.3171963E-007  0.8938484E+03  0.7818608E-02  0.9535980E-01
          2   -1    0    0  501    0  0.00000000000E+00  0.00000000000E+00  0.12817303467E+04  0.12817303467E+04  0.25500000000E-02 0. -1.
         -2   -1    0    0    0  501 -0.00000000000E+00 -0.00000000000E+00 -0.48190912929E+03  0.48190912930E+03  0.25500000000E-02 0.  1.
    8880023    1    1    2    0    0 -0.60204195286E+03 -0.51964276060E+02  0.23924497951E+03  0.92531246910E+03  0.65864270000E+03 0.  0.
    8880022    1    1    2    0    0  0.60204195286E+03  0.51964276060E+02  0.56057623790E+03  0.83832700690E+03  0.15294330000E+03 0.  0.
<mgrwt>
<rscale>  0 0.81682360E+03</rscale>
<asrwt>0</asrwt>
<pdfrwt beam="1">  1        2 0.19718928E+00 0.89384842E+03</pdfrwt>
<pdfrwt beam="2">  1       -2 0.74139866E-01 0.89384842E+03</pdfrwt>
<totfact> 0.27909809E+01</totfact>
</mgrwt>
</event>
<event>
 4    2  0.3171963E-007  0.6945967E+03  0.7818608E-02  0.1002040E+00
         -2   -1    0    0    0  501 -0.00000000000E+00  0.00000000000E+00  0.16782917899E+04  0.16782917899E+04  0.25500000000E-02 0.  1.
          2   -1    0    0  501    0  0.00000000000E+00 -0.00000000000E+00 -0.46543137471E+03  0.46543137472E+03  0.25500000000E-02 0. -1.
    8880023    1    1    2    0    0 -0.20854280042E+03 -0.71863294214E+02 -0.18622122932E+03  0.71912654323E+03  0.65864270000E+03 0. -1.
    8880022    1    1    2    0    0  0.20854280042E+03  0.71863294214E+02  0.13990816445E+04  0.14245966214E+04  0.15294330000E+03 0.  0.
<mgrwt>
<rscale>  0 0.54764718E+03</rscale>
<asrwt>0</asrwt>
<pdfrwt beam="1">  1        2 0.71604828E-01 0.69459675E+03</pdfrwt>
<pdfrwt beam="2">  1       -2 0.25819873E+00 0.69459675E+03</pdfrwt>
<totfact> 0.39776112E+00</totfact>
</mgrwt>
</event>
<event>
 4    2  0.3171963E-007  0.7100582E+03  0.7818608E-02  0.9957785E-01
         -2   -1    0    0    0  501 -0.00000000000E+00  0.00000000000E+00  0.56731358532E+03  0.56731358532E+03  0.25500000000E-02 0.  1.
          2   -1    0    0  501    0  0.00000000000E+00 -0.00000000000E+00 -0.48531906440E+03  0.48531906440E+03  0.25500000000E-02 0. -1.
    8880023    1    1    2    0    0  0.25438130319E+03  0.75250179680E+02 -0.64888827976E+02  0.71301697260E+03  0.65864270000E+03 0. -1.
    8880022    1    1    2    0    0 -0.25438130319E+03 -0.75250179680E+02  0.14688334890E+03  0.33961567713E+03  0.15294330000E+03 0.  0.
<mgrwt>
<rscale>  0 0.57540685E+03</rscale>
<asrwt>0</asrwt>
<pdfrwt beam="1">  1        2 0.74664472E-01 0.71005820E+03</pdfrwt>
<pdfrwt beam="2">  1       -2 0.87279012E-01 0.71005820E+03</pdfrwt>
<totfact> 0.73296181E+01</totfact>
</mgrwt>
</event>
<event>
 4    2  0.3171963E-007  0.1039587E+04  0.7818608E-02  0.9331506E-01
         -2   -1    0    0    0  501 -0.00000000000E+00  0.00000000000E+00  0.59849969012E+03  0.59849969012E+03  0.25500000000E-02 0.  1.
          2   -1    0    0  501    0  0.00000000000E+00 -0.00000000000E+00 -0.18950039377E+04  0.18950039377E+04  0.25500000000E-02 0. -1.
    8880023    1    1    2    0    0 -0.65130978160E+03 -0.47193845032E+03 -0.13128492915E+04  0.16746085515E+04  0.65864270000E+03 0. -1.
    8880022    1    1    2    0    0  0.65130978160E+03  0.47193845032E+03  0.16345043882E+02  0.81889507629E+03  0.15294330000E+03 0.  0.
<mgrwt>
<rscale>  0 0.97933432E+03</rscale>
<asrwt>0</asrwt>
<pdfrwt beam="1">  1        2 0.29153907E+00 0.10395867E+04</pdfrwt>
<pdfrwt beam="2">  1       -2 0.92076876E-01 0.10395867E+04</pdfrwt>
<totfact> 0.76255291E+00</totfact>
</mgrwt>
</event>
<event>
 4    2  0.3171963E-007  0.7117516E+03  0.7818608E-02  0.9951553E-01
         -2   -1    0    0    0  501 -0.00000000000E+00  0.00000000000E+00  0.36510375628E+03  0.36510375629E+03  0.25500000000E-02 0.  1.
          2   -1    0    0  501    0  0.00000000000E+00 -0.00000000000E+00 -0.22058043393E+04  0.22058043393E+04  0.25500000000E-02 0. -1.
    8880023    1    1    2    0    0  0.16666928696E+03 -0.21213559450E+03 -0.20675811104E+04  0.21866600138E+04  0.65864270000E+03 0. -1.
    8880022    1    1    2    0    0 -0.16666928696E+03  0.21213559450E+03  0.22688052735E+03  0.38424808181E+03  0.15294330000E+03 0.  0.
<mgrwt>
<rscale>  0 0.57826556E+03</rscale>
<asrwt>0</asrwt>
<pdfrwt beam="1">  1        2 0.33935450E+00 0.71175162E+03</pdfrwt>
<pdfrwt beam="2">  1       -2 0.56169810E-01 0.71175162E+03</pdfrwt>
<totfact> 0.15944061E+01</totfact>
</mgrwt>
</event>
<event>
 4    2  0.3171963E-007  0.7011264E+03  0.7818608E-02  0.9992560E-01
         -2   -1    0    0    0  501 -0.00000000000E+00  0.00000000000E+00  0.25960081263E+03  0.25960081265E+03  0.25500000000E-02 0.  1.
          2   -1    0    0  501    0  0.00000000000E+00 -0.00000000000E+00 -0.12208084224E+04  0.12208084224E+04  0.25500000000E-02 0. -1.
    8880023    1    1    2    0    0  0.10751743949E+03 -0.21496035659E+03 -0.96824162087E+03  0.11954371574E+04  0.65864270000E+03 0. -1.
    8880022    1    1    2    0    0 -0.10751743949E+03  0.21496035659E+03  0.70340111001E+01  0.28497207763E+03  0.15294330000E+03 0.  0.
<mgrwt>
<rscale>  0 0.55977656E+03</rscale>
<asrwt>0</asrwt>
<pdfrwt beam="1">  1        2 0.18781668E+00 0.70112635E+03</pdfrwt>
<pdfrwt beam="2">  1       -2 0.39938587E-01 0.70112635E+03</pdfrwt>
<totfact> 0.11124867E+02</totfact>
</mgrwt>
</event>
<event>
 4    2  0.3171963E-007  0.7033224E+03  0.7818608E-02  0.9983688E-01
          2   -1    0    0  501    0  0.00000000000E+00  0.00000000000E+00  0.34294555242E+04  0.34294555242E+04  0.25500000000E-02 0. -1.
         -2   -1    0    0    0  501 -0.00000000000E+00 -0.00000000000E+00 -0.19160964731E+03  0.19160964733E+03  0.25500000000E-02 0.  1.
    8880023    1    1    2    0    0  0.18517690402E+03 -0.16297752223E+03  0.32551857990E+04  0.33302998290E+04  0.65864270000E+03 0. -1.
    8880022    1    1    2    0    0 -0.18517690402E+03  0.16297752223E+03 -0.17339922086E+02  0.29076534259E+03  0.15294330000E+03 0.  0.
<mgrwt>
<rscale>  0 0.56371303E+03</rscale>
<asrwt>0</asrwt>
<pdfrwt beam="1">  1        2 0.52760857E+00 0.70332238E+03</pdfrwt>
<pdfrwt beam="2">  1       -2 0.29478406E-01 0.70332238E+03</pdfrwt>
<totfact> 0.10476977E+01</totfact>
</mgrwt>
</event>
<event>
 4    2  0.3171963E-007  0.7101977E+03  0.7818608E-02  0.9957268E-01
          2   -1    0    0  501    0  0.00000000000E+00  0.00000000000E+00  0.35932404945E+03  0.35932404946E+03  0.25500000000E-02 0. -1.
         -2   -1    0    0    0  501 -0.00000000000E+00 -0.00000000000E+00 -0.81086181927E+03  0.81086181927E+03  0.25500000000E-02 0.  1.
    8880023    1    1    2    0    0  0.39645599415E+02 -0.26267617109E+03 -0.12285089752E+03  0.72074481871E+03  0.65864270000E+03 0. -1.
    8880022    1    1    2    0    0 -0.39645599415E+02  0.26267617109E+03 -0.32868687229E+03  0.44944105002E+03  0.15294330000E+03 0.  0.
<mgrwt>
<rscale>  0 0.57564347E+03</rscale>
<asrwt>0</asrwt>
<pdfrwt beam="1">  1        2 0.55280623E-01 0.71019768E+03</pdfrwt>
<pdfrwt beam="2">  1       -2 0.12474797E+00 0.71019768E+03</pdfrwt>
<totfact> 0.43835416E+01</totfact>
</mgrwt>
</event>
<event>
 4    2  0.3171963E-007  0.1052133E+04  0.7818608E-02  0.9316322E-01
          2   -1    0    0  501    0  0.00000000000E+00  0.00000000000E+00  0.11149929411E+04  0.11149929411E+04  0.25500000000E-02 0. -1.
         -2   -1    0    0    0  501 -0.00000000000E+00 -0.00000000000E+00 -0.11758899927E+04  0.11758899927E+04  0.25500000000E-02 0.  1.
    8880023    1    1    2    0    0 -0.80370175657E+03  0.16503733310E+03  0.61343408277E+03  0.12179020548E+04  0.65864270000E+03 0.  0.
    8880022    1    1    2    0    0  0.80370175657E+03 -0.16503733310E+03 -0.67433113442E+03  0.10729808790E+04  0.15294330000E+03 0.  0.
<mgrwt>
<rscale>  0 0.99294057E+03</rscale>
<asrwt>0</asrwt>
<pdfrwt beam="1">  1        2 0.17153738E+00 0.10521331E+04</pdfrwt>
<pdfrwt beam="2">  1       -2 0.18090615E+00 0.10521331E+04</pdfrwt>
<totfact> 0.37580040E+00</totfact>
</mgrwt>
</event>
<event>
 4    2  0.3171963E-007  0.7219138E+03  0.7818608E-02  0.9916163E-01
         -2   -1    0    0    0  501 -0.00000000000E+00  0.00000000000E+00  0.30267809235E+03  0.30267809236E+03  0.25500000000E-02 0.  1.
          2   -1    0    0  501    0  0.00000000000E+00 -0.00000000000E+00 -0.12461205197E+04  0.12461205197E+04  0.25500000000E-02 0. -1.
    8880023    1    1    2    0    0  0.15373686748E+03  0.25241696093E+03 -0.97650650382E+03  0.12143823553E+04  0.65864270000E+03 0. -1.
    8880022    1    1    2    0    0 -0.15373686748E+03 -0.25241696093E+03  0.33064076511E+02  0.33441625672E+03  0.15294330000E+03 0.  0.
<mgrwt>
<rscale>  0 0.59484329E+03</rscale>
<asrwt>0</asrwt>
<pdfrwt beam="1">  1        2 0.19171085E+00 0.72191381E+03</pdfrwt>
<pdfrwt beam="2">  1       -2 0.46565861E-01 0.72191381E+03</pdfrwt>
<totfact> 0.79233068E+01</totfact>
</mgrwt>
</event>
<event>
 4    2  0.3171963E-007  0.1367019E+04  0.7818608E-02  0.9009743E-01
          2   -1    0    0  501    0  0.00000000000E+00  0.00000000000E+00  0.12648508629E+04  0.12648508629E+04  0.25500000000E-02 0. -1.
         -2   -1    0    0    0  501 -0.00000000000E+00 -0.00000000000E+00 -0.16202414437E+04  0.16202414437E+04  0.25500000000E-02 0.  1.
    8880023    1    1    2    0    0 -0.11527833601E+04 -0.32560794709E+03 -0.81666631712E+03  0.15923831481E+04  0.65864270000E+03 0.  0.
    8880022    1    1    2    0    0  0.11527833601E+04  0.32560794709E+03  0.46127573638E+03  0.12927091585E+04  0.15294330000E+03 0.  0.
<mgrwt>
<rscale>  0 0.13252949E+04</rscale>
<asrwt>0</asrwt>
<pdfrwt beam="1">  1        2 0.19459244E+00 0.13670187E+04</pdfrwt>
<pdfrwt beam="2">  1       -2 0.24926792E+00 0.13670187E+04</pdfrwt>
<totfact> 0.10751229E+00</totfact>
</mgrwt>
</event>
<event>
 4    2  0.3171963E-007  0.7841717E+03  0.7818608E-02  0.9746127E-01
          2   -1    0    0  501    0  0.00000000000E+00  0.00000000000E+00  0.19019747947E+04  0.19019747947E+04  0.25500000000E-02 0. -1.
         -2   -1    0    0    0  501 -0.00000000000E+00 -0.00000000000E+00 -0.48798002382E+03  0.48798002383E+03  0.25500000000E-02 0.  1.
    8880023    1    1    2    0    0  0.24335367843E+03  0.34913318372E+03  0.16879590331E+04  0.18612175844E+04  0.65864270000E+03 0. -1.
    8880022    1    1    2    0    0 -0.24335367843E+03 -0.34913318372E+03 -0.27396426221E+03  0.52873723414E+03  0.15294330000E+03 0.  0.
<mgrwt>
<rscale>  0 0.68335565E+03</rscale>
<asrwt>0</asrwt>
<pdfrwt beam="1">  1        2 0.29261152E+00 0.78417166E+03</pdfrwt>
<pdfrwt beam="2">  1       -2 0.75073848E-01 0.78417166E+03</pdfrwt>
<totfact> 0.12404505E+01</totfact>
</mgrwt>
</event>
<event>
 4    2  0.3171963E-007  0.9916157E+03  0.7818608E-02  0.9392610E-01
          2   -1    0    0  501    0  0.00000000000E+00  0.00000000000E+00  0.35724723850E+04  0.35724723850E+04  0.25500000000E-02 0. -1.
         -2   -1    0    0    0  501 -0.00000000000E+00 -0.00000000000E+00 -0.36976516533E+03  0.36976516534E+03  0.25500000000E-02 0.  1.
    8880023    1    1    2    0    0 -0.72618682552E+03  0.14880939340E+03  0.45286855631E+03  0.10901337884E+04  0.65864270000E+03 0.  0.
    8880022    1    1    2    0    0  0.72618682552E+03 -0.14880939340E+03  0.27498386634E+04  0.28521037619E+04  0.15294330000E+03 0.  0.
<mgrwt>
<rscale>  0 0.92686357E+03</rscale>
<asrwt>0</asrwt>
<pdfrwt beam="1">  1        2 0.54961114E+00 0.99161573E+03</pdfrwt>
<pdfrwt beam="2">  1       -2 0.56886948E-01 0.99161573E+03</pdfrwt>
<totfact> 0.21785099E+00</totfact>
</mgrwt>
</event>
<event>
 4    2  0.3171963E-007  0.6587283E+03  0.7818608E-02  0.1025499E+00
         -2   -1    0    0    0  501 -0.00000000000E+00  0.00000000000E+00  0.33924544578E+03  0.33924544578E+03  0.25500000000E-02 0.  1.
          2   -1    0    0  501    0  0.00000000000E+00 -0.00000000000E+00 -0.91708277517E+03  0.91708277518E+03  0.25500000000E-02 0. -1.
    8880023    1    1    2    0    0 -0.55057027102E+01  0.90789458147E+01 -0.76816757655E+03  0.10119310115E+04  0.65864270000E+03 0. -1.
    8880022    1    1    2    0    0  0.55057027102E+01 -0.90789458147E+01  0.19033024715E+03  0.24439720951E+03  0.15294330000E+03 0.  0.
<mgrwt>
<rscale>  0 0.45753399E+03</rscale>
<asrwt>0</asrwt>
<pdfrwt beam="1">  1        2 0.14108966E+00 0.65872828E+03</pdfrwt>
<pdfrwt beam="2">  1       -2 0.52191607E-01 0.65872828E+03</pdfrwt>
<totfact> 0.10092188E+02</totfact>
</mgrwt>
</event>
<event>
 4    2  0.3171963E-007  0.9950188E+03  0.7818608E-02  0.9388104E-01
         -2   -1    0    0    0  501 -0.00000000000E+00  0.00000000000E+00  0.15519570412E+04  0.15519570412E+04  0.25500000000E-02 0.  1.
          2   -1    0    0  501    0  0.00000000000E+00 -0.00000000000E+00 -0.97399134617E+03  0.97399134617E+03  0.25500000000E-02 0. -1.
    8880023    1    1    2    0    0  0.60325568444E+03 -0.43855980351E+03 -0.57131014695E+03  0.11473698673E+04  0.65864270000E+03 0.  0.
    8880022    1    1    2    0    0 -0.60325568444E+03  0.43855980351E+03  0.11492758419E+04  0.13785785200E+04  0.15294330000E+03 0.  0.
<mgrwt>
<rscale>  0 0.93061189E+03</rscale>
<asrwt>0</asrwt>
<pdfrwt beam="1">  1        2 0.14984482E+00 0.99501876E+03</pdfrwt>
<pdfrwt beam="2">  1       -2 0.23876262E+00 0.99501876E+03</pdfrwt>
<totfact> 0.19666314E+00</totfact>
</mgrwt>
</event>
<event>
 4    2  0.3171963E-007  0.7519970E+03  0.7818608E-02  0.9826285E-01
          2   -1    0    0  501    0  0.00000000000E+00  0.00000000000E+00  0.45121963007E+03  0.45121963008E+03  0.25500000000E-02 0. -1.
         -2   -1    0    0    0  501 -0.00000000000E+00 -0.00000000000E+00 -0.77651957366E+03  0.77651957367E+03  0.25500000000E-02 0.  1.
    8880023    1    1    2    0    0  0.99556841186E+02  0.34896660541E+03 -0.35744517582E+03  0.83262627649E+03  0.65864270000E+03 0.  0.
    8880022    1    1    2    0    0 -0.99556841186E+02 -0.34896660541E+03  0.32145232226E+02  0.39511292726E+03  0.15294330000E+03 0.  0.
<mgrwt>
<rscale>  0 0.63970812E+03</rscale>
<asrwt>0</asrwt>
<pdfrwt beam="1">  1        2 0.69418404E-01 0.75199698E+03</pdfrwt>
<pdfrwt beam="2">  1       -2 0.11946455E+00 0.75199698E+03</pdfrwt>
<totfact> 0.37660532E+01</totfact>
</mgrwt>
</event>
<event>
 4    2  0.3171963E-007  0.6952263E+03  0.7818608E-02  0.1001761E+00
          2   -1    0    0  501    0  0.00000000000E+00  0.00000000000E+00  0.25906480087E+03  0.25906480088E+03  0.25500000000E-02 0. -1.
         -2   -1    0    0    0  501 -0.00000000000E+00 -0.00000000000E+00 -0.14641468710E+04  0.14641468710E+04  0.25500000000E-02 0.  1.
    8880023    1    1    2    0    0 -0.13515086077E+03 -0.17681546620E+03 -0.26319408338E+03  0.74337796312E+03  0.65864270000E+03 0.  0.
    8880022    1    1    2    0    0  0.13515086077E+03  0.17681546620E+03 -0.94188798677E+03  0.97983370879E+03  0.15294330000E+03 0.  0.
<mgrwt>
<rscale>  0 0.54884704E+03</rscale>
<asrwt>0</asrwt>
<pdfrwt beam="1">  1        2 0.39856124E-01 0.69522634E+03</pdfrwt>
<pdfrwt beam="2">  1       -2 0.22525336E+00 0.69522634E+03</pdfrwt>
<totfact> 0.12162115E+01</totfact>
</mgrwt>
</event>
<event>
 4    2  0.3171963E-007  0.7549719E+03  0.7818608E-02  0.9818303E-01
         -2   -1    0    0    0  501 -0.00000000000E+00  0.00000000000E+00  0.24698273630E+03  0.24698273631E+03  0.25500000000E-02 0.  1.
          2   -1    0    0  501    0  0.00000000000E+00 -0.00000000000E+00 -0.17211368635E+04  0.17211368635E+04  0.25500000000E-02 0. -1.
    8880023    1    1    2    0    0 -0.30385737945E+03 -0.20938732443E+03 -0.13552401125E+04  0.15513408160E+04  0.65864270000E+03 0. -1.
    8880022    1    1    2    0    0  0.30385737945E+03  0.20938732443E+03 -0.11891401464E+03  0.41677878373E+03  0.15294330000E+03 0.  0.
<mgrwt>
<rscale>  0 0.64389486E+03</rscale>
<asrwt>0</asrwt>
<pdfrwt beam="1">  1        2 0.26479028E+00 0.75497190E+03</pdfrwt>
<pdfrwt beam="2">  1       -2 0.37997345E-01 0.75497190E+03</pdfrwt>
<totfact> 0.63854637E+01</totfact>
</mgrwt>
</event>
<event>
 4    2  0.3171963E-007  0.6754172E+03  0.7818608E-02  0.1012045E+00
         -2   -1    0    0    0  501 -0.00000000000E+00  0.00000000000E+00  0.14663134254E+03  0.14663134256E+03  0.25500000000E-02 0.  1.
          2   -1    0    0  501    0  0.00000000000E+00 -0.00000000000E+00 -0.14382866136E+04  0.14382866136E+04  0.25500000000E-02 0. -1.
    8880023    1    1    2    0    0 -0.80864289595E+02 -0.12585365830E+03 -0.78888057977E+03  0.10385186335E+04  0.65864270000E+03 0.  1.
    8880022    1    1    2    0    0  0.80864289595E+02  0.12585365830E+03 -0.50277469128E+03  0.54639932270E+03  0.15294330000E+03 0.  0.
<mgrwt>
<rscale>  0 0.50670069E+03</rscale>
<asrwt>0</asrwt>
<pdfrwt beam="1">  1        2 0.22127485E+00 0.67541719E+03</pdfrwt>
<pdfrwt beam="2">  1       -2 0.22558669E-01 0.67541719E+03</pdfrwt>
<totfact> 0.24169861E+02</totfact>
</mgrwt>
</event>
<event>
 4    2  0.3171963E-007  0.7038543E+03  0.7818608E-02  0.9981573E-01
          2   -1    0    0  501    0  0.00000000000E+00  0.00000000000E+00  0.75009497448E+03  0.75009497449E+03  0.25500000000E-02 0. -1.
         -2   -1    0    0    0  501 -0.00000000000E+00 -0.00000000000E+00 -0.35900309582E+03  0.35900309583E+03  0.25500000000E-02 0.  1.
    8880023    1    1    2    0    0  0.24765530045E+03 -0.16356641119E+02  0.41414089896E+03  0.81665389120E+03  0.65864270000E+03 0. -1.
    8880022    1    1    2    0    0 -0.24765530045E+03  0.16356641119E+02 -0.23049020294E+02  0.29244417912E+03  0.15294330000E+03 0.  1.
<mgrwt>
<rscale>  0 0.56465679E+03</rscale>
<asrwt>0</asrwt>
<pdfrwt beam="1">  1        2 0.11539923E+00 0.70385431E+03</pdfrwt>
<pdfrwt beam="2">  1       -2 0.55231246E-01 0.70385431E+03</pdfrwt>
<totfact> 0.11723635E+02</totfact>
</mgrwt>
</event>
<event>
 4    2  0.3171963E-007  0.7370642E+03  0.7818608E-02  0.9868583E-01
         -2   -1    0    0    0  501 -0.00000000000E+00  0.00000000000E+00  0.88126005020E+03  0.88126005021E+03  0.25500000000E-02 0.  1.
          2   -1    0    0  501    0  0.00000000000E+00 -0.00000000000E+00 -0.68109785651E+03  0.68109785652E+03  0.25500000000E-02 0. -1.
    8880023    1    1    2    0    0 -0.25763059584E+03 -0.20755714896E+03 -0.41608092839E+03  0.84639650237E+03  0.65864270000E+03 0. -1.
    8880022    1    1    2    0    0  0.25763059584E+03  0.20755714896E+03  0.61624312208E+03  0.71596140435E+03  0.15294330000E+03 0.  0.
<mgrwt>
<rscale>  0 0.61808360E+03</rscale>
<asrwt>0</asrwt>
<pdfrwt beam="1">  1        2 0.10478429E+00 0.73706424E+03</pdfrwt>
<pdfrwt beam="2">  1       -2 0.13557847E+00 0.73706424E+03</pdfrwt>
<totfact> 0.16807281E+01</totfact>
</mgrwt>
</event>
<event>
 4    2  0.3171963E-007  0.8082776E+03  0.7818608E-02  0.9693176E-01
          2   -1    0    0  501    0  0.00000000000E+00  0.00000000000E+00  0.15533400216E+04  0.15533400216E+04  0.25500000000E-02 0. -1.
         -2   -1    0    0    0  501 -0.00000000000E+00 -0.00000000000E+00 -0.46520584690E+03  0.46520584690E+03  0.25500000000E-02 0.  1.
    8880023    1    1    2    0    0 -0.40645219334E+03 -0.23302172013E+03  0.12596820791E+04  0.14967002553E+04  0.65864270000E+03 0.  0.
    8880022    1    1    2    0    0  0.40645219334E+03  0.23302172013E+03 -0.17154790438E+03  0.52184561322E+03  0.15294330000E+03 0.  0.
<mgrwt>
<rscale>  0 0.71424556E+03</rscale>
<asrwt>0</asrwt>
<pdfrwt beam="1">  1        2 0.23897539E+00 0.80827762E+03</pdfrwt>
<pdfrwt beam="2">  1       -2 0.71570130E-01 0.80827762E+03</pdfrwt>
<totfact> 0.21347208E+01</totfact>
</mgrwt>
</event>
<event>
 4    2  0.3171963E-007  0.6943530E+03  0.7818608E-02  0.1002149E+00
         -2   -1    0    0    0  501 -0.00000000000E+00  0.00000000000E+00  0.37376355190E+03  0.37376355191E+03  0.25500000000E-02 0.  1.
          2   -1    0    0  501    0  0.00000000000E+00 -0.00000000000E+00 -0.10709590277E+04  0.10709590277E+04  0.25500000000E-02 0. -1.
    8880023    1    1    2    0    0 -0.19971263559E+03 -0.91818812869E+02 -0.87966185870E+03  0.11206832840E+04  0.65864270000E+03 0. -1.
    8880022    1    1    2    0    0  0.19971263559E+03  0.91818812869E+02  0.18246638286E+03  0.32403929561E+03  0.15294330000E+03 0.  0.
<mgrwt>
<rscale>  0 0.54718071E+03</rscale>
<asrwt>0</asrwt>
<pdfrwt beam="1">  1        2 0.16476293E+00 0.69435296E+03</pdfrwt>
<pdfrwt beam="2">  1       -2 0.57502085E-01 0.69435296E+03</pdfrwt>
<totfact> 0.65655762E+01</totfact>
</mgrwt>
</event>
<event>
 4    2  0.3171963E-007  0.8050736E+03  0.7818608E-02  0.9699931E-01
         -2   -1    0    0    0  501 -0.00000000000E+00  0.00000000000E+00  0.52576835449E+03  0.52576835449E+03  0.25500000000E-02 0.  1.
          2   -1    0    0  501    0  0.00000000000E+00 -0.00000000000E+00 -0.13196100273E+04  0.13196100273E+04  0.25500000000E-02 0. -1.
    8880023    1    1    2    0    0  0.13385755202E+03 -0.44318786749E+03 -0.10269879605E+04  0.13049321083E+04  0.65864270000E+03 0. -1.
    8880022    1    1    2    0    0 -0.13385755202E+03  0.44318786749E+03  0.23314628760E+03  0.54044627352E+03  0.15294330000E+03 0.  0.
<mgrwt>
<rscale>  0 0.71020880E+03</rscale>
<asrwt>0</asrwt>
<pdfrwt beam="1">  1        2 0.20301693E+00 0.80507362E+03</pdfrwt>
<pdfrwt beam="2">  1       -2 0.80887439E-01 0.80507362E+03</pdfrwt>
<totfact> 0.22029329E+01</totfact>
</mgrwt>
</event>
<event>
 4    2  0.3836956E-007  0.7477534E+03  0.7818608E-02  0.9837912E-01
         -2   -1    0    0    0  501 -0.00000000000E+00  0.00000000000E+00  0.83755480880E+03  0.83755480881E+03  0.25500000000E-02 0.  1.
          2   -1    0    0  501    0  0.00000000000E+00 -0.00000000000E+00 -0.24398427261E+04  0.24398427261E+04  0.25500000000E-02 0. -1.
    8880023    1    1    2    0    0  0.15108927978E+03 -0.32015144959E+03 -0.23336882834E+04  0.24505583306E+04  0.65864270000E+03 0. -1.
    8880022    1    1    2    0    0 -0.15108927978E+03  0.32015144959E+03  0.73140036615E+03  0.82683920430E+03  0.15294330000E+03 0.  0.
<mgrwt>
<rscale>  0 0.63367083E+03</rscale>
<asrwt>0</asrwt>
<pdfrwt beam="1">  1        2 0.37536042E+00 0.74775339E+03</pdfrwt>
<pdfrwt beam="2">  1       -2 0.12885459E+00 0.74775339E+03</pdfrwt>
<totfact> 0.17583404E+00</totfact>
</mgrwt>
</event>
<event>
 4    2  0.3171963E-007  0.6890421E+03  0.7818608E-02  0.1004611E+00
          2   -1    0    0  501    0  0.00000000000E+00  0.00000000000E+00  0.43847204056E+03  0.43847204056E+03  0.25500000000E-02 0. -1.
         -2   -1    0    0    0  501 -0.00000000000E+00 -0.00000000000E+00 -0.11901863532E+04  0.11901863532E+04  0.25500000000E-02 0.  1.
    8880023    1    1    2    0    0 -0.90265841706E+02  0.18116522639E+03  0.13865280053E+03  0.70285387300E+03  0.65864270000E+03 0. -1.
    8880022    1    1    2    0    0  0.90265841706E+02 -0.18116522639E+03 -0.89036711313E+03  0.92580452072E+03  0.15294330000E+03 0.  0.
<mgrwt>
<rscale>  0 0.53673715E+03</rscale>
<asrwt>0</asrwt>
<pdfrwt beam="1">  1        2 0.67457238E-01 0.68904207E+03</pdfrwt>
<pdfrwt beam="2">  1       -2 0.18310559E+00 0.68904207E+03</pdfrwt>
<totfact> 0.12649142E+01</totfact>
</mgrwt>
</event>
<event>
 4    2  0.3171963E-007  0.6647284E+03  0.7818608E-02  0.1019762E+00
          2   -1    0    0  501    0  0.00000000000E+00  0.00000000000E+00  0.12139220958E+04  0.12139220958E+04  0.25500000000E-02 0. -1.
         -2   -1    0    0    0  501 -0.00000000000E+00 -0.00000000000E+00 -0.47464099196E+03  0.47464099196E+03  0.25500000000E-02 0.  1.
    8880023    1    1    2    0    0 -0.68328426783E+02 -0.58179572455E+02  0.11007784293E+04  0.12859148468E+04  0.65864270000E+03 0. -1.
    8880022    1    1    2    0    0  0.68328426783E+02  0.58179572455E+02 -0.36149732550E+03  0.40264824092E+03  0.15294330000E+03 0.  0.
<mgrwt>
<rscale>  0 0.47772462E+03</rscale>
<asrwt>0</asrwt>
<pdfrwt beam="1">  1        2 0.18675725E+00 0.66472840E+03</pdfrwt>
<pdfrwt beam="2">  1       -2 0.73021691E-01 0.66472840E+03</pdfrwt>
<totfact> 0.32372058E+01</totfact>
</mgrwt>
</event>
<event>
 4    2  0.3171963E-007  0.7774273E+03  0.7818608E-02  0.9761915E-01
         -2   -1    0    0    0  501 -0.00000000000E+00  0.00000000000E+00  0.87131654941E+03  0.87131654941E+03  0.25500000000E-02 0.  1.
          2   -1    0    0  501    0  0.00000000000E+00 -0.00000000000E+00 -0.86059328824E+03  0.86059328824E+03  0.25500000000E-02 0. -1.
    8880023    1    1    2    0    0 -0.83701153549E+02 -0.40444668974E+03 -0.59782440685E+03  0.98070751789E+03  0.65864270000E+03 0.  0.
    8880022    1    1    2    0    0  0.83701153549E+02  0.40444668974E+03  0.60854766803E+03  0.75120231977E+03  0.15294330000E+03 0.  0.
<mgrwt>
<rscale>  0 0.67447051E+03</rscale>
<asrwt>0</asrwt>
<pdfrwt beam="1">  1        2 0.13239897E+00 0.77742730E+03</pdfrwt>
<pdfrwt beam="2">  1       -2 0.13404870E+00 0.77742730E+03</pdfrwt>
<totfact> 0.12696218E+01</totfact>
</mgrwt>
</event>
<event>
 4    2  0.3171963E-007  0.7718530E+03  0.7818608E-02  0.9775334E-01
          2   -1    0    0  501    0  0.00000000000E+00  0.00000000000E+00  0.13386581038E+04  0.13386581038E+04  0.25500000000E-02 0. -1.
         -2   -1    0    0    0  501 -0.00000000000E+00 -0.00000000000E+00 -0.32512354091E+03  0.32512354092E+03  0.25500000000E-02 0.  1.
    8880023    1    1    2    0    0  0.37103293280E+03 -0.15582510981E+03  0.95715714328E+03  0.12295962367E+04  0.65864270000E+03 0.  0.
    8880022    1    1    2    0    0 -0.37103293280E+03  0.15582510981E+03  0.56377419567E+02  0.43418540800E+03  0.15294330000E+03 0.  0.
<mgrwt>
<rscale>  0 0.66703202E+03</rscale>
<asrwt>0</asrwt>
<pdfrwt beam="1">  1        2 0.20594740E+00 0.77185304E+03</pdfrwt>
<pdfrwt beam="2">  1       -2 0.50019007E-01 0.77185304E+03</pdfrwt>
<totfact> 0.60349036E+01</totfact>
</mgrwt>
</event>
<event>
 4    2  0.3171963E-007  0.6800801E+03  0.7818608E-02  0.1009278E+00
          2   -1    0    0  501    0  0.00000000000E+00  0.00000000000E+00  0.14229371079E+04  0.14229371079E+04  0.25500000000E-02 0. -1.
         -2   -1    0    0    0  501 -0.00000000000E+00 -0.00000000000E+00 -0.37117908923E+03  0.37117908923E+03  0.25500000000E-02 0.  1.
    8880023    1    1    2    0    0 -0.13137746706E+03 -0.10695186696E+03  0.12936671866E+04  0.14615347196E+04  0.65864270000E+03 0. -1.
    8880022    1    1    2    0    0  0.13137746706E+03  0.10695186696E+03 -0.24190916788E+03  0.33258147756E+03  0.15294330000E+03 0.  0.
<mgrwt>
<rscale>  0 0.51762442E+03</rscale>
<asrwt>0</asrwt>
<pdfrwt beam="1">  1        2 0.21891340E+00 0.68008010E+03</pdfrwt>
<pdfrwt beam="2">  1       -2 0.57104476E-01 0.68008010E+03</pdfrwt>
<totfact> 0.41534906E+01</totfact>
</mgrwt>
</event>
<event>
 4    2  0.3171963E-007  0.6825824E+03  0.7818608E-02  0.1007899E+00
          2   -1    0    0  501    0  0.00000000000E+00  0.00000000000E+00  0.15016950173E+04  0.15016950173E+04  0.25500000000E-02 0. -1.
         -2   -1    0    0    0  501 -0.00000000000E+00 -0.00000000000E+00 -0.14293438878E+03  0.14293438881E+03  0.25500000000E-02 0.  1.
    8880023    1    1    2    0    0 -0.20698448710E+02 -0.17798886312E+03  0.11010608225E+04  0.12954742769E+04  0.65864270000E+03 0. -1.
    8880022    1    1    2    0    0  0.20698448710E+02  0.17798886312E+03  0.25769980607E+03  0.34915512919E+03  0.15294330000E+03 0.  1.
<mgrwt>
<rscale>  0 0.52318228E+03</rscale>
<asrwt>0</asrwt>
<pdfrwt beam="1">  1        2 0.23102998E+00 0.68258235E+03</pdfrwt>
<pdfrwt beam="2">  1       -2 0.21989908E-01 0.68258235E+03</pdfrwt>
<totfact> 0.23299557E+02</totfact>
</mgrwt>
</event>
<event>
 4    2  0.3171963E-007  0.6790101E+03  0.7818608E-02  0.1009889E+00
          2   -1    0    0  501    0  0.00000000000E+00  0.00000000000E+00  0.76406002598E+03  0.76406002598E+03  0.25500000000E-02 0. -1.
         -2   -1    0    0    0  501 -0.00000000000E+00 -0.00000000000E+00 -0.14120623170E+04  0.14120623170E+04  0.25500000000E-02 0.  1.
    8880023    1    1    2    0    0  0.55474165089E+02  0.15545775248E+03  0.60113851133E+03  0.90687497036E+03  0.65864270000E+03 0. -1.
    8880022    1    1    2    0    0 -0.55474165089E+02 -0.15545775248E+03 -0.12491408024E+04  0.12692473726E+04  0.15294330000E+03 0.  0.
<mgrwt>
<rscale>  0 0.51518683E+03</rscale>
<asrwt>0</asrwt>
<pdfrwt beam="1">  1        2 0.11754770E+00 0.67901009E+03</pdfrwt>
<pdfrwt beam="2">  1       -2 0.21724036E+00 0.67901009E+03</pdfrwt>
<totfact> 0.38995281E+00</totfact>
</mgrwt>
</event>
<event>
 4    2  0.3171963E-007  0.8608711E+03  0.7818608E-02  0.9592016E-01
         -2   -1    0    0    0  501 -0.00000000000E+00  0.00000000000E+00  0.20704840214E+03  0.20704840216E+03  0.25500000000E-02 0.  1.
          2   -1    0    0  501    0  0.00000000000E+00 -0.00000000000E+00 -0.26156496100E+04  0.26156496100E+04  0.25500000000E-02 0. -1.
    8880023    1    1    2    0    0  0.15721031392E+03  0.53157664234E+03 -0.11285307988E+04  0.14193945116E+04  0.65864270000E+03 0. -1.
    8880022    1    1    2    0    0 -0.15721031392E+03 -0.53157664234E+03 -0.12800704091E+04  0.14033035006E+04  0.15294330000E+03 0.  1.
<mgrwt>
<rscale>  0 0.77826886E+03</rscale>
<asrwt>0</asrwt>
<pdfrwt beam="1">  1        2 0.40240761E+00 0.86087108E+03</pdfrwt>
<pdfrwt beam="2">  1       -2 0.31853602E-01 0.86087108E+03</pdfrwt>
<totfact> 0.28134106E+01</totfact>
</mgrwt>
</event>
<event>
 4    2  0.3171963E-007  0.6629873E+03  0.7818608E-02  0.1021285E+00
         -2   -1    0    0    0  501 -0.00000000000E+00  0.00000000000E+00  0.30342272899E+03  0.30342272900E+03  0.25500000000E-02 0.  1.
          2   -1    0    0  501    0  0.00000000000E+00 -0.00000000000E+00 -0.15808952222E+04  0.15808952222E+04  0.25500000000E-02 0. -1.
    8880023    1    1    2    0    0 -0.75396488216E+02 -0.75754143285E+01 -0.14786545020E+04  0.16204849150E+04  0.65864270000E+03 0. -1.
    8880022    1    1    2    0    0  0.75396488216E+02  0.75754143285E+01  0.20118200874E+03  0.26383303620E+03  0.15294330000E+03 0.  0.
<mgrwt>
<rscale>  0 0.47225692E+03</rscale>
<asrwt>0</asrwt>
<pdfrwt beam="1">  1        2 0.24321464E+00 0.66298735E+03</pdfrwt>
<pdfrwt beam="2">  1       -2 0.46680421E-01 0.66298735E+03</pdfrwt>
<totfact> 0.51369104E+01</totfact>
</mgrwt>
</event>
<event>
 4    2  0.3171963E-007  0.6618427E+03  0.7818608E-02  0.1022343E+00
          2   -1    0    0  501    0  0.00000000000E+00  0.00000000000E+00  0.23153606765E+04  0.23153606765E+04  0.25500000000E-02 0. -1.
         -2   -1    0    0    0  501 -0.00000000000E+00 -0.00000000000E+00 -0.80586327072E+02  0.80586327112E+02  0.25500000000E-02 0.  1.
    8880023    1    1    2    0    0  0.64673957359E+02  0.65460652776E+01  0.20117005818E+04  0.21177759581E+04  0.65864270000E+03 0. -1.
    8880022    1    1    2    0    0 -0.64673957359E+02 -0.65460652776E+01  0.22307376765E+03  0.27817104551E+03  0.15294330000E+03 0.  0.
<mgrwt>
<rscale>  0 0.46850432E+03</rscale>
<asrwt>0</asrwt>
<pdfrwt beam="1">  1        2 0.35620938E+00 0.66184271E+03</pdfrwt>
<pdfrwt beam="2">  1       -2 0.12397895E-01 0.66184271E+03</pdfrwt>
<totfact> 0.22310504E+02</totfact>
</mgrwt>
</event>
<event>
 4    2  0.3171963E-007  0.7842867E+03  0.7818608E-02  0.9745862E-01
         -2   -1    0    0    0  501 -0.00000000000E+00  0.00000000000E+00  0.13166947822E+04  0.13166947822E+04  0.25500000000E-02 0.  1.
          2   -1    0    0  501    0  0.00000000000E+00 -0.00000000000E+00 -0.51176946745E+03  0.51176946745E+03  0.25500000000E-02 0. -1.
    8880023    1    1    2    0    0 -0.38903394044E+03  0.17305487836E+03 -0.12513011539E+03  0.79420598699E+03  0.65864270000E+03 0. -1.
    8880022    1    1    2    0    0  0.38903394044E+03 -0.17305487836E+03  0.93005543019E+03  0.10342582627E+04  0.15294330000E+03 0.  0.
<mgrwt>
<rscale>  0 0.68350615E+03</rscale>
<asrwt>0</asrwt>
<pdfrwt beam="1">  1        2 0.78733765E-01 0.78428668E+03</pdfrwt>
<pdfrwt beam="2">  1       -2 0.20256842E+00 0.78428668E+03</pdfrwt>
<totfact> 0.77905956E+00</totfact>
</mgrwt>
</event>
<event>
 4    2  0.3171963E-007  0.7434892E+03  0.7818608E-02  0.9849897E-01
          2   -1    0    0  501    0  0.00000000000E+00  0.00000000000E+00  0.11716806106E+04  0.11716806106E+04  0.25500000000E-02 0. -1.
         -2   -1    0    0    0  501 -0.00000000000E+00 -0.00000000000E+00 -0.73868749137E+03  0.73868749137E+03  0.25500000000E-02 0.  1.
    8880023    1    1    2    0    0 -0.32048224312E+03 -0.12750338079E+03  0.98969779243E+03  0.12378521345E+04  0.65864270000E+03 0. -1.
    8880022    1    1    2    0    0  0.32048224312E+03  0.12750338079E+03 -0.55670467323E+03  0.67251596745E+03  0.15294330000E+03 0.  0.
<mgrwt>
<rscale>  0 0.62752147E+03</rscale>
<asrwt>0</asrwt>
<pdfrwt beam="1">  1        2 0.18025856E+00 0.74348920E+03</pdfrwt>
<pdfrwt beam="2">  1       -2 0.11364423E+00 0.74348920E+03</pdfrwt>
<totfact> 0.12195135E+01</totfact>
</mgrwt>
</event>
<event>
 4    2  0.3171963E-007  0.1212640E+04  0.7818608E-02  0.9144932E-01
         -2   -1    0    0    0  501 -0.00000000000E+00  0.00000000000E+00  0.63719025120E+03  0.63719025120E+03  0.25500000000E-02 0.  1.
          2   -1    0    0  501    0  0.00000000000E+00 -0.00000000000E+00 -0.23350401558E+04  0.23350401558E+04  0.25500000000E-02 0. -1.
    8880023    1    1    2    0    0  0.10068423014E+04 -0.15150888967E+03 -0.32360993031E+03  0.12550776696E+04  0.65864270000E+03 0.  0.
    8880022    1    1    2    0    0 -0.10068423014E+04  0.15150888967E+03 -0.13742399743E+04  0.17171527374E+04  0.15294330000E+03 0.  0.
<mgrwt>
<rscale>  0 0.11640355E+04</rscale>
<asrwt>0</asrwt>
<pdfrwt beam="1">  1        2 0.35923694E+00 0.12126403E+04</pdfrwt>
<pdfrwt beam="2">  1       -2 0.98029270E-01 0.12126403E+04</pdfrwt>
<totfact> 0.36760122E+00</totfact>
</mgrwt>
</event>
<event>
 4    2  0.3171963E-007  0.6599865E+03  0.7818608E-02  0.1024170E+00
         -2   -1    0    0    0  501 -0.00000000000E+00  0.00000000000E+00  0.15807544623E+03  0.15807544625E+03  0.25500000000E-02 0.  1.
          2   -1    0    0  501    0  0.00000000000E+00 -0.00000000000E+00 -0.26179386681E+04  0.26179386681E+04  0.25500000000E-02 0. -1.
    8880023    1    1    2    0    0  0.37795242889E+02  0.18535040658E+02 -0.25210383224E+04  0.26059962504E+04  0.65864270000E+03 0. -1.
    8880022    1    1    2    0    0 -0.37795242889E+02 -0.18535040658E+02  0.61175100506E+02  0.17001786393E+03  0.15294330000E+03 0.  0.
<mgrwt>
<rscale>  0 0.46211289E+03</rscale>
<asrwt>0</asrwt>
<pdfrwt beam="1">  1        2 0.40275976E+00 0.65998654E+03</pdfrwt>
<pdfrwt beam="2">  1       -2 0.24319301E-01 0.65998654E+03</pdfrwt>
<totfact> 0.47352685E+01</totfact>
</mgrwt>
</event>
<event>
 4    2  0.3171963E-007  0.7660882E+03  0.7818608E-02  0.9789593E-01
          2   -1    0    0  501    0  0.00000000000E+00  0.00000000000E+00  0.14651108227E+04  0.14651108227E+04  0.25500000000E-02 0. -1.
         -2   -1    0    0    0  501 -0.00000000000E+00 -0.00000000000E+00 -0.49909282600E+03  0.49909282600E+03  0.25500000000E-02 0.  1.
    8880023    1    1    2    0    0 -0.29653270661E+03 -0.25524344125E+03  0.12436459306E+04  0.14606663778E+04  0.65864270000E+03 0. -1.
    8880022    1    1    2    0    0  0.29653270661E+03  0.25524344125E+03 -0.27762793394E+03  0.50353727082E+03  0.15294330000E+03 0.  0.
<mgrwt>
<rscale>  0 0.65924022E+03</rscale>
<asrwt>0</asrwt>
<pdfrwt beam="1">  1        2 0.22540166E+00 0.76608816E+03</pdfrwt>
<pdfrwt beam="2">  1       -2 0.76783514E-01 0.76608816E+03</pdfrwt>
<totfact> 0.20562444E+01</totfact>
</mgrwt>
</event>
<event>
 4    2  0.3171963E-007  0.7000983E+03  0.7818608E-02  0.9996794E-01
         -2   -1    0    0    0  501 -0.00000000000E+00  0.00000000000E+00  0.96782347327E+03  0.96782347327E+03  0.25500000000E-02 0.  1.
          2   -1    0    0  501    0  0.00000000000E+00 -0.00000000000E+00 -0.29985981533E+03  0.29985981534E+03  0.25500000000E-02 0. -1.
    8880023    1    1    2    0    0 -0.16344573156E+03 -0.17208388653E+03  0.21220229266E+03  0.73155135872E+03  0.65864270000E+03 0. -1.
    8880022    1    1    2    0    0  0.16344573156E+03  0.17208388653E+03  0.45576136527E+03  0.53613192990E+03  0.15294330000E+03 0.  1.
<mgrwt>
<rscale>  0 0.55791045E+03</rscale>
<asrwt>0</asrwt>
<pdfrwt beam="1">  1        2 0.46132279E-01 0.70009826E+03</pdfrwt>
<pdfrwt beam="2">  1       -2 0.14889592E+00 0.70009826E+03</pdfrwt>
<totfact> 0.34074782E+01</totfact>
</mgrwt>
</event>
<event>
 4    2  0.3171963E-007  0.9218769E+03  0.7818608E-02  0.9491787E-01
         -2   -1    0    0    0  501 -0.00000000000E+00  0.00000000000E+00  0.15148784890E+04  0.15148784890E+04  0.25500000000E-02 0.  1.
          2   -1    0    0  501    0  0.00000000000E+00 -0.00000000000E+00 -0.56980695134E+03  0.56980695134E+03  0.25500000000E-02 0. -1.
    8880023    1    1    2    0    0 -0.15638577177E+03  0.62577170530E+03 -0.10205408814E+02  0.92193334542E+03  0.65864270000E+03 0. -1.
    8880022    1    1    2    0    0  0.15638577177E+03 -0.62577170530E+03  0.95527694644E+03  0.11627520949E+04  0.15294330000E+03 0.  0.
<mgrwt>
<rscale>  0 0.84892033E+03</rscale>
<asrwt>0</asrwt>
<pdfrwt beam="1">  1        2 0.87662610E-01 0.92187686E+03</pdfrwt>
<pdfrwt beam="2">  1       -2 0.23305822E+00 0.92187686E+03</pdfrwt>
<totfact> 0.43412520E+00</totfact>
</mgrwt>
</event>
<event>
 4    2  0.3171963E-007  0.9379661E+03  0.7818608E-02  0.9467644E-01
         -2   -1    0    0    0  501 -0.00000000000E+00  0.00000000000E+00  0.70942215845E+03  0.70942215846E+03  0.25500000000E-02 0.  1.
          2   -1    0    0  501    0  0.00000000000E+00 -0.00000000000E+00 -0.10623819145E+04  0.10623819145E+04  0.25500000000E-02 0. -1.
    8880023    1    1    2    0    0 -0.49428448721E+03 -0.44905804646E+03  0.11081536403E+03  0.94448956297E+03  0.65864270000E+03 0.  0.
    8880022    1    1    2    0    0  0.49428448721E+03  0.44905804646E+03 -0.46377512004E+03  0.82731450995E+03  0.15294330000E+03 0.  0.
<mgrwt>
<rscale>  0 0.86711931E+03</rscale>
<asrwt>0</asrwt>
<pdfrwt beam="1">  1        2 0.16344337E+00 0.93796615E+03</pdfrwt>
<pdfrwt beam="2">  1       -2 0.10914187E+00 0.93796615E+03</pdfrwt>
<totfact> 0.15375191E+01</totfact>
</mgrwt>
</event>
<event>
 4    2  0.3602535E-007  0.7467618E+03  0.7818608E-02  0.9840671E-01
         -2   -1    0    0    0  501 -0.00000000000E+00  0.00000000000E+00  0.99557263937E+03  0.99557263937E+03  0.25500000000E-02 0.  1.
          2   -1    0    0  501    0  0.00000000000E+00 -0.00000000000E+00 -0.28515079958E+04  0.28515079958E+04  0.25500000000E-02 0. -1.
    8880023    1    1    2    0    0 -0.26132519019E+03  0.23569492284E+03 -0.27630309958E+04  0.28621658655E+04  0.65864270000E+03 0.  0.
    8880022    1    1    2    0    0  0.26132519019E+03 -0.23569492284E+03  0.90709563933E+03  0.98491476970E+03  0.15294330000E+03 0.  0.
<mgrwt>
<rscale>  0 0.63224849E+03</rscale>
<asrwt>0</asrwt>
<pdfrwt beam="1">  1        2 0.43869353E+00 0.74676178E+03</pdfrwt>
<pdfrwt beam="2">  1       -2 0.15316502E+00 0.74676178E+03</pdfrwt>
<totfact> 0.64963688E-01</totfact>
</mgrwt>
</event>
<event>
 4    2  0.3171963E-007  0.6787030E+03  0.7818608E-02  0.1010067E+00
          2   -1    0    0  501    0  0.00000000000E+00  0.00000000000E+00  0.29040655310E+03  0.29040655311E+03  0.25500000000E-02 0. -1.
         -2   -1    0    0    0  501 -0.00000000000E+00 -0.00000000000E+00 -0.74569341667E+03  0.74569341667E+03  0.25500000000E-02 0.  1.
    8880023    1    1    2    0    0 -0.14888526824E+03  0.68269258768E+02 -0.22563239276E+03  0.71522562714E+03  0.65864270000E+03 0. -1.
    8880022    1    1    2    0    0  0.14888526824E+03 -0.68269258768E+02 -0.22965447081E+03  0.32087434265E+03  0.15294330000E+03 0.  1.
<mgrwt>
<rscale>  0 0.51448001E+03</rscale>
<asrwt>0</asrwt>
<pdfrwt beam="1">  1        2 0.44677932E-01 0.67870297E+03</pdfrwt>
<pdfrwt beam="2">  1       -2 0.11472206E+00 0.67870297E+03</pdfrwt>
<totfact> 0.68466083E+01</totfact>
</mgrwt>
</event>
<event>
 4    2  0.3171963E-007  0.7735248E+03  0.7818608E-02  0.9771273E-01
          2   -1    0    0  501    0  0.00000000000E+00  0.00000000000E+00  0.28873726480E+04  0.28873726480E+04  0.25500000000E-02 0. -1.
         -2   -1    0    0    0  501 -0.00000000000E+00 -0.00000000000E+00 -0.13430509212E+03  0.13430509215E+03  0.25500000000E-02 0.  1.
    8880023    1    1    2    0    0 -0.39287155966E+03 -0.10090776064E+03  0.20990139405E+04  0.22370069663E+04  0.65864270000E+03 0. -1.
    8880022    1    1    2    0    0  0.39287155966E+03  0.10090776064E+03  0.65405361538E+03  0.78467077386E+03  0.15294330000E+03 0.  1.
<mgrwt>
<rscale>  0 0.66927241E+03</rscale>
<asrwt>0</asrwt>
<pdfrwt beam="1">  1        2 0.44421111E+00 0.77352482E+03</pdfrwt>
<pdfrwt beam="2">  1       -2 0.20662325E-01 0.77352482E+03</pdfrwt>
<totfact> 0.43226761E+01</totfact>
</mgrwt>
</event>
<event>
 4    2  0.3171963E-007  0.1276147E+04  0.7818608E-02  0.9086437E-01
          2   -1    0    0  501    0  0.00000000000E+00  0.00000000000E+00  0.10424320890E+04  0.10424320890E+04  0.25500000000E-02 0. -1.
         -2   -1    0    0    0  501 -0.00000000000E+00 -0.00000000000E+00 -0.15384887142E+04  0.15384887142E+04  0.25500000000E-02 0.  1.
    8880023    1    1    2    0    0  0.82264492540E+03  0.71972034454E+03  0.17674406323E+03  0.12883286529E+04  0.65864270000E+03 0.  0.
    8880022    1    1    2    0    0 -0.82264492540E+03 -0.71972034454E+03 -0.67280068846E+03  0.12925921503E+04  0.15294330000E+03 0.  0.
<mgrwt>
<rscale>  0 0.12306584E+04</rscale>
<asrwt>0</asrwt>
<pdfrwt beam="1">  1        2 0.16037417E+00 0.12761474E+04</pdfrwt>
<pdfrwt beam="2">  1       -2 0.23669057E+00 0.12761474E+04</pdfrwt>
<totfact> 0.17751328E+00</totfact>
</mgrwt>
</event>
<event>
 4    2  0.3171963E-007  0.8216860E+03  0.7818608E-02  0.9665731E-01
          2   -1    0    0  501    0  0.00000000000E+00  0.00000000000E+00  0.54944706809E+03  0.54944706809E+03  0.25500000000E-02 0. -1.
         -2   -1    0    0    0  501 -0.00000000000E+00 -0.00000000000E+00 -0.99966426144E+03  0.99966426145E+03  0.25500000000E-02 0.  1.
    8880023    1    1    2    0    0 -0.44084622950E+03 -0.21682317367E+03  0.60797012566E+02  0.82393213902E+03  0.65864270000E+03 0.  0.
    8880022    1    1    2    0    0  0.44084622950E+03  0.21682317367E+03 -0.51101420592E+03  0.72517919053E+03  0.15294330000E+03 0.  0.
<mgrwt>
<rscale>  0 0.73094345E+03</rscale>
<asrwt>0</asrwt>
<pdfrwt beam="1">  1        2 0.84530318E-01 0.82168601E+03</pdfrwt>
<pdfrwt beam="2">  1       -2 0.15379450E+00 0.82168601E+03</pdfrwt>
<totfact> 0.15571087E+01</totfact>
</mgrwt>
</event>
<event>
 4    2  0.3877712E-007  0.7573910E+03  0.7818608E-02  0.9811909E-01
          2   -1    0    0  501    0  0.00000000000E+00  0.00000000000E+00  0.22507551112E+04  0.22507551112E+04  0.25500000000E-02 0. -1.
         -2   -1    0    0    0  501 -0.00000000000E+00 -0.00000000000E+00 -0.11101580323E+04  0.11101580323E+04  0.25500000000E-02 0.  1.
    8880023    1    1    2    0    0  0.28402496235E+03  0.24322978648E+03  0.21468773819E+04  0.22765595989E+04  0.65864270000E+03 0. -1.
    8880022    1    1    2    0    0 -0.28402496235E+03 -0.24322978648E+03 -0.10062803031E+04  0.10843535446E+04  0.15294330000E+03 0.  0.
<mgrwt>
<rscale>  0 0.64727320E+03</rscale>
<asrwt>0</asrwt>
<pdfrwt beam="1">  1        2 0.34627001E+00 0.75739099E+03</pdfrwt>
<pdfrwt beam="2">  1       -2 0.17079355E+00 0.75739099E+03</pdfrwt>
<totfact> 0.10629872E+00</totfact>
</mgrwt>
</event>
<event>
 4    2  0.3171963E-007  0.9223661E+03  0.7818608E-02  0.9491041E-01
          2   -1    0    0  501    0  0.00000000000E+00  0.00000000000E+00  0.16003969357E+04  0.16003969358E+04  0.25500000000E-02 0. -1.
         -2   -1    0    0    0  501 -0.00000000000E+00 -0.00000000000E+00 -0.65028589814E+03  0.65028589815E+03  0.25500000000E-02 0.  1.
    8880023    1    1    2    0    0  0.64078439968E+03 -0.79651290025E+02  0.12241494192E+04  0.15327429601E+04  0.65864270000E+03 0.  0.
    8880022    1    1    2    0    0 -0.64078439968E+03  0.79651290025E+02 -0.27403838156E+03  0.71793987385E+03  0.15294330000E+03 0.  0.
<mgrwt>
<rscale>  0 0.84947595E+03</rscale>
<asrwt>0</asrwt>
<pdfrwt beam="1">  1        2 0.24621491E+00 0.92236608E+03</pdfrwt>
<pdfrwt beam="2">  1       -2 0.10004399E+00 0.92236608E+03</pdfrwt>
<totfact> 0.92400033E+00</totfact>
</mgrwt>
</event>
<event>
 4    2  0.3171963E-007  0.8159346E+03  0.7818608E-02  0.9677345E-01
          2   -1    0    0  501    0  0.00000000000E+00  0.00000000000E+00  0.19793903339E+04  0.19793903339E+04  0.25500000000E-02 0. -1.
         -2   -1    0    0    0  501 -0.00000000000E+00 -0.00000000000E+00 -0.31822859016E+03  0.31822859017E+03  0.25500000000E-02 0.  1.
    8880023    1    1    2    0    0  0.26784226454E+03  0.40024935950E+03  0.15902608175E+04  0.17873664152E+04  0.65864270000E+03 0. -1.
    8880022    1    1    2    0    0 -0.26784226454E+03 -0.40024935950E+03  0.70900926315E+02  0.51025250888E+03  0.15294330000E+03 0.  0.
<mgrwt>
<rscale>  0 0.72381800E+03</rscale>
<asrwt>0</asrwt>
<pdfrwt beam="1">  1        2 0.30452159E+00 0.81593458E+03</pdfrwt>
<pdfrwt beam="2">  1       -2 0.48958245E-01 0.81593458E+03</pdfrwt>
<totfact> 0.27746883E+01</totfact>
</mgrwt>
</event>
<event>
 4    2  0.3171963E-007  0.1031604E+04  0.7818608E-02  0.9341330E-01
         -2   -1    0    0    0  501 -0.00000000000E+00  0.00000000000E+00  0.10026882348E+04  0.10026882348E+04  0.25500000000E-02 0.  1.
          2   -1    0    0  501    0  0.00000000000E+00 -0.00000000000E+00 -0.11687094684E+04  0.11687094685E+04  0.25500000000E-02 0. -1.
    8880023    1    1    2    0    0  0.52922506029E+03  0.59187609999E+03  0.47869403736E+03  0.11372575213E+04  0.65864270000E+03 0. -1.
    8880022    1    1    2    0    0 -0.52922506029E+03 -0.59187609999E+03 -0.64471527100E+03  0.10341401819E+04  0.15294330000E+03 0.  0.
<mgrwt>
<rscale>  0 0.97065383E+03</rscale>
<asrwt>0</asrwt>
<pdfrwt beam="1">  1        2 0.17980146E+00 0.10316039E+04</pdfrwt>
<pdfrwt beam="2">  1       -2 0.15425973E+00 0.10316039E+04</pdfrwt>
<totfact> 0.54343642E+00</totfact>
</mgrwt>
</event>
<event>
 4    2  0.3171963E-007  0.7333275E+03  0.7818608E-02  0.9879828E-01
          2   -1    0    0  501    0  0.00000000000E+00  0.00000000000E+00  0.48267862395E+04  0.48267862395E+04  0.25500000000E-02 0. -1.
         -2   -1    0    0    0  501 -0.00000000000E+00 -0.00000000000E+00 -0.69650826547E+02  0.69650826594E+02  0.25500000000E-02 0.  1.
    8880023    1    1    2    0    0  0.24576721645E+03  0.20870444185E+03  0.38938125814E+04  0.39622652225E+04  0.65864270000E+03 0.  1.
    8880022    1    1    2    0    0 -0.24576721645E+03 -0.20870444185E+03  0.86332283164E+03  0.93417184360E+03  0.15294330000E+03 0. -1.
<mgrwt>
<rscale>  0 0.61248953E+03</rscale>
<asrwt>0</asrwt>
<pdfrwt beam="1">  1        2 0.74258249E+00 0.73332754E+03</pdfrwt>
<pdfrwt beam="2">  1       -2 0.10715512E-01 0.73332754E+03</pdfrwt>
<totfact> 0.39494244E+00</totfact>
</mgrwt>
</event>
<event>
 4    2  0.3171963E-007  0.8046875E+03  0.7818608E-02  0.9700751E-01
         -2   -1    0    0    0  501 -0.00000000000E+00  0.00000000000E+00  0.25719005820E+03  0.25719005822E+03  0.25500000000E-02 0.  1.
          2   -1    0    0  501    0  0.00000000000E+00 -0.00000000000E+00 -0.42553541190E+04  0.42553541190E+04  0.25500000000E-02 0. -1.
    8880023    1    1    2    0    0 -0.45875388003E+03 -0.57066939293E+02 -0.39409472214E+04  0.40222614244E+04  0.65864270000E+03 0. -1.
    8880022    1    1    2    0    0  0.45875388003E+03  0.57066939293E+02 -0.57216839400E+02  0.49028275283E+03  0.15294330000E+03 0.  0.
<mgrwt>
<rscale>  0 0.70972101E+03</rscale>
<asrwt>0</asrwt>
<pdfrwt beam="1">  1        2 0.65466981E+00 0.80468749E+03</pdfrwt>
<pdfrwt beam="2">  1       -2 0.39567705E-01 0.80468749E+03</pdfrwt>
<totfact> 0.13932738E+00</totfact>
</mgrwt>
</event>
<event>
 4    2  0.3171963E-007  0.7215867E+03  0.7818608E-02  0.9917253E-01
         -2   -1    0    0    0  501 -0.00000000000E+00  0.00000000000E+00  0.11726318437E+04  0.11726318437E+04  0.25500000000E-02 0.  1.
          2   -1    0    0  501    0  0.00000000000E+00 -0.00000000000E+00 -0.84291028387E+03  0.84291028388E+03  0.25500000000E-02 0. -1.
    8880023    1    1    2    0    0 -0.15953335992E+03  0.24784310163E+03 -0.65611485101E+03  0.97528149779E+03  0.65864270000E+03 0. -1.
    8880022    1    1    2    0    0  0.15953335992E+03 -0.24784310163E+03  0.98583641085E+03  0.10402606298E+04  0.15294330000E+03 0.  0.
<mgrwt>
<rscale>  0 0.59432353E+03</rscale>
<asrwt>0</asrwt>
<pdfrwt beam="1">  1        2 0.12967850E+00 0.72158666E+03</pdfrwt>
<pdfrwt beam="2">  1       -2 0.18040490E+00 0.72158666E+03</pdfrwt>
<totfact> 0.59190761E+00</totfact>
</mgrwt>
</event>
<event>
 4    2  0.3171963E-007  0.9135106E+03  0.7818608E-02  0.9504682E-01
         -2   -1    0    0    0  501 -0.00000000000E+00  0.00000000000E+00  0.12509792465E+04  0.12509792465E+04  0.25500000000E-02 0.  1.
          2   -1    0    0  501    0  0.00000000000E+00 -0.00000000000E+00 -0.78255043811E+03  0.78255043812E+03  0.25500000000E-02 0. -1.
    8880023    1    1    2    0    0  0.61924732054E+03 -0.13124095110E+03  0.87570027681E+03  0.12654456181E+04  0.65864270000E+03 0.  0.
    8880022    1    1    2    0    0 -0.61924732054E+03  0.13124095110E+03 -0.40727146843E+03  0.76808406653E+03  0.15294330000E+03 0.  0.
<mgrwt>
<rscale>  0 0.83939536E+03</rscale>
<asrwt>0</asrwt>
<pdfrwt beam="1">  1        2 0.12039238E+00 0.91351061E+03</pdfrwt>
<pdfrwt beam="2">  1       -2 0.19245834E+00 0.91351061E+03</pdfrwt>
<totfact> 0.52998899E+00</totfact>
</mgrwt>
</event>
<event>
 4    2  0.3171963E-007  0.7865786E+03  0.7818608E-02  0.9740605E-01
          2   -1    0    0  501    0  0.00000000000E+00  0.00000000000E+00  0.17398996333E+04  0.17398996333E+04  0.25500000000E-02 0. -1.
         -2   -1    0    0    0  501 -0.00000000000E+00 -0.00000000000E+00 -0.10862639505E+04  0.10862639505E+04  0.25500000000E-02 0.  1.
    8880023    1    1    2    0    0 -0.10550446800E+03 -0.41685070249E+03  0.15958877430E+04  0.17792030788E+04  0.65864270000E+03 0. -1.
    8880022    1    1    2    0    0  0.10550446800E+03  0.41685070249E+03 -0.94225206026E+03  0.10469605050E+04  0.15294330000E+03 0.  0.
<mgrwt>
<rscale>  0 0.68649829E+03</rscale>
<asrwt>0</asrwt>
<pdfrwt beam="1">  1        2 0.26767687E+00 0.78657861E+03</pdfrwt>
<pdfrwt beam="2">  1       -2 0.16711753E+00 0.78657861E+03</pdfrwt>
<totfact> 0.21382144E+00</totfact>
</mgrwt>
</event>
<event>
 4    2  0.3171963E-007  0.8236591E+03  0.7818608E-02  0.9661798E-01
          2   -1    0    0  501    0  0.00000000000E+00  0.00000000000E+00  0.24782321095E+04  0.24782321095E+04  0.25500000000E-02 0. -1.
         -2   -1    0    0    0  501 -0.00000000000E+00 -0.00000000000E+00 -0.33351574887E+03  0.33351574888E+03  0.25500000000E-02 0.  1.
    8880023    1    1    2    0    0 -0.43498342223E+03 -0.23535834992E+03  0.21410886246E+04  0.22940520559E+04  0.65864270000E+03 0.  0.
    8880022    1    1    2    0    0  0.43498342223E+03  0.23535834992E+03  0.36277360798E+01  0.51769580255E+03  0.15294330000E+03 0.  0.
<mgrwt>
<rscale>  0 0.73337589E+03</rscale>
<asrwt>0</asrwt>
<pdfrwt beam="1">  1        2 0.38126649E+00 0.82365911E+03</pdfrwt>
<pdfrwt beam="2">  1       -2 0.51310113E-01 0.82365911E+03</pdfrwt>
<totfact> 0.13315942E+01</totfact>
</mgrwt>
</event>
<event>
 4    2  0.3171963E-007  0.7875036E+03  0.7818608E-02  0.9738497E-01
          2   -1    0    0  501    0  0.00000000000E+00  0.00000000000E+00  0.41159460604E+03  0.41159460605E+03  0.25500000000E-02 0. -1.
         -2   -1    0    0    0  501 -0.00000000000E+00 -0.00000000000E+00 -0.12541758022E+04  0.12541758022E+04  0.25500000000E-02 0.  1.
    8880023    1    1    2    0    0  0.18401879008E+03 -0.39049822792E+03 -0.10070069933E+03  0.79391600199E+03  0.65864270000E+03 0. -1.
    8880022    1    1    2    0    0 -0.18401879008E+03  0.39049822792E+03 -0.74188049678E+03  0.87185440621E+03  0.15294330000E+03 0.  0.
<mgrwt>
<rscale>  0 0.68770230E+03</rscale>
<asrwt>0</asrwt>
<pdfrwt beam="1">  1        2 0.63322247E-01 0.78750364E+03</pdfrwt>
<pdfrwt beam="2">  1       -2 0.19295012E+00 0.78750364E+03</pdfrwt>
<totfact> 0.11561234E+01</totfact>
</mgrwt>
</event>
<event>
 4    2  0.3171963E-007  0.1570302E+04  0.7818608E-02  0.8861525E-01
         -2   -1    0    0    0  501 -0.00000000000E+00  0.00000000000E+00  0.99754881673E+03  0.99754881674E+03  0.25500000000E-02 0.  1.
          2   -1    0    0  501    0  0.00000000000E+00 -0.00000000000E+00 -0.27190848945E+04  0.27190848945E+04  0.25500000000E-02 0. -1.
    8880023    1    1    2    0    0  0.10226561668E+04  0.99308197833E+03 -0.16549923614E+04  0.22814134597E+04  0.65864270000E+03 0.  0.
    8880022    1    1    2    0    0 -0.10226561668E+04 -0.99308197833E+03 -0.66543716303E+02  0.14352202515E+04  0.15294330000E+03 0.  0.
<mgrwt>
<rscale>  0 0.15349709E+04</rscale>
<asrwt>0</asrwt>
<pdfrwt beam="1">  1        2 0.41832075E+00 0.15703018E+04</pdfrwt>
<pdfrwt beam="2">  1       -2 0.15346905E+00 0.15703018E+04</pdfrwt>
<totfact> 0.68434486E-01</totfact>
</mgrwt>
</event>
<event>
 4    2  0.3171963E-007  0.6893031E+03  0.7818608E-02  0.1004486E+00
         -2   -1    0    0    0  501 -0.00000000000E+00  0.00000000000E+00  0.24189647336E+03  0.24189647337E+03  0.25500000000E-02 0.  1.
          2   -1    0    0  501    0  0.00000000000E+00 -0.00000000000E+00 -0.17958771416E+04  0.17958771416E+04  0.25500000000E-02 0. -1.
    8880023    1    1    2    0    0 -0.16714258432E+03 -0.11572321315E+03 -0.16320646557E+04  0.17716584751E+04  0.65864270000E+03 0.  0.
    8880022    1    1    2    0    0  0.16714258432E+03  0.11572321315E+03  0.78083987505E+02  0.26611513988E+03  0.15294330000E+03 0.  0.
<mgrwt>
<rscale>  0 0.53726383E+03</rscale>
<asrwt>0</asrwt>
<pdfrwt beam="1">  1        2 0.27628878E+00 0.68930306E+03</pdfrwt>
<pdfrwt beam="2">  1       -2 0.37214843E-01 0.68930306E+03</pdfrwt>
<totfact> 0.60962338E+01</totfact>
</mgrwt>
</event>
<event>
 4    2  0.3171963E-007  0.6784046E+03  0.7818608E-02  0.1010241E+00
          2   -1    0    0  501    0  0.00000000000E+00  0.00000000000E+00  0.29702266787E+04  0.29702266787E+04  0.25500000000E-02 0. -1.
         -2   -1    0    0    0  501 -0.00000000000E+00 -0.00000000000E+00 -0.24511730686E+03  0.24511730688E+03  0.25500000000E-02 0.  1.
    8880023    1    1    2    0    0 -0.14984025985E+03  0.63012267637E+02  0.28701033343E+04  0.29491907373E+04  0.65864270000E+03 0. -1.
    8880022    1    1    2    0    0  0.14984025985E+03 -0.63012267637E+02 -0.14499396251E+03  0.26615324819E+03  0.15294330000E+03 0.  0.
<mgrwt>
<rscale>  0 0.51379026E+03</rscale>
<asrwt>0</asrwt>
<pdfrwt beam="1">  1        2 0.45695797E+00 0.67840464E+03</pdfrwt>
<pdfrwt beam="2">  1       -2 0.37710353E-01 0.67840464E+03</pdfrwt>
<totfact> 0.12962408E+01</totfact>
</mgrwt>
</event>
<event>
 4    2  0.3171963E-007  0.1085322E+04  0.7818608E-02  0.9277577E-01
          2   -1    0    0  501    0  0.00000000000E+00  0.00000000000E+00  0.13297815615E+04  0.13297815615E+04  0.25500000000E-02 0. -1.
         -2   -1    0    0    0  501 -0.00000000000E+00 -0.00000000000E+00 -0.10140112062E+04  0.10140112062E+04  0.25500000000E-02 0.  1.
    8880023    1    1    2    0    0 -0.86020371541E+03 -0.64516305542E+02 -0.45507845215E+03  0.11768684674E+04  0.65864270000E+03 0.  1.
    8880022    1    1    2    0    0  0.86020371541E+03  0.64516305542E+02  0.77084880743E+03  0.11669243003E+04  0.15294330000E+03 0.  0.
<mgrwt>
<rscale>  0 0.10287360E+04</rscale>
<asrwt>0</asrwt>
<pdfrwt beam="1">  1        2 0.20458178E+00 0.10853216E+04</pdfrwt>
<pdfrwt beam="2">  1       -2 0.15600172E+00 0.10853216E+04</pdfrwt>
<totfact> 0.42117003E+00</totfact>
</mgrwt>
</event>
<event>
 4    2  0.3171963E-007  0.8807094E+03  0.7818608E-02  0.9557737E-01
          2   -1    0    0  501    0  0.00000000000E+00  0.00000000000E+00  0.11612466564E+04  0.11612466564E+04  0.25500000000E-02 0. -1.
         -2   -1    0    0    0  501 -0.00000000000E+00 -0.00000000000E+00 -0.10791014968E+04  0.10791014968E+04  0.25500000000E-02 0.  1.
    8880023    1    1    2    0    0  0.21197186930E+03  0.54489158781E+03  0.87629786992E+03  0.12423957014E+04  0.65864270000E+03 0. -1.
    8880022    1    1    2    0    0 -0.21197186930E+03 -0.54489158781E+03 -0.79415271031E+03  0.99795245184E+03  0.15294330000E+03 0.  0.
<mgrwt>
<rscale>  0 0.80157724E+03</rscale>
<asrwt>0</asrwt>
<pdfrwt beam="1">  1        2 0.17865333E+00 0.88070944E+03</pdfrwt>
<pdfrwt beam="2">  1       -2 0.16601562E+00 0.88070944E+03</pdfrwt>
<totfact> 0.45705374E+00</totfact>
</mgrwt>
</event>
<event>
 4    2  0.3171963E-007  0.7592788E+03  0.7818608E-02  0.9806978E-01
         -2   -1    0    0    0  501 -0.00000000000E+00  0.00000000000E+00  0.35000963993E+03  0.35000963994E+03  0.25500000000E-02 0.  1.
          2   -1    0    0  501    0  0.00000000000E+00 -0.00000000000E+00 -0.21404132358E+04  0.21404132358E+04  0.25500000000E-02 0. -1.
    8880023    1    1    2    0    0 -0.37725599477E+03  0.19287427772E+02 -0.19184543182E+04  0.20632429008E+04  0.65864270000E+03 0. -1.
    8880022    1    1    2    0    0  0.37725599477E+03 -0.19287427772E+02  0.12805072235E+03  0.42717997492E+03  0.15294330000E+03 0.  0.
<mgrwt>
<rscale>  0 0.64989396E+03</rscale>
<asrwt>0</asrwt>
<pdfrwt beam="1">  1        2 0.32929434E+00 0.75927880E+03</pdfrwt>
<pdfrwt beam="2">  1       -2 0.53847638E-01 0.75927880E+03</pdfrwt>
<totfact> 0.18772902E+01</totfact>
</mgrwt>
</event>
<event>
 4    2  0.3171963E-007  0.7735740E+03  0.7818608E-02  0.9771154E-01
          2   -1    0    0  501    0  0.00000000000E+00  0.00000000000E+00  0.12837550396E+04  0.12837550396E+04  0.25500000000E-02 0. -1.
         -2   -1    0    0    0  501 -0.00000000000E+00 -0.00000000000E+00 -0.44180284247E+03  0.44180284248E+03  0.25500000000E-02 0.  1.
    8880023    1    1    2    0    0 -0.40061880646E+03 -0.64118168815E+02  0.99980421159E+03  0.12641302288E+04  0.65864270000E+03 0. -1.
    8880022    1    1    2    0    0  0.40061880646E+03  0.64118168815E+02 -0.15785201450E+03  0.46142765322E+03  0.15294330000E+03 0.  0.
<mgrwt>
<rscale>  0 0.66933822E+03</rscale>
<asrwt>0</asrwt>
<pdfrwt beam="1">  1        2 0.19750077E+00 0.77357403E+03</pdfrwt>
<pdfrwt beam="2">  1       -2 0.67969669E-01 0.77357403E+03</pdfrwt>
<totfact> 0.34067250E+01</totfact>
</mgrwt>
</event>
<event>
 4    2  0.3171963E-007  0.6806686E+03  0.7818608E-02  0.1008948E+00
         -2   -1    0    0    0  501 -0.00000000000E+00  0.00000000000E+00  0.18298568864E+03  0.18298568866E+03  0.25500000000E-02 0.  1.
          2   -1    0    0  501    0  0.00000000000E+00 -0.00000000000E+00 -0.13738027755E+04  0.13738027755E+04  0.25500000000E-02 0. -1.
    8880023    1    1    2    0    0 -0.16650362868E+03 -0.42143183042E+02 -0.11295535320E+04  0.13187876608E+04  0.65864270000E+03 0. -1.
    8880022    1    1    2    0    0  0.16650362868E+03  0.42143183042E+02 -0.61263554815E+02  0.23800080337E+03  0.15294330000E+03 0.  1.
<mgrwt>
<rscale>  0 0.51894898E+03</rscale>
<asrwt>0</asrwt>
<pdfrwt beam="1">  1        2 0.21135427E+00 0.68066858E+03</pdfrwt>
<pdfrwt beam="2">  1       -2 0.28151645E-01 0.68066858E+03</pdfrwt>
<totfact> 0.17614508E+02</totfact>
</mgrwt>
</event>
<event>
 4    2  0.3171963E-007  0.6792062E+03  0.7818608E-02  0.1009776E+00
          2   -1    0    0  501    0  0.00000000000E+00  0.00000000000E+00  0.20076687801E+04  0.20076687801E+04  0.25500000000E-02 0. -1.
         -2   -1    0    0    0  501 -0.00000000000E+00 -0.00000000000E+00 -0.14576801989E+03  0.14576801991E+03  0.25500000000E-02 0.  1.
    8880023    1    1    2    0    0 -0.12986902170E+03 -0.10317413855E+03  0.17933115230E+04  0.19176254302E+04  0.65864270000E+03 0.  0.
    8880022    1    1    2    0    0  0.12986902170E+03  0.10317413855E+03  0.68589237200E+02  0.23581136983E+03  0.15294330000E+03 0.  0.
<mgrwt>
<rscale>  0 0.51563649E+03</rscale>
<asrwt>0</asrwt>
<pdfrwt beam="1">  1        2 0.30887209E+00 0.67920621E+03</pdfrwt>
<pdfrwt beam="2">  1       -2 0.22425851E-01 0.67920621E+03</pdfrwt>
<totfact> 0.11915073E+02</totfact>
</mgrwt>
</event>
<event>
 4    2  0.3171963E-007  0.7048590E+03  0.7818608E-02  0.9977611E-01
          2   -1    0    0  501    0  0.00000000000E+00  0.00000000000E+00  0.28935706691E+04  0.28935706691E+04  0.25500000000E-02 0. -1.
         -2   -1    0    0    0  501 -0.00000000000E+00 -0.00000000000E+00 -0.11264721409E+03  0.11264721412E+03  0.25500000000E-02 0.  1.
    8880023    1    1    2    0    0 -0.12384399983E+03 -0.21835441834E+03  0.25077689658E+04  0.26049436425E+04  0.65864270000E+03 0. -1.
    8880022    1    1    2    0    0  0.12384399983E+03  0.21835441834E+03  0.27315448918E+03  0.40127424074E+03  0.15294330000E+03 0.  0.
<mgrwt>
<rscale>  0 0.56642929E+03</rscale>
<asrwt>0</asrwt>
<pdfrwt beam="1">  1        2 0.44516473E+00 0.70485899E+03</pdfrwt>
<pdfrwt beam="2">  1       -2 0.17330340E-01 0.70485899E+03</pdfrwt>
<totfact> 0.58750763E+01</totfact>
</mgrwt>
</event>
<event>
 4    2  0.3171963E-007  0.6867865E+03  0.7818608E-02  0.1005719E+00
          2   -1    0    0  501    0  0.00000000000E+00  0.00000000000E+00  0.10919446320E+04  0.10919446320E+04  0.25500000000E-02 0. -1.
         -2   -1    0    0    0  501 -0.00000000000E+00 -0.00000000000E+00 -0.57263703842E+03  0.57263703843E+03  0.25500000000E-02 0.  1.
    8880023    1    1    2    0    0 -0.18066241047E+03  0.72295320446E+02  0.94736740841E+03  0.11701199651E+04  0.65864270000E+03 0.  0.
    8880022    1    1    2    0    0  0.18066241047E+03 -0.72295320446E+02 -0.42805981486E+03  0.49446170532E+03  0.15294330000E+03 0.  0.
<mgrwt>
<rscale>  0 0.53212166E+03</rscale>
<asrwt>0</asrwt>
<pdfrwt beam="1">  1        2 0.16799148E+00 0.68678652E+03</pdfrwt>
<pdfrwt beam="2">  1       -2 0.88098007E-01 0.68678652E+03</pdfrwt>
<totfact> 0.25062167E+01</totfact>
</mgrwt>
</event>
<event>
 4    2  0.3171963E-007  0.8297052E+03  0.7818608E-02  0.9649906E-01
         -2   -1    0    0    0  501 -0.00000000000E+00  0.00000000000E+00  0.93420480411E+03  0.93420480412E+03  0.25500000000E-02 0.  1.
          2   -1    0    0  501    0  0.00000000000E+00 -0.00000000000E+00 -0.95753703483E+03  0.95753703484E+03  0.25500000000E-02 0. -1.
    8880023    1    1    2    0    0  0.50254925173E+03 -0.45218420230E+02 -0.66351757041E+03  0.10623870427E+04  0.65864270000E+03 0. -1.
    8880022    1    1    2    0    0 -0.50254925173E+03  0.45218420230E+02  0.64018533969E+03  0.82935479628E+03  0.15294330000E+03 0.  0.
<mgrwt>
<rscale>  0 0.74079306E+03</rscale>
<asrwt>0</asrwt>
<pdfrwt beam="1">  1        2 0.14731339E+00 0.82970517E+03</pdfrwt>
<pdfrwt beam="2">  1       -2 0.14372382E+00 0.82970517E+03</pdfrwt>
<totfact> 0.90763891E+00</totfact>
</mgrwt>
</event>
<event>
 4    2  0.3171963E-007  0.7667017E+03  0.7818608E-02  0.9788057E-01
         -2   -1    0    0    0  501 -0.00000000000E+00  0.00000000000E+00  0.23077286847E+03  0.23077286848E+03  0.25500000000E-02 0.  1.
          2   -1    0    0  501    0  0.00000000000E+00 -0.00000000000E+00 -0.34351879056E+04  0.34351879056E+04  0.25500000000E-02 0. -1.
    8880023    1    1    2    0    0  0.16267140332E+03  0.35715439510E+03 -0.31491598595E+04  0.32411478329E+04  0.65864270000E+03 0. -1.
    8880022    1    1    2    0    0 -0.16267140332E+03 -0.35715439510E+03 -0.55255177662E+02  0.42481294127E+03  0.15294330000E+03 0.  0.
<mgrwt>
<rscale>  0 0.66007450E+03</rscale>
<asrwt>0</asrwt>
<pdfrwt beam="1">  1        2 0.52849041E+00 0.76670167E+03</pdfrwt>
<pdfrwt beam="2">  1       -2 0.35503521E-01 0.76670167E+03</pdfrwt>
<totfact> 0.72315975E+00</totfact>
</mgrwt>
</event>
<event>
 4    2  0.3171963E-007  0.1367569E+04  0.7818608E-02  0.9009301E-01
          2   -1    0    0  501    0  0.00000000000E+00  0.00000000000E+00  0.17472165062E+04  0.17472165062E+04  0.25500000000E-02 0. -1.
         -2   -1    0    0    0  501 -0.00000000000E+00 -0.00000000000E+00 -0.13304673016E+04  0.13304673016E+04  0.25500000000E-02 0.  1.
    8880023    1    1    2    0    0 -0.52796271671E+03 -0.10759597890E+04  0.10400758040E+04  0.17181391044E+04  0.65864270000E+03 0. -1.
    8880022    1    1    2    0    0  0.52796271671E+03  0.10759597890E+04 -0.62332659938E+03  0.13595447033E+04  0.15294330000E+03 0.  0.
<mgrwt>
<rscale>  0 0.13258656E+04</rscale>
<asrwt>0</asrwt>
<pdfrwt beam="1">  1        2 0.26880254E+00 0.13675688E+04</pdfrwt>
<pdfrwt beam="2">  1       -2 0.20468728E+00 0.13675688E+04</pdfrwt>
<totfact> 0.10897908E+00</totfact>
</mgrwt>
</event>
<event>
 4    2  0.3171963E-007  0.7820525E+03  0.7818608E-02  0.9751038E-01
          2   -1    0    0  501    0  0.00000000000E+00  0.00000000000E+00  0.18518256973E+04  0.18518256973E+04  0.25500000000E-02 0. -1.
         -2   -1    0    0    0  501 -0.00000000000E+00 -0.00000000000E+00 -0.31904305182E+03  0.31904305183E+03  0.25500000000E-02 0.  1.
    8880023    1    1    2    0    0 -0.16268935483E+03 -0.38900912334E+03  0.15345359281E+04  0.17223259405E+04  0.65864270000E+03 0.  0.
    8880022    1    1    2    0    0  0.16268935483E+03  0.38900912334E+03 -0.17532826179E+01  0.44854280870E+03  0.15294330000E+03 0.  0.
<mgrwt>
<rscale>  0 0.68057671E+03</rscale>
<asrwt>0</asrwt>
<pdfrwt beam="1">  1        2 0.28489626E+00 0.78205251E+03</pdfrwt>
<pdfrwt beam="2">  1       -2 0.49083547E-01 0.78205251E+03</pdfrwt>
<totfact> 0.32538565E+01</totfact>
</mgrwt>
</event>
<event>
 4    2  0.3171963E-007  0.7474239E+03  0.7818608E-02  0.9838826E-01
         -2   -1    0    0    0  501 -0.00000000000E+00  0.00000000000E+00  0.22804862311E+03  0.22804862312E+03  0.25500000000E-02 0.  1.
          2   -1    0    0  501    0  0.00000000000E+00 -0.00000000000E+00 -0.18109392396E+04  0.18109392396E+04  0.25500000000E-02 0. -1.
    8880023    1    1    2    0    0 -0.51361662037E+02  0.34956300627E+03 -0.52544938178E+03  0.91364083466E+03  0.65864270000E+03 0.  1.
    8880022    1    1    2    0    0  0.51361662037E+02 -0.34956300627E+03 -0.10574412347E+04  0.11253470281E+04  0.15294330000E+03 0.  0.
<mgrwt>
<rscale>  0 0.63319875E+03</rscale>
<asrwt>0</asrwt>
<pdfrwt beam="1">  1        2 0.27860603E+00 0.74742392E+03</pdfrwt>
<pdfrwt beam="2">  1       -2 0.35084405E-01 0.74742392E+03</pdfrwt>
<totfact> 0.66523093E+01</totfact>
</mgrwt>
</event>
<event>
 4    2  0.3171963E-007  0.7062018E+03  0.7818608E-02  0.9972385E-01
         -2   -1    0    0    0  501 -0.00000000000E+00  0.00000000000E+00  0.32700902835E+03  0.32700902836E+03  0.25500000000E-02 0.  1.
          2   -1    0    0  501    0  0.00000000000E+00 -0.00000000000E+00 -0.12885467367E+04  0.12885467367E+04  0.25500000000E-02 0. -1.
    8880023    1    1    2    0    0 -0.11077626625E+03 -0.22943281594E+03 -0.10843346646E+04  0.12940257607E+04  0.65864270000E+03 0. -1.
    8880022    1    1    2    0    0  0.11077626625E+03  0.22943281594E+03  0.12279695631E+03  0.32153000433E+03  0.15294330000E+03 0.  0.
<mgrwt>
<rscale>  0 0.56877856E+03</rscale>
<asrwt>0</asrwt>
<pdfrwt beam="1">  1        2 0.19823796E+00 0.70620182E+03</pdfrwt>
<pdfrwt beam="2">  1       -2 0.50309082E-01 0.70620182E+03</pdfrwt>
<totfact> 0.64131340E+01</totfact>
</mgrwt>
</event>
<event>
 4    2  0.3171963E-007  0.1044261E+04  0.7818608E-02  0.9325813E-01
          2   -1    0    0  501    0  0.00000000000E+00  0.00000000000E+00  0.16521520552E+04  0.16521520552E+04  0.25500000000E-02 0. -1.
         -2   -1    0    0    0  501 -0.00000000000E+00 -0.00000000000E+00 -0.13983899522E+04  0.13983899522E+04  0.25500000000E-02 0.  1.
    8880023    1    1    2    0    0 -0.12874546493E+03  0.80005924859E+03  0.13323494077E+04  0.16928187577E+04  0.65864270000E+03 0. -1.
    8880022    1    1    2    0    0  0.12874546493E+03 -0.80005924859E+03 -0.10785873046E+04  0.13577232497E+04  0.15294330000E+03 0.  0.
<mgrwt>
<rscale>  0 0.98440826E+03</rscale>
<asrwt>0</asrwt>
<pdfrwt beam="1">  1        2 0.25417724E+00 0.10442607E+04</pdfrwt>
<pdfrwt beam="2">  1       -2 0.21513692E+00 0.10442607E+04</pdfrwt>
<totfact> 0.10953057E+00</totfact>
</mgrwt>
</event>
<event>
 4    2  0.3171963E-007  0.7049411E+03  0.7818608E-02  0.9977290E-01
          2   -1    0    0  501    0  0.00000000000E+00  0.00000000000E+00  0.10817946399E+04  0.10817946399E+04  0.25500000000E-02 0. -1.
         -2   -1    0    0    0  501 -0.00000000000E+00 -0.00000000000E+00 -0.29833885932E+03  0.29833885933E+03  0.25500000000E-02 0.  1.
    8880023    1    1    2    0    0  0.18951976950E+03  0.16496667199E+03  0.82266470195E+03  0.10833832027E+04  0.65864270000E+03 0. -1.
    8880022    1    1    2    0    0 -0.18951976950E+03 -0.16496667199E+03 -0.39208921419E+02  0.29675029644E+03  0.15294330000E+03 0.  0.
<mgrwt>
<rscale>  0 0.56657358E+03</rscale>
<asrwt>0</asrwt>
<pdfrwt beam="1">  1        2 0.16642995E+00 0.70494110E+03</pdfrwt>
<pdfrwt beam="2">  1       -2 0.45898286E-01 0.70494110E+03</pdfrwt>
<totfact> 0.10241771E+02</totfact>
</mgrwt>
</event>
<event>
 4    2  0.3171963E-007  0.6738543E+03  0.7818608E-02  0.1013038E+00
          2   -1    0    0  501    0  0.00000000000E+00  0.00000000000E+00  0.33770823117E+04  0.33770823117E+04  0.25500000000E-02 0. -1.
         -2   -1    0    0    0  501 -0.00000000000E+00 -0.00000000000E+00 -0.67568993661E+02  0.67568993709E+02  0.25500000000E-02 0.  1.
    8880023    1    1    2    0    0  0.12075978593E+02  0.14185752009E+03  0.29740435876E+04  0.30494286108E+04  0.65864270000E+03 0. -1.
    8880022    1    1    2    0    0 -0.12075978593E+02 -0.14185752009E+03  0.33546973045E+03  0.39522269460E+03  0.15294330000E+03 0.  0.
<mgrwt>
<rscale>  0 0.50284745E+03</rscale>
<asrwt>0</asrwt>
<pdfrwt beam="1">  1        2 0.51955105E+00 0.67385428E+03</pdfrwt>
<pdfrwt beam="2">  1       -2 0.10395231E-01 0.67385428E+03</pdfrwt>
<totfact> 0.68962120E+01</totfact>
</mgrwt>
</event>
<event>
 4    2  0.3171963E-007  0.8191119E+03  0.7818608E-02  0.9670901E-01
         -2   -1    0    0    0  501 -0.00000000000E+00  0.00000000000E+00  0.49279133027E+03  0.49279133027E+03  0.25500000000E-02 0.  1.
          2   -1    0    0  501    0  0.00000000000E+00 -0.00000000000E+00 -0.22180042694E+04  0.22180042694E+04  0.25500000000E-02 0. -1.
    8880023    1    1    2    0    0  0.42230280438E+03  0.24247572676E+03 -0.19782312317E+04  0.21411079256E+04  0.65864270000E+03 0. -1.
    8880022    1    1    2    0    0 -0.42230280438E+03 -0.24247572676E+03  0.25301829254E+03  0.56968767411E+03  0.15294330000E+03 0.  0.
<mgrwt>
<rscale>  0 0.72776100E+03</rscale>
<asrwt>0</asrwt>
<pdfrwt beam="1">  1        2 0.34123142E+00 0.81911192E+03</pdfrwt>
<pdfrwt beam="2">  1       -2 0.75814052E-01 0.81911192E+03</pdfrwt>
<totfact> 0.81013277E+00</totfact>
</mgrwt>
</event>
<event>
 4    2  0.3171963E-007  0.8687703E+03  0.7818608E-02  0.9578149E-01
          2   -1    0    0  501    0  0.00000000000E+00  0.00000000000E+00  0.15907579112E+04  0.15907579112E+04  0.25500000000E-02 0. -1.
         -2   -1    0    0    0  501 -0.00000000000E+00 -0.00000000000E+00 -0.10859143901E+04  0.10859143901E+04  0.25500000000E-02 0.  1.
    8880023    1    1    2    0    0 -0.16467465671E+03 -0.54206441274E+03  0.13754041038E+04  0.16268061425E+04  0.65864270000E+03 0.  0.
    8880022    1    1    2    0    0  0.16467465671E+03  0.54206441274E+03 -0.87056058270E+03  0.10498661588E+04  0.15294330000E+03 0.  0.
<mgrwt>
<rscale>  0 0.78759446E+03</rscale>
<asrwt>0</asrwt>
<pdfrwt beam="1">  1        2 0.24473199E+00 0.86877027E+03</pdfrwt>
<pdfrwt beam="2">  1       -2 0.16706375E+00 0.86877027E+03</pdfrwt>
<totfact> 0.25521504E+00</totfact>
</mgrwt>
</event>
<event>
 4    2  0.3171963E-007  0.6633086E+03  0.7818608E-02  0.1020997E+00
          2   -1    0    0  501    0  0.00000000000E+00  0.00000000000E+00  0.14867012455E+04  0.14867012455E+04  0.25500000000E-02 0. -1.
         -2   -1    0    0    0  501 -0.00000000000E+00 -0.00000000000E+00 -0.49804123574E+03  0.49804123574E+03  0.25500000000E-02 0.  1.
    8880023    1    1    2    0    0 -0.78533051677E+02  0.79460981596E+00  0.13943732000E+04  0.15441032668E+04  0.65864270000E+03 0. -1.
    8880022    1    1    2    0    0  0.78533051677E+02 -0.79460981596E+00 -0.40571319017E+03  0.44063921444E+03  0.15294330000E+03 0.  0.
<mgrwt>
<rscale>  0 0.47328666E+03</rscale>
<asrwt>0</asrwt>
<pdfrwt beam="1">  1        2 0.22872327E+00 0.66330858E+03</pdfrwt>
<pdfrwt beam="2">  1       -2 0.76621730E-01 0.66330858E+03</pdfrwt>
<totfact> 0.20359411E+01</totfact>
</mgrwt>
</event>
<event>
 4    2  0.3171963E-007  0.7310644E+03  0.7818608E-02  0.9886785E-01
         -2   -1    0    0    0  501 -0.00000000000E+00  0.00000000000E+00  0.56309204029E+03  0.56309204029E+03  0.25500000000E-02 0.  1.
          2   -1    0    0  501    0  0.00000000000E+00 -0.00000000000E+00 -0.14607143887E+04  0.14607143887E+04  0.25500000000E-02 0. -1.
    8880023    1    1    2    0    0 -0.78748819288E+02  0.30731670791E+03 -0.12985265566E+04  0.14901766204E+04  0.65864270000E+03 0.  0.
    8880022    1    1    2    0    0  0.78748819288E+02 -0.30731670791E+03  0.40090420817E+03  0.53362980861E+03  0.15294330000E+03 0.  0.
<mgrwt>
<rscale>  0 0.60906052E+03</rscale>
<asrwt>0</asrwt>
<pdfrwt beam="1">  1        2 0.22472529E+00 0.73106439E+03</pdfrwt>
<pdfrwt beam="2">  1       -2 0.86629545E-01 0.73106439E+03</pdfrwt>
<totfact> 0.15816397E+01</totfact>
</mgrwt>
</event>
<event>
 4    2  0.3171963E-007  0.8033376E+03  0.7818608E-02  0.9703625E-01
          2   -1    0    0  501    0  0.00000000000E+00  0.00000000000E+00  0.10269871107E+04  0.10269871107E+04  0.25500000000E-02 0. -1.
         -2   -1    0    0    0  501 -0.00000000000E+00 -0.00000000000E+00 -0.69838060247E+03  0.69838060248E+03  0.25500000000E-02 0.  1.
    8880023    1    1    2    0    0  0.32972696801E+03 -0.32065748036E+03  0.73803145935E+03  0.10908903402E+04  0.65864270000E+03 0. -1.
    8880022    1    1    2    0    0 -0.32972696801E+03  0.32065748036E+03 -0.40942495113E+03  0.63447737294E+03  0.15294330000E+03 0.  0.
<mgrwt>
<rscale>  0 0.70801346E+03</rscale>
<asrwt>0</asrwt>
<pdfrwt beam="1">  1        2 0.15799802E+00 0.80333760E+03</pdfrwt>
<pdfrwt beam="2">  1       -2 0.10744317E+00 0.80333760E+03</pdfrwt>
<totfact> 0.17025791E+01</totfact>
</mgrwt>
</event>
<event>
 4    2  0.3171963E-007  0.7029583E+03  0.7818608E-02  0.9985143E-01
         -2   -1    0    0    0  501 -0.00000000000E+00  0.00000000000E+00  0.18728668803E+04  0.18728668803E+04  0.25500000000E-02 0.  1.
          2   -1    0    0  501    0  0.00000000000E+00 -0.00000000000E+00 -0.27569307587E+03  0.27569307588E+03  0.25500000000E-02 0. -1.
    8880023    1    1    2    0    0 -0.66434754774E+02 -0.23648808165E+03  0.21308188478E+03  0.73454358978E+03  0.65864270000E+03 0. -1.
    8880022    1    1    2    0    0  0.66434754774E+02  0.23648808165E+03  0.13840919196E+04  0.14140163664E+04  0.15294330000E+03 0.  0.
<mgrwt>
<rscale>  0 0.56306497E+03</rscale>
<asrwt>0</asrwt>
<pdfrwt beam="1">  1        2 0.42414322E-01 0.70295832E+03</pdfrwt>
<pdfrwt beam="2">  1       -2 0.28813335E+00 0.70295832E+03</pdfrwt>
<totfact> 0.47251805E+00</totfact>
</mgrwt>
</event>
<event>
 4    2  0.3171963E-007  0.6831287E+03  0.7818608E-02  0.1007607E+00
         -2   -1    0    0    0  501 -0.00000000000E+00  0.00000000000E+00  0.40362472147E+03  0.40362472148E+03  0.25500000000E-02 0.  1.
          2   -1    0    0  501    0  0.00000000000E+00 -0.00000000000E+00 -0.11594959206E+04  0.11594959206E+04  0.25500000000E-02 0. -1.
    8880023    1    1    2    0    0  0.14417531912E+03  0.10985464430E+03 -0.10075525779E+04  0.12173031541E+04  0.65864270000E+03 0. -1.
    8880022    1    1    2    0    0 -0.14417531912E+03 -0.10985464430E+03  0.25168137880E+03  0.34581748794E+03  0.15294330000E+03 0.  0.
<mgrwt>
<rscale>  0 0.52437086E+03</rscale>
<asrwt>0</asrwt>
<pdfrwt beam="1">  1        2 0.17838399E+00 0.68312866E+03</pdfrwt>
<pdfrwt beam="2">  1       -2 0.62096111E-01 0.68312866E+03</pdfrwt>
<totfact> 0.49392758E+01</totfact>
</mgrwt>
</event>
<event>
 4    2  0.3171963E-007  0.1689884E+04  0.7818608E-02  0.8786026E-01
         -2   -1    0    0    0  501 -0.00000000000E+00  0.00000000000E+00  0.95465398328E+03  0.95465398329E+03  0.25500000000E-02 0.  1.
          2   -1    0    0  501    0  0.00000000000E+00 -0.00000000000E+00 -0.38578414904E+04  0.38578414904E+04  0.25500000000E-02 0. -1.
    8880023    1    1    2    0    0 -0.15439203479E+04  0.19546962560E+03 -0.27677991615E+04  0.32429031469E+04  0.65864270000E+03 0.  0.
    8880022    1    1    2    0    0  0.15439203479E+04 -0.19546962560E+03 -0.13538834558E+03  0.15695923268E+04  0.15294330000E+03 0.  0.
<mgrwt>
<rscale>  0 0.16574255E+04</rscale>
<asrwt>0</asrwt>
<pdfrwt beam="1">  1        2 0.59351406E+00 0.16898842E+04</pdfrwt>
<pdfrwt beam="2">  1       -2 0.14686985E+00 0.16898842E+04</pdfrwt>
<totfact> 0.13150914E-01</totfact>
</mgrwt>
</event>
<event>
 4    2  0.3171963E-007  0.7673948E+03  0.7818608E-02  0.9786326E-01
         -2   -1    0    0    0  501 -0.00000000000E+00  0.00000000000E+00  0.43992447620E+03  0.43992447621E+03  0.25500000000E-02 0.  1.
          2   -1    0    0  501    0  0.00000000000E+00 -0.00000000000E+00 -0.12891132020E+04  0.12891132020E+04  0.25500000000E-02 0. -1.
    8880023    1    1    2    0    0  0.20318127142E+03 -0.33734533867E+03 -0.10173615481E+04  0.12743308960E+04  0.65864270000E+03 0.  0.
    8880022    1    1    2    0    0 -0.20318127142E+03  0.33734533867E+03  0.16817282237E+03  0.45470678220E+03  0.15294330000E+03 0.  0.
<mgrwt>
<rscale>  0 0.66101551E+03</rscale>
<asrwt>0</asrwt>
<pdfrwt beam="1">  1        2 0.19832511E+00 0.76739476E+03</pdfrwt>
<pdfrwt beam="2">  1       -2 0.67680689E-01 0.76739476E+03</pdfrwt>
<totfact> 0.34160198E+01</totfact>
</mgrwt>
</event>
<event>
 4    2  0.3171963E-007  0.7104193E+03  0.7818608E-02  0.9956447E-01
          2   -1    0    0  501    0  0.00000000000E+00  0.00000000000E+00  0.20691666644E+04  0.20691666644E+04  0.25500000000E-02 0. -1.
         -2   -1    0    0    0  501 -0.00000000000E+00 -0.00000000000E+00 -0.15020319758E+03  0.15020319760E+03  0.25500000000E-02 0.  1.
    8880023    1    1    2    0    0 -0.12086020427E+02  0.26596848988E+03  0.16993458657E+04  0.18418664140E+04  0.65864270000E+03 0.  0.
    8880022    1    1    2    0    0  0.12086020427E+02 -0.26596848988E+03  0.21961760107E+03  0.37750344795E+03  0.15294330000E+03 0.  0.
<mgrwt>
<rscale>  0 0.57601891E+03</rscale>
<asrwt>0</asrwt>
<pdfrwt beam="1">  1        2 0.31833330E+00 0.71041925E+03</pdfrwt>
<pdfrwt beam="2">  1       -2 0.23108187E-01 0.71041925E+03</pdfrwt>
<totfact> 0.10420603E+02</totfact>
</mgrwt>
</event>
<event>
 4    2  0.3171963E-007  0.8401884E+03  0.7818608E-02  0.9629825E-01
         -2   -1    0    0    0  501 -0.00000000000E+00  0.00000000000E+00  0.25919439801E+03  0.25919439802E+03  0.25500000000E-02 0.  1.
          2   -1    0    0  501    0  0.00000000000E+00 -0.00000000000E+00 -0.30426745616E+04  0.30426745616E+04  0.25500000000E-02 0. -1.
    8880023    1    1    2    0    0  0.46199200330E+03  0.24221831508E+03 -0.25932286898E+04  0.27259404922E+04  0.65864270000E+03 0. -1.
    8880022    1    1    2    0    0 -0.46199200330E+03 -0.24221831508E+03 -0.19025147382E+03  0.57592846742E+03  0.15294330000E+03 0.  0.
<mgrwt>
<rscale>  0 0.75353221E+03</rscale>
<asrwt>0</asrwt>
<pdfrwt beam="1">  1        2 0.46810375E+00 0.84018839E+03</pdfrwt>
<pdfrwt beam="2">  1       -2 0.39876063E-01 0.84018839E+03</pdfrwt>
<totfact> 0.10207745E+01</totfact>
</mgrwt>
</event>
<event>
 4    2  0.3171963E-007  0.7010875E+03  0.7818608E-02  0.9992719E-01
         -2   -1    0    0    0  501 -0.00000000000E+00  0.00000000000E+00  0.16195538622E+03  0.16195538624E+03  0.25500000000E-02 0.  1.
          2   -1    0    0  501    0  0.00000000000E+00 -0.00000000000E+00 -0.16511438109E+04  0.16511438109E+04  0.25500000000E-02 0. -1.
    8880023    1    1    2    0    0 -0.15017436451E+03 -0.18751306192E+03 -0.12810870336E+04  0.14603792939E+04  0.65864270000E+03 0. -1.
    8880022    1    1    2    0    0  0.15017436451E+03  0.18751306192E+03 -0.20810139107E+03  0.35271990322E+03  0.15294330000E+03 0.  0.
<mgrwt>
<rscale>  0 0.55970633E+03</rscale>
<asrwt>0</asrwt>
<pdfrwt beam="1">  1        2 0.25402211E+00 0.70108751E+03</pdfrwt>
<pdfrwt beam="2">  1       -2 0.24916214E-01 0.70108751E+03</pdfrwt>
<totfact> 0.15397710E+02</totfact>
</mgrwt>
</event>
<event>
 4    2  0.3171963E-007  0.1020450E+04  0.7818608E-02  0.9355278E-01
          2   -1    0    0  501    0  0.00000000000E+00  0.00000000000E+00  0.23288027916E+04  0.23288027916E+04  0.25500000000E-02 0. -1.
         -2   -1    0    0    0  501 -0.00000000000E+00 -0.00000000000E+00 -0.70455237037E+03  0.70455237037E+03  0.25500000000E-02 0.  1.
    8880023    1    1    2    0    0 -0.14729722818E+01 -0.77942687218E+03  0.19292607362E+04  0.21825135998E+04  0.65864270000E+03 0.  0.
    8880022    1    1    2    0    0  0.14729722818E+01  0.77942687218E+03 -0.30501031496E+03  0.85084156220E+03  0.15294330000E+03 0.  0.
<mgrwt>
<rscale>  0 0.95849298E+03</rscale>
<asrwt>0</asrwt>
<pdfrwt beam="1">  1        2 0.35827736E+00 0.10204502E+04</pdfrwt>
<pdfrwt beam="2">  1       -2 0.10839267E+00 0.10204502E+04</pdfrwt>
<totfact> 0.29786806E+00</totfact>
</mgrwt>
</event>
<event>
 4    2  0.3171963E-007  0.6605658E+03  0.7818608E-02  0.1023584E+00
          2   -1    0    0  501    0  0.00000000000E+00  0.00000000000E+00  0.34095615023E+04  0.34095615023E+04  0.25500000000E-02 0. -1.
         -2   -1    0    0    0  501 -0.00000000000E+00 -0.00000000000E+00 -0.80865364803E+02  0.80865364843E+02  0.25500000000E-02 0.  1.
    8880023    1    1    2    0    0  0.22287571315E+02 -0.45169063029E+02  0.32398773062E+04  0.33065317397E+04  0.65864270000E+03 0. -1.
    8880022    1    1    2    0    0 -0.22287571315E+02  0.45169063029E+02  0.88818831283E+02  0.18389512744E+03  0.15294330000E+03 0.  0.
<mgrwt>
<rscale>  0 0.46415125E+03</rscale>
<asrwt>0</asrwt>
<pdfrwt beam="1">  1        2 0.52454783E+00 0.66056581E+03</pdfrwt>
<pdfrwt beam="2">  1       -2 0.12440828E-01 0.66056581E+03</pdfrwt>
<totfact> 0.48966022E+01</totfact>
</mgrwt>
</event>
<event>
 4    2  0.3171963E-007  0.6725964E+03  0.7818608E-02  0.1013866E+00
         -2   -1    0    0    0  501 -0.00000000000E+00  0.00000000000E+00  0.76194046565E+03  0.76194046565E+03  0.25500000000E-02 0.  1.
          2   -1    0    0  501    0  0.00000000000E+00 -0.00000000000E+00 -0.37469029765E+03  0.37469029766E+03  0.25500000000E-02 0. -1.
    8880023    1    1    2    0    0  0.17677919074E+02  0.13514139107E+03 -0.28445520293E+02  0.67319763687E+03  0.65864270000E+03 0. -1.
    8880022    1    1    2    0    0 -0.17677919074E+02 -0.13514139107E+03  0.41569568829E+03  0.46343312644E+03  0.15294330000E+03 0.  0.
<mgrwt>
<rscale>  0 0.49966606E+03</rscale>
<asrwt>0</asrwt>
<pdfrwt beam="1">  1        2 0.57644662E-01 0.67259640E+03</pdfrwt>
<pdfrwt beam="2">  1       -2 0.11722161E+00 0.67259640E+03</pdfrwt>
<totfact> 0.48941820E+01</totfact>
</mgrwt>
</event>
<event>
 4    2  0.3171963E-007  0.6956276E+03  0.7818608E-02  0.1001585E+00
         -2   -1    0    0    0  501 -0.00000000000E+00  0.00000000000E+00  0.10026916772E+03  0.10026916776E+03  0.25500000000E-02 0.  1.
          2   -1    0    0  501    0  0.00000000000E+00 -0.00000000000E+00 -0.24751654449E+04  0.24751654449E+04  0.25500000000E-02 0. -1.
    8880023    1    1    2    0    0  0.20044329213E+03  0.99548874196E+02 -0.13962334549E+04  0.15599248567E+04  0.65864270000E+03 0.  1.
    8880022    1    1    2    0    0 -0.20044329213E+03 -0.99548874196E+02 -0.97866282221E+03  0.10155097559E+04  0.15294330000E+03 0.  1.
<mgrwt>
<rscale>  0 0.54960806E+03</rscale>
<asrwt>0</asrwt>
<pdfrwt beam="1">  1        2 0.38079464E+00 0.69562756E+03</pdfrwt>
<pdfrwt beam="2">  1       -2 0.15426028E-01 0.69562756E+03</pdfrwt>
<totfact> 0.12548198E+02</totfact>
</mgrwt>
</event>
<event>
 4    2  0.3171963E-007  0.7580794E+03  0.7818608E-02  0.9810105E-01
          2   -1    0    0  501    0  0.00000000000E+00  0.00000000000E+00  0.13434420630E+04  0.13434420630E+04  0.25500000000E-02 0. -1.
         -2   -1    0    0    0  501 -0.00000000000E+00 -0.00000000000E+00 -0.35614940687E+03  0.35614940688E+03  0.25500000000E-02 0.  1.
    8880023    1    1    2    0    0 -0.13125855100E+03 -0.35163239883E+03  0.10441526746E+04  0.12903252169E+04  0.65864270000E+03 0. -1.
    8880022    1    1    2    0    0  0.13125855100E+03  0.35163239883E+03 -0.56860018508E+02  0.40926625300E+03  0.15294330000E+03 0.  1.
<mgrwt>
<rscale>  0 0.64823043E+03</rscale>
<asrwt>0</asrwt>
<pdfrwt beam="1">  1        2 0.20668339E+00 0.75807939E+03</pdfrwt>
<pdfrwt beam="2">  1       -2 0.54792216E-01 0.75807939E+03</pdfrwt>
<totfact> 0.49791435E+01</totfact>
</mgrwt>
</event>
<event>
 4    2  0.3171963E-007  0.1092755E+04  0.7818608E-02  0.9269165E-01
         -2   -1    0    0    0  501 -0.00000000000E+00  0.00000000000E+00  0.70943405557E+03  0.70943405557E+03  0.25500000000E-02 0.  1.
          2   -1    0    0  501    0  0.00000000000E+00 -0.00000000000E+00 -0.21750047191E+04  0.21750047191E+04  0.25500000000E-02 0. -1.
    8880023    1    1    2    0    0 -0.81924473688E+03 -0.29856614264E+03 -0.16510807342E+04  0.19799448168E+04  0.65864270000E+03 0. -1.
    8880022    1    1    2    0    0  0.81924473688E+03  0.29856614264E+03  0.18551007070E+03  0.90449395785E+03  0.15294330000E+03 0.  0.
<mgrwt>
<rscale>  0 0.10367178E+04</rscale>
<asrwt>0</asrwt>
<pdfrwt beam="1">  1        2 0.33461611E+00 0.10927552E+04</pdfrwt>
<pdfrwt beam="2">  1       -2 0.10914370E+00 0.10927552E+04</pdfrwt>
<totfact> 0.35385404E+00</totfact>
</mgrwt>
</event>
<event>
 4    2  0.3171963E-007  0.7821456E+03  0.7818608E-02  0.9750821E-01
          2   -1    0    0  501    0  0.00000000000E+00  0.00000000000E+00  0.79065612535E+03  0.79065612536E+03  0.25500000000E-02 0. -1.
         -2   -1    0    0    0  501 -0.00000000000E+00 -0.00000000000E+00 -0.63767346809E+03  0.63767346809E+03  0.25500000000E-02 0.  1.
    8880023    1    1    2    0    0 -0.40911410545E+03  0.10279709076E+03  0.43831524258E+03  0.89658912066E+03  0.65864270000E+03 0.  0.
    8880022    1    1    2    0    0  0.40911410545E+03 -0.10279709076E+03 -0.28533258531E+03  0.53174047279E+03  0.15294330000E+03 0.  0.
<mgrwt>
<rscale>  0 0.68069907E+03</rscale>
<asrwt>0</asrwt>
<pdfrwt beam="1">  1        2 0.12163940E+00 0.78214564E+03</pdfrwt>
<pdfrwt beam="2">  1       -2 0.98103611E-01 0.78214564E+03</pdfrwt>
<totfact> 0.30578929E+01</totfact>
</mgrwt>
</event>
<event>
 4    2  0.3171963E-007  0.7853564E+03  0.7818608E-02  0.9743402E-01
          2   -1    0    0  501    0  0.00000000000E+00  0.00000000000E+00  0.13893117547E+04  0.13893117547E+04  0.25500000000E-02 0. -1.
         -2   -1    0    0    0  501 -0.00000000000E+00 -0.00000000000E+00 -0.72913581826E+03  0.72913581826E+03  0.25500000000E-02 0.  1.
    8880023    1    1    2    0    0 -0.34874028379E+03 -0.24769891818E+03  0.11866993219E+04  0.14230390109E+04  0.65864270000E+03 0. -1.
    8880022    1    1    2    0    0  0.34874028379E+03  0.24769891818E+03 -0.52652338553E+03  0.69540856202E+03  0.15294330000E+03 0.  0.
<mgrwt>
<rscale>  0 0.68490436E+03</rscale>
<asrwt>0</asrwt>
<pdfrwt beam="1">  1        2 0.21374027E+00 0.78535645E+03</pdfrwt>
<pdfrwt beam="2">  1       -2 0.11217474E+00 0.78535645E+03</pdfrwt>
<totfact> 0.93615305E+00</totfact>
</mgrwt>
</event>
<event>
 4    2  0.3171963E-007  0.7900547E+03  0.7818608E-02  0.9732727E-01
          2   -1    0    0  501    0  0.00000000000E+00  0.00000000000E+00  0.17381562487E+04  0.17381562487E+04  0.25500000000E-02 0. -1.
         -2   -1    0    0    0  501 -0.00000000000E+00 -0.00000000000E+00 -0.68895312071E+03  0.68895312072E+03  0.25500000000E-02 0.  1.
    8880023    1    1    2    0    0 -0.70488306842E+02  0.43058994005E+03  0.15535532721E+04  0.17429039771E+04  0.65864270000E+03 0. -1.
    8880022    1    1    2    0    0  0.70488306842E+02 -0.43058994005E+03 -0.50435014416E+03  0.68420539227E+03  0.15294330000E+03 0.  0.
<mgrwt>
<rscale>  0 0.69101220E+03</rscale>
<asrwt>0</asrwt>
<pdfrwt beam="1">  1        2 0.26740866E+00 0.79005475E+03</pdfrwt>
<pdfrwt beam="2">  1       -2 0.10599279E+00 0.79005475E+03</pdfrwt>
<totfact> 0.68708637E+00</totfact>
</mgrwt>
</event>
<event>
 4    2  0.3171963E-007  0.6691932E+03  0.7818608E-02  0.1016248E+00
          2   -1    0    0  501    0  0.00000000000E+00  0.00000000000E+00  0.97425519717E+03  0.97425519717E+03  0.25500000000E-02 0. -1.
         -2   -1    0    0    0  501 -0.00000000000E+00 -0.00000000000E+00 -0.24985103562E+03  0.24985103564E+03  0.25500000000E-02 0.  1.
    8880023    1    1    2    0    0 -0.10920825386E+03 -0.45639086011E+02  0.77526520143E+03  0.10241365669E+04  0.65864270000E+03 0. -1.
    8880022    1    1    2    0    0  0.10920825386E+03  0.45639086011E+02 -0.50861039884E+02  0.19996966589E+03  0.15294330000E+03 0.  0.
<mgrwt>
<rscale>  0 0.49065258E+03</rscale>
<asrwt>0</asrwt>
<pdfrwt beam="1">  1        2 0.14988541E+00 0.66919323E+03</pdfrwt>
<pdfrwt beam="2">  1       -2 0.38438621E-01 0.66919323E+03</pdfrwt>
<totfact> 0.17003694E+02</totfact>
</mgrwt>
</event>
<event>
 4    2  0.3171963E-007  0.8426184E+03  0.7818608E-02  0.9625263E-01
          2   -1    0    0  501    0  0.00000000000E+00  0.00000000000E+00  0.14821762984E+04  0.14821762984E+04  0.25500000000E-02 0. -1.
         -2   -1    0    0    0  501 -0.00000000000E+00 -0.00000000000E+00 -0.32636454247E+03  0.32636454248E+03  0.25500000000E-02 0.  1.
    8880023    1    1    2    0    0  0.37503623189E+03  0.36816228735E+03  0.66616517116E+03  0.10741423959E+04  0.65864270000E+03 0.  1.
    8880022    1    1    2    0    0 -0.37503623189E+03 -0.36816228735E+03  0.48964658476E+03  0.73439844501E+03  0.15294330000E+03 0. -1.
<mgrwt>
<rscale>  0 0.75646467E+03</rscale>
<asrwt>0</asrwt>
<pdfrwt beam="1">  1        2 0.22802712E+00 0.84261845E+03</pdfrwt>
<pdfrwt beam="2">  1       -2 0.50209929E-01 0.84261845E+03</pdfrwt>
<totfact> 0.49342517E+01</totfact>
</mgrwt>
</event>
<event>
 4    2  0.3171963E-007  0.6810963E+03  0.7818608E-02  0.1008710E+00
         -2   -1    0    0    0  501 -0.00000000000E+00  0.00000000000E+00  0.41119745868E+03  0.41119745869E+03  0.25500000000E-02 0.  1.
          2   -1    0    0  501    0  0.00000000000E+00 -0.00000000000E+00 -0.91283326538E+03  0.91283326538E+03  0.25500000000E-02 0. -1.
    8880023    1    1    2    0    0 -0.17292306821E+03  0.13401001668E+02 -0.73044462449E+03  0.99871994577E+03  0.65864270000E+03 0.  0.
    8880022    1    1    2    0    0  0.17292306821E+03 -0.13401001668E+02  0.22880881779E+03  0.32531077830E+03  0.15294330000E+03 0.  0.
<mgrwt>
<rscale>  0 0.51990483E+03</rscale>
<asrwt>0</asrwt>
<pdfrwt beam="1">  1        2 0.14043589E+00 0.68109631E+03</pdfrwt>
<pdfrwt beam="2">  1       -2 0.63261148E-01 0.68109631E+03</pdfrwt>
<totfact> 0.67825524E+01</totfact>
</mgrwt>
</event>
<event>
 4    2  0.3171963E-007  0.7196325E+03  0.7818608E-02  0.9923832E-01
         -2   -1    0    0    0  501 -0.00000000000E+00  0.00000000000E+00  0.27323384296E+03  0.27323384297E+03  0.25500000000E-02 0.  1.
          2   -1    0    0  501    0  0.00000000000E+00 -0.00000000000E+00 -0.16976666348E+04  0.16976666348E+04  0.25500000000E-02 0. -1.
    8880023    1    1    2    0    0  0.28960541738E+03  0.13761410085E+02 -0.14731270525E+04  0.16395042523E+04  0.65864270000E+03 0.  0.
    8880022    1    1    2    0    0 -0.28960541738E+03 -0.13761410085E+02  0.48694260733E+02  0.33139622543E+03  0.15294330000E+03 0.  1.
<mgrwt>
<rscale>  0 0.59120083E+03</rscale>
<asrwt>0</asrwt>
<pdfrwt beam="1">  1        2 0.26117948E+00 0.71963246E+03</pdfrwt>
<pdfrwt beam="2">  1       -2 0.42035977E-01 0.71963246E+03</pdfrwt>
<totfact> 0.54222337E+01</totfact>
</mgrwt>
</event>
<event>
 4    2  0.3171963E-007  0.7578366E+03  0.7818608E-02  0.9810741E-01
          2   -1    0    0  501    0  0.00000000000E+00  0.00000000000E+00  0.14934896094E+04  0.14934896094E+04  0.25500000000E-02 0. -1.
         -2   -1    0    0    0  501 -0.00000000000E+00 -0.00000000000E+00 -0.24167526168E+03  0.24167526170E+03  0.25500000000E-02 0.  1.
    8880023    1    1    2    0    0  0.22771948479E+03 -0.29774140797E+03  0.10131025168E+04  0.12651849768E+04  0.65864270000E+03 0.  0.
    8880022    1    1    2    0    0 -0.22771948479E+03  0.29774140797E+03  0.23871183088E+03  0.46997989424E+03  0.15294330000E+03 0. -1.
<mgrwt>
<rscale>  0 0.64789303E+03</rscale>
<asrwt>0</asrwt>
<pdfrwt beam="1">  1        2 0.22976763E+00 0.75783660E+03</pdfrwt>
<pdfrwt beam="2">  1       -2 0.37180810E-01 0.75783660E+03</pdfrwt>
<totfact> 0.88876519E+01</totfact>
</mgrwt>
</event>
<event>
 4    2  0.3171963E-007  0.6749243E+03  0.7818608E-02  0.1012354E+00
         -2   -1    0    0    0  501 -0.00000000000E+00  0.00000000000E+00  0.15277048689E+03  0.15277048692E+03  0.25500000000E-02 0.  1.
          2   -1    0    0  501    0  0.00000000000E+00 -0.00000000000E+00 -0.15347034940E+04  0.15347034940E+04  0.25500000000E-02 0. -1.
    8880023    1    1    2    0    0 -0.22495878904E+02 -0.14562444370E+03 -0.12903271960E+04  0.14561823451E+04  0.65864270000E+03 0.  0.
    8880022    1    1    2    0    0  0.22495878904E+02  0.14562444370E+03 -0.91605811155E+02  0.23129163587E+03  0.15294330000E+03 0.  0.
<mgrwt>
<rscale>  0 0.50549678E+03</rscale>
<asrwt>0</asrwt>
<pdfrwt beam="1">  1        2 0.23610822E+00 0.67492425E+03</pdfrwt>
<pdfrwt beam="2">  1       -2 0.23503153E-01 0.67492425E+03</pdfrwt>
<totfact> 0.19859621E+02</totfact>
</mgrwt>
</event>
<event>
 4    2  0.3171963E-007  0.8049813E+03  0.7818608E-02  0.9700127E-01
          2   -1    0    0  501    0  0.00000000000E+00  0.00000000000E+00  0.18067301975E+04  0.18067301975E+04  0.25500000000E-02 0. -1.
         -2   -1    0    0    0  501 -0.00000000000E+00 -0.00000000000E+00 -0.28203692086E+03  0.28203692088E+03  0.25500000000E-02 0.  1.
    8880023    1    1    2    0    0  0.29217750222E+03 -0.35891082106E+03  0.13484777597E+04  0.15704735416E+04  0.65864270000E+03 0.  1.
    8880022    1    1    2    0    0 -0.29217750222E+03  0.35891082106E+03  0.17621551694E+03  0.51829357675E+03  0.15294330000E+03 0.  0.
<mgrwt>
<rscale>  0 0.71009219E+03</rscale>
<asrwt>0</asrwt>
<pdfrwt beam="1">  1        2 0.27795849E+00 0.80498129E+03</pdfrwt>
<pdfrwt beam="2">  1       -2 0.43390296E-01 0.80498129E+03</pdfrwt>
<totfact> 0.43982188E+01</totfact>
</mgrwt>
</event>
<event>
 4    2  0.3171963E-007  0.6910967E+03  0.7818608E-02  0.1003636E+00
          2   -1    0    0  501    0  0.00000000000E+00  0.00000000000E+00  0.20967862675E+04  0.20967862675E+04  0.25500000000E-02 0. -1.
         -2   -1    0    0    0  501 -0.00000000000E+00 -0.00000000000E+00 -0.50880710554E+03  0.50880710554E+03  0.25500000000E-02 0.  1.
    8880023    1    1    2    0    0 -0.12472510688E+03 -0.16807151231E+03  0.20015475927E+04  0.21175002616E+04  0.65864270000E+03 0. -1.
    8880022    1    1    2    0    0  0.12472510688E+03  0.16807151231E+03 -0.41356843076E+03  0.48809311148E+03  0.15294330000E+03 0.  0.
<mgrwt>
<rscale>  0 0.54084405E+03</rscale>
<asrwt>0</asrwt>
<pdfrwt beam="1">  1        2 0.32258251E+00 0.69109666E+03</pdfrwt>
<pdfrwt beam="2">  1       -2 0.78278015E-01 0.69109666E+03</pdfrwt>
<totfact> 0.89753705E+00</totfact>
</mgrwt>
</event>
<event>
 4    2  0.3171963E-007  0.8123433E+03  0.7818608E-02  0.9684716E-01
         -2   -1    0    0    0  501 -0.00000000000E+00  0.00000000000E+00  0.81801562271E+03  0.81801562271E+03  0.25500000000E-02 0.  1.
          2   -1    0    0  501    0  0.00000000000E+00 -0.00000000000E+00 -0.80861734027E+03  0.80861734028E+03  0.25500000000E-02 0. -1.
    8880023    1    1    2    0    0  0.25841586927E+03  0.39913986192E+03  0.47733119105E+03  0.94220309014E+03  0.65864270000E+03 0.  0.
    8880022    1    1    2    0    0 -0.25841586927E+03 -0.39913986192E+03 -0.46793290861E+03  0.68442987285E+03  0.15294330000E+03 0.  0.
<mgrwt>
<rscale>  0 0.71934101E+03</rscale>
<asrwt>0</asrwt>
<pdfrwt beam="1">  1        2 0.12440267E+00 0.81234328E+03</pdfrwt>
<pdfrwt beam="2">  1       -2 0.12584856E+00 0.81234328E+03</pdfrwt>
<totfact> 0.16147616E+01</totfact>
</mgrwt>
</event>
<event>
 4    2  0.3171963E-007  0.8218762E+03  0.7818608E-02  0.9665351E-01
          2   -1    0    0  501    0  0.00000000000E+00  0.00000000000E+00  0.24599817710E+04  0.24599817711E+04  0.25500000000E-02 0. -1.
         -2   -1    0    0    0  501 -0.00000000000E+00 -0.00000000000E+00 -0.38990786906E+03  0.38990786907E+03  0.25500000000E-02 0.  1.
    8880023    1    1    2    0    0  0.41864679247E+03  0.25769182279E+03  0.21744371654E+04  0.23245768227E+04  0.65864270000E+03 0. -1.
    8880022    1    1    2    0    0 -0.41864679247E+03 -0.25769182279E+03 -0.10436326337E+03  0.52531281740E+03  0.15294330000E+03 0.  0.
<mgrwt>
<rscale>  0 0.73117813E+03</rscale>
<asrwt>0</asrwt>
<pdfrwt beam="1">  1        2 0.37845874E+00 0.82187616E+03</pdfrwt>
<pdfrwt beam="2">  1       -2 0.59985826E-01 0.82187616E+03</pdfrwt>
<totfact> 0.98537262E+00</totfact>
</mgrwt>
</event>
<event>
 4    2  0.3171963E-007  0.8864476E+03  0.7818608E-02  0.9548147E-01
         -2   -1    0    0    0  501 -0.00000000000E+00  0.00000000000E+00  0.53082626446E+03  0.53082626447E+03  0.25500000000E-02 0.  1.
          2   -1    0    0  501    0  0.00000000000E+00 -0.00000000000E+00 -0.12118895661E+04  0.12118895661E+04  0.25500000000E-02 0. -1.
    8880023    1    1    2    0    0 -0.12941994259E+03 -0.57899012420E+03 -0.89322344533E+02  0.89093645843E+03  0.65864270000E+03 0.  1.
    8880022    1    1    2    0    0  0.12941994259E+03  0.57899012420E+03 -0.59174095710E+03  0.85177937213E+03  0.15294330000E+03 0.  0.
<mgrwt>
<rscale>  0 0.80825303E+03</rscale>
<asrwt>0</asrwt>
<pdfrwt beam="1">  1        2 0.18644455E+00 0.88644757E+03</pdfrwt>
<pdfrwt beam="2">  1       -2 0.81665580E-01 0.88644757E+03</pdfrwt>
<totfact> 0.24719064E+01</totfact>
</mgrwt>
</event>
<event>
 4    2  0.3171963E-007  0.9636795E+03  0.7818608E-02  0.9430700E-01
          2   -1    0    0  501    0  0.00000000000E+00  0.00000000000E+00  0.13388787018E+04  0.13388787018E+04  0.25500000000E-02 0. -1.
         -2   -1    0    0    0  501 -0.00000000000E+00 -0.00000000000E+00 -0.13111525299E+04  0.13111525299E+04  0.25500000000E-02 0.  1.
    8880023    1    1    2    0    0 -0.20859564748E+03  0.67183015693E+03  0.10335531760E+04  0.14131207584E+04  0.65864270000E+03 0.  0.
    8880022    1    1    2    0    0  0.20859564748E+03 -0.67183015693E+03 -0.10058270041E+04  0.12369104733E+04  0.15294330000E+03 0.  0.
<mgrwt>
<rscale>  0 0.89591719E+03</rscale>
<asrwt>0</asrwt>
<pdfrwt beam="1">  1        2 0.20598134E+00 0.96367946E+03</pdfrwt>
<pdfrwt beam="2">  1       -2 0.20171577E+00 0.96367946E+03</pdfrwt>
<totfact> 0.20286029E+00</totfact>
</mgrwt>
</event>
<event>
 4    2  0.3171963E-007  0.9500894E+03  0.7818608E-02  0.9449985E-01
         -2   -1    0    0    0  501 -0.00000000000E+00  0.00000000000E+00  0.20757171430E+04  0.20757171430E+04  0.25500000000E-02 0.  1.
          2   -1    0    0  501    0  0.00000000000E+00 -0.00000000000E+00 -0.42959692773E+03  0.42959692774E+03  0.25500000000E-02 0. -1.
    8880023    1    1    2    0    0  0.49816558173E+03 -0.46977728459E+03  0.31559039589E+03  0.10011329323E+04  0.65864270000E+03 0. -1.
    8880022    1    1    2    0    0 -0.49816558173E+03  0.46977728459E+03  0.13305298194E+04  0.15041811385E+04  0.15294330000E+03 0.  0.
<mgrwt>
<rscale>  0 0.88073795E+03</rscale>
<asrwt>0</asrwt>
<pdfrwt beam="1">  1        2 0.66091836E-01 0.95008939E+03</pdfrwt>
<pdfrwt beam="2">  1       -2 0.31934109E+00 0.95008939E+03</pdfrwt>
<totfact> 0.18026708E+00</totfact>
</mgrwt>
</event>
<event>
 4    2  0.3171963E-007  0.6648169E+03  0.7818608E-02  0.1019687E+00
         -2   -1    0    0    0  501 -0.00000000000E+00  0.00000000000E+00  0.16782364228E+04  0.16782364228E+04  0.25500000000E-02 0.  1.
          2   -1    0    0  501    0  0.00000000000E+00 -0.00000000000E+00 -0.20239981537E+03  0.20239981538E+03  0.25500000000E-02 0. -1.
    8880023    1    1    2    0    0  0.89800642993E+02  0.10354307641E+02  0.37044574126E+03  0.76105953818E+03  0.65864270000E+03 0. -1.
    8880022    1    1    2    0    0 -0.89800642993E+02 -0.10354307641E+02  0.11053908661E+04  0.11195767000E+04  0.15294330000E+03 0.  0.
<mgrwt>
<rscale>  0 0.47799558E+03</rscale>
<asrwt>0</asrwt>
<pdfrwt beam="1">  1        2 0.31138433E-01 0.66481695E+03</pdfrwt>
<pdfrwt beam="2">  1       -2 0.25819022E+00 0.66481695E+03</pdfrwt>
<totfact> 0.10135400E+01</totfact>
</mgrwt>
</event>
<event>
 4    2  0.3171963E-007  0.1039767E+04  0.7818608E-02  0.9331285E-01
          2   -1    0    0  501    0  0.00000000000E+00  0.00000000000E+00  0.63019560757E+03  0.63019560758E+03  0.25500000000E-02 0. -1.
         -2   -1    0    0    0  501 -0.00000000000E+00 -0.00000000000E+00 -0.25863853804E+04  0.25863853804E+04  0.25500000000E-02 0.  1.
    8880023    1    1    2    0    0 -0.62168483708E+03  0.51069880831E+03  0.58895503019E+02  0.10414337214E+04  0.65864270000E+03 0. -1.
    8880022    1    1    2    0    0  0.62168483708E+03 -0.51069880831E+03 -0.20150852758E+04  0.21751472666E+04  0.15294330000E+03 0.  0.
<mgrwt>
<rscale>  0 0.97953020E+03</rscale>
<asrwt>0</asrwt>
<pdfrwt beam="1">  1        2 0.96953172E-01 0.10397670E+04</pdfrwt>
<pdfrwt beam="2">  1       -2 0.39790544E+00 0.10397670E+04</pdfrwt>
<totfact> 0.36235239E-01</totfact>
</mgrwt>
</event>
<event>
 4    2  0.3171963E-007  0.8082956E+03  0.7818608E-02  0.9693138E-01
         -2   -1    0    0    0  501 -0.00000000000E+00  0.00000000000E+00  0.12742688968E+04  0.12742688968E+04  0.25500000000E-02 0.  1.
          2   -1    0    0  501    0  0.00000000000E+00 -0.00000000000E+00 -0.42929037840E+03  0.42929037841E+03  0.25500000000E-02 0. -1.
    8880023    1    1    2    0    0  0.17661393703E+03 -0.43398055385E+03  0.10588732724E+03  0.81520177637E+03  0.65864270000E+03 0. -1.
    8880022    1    1    2    0    0 -0.17661393703E+03  0.43398055385E+03  0.73909119112E+03  0.88835749880E+03  0.15294330000E+03 0.  0.
<mgrwt>
<rscale>  0 0.71426819E+03</rscale>
<asrwt>0</asrwt>
<pdfrwt beam="1">  1        2 0.66044674E-01 0.80829562E+03</pdfrwt>
<pdfrwt beam="2">  1       -2 0.19604137E+00 0.80829562E+03</pdfrwt>
<totfact> 0.10495257E+01</totfact>
</mgrwt>
</event>
<event>
 4    2  0.3171963E-007  0.9344320E+03  0.7818608E-02  0.9472876E-01
         -2   -1    0    0    0  501 -0.00000000000E+00  0.00000000000E+00  0.12175599734E+04  0.12175599734E+04  0.25500000000E-02 0.  1.
          2   -1    0    0  501    0  0.00000000000E+00 -0.00000000000E+00 -0.13749550836E+04  0.13749550836E+04  0.25500000000E-02 0. -1.
    8880023    1    1    2    0    0  0.35381557132E+02 -0.66189200846E+03 -0.10915737614E+04  0.14369051354E+04  0.65864270000E+03 0. -1.
    8880022    1    1    2    0    0 -0.35381557132E+02  0.66189200846E+03  0.93417865124E+03  0.11556099216E+04  0.15294330000E+03 0.  0.
<mgrwt>
<rscale>  0 0.86313440E+03</rscale>
<asrwt>0</asrwt>
<pdfrwt beam="1">  1        2 0.21153155E+00 0.93443196E+03</pdfrwt>
<pdfrwt beam="2">  1       -2 0.18731692E+00 0.93443196E+03</pdfrwt>
<totfact> 0.24185009E+00</totfact>
</mgrwt>
</event>
<event>
 4    2  0.3171963E-007  0.1005528E+04  0.7818608E-02  0.9374361E-01
          2   -1    0    0  501    0  0.00000000000E+00  0.00000000000E+00  0.38649347962E+04  0.38649347962E+04  0.25500000000E-02 0. -1.
         -2   -1    0    0    0  501 -0.00000000000E+00 -0.00000000000E+00 -0.21579058969E+03  0.21579058971E+03  0.25500000000E-02 0.  1.
    8880023    1    1    2    0    0  0.65716053760E+03 -0.38133379443E+03  0.25001196080E+04  0.26947511380E+04  0.65864270000E+03 0.  0.
    8880022    1    1    2    0    0 -0.65716053760E+03  0.38133379443E+03  0.11490245985E+04  0.13859742479E+04  0.15294330000E+03 0.  0.
<mgrwt>
<rscale>  0 0.94216010E+03</rscale>
<asrwt>0</asrwt>
<pdfrwt beam="1">  1        2 0.59460536E+00 0.10055275E+04</pdfrwt>
<pdfrwt beam="2">  1       -2 0.33198552E-01 0.10055275E+04</pdfrwt>
<totfact> 0.38881104E+00</totfact>
</mgrwt>
</event>
<event>
 4    2  0.3171963E-007  0.1485561E+04  0.7818608E-02  0.8919900E-01
          2   -1    0    0  501    0  0.00000000000E+00  0.00000000000E+00  0.49140573458E+04  0.49140573458E+04  0.25500000000E-02 0. -1.
         -2   -1    0    0    0  501 -0.00000000000E+00 -0.00000000000E+00 -0.44619753385E+03  0.44619753386E+03  0.25500000000E-02 0.  1.
    8880023    1    1    2    0    0  0.88790894610E+02  0.13286072210E+04  0.31392840144E+04  0.34730383384E+04  0.65864270000E+03 0. -1.
    8880022    1    1    2    0    0 -0.88790894610E+02 -0.13286072210E+04  0.13285757975E+04  0.18872165412E+04  0.15294330000E+03 0.  0.
<mgrwt>
<rscale>  0 0.14478395E+04</rscale>
<asrwt>0</asrwt>
<pdfrwt beam="1">  1        2 0.75600878E+00 0.14855609E+04</pdfrwt>
<pdfrwt beam="2">  1       -2 0.68645778E-01 0.14855609E+04</pdfrwt>
<totfact> 0.85150068E-02</totfact>
</mgrwt>
</event>
<event>
 4    2  0.3171963E-007  0.7302501E+03  0.7818608E-02  0.9889316E-01
          2   -1    0    0  501    0  0.00000000000E+00  0.00000000000E+00  0.16260751455E+04  0.16260751455E+04  0.25500000000E-02 0. -1.
         -2   -1    0    0    0  501 -0.00000000000E+00 -0.00000000000E+00 -0.27430657665E+03  0.27430657666E+03  0.25500000000E-02 0.  1.
    8880023    1    1    2    0    0 -0.10696423140E+03 -0.29667091224E+03  0.13667104564E+04  0.15495685383E+04  0.65864270000E+03 0. -1.
    8880022    1    1    2    0    0  0.10696423140E+03  0.29667091224E+03 -0.14941887525E+02  0.35081318388E+03  0.15294330000E+03 0.  1.
<mgrwt>
<rscale>  0 0.60781878E+03</rscale>
<asrwt>0</asrwt>
<pdfrwt beam="1">  1        2 0.25016541E+00 0.73025008E+03</pdfrwt>
<pdfrwt beam="2">  1       -2 0.42201011E-01 0.73025008E+03</pdfrwt>
<totfact> 0.58823737E+01</totfact>
</mgrwt>
</event>
<event>
 4    2  0.3171963E-007  0.8736838E+03  0.7818608E-02  0.9569671E-01
          2   -1    0    0  501    0  0.00000000000E+00  0.00000000000E+00  0.26090619548E+04  0.26090619548E+04  0.25500000000E-02 0. -1.
         -2   -1    0    0    0  501 -0.00000000000E+00 -0.00000000000E+00 -0.34106292897E+03  0.34106292898E+03  0.25500000000E-02 0.  1.
    8880023    1    1    2    0    0 -0.57248486968E+03  0.42122329999E+02  0.21813117114E+04  0.23497753521E+04  0.65864270000E+03 0.  0.
    8880022    1    1    2    0    0  0.57248486968E+03 -0.42122329999E+02  0.86687314423E+02  0.60034953169E+03  0.15294330000E+03 0.  0.
<mgrwt>
<rscale>  0 0.79336480E+03</rscale>
<asrwt>0</asrwt>
<pdfrwt beam="1">  1        2 0.40139413E+00 0.87368382E+03</pdfrwt>
<pdfrwt beam="2">  1       -2 0.52471222E-01 0.87368382E+03</pdfrwt>
<totfact> 0.10626666E+01</totfact>
</mgrwt>
</event>
<event>
 4    2  0.3171963E-007  0.8772217E+03  0.7818608E-02  0.9563634E-01
         -2   -1    0    0    0  501 -0.00000000000E+00  0.00000000000E+00  0.66866390417E+03  0.66866390417E+03  0.25500000000E-02 0.  1.
          2   -1    0    0  501    0  0.00000000000E+00 -0.00000000000E+00 -0.20571604425E+04  0.20571604425E+04  0.25500000000E-02 0. -1.
    8880023    1    1    2    0    0  0.34012730720E+03 -0.46906414216E+03 -0.17976166253E+04  0.20002358592E+04  0.65864270000E+03 0. -1.
    8880022    1    1    2    0    0 -0.34012730720E+03  0.46906414216E+03  0.40912008698E+03  0.72558848747E+03  0.15294330000E+03 0.  0.
<mgrwt>
<rscale>  0 0.79750584E+03</rscale>
<asrwt>0</asrwt>
<pdfrwt beam="1">  1        2 0.31648622E+00 0.87722173E+03</pdfrwt>
<pdfrwt beam="2">  1       -2 0.10287137E+00 0.87722173E+03</pdfrwt>
<totfact> 0.48770329E+00</totfact>
</mgrwt>
</event>
<event>
 4    2  0.3171963E-007  0.9391747E+03  0.7818608E-02  0.9465863E-01
          2   -1    0    0  501    0  0.00000000000E+00  0.00000000000E+00  0.25040801161E+04  0.25040801161E+04  0.25500000000E-02 0. -1.
         -2   -1    0    0    0  501 -0.00000000000E+00 -0.00000000000E+00 -0.50681275992E+03  0.50681275993E+03  0.25500000000E-02 0.  1.
    8880023    1    1    2    0    0 -0.82692684994E+01 -0.66945541400E+03  0.21149760889E+04  0.23141246715E+04  0.65864270000E+03 0. -1.
    8880022    1    1    2    0    0  0.82692684994E+01  0.66945541400E+03 -0.11770873273E+03  0.69676820457E+03  0.15294330000E+03 0.  0.
<mgrwt>
<rscale>  0 0.86848043E+03</rscale>
<asrwt>0</asrwt>
<pdfrwt beam="1">  1        2 0.38524310E+00 0.93917471E+03</pdfrwt>
<pdfrwt beam="2">  1       -2 0.77971194E-01 0.93917471E+03</pdfrwt>
<totfact> 0.51659076E+00</totfact>
</mgrwt>
</event>
<event>
 4    2  0.3171963E-007  0.1024210E+04  0.7818608E-02  0.9350548E-01
          2   -1    0    0  501    0  0.00000000000E+00  0.00000000000E+00  0.22968059691E+04  0.22968059691E+04  0.25500000000E-02 0. -1.
         -2   -1    0    0    0  501 -0.00000000000E+00 -0.00000000000E+00 -0.40072392992E+03  0.40072392993E+03  0.25500000000E-02 0.  1.
    8880023    1    1    2    0    0  0.11831363638E+02 -0.78425438470E+03  0.14708487363E+04  0.17923172522E+04  0.65864270000E+03 0.  0.
    8880022    1    1    2    0    0 -0.11831363638E+02  0.78425438470E+03  0.42523330282E+03  0.90521264680E+03  0.15294330000E+03 0.  0.
<mgrwt>
<rscale>  0 0.96259605E+03</rscale>
<asrwt>0</asrwt>
<pdfrwt beam="1">  1        2 0.35335476E+00 0.10242095E+04</pdfrwt>
<pdfrwt beam="2">  1       -2 0.61649837E-01 0.10242095E+04</pdfrwt>
<totfact> 0.11188670E+01</totfact>
</mgrwt>
</event>
<event>
 4    2  0.3171963E-007  0.6906401E+03  0.7818608E-02  0.1003850E+00
          2   -1    0    0  501    0  0.00000000000E+00  0.00000000000E+00  0.14387854979E+04  0.14387854979E+04  0.25500000000E-02 0. -1.
         -2   -1    0    0    0  501 -0.00000000000E+00 -0.00000000000E+00 -0.27366622691E+03  0.27366622693E+03  0.25500000000E-02 0.  1.
    8880023    1    1    2    0    0 -0.20160116967E+03 -0.50304825824E+02  0.12605642768E+04  0.14373608139E+04  0.65864270000E+03 0. -1.
    8880022    1    1    2    0    0  0.20160116967E+03  0.50304825824E+02 -0.95445005834E+02  0.27509091092E+03  0.15294330000E+03 0.  0.
<mgrwt>
<rscale>  0 0.53993915E+03</rscale>
<asrwt>0</asrwt>
<pdfrwt beam="1">  1        2 0.22135162E+00 0.69064015E+03</pdfrwt>
<pdfrwt beam="2">  1       -2 0.42102496E-01 0.69064015E+03</pdfrwt>
<totfact> 0.75362186E+01</totfact>
</mgrwt>
</event>
<event>
 4    2  0.3171963E-007  0.6741998E+03  0.7818608E-02  0.1012815E+00
         -2   -1    0    0    0  501 -0.00000000000E+00  0.00000000000E+00  0.18799207087E+03  0.18799207089E+03  0.25500000000E-02 0.  1.
          2   -1    0    0  501    0  0.00000000000E+00 -0.00000000000E+00 -0.18048645952E+04  0.18048645952E+04  0.25500000000E-02 0. -1.
    8880023    1    1    2    0    0 -0.10190224738E+03  0.10174025461E+03 -0.16479286994E+04  0.17805095765E+04  0.65864270000E+03 0.  0.
    8880022    1    1    2    0    0  0.10190224738E+03 -0.10174025461E+03  0.31056175087E+02  0.21234708958E+03  0.15294330000E+03 0.  0.
<mgrwt>
<rscale>  0 0.50370848E+03</rscale>
<asrwt>0</asrwt>
<pdfrwt beam="1">  1        2 0.27767146E+00 0.67419979E+03</pdfrwt>
<pdfrwt beam="2">  1       -2 0.28921858E-01 0.67419979E+03</pdfrwt>
<totfact> 0.97032158E+01</totfact>
</mgrwt>
</event>
<event>
 4    2  0.3171963E-007  0.6669142E+03  0.7818608E-02  0.1017979E+00
         -2   -1    0    0    0  501 -0.00000000000E+00  0.00000000000E+00  0.21021226365E+03  0.21021226367E+03  0.25500000000E-02 0.  1.
          2   -1    0    0  501    0  0.00000000000E+00 -0.00000000000E+00 -0.13527143924E+04  0.13527143924E+04  0.25500000000E-02 0. -1.
    8880023    1    1    2    0    0  0.10301689071E+03  0.18758058479E+02 -0.11965476838E+04  0.13698543391E+04  0.65864270000E+03 0. -1.
    8880022    1    1    2    0    0 -0.10301689071E+03 -0.18758058479E+02  0.54045555065E+02  0.19307231694E+03  0.15294330000E+03 0.  0.
<mgrwt>
<rscale>  0 0.48423123E+03</rscale>
<asrwt>0</asrwt>
<pdfrwt beam="1">  1        2 0.20810990E+00 0.66691420E+03</pdfrwt>
<pdfrwt beam="2">  1       -2 0.32340349E-01 0.66691420E+03</pdfrwt>
<totfact> 0.14015167E+02</totfact>
</mgrwt>
</event>
<event>
 4    2  0.3171963E-007  0.6619521E+03  0.7818608E-02  0.1022240E+00
          2   -1    0    0  501    0  0.00000000000E+00  0.00000000000E+00  0.15198011413E+04  0.15198011413E+04  0.25500000000E-02 0. -1.
         -2   -1    0    0    0  501 -0.00000000000E+00 -0.00000000000E+00 -0.16069959603E+03  0.16069959605E+03  0.25500000000E-02 0.  1.
    8880023    1    1    2    0    0  0.52323859819E+02 -0.40405087171E+02  0.13614717143E+04  0.15138645225E+04  0.65864270000E+03 0. -1.
    8880022    1    1    2    0    0 -0.52323859819E+02  0.40405087171E+02 -0.23701690662E+01  0.16663621483E+03  0.15294330000E+03 0.  0.
<mgrwt>
<rscale>  0 0.46886874E+03</rscale>
<asrwt>0</asrwt>
<pdfrwt beam="1">  1        2 0.23381556E+00 0.66195209E+03</pdfrwt>
<pdfrwt beam="2">  1       -2 0.24723015E-01 0.66195209E+03</pdfrwt>
<totfact> 0.18506801E+02</totfact>
</mgrwt>
</event>
<event>
 4    2  0.3171963E-007  0.7070172E+03  0.7818608E-02  0.9969249E-01
         -2   -1    0    0    0  501 -0.00000000000E+00  0.00000000000E+00  0.56151800603E+03  0.56151800604E+03  0.25500000000E-02 0.  1.
          2   -1    0    0  501    0  0.00000000000E+00 -0.00000000000E+00 -0.12386405593E+04  0.12386405593E+04  0.25500000000E-02 0. -1.
    8880023    1    1    2    0    0  0.24685449853E+03 -0.71596027027E+02 -0.10846015471E+04  0.12946945033E+04  0.65864270000E+03 0.  0.
    8880022    1    1    2    0    0 -0.24685449853E+03  0.71596027027E+02  0.40747899389E+03  0.50546406203E+03  0.15294330000E+03 0.  0.
<mgrwt>
<rscale>  0 0.57019439E+03</rscale>
<asrwt>0</asrwt>
<pdfrwt beam="1">  1        2 0.19056009E+00 0.70701721E+03</pdfrwt>
<pdfrwt beam="2">  1       -2 0.86387386E-01 0.70701721E+03</pdfrwt>
<totfact> 0.21373443E+01</totfact>
</mgrwt>
</event>
<event>
 4    2  0.3171963E-007  0.1216936E+04  0.7818608E-02  0.9140833E-01
         -2   -1    0    0    0  501 -0.00000000000E+00  0.00000000000E+00  0.15906529320E+04  0.15906529320E+04  0.25500000000E-02 0.  1.
          2   -1    0    0  501    0  0.00000000000E+00 -0.00000000000E+00 -0.12902866385E+04  0.12902866385E+04  0.25500000000E-02 0. -1.
    8880023    1    1    2    0    0  0.19711777844E+02  0.10231005785E+04  0.10467328616E+04  0.16051738965E+04  0.65864270000E+03 0.  0.
    8880022    1    1    2    0    0 -0.19711777844E+02 -0.10231005785E+04 -0.74636656818E+03  0.12757656740E+04  0.15294330000E+03 0.  0.
<mgrwt>
<rscale>  0 0.11685571E+04</rscale>
<asrwt>0</asrwt>
<pdfrwt beam="1">  1        2 0.19850564E+00 0.12169361E+04</pdfrwt>
<pdfrwt beam="2">  1       -2 0.24471583E+00 0.12169361E+04</pdfrwt>
<totfact> 0.11253853E+00</totfact>
</mgrwt>
</event>
<event>
 4    2  0.3171963E-007  0.7475043E+03  0.7818608E-02  0.9838603E-01
          2   -1    0    0  501    0  0.00000000000E+00  0.00000000000E+00  0.84893645161E+03  0.84893645162E+03  0.25500000000E-02 0. -1.
         -2   -1    0    0    0  501 -0.00000000000E+00 -0.00000000000E+00 -0.47366317742E+03  0.47366317743E+03  0.25500000000E-02 0.  1.
    8880023    1    1    2    0    0  0.66978657300E+02 -0.34708261606E+03  0.52061417439E+03  0.91093457929E+03  0.65864270000E+03 0.  0.
    8880022    1    1    2    0    0 -0.66978657300E+02  0.34708261606E+03 -0.14534090020E+03  0.41166504975E+03  0.15294330000E+03 0.  0.
<mgrwt>
<rscale>  0 0.63331398E+03</rscale>
<asrwt>0</asrwt>
<pdfrwt beam="1">  1        2 0.13060561E+00 0.74750431E+03</pdfrwt>
<pdfrwt beam="2">  1       -2 0.72871259E-01 0.74750431E+03</pdfrwt>
<totfact> 0.54871798E+01</totfact>
</mgrwt>
</event>
<event>
 4    2  0.3171963E-007  0.7778003E+03  0.7818608E-02  0.9761030E-01
         -2   -1    0    0    0  501 -0.00000000000E+00  0.00000000000E+00  0.85394520481E+03  0.85394520481E+03  0.25500000000E-02 0.  1.
          2   -1    0    0  501    0  0.00000000000E+00 -0.00000000000E+00 -0.15360515308E+04  0.15360515308E+04  0.25500000000E-02 0. -1.
    8880023    1    1    2    0    0  0.41281436940E+03 -0.27338624671E+02 -0.13685034169E+04  0.15740949503E+04  0.65864270000E+03 0. -1.
    8880022    1    1    2    0    0 -0.41281436940E+03  0.27338624671E+02  0.68639709092E+03  0.81590178540E+03  0.15294330000E+03 0.  0.
<mgrwt>
<rscale>  0 0.67496509E+03</rscale>
<asrwt>0</asrwt>
<pdfrwt beam="1">  1        2 0.23631562E+00 0.77780030E+03</pdfrwt>
<pdfrwt beam="2">  1       -2 0.13137619E+00 0.77780030E+03</pdfrwt>
<totfact> 0.52349201E+00</totfact>
</mgrwt>
</event>
<event>
 4    2  0.3171963E-007  0.1180161E+04  0.7818608E-02  0.9176653E-01
         -2   -1    0    0    0  501 -0.00000000000E+00  0.00000000000E+00  0.17823929019E+04  0.17823929019E+04  0.25500000000E-02 0.  1.
          2   -1    0    0  501    0  0.00000000000E+00 -0.00000000000E+00 -0.10552941601E+04  0.10552941601E+04  0.25500000000E-02 0. -1.
    8880023    1    1    2    0    0 -0.47630506533E+03 -0.85563039112E+03 -0.48154103258E+03  0.12746222396E+04  0.65864270000E+03 0.  0.
    8880022    1    1    2    0    0  0.47630506533E+03  0.85563039112E+03  0.12086397744E+04  0.15630648223E+04  0.15294330000E+03 0.  0.
<mgrwt>
<rscale>  0 0.11297696E+04</rscale>
<asrwt>0</asrwt>
<pdfrwt beam="1">  1        2 0.16235295E+00 0.11801610E+04</pdfrwt>
<pdfrwt beam="2">  1       -2 0.27421429E+00 0.11801610E+04</pdfrwt>
<totfact> 0.10373910E+00</totfact>
</mgrwt>
</event>
<event>
 4    2  0.3171963E-007  0.8886967E+03  0.7818608E-02  0.9544426E-01
         -2   -1    0    0    0  501 -0.00000000000E+00  0.00000000000E+00  0.15063860927E+04  0.15063860927E+04  0.25500000000E-02 0.  1.
          2   -1    0    0  501    0  0.00000000000E+00 -0.00000000000E+00 -0.45728147976E+03  0.45728147976E+03  0.25500000000E-02 0. -1.
    8880023    1    1    2    0    0  0.33264387097E+03  0.49529761553E+03  0.19365255298E+03  0.90955109278E+03  0.65864270000E+03 0.  0.
    8880022    1    1    2    0    0 -0.33264387097E+03 -0.49529761553E+03  0.85545205996E+03  0.10541164797E+04  0.15294330000E+03 0.  0.
<mgrwt>
<rscale>  0 0.81086229E+03</rscale>
<asrwt>0</asrwt>
<pdfrwt beam="1">  1        2 0.70350998E-01 0.88869673E+03</pdfrwt>
<pdfrwt beam="2">  1       -2 0.23175170E+00 0.88869673E+03</pdfrwt>
<totfact> 0.57445805E+00</totfact>
</mgrwt>
</event>
<event>
 4    2  0.3171963E-007  0.7330132E+03  0.7818608E-02  0.9880787E-01
         -2   -1    0    0    0  501 -0.00000000000E+00  0.00000000000E+00  0.79025668001E+03  0.79025668001E+03  0.25500000000E-02 0.  1.
          2   -1    0    0  501    0  0.00000000000E+00 -0.00000000000E+00 -0.80797179188E+03  0.80797179188E+03  0.25500000000E-02 0. -1.
    8880023    1    1    2    0    0  0.66366915090E+02  0.31479121717E+03 -0.57855359922E+03  0.93382683152E+03  0.65864270000E+03 0.  0.
    8880022    1    1    2    0    0 -0.66366915090E+02 -0.31479121717E+03  0.56083848735E+03  0.66440164038E+03  0.15294330000E+03 0.  0.
<mgrwt>
<rscale>  0 0.61201510E+03</rscale>
<asrwt>0</asrwt>
<pdfrwt beam="1">  1        2 0.12430335E+00 0.73301315E+03</pdfrwt>
<pdfrwt beam="2">  1       -2 0.12157795E+00 0.73301315E+03</pdfrwt>
<totfact> 0.17761289E+01</totfact>
</mgrwt>
</event>
<event>
 4    2  0.3171963E-007  0.7907429E+03  0.7818608E-02  0.9731181E-01
         -2   -1    0    0    0  501 -0.00000000000E+00  0.00000000000E+00  0.28641662362E+03  0.28641662363E+03  0.25500000000E-02 0.  1.
          2   -1    0    0  501    0  0.00000000000E+00 -0.00000000000E+00 -0.23045786647E+04  0.23045786647E+04  0.25500000000E-02 0. -1.
    8880023    1    1    2    0    0  0.26586447317E+03  0.34753455852E+03 -0.19726574510E+04  0.21252415893E+04  0.65864270000E+03 0.  0.
    8880022    1    1    2    0    0 -0.26586447317E+03 -0.34753455852E+03 -0.45504590072E+02  0.46575369906E+03  0.15294330000E+03 0.  0.
<mgrwt>
<rscale>  0 0.69190248E+03</rscale>
<asrwt>0</asrwt>
<pdfrwt beam="1">  1        2 0.35455055E+00 0.79074294E+03</pdfrwt>
<pdfrwt beam="2">  1       -2 0.44064097E-01 0.79074294E+03</pdfrwt>
<totfact> 0.22768954E+01</totfact>
</mgrwt>
</event>
<event>
 4    2  0.3171963E-007  0.1085363E+04  0.7818608E-02  0.9277531E-01
          2   -1    0    0  501    0  0.00000000000E+00  0.00000000000E+00  0.34525479559E+04  0.34525479559E+04  0.25500000000E-02 0. -1.
         -2   -1    0    0    0  501 -0.00000000000E+00 -0.00000000000E+00 -0.51998294364E+03  0.51998294364E+03  0.25500000000E-02 0.  1.
    8880023    1    1    2    0    0 -0.25379301236E+03  0.82449439210E+03  0.28992771865E+04  0.30957745890E+04  0.65864270000E+03 0. -1.
    8880022    1    1    2    0    0  0.25379301236E+03 -0.82449439210E+03  0.33287825814E+02  0.87675631056E+03  0.15294330000E+03 0.  0.
<mgrwt>
<rscale>  0 0.10287801E+04</rscale>
<asrwt>0</asrwt>
<pdfrwt beam="1">  1        2 0.53116124E+00 0.10853627E+04</pdfrwt>
<pdfrwt beam="2">  1       -2 0.79997374E-01 0.10853627E+04</pdfrwt>
<totfact> 0.12363324E+00</totfact>
</mgrwt>
</event>
<event>
 4    2  0.3171963E-007  0.6742562E+03  0.7818608E-02  0.1012779E+00
          2   -1    0    0  501    0  0.00000000000E+00  0.00000000000E+00  0.35540041323E+04  0.35540041323E+04  0.25500000000E-02 0. -1.
         -2   -1    0    0    0  501 -0.00000000000E+00 -0.00000000000E+00 -0.58938514788E+02  0.58938514843E+02  0.25500000000E-02 0.  1.
    8880023    1    1    2    0    0  0.20074964360E+02 -0.14285723490E+03  0.22026632979E+04  0.23035509553E+04  0.65864270000E+03 0.  1.
    8880022    1    1    2    0    0 -0.20074964360E+02  0.14285723490E+03  0.12924023196E+04  0.13093916918E+04  0.15294330000E+03 0. -1.
<mgrwt>
<rscale>  0 0.50384852E+03</rscale>
<asrwt>0</asrwt>
<pdfrwt beam="1">  1        2 0.54676977E+00 0.67425618E+03</pdfrwt>
<pdfrwt beam="2">  1       -2 0.90674655E-02 0.67425618E+03</pdfrwt>
<totfact> 0.65384189E+01</totfact>
</mgrwt>
</event>
<event>
 4    2  0.3171963E-007  0.1312574E+04  0.7818608E-02  0.9054777E-01
         -2   -1    0    0    0  501 -0.00000000000E+00  0.00000000000E+00  0.77722069128E+03  0.77722069128E+03  0.25500000000E-02 0.  1.
          2   -1    0    0  501    0  0.00000000000E+00 -0.00000000000E+00 -0.34550273840E+04  0.34550273840E+04  0.25500000000E-02 0. -1.
    8880023    1    1    2    0    0 -0.63635480296E+03  0.94026193118E+03  0.76977523204E+01  0.13125964331E+04  0.65864270000E+03 0.  1.
    8880022    1    1    2    0    0  0.63635480296E+03 -0.94026193118E+03 -0.26855044451E+04  0.29196516422E+04  0.15294330000E+03 0.  0.
<mgrwt>
<rscale>  0 0.12686809E+04</rscale>
<asrwt>0</asrwt>
<pdfrwt beam="1">  1        2 0.53154267E+00 0.13125739E+04</pdfrwt>
<pdfrwt beam="2">  1       -2 0.11957242E+00 0.13125739E+04</pdfrwt>
<totfact> 0.45912995E-01</totfact>
</mgrwt>
</event>
<event>
 4    2  0.3171963E-007  0.6967052E+03  0.7818608E-02  0.1001115E+00
         -2   -1    0    0    0  501 -0.00000000000E+00  0.00000000000E+00  0.80949198201E+03  0.80949198201E+03  0.25500000000E-02 0.  1.
          2   -1    0    0  501    0  0.00000000000E+00 -0.00000000000E+00 -0.76453807842E+03  0.76453807842E+03  0.25500000000E-02 0. -1.
    8880023    1    1    2    0    0  0.16669339062E+03  0.15427666281E+03 -0.57045365661E+03  0.90045297255E+03  0.65864270000E+03 0. -1.
    8880022    1    1    2    0    0 -0.16669339062E+03 -0.15427666281E+03  0.61540756020E+03  0.67357708789E+03  0.15294330000E+03 0.  0.
<mgrwt>
<rscale>  0 0.55163869E+03</rscale>
<asrwt>0</asrwt>
<pdfrwt beam="1">  1        2 0.11762124E+00 0.69670523E+03</pdfrwt>
<pdfrwt beam="2">  1       -2 0.12453723E+00 0.69670523E+03</pdfrwt>
<totfact> 0.18054393E+01</totfact>
</mgrwt>
</event>
<event>
 4    2  0.3171963E-007  0.6586666E+03  0.7818608E-02  0.1025566E+00
          2   -1    0    0  501    0  0.00000000000E+00  0.00000000000E+00  0.15203719486E+04  0.15203719486E+04  0.25500000000E-02 0. -1.
         -2   -1    0    0    0  501 -0.00000000000E+00 -0.00000000000E+00 -0.60040610580E+03  0.60040610580E+03  0.25500000000E-02 0.  1.
    8880023    1    1    2    0    0  0.16270703293E+01  0.53674754617E+01  0.14374311412E+04  0.15811546253E+04  0.65864270000E+03 0. -1.
    8880022    1    1    2    0    0 -0.16270703293E+01 -0.53674754617E+01 -0.51746529841E+03  0.53962342909E+03  0.15294330000E+03 0.  0.
<mgrwt>
<rscale>  0 0.45730378E+03</rscale>
<asrwt>0</asrwt>
<pdfrwt beam="1">  1        2 0.23390337E+00 0.65866658E+03</pdfrwt>
<pdfrwt beam="2">  1       -2 0.92370171E-01 0.65866658E+03</pdfrwt>
<totfact> 0.12769857E+01</totfact>
</mgrwt>
</event>
<event>
 4    2  0.3171963E-007  0.6657838E+03  0.7818608E-02  0.1018885E+00
          2   -1    0    0  501    0  0.00000000000E+00  0.00000000000E+00  0.11527267868E+03  0.11527267871E+03  0.25500000000E-02 0. -1.
         -2   -1    0    0    0  501 -0.00000000000E+00 -0.00000000000E+00 -0.20215929856E+04  0.20215929856E+04  0.25500000000E-02 0.  1.
    8880023    1    1    2    0    0 -0.70981582144E+02  0.66479340743E+02 -0.92933633655E+03  0.11432121940E+04  0.65864270000E+03 0. -1.
    8880022    1    1    2    0    0  0.70981582144E+02 -0.66479340743E+02 -0.97698397036E+03  0.99365347033E+03  0.15294330000E+03 0.  0.
<mgrwt>
<rscale>  0 0.48091253E+03</rscale>
<asrwt>0</asrwt>
<pdfrwt beam="1">  1        2 0.17734260E-01 0.66578382E+03</pdfrwt>
<pdfrwt beam="2">  1       -2 0.31101428E+00 0.66578382E+03</pdfrwt>
<totfact> 0.93787636E+00</totfact>
</mgrwt>
</event>
<event>
 4    2  0.3171963E-007  0.8822783E+03  0.7818608E-02  0.9555101E-01
         -2   -1    0    0    0  501 -0.00000000000E+00  0.00000000000E+00  0.10885168878E+04  0.10885168878E+04  0.25500000000E-02 0.  1.
          2   -1    0    0  501    0  0.00000000000E+00 -0.00000000000E+00 -0.77826184659E+03  0.77826184660E+03  0.25500000000E-02 0. -1.
    8880023    1    1    2    0    0 -0.13385372243E+03  0.57156623635E+03 -0.36876928445E+03  0.95624566559E+03  0.65864270000E+03 0.  0.
    8880022    1    1    2    0    0  0.13385372243E+03 -0.57156623635E+03  0.67902432566E+03  0.91053306881E+03  0.15294330000E+03 0.  0.
<mgrwt>
<rscale>  0 0.80340522E+03</rscale>
<asrwt>0</asrwt>
<pdfrwt beam="1">  1        2 0.11973259E+00 0.88227829E+03</pdfrwt>
<pdfrwt beam="2">  1       -2 0.16746414E+00 0.88227829E+03</pdfrwt>
<totfact> 0.79629802E+00</totfact>
</mgrwt>
</event>
<event>
 4    2  0.3171963E-007  0.8069210E+03  0.7818608E-02  0.9696026E-01
          2   -1    0    0  501    0  0.00000000000E+00  0.00000000000E+00  0.11572274617E+04  0.11572274617E+04  0.25500000000E-02 0. -1.
         -2   -1    0    0    0  501 -0.00000000000E+00 -0.00000000000E+00 -0.44326005107E+03  0.44326005108E+03  0.25500000000E-02 0.  1.
    8880023    1    1    2    0    0  0.46359448283E+03 -0.48902483794E+02  0.75902385685E+03  0.11078080696E+04  0.65864270000E+03 0. -1.
    8880022    1    1    2    0    0 -0.46359448283E+03  0.48902483794E+02 -0.45056446207E+02  0.49267944324E+03  0.15294330000E+03 0. -1.
<mgrwt>
<rscale>  0 0.71253867E+03</rscale>
<asrwt>0</asrwt>
<pdfrwt beam="1">  1        2 0.17803499E+00 0.80692100E+03</pdfrwt>
<pdfrwt beam="2">  1       -2 0.68193855E-01 0.80692100E+03</pdfrwt>
<totfact> 0.40037884E+01</totfact>
</mgrwt>
</event>
<event>
 4    2  0.3171963E-007  0.8889703E+03  0.7818608E-02  0.9543975E-01
         -2   -1    0    0    0  501 -0.00000000000E+00  0.00000000000E+00  0.68410485528E+03  0.68410485529E+03  0.25500000000E-02 0.  1.
          2   -1    0    0  501    0  0.00000000000E+00 -0.00000000000E+00 -0.10598533214E+04  0.10598533214E+04  0.25500000000E-02 0. -1.
    8880023    1    1    2    0    0 -0.56025259191E+03 -0.20633721291E+03 -0.61699514858E+03  0.10821050004E+04  0.65864270000E+03 0.  0.
    8880022    1    1    2    0    0  0.56025259191E+03  0.20633721291E+03  0.24124668248E+03  0.66185317632E+03  0.15294330000E+03 0.  0.
<mgrwt>
<rscale>  0 0.81117940E+03</rscale>
<asrwt>0</asrwt>
<pdfrwt beam="1">  1        2 0.16305436E+00 0.88897031E+03</pdfrwt>
<pdfrwt beam="2">  1       -2 0.10524690E+00 0.88897031E+03</pdfrwt>
<totfact> 0.16922711E+01</totfact>
</mgrwt>
</event>
<event>
 4    2  0.3171963E-007  0.6699443E+03  0.7818608E-02  0.1015703E+00
          2   -1    0    0  501    0  0.00000000000E+00  0.00000000000E+00  0.77316903616E+03  0.77316903617E+03  0.25500000000E-02 0. -1.
         -2   -1    0    0    0  501 -0.00000000000E+00 -0.00000000000E+00 -0.24333759908E+03  0.24333759909E+03  0.25500000000E-02 0.  1.
    8880023    1    1    2    0    0  0.12221314078E+03  0.88924813542E+01  0.43510247891E+03  0.79883634208E+03  0.65864270000E+03 0. -1.
    8880022    1    1    2    0    0 -0.12221314078E+03 -0.88924813542E+01  0.94728958171E+02  0.21767029318E+03  0.15294330000E+03 0.  1.
<mgrwt>
<rscale>  0 0.49269709E+03</rscale>
<asrwt>0</asrwt>
<pdfrwt beam="1">  1        2 0.11894908E+00 0.66994428E+03</pdfrwt>
<pdfrwt beam="2">  1       -2 0.37436554E-01 0.66994428E+03</pdfrwt>
<totfact> 0.24550887E+02</totfact>
</mgrwt>
</event>
<event>
 4    2  0.3171963E-007  0.1286096E+04  0.7818608E-02  0.9077661E-01
         -2   -1    0    0    0  501 -0.00000000000E+00  0.00000000000E+00  0.44629503083E+03  0.44629503084E+03  0.25500000000E-02 0.  1.
          2   -1    0    0  501    0  0.00000000000E+00 -0.00000000000E+00 -0.43569322759E+04  0.43569322759E+04  0.25500000000E-02 0. -1.
    8880023    1    1    2    0    0  0.89360631408E+03  0.64938479077E+03 -0.32776127664E+04  0.35209073410E+04  0.65864270000E+03 0. -1.
    8880022    1    1    2    0    0 -0.89360631408E+03 -0.64938479077E+03 -0.63302447873E+03  0.12823199658E+04  0.15294330000E+03 0.  0.
<mgrwt>
<rscale>  0 0.12410555E+04</rscale>
<asrwt>0</asrwt>
<pdfrwt beam="1">  1        2 0.67029725E+00 0.12860961E+04</pdfrwt>
<pdfrwt beam="2">  1       -2 0.68660777E-01 0.12860961E+04</pdfrwt>
<totfact> 0.33130872E-01</totfact>
</mgrwt>
</event>
<event>
 4    2  0.3171963E-007  0.1286145E+04  0.7818608E-02  0.9077618E-01
         -2   -1    0    0    0  501 -0.00000000000E+00  0.00000000000E+00  0.55329264198E+03  0.55329264199E+03  0.25500000000E-02 0.  1.
          2   -1    0    0  501    0  0.00000000000E+00 -0.00000000000E+00 -0.27945202911E+04  0.27945202911E+04  0.25500000000E-02 0. -1.
    8880023    1    1    2    0    0  0.11023511376E+04 -0.71981805922E+02 -0.76077539669E+03  0.14943054646E+04  0.65864270000E+03 0.  0.
    8880022    1    1    2    0    0 -0.11023511376E+04  0.71981805922E+02 -0.14804522525E+04  0.18535074685E+04  0.15294330000E+03 0.  0.
<mgrwt>
<rscale>  0 0.12411069E+04</rscale>
<asrwt>0</asrwt>
<pdfrwt beam="1">  1        2 0.42992619E+00 0.12861453E+04</pdfrwt>
<pdfrwt beam="2">  1       -2 0.85121946E-01 0.12861453E+04</pdfrwt>
<totfact> 0.27412973E+00</totfact>
</mgrwt>
</event>
<event>
 4    2  0.3171963E-007  0.9074575E+03  0.7818608E-02  0.9514164E-01
          2   -1    0    0  501    0  0.00000000000E+00  0.00000000000E+00  0.24194155828E+04  0.24194155828E+04  0.25500000000E-02 0. -1.
         -2   -1    0    0    0  501 -0.00000000000E+00 -0.00000000000E+00 -0.36952994771E+03  0.36952994772E+03  0.25500000000E-02 0.  1.
    8880023    1    1    2    0    0  0.61745900703E+03 -0.91723989120E+02  0.19334088862E+04  0.21357783225E+04  0.65864270000E+03 0. -1.
    8880022    1    1    2    0    0 -0.61745900703E+03  0.91723989120E+02  0.11647674890E+03  0.65316720799E+03  0.15294330000E+03 0.  0.
<mgrwt>
<rscale>  0 0.83247546E+03</rscale>
<asrwt>0</asrwt>
<pdfrwt beam="1">  1        2 0.37221779E+00 0.90745750E+03</pdfrwt>
<pdfrwt beam="2">  1       -2 0.56850759E-01 0.90745750E+03</pdfrwt>
<totfact> 0.11491366E+01</totfact>
</mgrwt>
</event>
<event>
 4    2  0.3171963E-007  0.1236382E+04  0.7818608E-02  0.9122543E-01
          2   -1    0    0  501    0  0.00000000000E+00  0.00000000000E+00  0.15049146629E+04  0.15049146629E+04  0.25500000000E-02 0. -1.
         -2   -1    0    0    0  501 -0.00000000000E+00 -0.00000000000E+00 -0.96463024998E+03  0.96463024998E+03  0.25500000000E-02 0.  1.
    8880023    1    1    2    0    0  0.55841832954E+03  0.88487213157E+03  0.66648850218E+03  0.14045806669E+04  0.65864270000E+03 0. -1.
    8880022    1    1    2    0    0 -0.55841832954E+03 -0.88487213157E+03 -0.12620408929E+03  0.10649642460E+04  0.15294330000E+03 0.  0.
<mgrwt>
<rscale>  0 0.11889961E+04</rscale>
<asrwt>0</asrwt>
<pdfrwt beam="1">  1        2 0.23152533E+00 0.12363818E+04</pdfrwt>
<pdfrwt beam="2">  1       -2 0.14840465E+00 0.12363818E+04</pdfrwt>
<totfact> 0.37664497E+00</totfact>
</mgrwt>
</event>
<event>
 4    2  0.3171963E-007  0.7047377E+03  0.7818608E-02  0.9978087E-01
         -2   -1    0    0    0  501 -0.00000000000E+00  0.00000000000E+00  0.17236970966E+03  0.17236970968E+03  0.25500000000E-02 0.  1.
          2   -1    0    0  501    0  0.00000000000E+00 -0.00000000000E+00 -0.27454383679E+04  0.27454383679E+04  0.25500000000E-02 0. -1.
    8880023    1    1    2    0    0  0.24757196861E+03  0.39409850763E+02 -0.25234177598E+04  0.26199794680E+04  0.65864270000E+03 0. -1.
    8880022    1    1    2    0    0 -0.24757196861E+03 -0.39409850763E+02 -0.49650898489E+02  0.29782860963E+03  0.15294330000E+03 0.  0.
<mgrwt>
<rscale>  0 0.56621598E+03</rscale>
<asrwt>0</asrwt>
<pdfrwt beam="1">  1        2 0.42237510E+00 0.70473770E+03</pdfrwt>
<pdfrwt beam="2">  1       -2 0.26518419E-01 0.70473770E+03</pdfrwt>
<totfact> 0.33928219E+01</totfact>
</mgrwt>
</event>
<event>
 4    2  0.3171963E-007  0.7229157E+03  0.7818608E-02  0.9912841E-01
         -2   -1    0    0    0  501 -0.00000000000E+00  0.00000000000E+00  0.40916724417E+03  0.40916724418E+03  0.25500000000E-02 0.  1.
          2   -1    0    0  501    0  0.00000000000E+00 -0.00000000000E+00 -0.12385515496E+04  0.12385515496E+04  0.25500000000E-02 0. -1.
    8880023    1    1    2    0    0 -0.21559727565E+03  0.20570546899E+03 -0.10291846955E+04  0.12577075451E+04  0.65864270000E+03 0.  0.
    8880022    1    1    2    0    0  0.21559727565E+03 -0.20570546899E+03  0.19980039006E+03  0.39001124871E+03  0.15294330000E+03 0.  0.
<mgrwt>
<rscale>  0 0.59642979E+03</rscale>
<asrwt>0</asrwt>
<pdfrwt beam="1">  1        2 0.19054639E+00 0.72291572E+03</pdfrwt>
<pdfrwt beam="2">  1       -2 0.62948807E-01 0.72291572E+03</pdfrwt>
<totfact> 0.42911191E+01</totfact>
</mgrwt>
</event>
<event>
 4    2  0.3171963E-007  0.8211904E+03  0.7818608E-02  0.9666723E-01
          2   -1    0    0  501    0  0.00000000000E+00  0.00000000000E+00  0.10355130606E+04  0.10355130606E+04  0.25500000000E-02 0. -1.
         -2   -1    0    0    0  501 -0.00000000000E+00 -0.00000000000E+00 -0.61480563235E+03  0.61480563235E+03  0.25500000000E-02 0.  1.
    8880023    1    1    2    0    0  0.48685043351E+03  0.59330952648E+02  0.68790188393E+03  0.10712435366E+04  0.65864270000E+03 0.  0.
    8880022    1    1    2    0    0 -0.48685043351E+03 -0.59330952648E+02 -0.26719445566E+03  0.57907515635E+03  0.15294330000E+03 0.  0.
<mgrwt>
<rscale>  0 0.73033155E+03</rscale>
<asrwt>0</asrwt>
<pdfrwt beam="1">  1        2 0.15930970E+00 0.82119042E+03</pdfrwt>
<pdfrwt beam="2">  1       -2 0.94585484E-01 0.82119042E+03</pdfrwt>
<totfact> 0.22728804E+01</totfact>
</mgrwt>
</event>
<event>
 4    2  0.3865847E-007  0.7580681E+03  0.7818608E-02  0.9810135E-01
          2   -1    0    0  501    0  0.00000000000E+00  0.00000000000E+00  0.19650278113E+04  0.19650278113E+04  0.25500000000E-02 0. -1.
         -2   -1    0    0    0  501 -0.00000000000E+00 -0.00000000000E+00 -0.11320342202E+04  0.11320342202E+04  0.25500000000E-02 0.  1.
    8880023    1    1    2    0    0  0.37453868642E+03  0.24039234290E+02  0.18516106604E+04  0.20007821862E+04  0.65864270000E+03 0. -1.
    8880022    1    1    2    0    0 -0.37453868642E+03 -0.24039234290E+02 -0.10186170693E+04  0.10962798453E+04  0.15294330000E+03 0.  0.
<mgrwt>
<rscale>  0 0.64821481E+03</rscale>
<asrwt>0</asrwt>
<pdfrwt beam="1">  1        2 0.30231197E+00 0.75806815E+03</pdfrwt>
<pdfrwt beam="2">  1       -2 0.17415911E+00 0.75806815E+03</pdfrwt>
<totfact> 0.14442278E+00</totfact>
</mgrwt>
</event>
<event>
 4    2  0.3171963E-007  0.8270470E+03  0.7818608E-02  0.9655106E-01
          2   -1    0    0  501    0  0.00000000000E+00  0.00000000000E+00  0.61161590699E+03  0.61161590700E+03  0.25500000000E-02 0. -1.
         -2   -1    0    0    0  501 -0.00000000000E+00 -0.00000000000E+00 -0.12079777155E+04  0.12079777155E+04  0.25500000000E-02 0.  1.
    8880023    1    1    2    0    0  0.27165452767E+03 -0.42000044075E+03  0.21473434169E+03  0.85446918985E+03  0.65864270000E+03 0.  0.
    8880022    1    1    2    0    0 -0.27165452767E+03  0.42000044075E+03 -0.81109615021E+03  0.96512443267E+03  0.15294330000E+03 0.  0.
<mgrwt>
<rscale>  0 0.73753871E+03</rscale>
<asrwt>0</asrwt>
<pdfrwt beam="1">  1        2 0.94094755E-01 0.82704701E+03</pdfrwt>
<pdfrwt beam="2">  1       -2 0.18584273E+00 0.82704701E+03</pdfrwt>
<totfact> 0.80901080E+00</totfact>
</mgrwt>
</event>
<event>
 4    2  0.3171963E-007  0.6647649E+03  0.7818608E-02  0.1019731E+00
         -2   -1    0    0    0  501 -0.00000000000E+00  0.00000000000E+00  0.18419943803E+03  0.18419943804E+03  0.25500000000E-02 0.  1.
          2   -1    0    0  501    0  0.00000000000E+00 -0.00000000000E+00 -0.30206644847E+04  0.30206644847E+04  0.25500000000E-02 0. -1.
    8880023    1    1    2    0    0  0.26043399990E+02  0.86162358588E+02 -0.29298562298E+04  0.30043252062E+04  0.65864270000E+03 0. -1.
    8880022    1    1    2    0    0 -0.26043399990E+02 -0.86162358588E+02  0.93391183184E+02  0.20053871654E+03  0.15294330000E+03 0.  0.
<mgrwt>
<rscale>  0 0.47783650E+03</rscale>
<asrwt>0</asrwt>
<pdfrwt beam="1">  1        2 0.46471758E+00 0.66476493E+03</pdfrwt>
<pdfrwt beam="2">  1       -2 0.28338377E-01 0.66476493E+03</pdfrwt>
<totfact> 0.20717734E+01</totfact>
</mgrwt>
</event>
<event>
 4    2  0.4062066E-007  0.8089624E+03  0.7818608E-02  0.9691742E-01
         -2   -1    0    0    0  501 -0.00000000000E+00  0.00000000000E+00  0.98084707290E+03  0.98084707290E+03  0.25500000000E-02 0.  1.
          2   -1    0    0  501    0  0.00000000000E+00 -0.00000000000E+00 -0.20547780075E+04  0.20547780076E+04  0.25500000000E-02 0. -1.
    8880023    1    1    2    0    0  0.44914389024E+03  0.13740323555E+03 -0.19045446158E+04  0.20692293936E+04  0.65864270000E+03 0.  0.
    8880022    1    1    2    0    0 -0.44914389024E+03 -0.13740323555E+03  0.83061368117E+03  0.96639568689E+03  0.15294330000E+03 0.  0.
<mgrwt>
<rscale>  0 0.71510581E+03</rscale>
<asrwt>0</asrwt>
<pdfrwt beam="1">  1        2 0.31611969E+00 0.80896235E+03</pdfrwt>
<pdfrwt beam="2">  1       -2 0.15089955E+00 0.80896235E+03</pdfrwt>
<totfact> 0.18888492E+00</totfact>
</mgrwt>
</event>
<event>
 4    2  0.3171963E-007  0.7190060E+03  0.7818608E-02  0.9925964E-01
          2   -1    0    0  501    0  0.00000000000E+00  0.00000000000E+00  0.12324916392E+04  0.12324916392E+04  0.25500000000E-02 0. -1.
         -2   -1    0    0    0  501 -0.00000000000E+00 -0.00000000000E+00 -0.38954997013E+03  0.38954997014E+03  0.25500000000E-02 0.  1.
    8880023    1    1    2    0    0 -0.23359915513E+03  0.16908823907E+03  0.10221175210E+04  0.12496774908E+04  0.65864270000E+03 0. -1.
    8880022    1    1    2    0    0  0.23359915513E+03 -0.16908823907E+03 -0.17917585195E+03  0.37236411858E+03  0.15294330000E+03 0.  0.
<mgrwt>
<rscale>  0 0.59019306E+03</rscale>
<asrwt>0</asrwt>
<pdfrwt beam="1">  1        2 0.18961410E+00 0.71900598E+03</pdfrwt>
<pdfrwt beam="2">  1       -2 0.59930765E-01 0.71900598E+03</pdfrwt>
<totfact> 0.48033952E+01</totfact>
</mgrwt>
</event>
<event>
 4    2  0.3171963E-007  0.7812528E+03  0.7818608E-02  0.9752902E-01
          2   -1    0    0  501    0  0.00000000000E+00  0.00000000000E+00  0.15038878963E+04  0.15038878963E+04  0.25500000000E-02 0. -1.
         -2   -1    0    0    0  501 -0.00000000000E+00 -0.00000000000E+00 -0.48398162170E+03  0.48398162171E+03  0.25500000000E-02 0.  1.
    8880023    1    1    2    0    0  0.38684895189E+03 -0.16399282555E+03  0.12583301432E+04  0.14811315654E+04  0.65864270000E+03 0. -1.
    8880022    1    1    2    0    0 -0.38684895189E+03  0.16399282555E+03 -0.23842386867E+03  0.50673795257E+03  0.15294330000E+03 0.  0.
<mgrwt>
<rscale>  0 0.67952503E+03</rscale>
<asrwt>0</asrwt>
<pdfrwt beam="1">  1        2 0.23136736E+00 0.78125282E+03</pdfrwt>
<pdfrwt beam="2">  1       -2 0.74458712E-01 0.78125282E+03</pdfrwt>
<totfact> 0.20907539E+01</totfact>
</mgrwt>
</event>
<event>
 4    2  0.3171963E-007  0.8370893E+03  0.7818608E-02  0.9635693E-01
          2   -1    0    0  501    0  0.00000000000E+00  0.00000000000E+00  0.21542788677E+04  0.21542788677E+04  0.25500000000E-02 0. -1.
         -2   -1    0    0    0  501 -0.00000000000E+00 -0.00000000000E+00 -0.28854417333E+03  0.28854417334E+03  0.25500000000E-02 0.  1.
    8880023    1    1    2    0    0  0.37326768234E+03  0.35718282916E+03  0.16727469913E+04  0.18705082302E+04  0.65864270000E+03 0.  0.
    8880022    1    1    2    0    0 -0.37326768234E+03 -0.35718282916E+03  0.19298770303E+03  0.57231481080E+03  0.15294330000E+03 0.  0.
<mgrwt>
<rscale>  0 0.74978152E+03</rscale>
<asrwt>0</asrwt>
<pdfrwt beam="1">  1        2 0.33142753E+00 0.83708933E+03</pdfrwt>
<pdfrwt beam="2">  1       -2 0.44391410E-01 0.83708933E+03</pdfrwt>
<totfact> 0.27014034E+01</totfact>
</mgrwt>
</event>
<event>
 4    2  0.3171963E-007  0.7128491E+03  0.7818608E-02  0.9947569E-01
          2   -1    0    0  501    0  0.00000000000E+00  0.00000000000E+00  0.26089101369E+04  0.26089101369E+04  0.25500000000E-02 0. -1.
         -2   -1    0    0    0  501 -0.00000000000E+00 -0.00000000000E+00 -0.26332950845E+03  0.26332950847E+03  0.25500000000E-02 0.  1.
    8880023    1    1    2    0    0 -0.24129517821E+03 -0.12696560609E+03  0.24429271098E+04  0.25448077920E+04  0.65864270000E+03 0. -1.
    8880022    1    1    2    0    0  0.24129517821E+03  0.12696560609E+03 -0.97346481346E+02  0.32743185337E+03  0.15294330000E+03 0.  0.
<mgrwt>
<rscale>  0 0.58010235E+03</rscale>
<asrwt>0</asrwt>
<pdfrwt beam="1">  1        2 0.40137079E+00 0.71284910E+03</pdfrwt>
<pdfrwt beam="2">  1       -2 0.40512232E-01 0.71284910E+03</pdfrwt>
<totfact> 0.18302825E+01</totfact>
</mgrwt>
</event>
<event>
 4    2  0.3171963E-007  0.7235844E+03  0.7818608E-02  0.9910639E-01
          2   -1    0    0  501    0  0.00000000000E+00  0.00000000000E+00  0.15380933565E+04  0.15380933565E+04  0.25500000000E-02 0. -1.
         -2   -1    0    0    0  501 -0.00000000000E+00 -0.00000000000E+00 -0.58035318946E+03  0.58035318946E+03  0.25500000000E-02 0.  1.
    8880023    1    1    2    0    0  0.29101859975E+03  0.71220575000E+02  0.13921828199E+04  0.15689956679E+04  0.65864270000E+03 0. -1.
    8880022    1    1    2    0    0 -0.29101859975E+03 -0.71220575000E+02 -0.43444265287E+03  0.54945087801E+03  0.15294330000E+03 0.  0.
<mgrwt>
<rscale>  0 0.59748434E+03</rscale>
<asrwt>0</asrwt>
<pdfrwt beam="1">  1        2 0.23662975E+00 0.72358441E+03</pdfrwt>
<pdfrwt beam="2">  1       -2 0.89285106E-01 0.72358441E+03</pdfrwt>
<totfact> 0.13378005E+01</totfact>
</mgrwt>
</event>
<event>
 4    2  0.3171963E-007  0.1103632E+04  0.7818608E-02  0.9257023E-01
         -2   -1    0    0    0  501 -0.00000000000E+00  0.00000000000E+00  0.12804517458E+04  0.12804517458E+04  0.25500000000E-02 0.  1.
          2   -1    0    0  501    0  0.00000000000E+00 -0.00000000000E+00 -0.11075747095E+04  0.11075747095E+04  0.25500000000E-02 0. -1.
    8880023    1    1    2    0    0 -0.80508664189E+03  0.36882078312E+03  0.73689717540E+03  0.13270346357E+04  0.65864270000E+03 0.  0.
    8880022    1    1    2    0    0  0.80508664189E+03 -0.36882078312E+03 -0.56402013909E+03  0.10609918196E+04  0.15294330000E+03 0.  0.
<mgrwt>
<rscale>  0 0.10483752E+04</rscale>
<asrwt>0</asrwt>
<pdfrwt beam="1">  1        2 0.17039611E+00 0.11036319E+04</pdfrwt>
<pdfrwt beam="2">  1       -2 0.19699258E+00 0.11036319E+04</pdfrwt>
<totfact> 0.29433186E+00</totfact>
</mgrwt>
</event>
<event>
 4    2  0.3171963E-007  0.7443232E+03  0.7818608E-02  0.9847528E-01
          2   -1    0    0  501    0  0.00000000000E+00  0.00000000000E+00  0.70270561202E+03  0.70270561202E+03  0.25500000000E-02 0. -1.
         -2   -1    0    0    0  501 -0.00000000000E+00 -0.00000000000E+00 -0.10224473983E+04  0.10224473983E+04  0.25500000000E-02 0.  1.
    8880023    1    1    2    0    0  0.34654959518E+03  0.10500490049E+02  0.44816764229E+03  0.86883331202E+03  0.65864270000E+03 0. -1.
    8880022    1    1    2    0    0 -0.34654959518E+03 -0.10500490049E+02 -0.76790942855E+03  0.85631969829E+03  0.15294330000E+03 0.  0.
<mgrwt>
<rscale>  0 0.62873109E+03</rscale>
<asrwt>0</asrwt>
<pdfrwt beam="1">  1        2 0.10810856E+00 0.74432324E+03</pdfrwt>
<pdfrwt beam="2">  1       -2 0.15729960E+00 0.74432324E+03</pdfrwt>
<totfact> 0.10933670E+01</totfact>
</mgrwt>
</event>
<event>
 4    2  0.3171963E-007  0.7066432E+03  0.7818608E-02  0.9970684E-01
         -2   -1    0    0    0  501 -0.00000000000E+00  0.00000000000E+00  0.11643717661E+03  0.11643717663E+03  0.25500000000E-02 0.  1.
          2   -1    0    0  501    0  0.00000000000E+00 -0.00000000000E+00 -0.22844554996E+04  0.22844554996E+04  0.25500000000E-02 0. -1.
    8880023    1    1    2    0    0 -0.12916233204E+02  0.25567091761E+03 -0.12532133523E+04  0.14387106588E+04  0.65864270000E+03 0.  0.
    8880022    1    1    2    0    0  0.12916233204E+02 -0.25567091761E+03 -0.91480497064E+03  0.96218201736E+03  0.15294330000E+03 0.  0.
<mgrwt>
<rscale>  0 0.56954600E+03</rscale>
<asrwt>0</asrwt>
<pdfrwt beam="1">  1        2 0.35145466E+00 0.70664323E+03</pdfrwt>
<pdfrwt beam="2">  1       -2 0.17913414E-01 0.70664323E+03</pdfrwt>
<totfact> 0.12404879E+02</totfact>
</mgrwt>
</event>
<event>
 4    2  0.3171963E-007  0.1107237E+04  0.7818608E-02  0.9253042E-01
          2   -1    0    0  501    0  0.00000000000E+00  0.00000000000E+00  0.14518680084E+04  0.14518680084E+04  0.25500000000E-02 0. -1.
         -2   -1    0    0    0  501 -0.00000000000E+00 -0.00000000000E+00 -0.15566368402E+04  0.15566368402E+04  0.25500000000E-02 0.  1.
    8880023    1    1    2    0    0  0.37331192051E+03  0.80796100082E+03 -0.11707537429E+04  0.16114084838E+04  0.65864270000E+03 0.  0.
    8880022    1    1    2    0    0 -0.37331192051E+03 -0.80796100082E+03  0.10659849112E+04  0.13970963648E+04  0.15294330000E+03 0.  0.
<mgrwt>
<rscale>  0 0.10522331E+04</rscale>
<asrwt>0</asrwt>
<pdfrwt beam="1">  1        2 0.22336431E+00 0.11072366E+04</pdfrwt>
<pdfrwt beam="2">  1       -2 0.23948259E+00 0.11072366E+04</pdfrwt>
<totfact> 0.99087417E-01</totfact>
</mgrwt>
</event>
<event>
 4    2  0.3171963E-007  0.9191983E+03  0.7818608E-02  0.9495889E-01
          2   -1    0    0  501    0  0.00000000000E+00  0.00000000000E+00  0.32071275410E+04  0.32071275410E+04  0.25500000000E-02 0. -1.
         -2   -1    0    0    0  501 -0.00000000000E+00 -0.00000000000E+00 -0.74600640737E+03  0.74600640737E+03  0.25500000000E-02 0.  1.
    8880023    1    1    2    0    0  0.63416929811E+03 -0.94575985316E+02  0.29772633270E+04  0.31159304293E+04  0.65864270000E+03 0. -1.
    8880022    1    1    2    0    0 -0.63416929811E+03  0.94575985316E+02 -0.51614219333E+03  0.83720351911E+03  0.15294330000E+03 0.  0.
<mgrwt>
<rscale>  0 0.84587561E+03</rscale>
<asrwt>0</asrwt>
<pdfrwt beam="1">  1        2 0.49340424E+00 0.91919830E+03</pdfrwt>
<pdfrwt beam="2">  1       -2 0.11477022E+00 0.91919830E+03</pdfrwt>
<totfact> 0.78971060E-01</totfact>
</mgrwt>
</event>
<event>
 4    2  0.3171963E-007  0.6698143E+03  0.7818608E-02  0.1015796E+00
         -2   -1    0    0    0  501 -0.00000000000E+00  0.00000000000E+00  0.34111192613E+03  0.34111192613E+03  0.25500000000E-02 0.  1.
          2   -1    0    0  501    0  0.00000000000E+00 -0.00000000000E+00 -0.11763223190E+04  0.11763223190E+04  0.25500000000E-02 0. -1.
    8880023    1    1    2    0    0 -0.12086972584E+03  0.15214691306E+02 -0.10382432594E+04  0.12355566557E+04  0.65864270000E+03 0. -1.
    8880022    1    1    2    0    0  0.12086972584E+03 -0.15214691306E+02  0.20303286661E+03  0.28187758938E+03  0.15294330000E+03 0.  0.
<mgrwt>
<rscale>  0 0.49234562E+03</rscale>
<asrwt>0</asrwt>
<pdfrwt beam="1">  1        2 0.18097266E+00 0.66981429E+03</pdfrwt>
<pdfrwt beam="2">  1       -2 0.52478759E-01 0.66981429E+03</pdfrwt>
<totfact> 0.68673823E+01</totfact>
</mgrwt>
</event>
<event>
 4    2  0.3171963E-007  0.1098094E+04  0.7818608E-02  0.9263181E-01
          2   -1    0    0  501    0  0.00000000000E+00  0.00000000000E+00  0.18609728145E+04  0.18609728145E+04  0.25500000000E-02 0. -1.
         -2   -1    0    0    0  501 -0.00000000000E+00 -0.00000000000E+00 -0.79233915496E+03  0.79233915496E+03  0.25500000000E-02 0.  1.
    8880023    1    1    2    0    0  0.37726394743E+03  0.79351944730E+03  0.13292579020E+04  0.17241629782E+04  0.65864270000E+03 0.  0.
    8880022    1    1    2    0    0 -0.37726394743E+03 -0.79351944730E+03 -0.26062424238E+03  0.92914899128E+03  0.15294330000E+03 0.  0.
<mgrwt>
<rscale>  0 0.10424434E+04</rscale>
<asrwt>0</asrwt>
<pdfrwt beam="1">  1        2 0.28630351E+00 0.10980944E+04</pdfrwt>
<pdfrwt beam="2">  1       -2 0.12189833E+00 0.10980944E+04</pdfrwt>
<totfact> 0.40183913E+00</totfact>
</mgrwt>
</event>
<event>
 4    2  0.3171963E-007  0.8064836E+03  0.7818608E-02  0.9696949E-01
         -2   -1    0    0    0  501 -0.00000000000E+00  0.00000000000E+00  0.41041843916E+03  0.41041843917E+03  0.25500000000E-02 0.  1.
          2   -1    0    0  501    0  0.00000000000E+00 -0.00000000000E+00 -0.11585953304E+04  0.11585953304E+04  0.25500000000E-02 0. -1.
    8880023    1    1    2    0    0 -0.35111667745E+03 -0.30548747085E+03 -0.19427831996E+03  0.82955396925E+03  0.65864270000E+03 0.  0.
    8880022    1    1    2    0    0  0.35111667745E+03  0.30548747085E+03 -0.55389857133E+03  0.73945980037E+03  0.15294330000E+03 0.  1.
<mgrwt>
<rscale>  0 0.71198755E+03</rscale>
<asrwt>0</asrwt>
<pdfrwt beam="1">  1        2 0.17824543E+00 0.80648355E+03</pdfrwt>
<pdfrwt beam="2">  1       -2 0.63141299E-01 0.80648355E+03</pdfrwt>
<totfact> 0.47174260E+01</totfact>
</mgrwt>
</event>
<event>
 4    2  0.3171963E-007  0.7638827E+03  0.7818608E-02  0.9795157E-01
         -2   -1    0    0    0  501 -0.00000000000E+00  0.00000000000E+00  0.25123482793E+03  0.25123482795E+03  0.25500000000E-02 0.  1.
          2   -1    0    0  501    0  0.00000000000E+00 -0.00000000000E+00 -0.26658693061E+04  0.26658693061E+04  0.25500000000E-02 0. -1.
    8880023    1    1    2    0    0 -0.17500476564E+03  0.34507948463E+03 -0.23800357103E+04  0.24996173121E+04  0.65864270000E+03 0. -1.
    8880022    1    1    2    0    0  0.17500476564E+03 -0.34507948463E+03 -0.34598767894E+02  0.41748682191E+03  0.15294330000E+03 0.  0.
<mgrwt>
<rscale>  0 0.65623071E+03</rscale>
<asrwt>0</asrwt>
<pdfrwt beam="1">  1        2 0.41013372E+00 0.76388266E+03</pdfrwt>
<pdfrwt beam="2">  1       -2 0.38651514E-01 0.76388266E+03</pdfrwt>
<totfact> 0.18444526E+01</totfact>
</mgrwt>
</event>
<event>
 4    2  0.3171963E-007  0.8285615E+03  0.7818608E-02  0.9652138E-01
         -2   -1    0    0    0  501 -0.00000000000E+00  0.00000000000E+00  0.77672915303E+03  0.77672915304E+03  0.25500000000E-02 0.  1.
          2   -1    0    0  501    0  0.00000000000E+00 -0.00000000000E+00 -0.85476413335E+03  0.85476413335E+03  0.25500000000E-02 0. -1.
    8880023    1    1    2    0    0  0.49753239697E+03 -0.71870669396E+02 -0.49106017580E+03  0.96314805802E+03  0.65864270000E+03 0. -1.
    8880022    1    1    2    0    0 -0.49753239697E+03  0.71870669396E+02  0.41302519548E+03  0.66834522836E+03  0.15294330000E+03 0.  0.
<mgrwt>
<rscale>  0 0.73939408E+03</rscale>
<asrwt>0</asrwt>
<pdfrwt beam="1">  1        2 0.13150217E+00 0.82856146E+03</pdfrwt>
<pdfrwt beam="2">  1       -2 0.11949679E+00 0.82856146E+03</pdfrwt>
<totfact> 0.17026752E+01</totfact>
</mgrwt>
</event>
<event>
 4    2  0.3171963E-007  0.6748822E+03  0.7818608E-02  0.1012381E+00
          2   -1    0    0  501    0  0.00000000000E+00  0.00000000000E+00  0.13635267041E+04  0.13635267041E+04  0.25500000000E-02 0. -1.
         -2   -1    0    0    0  501 -0.00000000000E+00 -0.00000000000E+00 -0.15043570025E+03  0.15043570027E+03  0.25500000000E-02 0.  1.
    8880023    1    1    2    0    0  0.36422446082E+02  0.14258056589E+03  0.10414472847E+04  0.12409989788E+04  0.65864270000E+03 0. -1.
    8880022    1    1    2    0    0 -0.36422446082E+02 -0.14258056589E+03  0.17164371914E+03  0.27296342554E+03  0.15294330000E+03 0.  0.
<mgrwt>
<rscale>  0 0.50539366E+03</rscale>
<asrwt>0</asrwt>
<pdfrwt beam="1">  1        2 0.20977334E+00 0.67488223E+03</pdfrwt>
<pdfrwt beam="2">  1       -2 0.23143954E-01 0.67488223E+03</pdfrwt>
<totfact> 0.25445811E+02</totfact>
</mgrwt>
</event>
<event>
 4    2  0.3171963E-007  0.1661470E+04  0.7818608E-02  0.8803304E-01
         -2   -1    0    0    0  501 -0.00000000000E+00  0.00000000000E+00  0.14411902130E+04  0.14411902130E+04  0.25500000000E-02 0.  1.
          2   -1    0    0  501    0  0.00000000000E+00 -0.00000000000E+00 -0.35657055306E+04  0.35657055306E+04  0.25500000000E-02 0. -1.
    8880023    1    1    2    0    0  0.84439377533E+03  0.12703034639E+04  0.69231157753E+03  0.17999381280E+04  0.65864270000E+03 0.  0.
    8880022    1    1    2    0    0 -0.84439377533E+03 -0.12703034639E+04 -0.28168268951E+04  0.32069576155E+04  0.15294330000E+03 0.  0.
<mgrwt>
<rscale>  0 0.16283745E+04</rscale>
<asrwt>0</asrwt>
<pdfrwt beam="1">  1        2 0.54857008E+00 0.16614698E+04</pdfrwt>
<pdfrwt beam="2">  1       -2 0.22172157E+00 0.16614698E+04</pdfrwt>
<totfact> 0.65285253E-02</totfact>
</mgrwt>
</event>
<event>
 4    2  0.3171963E-007  0.6653735E+03  0.7818608E-02  0.1019222E+00
         -2   -1    0    0    0  501 -0.00000000000E+00  0.00000000000E+00  0.19657377214E+03  0.19657377216E+03  0.25500000000E-02 0.  1.
          2   -1    0    0  501    0  0.00000000000E+00 -0.00000000000E+00 -0.14730968446E+04  0.14730968446E+04  0.25500000000E-02 0. -1.
    8880023    1    1    2    0    0  0.84533512334E+02 -0.42020873484E+02 -0.13257217058E+04  0.14833273125E+04  0.65864270000E+03 0. -1.
    8880022    1    1    2    0    0 -0.84533512334E+02  0.42020873484E+02  0.49198633315E+02  0.18634330428E+03  0.15294330000E+03 0.  0.
<mgrwt>
<rscale>  0 0.47968376E+03</rscale>
<asrwt>0</asrwt>
<pdfrwt beam="1">  1        2 0.22663028E+00 0.66537349E+03</pdfrwt>
<pdfrwt beam="2">  1       -2 0.30242120E-01 0.66537349E+03</pdfrwt>
<totfact> 0.13594047E+02</totfact>
</mgrwt>
</event>
<event>
 4    2  0.3171963E-007  0.6626271E+03  0.7818608E-02  0.1021613E+00
          2   -1    0    0  501    0  0.00000000000E+00  0.00000000000E+00  0.28294691346E+04  0.28294691346E+04  0.25500000000E-02 0. -1.
         -2   -1    0    0    0  501 -0.00000000000E+00 -0.00000000000E+00 -0.15980507885E+03  0.15980507887E+03  0.25500000000E-02 0.  1.
    8880023    1    1    2    0    0  0.23907962557E+01  0.72517186851E+02  0.27302262708E+04  0.28094857455E+04  0.65864270000E+03 0. -1.
    8880022    1    1    2    0    0 -0.23907962557E+01 -0.72517186851E+02 -0.60562215063E+02  0.17978846794E+03  0.15294330000E+03 0.  0.
<mgrwt>
<rscale>  0 0.47109018E+03</rscale>
<asrwt>0</asrwt>
<pdfrwt beam="1">  1        2 0.43530293E+00 0.66262709E+03</pdfrwt>
<pdfrwt beam="2">  1       -2 0.24585397E-01 0.66262709E+03</pdfrwt>
<totfact> 0.34957305E+01</totfact>
</mgrwt>
</event>
<event>
 4    2  0.3171963E-007  0.1830926E+04  0.7818608E-02  0.8705619E-01
          2   -1    0    0  501    0  0.00000000000E+00  0.00000000000E+00  0.43728547304E+04  0.43728547304E+04  0.25500000000E-02 0. -1.
         -2   -1    0    0    0  501 -0.00000000000E+00 -0.00000000000E+00 -0.80126301958E+03  0.80126301959E+03  0.25500000000E-02 0.  1.
    8880023    1    1    2    0    0 -0.95054408013E+03  0.14194878531E+04  0.26670342761E+04  0.32350211513E+04  0.65864270000E+03 0.  0.
    8880022    1    1    2    0    0  0.95054408013E+03 -0.14194878531E+04  0.90455743469E+03  0.19390965987E+04  0.15294330000E+03 0.  0.
<mgrwt>
<rscale>  0 0.18012793E+04</rscale>
<asrwt>0</asrwt>
<pdfrwt beam="1">  1        2 0.67274686E+00 0.18309260E+04</pdfrwt>
<pdfrwt beam="2">  1       -2 0.12327124E+00 0.18309260E+04</pdfrwt>
<totfact> 0.75249922E-02</totfact>
</mgrwt>
</event>
<event>
 4    2  0.3171963E-007  0.8861812E+03  0.7818608E-02  0.9548590E-01
         -2   -1    0    0    0  501 -0.00000000000E+00  0.00000000000E+00  0.79296367259E+03  0.79296367260E+03  0.25500000000E-02 0.  1.
          2   -1    0    0  501    0  0.00000000000E+00 -0.00000000000E+00 -0.14059729814E+04  0.14059729814E+04  0.25500000000E-02 0. -1.
    8880023    1    1    2    0    0  0.30089161319E+03  0.51085328887E+03 -0.11028787381E+04  0.14147998314E+04  0.65864270000E+03 0.  0.
    8880022    1    1    2    0    0 -0.30089161319E+03 -0.51085328887E+03  0.48986942937E+03  0.78413682255E+03  0.15294330000E+03 0.  0.
<mgrwt>
<rscale>  0 0.80794370E+03</rscale>
<asrwt>0</asrwt>
<pdfrwt beam="1">  1        2 0.21630353E+00 0.88618116E+03</pdfrwt>
<pdfrwt beam="2">  1       -2 0.12199441E+00 0.88618116E+03</pdfrwt>
<totfact> 0.73590241E+00</totfact>
</mgrwt>
</event>
<event>
 4    2  0.3171963E-007  0.6593288E+03  0.7818608E-02  0.1024855E+00
          2   -1    0    0  501    0  0.00000000000E+00  0.00000000000E+00  0.84064091522E+03  0.84064091523E+03  0.25500000000E-02 0. -1.
         -2   -1    0    0    0  501 -0.00000000000E+00 -0.00000000000E+00 -0.41963104348E+03  0.41963104349E+03  0.25500000000E-02 0.  1.
    8880023    1    1    2    0    0 -0.10614171779E+02 -0.28134313651E+02  0.68685886774E+03  0.95209742711E+03  0.65864270000E+03 0. -1.
    8880022    1    1    2    0    0  0.10614171779E+02  0.28134313651E+02 -0.26584899600E+03  0.30817453161E+03  0.15294330000E+03 0.  0.
<mgrwt>
<rscale>  0 0.45974608E+03</rscale>
<asrwt>0</asrwt>
<pdfrwt beam="1">  1        2 0.12932937E+00 0.65932875E+03</pdfrwt>
<pdfrwt beam="2">  1       -2 0.64558623E-01 0.65932875E+03</pdfrwt>
<totfact> 0.72854892E+01</totfact>
</mgrwt>
</event>
<event>
 4    2  0.3171963E-007  0.6863709E+03  0.7818608E-02  0.1005927E+00
         -2   -1    0    0    0  501 -0.00000000000E+00  0.00000000000E+00  0.10368133010E+04  0.10368133010E+04  0.25500000000E-02 0.  1.
          2   -1    0    0  501    0  0.00000000000E+00 -0.00000000000E+00 -0.55308410055E+03  0.55308410056E+03  0.25500000000E-02 0. -1.
    8880023    1    1    2    0    0  0.36419133385E+02 -0.18965345993E+03 -0.31415443509E+03  0.75484965622E+03  0.65864270000E+03 0. -1.
    8880022    1    1    2    0    0 -0.36419133385E+02  0.18965345993E+03  0.79788363554E+03  0.83504774536E+03  0.15294330000E+03 0.  0.
<mgrwt>
<rscale>  0 0.53125814E+03</rscale>
<asrwt>0</asrwt>
<pdfrwt beam="1">  1        2 0.85089862E-01 0.68637089E+03</pdfrwt>
<pdfrwt beam="2">  1       -2 0.15950974E+00 0.68637089E+03</pdfrwt>
<totfact> 0.14188188E+01</totfact>
</mgrwt>
</event>
<event>
 4    2  0.3171963E-007  0.9650932E+03  0.7818608E-02  0.9428723E-01
          2   -1    0    0  501    0  0.00000000000E+00  0.00000000000E+00  0.43276244308E+04  0.43276244308E+04  0.25500000000E-02 0. -1.
         -2   -1    0    0    0  501 -0.00000000000E+00 -0.00000000000E+00 -0.25560841779E+03  0.25560841781E+03  0.25500000000E-02 0.  1.
    8880023    1    1    2    0    0 -0.40412194140E+02 -0.70424540968E+03  0.35846837920E+04  0.37123257990E+04  0.65864270000E+03 0. -1.
    8880022    1    1    2    0    0  0.40412194140E+02  0.70424540968E+03  0.48733222094E+03  0.87090704962E+03  0.15294330000E+03 0.  0.
<mgrwt>
<rscale>  0 0.89749131E+03</rscale>
<asrwt>0</asrwt>
<pdfrwt beam="1">  1        2 0.66578832E+00 0.96509323E+03</pdfrwt>
<pdfrwt beam="2">  1       -2 0.39324375E-01 0.96509323E+03</pdfrwt>
<totfact> 0.11775290E+00</totfact>
</mgrwt>
</event>
<event>
 4    2  0.3171963E-007  0.1144435E+04  0.7818608E-02  0.9213124E-01
         -2   -1    0    0    0  501 -0.00000000000E+00  0.00000000000E+00  0.56084788730E+03  0.56084788731E+03  0.25500000000E-02 0.  1.
          2   -1    0    0  501    0  0.00000000000E+00 -0.00000000000E+00 -0.19694935711E+04  0.19694935711E+04  0.25500000000E-02 0. -1.
    8880023    1    1    2    0    0  0.93526525259E+03  0.34655712330E+02 -0.88765783251E+03  0.14483330919E+04  0.65864270000E+03 0. -1.
    8880022    1    1    2    0    0 -0.93526525259E+03 -0.34655712330E+02 -0.52098785132E+03  0.10820083666E+04  0.15294330000E+03 0.  0.
<mgrwt>
<rscale>  0 0.10918987E+04</rscale>
<asrwt>0</asrwt>
<pdfrwt beam="1">  1        2 0.30299901E+00 0.11444354E+04</pdfrwt>
<pdfrwt beam="2">  1       -2 0.86284291E-01 0.11444354E+04</pdfrwt>
<totfact> 0.79761418E+00</totfact>
</mgrwt>
</event>
<event>
 4    2  0.3171963E-007  0.6675701E+03  0.7818608E-02  0.1017468E+00
          2   -1    0    0  501    0  0.00000000000E+00  0.00000000000E+00  0.49771207624E+03  0.49771207625E+03  0.25500000000E-02 0. -1.
         -2   -1    0    0    0  501 -0.00000000000E+00 -0.00000000000E+00 -0.61177270239E+03  0.61177270240E+03  0.25500000000E-02 0.  1.
    8880023    1    1    2    0    0  0.80513397480E+02 -0.73192791842E+02  0.23946512680E+03  0.70922023742E+03  0.65864270000E+03 0. -1.
    8880022    1    1    2    0    0 -0.80513397480E+02  0.73192791842E+02 -0.35352575295E+03  0.40026454123E+03  0.15294330000E+03 0.  0.
<mgrwt>
<rscale>  0 0.48611457E+03</rscale>
<asrwt>0</asrwt>
<pdfrwt beam="1">  1        2 0.76571089E-01 0.66757007E+03</pdfrwt>
<pdfrwt beam="2">  1       -2 0.94118877E-01 0.66757007E+03</pdfrwt>
<totfact> 0.59980331E+01</totfact>
</mgrwt>
</event>
<event>
 4    2  0.3171963E-007  0.7565557E+03  0.7818608E-02  0.9814107E-01
         -2   -1    0    0    0  501 -0.00000000000E+00  0.00000000000E+00  0.16400078387E+03  0.16400078389E+03  0.25500000000E-02 0.  1.
          2   -1    0    0  501    0  0.00000000000E+00 -0.00000000000E+00 -0.31364404050E+04  0.31364404050E+04  0.25500000000E-02 0. -1.
    8880023    1    1    2    0    0  0.32687909238E+03  0.17809079573E+03 -0.27248715693E+04  0.28279500611E+04  0.65864270000E+03 0. -1.
    8880022    1    1    2    0    0 -0.32687909238E+03 -0.17809079573E+03 -0.24756805183E+03  0.47249112781E+03  0.15294330000E+03 0.  0.
<mgrwt>
<rscale>  0 0.64610923E+03</rscale>
<asrwt>0</asrwt>
<pdfrwt beam="1">  1        2 0.48252925E+00 0.75655567E+03</pdfrwt>
<pdfrwt beam="2">  1       -2 0.25230892E-01 0.75655567E+03</pdfrwt>
<totfact> 0.21349620E+01</totfact>
</mgrwt>
</event>
<event>
 4    2  0.3171963E-007  0.8406486E+03  0.7818608E-02  0.9628958E-01
          2   -1    0    0  501    0  0.00000000000E+00  0.00000000000E+00  0.15410708318E+04  0.15410708318E+04  0.25500000000E-02 0. -1.
         -2   -1    0    0    0  501 -0.00000000000E+00 -0.00000000000E+00 -0.37765057001E+03  0.37765057001E+03  0.25500000000E-02 0.  1.
    8880023    1    1    2    0    0 -0.20786520240E+03 -0.47924097124E+03  0.10791345968E+04  0.13679259977E+04  0.65864270000E+03 0.  0.
    8880022    1    1    2    0    0  0.20786520240E+03  0.47924097124E+03  0.84285665013E+02  0.55079540414E+03  0.15294330000E+03 0. -1.
<mgrwt>
<rscale>  0 0.75408813E+03</rscale>
<asrwt>0</asrwt>
<pdfrwt beam="1">  1        2 0.23708782E+00 0.84064859E+03</pdfrwt>
<pdfrwt beam="2">  1       -2 0.58100088E-01 0.84064859E+03</pdfrwt>
<totfact> 0.33817338E+01</totfact>
</mgrwt>
</event>
<event>
 4    2  0.3171963E-007  0.1039527E+04  0.7818608E-02  0.9331579E-01
          2   -1    0    0  501    0  0.00000000000E+00  0.00000000000E+00  0.27942708052E+04  0.27942708052E+04  0.25500000000E-02 0. -1.
         -2   -1    0    0    0  501 -0.00000000000E+00 -0.00000000000E+00 -0.59698434535E+03  0.59698434535E+03  0.25500000000E-02 0.  1.
    8880023    1    1    2    0    0  0.58985896699E+03 -0.54669163845E+03  0.23397627315E+04  0.25602939664E+04  0.65864270000E+03 0. -1.
    8880022    1    1    2    0    0 -0.58985896699E+03  0.54669163845E+03 -0.14247627167E+03  0.83096118411E+03  0.15294330000E+03 0.  0.
<mgrwt>
<rscale>  0 0.97926902E+03</rscale>
<asrwt>0</asrwt>
<pdfrwt beam="1">  1        2 0.42988781E+00 0.10395266E+04</pdfrwt>
<pdfrwt beam="2">  1       -2 0.91843747E-01 0.10395266E+04</pdfrwt>
<totfact> 0.23727351E+00</totfact>
</mgrwt>
</event>
<event>
 4    2  0.3171963E-007  0.7866216E+03  0.7818608E-02  0.9740506E-01
          2   -1    0    0  501    0  0.00000000000E+00  0.00000000000E+00  0.30939181105E+04  0.30939181105E+04  0.25500000000E-02 0. -1.
         -2   -1    0    0    0  501 -0.00000000000E+00 -0.00000000000E+00 -0.53315928639E+03  0.53315928640E+03  0.25500000000E-02 0.  1.
    8880023    1    1    2    0    0  0.86133651145E+02 -0.42136017041E+03  0.29338923673E+04  0.30375151075E+04  0.65864270000E+03 0. -1.
    8880022    1    1    2    0    0 -0.86133651145E+02  0.42136017041E+03 -0.37313354317E+03  0.58956228943E+03  0.15294330000E+03 0.  0.
<mgrwt>
<rscale>  0 0.68655435E+03</rscale>
<asrwt>0</asrwt>
<pdfrwt beam="1">  1        2 0.47598740E+00 0.78662164E+03</pdfrwt>
<pdfrwt beam="2">  1       -2 0.82024506E-01 0.78662164E+03</pdfrwt>
<totfact> 0.21085700E+00</totfact>
</mgrwt>
</event>
<event>
 4    2  0.3171963E-007  0.9331471E+03  0.7818608E-02  0.9474788E-01
          2   -1    0    0  501    0  0.00000000000E+00  0.00000000000E+00  0.10744775789E+04  0.10744775789E+04  0.25500000000E-02 0. -1.
         -2   -1    0    0    0  501 -0.00000000000E+00 -0.00000000000E+00 -0.69491620241E+03  0.69491620241E+03  0.25500000000E-02 0.  1.
    8880023    1    1    2    0    0 -0.53552093342E+03  0.38751867936E+03  0.53178677506E+03  0.10740394673E+04  0.65864270000E+03 0.  0.
    8880022    1    1    2    0    0  0.53552093342E+03 -0.38751867936E+03 -0.15222539857E+03  0.69535431398E+03  0.15294330000E+03 0.  0.
<mgrwt>
<rscale>  0 0.86168401E+03</rscale>
<asrwt>0</asrwt>
<pdfrwt beam="1">  1        2 0.16530424E+00 0.93314715E+03</pdfrwt>
<pdfrwt beam="2">  1       -2 0.10691019E+00 0.93314715E+03</pdfrwt>
<totfact> 0.15892227E+01</totfact>
</mgrwt>
</event>
<event>
 4    2  0.3171963E-007  0.6629721E+03  0.7818608E-02  0.1021299E+00
          2   -1    0    0  501    0  0.00000000000E+00  0.00000000000E+00  0.48964491478E+04  0.48964491478E+04  0.25500000000E-02 0. -1.
         -2   -1    0    0    0  501 -0.00000000000E+00 -0.00000000000E+00 -0.39963554121E+02  0.39963554203E+02  0.25500000000E-02 0.  1.
    8880023    1    1    2    0    0 -0.29833059315E+02 -0.69510871504E+02  0.43884411269E+04  0.44382369814E+04  0.65864270000E+03 0. -1.
    8880022    1    1    2    0    0  0.29833059315E+02  0.69510871504E+02  0.46804446679E+03  0.49817572060E+03  0.15294330000E+03 0.  0.
<mgrwt>
<rscale>  0 0.47220773E+03</rscale>
<asrwt>0</asrwt>
<pdfrwt beam="1">  1        2 0.75329894E+00 0.66297208E+03</pdfrwt>
<pdfrwt beam="2">  1       -2 0.61482467E-02 0.66297208E+03</pdfrwt>
<totfact> 0.81610787E+00</totfact>
</mgrwt>
</event>
<event>
 4    2  0.3171963E-007  0.1599037E+04  0.7818608E-02  0.8842693E-01
          2   -1    0    0  501    0  0.00000000000E+00  0.00000000000E+00  0.31694425726E+04  0.31694425727E+04  0.25500000000E-02 0. -1.
         -2   -1    0    0    0  501 -0.00000000000E+00 -0.00000000000E+00 -0.75030027246E+03  0.75030027247E+03  0.25500000000E-02 0.  1.
    8880023    1    1    2    0    0  0.18270133331E+03 -0.14455897850E+04  0.14846255266E+04  0.21819790934E+04  0.65864270000E+03 0.  0.
    8880022    1    1    2    0    0 -0.18270133331E+03  0.14455897850E+04  0.93451677359E+03  0.17377637517E+04  0.15294330000E+03 0.  0.
<mgrwt>
<rscale>  0 0.15644450E+04</rscale>
<asrwt>0</asrwt>
<pdfrwt beam="1">  1        2 0.48760656E+00 0.15990372E+04</pdfrwt>
<pdfrwt beam="2">  1       -2 0.11543081E+00 0.15990372E+04</pdfrwt>
<totfact> 0.74956407E-01</totfact>
</mgrwt>
</event>
<event>
 4    2  0.3171963E-007  0.7867031E+03  0.7818608E-02  0.9740320E-01
          2   -1    0    0  501    0  0.00000000000E+00  0.00000000000E+00  0.27594229591E+03  0.27594229592E+03  0.25500000000E-02 0. -1.
         -2   -1    0    0    0  501 -0.00000000000E+00 -0.00000000000E+00 -0.22287070317E+04  0.22287070317E+04  0.25500000000E-02 0.  1.
    8880023    1    1    2    0    0  0.29340232634E+03  0.31465331626E+03 -0.39295556044E+03  0.87938382592E+03  0.65864270000E+03 0. -1.
    8880022    1    1    2    0    0 -0.29340232634E+03 -0.31465331626E+03 -0.15598091753E+04  0.16252655017E+04  0.15294330000E+03 0.  0.
<mgrwt>
<rscale>  0 0.68666051E+03</rscale>
<asrwt>0</asrwt>
<pdfrwt beam="1">  1        2 0.42452662E-01 0.78670315E+03</pdfrwt>
<pdfrwt beam="2">  1       -2 0.34287799E+00 0.78670315E+03</pdfrwt>
<totfact> 0.21712375E+00</totfact>
</mgrwt>
</event>
<event>
 4    2  0.3171963E-007  0.6613033E+03  0.7818608E-02  0.1022859E+00
         -2   -1    0    0    0  501 -0.00000000000E+00  0.00000000000E+00  0.26650323788E+03  0.26650323789E+03  0.25500000000E-02 0.  1.
          2   -1    0    0  501    0  0.00000000000E+00 -0.00000000000E+00 -0.17730696891E+04  0.17730696891E+04  0.25500000000E-02 0. -1.
    8880023    1    1    2    0    0  0.50060616453E+02  0.31713499257E+02 -0.16772146048E+04  0.18028784896E+04  0.65864270000E+03 0. -1.
    8880022    1    1    2    0    0 -0.50060616453E+02 -0.31713499257E+02  0.17064815360E+03  0.23669443740E+03  0.15294330000E+03 0.  0.
<mgrwt>
<rscale>  0 0.46668789E+03</rscale>
<asrwt>0</asrwt>
<pdfrwt beam="1">  1        2 0.27277995E+00 0.66130327E+03</pdfrwt>
<pdfrwt beam="2">  1       -2 0.41000499E-01 0.66130327E+03</pdfrwt>
<totfact> 0.52168016E+01</totfact>
</mgrwt>
</event>
<event>
 4    2  0.3171963E-007  0.7998659E+03  0.7818608E-02  0.9711086E-01
          2   -1    0    0  501    0  0.00000000000E+00  0.00000000000E+00  0.13497584698E+04  0.13497584698E+04  0.25500000000E-02 0. -1.
         -2   -1    0    0    0  501 -0.00000000000E+00 -0.00000000000E+00 -0.14243510945E+04  0.14243510945E+04  0.25500000000E-02 0.  1.
    8880023    1    1    2    0    0  0.43946092353E+03  0.11335473332E+03  0.11832148712E+04  0.14282096613E+04  0.65864270000E+03 0.  0.
    8880022    1    1    2    0    0 -0.43946092353E+03 -0.11335473332E+03 -0.12578074959E+04  0.13458999029E+04  0.15294330000E+03 0.  0.
<mgrwt>
<rscale>  0 0.70360547E+03</rscale>
<asrwt>0</asrwt>
<pdfrwt beam="1">  1        2 0.20765515E+00 0.79986587E+03</pdfrwt>
<pdfrwt beam="2">  1       -2 0.21913094E+00 0.79986587E+03</pdfrwt>
<totfact> 0.15854978E+00</totfact>
</mgrwt>
</event>
<event>
 4    2  0.3171963E-007  0.9332461E+03  0.7818608E-02  0.9474640E-01
         -2   -1    0    0    0  501 -0.00000000000E+00  0.00000000000E+00  0.41592752037E+03  0.41592752037E+03  0.25500000000E-02 0.  1.
          2   -1    0    0  501    0  0.00000000000E+00 -0.00000000000E+00 -0.31917562382E+04  0.31917562382E+04  0.25500000000E-02 0. -1.
    8880023    1    1    2    0    0  0.26312020273E+02 -0.66064044501E+03 -0.27764085747E+04  0.29290600710E+04  0.65864270000E+03 0.  0.
    8880022    1    1    2    0    0 -0.26312020273E+02  0.66064044501E+03  0.57985686092E+00  0.67862368751E+03  0.15294330000E+03 0.  0.
<mgrwt>
<rscale>  0 0.86179577E+03</rscale>
<asrwt>0</asrwt>
<pdfrwt beam="1">  1        2 0.49103941E+00 0.93324612E+03</pdfrwt>
<pdfrwt beam="2">  1       -2 0.63988851E-01 0.93324612E+03</pdfrwt>
<totfact> 0.30784307E+00</totfact>
</mgrwt>
</event>
<event>
 4    2  0.3171963E-007  0.1454498E+04  0.7818608E-02  0.8942453E-01
         -2   -1    0    0    0  501 -0.00000000000E+00  0.00000000000E+00  0.19660833492E+04  0.19660833492E+04  0.25500000000E-02 0.  1.
          2   -1    0    0  501    0  0.00000000000E+00 -0.00000000000E+00 -0.12198514824E+04  0.12198514824E+04  0.25500000000E-02 0. -1.
    8880023    1    1    2    0    0  0.40838496960E+03 -0.12308431955E+04  0.11108439107E+04  0.18301742145E+04  0.65864270000E+03 0.  1.
    8880022    1    1    2    0    0 -0.40838496960E+03  0.12308431955E+04 -0.36461204385E+03  0.13557606171E+04  0.15294330000E+03 0.  0.
<mgrwt>
<rscale>  0 0.14158099E+04</rscale>
<asrwt>0</asrwt>
<pdfrwt beam="1">  1        2 0.18766946E+00 0.14544977E+04</pdfrwt>
<pdfrwt beam="2">  1       -2 0.30247436E+00 0.14544977E+04</pdfrwt>
<totfact> 0.53670813E-01</totfact>
</mgrwt>
</event>
<event>
 4    2  0.3171963E-007  0.6717071E+03  0.7818608E-02  0.1014468E+00
         -2   -1    0    0    0  501 -0.00000000000E+00  0.00000000000E+00  0.11868592853E+04  0.11868592853E+04  0.25500000000E-02 0.  1.
          2   -1    0    0  501    0  0.00000000000E+00 -0.00000000000E+00 -0.24020618093E+03  0.24020618094E+03  0.25500000000E-02 0. -1.
    8880023    1    1    2    0    0  0.10794998767E+03  0.75677231462E+02  0.27517906702E+03  0.72588839940E+03  0.65864270000E+03 0. -1.
    8880022    1    1    2    0    0 -0.10794998767E+03 -0.75677231462E+02  0.67147403736E+03  0.70117706685E+03  0.15294330000E+03 0.  0.
<mgrwt>
<rscale>  0 0.49737056E+03</rscale>
<asrwt>0</asrwt>
<pdfrwt beam="1">  1        2 0.36954797E-01 0.67170712E+03</pdfrwt>
<pdfrwt beam="2">  1       -2 0.18259373E+00 0.67170712E+03</pdfrwt>
<totfact> 0.24993708E+01</totfact>
</mgrwt>
</event>
<event>
 4    2  0.3171963E-007  0.7172766E+03  0.7818608E-02  0.9931911E-01
         -2   -1    0    0    0  501 -0.00000000000E+00  0.00000000000E+00  0.43192300263E+03  0.43192300264E+03  0.25500000000E-02 0.  1.
          2   -1    0    0  501    0  0.00000000000E+00 -0.00000000000E+00 -0.28573234885E+04  0.28573234885E+04  0.25500000000E-02 0. -1.
    8880023    1    1    2    0    0  0.27673050329E+03 -0.63997542342E+02 -0.27437884594E+04  0.28359937894E+04  0.65864270000E+03 0. -1.
    8880022    1    1    2    0    0 -0.27673050329E+03  0.63997542342E+02  0.31838797361E+03  0.45325270174E+03  0.15294330000E+03 0.  0.
<mgrwt>
<rscale>  0 0.58739354E+03</rscale>
<asrwt>0</asrwt>
<pdfrwt beam="1">  1        2 0.43958822E+00 0.71727656E+03</pdfrwt>
<pdfrwt beam="2">  1       -2 0.66449694E-01 0.71727656E+03</pdfrwt>
<totfact> 0.47445776E+00</totfact>
</mgrwt>
</event>
<event>
 4    2  0.3171963E-007  0.1516443E+04  0.7818608E-02  0.8898111E-01
          2   -1    0    0  501    0  0.00000000000E+00  0.00000000000E+00  0.17047366951E+04  0.17047366951E+04  0.25500000000E-02 0. -1.
         -2   -1    0    0    0  501 -0.00000000000E+00 -0.00000000000E+00 -0.14532256600E+04  0.14532256600E+04  0.25500000000E-02 0.  1.
    8880023    1    1    2    0    0  0.46576292634E+03  0.12840775634E+04 -0.49329350885E+03  0.15946595200E+04  0.65864270000E+03 0.  0.
    8880022    1    1    2    0    0 -0.46576292634E+03 -0.12840775634E+04  0.74480454398E+03  0.15633028351E+04  0.15294330000E+03 0.  0.
<mgrwt>
<rscale>  0 0.14796325E+04</rscale>
<asrwt>0</asrwt>
<pdfrwt beam="1">  1        2 0.26226718E+00 0.15164434E+04</pdfrwt>
<pdfrwt beam="2">  1       -2 0.22357318E+00 0.15164434E+04</pdfrwt>
<totfact> 0.85782116E-01</totfact>
</mgrwt>
</event>
<event>
 4    2  0.3171963E-007  0.7708164E+03  0.7818608E-02  0.9777869E-01
         -2   -1    0    0    0  501 -0.00000000000E+00  0.00000000000E+00  0.19235484434E+03  0.19235484436E+03  0.25500000000E-02 0.  1.
          2   -1    0    0  501    0  0.00000000000E+00 -0.00000000000E+00 -0.43754932357E+04  0.43754932357E+04  0.25500000000E-02 0. -1.
    8880023    1    1    2    0    0  0.10823546900E+03 -0.38552921393E+03 -0.40445591186E+04  0.41173555058E+04  0.65864270000E+03 0. -1.
    8880022    1    1    2    0    0 -0.10823546900E+03  0.38552921393E+03 -0.13857927275E+03  0.45049257419E+03  0.15294330000E+03 0.  0.
<mgrwt>
<rscale>  0 0.66563856E+03</rscale>
<asrwt>0</asrwt>
<pdfrwt beam="1">  1        2 0.67315273E+00 0.77081638E+03</pdfrwt>
<pdfrwt beam="2">  1       -2 0.29593056E-01 0.77081638E+03</pdfrwt>
<totfact> 0.19093375E+00</totfact>
</mgrwt>
</event>
<event>
 4    2  0.3171963E-007  0.8520056E+03  0.7818608E-02  0.9607945E-01
          2   -1    0    0  501    0  0.00000000000E+00  0.00000000000E+00  0.18757089790E+04  0.18757089790E+04  0.25500000000E-02 0. -1.
         -2   -1    0    0    0  501 -0.00000000000E+00 -0.00000000000E+00 -0.47922473513E+03  0.47922473514E+03  0.25500000000E-02 0.  1.
    8880023    1    1    2    0    0 -0.46443114986E+03  0.27641833328E+03  0.15534219958E+04  0.17717317774E+04  0.65864270000E+03 0. -1.
    8880022    1    1    2    0    0  0.46443114986E+03 -0.27641833328E+03 -0.15693775195E+03  0.58320193667E+03  0.15294330000E+03 0.  1.
<mgrwt>
<rscale>  0 0.76772541E+03</rscale>
<asrwt>0</asrwt>
<pdfrwt beam="1">  1        2 0.28857061E+00 0.85200563E+03</pdfrwt>
<pdfrwt beam="2">  1       -2 0.73726882E-01 0.85200563E+03</pdfrwt>
<totfact> 0.13227500E+01</totfact>
</mgrwt>
</event>
<event>
 4    2  0.3171963E-007  0.6719531E+03  0.7818608E-02  0.1014300E+00
          2   -1    0    0  501    0  0.00000000000E+00  0.00000000000E+00  0.68656568230E+03  0.68656568231E+03  0.25500000000E-02 0. -1.
         -2   -1    0    0    0  501 -0.00000000000E+00 -0.00000000000E+00 -0.51294911495E+03  0.51294911496E+03  0.25500000000E-02 0.  1.
    8880023    1    1    2    0    0 -0.13180036016E+03 -0.18422587558E+02  0.48447040568E+03  0.82839151789E+03  0.65864270000E+03 0. -1.
    8880022    1    1    2    0    0  0.13180036016E+03  0.18422587558E+02 -0.31085383833E+03  0.37112327937E+03  0.15294330000E+03 0.  0.
<mgrwt>
<rscale>  0 0.49800944E+03</rscale>
<asrwt>0</asrwt>
<pdfrwt beam="1">  1        2 0.10562549E+00 0.67195307E+03</pdfrwt>
<pdfrwt beam="2">  1       -2 0.78915248E-01 0.67195307E+03</pdfrwt>
<totfact> 0.60960656E+01</totfact>
</mgrwt>
</event>
<event>
 4    2  0.3171963E-007  0.8223926E+03  0.7818608E-02  0.9664319E-01
         -2   -1    0    0    0  501 -0.00000000000E+00  0.00000000000E+00  0.41382820706E+03  0.41382820707E+03  0.25500000000E-02 0.  1.
          2   -1    0    0  501    0  0.00000000000E+00 -0.00000000000E+00 -0.15286402624E+04  0.15286402624E+04  0.25500000000E-02 0. -1.
    8880023    1    1    2    0    0 -0.48102893010E+03 -0.10550142748E+03 -0.11631781775E+04  0.14245395964E+04  0.65864270000E+03 0. -1.
    8880022    1    1    2    0    0  0.48102893010E+03  0.10550142748E+03  0.48366122164E+02  0.51792887309E+03  0.15294330000E+03 0.  0.
<mgrwt>
<rscale>  0 0.73181523E+03</rscale>
<asrwt>0</asrwt>
<pdfrwt beam="1">  1        2 0.23517542E+00 0.82239260E+03</pdfrwt>
<pdfrwt beam="2">  1       -2 0.63665879E-01 0.82239260E+03</pdfrwt>
<totfact> 0.28353681E+01</totfact>
</mgrwt>
</event>
<event>
 4    2  0.3171963E-007  0.7154325E+03  0.7818608E-02  0.9938355E-01
         -2   -1    0    0    0  501 -0.00000000000E+00  0.00000000000E+00  0.54172159756E+03  0.54172159757E+03  0.25500000000E-02 0.  1.
          2   -1    0    0  501    0  0.00000000000E+00 -0.00000000000E+00 -0.60078733296E+03  0.60078733296E+03  0.25500000000E-02 0. -1.
    8880023    1    1    2    0    0  0.18147758681E+02 -0.27875469081E+03 -0.26535918324E+03  0.76305912037E+03  0.65864270000E+03 0. -1.
    8880022    1    1    2    0    0 -0.18147758681E+02  0.27875469081E+03  0.20629344784E+03  0.37944981016E+03  0.15294330000E+03 0.  1.
<mgrwt>
<rscale>  0 0.58437918E+03</rscale>
<asrwt>0</asrwt>
<pdfrwt beam="1">  1        2 0.92428820E-01 0.71543254E+03</pdfrwt>
<pdfrwt beam="2">  1       -2 0.83341785E-01 0.71543254E+03</pdfrwt>
<totfact> 0.63299569E+01</totfact>
</mgrwt>
</event>
<event>
 4    2  0.3171963E-007  0.7135826E+03  0.7818608E-02  0.9944930E-01
         -2   -1    0    0    0  501 -0.00000000000E+00  0.00000000000E+00  0.30621329855E+03  0.30621329856E+03  0.25500000000E-02 0.  1.
          2   -1    0    0  501    0  0.00000000000E+00 -0.00000000000E+00 -0.26622813699E+04  0.26622813699E+04  0.25500000000E-02 0. -1.
    8880023    1    1    2    0    0 -0.16968570631E+03 -0.21586269369E+03 -0.25164324699E+04  0.26156514529E+04  0.65864270000E+03 0. -1.
    8880022    1    1    2    0    0  0.16968570631E+03  0.21586269369E+03  0.16036439850E+03  0.35284321557E+03  0.15294330000E+03 0.  0.
<mgrwt>
<rscale>  0 0.58132326E+03</rscale>
<asrwt>0</asrwt>
<pdfrwt beam="1">  1        2 0.40958174E+00 0.71358261E+03</pdfrwt>
<pdfrwt beam="2">  1       -2 0.47109740E-01 0.71358261E+03</pdfrwt>
<totfact> 0.12644176E+01</totfact>
</mgrwt>
</event>
<event>
 4    2  0.3171963E-007  0.1236714E+04  0.7818608E-02  0.9122235E-01
         -2   -1    0    0    0  501 -0.00000000000E+00  0.00000000000E+00  0.27383249112E+04  0.27383249112E+04  0.25500000000E-02 0.  1.
          2   -1    0    0  501    0  0.00000000000E+00 -0.00000000000E+00 -0.57771977528E+03  0.57771977528E+03  0.25500000000E-02 0. -1.
    8880023    1    1    2    0    0 -0.10401155110E+04  0.11751774202E+03  0.47255618359E+03  0.13239222971E+04  0.65864270000E+03 0.  0.
    8880022    1    1    2    0    0  0.10401155110E+04 -0.11751774202E+03  0.16880489523E+04  0.19921223894E+04  0.15294330000E+03 0.  0.
<mgrwt>
<rscale>  0 0.11893446E+04</rscale>
<asrwt>0</asrwt>
<pdfrwt beam="1">  1        2 0.88879966E-01 0.12367138E+04</pdfrwt>
<pdfrwt beam="2">  1       -2 0.42128075E+00 0.12367138E+04</pdfrwt>
<totfact> 0.27582516E-01</totfact>
</mgrwt>
</event>
<event>
 4    2  0.3171963E-007  0.1599933E+04  0.7818608E-02  0.8842114E-01
         -2   -1    0    0    0  501 -0.00000000000E+00  0.00000000000E+00  0.19455901591E+04  0.19455901591E+04  0.25500000000E-02 0.  1.
          2   -1    0    0  501    0  0.00000000000E+00 -0.00000000000E+00 -0.22830741766E+04  0.22830741766E+04  0.25500000000E-02 0. -1.
    8880023    1    1    2    0    0 -0.12773953958E+04 -0.70302020444E+03 -0.16228518625E+04  0.22789108756E+04  0.65864270000E+03 0.  0.
    8880022    1    1    2    0    0  0.12773953958E+04  0.70302020444E+03  0.12853678450E+04  0.19497534600E+04  0.15294330000E+03 0.  0.
<mgrwt>
<rscale>  0 0.15653637E+04</rscale>
<asrwt>0</asrwt>
<pdfrwt beam="1">  1        2 0.35124218E+00 0.15999333E+04</pdfrwt>
<pdfrwt beam="2">  1       -2 0.29932156E+00 0.15999333E+04</pdfrwt>
<totfact> 0.13778041E-01</totfact>
</mgrwt>
</event>
<event>
 4    2  0.3171963E-007  0.7659637E+03  0.7818608E-02  0.9789906E-01
          2   -1    0    0  501    0  0.00000000000E+00  0.00000000000E+00  0.10551483856E+04  0.10551483856E+04  0.25500000000E-02 0. -1.
         -2   -1    0    0    0  501 -0.00000000000E+00 -0.00000000000E+00 -0.68855736363E+03  0.68855736364E+03  0.25500000000E-02 0.  1.
    8880023    1    1    2    0    0 -0.22336874130E+02  0.39037319840E+03  0.82249658462E+03  0.11239221539E+04  0.65864270000E+03 0.  0.
    8880022    1    1    2    0    0  0.22336874130E+02 -0.39037319840E+03 -0.45590556267E+03  0.61978359535E+03  0.15294330000E+03 0.  0.
<mgrwt>
<rscale>  0 0.65907081E+03</rscale>
<asrwt>0</asrwt>
<pdfrwt beam="1">  1        2 0.16233052E+00 0.76596369E+03</pdfrwt>
<pdfrwt beam="2">  1       -2 0.10593190E+00 0.76596369E+03</pdfrwt>
<totfact> 0.16980656E+01</totfact>
</mgrwt>
</event>
<event>
 4    2  0.3171963E-007  0.7545742E+03  0.7818608E-02  0.9819362E-01
          2   -1    0    0  501    0  0.00000000000E+00  0.00000000000E+00  0.14976437523E+04  0.14976437523E+04  0.25500000000E-02 0. -1.
         -2   -1    0    0    0  501 -0.00000000000E+00 -0.00000000000E+00 -0.33365861285E+03  0.33365861286E+03  0.25500000000E-02 0.  1.
    8880023    1    1    2    0    0  0.30417397630E+03 -0.20748531595E+03  0.12140793979E+04  0.14294652689E+04  0.65864270000E+03 0.  0.
    8880022    1    1    2    0    0 -0.30417397630E+03  0.20748531595E+03 -0.50094258484E+02  0.40183709628E+03  0.15294330000E+03 0.  0.
<mgrwt>
<rscale>  0 0.64333720E+03</rscale>
<asrwt>0</asrwt>
<pdfrwt beam="1">  1        2 0.23040673E+00 0.75457416E+03</pdfrwt>
<pdfrwt beam="2">  1       -2 0.51332094E-01 0.75457416E+03</pdfrwt>
<totfact> 0.46636908E+01</totfact>
</mgrwt>
</event>
<event>
 4    2  0.3171963E-007  0.6595354E+03  0.7818608E-02  0.1024638E+00
          2   -1    0    0  501    0  0.00000000000E+00  0.00000000000E+00  0.20692981641E+04  0.20692981641E+04  0.25500000000E-02 0. -1.
         -2   -1    0    0    0  501 -0.00000000000E+00 -0.00000000000E+00 -0.36503604122E+03  0.36503604123E+03  0.25500000000E-02 0.  1.
    8880023    1    1    2    0    0 -0.26517215770E+02 -0.21760308884E+02  0.19965534090E+04  0.21026679232E+04  0.65864270000E+03 0. -1.
    8880022    1    1    2    0    0  0.26517215770E+02  0.21760308884E+02 -0.29229128613E+03  0.33166628218E+03  0.15294330000E+03 0.  0.
<mgrwt>
<rscale>  0 0.46049562E+03</rscale>
<asrwt>0</asrwt>
<pdfrwt beam="1">  1        2 0.31835357E+00 0.65953535E+03</pdfrwt>
<pdfrwt beam="2">  1       -2 0.56159391E-01 0.65953535E+03</pdfrwt>
<totfact> 0.19105233E+01</totfact>
</mgrwt>
</event>
<event>
 4    2  0.3440091E-007  0.7317032E+03  0.7818608E-02  0.9884809E-01
          2   -1    0    0  501    0  0.00000000000E+00  0.00000000000E+00  0.17198722387E+04  0.17198722387E+04  0.25500000000E-02 0. -1.
         -2   -1    0    0    0  501 -0.00000000000E+00 -0.00000000000E+00 -0.67290741031E+03  0.67290741032E+03  0.25500000000E-02 0.  1.
    8880023    1    1    2    0    0 -0.31871520755E+03 -0.18517994715E+00  0.15868676883E+04  0.17474377483E+04  0.65864270000E+03 0. -1.
    8880022    1    1    2    0    0  0.31871520755E+03  0.18517994715E+00 -0.53990285984E+03  0.64534190077E+03  0.15294330000E+03 0.  0.
<mgrwt>
<rscale>  0 0.61003172E+03</rscale>
<asrwt>0</asrwt>
<pdfrwt beam="1">  1        2 0.26459573E+00 0.73170323E+03</pdfrwt>
<pdfrwt beam="2">  1       -2 0.10352422E+00 0.73170323E+03</pdfrwt>
<totfact> 0.75039863E+00</totfact>
</mgrwt>
</event>
<event>
 4    2  0.3171963E-007  0.9349935E+03  0.7818608E-02  0.9472042E-01
          2   -1    0    0  501    0  0.00000000000E+00  0.00000000000E+00  0.37533137784E+04  0.37533137784E+04  0.25500000000E-02 0. -1.
         -2   -1    0    0    0  501 -0.00000000000E+00 -0.00000000000E+00 -0.26826909784E+03  0.26826909785E+03  0.25500000000E-02 0.  1.
    8880023    1    1    2    0    0  0.63363524274E+03 -0.19725369072E+03  0.31028091853E+04  0.32406230398E+04  0.65864270000E+03 0. -1.
    8880022    1    1    2    0    0 -0.63363524274E+03  0.19725369072E+03  0.38223549528E+03  0.78095983649E+03  0.15294330000E+03 0.  1.
<mgrwt>
<rscale>  0 0.86376802E+03</rscale>
<asrwt>0</asrwt>
<pdfrwt beam="1">  1        2 0.57743282E+00 0.93499350E+03</pdfrwt>
<pdfrwt beam="2">  1       -2 0.41272174E-01 0.93499350E+03</pdfrwt>
<totfact> 0.31315809E+00</totfact>
</mgrwt>
</event>
<event>
 4    2  0.3171963E-007  0.1027210E+04  0.7818608E-02  0.9346793E-01
          2   -1    0    0  501    0  0.00000000000E+00  0.00000000000E+00  0.77580621024E+03  0.77580621024E+03  0.25500000000E-02 0. -1.
         -2   -1    0    0    0  501 -0.00000000000E+00 -0.00000000000E+00 -0.30637502459E+04  0.30637502459E+04  0.25500000000E-02 0.  1.
    8880023    1    1    2    0    0  0.37246042985E+03 -0.69471147477E+03 -0.27342941875E+04  0.29208775591E+04  0.65864270000E+03 0.  0.
    8880022    1    1    2    0    0 -0.37246042985E+03  0.69471147477E+03  0.44635015180E+03  0.91867889712E+03  0.15294330000E+03 0.  0.
<mgrwt>
<rscale>  0 0.96586807E+03</rscale>
<asrwt>0</asrwt>
<pdfrwt beam="1">  1        2 0.11935480E+00 0.10272103E+04</pdfrwt>
<pdfrwt beam="2">  1       -2 0.47134619E+00 0.10272103E+04</pdfrwt>
<totfact> 0.91189978E-02</totfact>
</mgrwt>
</event>
<event>
 4    2  0.3171963E-007  0.7856142E+03  0.7818608E-02  0.9742811E-01
          2   -1    0    0  501    0  0.00000000000E+00  0.00000000000E+00  0.25054113634E+04  0.25054113634E+04  0.25500000000E-02 0. -1.
         -2   -1    0    0    0  501 -0.00000000000E+00 -0.00000000000E+00 -0.16796893132E+03  0.16796893134E+03  0.25500000000E-02 0.  1.
    8880023    1    1    2    0    0  0.14600781957E+03  0.40256831245E+03  0.18328707855E+04  0.19941426860E+04  0.65864270000E+03 0. -1.
    8880022    1    1    2    0    0 -0.14600781957E+03 -0.40256831245E+03  0.50457164659E+03  0.67923760874E+03  0.15294330000E+03 0.  0.
<mgrwt>
<rscale>  0 0.68524088E+03</rscale>
<asrwt>0</asrwt>
<pdfrwt beam="1">  1        2 0.38544788E+00 0.78561424E+03</pdfrwt>
<pdfrwt beam="2">  1       -2 0.25841375E-01 0.78561424E+03</pdfrwt>
<totfact> 0.48337717E+01</totfact>
</mgrwt>
</event>
<event>
 4    2  0.4916291E-007  0.1144287E+04  0.7818608E-02  0.9213279E-01
         -2   -1    0    0    0  501 -0.00000000000E+00  0.00000000000E+00  0.13239521331E+04  0.13239521331E+04  0.25500000000E-02 0.  1.
          2   -1    0    0  501    0  0.00000000000E+00 -0.00000000000E+00 -0.24832153730E+04  0.24832153730E+04  0.25500000000E-02 0. -1.
    8880023    1    1    2    0    0 -0.91603675788E+03 -0.19094124473E+03 -0.21501835702E+04  0.24357096487E+04  0.65864270000E+03 0.  0.
    8880022    1    1    2    0    0  0.91603675788E+03  0.19094124473E+03  0.99092033027E+03  0.13714578574E+04  0.15294330000E+03 0.  0.
<mgrwt>
<rscale>  0 0.10917407E+04</rscale>
<asrwt>0</asrwt>
<pdfrwt beam="1">  1        2 0.38203313E+00 0.11442867E+04</pdfrwt>
<pdfrwt beam="2">  1       -2 0.20368494E+00 0.11442867E+04</pdfrwt>
<totfact> 0.44054863E-01</totfact>
</mgrwt>
</event>
<event>
 4    2  0.3171963E-007  0.9263804E+03  0.7818608E-02  0.9484945E-01
          2   -1    0    0  501    0  0.00000000000E+00  0.00000000000E+00  0.26089609517E+04  0.26089609517E+04  0.25500000000E-02 0. -1.
         -2   -1    0    0    0  501 -0.00000000000E+00 -0.00000000000E+00 -0.33831261467E+03  0.33831261468E+03  0.25500000000E-02 0.  1.
    8880023    1    1    2    0    0  0.52504130394E+03  0.38561895746E+03  0.20382881578E+04  0.22389281301E+04  0.65864270000E+03 0. -1.
    8880022    1    1    2    0    0 -0.52504130394E+03 -0.38561895746E+03  0.23236017922E+03  0.70834543628E+03  0.15294330000E+03 0.  0.
<mgrwt>
<rscale>  0 0.85402957E+03</rscale>
<asrwt>0</asrwt>
<pdfrwt beam="1">  1        2 0.40137861E+00 0.92638035E+03</pdfrwt>
<pdfrwt beam="2">  1       -2 0.52048094E-01 0.92638035E+03</pdfrwt>
<totfact> 0.10728963E+01</totfact>
</mgrwt>
</event>
<event>
 4    2  0.3171963E-007  0.7445727E+03  0.7818608E-02  0.9846822E-01
         -2   -1    0    0    0  501 -0.00000000000E+00  0.00000000000E+00  0.59306834791E+03  0.59306834791E+03  0.25500000000E-02 0.  1.
          2   -1    0    0  501    0  0.00000000000E+00 -0.00000000000E+00 -0.14338342280E+04  0.14338342280E+04  0.25500000000E-02 0. -1.
    8880023    1    1    2    0    0 -0.21553108888E+03 -0.27225848045E+03 -0.12586919595E+04  0.14624274292E+04  0.65864270000E+03 0.  0.
    8880022    1    1    2    0    0  0.21553108888E+03  0.27225848045E+03  0.41792607939E+03  0.56447514675E+03  0.15294330000E+03 0.  0.
<mgrwt>
<rscale>  0 0.62909225E+03</rscale>
<asrwt>0</asrwt>
<pdfrwt beam="1">  1        2 0.22058988E+00 0.74457272E+03</pdfrwt>
<pdfrwt beam="2">  1       -2 0.91241285E-01 0.74457272E+03</pdfrwt>
<totfact> 0.14508302E+01</totfact>
</mgrwt>
</event>
<event>
 4    2  0.3171963E-007  0.1175183E+04  0.7818608E-02  0.9181632E-01
          2   -1    0    0  501    0  0.00000000000E+00  0.00000000000E+00  0.13893210324E+04  0.13893210324E+04  0.25500000000E-02 0. -1.
         -2   -1    0    0    0  501 -0.00000000000E+00 -0.00000000000E+00 -0.10689716780E+04  0.10689716780E+04  0.25500000000E-02 0.  1.
    8880023    1    1    2    0    0  0.78849993213E+03 -0.57053624626E+03 -0.39608147040E+03  0.12401348671E+04  0.65864270000E+03 0.  1.
    8880022    1    1    2    0    0 -0.78849993213E+03  0.57053624626E+03  0.71643082481E+03  0.12181578432E+04  0.15294330000E+03 0.  0.
<mgrwt>
<rscale>  0 0.11245040E+04</rscale>
<asrwt>0</asrwt>
<pdfrwt beam="1">  1        2 0.21374170E+00 0.11751825E+04</pdfrwt>
<pdfrwt beam="2">  1       -2 0.16445718E+00 0.11751825E+04</pdfrwt>
<totfact> 0.33383411E+00</totfact>
</mgrwt>
</event>
<event>
 4    2  0.3171963E-007  0.1073663E+04  0.7818608E-02  0.9290962E-01
          2   -1    0    0  501    0  0.00000000000E+00  0.00000000000E+00  0.14488431873E+04  0.14488431873E+04  0.25500000000E-02 0. -1.
         -2   -1    0    0    0  501 -0.00000000000E+00 -0.00000000000E+00 -0.14750104701E+04  0.14750104701E+04  0.25500000000E-02 0.  1.
    8880023    1    1    2    0    0  0.76462847132E+03 -0.36644929139E+03  0.10792374515E+04  0.15223355298E+04  0.65864270000E+03 0.  0.
    8880022    1    1    2    0    0 -0.76462847132E+03  0.36644929139E+03 -0.11054047343E+04  0.14015181276E+04  0.15294330000E+03 0.  0.
<mgrwt>
<rscale>  0 0.10161921E+04</rscale>
<asrwt>0</asrwt>
<pdfrwt beam="1">  1        2 0.22289895E+00 0.10736629E+04</pdfrwt>
<pdfrwt beam="2">  1       -2 0.22692469E+00 0.10736629E+04</pdfrwt>
<totfact> 0.11954805E+00</totfact>
</mgrwt>
</event>
<event>
 4    2  0.3171963E-007  0.1073963E+04  0.7818608E-02  0.9290614E-01
          2   -1    0    0  501    0  0.00000000000E+00  0.00000000000E+00  0.72766710557E+03  0.72766710557E+03  0.25500000000E-02 0. -1.
         -2   -1    0    0    0  501 -0.00000000000E+00 -0.00000000000E+00 -0.14852726303E+04  0.14852726303E+04  0.25500000000E-02 0.  1.
    8880023    1    1    2    0    0  0.30841074555E+03 -0.79023398157E+03 -0.13224365879E+02  0.10740447028E+04  0.65864270000E+03 0.  0.
    8880022    1    1    2    0    0 -0.30841074555E+03  0.79023398157E+03 -0.74438115888E+03  0.11388950331E+04  0.15294330000E+03 0.  0.
<mgrwt>
<rscale>  0 0.10165158E+04</rscale>
<asrwt>0</asrwt>
<pdfrwt beam="1">  1        2 0.11194879E+00 0.10739633E+04</pdfrwt>
<pdfrwt beam="2">  1       -2 0.22850348E+00 0.10739633E+04</pdfrwt>
<totfact> 0.33662136E+00</totfact>
</mgrwt>
</event>
<event>
 4    2  0.3171963E-007  0.6749422E+03  0.7818608E-02  0.1012343E+00
          2   -1    0    0  501    0  0.00000000000E+00  0.00000000000E+00  0.25567951463E+04  0.25567951463E+04  0.25500000000E-02 0. -1.
         -2   -1    0    0    0  501 -0.00000000000E+00 -0.00000000000E+00 -0.72723023808E+03  0.72723023809E+03  0.25500000000E-02 0.  1.
    8880023    1    1    2    0    0  0.26082059926E+02  0.14510842397E+03  0.24954294522E+04  0.25850947924E+04  0.65864270000E+03 0.  0.
    8880022    1    1    2    0    0 -0.26082059926E+02 -0.14510842397E+03 -0.66586454395E+03  0.69893059202E+03  0.15294330000E+03 0.  1.
<mgrwt>
<rscale>  0 0.50554072E+03</rscale>
<asrwt>0</asrwt>
<pdfrwt beam="1">  1        2 0.39335311E+00 0.67494217E+03</pdfrwt>
<pdfrwt beam="2">  1       -2 0.11188157E+00 0.67494217E+03</pdfrwt>
<totfact> 0.21746668E+00</totfact>
</mgrwt>
</event>
<event>
 4    2  0.3171963E-007  0.7695229E+03  0.7818608E-02  0.9781050E-01
         -2   -1    0    0    0  501 -0.00000000000E+00  0.00000000000E+00  0.63010731740E+03  0.63010731740E+03  0.25500000000E-02 0.  1.
          2   -1    0    0  501    0  0.00000000000E+00 -0.00000000000E+00 -0.76653823745E+03  0.76653823745E+03  0.25500000000E-02 0. -1.
    8880023    1    1    2    0    0 -0.34644691659E+03  0.19577986936E+03 -0.42763692974E+03  0.88036286451E+03  0.65864270000E+03 0. -1.
    8880022    1    1    2    0    0  0.34644691659E+03 -0.19577986936E+03  0.29120600968E+03  0.51628269035E+03  0.15294330000E+03 0.  0.
<mgrwt>
<rscale>  0 0.66389518E+03</rscale>
<asrwt>0</asrwt>
<pdfrwt beam="1">  1        2 0.11792896E+00 0.76952286E+03</pdfrwt>
<pdfrwt beam="2">  1       -2 0.96939587E-01 0.76952286E+03</pdfrwt>
<totfact> 0.32790141E+01</totfact>
</mgrwt>
</event>
<event>
 4    2  0.3171963E-007  0.7176828E+03  0.7818608E-02  0.9930506E-01
         -2   -1    0    0    0  501 -0.00000000000E+00  0.00000000000E+00  0.29863969146E+03  0.29863969147E+03  0.25500000000E-02 0.  1.
          2   -1    0    0  501    0  0.00000000000E+00 -0.00000000000E+00 -0.13219592303E+04  0.13219592303E+04  0.25500000000E-02 0. -1.
    8880023    1    1    2    0    0 -0.24150844533E+03  0.15143338170E+03 -0.10754515067E+04  0.12929286708E+04  0.65864270000E+03 0. -1.
    8880022    1    1    2    0    0  0.24150844533E+03 -0.15143338170E+03  0.52131967898E+02  0.32767025093E+03  0.15294330000E+03 0.  1.
<mgrwt>
<rscale>  0 0.58805349E+03</rscale>
<asrwt>0</asrwt>
<pdfrwt beam="1">  1        2 0.20337834E+00 0.71768280E+03</pdfrwt>
<pdfrwt beam="2">  1       -2 0.45944569E-01 0.71768280E+03</pdfrwt>
<totfact> 0.73606785E+01</totfact>
</mgrwt>
</event>
<event>
 4    2  0.3171963E-007  0.1221510E+04  0.7818608E-02  0.9136491E-01
          2   -1    0    0  501    0  0.00000000000E+00  0.00000000000E+00  0.12344591202E+04  0.12344591202E+04  0.25500000000E-02 0. -1.
         -2   -1    0    0    0  501 -0.00000000000E+00 -0.00000000000E+00 -0.11427355256E+04  0.11427355256E+04  0.25500000000E-02 0.  1.
    8880023    1    1    2    0    0  0.52700845182E+03 -0.88348139515E+03 -0.31334999559E+03  0.12610613426E+04  0.65864270000E+03 0.  0.
    8880022    1    1    2    0    0 -0.52700845182E+03  0.88348139515E+03  0.40507359026E+03  0.11161333032E+04  0.15294330000E+03 0.  0.
<mgrwt>
<rscale>  0 0.11733691E+04</rscale>
<asrwt>0</asrwt>
<pdfrwt beam="1">  1        2 0.18991679E+00 0.12215103E+04</pdfrwt>
<pdfrwt beam="2">  1       -2 0.17580546E+00 0.12215103E+04</pdfrwt>
<totfact> 0.33966173E+00</totfact>
</mgrwt>
</event>
<event>
 4    2  0.3171963E-007  0.6840239E+03  0.7818608E-02  0.1007133E+00
         -2   -1    0    0    0  501 -0.00000000000E+00  0.00000000000E+00  0.68917036633E+03  0.68917036634E+03  0.25500000000E-02 0.  1.
          2   -1    0    0  501    0  0.00000000000E+00 -0.00000000000E+00 -0.44634858351E+03  0.44634858351E+03  0.25500000000E-02 0. -1.
    8880023    1    1    2    0    0 -0.34753537720E+02 -0.18130270298E+03 -0.12609911421E+03  0.69554990573E+03  0.65864270000E+03 0. -1.
    8880022    1    1    2    0    0  0.34753537720E+02  0.18130270298E+03  0.36892089704E+03  0.43996904412E+03  0.15294330000E+03 0.  0.
<mgrwt>
<rscale>  0 0.52630043E+03</rscale>
<asrwt>0</asrwt>
<pdfrwt beam="1">  1        2 0.68669013E-01 0.68402389E+03</pdfrwt>
<pdfrwt beam="2">  1       -2 0.10602621E+00 0.68402389E+03</pdfrwt>
<totfact> 0.51212128E+01</totfact>
</mgrwt>
</event>
<event>
 4    2  0.3171963E-007  0.8603466E+03  0.7818608E-02  0.9592947E-01
         -2   -1    0    0    0  501 -0.00000000000E+00  0.00000000000E+00  0.74750382611E+03  0.74750382611E+03  0.25500000000E-02 0.  1.
          2   -1    0    0  501    0  0.00000000000E+00 -0.00000000000E+00 -0.18723524583E+04  0.18723524583E+04  0.25500000000E-02 0. -1.
    8880023    1    1    2    0    0 -0.55097676346E+03 -0.53015997151E+02 -0.16376938524E+04  0.18499290393E+04  0.65864270000E+03 0. -1.
    8880022    1    1    2    0    0  0.55097676346E+03  0.53015997151E+02  0.51284522025E+03  0.76992724512E+03  0.15294330000E+03 0.  0.
<mgrwt>
<rscale>  0 0.77764746E+03</rscale>
<asrwt>0</asrwt>
<pdfrwt beam="1">  1        2 0.28805422E+00 0.86034661E+03</pdfrwt>
<pdfrwt beam="2">  1       -2 0.11500059E+00 0.86034661E+03</pdfrwt>
<totfact> 0.47127764E+00</totfact>
</mgrwt>
</event>
<event>
 4    2  0.3171963E-007  0.8515509E+03  0.7818608E-02  0.9608773E-01
         -2   -1    0    0    0  501 -0.00000000000E+00  0.00000000000E+00  0.25782422876E+03  0.25782422877E+03  0.25500000000E-02 0.  1.
          2   -1    0    0  501    0  0.00000000000E+00 -0.00000000000E+00 -0.23719265991E+04  0.23719265991E+04  0.25500000000E-02 0. -1.
    8880023    1    1    2    0    0  0.34280965009E+03  0.41690558098E+03 -0.17890777200E+04  0.19813979949E+04  0.65864270000E+03 0.  0.
    8880022    1    1    2    0    0 -0.34280965009E+03 -0.41690558098E+03 -0.32502465027E+03  0.64835283291E+03  0.15294330000E+03 0.  0.
<mgrwt>
<rscale>  0 0.76718228E+03</rscale>
<asrwt>0</asrwt>
<pdfrwt beam="1">  1        2 0.36491177E+00 0.85155089E+03</pdfrwt>
<pdfrwt beam="2">  1       -2 0.39665268E-01 0.85155089E+03</pdfrwt>
<totfact> 0.25477292E+01</totfact>
</mgrwt>
</event>
<event>
 4    2  0.3171963E-007  0.1325126E+04  0.7818608E-02  0.9044160E-01
         -2   -1    0    0    0  501 -0.00000000000E+00  0.00000000000E+00  0.16549228932E+04  0.16549228932E+04  0.25500000000E-02 0.  1.
          2   -1    0    0  501    0  0.00000000000E+00 -0.00000000000E+00 -0.20368263453E+04  0.20368263453E+04  0.25500000000E-02 0. -1.
    8880023    1    1    2    0    0 -0.25167902425E+03 -0.11219657874E+04  0.11607647698E+04  0.17616283991E+04  0.65864270000E+03 0.  0.
    8880022    1    1    2    0    0  0.25167902425E+03  0.11219657874E+04 -0.15426682218E+04  0.19301208395E+04  0.15294330000E+03 0.  0.
<mgrwt>
<rscale>  0 0.12817552E+04</rscale>
<asrwt>0</asrwt>
<pdfrwt beam="1">  1        2 0.31335790E+00 0.13251263E+04</pdfrwt>
<pdfrwt beam="2">  1       -2 0.25460352E+00 0.13251263E+04</pdfrwt>
<totfact> 0.36730377E-01</totfact>
</mgrwt>
</event>
<event>
 4    2  0.3171963E-007  0.7014749E+03  0.7818608E-02  0.9991137E-01
          2   -1    0    0  501    0  0.00000000000E+00  0.00000000000E+00  0.39471933421E+03  0.39471933422E+03  0.25500000000E-02 0. -1.
         -2   -1    0    0    0  501 -0.00000000000E+00 -0.00000000000E+00 -0.95367652182E+03  0.95367652183E+03  0.25500000000E-02 0.  1.
    8880023    1    1    2    0    0  0.17917450502E+03 -0.16171993562E+03  0.21084557878E+02  0.70179171103E+03  0.65864270000E+03 0.  0.
    8880022    1    1    2    0    0 -0.17917450502E+03  0.16171993562E+03 -0.58004174549E+03  0.64660414502E+03  0.15294330000E+03 0.  0.
<mgrwt>
<rscale>  0 0.56040581E+03</rscale>
<asrwt>0</asrwt>
<pdfrwt beam="1">  1        2 0.60726052E-01 0.70147491E+03</pdfrwt>
<pdfrwt beam="2">  1       -2 0.14671946E+00 0.70147491E+03</pdfrwt>
<totfact> 0.26066045E+01</totfact>
</mgrwt>
</event>
<event>
 4    2  0.3171963E-007  0.1131884E+04  0.7818608E-02  0.9226360E-01
         -2   -1    0    0    0  501 -0.00000000000E+00  0.00000000000E+00  0.79522844416E+03  0.79522844417E+03  0.25500000000E-02 0.  1.
          2   -1    0    0  501    0  0.00000000000E+00 -0.00000000000E+00 -0.22581729118E+04  0.22581729118E+04  0.25500000000E-02 0. -1.
    8880023    1    1    2    0    0 -0.53258682370E+03  0.75080177130E+03 -0.17437759333E+04  0.20789220131E+04  0.65864270000E+03 0. -1.
    8880022    1    1    2    0    0  0.53258682370E+03 -0.75080177130E+03  0.28083146569E+03  0.97447934288E+03  0.15294330000E+03 0.  0.
<mgrwt>
<rscale>  0 0.10785439E+04</rscale>
<asrwt>0</asrwt>
<pdfrwt beam="1">  1        2 0.34741121E+00 0.11318844E+04</pdfrwt>
<pdfrwt beam="2">  1       -2 0.12234284E+00 0.11318844E+04</pdfrwt>
<totfact> 0.23883380E+00</totfact>
</mgrwt>
</event>
<event>
 4    2  0.3171963E-007  0.6686561E+03  0.7818608E-02  0.1016645E+00
         -2   -1    0    0    0  501 -0.00000000000E+00  0.00000000000E+00  0.92816710014E+02  0.92816710049E+02  0.25500000000E-02 0.  1.
          2   -1    0    0  501    0  0.00000000000E+00 -0.00000000000E+00 -0.21252016587E+04  0.21252016587E+04  0.25500000000E-02 0. -1.
    8880023    1    1    2    0    0 -0.88140515389E+02 -0.74310496433E+02 -0.17781379429E+04  0.18997040692E+04  0.65864270000E+03 0. -1.
    8880022    1    1    2    0    0  0.88140515389E+02  0.74310496433E+02 -0.25424700586E+03  0.31831429961E+03  0.15294330000E+03 0.  1.
<mgrwt>
<rscale>  0 0.48916955E+03</rscale>
<asrwt>0</asrwt>
<pdfrwt beam="1">  1        2 0.32695407E+00 0.66865612E+03</pdfrwt>
<pdfrwt beam="2">  1       -2 0.14279495E-01 0.66865612E+03</pdfrwt>
<totfact> 0.22411588E+02</totfact>
</mgrwt>
</event>
<event>
 4    2  0.3171963E-007  0.8979422E+03  0.7818608E-02  0.9529343E-01
         -2   -1    0    0    0  501 -0.00000000000E+00  0.00000000000E+00  0.29645655597E+04  0.29645655597E+04  0.25500000000E-02 0.  1.
          2   -1    0    0  501    0  0.00000000000E+00 -0.00000000000E+00 -0.25176692110E+03  0.25176692111E+03  0.25500000000E-02 0. -1.
    8880023    1    1    2    0    0  0.39692072877E+03 -0.46362047869E+03  0.79969598653E+03  0.12024200141E+04  0.65864270000E+03 0.  0.
    8880022    1    1    2    0    0 -0.39692072877E+03  0.46362047869E+03  0.19131026520E+04  0.20139124667E+04  0.15294330000E+03 0.  0.
<mgrwt>
<rscale>  0 0.82154615E+03</rscale>
<asrwt>0</asrwt>
<pdfrwt beam="1">  1        2 0.38733374E-01 0.89794221E+03</pdfrwt>
<pdfrwt beam="2">  1       -2 0.45608699E+00 0.89794221E+03</pdfrwt>
<totfact> 0.43863725E-01</totfact>
</mgrwt>
</event>
<event>
 4    2  0.3171963E-007  0.7124751E+03  0.7818608E-02  0.9948922E-01
         -2   -1    0    0    0  501 -0.00000000000E+00  0.00000000000E+00  0.15999190655E+03  0.15999190657E+03  0.25500000000E-02 0.  1.
          2   -1    0    0  501    0  0.00000000000E+00 -0.00000000000E+00 -0.22700138246E+04  0.22700138246E+04  0.25500000000E-02 0. -1.
    8880023    1    1    2    0    0 -0.19037935070E+03  0.19382011471E+03 -0.19570912829E+04  0.20827450708E+04  0.65864270000E+03 0.  0.
    8880022    1    1    2    0    0  0.19037935070E+03 -0.19382011471E+03 -0.15293063508E+03  0.34726066031E+03  0.15294330000E+03 0.  0.
<mgrwt>
<rscale>  0 0.57947775E+03</rscale>
<asrwt>0</asrwt>
<pdfrwt beam="1">  1        2 0.34923287E+00 0.71247508E+03</pdfrwt>
<pdfrwt beam="2">  1       -2 0.24614141E-01 0.71247508E+03</pdfrwt>
<totfact> 0.72168587E+01</totfact>
</mgrwt>
</event>
<event>
 4    2  0.3171963E-007  0.6709953E+03  0.7818608E-02  0.1014959E+00
          2   -1    0    0  501    0  0.00000000000E+00  0.00000000000E+00  0.19412212238E+04  0.19412212238E+04  0.25500000000E-02 0. -1.
         -2   -1    0    0    0  501 -0.00000000000E+00 -0.00000000000E+00 -0.99243714737E+02  0.99243714770E+02  0.25500000000E-02 0.  1.
    8880023    1    1    2    0    0 -0.18734449511E+02 -0.12678122457E+03  0.15223434106E+04  0.16636598584E+04  0.65864270000E+03 0.  0.
    8880022    1    1    2    0    0  0.18734449511E+02  0.12678122457E+03  0.31963409845E+03  0.37680508013E+03  0.15294330000E+03 0.  0.
<mgrwt>
<rscale>  0 0.49550376E+03</rscale>
<asrwt>0</asrwt>
<pdfrwt beam="1">  1        2 0.29864941E+00 0.67099528E+03</pdfrwt>
<pdfrwt beam="2">  1       -2 0.15268264E-01 0.67099528E+03</pdfrwt>
<totfact> 0.25208712E+02</totfact>
</mgrwt>
</event>
<event>
 4    2  0.3171963E-007  0.7641037E+03  0.7818608E-02  0.9794597E-01
         -2   -1    0    0    0  501 -0.00000000000E+00  0.00000000000E+00  0.19549371443E+03  0.19549371445E+03  0.25500000000E-02 0.  1.
          2   -1    0    0  501    0  0.00000000000E+00 -0.00000000000E+00 -0.22357473852E+04  0.22357473852E+04  0.25500000000E-02 0. -1.
    8880023    1    1    2    0    0 -0.34956074937E+03  0.16688789664E+03 -0.17877941869E+04  0.19442382952E+04  0.65864270000E+03 0. -1.
    8880022    1    1    2    0    0  0.34956074937E+03 -0.16688789664E+03 -0.25245948390E+03  0.48700280448E+03  0.15294330000E+03 0.  0.
<mgrwt>
<rscale>  0 0.65653309E+03</rscale>
<asrwt>0</asrwt>
<pdfrwt beam="1">  1        2 0.34396112E+00 0.76410372E+03</pdfrwt>
<pdfrwt beam="2">  1       -2 0.30075958E-01 0.76410372E+03</pdfrwt>
<totfact> 0.51936880E+01</totfact>
</mgrwt>
</event>
<event>
 4    2  0.3171963E-007  0.6622803E+03  0.7818608E-02  0.1021933E+00
          2   -1    0    0  501    0  0.00000000000E+00  0.00000000000E+00  0.28626246194E+04  0.28626246194E+04  0.25500000000E-02 0. -1.
         -2   -1    0    0    0  501 -0.00000000000E+00 -0.00000000000E+00 -0.13252158084E+03  0.13252158087E+03  0.25500000000E-02 0.  1.
    8880023    1    1    2    0    0  0.69200959938E+02  0.40214778505E+01  0.27476256843E+04  0.28263159859E+04  0.65864270000E+03 0. -1.
    8880022    1    1    2    0    0 -0.69200959938E+02 -0.40214778505E+01 -0.17522645739E+02  0.16883021433E+03  0.15294330000E+03 0.  0.
<mgrwt>
<rscale>  0 0.46995465E+03</rscale>
<asrwt>0</asrwt>
<pdfrwt beam="1">  1        2 0.44040375E+00 0.66228027E+03</pdfrwt>
<pdfrwt beam="2">  1       -2 0.20387937E-01 0.66228027E+03</pdfrwt>
<totfact> 0.46563709E+01</totfact>
</mgrwt>
</event>
<event>
 4    2  0.3171963E-007  0.7415842E+03  0.7818608E-02  0.9855356E-01
          2   -1    0    0  501    0  0.00000000000E+00  0.00000000000E+00  0.10408499587E+04  0.10408499587E+04  0.25500000000E-02 0. -1.
         -2   -1    0    0    0  501 -0.00000000000E+00 -0.00000000000E+00 -0.92772607462E+03  0.92772607462E+03  0.25500000000E-02 0.  1.
    8880023    1    1    2    0    0  0.21947940066E+03 -0.26070247504E+03  0.85873877978E+03  0.11346274657E+04  0.65864270000E+03 0. -1.
    8880022    1    1    2    0    0 -0.21947940066E+03  0.26070247504E+03 -0.74561489567E+03  0.83394856764E+03  0.15294330000E+03 0.  0.
<mgrwt>
<rscale>  0 0.62474572E+03</rscale>
<asrwt>0</asrwt>
<pdfrwt beam="1">  1        2 0.16013076E+00 0.74158425E+03</pdfrwt>
<pdfrwt beam="2">  1       -2 0.14272709E+00 0.74158425E+03</pdfrwt>
<totfact> 0.82604015E+00</totfact>
</mgrwt>
</event>
<event>
 4    2  0.3171963E-007  0.7283605E+03  0.7818608E-02  0.9895250E-01
         -2   -1    0    0    0  501 -0.00000000000E+00  0.00000000000E+00  0.72274538755E+03  0.72274538756E+03  0.25500000000E-02 0.  1.
          2   -1    0    0  501    0  0.00000000000E+00 -0.00000000000E+00 -0.57974772794E+03  0.57974772795E+03  0.25500000000E-02 0. -1.
    8880023    1    1    2    0    0  0.30635885515E+03 -0.53320228310E+02 -0.25781470155E+03  0.77264313980E+03  0.65864270000E+03 0.  0.
    8880022    1    1    2    0    0 -0.30635885515E+03  0.53320228310E+02  0.40081236116E+03  0.52984997570E+03  0.15294330000E+03 0.  0.
<mgrwt>
<rscale>  0 0.60492055E+03</rscale>
<asrwt>0</asrwt>
<pdfrwt beam="1">  1        2 0.89191959E-01 0.72836049E+03</pdfrwt>
<pdfrwt beam="2">  1       -2 0.11119160E+00 0.72836049E+03</pdfrwt>
<totfact> 0.33561284E+01</totfact>
</mgrwt>
</event>
<event>
 4    2  0.3171963E-007  0.1064068E+04  0.7818608E-02  0.9302158E-01
          2   -1    0    0  501    0  0.00000000000E+00  0.00000000000E+00  0.93808433815E+03  0.93808433815E+03  0.25500000000E-02 0. -1.
         -2   -1    0    0    0  501 -0.00000000000E+00 -0.00000000000E+00 -0.12903996019E+04  0.12903996019E+04  0.25500000000E-02 0.  1.
    8880023    1    1    2    0    0 -0.83477229477E+03  0.39811517787E+02  0.35632280809E+03  0.11221434360E+04  0.65864270000E+03 0.  0.
    8880022    1    1    2    0    0  0.83477229477E+03 -0.39811517787E+02 -0.70863807180E+03  0.11063405040E+04  0.15294330000E+03 0.  0.
<mgrwt>
<rscale>  0 0.10058440E+04</rscale>
<asrwt>0</asrwt>
<pdfrwt beam="1">  1        2 0.14432067E+00 0.10640676E+04</pdfrwt>
<pdfrwt beam="2">  1       -2 0.19852302E+00 0.10640676E+04</pdfrwt>
<totfact> 0.37065476E+00</totfact>
</mgrwt>
</event>
<event>
 4    2  0.3171963E-007  0.1599086E+04  0.7818608E-02  0.8842662E-01
         -2   -1    0    0    0  501 -0.00000000000E+00  0.00000000000E+00  0.19240490552E+04  0.19240490552E+04  0.25500000000E-02 0.  1.
          2   -1    0    0  501    0  0.00000000000E+00 -0.00000000000E+00 -0.13988401877E+04  0.13988401877E+04  0.25500000000E-02 0. -1.
    8880023    1    1    2    0    0  0.74483382103E+03 -0.12523930408E+04  0.86614981007E+03  0.18185960105E+04  0.65864270000E+03 0.  0.
    8880022    1    1    2    0    0 -0.74483382103E+03  0.12523930408E+04 -0.34094094262E+03  0.15042932324E+04  0.15294330000E+03 0.  0.
<mgrwt>
<rscale>  0 0.15644951E+04</rscale>
<asrwt>0</asrwt>
<pdfrwt beam="1">  1        2 0.21520618E+00 0.15990860E+04</pdfrwt>
<pdfrwt beam="2">  1       -2 0.29600755E+00 0.15990860E+04</pdfrwt>
<totfact> 0.45444510E-01</totfact>
</mgrwt>
</event>
<event>
 4    2  0.3171963E-007  0.7258182E+03  0.7818608E-02  0.9903369E-01
         -2   -1    0    0    0  501 -0.00000000000E+00  0.00000000000E+00  0.37828684444E+03  0.37828684445E+03  0.25500000000E-02 0.  1.
          2   -1    0    0  501    0  0.00000000000E+00 -0.00000000000E+00 -0.83687747757E+03  0.83687747757E+03  0.25500000000E-02 0. -1.
    8880023    1    1    2    0    0 -0.60684003487E+02 -0.29886325808E+03 -0.48504982811E+03  0.87297499238E+03  0.65864270000E+03 0.  0.
    8880022    1    1    2    0    0  0.60684003487E+02  0.29886325808E+03  0.26459194981E+02  0.34218932964E+03  0.15294330000E+03 0.  0.
<mgrwt>
<rscale>  0 0.60098266E+03</rscale>
<asrwt>0</asrwt>
<pdfrwt beam="1">  1        2 0.12875038E+00 0.72581816E+03</pdfrwt>
<pdfrwt beam="2">  1       -2 0.58197976E-01 0.72581816E+03</pdfrwt>
<totfact> 0.90846424E+01</totfact>
</mgrwt>
</event>
<event>
 4    2  0.3171963E-007  0.1139038E+04  0.7818608E-02  0.9218788E-01
          2   -1    0    0  501    0  0.00000000000E+00  0.00000000000E+00  0.15962437666E+04  0.15962437666E+04  0.25500000000E-02 0. -1.
         -2   -1    0    0    0  501 -0.00000000000E+00 -0.00000000000E+00 -0.83701762456E+03  0.83701762456E+03  0.25500000000E-02 0.  1.
    8880023    1    1    2    0    0  0.69430012787E+03 -0.61769244808E+03 -0.11936413837E+03  0.11452749154E+04  0.65864270000E+03 0. -1.
    8880022    1    1    2    0    0 -0.69430012787E+03  0.61769244808E+03  0.87859028039E+03  0.12879864758E+04  0.15294330000E+03 0.  0.
<mgrwt>
<rscale>  0 0.10861587E+04</rscale>
<asrwt>0</asrwt>
<pdfrwt beam="1">  1        2 0.24557596E+00 0.11390377E+04</pdfrwt>
<pdfrwt beam="2">  1       -2 0.12877194E+00 0.11390377E+04</pdfrwt>
<totfact> 0.48841543E+00</totfact>
</mgrwt>
</event>
<event>
 4    2  0.3171963E-007  0.6737131E+03  0.7818608E-02  0.1013130E+00
         -2   -1    0    0    0  501 -0.00000000000E+00  0.00000000000E+00  0.32485992159E+03  0.32485992160E+03  0.25500000000E-02 0.  1.
          2   -1    0    0  501    0  0.00000000000E+00 -0.00000000000E+00 -0.22642569624E+04  0.22642569624E+04  0.25500000000E-02 0. -1.
    8880023    1    1    2    0    0  0.71147292104E+02  0.12254445789E+03 -0.21735637495E+04  0.22755809501E+04  0.65864270000E+03 0. -1.
    8880022    1    1    2    0    0 -0.71147292104E+02 -0.12254445789E+03  0.23416670869E+03  0.31353593384E+03  0.15294330000E+03 0.  0.
<mgrwt>
<rscale>  0 0.50249396E+03</rscale>
<asrwt>0</asrwt>
<pdfrwt beam="1">  1        2 0.34834722E+00 0.67371306E+03</pdfrwt>
<pdfrwt beam="2">  1       -2 0.49978451E-01 0.67371306E+03</pdfrwt>
<totfact> 0.18940810E+01</totfact>
</mgrwt>
</event>
<event>
 4    2  0.3171963E-007  0.6604944E+03  0.7818608E-02  0.1023656E+00
         -2   -1    0    0    0  501 -0.00000000000E+00  0.00000000000E+00  0.19963301249E+03  0.19963301251E+03  0.25500000000E-02 0.  1.
          2   -1    0    0  501    0  0.00000000000E+00 -0.00000000000E+00 -0.15800104956E+04  0.15800104956E+04  0.25500000000E-02 0. -1.
    8880023    1    1    2    0    0 -0.48158849978E+02  0.11107137700E+02 -0.14583868256E+04  0.16009825055E+04  0.65864270000E+03 0. -1.
    8880022    1    1    2    0    0  0.48158849978E+02 -0.11107137700E+02  0.78009342515E+02  0.17866100267E+03  0.15294330000E+03 0.  0.
<mgrwt>
<rscale>  0 0.46390220E+03</rscale>
<asrwt>0</asrwt>
<pdfrwt beam="1">  1        2 0.24307853E+00 0.66049440E+03</pdfrwt>
<pdfrwt beam="2">  1       -2 0.30712772E-01 0.66049440E+03</pdfrwt>
<totfact> 0.11534080E+02</totfact>
</mgrwt>
</event>
<event>
 4    2  0.3171963E-007  0.8052569E+03  0.7818608E-02  0.9699543E-01
         -2   -1    0    0    0  501 -0.00000000000E+00  0.00000000000E+00  0.87345416002E+03  0.87345416003E+03  0.25500000000E-02 0.  1.
          2   -1    0    0  501    0  0.00000000000E+00 -0.00000000000E+00 -0.13102081404E+04  0.13102081404E+04  0.25500000000E-02 0. -1.
    8880023    1    1    2    0    0 -0.30951383749E+03  0.34471678203E+03 -0.10981762606E+04  0.13617744971E+04  0.65864270000E+03 0. -1.
    8880022    1    1    2    0    0  0.30951383749E+03 -0.34471678203E+03  0.66142228023E+03  0.82188780330E+03  0.15294330000E+03 0.  0.
<mgrwt>
<rscale>  0 0.71044024E+03</rscale>
<asrwt>0</asrwt>
<pdfrwt beam="1">  1        2 0.20157048E+00 0.80525690E+03</pdfrwt>
<pdfrwt beam="2">  1       -2 0.13437756E+00 0.80525690E+03</pdfrwt>
<totfact> 0.66049918E+00</totfact>
</mgrwt>
</event>
<event>
 4    2  0.3171963E-007  0.1324429E+04  0.7818608E-02  0.9044746E-01
         -2   -1    0    0    0  501 -0.00000000000E+00  0.00000000000E+00  0.13847066317E+04  0.13847066317E+04  0.25500000000E-02 0.  1.
          2   -1    0    0  501    0  0.00000000000E+00 -0.00000000000E+00 -0.21446795381E+04  0.21446795381E+04  0.25500000000E-02 0. -1.
    8880023    1    1    2    0    0  0.14799689069E+03  0.11394726459E+04 -0.16152644068E+04  0.20888251005E+04  0.65864270000E+03 0. -1.
    8880022    1    1    2    0    0 -0.14799689069E+03 -0.11394726459E+04  0.85529150052E+03  0.14405610693E+04  0.15294330000E+03 0.  1.
<mgrwt>
<rscale>  0 0.12810289E+04</rscale>
<asrwt>0</asrwt>
<pdfrwt beam="1">  1        2 0.32995070E+00 0.13244286E+04</pdfrwt>
<pdfrwt beam="2">  1       -2 0.21303179E+00 0.13244286E+04</pdfrwt>
<totfact> 0.58130356E-01</totfact>
</mgrwt>
</event>
<event>
 4    2  0.3171963E-007  0.1089424E+04  0.7818608E-02  0.9272924E-01
         -2   -1    0    0    0  501 -0.00000000000E+00  0.00000000000E+00  0.21275228376E+04  0.21275228376E+04  0.25500000000E-02 0.  1.
          2   -1    0    0  501    0  0.00000000000E+00 -0.00000000000E+00 -0.77276241314E+03  0.77276241315E+03  0.25500000000E-02 0. -1.
    8880023    1    1    2    0    0 -0.46913854725E+02  0.86650589878E+03  0.16445900650E+04  0.19726936079E+04  0.65864270000E+03 0.  0.
    8880022    1    1    2    0    0  0.46913854725E+02 -0.86650589878E+03 -0.28982964053E+03  0.92759164288E+03  0.15294330000E+03 0.  0.
<mgrwt>
<rscale>  0 0.10331420E+04</rscale>
<asrwt>0</asrwt>
<pdfrwt beam="1">  1        2 0.11888653E+00 0.10894235E+04</pdfrwt>
<pdfrwt beam="2">  1       -2 0.32731120E+00 0.10894235E+04</pdfrwt>
<totfact> 0.77553914E-01</totfact>
</mgrwt>
</event>
<event>
 4    2  0.3171963E-007  0.1074227E+04  0.7818608E-02  0.9290309E-01
          2   -1    0    0  501    0  0.00000000000E+00  0.00000000000E+00  0.96503468517E+03  0.96503468517E+03  0.25500000000E-02 0. -1.
         -2   -1    0    0    0  501 -0.00000000000E+00 -0.00000000000E+00 -0.10718220699E+04  0.10718220699E+04  0.25500000000E-02 0.  1.
    8880023    1    1    2    0    0  0.28231240834E+03 -0.80028258449E+03 -0.36858397045E+03  0.11357010436E+04  0.65864270000E+03 0.  0.
    8880022    1    1    2    0    0 -0.28231240834E+03  0.80028258449E+03  0.26179658574E+03  0.90115571144E+03  0.15294330000E+03 0.  0.
<mgrwt>
<rscale>  0 0.10167994E+04</rscale>
<asrwt>0</asrwt>
<pdfrwt beam="1">  1        2 0.14846687E+00 0.10742266E+04</pdfrwt>
<pdfrwt beam="2">  1       -2 0.16489570E+00 0.10742266E+04</pdfrwt>
<totfact> 0.60589089E+00</totfact>
</mgrwt>
</event>
<event>
 4    2  0.3171963E-007  0.6600372E+03  0.7818608E-02  0.1024118E+00
          2   -1    0    0  501    0  0.00000000000E+00  0.00000000000E+00  0.20018457349E+03  0.20018457351E+03  0.25500000000E-02 0. -1.
         -2   -1    0    0    0  501 -0.00000000000E+00 -0.00000000000E+00 -0.83833054814E+03  0.83833054815E+03  0.25500000000E-02 0.  1.
    8880023    1    1    2    0    0 -0.41998237727E+02 -0.86633857775E+01 -0.50068674686E+03  0.82845418158E+03  0.65864270000E+03 0.  1.
    8880022    1    1    2    0    0  0.41998237727E+02  0.86633857775E+01 -0.13745922779E+03  0.21006094008E+03  0.15294330000E+03 0.  0.
<mgrwt>
<rscale>  0 0.46229285E+03</rscale>
<asrwt>0</asrwt>
<pdfrwt beam="1">  1        2 0.30797627E-01 0.66003721E+03</pdfrwt>
<pdfrwt beam="2">  1       -2 0.12897393E+00 0.66003721E+03</pdfrwt>
<totfact> 0.77618956E+01</totfact>
</mgrwt>
</event>
<event>
 4    2  0.3171963E-007  0.9066820E+03  0.7818608E-02  0.9515389E-01
          2   -1    0    0  501    0  0.00000000000E+00  0.00000000000E+00  0.32247191726E+04  0.32247191726E+04  0.25500000000E-02 0. -1.
         -2   -1    0    0    0  501 -0.00000000000E+00 -0.00000000000E+00 -0.45315988258E+03  0.45315988258E+03  0.25500000000E-02 0.  1.
    8880023    1    1    2    0    0 -0.27984791441E+03  0.55672902756E+03  0.28869528196E+04  0.30259822957E+04  0.65864270000E+03 0. -1.
    8880022    1    1    2    0    0  0.27984791441E+03 -0.55672902756E+03 -0.11539352954E+03  0.65189675946E+03  0.15294330000E+03 0.  0.
<mgrwt>
<rscale>  0 0.83158712E+03</rscale>
<asrwt>0</asrwt>
<pdfrwt beam="1">  1        2 0.49611066E+00 0.90668201E+03</pdfrwt>
<pdfrwt beam="2">  1       -2 0.69716903E-01 0.90668201E+03</pdfrwt>
<totfact> 0.24458898E+00</totfact>
</mgrwt>
</event>
<event>
 4    2  0.3171963E-007  0.8507237E+03  0.7818608E-02  0.9610282E-01
         -2   -1    0    0    0  501 -0.00000000000E+00  0.00000000000E+00  0.54419825436E+03  0.54419825437E+03  0.25500000000E-02 0.  1.
          2   -1    0    0  501    0  0.00000000000E+00 -0.00000000000E+00 -0.18252101066E+04  0.18252101066E+04  0.25500000000E-02 0. -1.
    8880023    1    1    2    0    0 -0.21902947063E+03 -0.49188085844E+03 -0.15348101442E+04  0.17548142559E+04  0.65864270000E+03 0. -1.
    8880022    1    1    2    0    0  0.21902947063E+03  0.49188085844E+03  0.25379829195E+03  0.61459410502E+03  0.15294330000E+03 0.  0.
<mgrwt>
<rscale>  0 0.76619375E+03</rscale>
<asrwt>0</asrwt>
<pdfrwt beam="1">  1        2 0.28080155E+00 0.85072375E+03</pdfrwt>
<pdfrwt beam="2">  1       -2 0.83722809E-01 0.85072375E+03</pdfrwt>
<totfact> 0.10599810E+01</totfact>
</mgrwt>
</event>
<event>
 4    2  0.3171963E-007  0.9526239E+03  0.7818608E-02  0.9446349E-01
          2   -1    0    0  501    0  0.00000000000E+00  0.00000000000E+00  0.31769530299E+04  0.31769530299E+04  0.25500000000E-02 0. -1.
         -2   -1    0    0    0  501 -0.00000000000E+00 -0.00000000000E+00 -0.30939963226E+03  0.30939963227E+03  0.25500000000E-02 0.  1.
    8880023    1    1    2    0    0  0.21107333499E+03  0.65508021996E+03  0.25325202323E+04  0.27057625507E+04  0.65864270000E+03 0.  0.
    8880022    1    1    2    0    0 -0.21107333499E+03 -0.65508021996E+03  0.33503316536E+03  0.78059011154E+03  0.15294330000E+03 0.  0.
<mgrwt>
<rscale>  0 0.88357556E+03</rscale>
<asrwt>0</asrwt>
<pdfrwt beam="1">  1        2 0.48876201E+00 0.95262388E+03</pdfrwt>
<pdfrwt beam="2">  1       -2 0.47599943E-01 0.95262388E+03</pdfrwt>
<totfact> 0.58107459E+00</totfact>
</mgrwt>
</event>
<event>
 4    2  0.3171963E-007  0.8846409E+03  0.7818608E-02  0.9551152E-01
          2   -1    0    0  501    0  0.00000000000E+00  0.00000000000E+00  0.51427970901E+03  0.51427970901E+03  0.25500000000E-02 0. -1.
         -2   -1    0    0    0  501 -0.00000000000E+00 -0.00000000000E+00 -0.21927772067E+04  0.21927772067E+04  0.25500000000E-02 0.  1.
    8880023    1    1    2    0    0  0.44957352926E+03 -0.38296601044E+03  0.37914403792E+02  0.88545300928E+03  0.65864270000E+03 0.  0.
    8880022    1    1    2    0    0 -0.44957352926E+03  0.38296601044E+03 -0.17164119015E+04  0.18216039065E+04  0.15294330000E+03 0.  0.
<mgrwt>
<rscale>  0 0.80615411E+03</rscale>
<asrwt>0</asrwt>
<pdfrwt beam="1">  1        2 0.79119956E-01 0.88464090E+03</pdfrwt>
<pdfrwt beam="2">  1       -2 0.33735033E+00 0.88464090E+03</pdfrwt>
<totfact> 0.11451181E+00</totfact>
</mgrwt>
</event>
<event>
 4    2  0.3171963E-007  0.7953808E+03  0.7818608E-02  0.9720874E-01
          2   -1    0    0  501    0  0.00000000000E+00  0.00000000000E+00  0.18122343795E+04  0.18122343795E+04  0.25500000000E-02 0. -1.
         -2   -1    0    0    0  501 -0.00000000000E+00 -0.00000000000E+00 -0.38938786029E+03  0.38938786030E+03  0.25500000000E-02 0.  1.
    8880023    1    1    2    0    0  0.24350225782E+03  0.37353322148E+03  0.15243886346E+04  0.17194159859E+04  0.65864270000E+03 0. -1.
    8880022    1    1    2    0    0 -0.24350225782E+03 -0.37353322148E+03 -0.10154211534E+03  0.48220625391E+03  0.15294330000E+03 0.  0.
<mgrwt>
<rscale>  0 0.69787443E+03</rscale>
<asrwt>0</asrwt>
<pdfrwt beam="1">  1        2 0.27880528E+00 0.79538080E+03</pdfrwt>
<pdfrwt beam="2">  1       -2 0.59905826E-01 0.79538080E+03</pdfrwt>
<totfact> 0.22600900E+01</totfact>
</mgrwt>
</event>
<event>
 4    2  0.3171963E-007  0.6923848E+03  0.7818608E-02  0.1003039E+00
         -2   -1    0    0    0  501 -0.00000000000E+00  0.00000000000E+00  0.57781919781E+03  0.57781919782E+03  0.25500000000E-02 0.  1.
          2   -1    0    0  501    0  0.00000000000E+00 -0.00000000000E+00 -0.93665479894E+03  0.93665479895E+03  0.25500000000E-02 0. -1.
    8880023    1    1    2    0    0 -0.18709997981E+03 -0.10285959140E+03 -0.76435954326E+03  0.10313303135E+04  0.65864270000E+03 0. -1.
    8880022    1    1    2    0    0  0.18709997981E+03  0.10285959140E+03  0.40552394213E+03  0.48314368323E+03  0.15294330000E+03 0.  0.
<mgrwt>
<rscale>  0 0.54337491E+03</rscale>
<asrwt>0</asrwt>
<pdfrwt beam="1">  1        2 0.14410074E+00 0.69238479E+03</pdfrwt>
<pdfrwt beam="2">  1       -2 0.88895261E-01 0.69238479E+03</pdfrwt>
<totfact> 0.30765505E+01</totfact>
</mgrwt>
</event>
<event>
 4    2  0.3171963E-007  0.7155997E+03  0.7818608E-02  0.9937766E-01
          2   -1    0    0  501    0  0.00000000000E+00  0.00000000000E+00  0.10094040639E+04  0.10094040639E+04  0.25500000000E-02 0. -1.
         -2   -1    0    0    0  501 -0.00000000000E+00 -0.00000000000E+00 -0.11008989185E+04  0.11008989185E+04  0.25500000000E-02 0.  1.
    8880023    1    1    2    0    0 -0.25942272451E+03  0.10474975955E+03  0.85301515706E+03  0.11134261208E+04  0.65864270000E+03 0.  0.
    8880022    1    1    2    0    0  0.25942272451E+03 -0.10474975955E+03 -0.94451001166E+03  0.99687686163E+03  0.15294330000E+03 0.  0.
<mgrwt>
<rscale>  0 0.58465364E+03</rscale>
<asrwt>0</asrwt>
<pdfrwt beam="1">  1        2 0.15529293E+00 0.71559966E+03</pdfrwt>
<pdfrwt beam="2">  1       -2 0.16936906E+00 0.71559966E+03</pdfrwt>
<totfact> 0.54838592E+00</totfact>
</mgrwt>
</event>
<event>
 4    2  0.3171963E-007  0.7619219E+03  0.7818608E-02  0.9800157E-01
          2   -1    0    0  501    0  0.00000000000E+00  0.00000000000E+00  0.15139181582E+04  0.15139181582E+04  0.25500000000E-02 0. -1.
         -2   -1    0    0    0  501 -0.00000000000E+00 -0.00000000000E+00 -0.23703137454E+03  0.23703137455E+03  0.25500000000E-02 0.  1.
    8880023    1    1    2    0    0 -0.99383657572E+02 -0.36991572153E+03  0.98677867109E+03  0.12466984818E+04  0.65864270000E+03 0.  1.
    8880022    1    1    2    0    0  0.99383657572E+02  0.36991572153E+03  0.29010811254E+03  0.50425105097E+03  0.15294330000E+03 0.  0.
<mgrwt>
<rscale>  0 0.65354112E+03</rscale>
<asrwt>0</asrwt>
<pdfrwt beam="1">  1        2 0.23291048E+00 0.76192188E+03</pdfrwt>
<pdfrwt beam="2">  1       -2 0.36466366E-01 0.76192188E+03</pdfrwt>
<totfact> 0.89833954E+01</totfact>
</mgrwt>
</event>
<event>
 4    2  0.3171963E-007  0.9040524E+03  0.7818608E-02  0.9519557E-01
         -2   -1    0    0    0  501 -0.00000000000E+00  0.00000000000E+00  0.81904431434E+03  0.81904431434E+03  0.25500000000E-02 0.  1.
          2   -1    0    0  501    0  0.00000000000E+00 -0.00000000000E+00 -0.12504654896E+04  0.12504654896E+04  0.25500000000E-02 0. -1.
    8880023    1    1    2    0    0  0.23557325949E+03 -0.57271789846E+03 -0.90181551273E+03  0.12769424329E+04  0.65864270000E+03 0.  0.
    8880022    1    1    2    0    0 -0.23557325949E+03  0.57271789846E+03  0.47039433748E+03  0.79256737098E+03  0.15294330000E+03 0.  0.
<mgrwt>
<rscale>  0 0.82857176E+03</rscale>
<asrwt>0</asrwt>
<pdfrwt beam="1">  1        2 0.19237931E+00 0.90405241E+03</pdfrwt>
<pdfrwt beam="2">  1       -2 0.12600682E+00 0.90405241E+03</pdfrwt>
<totfact> 0.83252421E+00</totfact>
</mgrwt>
</event>
<event>
 4    2  0.3171963E-007  0.6931202E+03  0.7818608E-02  0.1002703E+00
         -2   -1    0    0    0  501 -0.00000000000E+00  0.00000000000E+00  0.56716318024E+03  0.56716318025E+03  0.25500000000E-02 0.  1.
          2   -1    0    0  501    0  0.00000000000E+00 -0.00000000000E+00 -0.70079560671E+03  0.70079560671E+03  0.25500000000E-02 0. -1.
    8880023    1    1    2    0    0 -0.63407565020E+02 -0.20636114140E+03 -0.47190088150E+03  0.83851421467E+03  0.65864270000E+03 0. -1.
    8880022    1    1    2    0    0  0.63407565020E+02  0.20636114140E+03  0.33826845503E+03  0.42944457229E+03  0.15294330000E+03 0.  0.
<mgrwt>
<rscale>  0 0.54480543E+03</rscale>
<asrwt>0</asrwt>
<pdfrwt beam="1">  1        2 0.10781471E+00 0.69312022E+03</pdfrwt>
<pdfrwt beam="2">  1       -2 0.87255874E-01 0.69312022E+03</pdfrwt>
<totfact> 0.47247792E+01</totfact>
</mgrwt>
</event>
<event>
 4    2  0.3171963E-007  0.7635303E+03  0.7818608E-02  0.9796052E-01
         -2   -1    0    0    0  501 -0.00000000000E+00  0.00000000000E+00  0.24513836810E+03  0.24513836811E+03  0.25500000000E-02 0.  1.
          2   -1    0    0  501    0  0.00000000000E+00 -0.00000000000E+00 -0.19108099588E+04  0.19108099588E+04  0.25500000000E-02 0. -1.
    8880023    1    1    2    0    0 -0.23417229301E+03  0.30713458800E+03 -0.15450047990E+04  0.17233741187E+04  0.65864270000E+03 0.  0.
    8880022    1    1    2    0    0  0.23417229301E+03 -0.30713458800E+03 -0.12066679172E+03  0.43257420820E+03  0.15294330000E+03 0.  0.
<mgrwt>
<rscale>  0 0.65574836E+03</rscale>
<asrwt>0</asrwt>
<pdfrwt beam="1">  1        2 0.29397075E+00 0.76353030E+03</pdfrwt>
<pdfrwt beam="2">  1       -2 0.37713596E-01 0.76353030E+03</pdfrwt>
<totfact> 0.51000648E+01</totfact>
</mgrwt>
</event>
<event>
 4    2  0.3171963E-007  0.7034079E+03  0.7818608E-02  0.9983347E-01
         -2   -1    0    0    0  501 -0.00000000000E+00  0.00000000000E+00  0.10275614769E+04  0.10275614769E+04  0.25500000000E-02 0.  1.
          2   -1    0    0  501    0  0.00000000000E+00 -0.00000000000E+00 -0.14287206506E+04  0.14287206506E+04  0.25500000000E-02 0. -1.
    8880023    1    1    2    0    0  0.23280693890E+02  0.24582615431E+03 -0.13183139900E+04  0.14942337405E+04  0.65864270000E+03 0. -1.
    8880022    1    1    2    0    0 -0.23280693890E+02 -0.24582615431E+03  0.91715481632E+03  0.96204838701E+03  0.15294330000E+03 0.  0.
<mgrwt>
<rscale>  0 0.56386505E+03</rscale>
<asrwt>0</asrwt>
<pdfrwt beam="1">  1        2 0.21980318E+00 0.70340792E+03</pdfrwt>
<pdfrwt beam="2">  1       -2 0.15808638E+00 0.70340792E+03</pdfrwt>
<totfact> 0.37483838E+00</totfact>
</mgrwt>
</event>
<event>
 4    2  0.3171963E-007  0.7399131E+03  0.7818608E-02  0.9860200E-01
         -2   -1    0    0    0  501 -0.00000000000E+00  0.00000000000E+00  0.20843044771E+03  0.20843044772E+03  0.25500000000E-02 0.  1.
          2   -1    0    0  501    0  0.00000000000E+00 -0.00000000000E+00 -0.32674523257E+04  0.32674523257E+04  0.25500000000E-02 0. -1.
    8880023    1    1    2    0    0  0.19072536906E+03 -0.27800186687E+03 -0.30133595947E+04  0.31028708413E+04  0.65864270000E+03 0. -1.
    8880022    1    1    2    0    0 -0.19072536906E+03  0.27800186687E+03 -0.45662283272E+02  0.37301193213E+03  0.15294330000E+03 0.  0.
<mgrwt>
<rscale>  0 0.62229535E+03</rscale>
<asrwt>0</asrwt>
<pdfrwt beam="1">  1        2 0.50268494E+00 0.73991311E+03</pdfrwt>
<pdfrwt beam="2">  1       -2 0.32066225E-01 0.73991311E+03</pdfrwt>
<totfact> 0.11364809E+01</totfact>
</mgrwt>
</event>
<event>
 4    2  0.3171963E-007  0.7489969E+03  0.7818608E-02  0.9834474E-01
          2   -1    0    0  501    0  0.00000000000E+00  0.00000000000E+00  0.48340942117E+03  0.48340942118E+03  0.25500000000E-02 0. -1.
         -2   -1    0    0    0  501 -0.00000000000E+00 -0.00000000000E+00 -0.71776792416E+03  0.71776792416E+03  0.25500000000E-02 0.  1.
    8880023    1    1    2    0    0 -0.27723950326E+03 -0.22433090747E+03 -0.22239531823E+01  0.74900016719E+03  0.65864270000E+03 0.  0.
    8880022    1    1    2    0    0  0.27723950326E+03  0.22433090747E+03 -0.23213454981E+03  0.45217717815E+03  0.15294330000E+03 0.  0.
<mgrwt>
<rscale>  0 0.63544812E+03</rscale>
<asrwt>0</asrwt>
<pdfrwt beam="1">  1        2 0.74370680E-01 0.74899687E+03</pdfrwt>
<pdfrwt beam="2">  1       -2 0.11042583E+00 0.74899687E+03</pdfrwt>
<totfact> 0.42179702E+01</totfact>
</mgrwt>
</event>
<event>
 4    2  0.3171963E-007  0.8819971E+03  0.7818608E-02  0.9555573E-01
         -2   -1    0    0    0  501 -0.00000000000E+00  0.00000000000E+00  0.39939421594E+03  0.39939421595E+03  0.25500000000E-02 0.  1.
          2   -1    0    0  501    0  0.00000000000E+00 -0.00000000000E+00 -0.16001404110E+04  0.16001404110E+04  0.25500000000E-02 0. -1.
    8880023    1    1    2    0    0  0.42584129862E+03  0.40344502154E+03 -0.33679261483E+03  0.94411237079E+03  0.65864270000E+03 0.  0.
    8880022    1    1    2    0    0 -0.42584129862E+03 -0.40344502154E+03 -0.86395358027E+03  0.10554222562E+04  0.15294330000E+03 0.  0.
<mgrwt>
<rscale>  0 0.80307775E+03</rscale>
<asrwt>0</asrwt>
<pdfrwt beam="1">  1        2 0.24617545E+00 0.88199711E+03</pdfrwt>
<pdfrwt beam="2">  1       -2 0.61445265E-01 0.88199711E+03</pdfrwt>
<totfact> 0.27741274E+01</totfact>
</mgrwt>
</event>
<event>
 4    2  0.3171963E-007  0.6632026E+03  0.7818608E-02  0.1021091E+00
         -2   -1    0    0    0  501 -0.00000000000E+00  0.00000000000E+00  0.17681545733E+03  0.17681545735E+03  0.25500000000E-02 0.  1.
          2   -1    0    0  501    0  0.00000000000E+00 -0.00000000000E+00 -0.98520221052E+03  0.98520221053E+03  0.25500000000E-02 0. -1.
    8880023    1    1    2    0    0  0.52811683534E+02  0.56906772705E+02 -0.63897977795E+03  0.92094126718E+03  0.65864270000E+03 0. -1.
    8880022    1    1    2    0    0 -0.52811683534E+02 -0.56906772705E+02 -0.16940697524E+03  0.24107640070E+03  0.15294330000E+03 0.  1.
<mgrwt>
<rscale>  0 0.47294794E+03</rscale>
<asrwt>0</asrwt>
<pdfrwt beam="1">  1        2 0.15156957E+00 0.66320258E+03</pdfrwt>
<pdfrwt beam="2">  1       -2 0.27202379E-01 0.66320258E+03</pdfrwt>
<totfact> 0.32021981E+02</totfact>
</mgrwt>
</event>
<event>
 4    2  0.3171963E-007  0.7385297E+03  0.7818608E-02  0.9864251E-01
          2   -1    0    0  501    0  0.00000000000E+00  0.00000000000E+00  0.19981393168E+04  0.19981393168E+04  0.25500000000E-02 0. -1.
         -2   -1    0    0    0  501 -0.00000000000E+00 -0.00000000000E+00 -0.35327826312E+03  0.35327826313E+03  0.25500000000E-02 0.  1.
    8880023    1    1    2    0    0 -0.18004793832E+03 -0.28142242139E+03  0.18052713221E+04  0.19504949607E+04  0.65864270000E+03 0. -1.
    8880022    1    1    2    0    0  0.18004793832E+03  0.28142242139E+03 -0.16041026839E+03  0.40092261918E+03  0.15294330000E+03 0.  0.
<mgrwt>
<rscale>  0 0.62025559E+03</rscale>
<asrwt>0</asrwt>
<pdfrwt beam="1">  1        2 0.30740604E+00 0.73852965E+03</pdfrwt>
<pdfrwt beam="2">  1       -2 0.54350503E-01 0.73852965E+03</pdfrwt>
<totfact> 0.22095276E+01</totfact>
</mgrwt>
</event>
<event>
 4    2  0.3171963E-007  0.1377045E+04  0.7818608E-02  0.9001728E-01
         -2   -1    0    0    0  501 -0.00000000000E+00  0.00000000000E+00  0.10677635664E+04  0.10677635664E+04  0.25500000000E-02 0.  1.
          2   -1    0    0  501    0  0.00000000000E+00 -0.00000000000E+00 -0.17803722883E+04  0.17803722883E+04  0.25500000000E-02 0. -1.
    8880023    1    1    2    0    0  0.11280947337E+04  0.43571104278E+03  0.10394772124E+03  0.13809624093E+04  0.65864270000E+03 0.  0.
    8880022    1    1    2    0    0 -0.11280947337E+04 -0.43571104278E+03 -0.81655644311E+03  0.14671734453E+04  0.15294330000E+03 0.  0.
<mgrwt>
<rscale>  0 0.13356950E+04</rscale>
<asrwt>0</asrwt>
<pdfrwt beam="1">  1        2 0.27390343E+00 0.13770447E+04</pdfrwt>
<pdfrwt beam="2">  1       -2 0.16427132E+00 0.13770447E+04</pdfrwt>
<totfact> 0.19785503E+00</totfact>
</mgrwt>
</event>
<event>
 4    2  0.3171963E-007  0.9683510E+03  0.7818608E-02  0.9424188E-01
         -2   -1    0    0    0  501 -0.00000000000E+00  0.00000000000E+00  0.22867381386E+03  0.22867381387E+03  0.25500000000E-02 0.  1.
          2   -1    0    0  501    0  0.00000000000E+00 -0.00000000000E+00 -0.38231498380E+04  0.38231498380E+04  0.25500000000E-02 0. -1.
    8880023    1    1    2    0    0 -0.37795976954E+03  0.60086597994E+03 -0.28578989308E+04  0.30174973104E+04  0.65864270000E+03 0.  0.
    8880022    1    1    2    0    0  0.37795976954E+03 -0.60086597994E+03 -0.73657709335E+03  0.10343263415E+04  0.15294330000E+03 0. -1.
<mgrwt>
<rscale>  0 0.90111519E+03</rscale>
<asrwt>0</asrwt>
<pdfrwt beam="1">  1        2 0.58817685E+00 0.96835103E+03</pdfrwt>
<pdfrwt beam="2">  1       -2 0.35180590E-01 0.96835103E+03</pdfrwt>
<totfact> 0.37671065E+00</totfact>
</mgrwt>
</event>
<event>
 4    2  0.4167622E-007  0.9322596E+03  0.7818608E-02  0.9476112E-01
          2   -1    0    0  501    0  0.00000000000E+00  0.00000000000E+00  0.14184533239E+04  0.14184533239E+04  0.25500000000E-02 0. -1.
         -2   -1    0    0    0  501 -0.00000000000E+00 -0.00000000000E+00 -0.19472508272E+04  0.19472508272E+04  0.25500000000E-02 0.  1.
    8880023    1    1    2    0    0 -0.15513325816E+03 -0.64127324432E+03  0.11938386046E+04  0.15147140066E+04  0.65864270000E+03 0. -1.
    8880022    1    1    2    0    0  0.15513325816E+03  0.64127324432E+03 -0.17226361079E+04  0.18509901445E+04  0.15294330000E+03 0.  0.
<mgrwt>
<rscale>  0 0.86068151E+03</rscale>
<asrwt>0</asrwt>
<pdfrwt beam="1">  1        2 0.21822359E+00 0.93225957E+03</pdfrwt>
<pdfrwt beam="2">  1       -2 0.29957705E+00 0.93225957E+03</pdfrwt>
<totfact> 0.45890845E-01</totfact>
</mgrwt>
</event>
<event>
 4    2  0.3171963E-007  0.8071713E+03  0.7818608E-02  0.9695499E-01
         -2   -1    0    0    0  501 -0.00000000000E+00  0.00000000000E+00  0.40229322445E+03  0.40229322446E+03  0.25500000000E-02 0.  1.
          2   -1    0    0  501    0  0.00000000000E+00 -0.00000000000E+00 -0.17773683205E+04  0.17773683205E+04  0.25500000000E-02 0. -1.
    8880023    1    1    2    0    0  0.41100890255E+03  0.22087769253E+03 -0.14723532640E+04  0.16790919014E+04  0.65864270000E+03 0.  0.
    8880022    1    1    2    0    0 -0.41100890255E+03 -0.22087769253E+03  0.97278167995E+02  0.50056964352E+03  0.15294330000E+03 0.  0.
<mgrwt>
<rscale>  0 0.71285383E+03</rscale>
<asrwt>0</asrwt>
<pdfrwt beam="1">  1        2 0.27344128E+00 0.80717128E+03</pdfrwt>
<pdfrwt beam="2">  1       -2 0.61891266E-01 0.80717128E+03</pdfrwt>
<totfact> 0.22005840E+01</totfact>
</mgrwt>
</event>
<event>
 4    2  0.3171963E-007  0.7426618E+03  0.7818608E-02  0.9852260E-01
          2   -1    0    0  501    0  0.00000000000E+00  0.00000000000E+00  0.23342704923E+04  0.23342704923E+04  0.25500000000E-02 0. -1.
         -2   -1    0    0    0  501 -0.00000000000E+00 -0.00000000000E+00 -0.33061661380E+03  0.33061661381E+03  0.25500000000E-02 0.  1.
    8880023    1    1    2    0    0 -0.23865270381E+03 -0.24653855771E+03  0.21400279697E+04  0.22652298539E+04  0.65864270000E+03 0.  0.
    8880022    1    1    2    0    0  0.23865270381E+03  0.24653855771E+03 -0.13637409123E+03  0.39965725222E+03  0.15294330000E+03 0.  0.
<mgrwt>
<rscale>  0 0.62631813E+03</rscale>
<asrwt>0</asrwt>
<pdfrwt beam="1">  1        2 0.35911856E+00 0.74266182E+03</pdfrwt>
<pdfrwt beam="2">  1       -2 0.50864092E-01 0.74266182E+03</pdfrwt>
<totfact> 0.16529654E+01</totfact>
</mgrwt>
</event>
<event>
 4    2  0.3171963E-007  0.6600385E+03  0.7818608E-02  0.1024117E+00
          2   -1    0    0  501    0  0.00000000000E+00  0.00000000000E+00  0.99543581264E+03  0.99543581264E+03  0.25500000000E-02 0. -1.
         -2   -1    0    0    0  501 -0.00000000000E+00 -0.00000000000E+00 -0.35011104028E+03  0.35011104029E+03  0.25500000000E-02 0.  1.
    8880023    1    1    2    0    0  0.15116924115E+02 -0.40150731443E+02  0.85648931252E+03  0.10813069644E+04  0.65864270000E+03 0. -1.
    8880022    1    1    2    0    0 -0.15116924115E+02  0.40150731443E+02 -0.21116454017E+03  0.26423988849E+03  0.15294330000E+03 0.  0.
<mgrwt>
<rscale>  0 0.46229741E+03</rscale>
<asrwt>0</asrwt>
<pdfrwt beam="1">  1        2 0.15314397E+00 0.66003849E+03</pdfrwt>
<pdfrwt beam="2">  1       -2 0.53863237E-01 0.66003849E+03</pdfrwt>
<totfact> 0.84119433E+01</totfact>
</mgrwt>
</event>
<event>
 4    2  0.3171963E-007  0.9223927E+03  0.7818608E-02  0.9491000E-01
         -2   -1    0    0    0  501 -0.00000000000E+00  0.00000000000E+00  0.46589480451E+03  0.46589480452E+03  0.25500000000E-02 0.  1.
          2   -1    0    0  501    0  0.00000000000E+00 -0.00000000000E+00 -0.13525422726E+04  0.13525422726E+04  0.25500000000E-02 0. -1.
    8880023    1    1    2    0    0  0.33241080331E+03  0.55362546224E+03 -0.55600873133E+03  0.10770116110E+04  0.65864270000E+03 0.  0.
    8880022    1    1    2    0    0 -0.33241080331E+03 -0.55362546224E+03 -0.33063873677E+03  0.74142546615E+03  0.15294330000E+03 0.  0.
<mgrwt>
<rscale>  0 0.84950618E+03</rscale>
<asrwt>0</asrwt>
<pdfrwt beam="1">  1        2 0.20808342E+00 0.92239270E+03</pdfrwt>
<pdfrwt beam="2">  1       -2 0.71676125E-01 0.92239270E+03</pdfrwt>
<totfact> 0.27296624E+01</totfact>
</mgrwt>
</event>
<event>
 4    2  0.3171963E-007  0.7536486E+03  0.7818608E-02  0.9821837E-01
         -2   -1    0    0    0  501 -0.00000000000E+00  0.00000000000E+00  0.39246678135E+03  0.39246678136E+03  0.25500000000E-02 0.  1.
          2   -1    0    0  501    0  0.00000000000E+00 -0.00000000000E+00 -0.11714812656E+04  0.11714812656E+04  0.25500000000E-02 0. -1.
    8880023    1    1    2    0    0 -0.10014590333E+03 -0.35234481064E+03 -0.87574360733E+03  0.11553844120E+04  0.65864270000E+03 0. -1.
    8880022    1    1    2    0    0  0.10014590333E+03  0.35234481064E+03  0.96729123056E+02  0.40856363495E+03  0.15294330000E+03 0.  0.
<mgrwt>
<rscale>  0 0.64203706E+03</rscale>
<asrwt>0</asrwt>
<pdfrwt beam="1">  1        2 0.18022789E+00 0.75364864E+03</pdfrwt>
<pdfrwt beam="2">  1       -2 0.60379505E-01 0.75364864E+03</pdfrwt>
<totfact> 0.51207617E+01</totfact>
</mgrwt>
</event>
<event>
 4    2  0.3171963E-007  0.6714967E+03  0.7818608E-02  0.1014612E+00
          2   -1    0    0  501    0  0.00000000000E+00  0.00000000000E+00  0.46654642629E+03  0.46654642630E+03  0.25500000000E-02 0. -1.
         -2   -1    0    0    0  501 -0.00000000000E+00 -0.00000000000E+00 -0.11754360509E+04  0.11754360509E+04  0.25500000000E-02 0.  1.
    8880023    1    1    2    0    0  0.13029574300E+03 -0.10982548262E+02  0.20823512670E+03  0.70304315036E+03  0.65864270000E+03 0. -1.
    8880022    1    1    2    0    0 -0.13029574300E+03  0.10982548262E+02 -0.91712475133E+03  0.93893932686E+03  0.15294330000E+03 0.  0.
<mgrwt>
<rscale>  0 0.49682149E+03</rscale>
<asrwt>0</asrwt>
<pdfrwt beam="1">  1        2 0.71776374E-01 0.67149669E+03</pdfrwt>
<pdfrwt beam="2">  1       -2 0.18083631E+00 0.67149669E+03</pdfrwt>
<totfact> 0.12235033E+01</totfact>
</mgrwt>
</event>
<event>
 4    2  0.3171963E-007  0.7613836E+03  0.7818608E-02  0.9801539E-01
         -2   -1    0    0    0  501 -0.00000000000E+00  0.00000000000E+00  0.43724399874E+03  0.43724399874E+03  0.25500000000E-02 0.  1.
          2   -1    0    0  501    0  0.00000000000E+00 -0.00000000000E+00 -0.20172373467E+04  0.20172373467E+04  0.25500000000E-02 0. -1.
    8880023    1    1    2    0    0  0.28957983801E+03  0.24907474730E+03 -0.18237149386E+04  0.19762694897E+04  0.65864270000E+03 0. -1.
    8880022    1    1    2    0    0 -0.28957983801E+03 -0.24907474730E+03  0.24372159057E+03  0.47821185582E+03  0.15294330000E+03 0.  0.
<mgrwt>
<rscale>  0 0.65280033E+03</rscale>
<asrwt>0</asrwt>
<pdfrwt beam="1">  1        2 0.31034420E+00 0.76138356E+03</pdfrwt>
<pdfrwt beam="2">  1       -2 0.67268309E-01 0.76138356E+03</pdfrwt>
<totfact> 0.13693777E+01</totfact>
</mgrwt>
</event>
<event>
 4    2  0.3171963E-007  0.7300212E+03  0.7818608E-02  0.9890030E-01
         -2   -1    0    0    0  501 -0.00000000000E+00  0.00000000000E+00  0.36739286137E+03  0.36739286137E+03  0.25500000000E-02 0.  1.
          2   -1    0    0  501    0  0.00000000000E+00 -0.00000000000E+00 -0.16759852610E+04  0.16759852610E+04  0.25500000000E-02 0. -1.
    8880023    1    1    2    0    0  0.65323324560E+02 -0.30798324172E+03 -0.14825322880E+04  0.16525232238E+04  0.65864270000E+03 0. -1.
    8880022    1    1    2    0    0 -0.65323324560E+02  0.30798324172E+03  0.17393988842E+03  0.39085489854E+03  0.15294330000E+03 0.  0.
<mgrwt>
<rscale>  0 0.60746906E+03</rscale>
<asrwt>0</asrwt>
<pdfrwt beam="1">  1        2 0.25784388E+00 0.73002125E+03</pdfrwt>
<pdfrwt beam="2">  1       -2 0.56521980E-01 0.73002125E+03</pdfrwt>
<totfact> 0.30556073E+01</totfact>
</mgrwt>
</event>
<event>
 4    2  0.3171963E-007  0.1020414E+04  0.7818608E-02  0.9355323E-01
         -2   -1    0    0    0  501 -0.00000000000E+00  0.00000000000E+00  0.88946186259E+03  0.88946186260E+03  0.25500000000E-02 0.  1.
          2   -1    0    0  501    0  0.00000000000E+00 -0.00000000000E+00 -0.12522937285E+04  0.12522937285E+04  0.25500000000E-02 0. -1.
    8880023    1    1    2    0    0  0.20169134030E+03  0.75283196602E+03 -0.74197562441E+03  0.12616550239E+04  0.65864270000E+03 0.  0.
    8880022    1    1    2    0    0 -0.20169134030E+03 -0.75283196602E+03  0.37914375849E+03  0.88010056722E+03  0.15294330000E+03 0.  0.
<mgrwt>
<rscale>  0 0.95845389E+03</rscale>
<asrwt>0</asrwt>
<pdfrwt beam="1">  1        2 0.19266057E+00 0.10204144E+04</pdfrwt>
<pdfrwt beam="2">  1       -2 0.13684029E+00 0.10204144E+04</pdfrwt>
<totfact> 0.66511086E+00</totfact>
</mgrwt>
</event>
<event>
 4    2  0.3171963E-007  0.6635676E+03  0.7818608E-02  0.1020767E+00
         -2   -1    0    0    0  501 -0.00000000000E+00  0.00000000000E+00  0.47435850642E+03  0.47435850642E+03  0.25500000000E-02 0.  1.
          2   -1    0    0  501    0  0.00000000000E+00 -0.00000000000E+00 -0.70347201522E+03  0.70347201522E+03  0.25500000000E-02 0. -1.
    8880023    1    1    2    0    0  0.15447914506E+02  0.79202607897E+02 -0.51754619018E+03  0.84153191050E+03  0.65864270000E+03 0. -1.
    8880022    1    1    2    0    0 -0.15447914506E+02 -0.79202607897E+02  0.28843268137E+03  0.33629861115E+03  0.15294330000E+03 0.  0.
<mgrwt>
<rscale>  0 0.47410968E+03</rscale>
<asrwt>0</asrwt>
<pdfrwt beam="1">  1        2 0.10822646E+00 0.66356755E+03</pdfrwt>
<pdfrwt beam="2">  1       -2 0.72978232E-01 0.66356755E+03</pdfrwt>
<totfact> 0.70378064E+01</totfact>
</mgrwt>
</event>
<event>
 4    2  0.3171963E-007  0.7846068E+03  0.7818608E-02  0.9745125E-01
          2   -1    0    0  501    0  0.00000000000E+00  0.00000000000E+00  0.19259489808E+04  0.19259489808E+04  0.25500000000E-02 0. -1.
         -2   -1    0    0    0  501 -0.00000000000E+00 -0.00000000000E+00 -0.68655641281E+03  0.68655641281E+03  0.25500000000E-02 0.  1.
    8880023    1    1    2    0    0  0.33340415359E+03  0.26578054553E+03  0.17572695258E+04  0.19244749987E+04  0.65864270000E+03 0. -1.
    8880022    1    1    2    0    0 -0.33340415359E+03 -0.26578054553E+03 -0.51787695776E+03  0.68803039497E+03  0.15294330000E+03 0.  0.
<mgrwt>
<rscale>  0 0.68392485E+03</rscale>
<asrwt>0</asrwt>
<pdfrwt beam="1">  1        2 0.29629984E+00 0.78460680E+03</pdfrwt>
<pdfrwt beam="2">  1       -2 0.10562406E+00 0.78460680E+03</pdfrwt>
<totfact> 0.54756688E+00</totfact>
</mgrwt>
</event>
<event>
 4    2  0.3171963E-007  0.7648168E+03  0.7818608E-02  0.9792793E-01
          2   -1    0    0  501    0  0.00000000000E+00  0.00000000000E+00  0.23042349213E+04  0.23042349213E+04  0.25500000000E-02 0. -1.
         -2   -1    0    0    0  501 -0.00000000000E+00 -0.00000000000E+00 -0.44054565573E+03  0.44054565574E+03  0.25500000000E-02 0.  1.
    8880023    1    1    2    0    0 -0.31679568461E+03  0.22533319638E+03  0.21206260156E+04  0.22543290486E+04  0.65864270000E+03 0.  0.
    8880022    1    1    2    0    0  0.31679568461E+03 -0.22533319638E+03 -0.25693675004E+03  0.49045152840E+03  0.15294330000E+03 0.  1.
<mgrwt>
<rscale>  0 0.65750741E+03</rscale>
<asrwt>0</asrwt>
<pdfrwt beam="1">  1        2 0.35449768E+00 0.76481682E+03</pdfrwt>
<pdfrwt beam="2">  1       -2 0.67776255E-01 0.76481682E+03</pdfrwt>
<totfact> 0.93590451E+00</totfact>
</mgrwt>
</event>
<event>
 4    2  0.3171963E-007  0.6750220E+03  0.7818608E-02  0.1012292E+00
         -2   -1    0    0    0  501 -0.00000000000E+00  0.00000000000E+00  0.89360964806E+02  0.89360964843E+02  0.25500000000E-02 0.  1.
          2   -1    0    0  501    0  0.00000000000E+00 -0.00000000000E+00 -0.22330955180E+04  0.22330955180E+04  0.25500000000E-02 0. -1.
    8880023    1    1    2    0    0 -0.51988557062E+02  0.13835364697E+03 -0.17351950749E+04  0.18618691404E+04  0.65864270000E+03 0. -1.
    8880022    1    1    2    0    0  0.51988557062E+02 -0.13835364697E+03 -0.40853947829E+03  0.46058734246E+03  0.15294330000E+03 0.  1.
<mgrwt>
<rscale>  0 0.50573641E+03</rscale>
<asrwt>0</asrwt>
<pdfrwt beam="1">  1        2 0.34355311E+00 0.67502204E+03</pdfrwt>
<pdfrwt beam="2">  1       -2 0.13747842E-01 0.67502204E+03</pdfrwt>
<totfact> 0.20827107E+02</totfact>
</mgrwt>
</event>
<event>
 4    2  0.3171963E-007  0.8001397E+03  0.7818608E-02  0.9710494E-01
         -2   -1    0    0    0  501 -0.00000000000E+00  0.00000000000E+00  0.29149314253E+03  0.29149314254E+03  0.25500000000E-02 0.  1.
          2   -1    0    0  501    0  0.00000000000E+00 -0.00000000000E+00 -0.14343482627E+04  0.14343482627E+04  0.25500000000E-02 0. -1.
    8880023    1    1    2    0    0  0.36818104428E+03  0.26618789233E+03 -0.83300762085E+03  0.11550433663E+04  0.65864270000E+03 0.  1.
    8880022    1    1    2    0    0 -0.36818104428E+03 -0.26618789233E+03 -0.30984749928E+03  0.57079803890E+03  0.15294330000E+03 0.  0.
<mgrwt>
<rscale>  0 0.70395398E+03</rscale>
<asrwt>0</asrwt>
<pdfrwt beam="1">  1        2 0.22066896E+00 0.80013966E+03</pdfrwt>
<pdfrwt beam="2">  1       -2 0.44845100E-01 0.80013966E+03</pdfrwt>
<totfact> 0.66190073E+01</totfact>
</mgrwt>
</event>
<event>
 4    2  0.3171963E-007  0.7479517E+03  0.7818608E-02  0.9837362E-01
         -2   -1    0    0    0  501 -0.00000000000E+00  0.00000000000E+00  0.14503555026E+03  0.14503555028E+03  0.25500000000E-02 0.  1.
          2   -1    0    0  501    0  0.00000000000E+00 -0.00000000000E+00 -0.29402186362E+04  0.29402186362E+04  0.25500000000E-02 0. -1.
    8880023    1    1    2    0    0  0.25364146659E+03  0.24756314361E+03 -0.24692238363E+04  0.25800190046E+04  0.65864270000E+03 0. -1.
    8880022    1    1    2    0    0 -0.25364146659E+03 -0.24756314361E+03 -0.32595924961E+03  0.50523518194E+03  0.15294330000E+03 0.  0.
<mgrwt>
<rscale>  0 0.63395471E+03</rscale>
<asrwt>0</asrwt>
<pdfrwt beam="1">  1        2 0.45234128E+00 0.74795168E+03</pdfrwt>
<pdfrwt beam="2">  1       -2 0.22313164E-01 0.74795168E+03</pdfrwt>
<totfact> 0.35198776E+01</totfact>
</mgrwt>
</event>
<event>
 4    2  0.3171963E-007  0.9151286E+03  0.7818608E-02  0.9502169E-01
         -2   -1    0    0    0  501 -0.00000000000E+00  0.00000000000E+00  0.61322256448E+03  0.61322256448E+03  0.25500000000E-02 0.  1.
          2   -1    0    0  501    0  0.00000000000E+00 -0.00000000000E+00 -0.12584488834E+04  0.12584488834E+04  0.25500000000E-02 0. -1.
    8880023    1    1    2    0    0  0.34727019487E+03 -0.53202771520E+03  0.51324722122E+02  0.91656669771E+03  0.65864270000E+03 0.  0.
    8880022    1    1    2    0    0 -0.34727019487E+03  0.53202771520E+03 -0.69655104101E+03  0.95510475014E+03  0.15294330000E+03 0.  0.
<mgrwt>
<rscale>  0 0.84124089E+03</rscale>
<asrwt>0</asrwt>
<pdfrwt beam="1">  1        2 0.19360752E+00 0.91512856E+03</pdfrwt>
<pdfrwt beam="2">  1       -2 0.94341933E-01 0.91512856E+03</pdfrwt>
<totfact> 0.16605034E+01</totfact>
</mgrwt>
</event>
<event>
 4    2  0.3171963E-007  0.6665739E+03  0.7818608E-02  0.1018248E+00
         -2   -1    0    0    0  501 -0.00000000000E+00  0.00000000000E+00  0.19374358018E+04  0.19374358018E+04  0.25500000000E-02 0.  1.
          2   -1    0    0  501    0  0.00000000000E+00 -0.00000000000E+00 -0.61645012316E+03  0.61645012316E+03  0.25500000000E-02 0. -1.
    8880023    1    1    2    0    0  0.10123381335E+03 -0.16196726096E+02 -0.43000751222E+03  0.79323847974E+03  0.65864270000E+03 0. -1.
    8880022    1    1    2    0    0 -0.10123381335E+03  0.16196726096E+02  0.17509931909E+04  0.17606474453E+04  0.15294330000E+03 0.  0.
<mgrwt>
<rscale>  0 0.48324220E+03</rscale>
<asrwt>0</asrwt>
<pdfrwt beam="1">  1        2 0.94838482E-01 0.66657395E+03</pdfrwt>
<pdfrwt beam="2">  1       -2 0.29806704E+00 0.66657395E+03</pdfrwt>
<totfact> 0.16573901E+00</totfact>
</mgrwt>
</event>
<event>
 4    2  0.3171963E-007  0.7035125E+03  0.7818608E-02  0.9982930E-01
         -2   -1    0    0    0  501 -0.00000000000E+00  0.00000000000E+00  0.91486827047E+03  0.91486827048E+03  0.25500000000E-02 0.  1.
          2   -1    0    0  501    0  0.00000000000E+00 -0.00000000000E+00 -0.49658257342E+03  0.49658257343E+03  0.25500000000E-02 0. -1.
    8880023    1    1    2    0    0 -0.17439944875E+03  0.17522704967E+03 -0.19731592876E+03  0.73065961204E+03  0.65864270000E+03 0. -1.
    8880022    1    1    2    0    0  0.17439944875E+03 -0.17522704967E+03  0.61560162581E+03  0.68079123186E+03  0.15294330000E+03 0.  0.
<mgrwt>
<rscale>  0 0.56405085E+03</rscale>
<asrwt>0</asrwt>
<pdfrwt beam="1">  1        2 0.76397320E-01 0.70351254E+03</pdfrwt>
<pdfrwt beam="2">  1       -2 0.14074896E+00 0.70351254E+03</pdfrwt>
<totfact> 0.22363599E+01</totfact>
</mgrwt>
</event>
<event>
 4    2  0.3171963E-007  0.6686565E+03  0.7818608E-02  0.1016645E+00
          2   -1    0    0  501    0  0.00000000000E+00  0.00000000000E+00  0.30093606447E+04  0.30093606447E+04  0.25500000000E-02 0. -1.
         -2   -1    0    0    0  501 -0.00000000000E+00 -0.00000000000E+00 -0.12248295794E+03  0.12248295796E+03  0.25500000000E-02 0.  1.
    8880023    1    1    2    0    0  0.34133806762E+02  0.11011875872E+03  0.28615670217E+04  0.29386505889E+04  0.65864270000E+03 0. -1.
    8880022    1    1    2    0    0 -0.34133806762E+02 -0.11011875872E+03  0.25310665083E+02  0.19319301377E+03  0.15294330000E+03 0.  0.
<mgrwt>
<rscale>  0 0.48917050E+03</rscale>
<asrwt>0</asrwt>
<pdfrwt beam="1">  1        2 0.46297849E+00 0.66865646E+03</pdfrwt>
<pdfrwt beam="2">  1       -2 0.18843535E-01 0.66865646E+03</pdfrwt>
<totfact> 0.43526492E+01</totfact>
</mgrwt>
</event>
<event>
 4    2  0.3171963E-007  0.7108974E+03  0.7818608E-02  0.9954684E-01
          2   -1    0    0  501    0  0.00000000000E+00  0.00000000000E+00  0.95493961176E+03  0.95493961176E+03  0.25500000000E-02 0. -1.
         -2   -1    0    0    0  501 -0.00000000000E+00 -0.00000000000E+00 -0.35648265781E+03  0.35648265782E+03  0.25500000000E-02 0.  1.
    8880023    1    1    2    0    0  0.24116525670E+03  0.11577652790E+03  0.89582935495E+02  0.71651950012E+03  0.65864270000E+03 0.  1.
    8880022    1    1    2    0    0 -0.24116525670E+03 -0.11577652790E+03  0.50887401845E+03  0.59490276947E+03  0.15294330000E+03 0.  0.
<mgrwt>
<rscale>  0 0.57682729E+03</rscale>
<asrwt>0</asrwt>
<pdfrwt beam="1">  1        2 0.14691379E+00 0.71089738E+03</pdfrwt>
<pdfrwt beam="2">  1       -2 0.54843486E-01 0.71089738E+03</pdfrwt>
<totfact> 0.85693980E+01</totfact>
</mgrwt>
</event>
<event>
 4    2  0.3171963E-007  0.6648489E+03  0.7818608E-02  0.1019661E+00
          2   -1    0    0  501    0  0.00000000000E+00  0.00000000000E+00  0.22491858964E+04  0.22491858964E+04  0.25500000000E-02 0. -1.
         -2   -1    0    0    0  501 -0.00000000000E+00 -0.00000000000E+00 -0.19853985474E+03  0.19853985475E+03  0.25500000000E-02 0.  1.
    8880023    1    1    2    0    0  0.70511650293E+02 -0.56938210319E+02  0.21455514996E+04  0.22462001906E+04  0.65864270000E+03 0. -1.
    8880022    1    1    2    0    0 -0.70511650293E+02  0.56938210319E+02 -0.94905457885E+02  0.20152556059E+03  0.15294330000E+03 0.  0.
<mgrwt>
<rscale>  0 0.47809319E+03</rscale>
<asrwt>0</asrwt>
<pdfrwt beam="1">  1        2 0.34602859E+00 0.66484890E+03</pdfrwt>
<pdfrwt beam="2">  1       -2 0.30544594E-01 0.66484890E+03</pdfrwt>
<totfact> 0.50270270E+01</totfact>
</mgrwt>
</event>
<event>
 4    2  0.3171963E-007  0.6773088E+03  0.7818608E-02  0.1010889E+00
         -2   -1    0    0    0  501 -0.00000000000E+00  0.00000000000E+00  0.11250029481E+04  0.11250029481E+04  0.25500000000E-02 0.  1.
          2   -1    0    0  501    0  0.00000000000E+00 -0.00000000000E+00 -0.12417243452E+04  0.12417243452E+04  0.25500000000E-02 0. -1.
    8880023    1    1    2    0    0  0.13977811722E+03  0.73478896442E+02 -0.11367738664E+04  0.13232543595E+04  0.65864270000E+03 0. -1.
    8880022    1    1    2    0    0 -0.13977811722E+03 -0.73478896442E+02  0.10200524694E+04  0.10434729338E+04  0.15294330000E+03 0.  0.
<mgrwt>
<rscale>  0 0.51122929E+03</rscale>
<asrwt>0</asrwt>
<pdfrwt beam="1">  1        2 0.19103451E+00 0.67730885E+03</pdfrwt>
<pdfrwt beam="2">  1       -2 0.17307738E+00 0.67730885E+03</pdfrwt>
<totfact> 0.37566025E+00</totfact>
</mgrwt>
</event>
<event>
 4    2  0.3171963E-007  0.8022179E+03  0.7818608E-02  0.9706021E-01
          2   -1    0    0  501    0  0.00000000000E+00  0.00000000000E+00  0.18755988714E+04  0.18755988714E+04  0.25500000000E-02 0. -1.
         -2   -1    0    0    0  501 -0.00000000000E+00 -0.00000000000E+00 -0.51925792895E+03  0.51925792896E+03  0.25500000000E-02 0.  1.
    8880023    1    1    2    0    0 -0.45174238983E+03 -0.75313335684E+02  0.16465035677E+04  0.18315369202E+04  0.65864270000E+03 0. -1.
    8880022    1    1    2    0    0  0.45174238983E+03  0.75313335684E+02 -0.29016262524E+03  0.56331988018E+03  0.15294330000E+03 0.  0.
<mgrwt>
<rscale>  0 0.70659436E+03</rscale>
<asrwt>0</asrwt>
<pdfrwt beam="1">  1        2 0.28855367E+00 0.80221786E+03</pdfrwt>
<pdfrwt beam="2">  1       -2 0.79885837E-01 0.80221786E+03</pdfrwt>
<totfact> 0.11133304E+01</totfact>
</mgrwt>
</event>
<event>
 4    2  0.3171963E-007  0.8282164E+03  0.7818608E-02  0.9652813E-01
          2   -1    0    0  501    0  0.00000000000E+00  0.00000000000E+00  0.62571980545E+03  0.62571980545E+03  0.25500000000E-02 0. -1.
         -2   -1    0    0    0  501 -0.00000000000E+00 -0.00000000000E+00 -0.11547131028E+04  0.11547131028E+04  0.25500000000E-02 0.  1.
    8880023    1    1    2    0    0  0.49961554321E+03  0.50164734052E+02  0.22821323153E+03  0.85908304422E+03  0.65864270000E+03 0.  0.
    8880022    1    1    2    0    0 -0.49961554321E+03 -0.50164734052E+02 -0.75720652889E+03  0.92134986404E+03  0.15294330000E+03 0.  0.
<mgrwt>
<rscale>  0 0.73897163E+03</rscale>
<asrwt>0</asrwt>
<pdfrwt beam="1">  1        2 0.96264585E-01 0.82821640E+03</pdfrwt>
<pdfrwt beam="2">  1       -2 0.17764817E+00 0.82821640E+03</pdfrwt>
<totfact> 0.89507996E+00</totfact>
</mgrwt>
</event>
<event>
 4    2  0.3171963E-007  0.6840372E+03  0.7818608E-02  0.1007126E+00
         -2   -1    0    0    0  501 -0.00000000000E+00  0.00000000000E+00  0.16662117872E+04  0.16662117872E+04  0.25500000000E-02 0.  1.
          2   -1    0    0  501    0  0.00000000000E+00 -0.00000000000E+00 -0.90154405801E+03  0.90154405801E+03  0.25500000000E-02 0. -1.
    8880023    1    1    2    0    0  0.17660094831E+03 -0.53933212155E+02 -0.76106862728E+03  0.10232948490E+04  0.65864270000E+03 0. -1.
    8880022    1    1    2    0    0 -0.17660094831E+03  0.53933212155E+02  0.15257363565E+04  0.15444609962E+04  0.15294330000E+03 0.  0.
<mgrwt>
<rscale>  0 0.52632895E+03</rscale>
<asrwt>0</asrwt>
<pdfrwt beam="1">  1        2 0.13869909E+00 0.68403720E+03</pdfrwt>
<pdfrwt beam="2">  1       -2 0.25634027E+00 0.68403720E+03</pdfrwt>
<totfact> 0.17981278E+00</totfact>
</mgrwt>
</event>
<event>
 4    2  0.3171963E-007  0.1387087E+04  0.7818608E-02  0.8993782E-01
          2   -1    0    0  501    0  0.00000000000E+00  0.00000000000E+00  0.16186563279E+04  0.16186563279E+04  0.25500000000E-02 0. -1.
         -2   -1    0    0    0  501 -0.00000000000E+00 -0.00000000000E+00 -0.12597975974E+04  0.12597975974E+04  0.25500000000E-02 0.  1.
    8880023    1    1    2    0    0 -0.86814559254E+03 -0.85820920334E+03 -0.38659107850E+03  0.14399523168E+04  0.65864270000E+03 0.  1.
    8880022    1    1    2    0    0  0.86814559254E+03  0.85820920334E+03  0.74544980902E+03  0.14385016084E+04  0.15294330000E+03 0.  0.
<mgrwt>
<rscale>  0 0.13461047E+04</rscale>
<asrwt>0</asrwt>
<pdfrwt beam="1">  1        2 0.24902405E+00 0.13870869E+04</pdfrwt>
<pdfrwt beam="2">  1       -2 0.19381502E+00 0.13870869E+04</pdfrwt>
<totfact> 0.15141196E+00</totfact>
</mgrwt>
</event>
<event>
 4    2  0.3171963E-007  0.1119198E+04  0.7818608E-02  0.9239977E-01
          2   -1    0    0  501    0  0.00000000000E+00  0.00000000000E+00  0.23632173581E+04  0.23632173581E+04  0.25500000000E-02 0. -1.
         -2   -1    0    0    0  501 -0.00000000000E+00 -0.00000000000E+00 -0.47718171084E+03  0.47718171084E+03  0.25500000000E-02 0.  1.
    8880023    1    1    2    0    0  0.35754386464E+03 -0.83123786038E+03  0.14291979457E+04  0.18152715967E+04  0.65864270000E+03 0. -1.
    8880022    1    1    2    0    0 -0.35754386464E+03  0.83123786038E+03  0.45683770157E+03  0.10251274722E+04  0.15294330000E+03 0.  0.
<mgrwt>
<rscale>  0 0.10650161E+04</rscale>
<asrwt>0</asrwt>
<pdfrwt beam="1">  1        2 0.36357189E+00 0.11191980E+04</pdfrwt>
<pdfrwt beam="2">  1       -2 0.73412573E-01 0.11191980E+04</pdfrwt>
<totfact> 0.69470045E+00</totfact>
</mgrwt>
</event>
<event>
 4    2  0.3171963E-007  0.8515943E+03  0.7818608E-02  0.9608694E-01
          2   -1    0    0  501    0  0.00000000000E+00  0.00000000000E+00  0.51998374349E+03  0.51998374350E+03  0.25500000000E-02 0. -1.
         -2   -1    0    0    0  501 -0.00000000000E+00 -0.00000000000E+00 -0.10484916136E+04  0.10484916136E+04  0.25500000000E-02 0.  1.
    8880023    1    1    2    0    0 -0.45206944122E+03 -0.29501848464E+03 -0.89920703153E+02  0.85632857309E+03  0.65864270000E+03 0.  0.
    8880022    1    1    2    0    0  0.45206944122E+03  0.29501848464E+03 -0.43858716700E+03  0.71214678405E+03  0.15294330000E+03 0.  0.
<mgrwt>
<rscale>  0 0.76723416E+03</rscale>
<asrwt>0</asrwt>
<pdfrwt beam="1">  1        2 0.79997499E-01 0.85159432E+03</pdfrwt>
<pdfrwt beam="2">  1       -2 0.16130640E+00 0.85159432E+03</pdfrwt>
<totfact> 0.14572177E+01</totfact>
</mgrwt>
</event>
<event>
 4    2  0.3171963E-007  0.8324564E+03  0.7818608E-02  0.9644572E-01
         -2   -1    0    0    0  501 -0.00000000000E+00  0.00000000000E+00  0.97247908639E+03  0.97247908639E+03  0.25500000000E-02 0.  1.
          2   -1    0    0  501    0  0.00000000000E+00 -0.00000000000E+00 -0.12559542830E+04  0.12559542830E+04  0.25500000000E-02 0. -1.
    8880023    1    1    2    0    0 -0.27979922057E+02 -0.50832133506E+03 -0.10222310873E+04  0.13183095456E+04  0.65864270000E+03 0. -1.
    8880022    1    1    2    0    0  0.27979922057E+02  0.50832133506E+03  0.73875589070E+03  0.91012382387E+03  0.15294330000E+03 0.  0.
<mgrwt>
<rscale>  0 0.74415078E+03</rscale>
<asrwt>0</asrwt>
<pdfrwt beam="1">  1        2 0.19322374E+00 0.83245640E+03</pdfrwt>
<pdfrwt beam="2">  1       -2 0.14961217E+00 0.83245640E+03</pdfrwt>
<totfact> 0.53508610E+00</totfact>
</mgrwt>
</event>
<event>
 4    2  0.3171963E-007  0.1033701E+04  0.7818608E-02  0.9338737E-01
         -2   -1    0    0    0  501 -0.00000000000E+00  0.00000000000E+00  0.10798301482E+04  0.10798301482E+04  0.25500000000E-02 0.  1.
          2   -1    0    0  501    0  0.00000000000E+00 -0.00000000000E+00 -0.84362120278E+03  0.84362120278E+03  0.25500000000E-02 0. -1.
    8880023    1    1    2    0    0  0.66476774023E+03  0.43910196608E+03  0.37656608575E+03  0.11001540384E+04  0.65864270000E+03 0. -1.
    8880022    1    1    2    0    0 -0.66476774023E+03 -0.43910196608E+03 -0.14035714029E+03  0.82329731259E+03  0.15294330000E+03 0.  0.
<mgrwt>
<rscale>  0 0.97293554E+03</rscale>
<asrwt>0</asrwt>
<pdfrwt beam="1">  1        2 0.12978788E+00 0.10337006E+04</pdfrwt>
<pdfrwt beam="2">  1       -2 0.16612772E+00 0.10337006E+04</pdfrwt>
<totfact> 0.72028513E+00</totfact>
</mgrwt>
</event>
<event>
 4    2  0.3171963E-007  0.7454420E+03  0.7818608E-02  0.9844369E-01
          2   -1    0    0  501    0  0.00000000000E+00  0.00000000000E+00  0.16239274837E+04  0.16239274837E+04  0.25500000000E-02 0. -1.
         -2   -1    0    0    0  501 -0.00000000000E+00 -0.00000000000E+00 -0.50511956229E+03  0.50511956230E+03  0.25500000000E-02 0.  1.
    8880023    1    1    2    0    0  0.34472282656E+03  0.55133969693E+02  0.14459319258E+04  0.16267768507E+04  0.65864270000E+03 0.  1.
    8880022    1    1    2    0    0 -0.34472282656E+03 -0.55133969693E+02 -0.32712400440E+03  0.50227019525E+03  0.15294330000E+03 0.  0.
<mgrwt>
<rscale>  0 0.63034833E+03</rscale>
<asrwt>0</asrwt>
<pdfrwt beam="1">  1        2 0.24983500E+00 0.74544201E+03</pdfrwt>
<pdfrwt beam="2">  1       -2 0.77710701E-01 0.74544201E+03</pdfrwt>
<totfact> 0.16386811E+01</totfact>
</mgrwt>
</event>
<event>
 4    2  0.3171963E-007  0.7212540E+03  0.7818608E-02  0.9918365E-01
          2   -1    0    0  501    0  0.00000000000E+00  0.00000000000E+00  0.30144086030E+04  0.30144086030E+04  0.25500000000E-02 0. -1.
         -2   -1    0    0    0  501 -0.00000000000E+00 -0.00000000000E+00 -0.33672423981E+03  0.33672423982E+03  0.25500000000E-02 0.  1.
    8880023    1    1    2    0    0 -0.31554416868E+02 -0.29223537944E+03  0.28759423508E+04  0.29650045210E+04  0.65864270000E+03 0. -1.
    8880022    1    1    2    0    0  0.31554416868E+02  0.29223537944E+03 -0.19825798763E+03  0.38612832180E+03  0.15294330000E+03 0.  1.
<mgrwt>
<rscale>  0 0.59379424E+03</rscale>
<asrwt>0</asrwt>
<pdfrwt beam="1">  1        2 0.46375518E+00 0.72125405E+03</pdfrwt>
<pdfrwt beam="2">  1       -2 0.51803728E-01 0.72125405E+03</pdfrwt>
<totfact> 0.64301126E+00</totfact>
</mgrwt>
</event>
<event>
 4    2  0.3171963E-007  0.8286556E+03  0.7818608E-02  0.9651954E-01
          2   -1    0    0  501    0  0.00000000000E+00  0.00000000000E+00  0.52925385984E+03  0.52925385984E+03  0.25500000000E-02 0. -1.
         -2   -1    0    0    0  501 -0.00000000000E+00 -0.00000000000E+00 -0.14308025652E+04  0.14308025652E+04  0.25500000000E-02 0.  1.
    8880023    1    1    2    0    0 -0.31979227207E+03 -0.38806279754E+03  0.94312521893E+02  0.83400532981E+03  0.65864270000E+03 0. -1.
    8880022    1    1    2    0    0  0.31979227207E+03  0.38806279754E+03 -0.99586122726E+03  0.11260510952E+04  0.15294330000E+03 0.  0.
<mgrwt>
<rscale>  0 0.73950926E+03</rscale>
<asrwt>0</asrwt>
<pdfrwt beam="1">  1        2 0.81423671E-01 0.82865556E+03</pdfrwt>
<pdfrwt beam="2">  1       -2 0.22012347E+00 0.82865556E+03</pdfrwt>
<totfact> 0.57622804E+00</totfact>
</mgrwt>
</event>
<event>
 4    2  0.3171963E-007  0.9486082E+03  0.7818608E-02  0.9452119E-01
          2   -1    0    0  501    0  0.00000000000E+00  0.00000000000E+00  0.26649217700E+04  0.26649217700E+04  0.25500000000E-02 0. -1.
         -2   -1    0    0    0  501 -0.00000000000E+00 -0.00000000000E+00 -0.86871132879E+03  0.86871132880E+03  0.25500000000E-02 0.  1.
    8880023    1    1    2    0    0 -0.67650176422E+03  0.91611538487E+02  0.24181463293E+04  0.25975544628E+04  0.65864270000E+03 0. -1.
    8880022    1    1    2    0    0  0.67650176422E+03 -0.91611538487E+02 -0.62193588806E+03  0.93607863604E+03  0.15294330000E+03 0.  0.
<mgrwt>
<rscale>  0 0.87907813E+03</rscale>
<asrwt>0</asrwt>
<pdfrwt beam="1">  1        2 0.40998796E+00 0.94860820E+03</pdfrwt>
<pdfrwt beam="2">  1       -2 0.13364790E+00 0.94860820E+03</pdfrwt>
<totfact> 0.11482400E+00</totfact>
</mgrwt>
</event>
<event>
 4    2  0.3171963E-007  0.6671854E+03  0.7818608E-02  0.1017766E+00
         -2   -1    0    0    0  501 -0.00000000000E+00  0.00000000000E+00  0.17520961203E+03  0.17520961205E+03  0.25500000000E-02 0.  1.
          2   -1    0    0  501    0  0.00000000000E+00 -0.00000000000E+00 -0.18310017139E+04  0.18310017139E+04  0.25500000000E-02 0. -1.
    8880023    1    1    2    0    0 -0.80557441923E+02 -0.69546306830E+02 -0.16898554427E+04  0.18167960297E+04  0.65864270000E+03 0. -1.
    8880022    1    1    2    0    0  0.80557441923E+02  0.69546306830E+02  0.34063340796E+02  0.18941529622E+03  0.15294330000E+03 0.  0.
<mgrwt>
<rscale>  0 0.48501370E+03</rscale>
<asrwt>0</asrwt>
<pdfrwt beam="1">  1        2 0.28169256E+00 0.66718543E+03</pdfrwt>
<pdfrwt beam="2">  1       -2 0.26955326E-01 0.66718543E+03</pdfrwt>
<totfact> 0.10692547E+02</totfact>
</mgrwt>
</event>
<event>
 4    2  0.3171963E-007  0.6750637E+03  0.7818608E-02  0.1012266E+00
          2   -1    0    0  501    0  0.00000000000E+00  0.00000000000E+00  0.55117213313E+03  0.55117213314E+03  0.25500000000E-02 0. -1.
         -2   -1    0    0    0  501 -0.00000000000E+00 -0.00000000000E+00 -0.46557199154E+03  0.46557199155E+03  0.25500000000E-02 0.  1.
    8880023    1    1    2    0    0 -0.14772749353E+03  0.87954283339E+01  0.27779226564E+03  0.72998597316E+03  0.65864270000E+03 0. -1.
    8880022    1    1    2    0    0  0.14772749353E+03 -0.87954283339E+01 -0.19219212405E+03  0.28675815152E+03  0.15294330000E+03 0.  0.
<mgrwt>
<rscale>  0 0.50583835E+03</rscale>
<asrwt>0</asrwt>
<pdfrwt beam="1">  1        2 0.84795712E-01 0.67506368E+03</pdfrwt>
<pdfrwt beam="2">  1       -2 0.71626461E-01 0.67506368E+03</pdfrwt>
<totfact> 0.98590402E+01</totfact>
</mgrwt>
</event>
<event>
 4    2  0.3171963E-007  0.7223787E+03  0.7818608E-02  0.9914618E-01
         -2   -1    0    0    0  501 -0.00000000000E+00  0.00000000000E+00  0.21939209092E+03  0.21939209093E+03  0.25500000000E-02 0.  1.
          2   -1    0    0  501    0  0.00000000000E+00 -0.00000000000E+00 -0.18326135667E+04  0.18326135667E+04  0.25500000000E-02 0. -1.
    8880023    1    1    2    0    0  0.22171656312E+02 -0.29585342568E+03 -0.15530607258E+04  0.17128422742E+04  0.65864270000E+03 0. -1.
    8880022    1    1    2    0    0 -0.22171656312E+02  0.29585342568E+03 -0.60160749957E+02  0.33916338346E+03  0.15294330000E+03 0.  0.
<mgrwt>
<rscale>  0 0.59558047E+03</rscale>
<asrwt>0</asrwt>
<pdfrwt beam="1">  1        2 0.28194054E+00 0.72237874E+03</pdfrwt>
<pdfrwt beam="2">  1       -2 0.33752631E-01 0.72237874E+03</pdfrwt>
<totfact> 0.69865020E+01</totfact>
</mgrwt>
</event>
<event>
 4    2  0.3171963E-007  0.8020831E+03  0.7818608E-02  0.9706310E-01
         -2   -1    0    0    0  501 -0.00000000000E+00  0.00000000000E+00  0.23401708199E+03  0.23401708200E+03  0.25500000000E-02 0.  1.
          2   -1    0    0  501    0  0.00000000000E+00 -0.00000000000E+00 -0.21446426068E+04  0.21446426068E+04  0.25500000000E-02 0. -1.
    8880023    1    1    2    0    0 -0.45010385453E+03  0.83268019170E+02 -0.16392949920E+04  0.18250000876E+04  0.65864270000E+03 0.  0.
    8880022    1    1    2    0    0  0.45010385453E+03 -0.83268019170E+02 -0.27133053280E+03  0.55365960113E+03  0.15294330000E+03 0.  0.
<mgrwt>
<rscale>  0 0.70642337E+03</rscale>
<asrwt>0</asrwt>
<pdfrwt beam="1">  1        2 0.32994500E+00 0.80208307E+03</pdfrwt>
<pdfrwt beam="2">  1       -2 0.36002629E-01 0.80208307E+03</pdfrwt>
<totfact> 0.41343367E+01</totfact>
</mgrwt>
</event>
<event>
 4    2  0.3171963E-007  0.8728447E+03  0.7818608E-02  0.9571111E-01
          2   -1    0    0  501    0  0.00000000000E+00  0.00000000000E+00  0.26015760705E+04  0.26015760705E+04  0.25500000000E-02 0. -1.
         -2   -1    0    0    0  501 -0.00000000000E+00 -0.00000000000E+00 -0.24582545111E+03  0.24582545112E+03  0.25500000000E-02 0.  1.
    8880023    1    1    2    0    0  0.23502660203E+03 -0.52231225545E+03  0.80571954527E+03  0.11878727995E+04  0.65864270000E+03 0.  0.
    8880022    1    1    2    0    0 -0.23502660203E+03  0.52231225545E+03  0.15500310741E+04  0.16595287221E+04  0.15294330000E+03 0.  0.
<mgrwt>
<rscale>  0 0.79238091E+03</rscale>
<asrwt>0</asrwt>
<pdfrwt beam="1">  1        2 0.40024245E+00 0.87284466E+03</pdfrwt>
<pdfrwt beam="2">  1       -2 0.37819303E-01 0.87284466E+03</pdfrwt>
<totfact> 0.20632823E+01</totfact>
</mgrwt>
</event>
<event>
 4    2  0.3171963E-007  0.6749282E+03  0.7818608E-02  0.1012352E+00
          2   -1    0    0  501    0  0.00000000000E+00  0.00000000000E+00  0.22023506662E+04  0.22023506662E+04  0.25500000000E-02 0. -1.
         -2   -1    0    0    0  501 -0.00000000000E+00 -0.00000000000E+00 -0.47955265885E+03  0.47955265886E+03  0.25500000000E-02 0.  1.
    8880023    1    1    2    0    0 -0.13982598137E+03 -0.46546443298E+02  0.21236166800E+04  0.22282899018E+04  0.65864270000E+03 0. -1.
    8880022    1    1    2    0    0  0.13982598137E+03  0.46546443298E+02 -0.40081867264E+03  0.45361342331E+03  0.15294330000E+03 0.  0.
<mgrwt>
<rscale>  0 0.50550647E+03</rscale>
<asrwt>0</asrwt>
<pdfrwt beam="1">  1        2 0.33882317E+00 0.67492821E+03</pdfrwt>
<pdfrwt beam="2">  1       -2 0.73777334E-01 0.67492821E+03</pdfrwt>
<totfact> 0.89856202E+00</totfact>
</mgrwt>
</event>
<event>
 4    2  0.3171963E-007  0.7303788E+03  0.7818608E-02  0.9888915E-01
          2   -1    0    0  501    0  0.00000000000E+00  0.00000000000E+00  0.83630593773E+03  0.83630593774E+03  0.25500000000E-02 0. -1.
         -2   -1    0    0    0  501 -0.00000000000E+00 -0.00000000000E+00 -0.16101956028E+04  0.16101956028E+04  0.25500000000E-02 0.  1.
    8880023    1    1    2    0    0  0.30860781213E+03 -0.66364343872E+02  0.65141536654E+03  0.97867011494E+03  0.65864270000E+03 0. -1.
    8880022    1    1    2    0    0 -0.30860781213E+03  0.66364343872E+02 -0.14253050316E+04  0.14678314256E+04  0.15294330000E+03 0.  0.
<mgrwt>
<rscale>  0 0.60801537E+03</rscale>
<asrwt>0</asrwt>
<pdfrwt beam="1">  1        2 0.12866245E+00 0.73037882E+03</pdfrwt>
<pdfrwt beam="2">  1       -2 0.24772240E+00 0.73037882E+03</pdfrwt>
<totfact> 0.22287108E+00</totfact>
</mgrwt>
</event>
<event>
 4    2  0.3171963E-007  0.1356051E+04  0.7818608E-02  0.9018607E-01
          2   -1    0    0  501    0  0.00000000000E+00  0.00000000000E+00  0.17535913416E+04  0.17535913416E+04  0.25500000000E-02 0. -1.
         -2   -1    0    0    0  501 -0.00000000000E+00 -0.00000000000E+00 -0.12738484878E+04  0.12738484878E+04  0.25500000000E-02 0.  1.
    8880023    1    1    2    0    0  0.11774389862E+04 -0.13675813008E+03 -0.53678834490E+03  0.14584297329E+04  0.65864270000E+03 0.  0.
    8880022    1    1    2    0    0 -0.11774389862E+04  0.13675813008E+03  0.10165311987E+04  0.15690100966E+04  0.15294330000E+03 0.  0.
<mgrwt>
<rscale>  0 0.13139097E+04</rscale>
<asrwt>0</asrwt>
<pdfrwt beam="1">  1        2 0.26978328E+00 0.13560515E+04</pdfrwt>
<pdfrwt beam="2">  1       -2 0.19597669E+00 0.13560515E+04</pdfrwt>
<totfact> 0.12350221E+00</totfact>
</mgrwt>
</event>
<event>
 4    2  0.3171963E-007  0.6845913E+03  0.7818608E-02  0.1006837E+00
         -2   -1    0    0    0  501 -0.00000000000E+00  0.00000000000E+00  0.13739398288E+03  0.13739398290E+03  0.25500000000E-02 0.  1.
          2   -1    0    0  501    0  0.00000000000E+00 -0.00000000000E+00 -0.20715472799E+04  0.20715472799E+04  0.25500000000E-02 0. -1.
    8880023    1    1    2    0    0  0.17904707527E+03  0.52888258834E+02 -0.18149383784E+04  0.19397594043E+04  0.65864270000E+03 0. -1.
    8880022    1    1    2    0    0 -0.17904707527E+03 -0.52888258834E+02 -0.11921491863E+03  0.26918185846E+03  0.15294330000E+03 0.  0.
<mgrwt>
<rscale>  0 0.52751209E+03</rscale>
<asrwt>0</asrwt>
<pdfrwt beam="1">  1        2 0.31869956E+00 0.68459129E+03</pdfrwt>
<pdfrwt beam="2">  1       -2 0.21137537E-01 0.68459129E+03</pdfrwt>
<totfact> 0.12201996E+02</totfact>
</mgrwt>
</event>
<event>
 4    2  0.3171963E-007  0.9241681E+03  0.7818608E-02  0.9488297E-01
          2   -1    0    0  501    0  0.00000000000E+00  0.00000000000E+00  0.28894126563E+04  0.28894126563E+04  0.25500000000E-02 0. -1.
         -2   -1    0    0    0  501 -0.00000000000E+00 -0.00000000000E+00 -0.36627448392E+03  0.36627448393E+03  0.25500000000E-02 0.  1.
    8880023    1    1    2    0    0  0.54965185259E+03  0.34374307171E+03  0.24086167534E+04  0.25798297094E+04  0.65864270000E+03 0.  0.
    8880022    1    1    2    0    0 -0.54965185259E+03 -0.34374307171E+03  0.11452141898E+03  0.67585743084E+03  0.15294330000E+03 0.  0.
<mgrwt>
<rscale>  0 0.85152128E+03</rscale>
<asrwt>0</asrwt>
<pdfrwt beam="1">  1        2 0.44452505E+00 0.92416809E+03</pdfrwt>
<pdfrwt beam="2">  1       -2 0.56349918E-01 0.92416809E+03</pdfrwt>
<totfact> 0.62168268E+00</totfact>
</mgrwt>
</event>
<event>
 4    2  0.3171963E-007  0.6812736E+03  0.7818608E-02  0.1008612E+00
          2   -1    0    0  501    0  0.00000000000E+00  0.00000000000E+00  0.18350575203E+04  0.18350575203E+04  0.25500000000E-02 0. -1.
         -2   -1    0    0    0  501 -0.00000000000E+00 -0.00000000000E+00 -0.22537452116E+03  0.22537452117E+03  0.25500000000E-02 0.  1.
    8880023    1    1    2    0    0 -0.13374057577E+03  0.11152109994E+03  0.16843696029E+04  0.18169300105E+04  0.65864270000E+03 0. -1.
    8880022    1    1    2    0    0  0.13374057577E+03 -0.11152109994E+03 -0.74686603747E+02  0.24350203107E+03  0.15294330000E+03 0.  0.
<mgrwt>
<rscale>  0 0.52029933E+03</rscale>
<asrwt>0</asrwt>
<pdfrwt beam="1">  1        2 0.28231655E+00 0.68127359E+03</pdfrwt>
<pdfrwt beam="2">  1       -2 0.34673002E-01 0.68127359E+03</pdfrwt>
<totfact> 0.66508639E+01</totfact>
</mgrwt>
</event>
<event>
 4    2  0.3171963E-007  0.7259463E+03  0.7818608E-02  0.9902956E-01
         -2   -1    0    0    0  501 -0.00000000000E+00  0.00000000000E+00  0.83892120559E+03  0.83892120559E+03  0.25500000000E-02 0.  1.
          2   -1    0    0  501    0  0.00000000000E+00 -0.00000000000E+00 -0.47280995185E+03  0.47280995186E+03  0.25500000000E-02 0. -1.
    8880023    1    1    2    0    0  0.51588126331E+02 -0.30087611409E+03 -0.10120883594E+03  0.73296739733E+03  0.65864270000E+03 0. -1.
    8880022    1    1    2    0    0 -0.51588126331E+02  0.30087611409E+03  0.46732008968E+03  0.57876376013E+03  0.15294330000E+03 0.  0.
<mgrwt>
<rscale>  0 0.60118217E+03</rscale>
<asrwt>0</asrwt>
<pdfrwt beam="1">  1        2 0.72739993E-01 0.72594626E+03</pdfrwt>
<pdfrwt beam="2">  1       -2 0.12906480E+00 0.72594626E+03</pdfrwt>
<totfact> 0.29474828E+01</totfact>
</mgrwt>
</event>
<event>
 4    2  0.3171963E-007  0.9788603E+03  0.7818608E-02  0.9409753E-01
         -2   -1    0    0    0  501 -0.00000000000E+00  0.00000000000E+00  0.62763694422E+03  0.62763694422E+03  0.25500000000E-02 0.  1.
          2   -1    0    0  501    0  0.00000000000E+00 -0.00000000000E+00 -0.12779099491E+04  0.12779099491E+04  0.25500000000E-02 0. -1.
    8880023    1    1    2    0    0 -0.11643546778E+03 -0.71470273772E+03 -0.63212264068E+03  0.11652237813E+04  0.65864270000E+03 0. -1.
    8880022    1    1    2    0    0  0.11643546778E+03  0.71470273772E+03 -0.18150364243E+02  0.74032311203E+03  0.15294330000E+03 0.  0.
<mgrwt>
<rscale>  0 0.91277390E+03</rscale>
<asrwt>0</asrwt>
<pdfrwt beam="1">  1        2 0.19660153E+00 0.97886027E+03</pdfrwt>
<pdfrwt beam="2">  1       -2 0.96559530E-01 0.97886027E+03</pdfrwt>
<totfact> 0.15225665E+01</totfact>
</mgrwt>
</event>
<event>
 4    2  0.3171963E-007  0.1269320E+04  0.7818608E-02  0.9092517E-01
          2   -1    0    0  501    0  0.00000000000E+00  0.00000000000E+00  0.26299278707E+04  0.26299278707E+04  0.25500000000E-02 0. -1.
         -2   -1    0    0    0  501 -0.00000000000E+00 -0.00000000000E+00 -0.10848755516E+04  0.10848755516E+04  0.25500000000E-02 0.  1.
    8880023    1    1    2    0    0 -0.48032501170E+03  0.97295968333E+03  0.21248270943E+04  0.24750884932E+04  0.65864270000E+03 0. -1.
    8880022    1    1    2    0    0  0.48032501170E+03 -0.97295968333E+03 -0.57977477524E+03  0.12397149290E+04  0.15294330000E+03 0.  0.
<mgrwt>
<rscale>  0 0.12235172E+04</rscale>
<asrwt>0</asrwt>
<pdfrwt beam="1">  1        2 0.40460429E+00 0.12693198E+04</pdfrwt>
<pdfrwt beam="2">  1       -2 0.16690393E+00 0.12693198E+04</pdfrwt>
<totfact> 0.63526223E-01</totfact>
</mgrwt>
</event>
<event>
 4    2  0.3171963E-007  0.8899563E+03  0.7818608E-02  0.9542351E-01
         -2   -1    0    0    0  501 -0.00000000000E+00  0.00000000000E+00  0.40166622558E+03  0.40166622559E+03  0.25500000000E-02 0.  1.
          2   -1    0    0  501    0  0.00000000000E+00 -0.00000000000E+00 -0.22235770622E+04  0.22235770622E+04  0.25500000000E-02 0. -1.
    8880023    1    1    2    0    0  0.55507299961E+03  0.22384363980E+03 -0.23223234688E+03  0.91975761980E+03  0.65864270000E+03 0.  1.
    8880022    1    1    2    0    0 -0.55507299961E+03 -0.22384363980E+03 -0.15896784897E+04  0.17054856680E+04  0.15294330000E+03 0.  0.
<mgrwt>
<rscale>  0 0.81232174E+03</rscale>
<asrwt>0</asrwt>
<pdfrwt beam="1">  1        2 0.34208877E+00 0.88995630E+03</pdfrwt>
<pdfrwt beam="2">  1       -2 0.61794806E-01 0.88995630E+03</pdfrwt>
<totfact> 0.12430891E+01</totfact>
</mgrwt>
</event>
<event>
 4    2  0.3171963E-007  0.6661505E+03  0.7818608E-02  0.1018587E+00
         -2   -1    0    0    0  501 -0.00000000000E+00  0.00000000000E+00  0.47738168162E+03  0.47738168162E+03  0.25500000000E-02 0.  1.
          2   -1    0    0  501    0  0.00000000000E+00 -0.00000000000E+00 -0.15259241866E+04  0.15259241866E+04  0.25500000000E-02 0. -1.
    8880023    1    1    2    0    0 -0.65997774295E+02 -0.74769952174E+02 -0.14315779407E+04  0.15789781058E+04  0.65864270000E+03 0. -1.
    8880022    1    1    2    0    0  0.65997774295E+02  0.74769952174E+02  0.38303543571E+03  0.42432776245E+03  0.15294330000E+03 0.  0.
<mgrwt>
<rscale>  0 0.48199945E+03</rscale>
<asrwt>0</asrwt>
<pdfrwt beam="1">  1        2 0.23475757E+00 0.66615048E+03</pdfrwt>
<pdfrwt beam="2">  1       -2 0.73443336E-01 0.66615048E+03</pdfrwt>
<totfact> 0.21260386E+01</totfact>
</mgrwt>
</event>
<event>
 4    2  0.3171963E-007  0.7236443E+03  0.7818608E-02  0.9910442E-01
         -2   -1    0    0    0  501 -0.00000000000E+00  0.00000000000E+00  0.10599771128E+04  0.10599771128E+04  0.25500000000E-02 0.  1.
          2   -1    0    0  501    0  0.00000000000E+00 -0.00000000000E+00 -0.51682006052E+03  0.51682006052E+03  0.25500000000E-02 0. -1.
    8880023    1    1    2    0    0 -0.11309216547E+03 -0.27759878260E+03 -0.20864023885E+03  0.75312142283E+03  0.65864270000E+03 0. -1.
    8880022    1    1    2    0    0  0.11309216547E+03  0.27759878260E+03  0.75179729112E+03  0.82367575049E+03  0.15294330000E+03 0.  0.
<mgrwt>
<rscale>  0 0.59757868E+03</rscale>
<asrwt>0</asrwt>
<pdfrwt beam="1">  1        2 0.79510780E-01 0.72364434E+03</pdfrwt>
<pdfrwt beam="2">  1       -2 0.16307340E+00 0.72364434E+03</pdfrwt>
<totfact> 0.14413965E+01</totfact>
</mgrwt>
</event>
<event>
 4    2  0.3171963E-007  0.8754366E+03  0.7818608E-02  0.9566673E-01
          2   -1    0    0  501    0  0.00000000000E+00  0.00000000000E+00  0.31022383135E+04  0.31022383135E+04  0.25500000000E-02 0. -1.
         -2   -1    0    0    0  501 -0.00000000000E+00 -0.00000000000E+00 -0.27100113280E+03  0.27100113281E+03  0.25500000000E-02 0.  1.
    8880023    1    1    2    0    0  0.32894676183E+03  0.47368042636E+03  0.25824752335E+04  0.27268237304E+04  0.65864270000E+03 0.  0.
    8880022    1    1    2    0    0 -0.32894676183E+03 -0.47368042636E+03  0.24876194717E+03  0.64641571594E+03  0.15294330000E+03 0.  0.
<mgrwt>
<rscale>  0 0.79541785E+03</rscale>
<asrwt>0</asrwt>
<pdfrwt beam="1">  1        2 0.47726745E+00 0.87543665E+03</pdfrwt>
<pdfrwt beam="2">  1       -2 0.41692481E-01 0.87543665E+03</pdfrwt>
<totfact> 0.85399435E+00</totfact>
</mgrwt>
</event>
<event>
 4    2  0.3171963E-007  0.1044701E+04  0.7818608E-02  0.9325279E-01
          2   -1    0    0  501    0  0.00000000000E+00  0.00000000000E+00  0.25769773193E+04  0.25769773193E+04  0.25500000000E-02 0. -1.
         -2   -1    0    0    0  501 -0.00000000000E+00 -0.00000000000E+00 -0.37908041395E+03  0.37908041396E+03  0.25500000000E-02 0.  1.
    8880023    1    1    2    0    0  0.80713654158E+02  0.80689211902E+03  0.16907243981E+04  0.19874478062E+04  0.65864270000E+03 0. -1.
    8880022    1    1    2    0    0 -0.80713654158E+02 -0.80689211902E+03  0.50717250723E+03  0.96860992706E+03  0.15294330000E+03 0.  1.
<mgrwt>
<rscale>  0 0.98488573E+03</rscale>
<asrwt>0</asrwt>
<pdfrwt beam="1">  1        2 0.39645806E+00 0.10447008E+04</pdfrwt>
<pdfrwt beam="2">  1       -2 0.58320062E-01 0.10447008E+04</pdfrwt>
<totfact> 0.87000832E+00</totfact>
</mgrwt>
</event>
<event>
 4    2  0.3171963E-007  0.9461295E+03  0.7818608E-02  0.9455705E-01
         -2   -1    0    0    0  501 -0.00000000000E+00  0.00000000000E+00  0.56675674574E+03  0.56675674574E+03  0.25500000000E-02 0.  1.
          2   -1    0    0  501    0  0.00000000000E+00 -0.00000000000E+00 -0.17568473002E+04  0.17568473002E+04  0.25500000000E-02 0. -1.
    8880023    1    1    2    0    0 -0.66563873852E+03  0.13518807001E+03 -0.15239966871E+01  0.94613068512E+03  0.65864270000E+03 0.  0.
    8880022    1    1    2    0    0  0.66563873852E+03 -0.13518807001E+03 -0.11885665577E+04  0.13774733608E+04  0.15294330000E+03 0. -1.
<mgrwt>
<rscale>  0 0.87629796E+03</rscale>
<asrwt>0</asrwt>
<pdfrwt beam="1">  1        2 0.27028420E+00 0.94612946E+03</pdfrwt>
<pdfrwt beam="2">  1       -2 0.87193346E-01 0.94612946E+03</pdfrwt>
<totfact> 0.10412744E+01</totfact>
</mgrwt>
</event>
<event>
 4    2  0.3171963E-007  0.7175451E+03  0.7818608E-02  0.9930982E-01
          2   -1    0    0  501    0  0.00000000000E+00  0.00000000000E+00  0.16265716704E+04  0.16265716704E+04  0.25500000000E-02 0. -1.
         -2   -1    0    0    0  501 -0.00000000000E+00 -0.00000000000E+00 -0.48367203221E+03  0.48367203222E+03  0.25500000000E-02 0.  1.
    8880023    1    1    2    0    0  0.25946405842E+03  0.11721437793E+03  0.14790579200E+04  0.16439231567E+04  0.65864270000E+03 0. -1.
    8880022    1    1    2    0    0 -0.25946405842E+03 -0.11721437793E+03 -0.33615828190E+03  0.46632054588E+03  0.15294330000E+03 0.  0.
<mgrwt>
<rscale>  0 0.58783001E+03</rscale>
<asrwt>0</asrwt>
<pdfrwt beam="1">  1        2 0.25024180E+00 0.71754513E+03</pdfrwt>
<pdfrwt beam="2">  1       -2 0.74411082E-01 0.71754513E+03</pdfrwt>
<totfact> 0.18051837E+01</totfact>
</mgrwt>
</event>
<event>
 4    2  0.3171963E-007  0.1588050E+04  0.7818608E-02  0.8849839E-01
         -2   -1    0    0    0  501 -0.00000000000E+00  0.00000000000E+00  0.19077310129E+04  0.19077310129E+04  0.25500000000E-02 0.  1.
          2   -1    0    0  501    0  0.00000000000E+00 -0.00000000000E+00 -0.18293504017E+04  0.18293504017E+04  0.25500000000E-02 0. -1.
    8880023    1    1    2    0    0 -0.10433042815E+04 -0.99980499532E+03 -0.10444376361E+04  0.19007246077E+04  0.65864270000E+03 0.  0.
    8880022    1    1    2    0    0  0.10433042815E+04  0.99980499532E+03  0.11228182473E+04  0.18363568068E+04  0.15294330000E+03 0.  0.
<mgrwt>
<rscale>  0 0.15531798E+04</rscale>
<asrwt>0</asrwt>
<pdfrwt beam="1">  1        2 0.28143852E+00 0.15880504E+04</pdfrwt>
<pdfrwt beam="2">  1       -2 0.29349708E+00 0.15880504E+04</pdfrwt>
<totfact> 0.26904298E-01</totfact>
</mgrwt>
</event>
<event>
 4    2  0.3171963E-007  0.1263613E+04  0.7818608E-02  0.9097637E-01
          2   -1    0    0  501    0  0.00000000000E+00  0.00000000000E+00  0.41235343175E+04  0.41235343175E+04  0.25500000000E-02 0. -1.
         -2   -1    0    0    0  501 -0.00000000000E+00 -0.00000000000E+00 -0.47793722567E+03  0.47793722568E+03  0.25500000000E-02 0.  1.
    8880023    1    1    2    0    0  0.45563777065E+03 -0.97739582726E+03  0.31707947744E+04  0.34133060350E+04  0.65864270000E+03 0.  0.
    8880022    1    1    2    0    0 -0.45563777065E+03  0.97739582726E+03  0.47480231752E+03  0.11881655082E+04  0.15294330000E+03 0.  0.
<mgrwt>
<rscale>  0 0.12175448E+04</rscale>
<asrwt>0</asrwt>
<pdfrwt beam="1">  1        2 0.63438988E+00 0.12636133E+04</pdfrwt>
<pdfrwt beam="2">  1       -2 0.73528805E-01 0.12636133E+04</pdfrwt>
<totfact> 0.45609373E-01</totfact>
</mgrwt>
</event>
<event>
 4    2  0.3171963E-007  0.8090010E+03  0.7818608E-02  0.9691662E-01
         -2   -1    0    0    0  501 -0.00000000000E+00  0.00000000000E+00  0.13633436966E+04  0.13633436966E+04  0.25500000000E-02 0.  1.
          2   -1    0    0  501    0  0.00000000000E+00 -0.00000000000E+00 -0.41662412661E+03  0.41662412662E+03  0.25500000000E-02 0. -1.
    8880023    1    1    2    0    0  0.40958731759E+03  0.23002307277E+03  0.12136181863E+03  0.81805334913E+03  0.65864270000E+03 0.  0.
    8880022    1    1    2    0    0 -0.40958731759E+03 -0.23002307277E+03  0.82535775136E+03  0.96191447410E+03  0.15294330000E+03 0.  0.
<mgrwt>
<rscale>  0 0.71515431E+03</rscale>
<asrwt>0</asrwt>
<pdfrwt beam="1">  1        2 0.64096019E-01 0.80900098E+03</pdfrwt>
<pdfrwt beam="2">  1       -2 0.20974519E+00 0.80900098E+03</pdfrwt>
<totfact> 0.88515812E+00</totfact>
</mgrwt>
</event>
<event>
 4    2  0.3171963E-007  0.7917442E+03  0.7818608E-02  0.9728939E-01
          2   -1    0    0  501    0  0.00000000000E+00  0.00000000000E+00  0.59526688365E+03  0.59526688365E+03  0.25500000000E-02 0. -1.
         -2   -1    0    0    0  501 -0.00000000000E+00 -0.00000000000E+00 -0.14999019899E+04  0.14999019899E+04  0.25500000000E-02 0.  1.
    8880023    1    1    2    0    0  0.43490532020E+03  0.62498522652E+02  0.26619412569E+03  0.83529529011E+03  0.65864270000E+03 0. -1.
    8880022    1    1    2    0    0 -0.43490532020E+03 -0.62498522652E+02 -0.11708292319E+04  0.12598735834E+04  0.15294330000E+03 0.  0.
<mgrwt>
<rscale>  0 0.69319585E+03</rscale>
<asrwt>0</asrwt>
<pdfrwt beam="1">  1        2 0.91579521E-01 0.79174422E+03</pdfrwt>
<pdfrwt beam="2">  1       -2 0.23075415E+00 0.79174422E+03</pdfrwt>
<totfact> 0.43206346E+00</totfact>
</mgrwt>
</event>
<event>
 4    2  0.3171963E-007  0.6738012E+03  0.7818608E-02  0.1013073E+00
         -2   -1    0    0    0  501 -0.00000000000E+00  0.00000000000E+00  0.80012623299E+02  0.80012623339E+02  0.25500000000E-02 0.  1.
          2   -1    0    0  501    0  0.00000000000E+00 -0.00000000000E+00 -0.26798006345E+04  0.26798006345E+04  0.25500000000E-02 0. -1.
    8880023    1    1    2    0    0 -0.95895703451E+01  0.14179532568E+03 -0.22834585264E+04  0.23807962791E+04  0.65864270000E+03 0. -1.
    8880022    1    1    2    0    0  0.95895703451E+01 -0.14179532568E+03 -0.31632948475E+03  0.37901697875E+03  0.15294330000E+03 0.  0.
<mgrwt>
<rscale>  0 0.50271473E+03</rscale>
<asrwt>0</asrwt>
<pdfrwt beam="1">  1        2 0.41227695E+00 0.67380122E+03</pdfrwt>
<pdfrwt beam="2">  1       -2 0.12309636E-01 0.67380122E+03</pdfrwt>
<totfact> 0.14028903E+02</totfact>
</mgrwt>
</event>
<event>
 4    2  0.3171963E-007  0.6794329E+03  0.7818608E-02  0.1009646E+00
         -2   -1    0    0    0  501 -0.00000000000E+00  0.00000000000E+00  0.27495639805E+03  0.27495639806E+03  0.25500000000E-02 0.  1.
          2   -1    0    0  501    0  0.00000000000E+00 -0.00000000000E+00 -0.22463036599E+04  0.22463036599E+04  0.25500000000E-02 0. -1.
    8880023    1    1    2    0    0  0.12646869310E+03  0.10874094942E+03 -0.21359642850E+04  0.22414219945E+04  0.65864270000E+03 0. -1.
    8880022    1    1    2    0    0 -0.12646869310E+03 -0.10874094942E+03  0.16461702316E+03  0.27983806343E+03  0.15294330000E+03 0.  0.
<mgrwt>
<rscale>  0 0.51615473E+03</rscale>
<asrwt>0</asrwt>
<pdfrwt beam="1">  1        2 0.34558517E+00 0.67943295E+03</pdfrwt>
<pdfrwt beam="2">  1       -2 0.42300986E-01 0.67943295E+03</pdfrwt>
<totfact> 0.27022301E+01</totfact>
</mgrwt>
</event>
<event>
 4    2  0.3171963E-007  0.1037335E+04  0.7818608E-02  0.9334264E-01
         -2   -1    0    0    0  501 -0.00000000000E+00  0.00000000000E+00  0.66355543364E+03  0.66355543364E+03  0.25500000000E-02 0.  1.
          2   -1    0    0  501    0  0.00000000000E+00 -0.00000000000E+00 -0.36834015067E+04  0.36834015067E+04  0.25500000000E-02 0. -1.
    8880023    1    1    2    0    0 -0.71311479144E+03 -0.36567783088E+03 -0.33194929294E+04  0.34778005257E+04  0.65864270000E+03 0. -1.
    8880022    1    1    2    0    0  0.71311479144E+03  0.36567783088E+03  0.29964685628E+03  0.86915641473E+03  0.15294330000E+03 0.  0.
<mgrwt>
<rscale>  0 0.97688731E+03</rscale>
<asrwt>0</asrwt>
<pdfrwt beam="1">  1        2 0.56667714E+00 0.10373347E+04</pdfrwt>
<pdfrwt beam="2">  1       -2 0.10208545E+00 0.10373347E+04</pdfrwt>
<totfact> 0.48729433E-01</totfact>
</mgrwt>
</event>
<event>
 4    2  0.3171963E-007  0.7340878E+03  0.7818608E-02  0.9877516E-01
          2   -1    0    0  501    0  0.00000000000E+00  0.00000000000E+00  0.23818696541E+04  0.23818696541E+04  0.25500000000E-02 0. -1.
         -2   -1    0    0    0  501 -0.00000000000E+00 -0.00000000000E+00 -0.64295198201E+03  0.64295198202E+03  0.25500000000E-02 0.  1.
    8880023    1    1    2    0    0  0.11733063470E+03  0.30217257075E+03  0.22690793484E+04  0.23848702346E+04  0.65864270000E+03 0. -1.
    8880022    1    1    2    0    0 -0.11733063470E+03 -0.30217257075E+03 -0.53016167627E+03  0.63995140155E+03  0.15294330000E+03 0.  0.
<mgrwt>
<rscale>  0 0.61363442E+03</rscale>
<asrwt>0</asrwt>
<pdfrwt beam="1">  1        2 0.36644149E+00 0.73408783E+03</pdfrwt>
<pdfrwt beam="2">  1       -2 0.98915688E-01 0.73408783E+03</pdfrwt>
<totfact> 0.36226915E+00</totfact>
</mgrwt>
</event>
<event>
 4    2  0.3171963E-007  0.6843141E+03  0.7818608E-02  0.1006982E+00
         -2   -1    0    0    0  501 -0.00000000000E+00  0.00000000000E+00  0.29661343642E+03  0.29661343643E+03  0.25500000000E-02 0.  1.
          2   -1    0    0  501    0  0.00000000000E+00 -0.00000000000E+00 -0.12886354619E+04  0.12886354619E+04  0.25500000000E-02 0. -1.
    8880023    1    1    2    0    0  0.16486058775E+03  0.85419630562E+02 -0.11201944498E+04  0.13126771645E+04  0.65864270000E+03 0. -1.
    8880022    1    1    2    0    0 -0.16486058775E+03 -0.85419630562E+02  0.12817242434E+03  0.27257173378E+03  0.15294330000E+03 0.  0.
<mgrwt>
<rscale>  0 0.52692116E+03</rscale>
<asrwt>0</asrwt>
<pdfrwt beam="1">  1        2 0.19825161E+00 0.68431406E+03</pdfrwt>
<pdfrwt beam="2">  1       -2 0.45632837E-01 0.68431406E+03</pdfrwt>
<totfact> 0.78230351E+01</totfact>
</mgrwt>
</event>
<event>
 4    2  0.4122179E-007  0.8558779E+03  0.7818608E-02  0.9600938E-01
         -2   -1    0    0    0  501 -0.00000000000E+00  0.00000000000E+00  0.97712185823E+03  0.97712185824E+03  0.25500000000E-02 0.  1.
          2   -1    0    0  501    0  0.00000000000E+00 -0.00000000000E+00 -0.21068230063E+04  0.21068230063E+04  0.25500000000E-02 0. -1.
    8880023    1    1    2    0    0 -0.80063937039E+02  0.54065386063E+03 -0.19251226148E+04  0.21068042432E+04  0.65864270000E+03 0. -1.
    8880022    1    1    2    0    0  0.80063937039E+02 -0.54065386063E+03  0.79542146674E+03  0.97714062130E+03  0.15294330000E+03 0.  0.
<mgrwt>
<rscale>  0 0.77234109E+03</rscale>
<asrwt>0</asrwt>
<pdfrwt beam="1">  1        2 0.32412662E+00 0.85587793E+03</pdfrwt>
<pdfrwt beam="2">  1       -2 0.15032644E+00 0.85587793E+03</pdfrwt>
<totfact> 0.17721757E+00</totfact>
</mgrwt>
</event>
<event>
 4    2  0.3171963E-007  0.7204086E+03  0.7818608E-02  0.9921206E-01
          2   -1    0    0  501    0  0.00000000000E+00  0.00000000000E+00  0.53031890294E+03  0.53031890294E+03  0.25500000000E-02 0. -1.
         -2   -1    0    0    0  501 -0.00000000000E+00 -0.00000000000E+00 -0.11463451022E+04  0.11463451022E+04  0.25500000000E-02 0.  1.
    8880023    1    1    2    0    0 -0.25541409314E+03 -0.14121591632E+03  0.24006242551E+03  0.75935398096E+03  0.65864270000E+03 0. -1.
    8880022    1    1    2    0    0  0.25541409314E+03  0.14121591632E+03 -0.85608862480E+03  0.91731002421E+03  0.15294330000E+03 0.  0.
<mgrwt>
<rscale>  0 0.59244475E+03</rscale>
<asrwt>0</asrwt>
<pdfrwt beam="1">  1        2 0.81587523E-01 0.72040856E+03</pdfrwt>
<pdfrwt beam="2">  1       -2 0.17636079E+00 0.72040856E+03</pdfrwt>
<totfact> 0.11262945E+01</totfact>
</mgrwt>
</event>
<event>
 4    2  0.3171963E-007  0.9083453E+03  0.7818608E-02  0.9512765E-01
         -2   -1    0    0    0  501 -0.00000000000E+00  0.00000000000E+00  0.36422656088E+03  0.36422656088E+03  0.25500000000E-02 0.  1.
          2   -1    0    0  501    0  0.00000000000E+00 -0.00000000000E+00 -0.28217842716E+04  0.28217842716E+04  0.25500000000E-02 0. -1.
    8880023    1    1    2    0    0  0.54853709825E+03  0.30064614314E+03 -0.23675245874E+04  0.25357965080E+04  0.65864270000E+03 0.  0.
    8880022    1    1    2    0    0 -0.54853709825E+03 -0.30064614314E+03 -0.90033123340E+02  0.65021432455E+03  0.15294330000E+03 0.  0.
<mgrwt>
<rscale>  0 0.83349198E+03</rscale>
<asrwt>0</asrwt>
<pdfrwt beam="1">  1        2 0.43412064E+00 0.90834534E+03</pdfrwt>
<pdfrwt beam="2">  1       -2 0.56034857E-01 0.90834534E+03</pdfrwt>
<totfact> 0.69222310E+00</totfact>
</mgrwt>
</event>
<event>
 4    2  0.3171963E-007  0.7814090E+03  0.7818608E-02  0.9752538E-01
          2   -1    0    0  501    0  0.00000000000E+00  0.00000000000E+00  0.14268713567E+04  0.14268713567E+04  0.25500000000E-02 0. -1.
         -2   -1    0    0    0  501 -0.00000000000E+00 -0.00000000000E+00 -0.53321265734E+03  0.53321265735E+03  0.25500000000E-02 0.  1.
    8880023    1    1    2    0    0  0.29415427633E+03  0.30043814628E+03  0.11898601487E+04  0.14235052504E+04  0.65864270000E+03 0. -1.
    8880022    1    1    2    0    0 -0.29415427633E+03 -0.30043814628E+03 -0.29620144936E+03  0.53657876369E+03  0.15294330000E+03 0.  0.
<mgrwt>
<rscale>  0 0.67973055E+03</rscale>
<asrwt>0</asrwt>
<pdfrwt beam="1">  1        2 0.21951867E+00 0.78140900E+03</pdfrwt>
<pdfrwt beam="2">  1       -2 0.82032718E-01 0.78140900E+03</pdfrwt>
<totfact> 0.18590230E+01</totfact>
</mgrwt>
</event>
<event>
 4    2  0.3171963E-007  0.1043090E+04  0.7818608E-02  0.9327235E-01
         -2   -1    0    0    0  501 -0.00000000000E+00  0.00000000000E+00  0.51389833890E+03  0.51389833891E+03  0.25500000000E-02 0.  1.
          2   -1    0    0  501    0  0.00000000000E+00 -0.00000000000E+00 -0.19741817473E+04  0.19741817473E+04  0.25500000000E-02 0. -1.
    8880023    1    1    2    0    0 -0.11482652644E+03  0.80065044179E+03 -0.12695347879E+04  0.16430931334E+04  0.65864270000E+03 0.  0.
    8880022    1    1    2    0    0  0.11482652644E+03 -0.80065044179E+03 -0.19074862046E+03  0.84498695276E+03  0.15294330000E+03 0.  0.
<mgrwt>
<rscale>  0 0.98313782E+03</rscale>
<asrwt>0</asrwt>
<pdfrwt beam="1">  1        2 0.30372026E+00 0.10430899E+04</pdfrwt>
<pdfrwt beam="2">  1       -2 0.79061284E-01 0.10430899E+04</pdfrwt>
<totfact> 0.97749152E+00</totfact>
</mgrwt>
</event>
<event>
 4    2  0.3171963E-007  0.7137257E+03  0.7818608E-02  0.9944418E-01
          2   -1    0    0  501    0  0.00000000000E+00  0.00000000000E+00  0.13418343952E+04  0.13418343952E+04  0.25500000000E-02 0. -1.
         -2   -1    0    0    0  501 -0.00000000000E+00 -0.00000000000E+00 -0.50007522672E+03  0.50007522672E+03  0.25500000000E-02 0.  1.
    8880023    1    1    2    0    0 -0.31302876875E+02  0.27315613183E+03  0.11805704332E+04  0.13795473520E+04  0.65864270000E+03 0.  0.
    8880022    1    1    2    0    0  0.31302876875E+02 -0.27315613183E+03 -0.33881126476E+03  0.46236226987E+03  0.15294330000E+03 0.  0.
<mgrwt>
<rscale>  0 0.58156077E+03</rscale>
<asrwt>0</asrwt>
<pdfrwt beam="1">  1        2 0.20643606E+00 0.71372568E+03</pdfrwt>
<pdfrwt beam="2">  1       -2 0.76934650E-01 0.71372568E+03</pdfrwt>
<totfact> 0.24182305E+01</totfact>
</mgrwt>
</event>
<event>
 4    2  0.3171963E-007  0.1089330E+04  0.7818608E-02  0.9273029E-01
         -2   -1    0    0    0  501 -0.00000000000E+00  0.00000000000E+00  0.18376979779E+04  0.18376979779E+04  0.25500000000E-02 0.  1.
          2   -1    0    0  501    0  0.00000000000E+00 -0.00000000000E+00 -0.72741434530E+03  0.72741434531E+03  0.25500000000E-02 0. -1.
    8880023    1    1    2    0    0 -0.85416694398E+03  0.15241123771E+03 -0.70789605311E+02  0.10916280173E+04  0.65864270000E+03 0. -1.
    8880022    1    1    2    0    0  0.85416694398E+03 -0.15241123771E+03  0.11810732379E+04  0.14734843059E+04  0.15294330000E+03 0.  0.
<mgrwt>
<rscale>  0 0.10330419E+04</rscale>
<asrwt>0</asrwt>
<pdfrwt beam="1">  1        2 0.11190990E+00 0.10893303E+04</pdfrwt>
<pdfrwt beam="2">  1       -2 0.28272276E+00 0.10893303E+04</pdfrwt>
<totfact> 0.15684056E+00</totfact>
</mgrwt>
</event>
<event>
 4    2  0.3171963E-007  0.9119521E+03  0.7818608E-02  0.9507111E-01
         -2   -1    0    0    0  501 -0.00000000000E+00  0.00000000000E+00  0.18019793699E+04  0.18019793699E+04  0.25500000000E-02 0.  1.
          2   -1    0    0  501    0  0.00000000000E+00 -0.00000000000E+00 -0.37500690914E+03  0.37500690915E+03  0.25500000000E-02 0. -1.
    8880023    1    1    2    0    0  0.59234374704E+03  0.21673772487E+03  0.48452582594E+03  0.10326770252E+04  0.65864270000E+03 0. -1.
    8880022    1    1    2    0    0 -0.59234374704E+03 -0.21673772487E+03  0.94244663482E+03  0.11443092539E+04  0.15294330000E+03 0.  0.
<mgrwt>
<rscale>  0 0.83761597E+03</rscale>
<asrwt>0</asrwt>
<pdfrwt beam="1">  1        2 0.57693370E-01 0.91195206E+03</pdfrwt>
<pdfrwt beam="2">  1       -2 0.27722760E+00 0.91195206E+03</pdfrwt>
<totfact> 0.37987610E+00</totfact>
</mgrwt>
</event>
<event>
 4    2  0.3171963E-007  0.6798985E+03  0.7818608E-02  0.1009381E+00
          2   -1    0    0  501    0  0.00000000000E+00  0.00000000000E+00  0.49981310157E+03  0.49981310158E+03  0.25500000000E-02 0. -1.
         -2   -1    0    0    0  501 -0.00000000000E+00 -0.00000000000E+00 -0.75880156815E+03  0.75880156816E+03  0.25500000000E-02 0.  1.
    8880023    1    1    2    0    0 -0.16313883578E+03 -0.42866108781E+02  0.23119393826E+03  0.71813134340E+03  0.65864270000E+03 0. -1.
    8880022    1    1    2    0    0  0.16313883578E+03  0.42866108781E+02 -0.49018240484E+03  0.54048332634E+03  0.15294330000E+03 0.  0.
<mgrwt>
<rscale>  0 0.51721343E+03</rscale>
<asrwt>0</asrwt>
<pdfrwt beam="1">  1        2 0.76894324E-01 0.67989851E+03</pdfrwt>
<pdfrwt beam="2">  1       -2 0.11673870E+00 0.67989851E+03</pdfrwt>
<totfact> 0.35631973E+01</totfact>
</mgrwt>
</event>
<event>
 4    2  0.3171963E-007  0.6639104E+03  0.7818608E-02  0.1020466E+00
          2   -1    0    0  501    0  0.00000000000E+00  0.00000000000E+00  0.26746345774E+04  0.26746345774E+04  0.25500000000E-02 0. -1.
         -2   -1    0    0    0  501 -0.00000000000E+00 -0.00000000000E+00 -0.17477150745E+03  0.17477150747E+03  0.25500000000E-02 0.  1.
    8880023    1    1    2    0    0 -0.69598108278E+02 -0.46074414210E+02  0.25753283502E+04  0.26595287301E+04  0.65864270000E+03 0. -1.
    8880022    1    1    2    0    0  0.69598108278E+02  0.46074414210E+02 -0.75465280281E+02  0.18987735479E+03  0.15294330000E+03 0.  0.
<mgrwt>
<rscale>  0 0.47518962E+03</rscale>
<asrwt>0</asrwt>
<pdfrwt beam="1">  1        2 0.41148222E+00 0.66391035E+03</pdfrwt>
<pdfrwt beam="2">  1       -2 0.26887925E-01 0.66391035E+03</pdfrwt>
<totfact> 0.36615444E+01</totfact>
</mgrwt>
</event>
<event>
 4    2  0.3171963E-007  0.1162737E+04  0.7818608E-02  0.9194224E-01
         -2   -1    0    0    0  501 -0.00000000000E+00  0.00000000000E+00  0.11636671426E+04  0.11636671426E+04  0.25500000000E-02 0.  1.
          2   -1    0    0  501    0  0.00000000000E+00 -0.00000000000E+00 -0.18407426176E+04  0.18407426176E+04  0.25500000000E-02 0. -1.
    8880023    1    1    2    0    0  0.24466402378E+03 -0.92643763992E+03  0.67174132059E+03  0.13428305155E+04  0.65864270000E+03 0.  1.
    8880022    1    1    2    0    0 -0.24466402378E+03  0.92643763992E+03 -0.13488167956E+04  0.16615792447E+04  0.15294330000E+03 0.  0.
<mgrwt>
<rscale>  0 0.11113245E+04</rscale>
<asrwt>0</asrwt>
<pdfrwt beam="1">  1        2 0.28319117E+00 0.11627370E+04</pdfrwt>
<pdfrwt beam="2">  1       -2 0.17902571E+00 0.11627370E+04</pdfrwt>
<totfact> 0.14711163E+00</totfact>
</mgrwt>
</event>
<event>
 4    2  0.3171963E-007  0.6964136E+03  0.7818608E-02  0.1001242E+00
          2   -1    0    0  501    0  0.00000000000E+00  0.00000000000E+00  0.23453976140E+04  0.23453976140E+04  0.25500000000E-02 0. -1.
         -2   -1    0    0    0  501 -0.00000000000E+00 -0.00000000000E+00 -0.46261359316E+03  0.46261359317E+03  0.25500000000E-02 0.  1.
    8880023    1    1    2    0    0 -0.22543581217E+03  0.18985377707E+02  0.22471959121E+04  0.23526328705E+04  0.65864270000E+03 0. -1.
    8880022    1    1    2    0    0  0.22543581217E+03 -0.18985377707E+02 -0.36441189125E+03  0.45537833663E+03  0.15294330000E+03 0.  0.
<mgrwt>
<rscale>  0 0.55109116E+03</rscale>
<asrwt>0</asrwt>
<pdfrwt beam="1">  1        2 0.36083039E+00 0.69641364E+03</pdfrwt>
<pdfrwt beam="2">  1       -2 0.71171324E-01 0.69641364E+03</pdfrwt>
<totfact> 0.80741949E+00</totfact>
</mgrwt>
</event>
<event>
 4    2  0.3171963E-007  0.6656717E+03  0.7818608E-02  0.1018976E+00
         -2   -1    0    0    0  501 -0.00000000000E+00  0.00000000000E+00  0.46986258431E+03  0.46986258432E+03  0.25500000000E-02 0.  1.
          2   -1    0    0  501    0  0.00000000000E+00 -0.00000000000E+00 -0.10431974978E+04  0.10431974978E+04  0.25500000000E-02 0. -1.
    8880023    1    1    2    0    0  0.25152408081E+02 -0.93144846453E+02 -0.91202497219E+03  0.11291184004E+04  0.65864270000E+03 0. -1.
    8880022    1    1    2    0    0 -0.25152408081E+02  0.93144846453E+02  0.33869005870E+03  0.38394168168E+03  0.15294330000E+03 0.  0.
<mgrwt>
<rscale>  0 0.48057809E+03</rscale>
<asrwt>0</asrwt>
<pdfrwt beam="1">  1        2 0.16049192E+00 0.66567170E+03</pdfrwt>
<pdfrwt beam="2">  1       -2 0.72286552E-01 0.66567170E+03</pdfrwt>
<totfact> 0.41962951E+01</totfact>
</mgrwt>
</event>
<event>
 4    2  0.3171963E-007  0.8592799E+03  0.7818608E-02  0.9594846E-01
          2   -1    0    0  501    0  0.00000000000E+00  0.00000000000E+00  0.63915642923E+03  0.63915642924E+03  0.25500000000E-02 0. -1.
         -2   -1    0    0    0  501 -0.00000000000E+00 -0.00000000000E+00 -0.14563076767E+04  0.14563076767E+04  0.25500000000E-02 0.  1.
    8880023    1    1    2    0    0 -0.45221125995E+03 -0.31631753482E+03  0.24087264162E+03  0.89240217514E+03  0.65864270000E+03 0. -1.
    8880022    1    1    2    0    0  0.45221125995E+03  0.31631753482E+03 -0.10580238891E+04  0.12030619308E+04  0.15294330000E+03 0.  0.
<mgrwt>
<rscale>  0 0.77638275E+03</rscale>
<asrwt>0</asrwt>
<pdfrwt beam="1">  1        2 0.98331759E-01 0.85927994E+03</pdfrwt>
<pdfrwt beam="2">  1       -2 0.22404733E+00 0.85927994E+03</pdfrwt>
<totfact> 0.43243987E+00</totfact>
</mgrwt>
</event>
<event>
 4    2  0.3171963E-007  0.9814513E+03  0.7818608E-02  0.9406238E-01
         -2   -1    0    0    0  501 -0.00000000000E+00  0.00000000000E+00  0.26846453044E+03  0.26846453045E+03  0.25500000000E-02 0.  1.
          2   -1    0    0  501    0  0.00000000000E+00 -0.00000000000E+00 -0.28088409173E+04  0.28088409173E+04  0.25500000000E-02 0. -1.
    8880023    1    1    2    0    0 -0.55573824805E+03  0.46967153879E+03 -0.12658491066E+04  0.16017554500E+04  0.65864270000E+03 0. -1.
    8880022    1    1    2    0    0  0.55573824805E+03 -0.46967153879E+03 -0.12745272803E+04  0.14755499977E+04  0.15294330000E+03 0.  1.
<mgrwt>
<rscale>  0 0.91564116E+03</rscale>
<asrwt>0</asrwt>
<pdfrwt beam="1">  1        2 0.43212935E+00 0.98145125E+03</pdfrwt>
<pdfrwt beam="2">  1       -2 0.41302237E-01 0.98145125E+03</pdfrwt>
<totfact> 0.12949636E+01</totfact>
</mgrwt>
</event>
<event>
 4    2  0.3171963E-007  0.7263827E+03  0.7818608E-02  0.9901553E-01
          2   -1    0    0  501    0  0.00000000000E+00  0.00000000000E+00  0.21830400127E+04  0.21830400127E+04  0.25500000000E-02 0. -1.
         -2   -1    0    0    0  501 -0.00000000000E+00 -0.00000000000E+00 -0.13766002411E+03  0.13766002414E+03  0.25500000000E-02 0.  1.
    8880023    1    1    2    0    0  0.18583437398E+03  0.24348963985E+03  0.11293518297E+04  0.13427834453E+04  0.65864270000E+03 0.  1.
    8880022    1    1    2    0    0 -0.18583437398E+03 -0.24348963985E+03  0.91602815884E+03  0.97791659157E+03  0.15294330000E+03 0. -1.
<mgrwt>
<rscale>  0 0.60186102E+03</rscale>
<asrwt>0</asrwt>
<pdfrwt beam="1">  1        2 0.33585229E+00 0.72638270E+03</pdfrwt>
<pdfrwt beam="2">  1       -2 0.21178466E-01 0.72638270E+03</pdfrwt>
<totfact> 0.10515605E+02</totfact>
</mgrwt>
</event>
<event>
 4    2  0.3171963E-007  0.9770941E+03  0.7818608E-02  0.9412159E-01
         -2   -1    0    0    0  501 -0.00000000000E+00  0.00000000000E+00  0.11543419030E+04  0.11543419030E+04  0.25500000000E-02 0.  1.
          2   -1    0    0  501    0  0.00000000000E+00 -0.00000000000E+00 -0.23777205321E+04  0.23777205321E+04  0.25500000000E-02 0. -1.
    8880023    1    1    2    0    0 -0.65957984656E+03 -0.29301379512E+03  0.87260933211E+03  0.13100228665E+04  0.65864270000E+03 0.  1.
    8880022    1    1    2    0    0  0.65957984656E+03  0.29301379512E+03 -0.20959879612E+04  0.22220395686E+04  0.15294330000E+03 0.  0.
<mgrwt>
<rscale>  0 0.91081781E+03</rscale>
<asrwt>0</asrwt>
<pdfrwt beam="1">  1        2 0.36580316E+00 0.97709409E+03</pdfrwt>
<pdfrwt beam="2">  1       -2 0.17759106E+00 0.97709409E+03</pdfrwt>
<totfact> 0.77714608E-01</totfact>
</mgrwt>
</event>
<event>
 4    2  0.3171963E-007  0.8977574E+03  0.7818608E-02  0.9529641E-01
          2   -1    0    0  501    0  0.00000000000E+00  0.00000000000E+00  0.22177539085E+04  0.22177539085E+04  0.25500000000E-02 0. -1.
         -2   -1    0    0    0  501 -0.00000000000E+00 -0.00000000000E+00 -0.66703107390E+03  0.66703107390E+03  0.25500000000E-02 0.  1.
    8880023    1    1    2    0    0  0.20488082467E+02 -0.60970354725E+03  0.19452047946E+04  0.21423795360E+04  0.65864270000E+03 0. -1.
    8880022    1    1    2    0    0 -0.20488082467E+02  0.60970354725E+03 -0.39448196001E+03  0.74240544640E+03  0.15294330000E+03 0.  0.
<mgrwt>
<rscale>  0 0.82133325E+03</rscale>
<asrwt>0</asrwt>
<pdfrwt beam="1">  1        2 0.34119291E+00 0.89775742E+03</pdfrwt>
<pdfrwt beam="2">  1       -2 0.10262017E+00 0.89775742E+03</pdfrwt>
<totfact> 0.39880641E+00</totfact>
</mgrwt>
</event>
<event>
 4    2  0.3171963E-007  0.6792207E+03  0.7818608E-02  0.1009768E+00
         -2   -1    0    0    0  501 -0.00000000000E+00  0.00000000000E+00  0.52929592148E+03  0.52929592148E+03  0.25500000000E-02 0.  1.
          2   -1    0    0  501    0  0.00000000000E+00 -0.00000000000E+00 -0.45185639829E+03  0.45185639830E+03  0.25500000000E-02 0. -1.
    8880023    1    1    2    0    0 -0.59343839387E+02 -0.15494782747E+03 -0.10966103872E+03  0.68801618454E+03  0.65864270000E+03 0.  0.
    8880022    1    1    2    0    0  0.59343839387E+02  0.15494782747E+03  0.18710056190E+03  0.29313613525E+03  0.15294330000E+03 0.  0.
<mgrwt>
<rscale>  0 0.51566961E+03</rscale>
<asrwt>0</asrwt>
<pdfrwt beam="1">  1        2 0.69516369E-01 0.67922068E+03</pdfrwt>
<pdfrwt beam="2">  1       -2 0.81430142E-01 0.67922068E+03</pdfrwt>
<totfact> 0.93296849E+01</totfact>
</mgrwt>
</event>
<event>
 4    2  0.3171963E-007  0.8203489E+03  0.7818608E-02  0.9668411E-01
         -2   -1    0    0    0  501 -0.00000000000E+00  0.00000000000E+00  0.13102473815E+03  0.13102473817E+03  0.25500000000E-02 0.  1.
          2   -1    0    0  501    0  0.00000000000E+00 -0.00000000000E+00 -0.46128334868E+04  0.46128334868E+04  0.25500000000E-02 0. -1.
    8880023    1    1    2    0    0 -0.22561374775E+03 -0.43389005349E+03 -0.38188230460E+04  0.39059418589E+04  0.65864270000E+03 0.  0.
    8880022    1    1    2    0    0  0.22561374775E+03  0.43389005349E+03 -0.66298570261E+03  0.83791636610E+03  0.15294330000E+03 0.  0.
<mgrwt>
<rscale>  0 0.72929166E+03</rscale>
<asrwt>0</asrwt>
<pdfrwt beam="1">  1        2 0.70966657E+00 0.82034892E+03</pdfrwt>
<pdfrwt beam="2">  1       -2 0.20157656E-01 0.82034892E+03</pdfrwt>
<totfact> 0.22389653E+00</totfact>
</mgrwt>
</event>
<event>
 4    2  0.3171963E-007  0.6606576E+03  0.7818608E-02  0.1023493E+00
         -2   -1    0    0    0  501 -0.00000000000E+00  0.00000000000E+00  0.65415227844E+02  0.65415227894E+02  0.25500000000E-02 0.  1.
          2   -1    0    0  501    0  0.00000000000E+00 -0.00000000000E+00 -0.33033035174E+04  0.33033035174E+04  0.25500000000E-02 0. -1.
    8880023    1    1    2    0    0 -0.27528409022E+02  0.43593518912E+02 -0.30513349790E+04  0.31220367660E+04  0.65864270000E+03 0. -1.
    8880022    1    1    2    0    0  0.27528409022E+02 -0.43593518912E+02 -0.18655331057E+03  0.24668197926E+03  0.15294330000E+03 0.  0.
<mgrwt>
<rscale>  0 0.46447034E+03</rscale>
<asrwt>0</asrwt>
<pdfrwt beam="1">  1        2 0.50820041E+00 0.66065756E+03</pdfrwt>
<pdfrwt beam="2">  1       -2 0.10063884E-01 0.66065756E+03</pdfrwt>
<totfact> 0.81418326E+01</totfact>
</mgrwt>
</event>
<event>
 4    2  0.3171963E-007  0.7474706E+03  0.7818608E-02  0.9838697E-01
         -2   -1    0    0    0  501 -0.00000000000E+00  0.00000000000E+00  0.70292619167E+03  0.70292619167E+03  0.25500000000E-02 0.  1.
          2   -1    0    0  501    0  0.00000000000E+00 -0.00000000000E+00 -0.16276639827E+04  0.16276639827E+04  0.25500000000E-02 0. -1.
    8880023    1    1    2    0    0  0.34549503232E+03  0.74399693991E+02 -0.14781422783E+04  0.16563867099E+04  0.65864270000E+03 0. -1.
    8880022    1    1    2    0    0 -0.34549503232E+03 -0.74399693991E+02  0.55340448728E+03  0.67420346438E+03  0.15294330000E+03 0.  0.
<mgrwt>
<rscale>  0 0.63326570E+03</rscale>
<asrwt>0</asrwt>
<pdfrwt beam="1">  1        2 0.25040984E+00 0.74747063E+03</pdfrwt>
<pdfrwt beam="2">  1       -2 0.10814249E+00 0.74747063E+03</pdfrwt>
<totfact> 0.75727704E+00</totfact>
</mgrwt>
</event>
<event>
 4    2  0.3171963E-007  0.6968052E+03  0.7818608E-02  0.1001072E+00
          2   -1    0    0  501    0  0.00000000000E+00  0.00000000000E+00  0.22833841700E+04  0.22833841700E+04  0.25500000000E-02 0. -1.
         -2   -1    0    0    0  501 -0.00000000000E+00 -0.00000000000E+00 -0.17100869323E+03  0.17100869325E+03  0.25500000000E-02 0.  1.
    8880023    1    1    2    0    0  0.14812309960E+03 -0.17258850717E+03  0.20609157665E+04  0.21755255108E+04  0.65864270000E+03 0.  0.
    8880022    1    1    2    0    0 -0.14812309960E+03  0.17258850717E+03  0.51459710254E+02  0.27886735240E+03  0.15294330000E+03 0.  0.
<mgrwt>
<rscale>  0 0.55182602E+03</rscale>
<asrwt>0</asrwt>
<pdfrwt beam="1">  1        2 0.35128984E+00 0.69680517E+03</pdfrwt>
<pdfrwt beam="2">  1       -2 0.26309032E-01 0.69680517E+03</pdfrwt>
<totfact> 0.63034005E+01</totfact>
</mgrwt>
</event>
<event>
 4    2  0.3171963E-007  0.1128833E+04  0.7818608E-02  0.9229613E-01
          2   -1    0    0  501    0  0.00000000000E+00  0.00000000000E+00  0.12916842763E+04  0.12916842763E+04  0.25500000000E-02 0. -1.
         -2   -1    0    0    0  501 -0.00000000000E+00 -0.00000000000E+00 -0.17312532950E+04  0.17312532950E+04  0.25500000000E-02 0.  1.
    8880023    1    1    2    0    0  0.91089875982E+03  0.10352631541E+03  0.86429721537E+03  0.14217152076E+04  0.65864270000E+03 0.  0.
    8880022    1    1    2    0    0 -0.91089875982E+03 -0.10352631541E+03 -0.13038662341E+04  0.16012223637E+04  0.15294330000E+03 0.  0.
<mgrwt>
<rscale>  0 0.10752931E+04</rscale>
<asrwt>0</asrwt>
<pdfrwt beam="1">  1        2 0.19872066E+00 0.11288332E+04</pdfrwt>
<pdfrwt beam="2">  1       -2 0.26634666E+00 0.11288332E+04</pdfrwt>
<totfact> 0.83758614E-01</totfact>
</mgrwt>
</event>
<event>
 4    2  0.3171963E-007  0.7298706E+03  0.7818608E-02  0.9890501E-01
         -2   -1    0    0    0  501 -0.00000000000E+00  0.00000000000E+00  0.27325065181E+03  0.27325065182E+03  0.25500000000E-02 0.  1.
          2   -1    0    0  501    0  0.00000000000E+00 -0.00000000000E+00 -0.19202306685E+04  0.19202306685E+04  0.25500000000E-02 0. -1.
    8880023    1    1    2    0    0  0.88805129016E+02 -0.30168612262E+03 -0.16902588026E+04  0.18411099624E+04  0.65864270000E+03 0.  0.
    8880022    1    1    2    0    0 -0.88805129016E+02  0.30168612262E+03  0.43278785990E+02  0.35237135788E+03  0.15294330000E+03 0.  0.
<mgrwt>
<rscale>  0 0.60723862E+03</rscale>
<asrwt>0</asrwt>
<pdfrwt beam="1">  1        2 0.29542009E+00 0.72987059E+03</pdfrwt>
<pdfrwt beam="2">  1       -2 0.42038563E-01 0.72987059E+03</pdfrwt>
<totfact> 0.40954920E+01</totfact>
</mgrwt>
</event>
<event>
 4    2  0.3171963E-007  0.9103203E+03  0.7818608E-02  0.9509663E-01
         -2   -1    0    0    0  501 -0.00000000000E+00  0.00000000000E+00  0.30886773890E+03  0.30886773891E+03  0.25500000000E-02 0.  1.
          2   -1    0    0  501    0  0.00000000000E+00 -0.00000000000E+00 -0.27438703367E+04  0.27438703367E+04  0.25500000000E-02 0. -1.
    8880023    1    1    2    0    0  0.32489908322E+03  0.53787868719E+03 -0.21711216175E+04  0.23542413174E+04  0.65864270000E+03 0.  0.
    8880022    1    1    2    0    0 -0.32489908322E+03 -0.53787868719E+03 -0.26388098030E+03  0.69849675818E+03  0.15294330000E+03 0.  0.
<mgrwt>
<rscale>  0 0.83575130E+03</rscale>
<asrwt>0</asrwt>
<pdfrwt beam="1">  1        2 0.42213388E+00 0.91032033E+03</pdfrwt>
<pdfrwt beam="2">  1       -2 0.47518116E-01 0.91032033E+03</pdfrwt>
<totfact> 0.10799706E+01</totfact>
</mgrwt>
</event>
<event>
 4    2  0.3171963E-007  0.6650850E+03  0.7818608E-02  0.1019462E+00
         -2   -1    0    0    0  501 -0.00000000000E+00  0.00000000000E+00  0.54605382143E+03  0.54605382144E+03  0.25500000000E-02 0.  1.
          2   -1    0    0  501    0  0.00000000000E+00 -0.00000000000E+00 -0.77973412927E+03  0.77973412928E+03  0.25500000000E-02 0. -1.
    8880023    1    1    2    0    0  0.28845819316E+02 -0.87725392495E+02 -0.61426760260E+03  0.90535226274E+03  0.65864270000E+03 0. -1.
    8880022    1    1    2    0    0 -0.28845819316E+02  0.87725392495E+02  0.38058729476E+03  0.42043568798E+03  0.15294330000E+03 0.  0.
<mgrwt>
<rscale>  0 0.47881178E+03</rscale>
<asrwt>0</asrwt>
<pdfrwt beam="1">  1        2 0.11995910E+00 0.66508498E+03</pdfrwt>
<pdfrwt beam="2">  1       -2 0.84008280E-01 0.66508498E+03</pdfrwt>
<totfact> 0.45029751E+01</totfact>
</mgrwt>
</event>
<event>
 4    2  0.3171963E-007  0.7074401E+03  0.7818608E-02  0.9967632E-01
         -2   -1    0    0    0  501 -0.00000000000E+00  0.00000000000E+00  0.55383478202E+03  0.55383478202E+03  0.25500000000E-02 0.  1.
          2   -1    0    0  501    0  0.00000000000E+00 -0.00000000000E+00 -0.97913927876E+03  0.97913927877E+03  0.25500000000E-02 0. -1.
    8880023    1    1    2    0    0  0.24989077369E+03  0.64930054448E+02 -0.79015033079E+03  0.10605701590E+04  0.65864270000E+03 0. -1.
    8880022    1    1    2    0    0 -0.24989077369E+03 -0.64930054448E+02  0.36484583405E+03  0.47240390174E+03  0.15294330000E+03 0.  0.
<mgrwt>
<rscale>  0 0.57092560E+03</rscale>
<asrwt>0</asrwt>
<pdfrwt beam="1">  1        2 0.15063681E+00 0.70744012E+03</pdfrwt>
<pdfrwt beam="2">  1       -2 0.85205351E-01 0.70744012E+03</pdfrwt>
<totfact> 0.31760839E+01</totfact>
</mgrwt>
</event>
<event>
 4    2  0.3171963E-007  0.9168051E+03  0.7818608E-02  0.9499575E-01
          2   -1    0    0  501    0  0.00000000000E+00  0.00000000000E+00  0.11539899594E+04  0.11539899594E+04  0.25500000000E-02 0. -1.
         -2   -1    0    0    0  501 -0.00000000000E+00 -0.00000000000E+00 -0.55919169787E+03  0.55919169788E+03  0.25500000000E-02 0.  1.
    8880023    1    1    2    0    0 -0.64072132524E+02 -0.63452036191E+03  0.17177707661E+03  0.93275875668E+03  0.65864270000E+03 0.  1.
    8880022    1    1    2    0    0  0.64072132524E+02  0.63452036191E+03  0.42302118487E+03  0.78042290056E+03  0.15294330000E+03 0. -1.
<mgrwt>
<rscale>  0 0.84315141E+03</rscale>
<asrwt>0</asrwt>
<pdfrwt beam="1">  1        2 0.17753692E+00 0.91680507E+03</pdfrwt>
<pdfrwt beam="2">  1       -2 0.86029492E-01 0.91680507E+03</pdfrwt>
<totfact> 0.23716840E+01</totfact>
</mgrwt>
</event>
<event>
 4    2  0.3171963E-007  0.6903042E+03  0.7818608E-02  0.1004008E+00
          2   -1    0    0  501    0  0.00000000000E+00  0.00000000000E+00  0.16089269395E+04  0.16089269395E+04  0.25500000000E-02 0. -1.
         -2   -1    0    0    0  501 -0.00000000000E+00 -0.00000000000E+00 -0.50898073498E+03  0.50898073499E+03  0.25500000000E-02 0.  1.
    8880023    1    1    2    0    0 -0.20517738543E+03 -0.24736149539E+02  0.14949329442E+04  0.16466160300E+04  0.65864270000E+03 0. -1.
    8880022    1    1    2    0    0  0.20517738543E+03  0.24736149539E+02 -0.39498673966E+03  0.47129164443E+03  0.15294330000E+03 0.  0.
<mgrwt>
<rscale>  0 0.53927044E+03</rscale>
<asrwt>0</asrwt>
<pdfrwt beam="1">  1        2 0.24752721E+00 0.69030417E+03</pdfrwt>
<pdfrwt beam="2">  1       -2 0.78304731E-01 0.69030417E+03</pdfrwt>
<totfact> 0.16542763E+01</totfact>
</mgrwt>
</event>
<event>
 4    2  0.3171963E-007  0.9288626E+03  0.7818608E-02  0.9481201E-01
          2   -1    0    0  501    0  0.00000000000E+00  0.00000000000E+00  0.24603790496E+04  0.24603790496E+04  0.25500000000E-02 0. -1.
         -2   -1    0    0    0  501 -0.00000000000E+00 -0.00000000000E+00 -0.60086424635E+03  0.60086424635E+03  0.25500000000E-02 0.  1.
    8880023    1    1    2    0    0 -0.64920675814E+03 -0.86638318704E+02  0.21397133458E+04  0.23326292079E+04  0.65864270000E+03 0. -1.
    8880022    1    1    2    0    0  0.64920675814E+03  0.86638318704E+02 -0.28019854253E+03  0.72861408807E+03  0.15294330000E+03 0.  0.
<mgrwt>
<rscale>  0 0.85684057E+03</rscale>
<asrwt>0</asrwt>
<pdfrwt beam="1">  1        2 0.37851984E+00 0.92886265E+03</pdfrwt>
<pdfrwt beam="2">  1       -2 0.92440656E-01 0.92886265E+03</pdfrwt>
<totfact> 0.37132189E+00</totfact>
</mgrwt>
</event>
<event>
 4    2  0.3171963E-007  0.7338447E+03  0.7818608E-02  0.9878254E-01
          2   -1    0    0  501    0  0.00000000000E+00  0.00000000000E+00  0.25204253433E+04  0.25204253433E+04  0.25500000000E-02 0. -1.
         -2   -1    0    0    0  501 -0.00000000000E+00 -0.00000000000E+00 -0.23222547872E+03  0.23222547873E+03  0.25500000000E-02 0.  1.
    8880023    1    1    2    0    0 -0.27402678729E+03  0.17212533974E+03  0.40992099538E+03  0.84057316246E+03  0.65864270000E+03 0.  1.
    8880022    1    1    2    0    0  0.27402678729E+03 -0.17212533974E+03  0.18782788692E+04  0.19120776595E+04  0.15294330000E+03 0.  0.
<mgrwt>
<rscale>  0 0.61326865E+03</rscale>
<asrwt>0</asrwt>
<pdfrwt beam="1">  1        2 0.38775775E+00 0.73384468E+03</pdfrwt>
<pdfrwt beam="2">  1       -2 0.35726997E-01 0.73384468E+03</pdfrwt>
<totfact> 0.26124022E+01</totfact>
</mgrwt>
</event>
<event>
 4    2  0.3171963E-007  0.7169260E+03  0.7818608E-02  0.9933128E-01
          2   -1    0    0  501    0  0.00000000000E+00  0.00000000000E+00  0.14557465965E+04  0.14557465965E+04  0.25500000000E-02 0. -1.
         -2   -1    0    0    0  501 -0.00000000000E+00 -0.00000000000E+00 -0.18864579312E+03  0.18864579313E+03  0.25500000000E-02 0.  1.
    8880023    1    1    2    0    0 -0.19189124099E+03  0.20820767388E+03  0.97172539085E+03  0.12075732381E+04  0.65864270000E+03 0.  1.
    8880022    1    1    2    0    0  0.19189124099E+03 -0.20820767388E+03  0.29537541255E+03  0.43681915158E+03  0.15294330000E+03 0. -1.
<mgrwt>
<rscale>  0 0.58682286E+03</rscale>
<asrwt>0</asrwt>
<pdfrwt beam="1">  1        2 0.22396101E+00 0.71692600E+03</pdfrwt>
<pdfrwt beam="2">  1       -2 0.29022430E-01 0.71692600E+03</pdfrwt>
<totfact> 0.14931921E+02</totfact>
</mgrwt>
</event>
<event>
 4    2  0.3171963E-007  0.6703678E+03  0.7818608E-02  0.1015401E+00
          2   -1    0    0  501    0  0.00000000000E+00  0.00000000000E+00  0.50539686071E+03  0.50539686071E+03  0.25500000000E-02 0. -1.
         -2   -1    0    0    0  501 -0.00000000000E+00 -0.00000000000E+00 -0.54782278625E+03  0.54782278626E+03  0.25500000000E-02 0.  1.
    8880023    1    1    2    0    0  0.73269819988E+02 -0.10106557375E+03  0.23705256827E+03  0.71104630166E+03  0.65864270000E+03 0. -1.
    8880022    1    1    2    0    0 -0.73269819988E+02  0.10106557375E+03 -0.27947849382E+03  0.34217334531E+03  0.15294330000E+03 0.  0.
<mgrwt>
<rscale>  0 0.49383541E+03</rscale>
<asrwt>0</asrwt>
<pdfrwt beam="1">  1        2 0.77753363E-01 0.67036775E+03</pdfrwt>
<pdfrwt beam="2">  1       -2 0.84280428E-01 0.67036775E+03</pdfrwt>
<totfact> 0.75930255E+01</totfact>
</mgrwt>
</event>
<event>
 4    2  0.3171963E-007  0.7113414E+03  0.7818608E-02  0.9953053E-01
          2   -1    0    0  501    0  0.00000000000E+00  0.00000000000E+00  0.60130962991E+03  0.60130962991E+03  0.25500000000E-02 0. -1.
         -2   -1    0    0    0  501 -0.00000000000E+00 -0.00000000000E+00 -0.49551992048E+03  0.49551992049E+03  0.25500000000E-02 0.  1.
    8880023    1    1    2    0    0 -0.26214367035E+03 -0.58967086720E+02  0.25222057933E+03  0.75473296478E+03  0.65864270000E+03 0.  0.
    8880022    1    1    2    0    0  0.26214367035E+03  0.58967086720E+02 -0.14643086991E+03  0.34209658562E+03  0.15294330000E+03 0.  0.
<mgrwt>
<rscale>  0 0.57757587E+03</rscale>
<asrwt>0</asrwt>
<pdfrwt beam="1">  1        2 0.92509174E-01 0.71134143E+03</pdfrwt>
<pdfrwt beam="2">  1       -2 0.76233834E-01 0.71134143E+03</pdfrwt>
<totfact> 0.77265783E+01</totfact>
</mgrwt>
</event>
<event>
 4    2  0.3171963E-007  0.6626471E+03  0.7818608E-02  0.1021595E+00
          2   -1    0    0  501    0  0.00000000000E+00  0.00000000000E+00  0.20645418334E+04  0.20645418334E+04  0.25500000000E-02 0. -1.
         -2   -1    0    0    0  501 -0.00000000000E+00 -0.00000000000E+00 -0.21306761224E+03  0.21306761225E+03  0.25500000000E-02 0.  1.
    8880023    1    1    2    0    0 -0.96002886195E+01  0.72102966056E+02  0.19649983856E+04  0.20737212602E+04  0.65864270000E+03 0. -1.
    8880022    1    1    2    0    0  0.96002886195E+01 -0.72102966056E+02 -0.11352416443E+03  0.20388818548E+03  0.15294330000E+03 0.  0.
<mgrwt>
<rscale>  0 0.47115538E+03</rscale>
<asrwt>0</asrwt>
<pdfrwt beam="1">  1        2 0.31762182E+00 0.66264712E+03</pdfrwt>
<pdfrwt beam="2">  1       -2 0.32779633E-01 0.66264712E+03</pdfrwt>
<totfact> 0.55623153E+01</totfact>
</mgrwt>
</event>
<event>
 4    2  0.3171963E-007  0.8918431E+03  0.7818608E-02  0.9539255E-01
          2   -1    0    0  501    0  0.00000000000E+00  0.00000000000E+00  0.34397684114E+04  0.34397684114E+04  0.25500000000E-02 0. -1.
         -2   -1    0    0    0  501 -0.00000000000E+00 -0.00000000000E+00 -0.28246107755E+03  0.28246107756E+03  0.25500000000E-02 0.  1.
    8880023    1    1    2    0    0 -0.48343021174E+03 -0.35758800973E+03  0.29279083467E+04  0.30607240070E+04  0.65864270000E+03 0.  1.
    8880022    1    1    2    0    0  0.48343021174E+03  0.35758800973E+03  0.22939898719E+03  0.66150548196E+03  0.15294330000E+03 0.  0.
<mgrwt>
<rscale>  0 0.81450564E+03</rscale>
<asrwt>0</asrwt>
<pdfrwt beam="1">  1        2 0.52919512E+00 0.89184313E+03</pdfrwt>
<pdfrwt beam="2">  1       -2 0.43455552E-01 0.89184313E+03</pdfrwt>
<totfact> 0.47356096E+00</totfact>
</mgrwt>
</event>
<event>
 4    2  0.3171963E-007  0.8176130E+03  0.7818608E-02  0.9673932E-01
         -2   -1    0    0    0  501 -0.00000000000E+00  0.00000000000E+00  0.46409697872E+03  0.46409697873E+03  0.25500000000E-02 0.  1.
          2   -1    0    0  501    0  0.00000000000E+00 -0.00000000000E+00 -0.23128952908E+04  0.23128952908E+04  0.25500000000E-02 0. -1.
    8880023    1    1    2    0    0  0.25001407238E+03  0.41493818130E+03 -0.20679608741E+04  0.22237250535E+04  0.65864270000E+03 0. -1.
    8880022    1    1    2    0    0 -0.25001407238E+03 -0.41493818130E+03  0.21916256202E+03  0.55326721599E+03  0.15294330000E+03 0.  0.
<mgrwt>
<rscale>  0 0.72590287E+03</rscale>
<asrwt>0</asrwt>
<pdfrwt beam="1">  1        2 0.35583004E+00 0.81761295E+03</pdfrwt>
<pdfrwt beam="2">  1       -2 0.71399537E-01 0.81761295E+03</pdfrwt>
<totfact> 0.81944840E+00</totfact>
</mgrwt>
</event>
<event>
 4    2  0.3171963E-007  0.1011105E+04  0.7818608E-02  0.9367170E-01
          2   -1    0    0  501    0  0.00000000000E+00  0.00000000000E+00  0.11529779327E+04  0.11529779327E+04  0.25500000000E-02 0. -1.
         -2   -1    0    0    0  501 -0.00000000000E+00 -0.00000000000E+00 -0.76223733515E+03  0.76223733516E+03  0.25500000000E-02 0.  1.
    8880023    1    1    2    0    0  0.68510112476E+02  0.76408786162E+03 -0.59124882305E+02  0.10128325892E+04  0.65864270000E+03 0. -1.
    8880022    1    1    2    0    0 -0.68510112476E+02 -0.76408786162E+03  0.44986547988E+03  0.90238267868E+03  0.15294330000E+03 0.  0.
<mgrwt>
<rscale>  0 0.94827381E+03</rscale>
<asrwt>0</asrwt>
<pdfrwt beam="1">  1        2 0.17738122E+00 0.10111054E+04</pdfrwt>
<pdfrwt beam="2">  1       -2 0.11726728E+00 0.10111054E+04</pdfrwt>
<totfact> 0.11271707E+01</totfact>
</mgrwt>
</event>
<event>
 4    2  0.3171963E-007  0.7579835E+03  0.7818608E-02  0.9810356E-01
         -2   -1    0    0    0  501 -0.00000000000E+00  0.00000000000E+00  0.23264196494E+03  0.23264196496E+03  0.25500000000E-02 0.  1.
          2   -1    0    0  501    0  0.00000000000E+00 -0.00000000000E+00 -0.16281502857E+04  0.16281502857E+04  0.25500000000E-02 0. -1.
    8880023    1    1    2    0    0  0.22702015520E+03 -0.29864794513E+03 -0.11784970059E+04  0.14012116703E+04  0.65864270000E+03 0.  0.
    8880022    1    1    2    0    0 -0.22702015520E+03  0.29864794513E+03 -0.21701131489E+03  0.45958058031E+03  0.15294330000E+03 0.  0.
<mgrwt>
<rscale>  0 0.64809717E+03</rscale>
<asrwt>0</asrwt>
<pdfrwt beam="1">  1        2 0.25048465E+00 0.75798348E+03</pdfrwt>
<pdfrwt beam="2">  1       -2 0.35791072E-01 0.75798348E+03</pdfrwt>
<totfact> 0.80535008E+01</totfact>
</mgrwt>
</event>
<event>
 4    2  0.3171963E-007  0.1652897E+04  0.7818608E-02  0.8808594E-01
         -2   -1    0    0    0  501 -0.00000000000E+00  0.00000000000E+00  0.17512137698E+04  0.17512137698E+04  0.25500000000E-02 0.  1.
          2   -1    0    0  501    0  0.00000000000E+00 -0.00000000000E+00 -0.17360062476E+04  0.17360062476E+04  0.25500000000E-02 0. -1.
    8880023    1    1    2    0    0 -0.13145754924E+04  0.75508317380E+03 -0.71097933285E+03  0.17993224121E+04  0.65864270000E+03 0.  0.
    8880022    1    1    2    0    0  0.13145754924E+04 -0.75508317380E+03  0.72618685500E+03  0.16878976053E+04  0.15294330000E+03 0.  0.
<mgrwt>
<rscale>  0 0.16196047E+04</rscale>
<asrwt>0</asrwt>
<pdfrwt beam="1">  1        2 0.26707788E+00 0.16528973E+04</pdfrwt>
<pdfrwt beam="2">  1       -2 0.26941750E+00 0.16528973E+04</pdfrwt>
<totfact> 0.42292805E-01</totfact>
</mgrwt>
</event>
<event>
 4    2  0.3171963E-007  0.7971745E+03  0.7818608E-02  0.9716939E-01
          2   -1    0    0  501    0  0.00000000000E+00  0.00000000000E+00  0.16559316029E+04  0.16559316029E+04  0.25500000000E-02 0. -1.
         -2   -1    0    0    0  501 -0.00000000000E+00 -0.00000000000E+00 -0.28598039919E+03  0.28598039920E+03  0.25500000000E-02 0.  1.
    8880023    1    1    2    0    0  0.29855598139E+03 -0.33547180909E+03  0.11945349608E+04  0.14361061895E+04  0.65864270000E+03 0.  0.
    8880022    1    1    2    0    0 -0.29855598139E+03  0.33547180909E+03  0.17541624287E+03  0.50580581254E+03  0.15294330000E+03 0.  0.
<mgrwt>
<rscale>  0 0.70017151E+03</rscale>
<asrwt>0</asrwt>
<pdfrwt beam="1">  1        2 0.25475871E+00 0.79717452E+03</pdfrwt>
<pdfrwt beam="2">  1       -2 0.43996984E-01 0.79717452E+03</pdfrwt>
<totfact> 0.51795518E+01</totfact>
</mgrwt>
</event>
<event>
 4    2  0.3171963E-007  0.9674943E+03  0.7818608E-02  0.9425378E-01
          2   -1    0    0  501    0  0.00000000000E+00  0.00000000000E+00  0.11227288584E+04  0.11227288584E+04  0.25500000000E-02 0. -1.
         -2   -1    0    0    0  501 -0.00000000000E+00 -0.00000000000E+00 -0.10073812469E+04  0.10073812470E+04  0.25500000000E-02 0.  1.
    8880023    1    1    2    0    0  0.58169399655E+03 -0.40480511154E+03  0.70375883195E+03  0.11963786122E+04  0.65864270000E+03 0.  1.
    8880022    1    1    2    0    0 -0.58169399655E+03  0.40480511154E+03 -0.58841122047E+03  0.93373149317E+03  0.15294330000E+03 0.  0.
<mgrwt>
<rscale>  0 0.90016268E+03</rscale>
<asrwt>0</asrwt>
<pdfrwt beam="1">  1        2 0.17272752E+00 0.96749434E+03</pdfrwt>
<pdfrwt beam="2">  1       -2 0.15498173E+00 0.96749434E+03</pdfrwt>
<totfact> 0.57611557E+00</totfact>
</mgrwt>
</event>
<event>
 4    2  0.3171963E-007  0.6755176E+03  0.7818608E-02  0.1011982E+00
          2   -1    0    0  501    0  0.00000000000E+00  0.00000000000E+00  0.24924294019E+04  0.24924294019E+04  0.25500000000E-02 0. -1.
         -2   -1    0    0    0  501 -0.00000000000E+00 -0.00000000000E+00 -0.23005275629E+03  0.23005275631E+03  0.25500000000E-02 0.  1.
    8880023    1    1    2    0    0 -0.87575634404E+01  0.14979039769E+03  0.23827998394E+04  0.24767032804E+04  0.65864270000E+03 0. -1.
    8880022    1    1    2    0    0  0.87575634404E+01 -0.14979039769E+03 -0.12042319380E+03  0.24577887781E+03  0.15294330000E+03 0.  0.
<mgrwt>
<rscale>  0 0.50694474E+03</rscale>
<asrwt>0</asrwt>
<pdfrwt beam="1">  1        2 0.38345065E+00 0.67551763E+03</pdfrwt>
<pdfrwt beam="2">  1       -2 0.35392734E-01 0.67551763E+03</pdfrwt>
<totfact> 0.27839913E+01</totfact>
</mgrwt>
</event>
<event>
 4    2  0.3171963E-007  0.8843777E+03  0.7818608E-02  0.9551591E-01
          2   -1    0    0  501    0  0.00000000000E+00  0.00000000000E+00  0.27175617664E+04  0.27175617664E+04  0.25500000000E-02 0. -1.
         -2   -1    0    0    0  501 -0.00000000000E+00 -0.00000000000E+00 -0.23132602423E+03  0.23132602424E+03  0.25500000000E-02 0.  1.
    8880023    1    1    2    0    0 -0.51951568402E+03 -0.28003078983E+03  0.95939292545E+03  0.13048213598E+04  0.65864270000E+03 0.  1.
    8880022    1    1    2    0    0  0.51951568402E+03  0.28003078983E+03  0.15268428167E+04  0.16440664309E+04  0.15294330000E+03 0.  0.
<mgrwt>
<rscale>  0 0.80584816E+03</rscale>
<asrwt>0</asrwt>
<pdfrwt beam="1">  1        2 0.41808641E+00 0.88437774E+03</pdfrwt>
<pdfrwt beam="2">  1       -2 0.35588620E-01 0.88437774E+03</pdfrwt>
<totfact> 0.19827691E+01</totfact>
</mgrwt>
</event>
<event>
 4    2  0.3171963E-007  0.7018540E+03  0.7818608E-02  0.9989595E-01
         -2   -1    0    0    0  501 -0.00000000000E+00  0.00000000000E+00  0.21945122948E+03  0.21945122950E+03  0.25500000000E-02 0.  1.
          2   -1    0    0  501    0  0.00000000000E+00 -0.00000000000E+00 -0.13108911872E+04  0.13108911872E+04  0.25500000000E-02 0. -1.
    8880023    1    1    2    0    0 -0.21921334400E+03 -0.10360698720E+03 -0.10143384822E+04  0.12334835470E+04  0.65864270000E+03 0. -1.
    8880022    1    1    2    0    0  0.21921334400E+03  0.10360698720E+03 -0.77101475519E+02  0.29685886971E+03  0.15294330000E+03 0.  0.
<mgrwt>
<rscale>  0 0.56108833E+03</rscale>
<asrwt>0</asrwt>
<pdfrwt beam="1">  1        2 0.20167556E+00 0.70185405E+03</pdfrwt>
<pdfrwt beam="2">  1       -2 0.33761728E-01 0.70185405E+03</pdfrwt>
<totfact> 0.13614408E+02</totfact>
</mgrwt>
</event>
<event>
 4    2  0.3171963E-007  0.6647902E+03  0.7818608E-02  0.1019710E+00
          2   -1    0    0  501    0  0.00000000000E+00  0.00000000000E+00  0.75403044964E+03  0.75403044965E+03  0.25500000000E-02 0. -1.
         -2   -1    0    0    0  501 -0.00000000000E+00 -0.00000000000E+00 -0.55602537015E+03  0.55602537016E+03  0.25500000000E-02 0.  1.
    8880023    1    1    2    0    0 -0.84266533804E+02 -0.32170172689E+02  0.58419506080E+03  0.88500273675E+03  0.65864270000E+03 0. -1.
    8880022    1    1    2    0    0  0.84266533804E+02  0.32170172689E+02 -0.38618998131E+03  0.42505308305E+03  0.15294330000E+03 0.  0.
<mgrwt>
<rscale>  0 0.47791372E+03</rscale>
<asrwt>0</asrwt>
<pdfrwt beam="1">  1        2 0.11600468E+00 0.66479017E+03</pdfrwt>
<pdfrwt beam="2">  1       -2 0.85542365E-01 0.66479017E+03</pdfrwt>
<totfact> 0.45139959E+01</totfact>
</mgrwt>
</event>
<event>
 4    2  0.3171963E-007  0.7407922E+03  0.7818608E-02  0.9857645E-01
         -2   -1    0    0    0  501 -0.00000000000E+00  0.00000000000E+00  0.11610009581E+04  0.11610009581E+04  0.25500000000E-02 0.  1.
          2   -1    0    0  501    0  0.00000000000E+00 -0.00000000000E+00 -0.71007219386E+03  0.71007219387E+03  0.25500000000E-02 0. -1.
    8880023    1    1    2    0    0  0.33311634787E+02  0.33742146851E+03 -0.47037855158E+03  0.87751302012E+03  0.65864270000E+03 0. -1.
    8880022    1    1    2    0    0 -0.33311634787E+02 -0.33742146851E+03  0.92130731586E+03  0.99356013190E+03  0.15294330000E+03 0.  0.
<mgrwt>
<rscale>  0 0.62358620E+03</rscale>
<asrwt>0</asrwt>
<pdfrwt beam="1">  1        2 0.10924188E+00 0.74079222E+03</pdfrwt>
<pdfrwt beam="2">  1       -2 0.17861553E+00 0.74079222E+03</pdfrwt>
<totfact> 0.76019415E+00</totfact>
</mgrwt>
</event>
<event>
 4    2  0.4024860E-007  0.8090455E+03  0.7818608E-02  0.9691568E-01
          2   -1    0    0  501    0  0.00000000000E+00  0.00000000000E+00  0.19648790093E+04  0.19648790093E+04  0.25500000000E-02 0. -1.
         -2   -1    0    0    0  501 -0.00000000000E+00 -0.00000000000E+00 -0.10483421228E+04  0.10483421228E+04  0.25500000000E-02 0.  1.
    8880023    1    1    2    0    0 -0.31941134295E+03  0.34455896555E+03  0.18153928604E+04  0.19875124982E+04  0.65864270000E+03 0. -1.
    8880022    1    1    2    0    0  0.31941134295E+03 -0.34455896555E+03 -0.89885597388E+03  0.10257086338E+04  0.15294330000E+03 0.  0.
<mgrwt>
<rscale>  0 0.71521026E+03</rscale>
<asrwt>0</asrwt>
<pdfrwt beam="1">  1        2 0.30228908E+00 0.80904554E+03</pdfrwt>
<pdfrwt beam="2">  1       -2 0.16128341E+00 0.80904554E+03</pdfrwt>
<totfact> 0.17689871E+00</totfact>
</mgrwt>
</event>
<event>
 4    2  0.3171963E-007  0.1162895E+04  0.7818608E-02  0.9194063E-01
          2   -1    0    0  501    0  0.00000000000E+00  0.00000000000E+00  0.18111839483E+04  0.18111839483E+04  0.25500000000E-02 0. -1.
         -2   -1    0    0    0  501 -0.00000000000E+00 -0.00000000000E+00 -0.11287415889E+04  0.11287415889E+04  0.25500000000E-02 0.  1.
    8880023    1    1    2    0    0 -0.89007269097E+03  0.35536678831E+03  0.13349665448E+04  0.17704408580E+04  0.65864270000E+03 0. -1.
    8880022    1    1    2    0    0  0.89007269097E+03 -0.35536678831E+03 -0.65252418548E+03  0.11694846793E+04  0.15294330000E+03 0.  0.
<mgrwt>
<rscale>  0 0.11114922E+04</rscale>
<asrwt>0</asrwt>
<pdfrwt beam="1">  1        2 0.27864368E+00 0.11628952E+04</pdfrwt>
<pdfrwt beam="2">  1       -2 0.17365255E+00 0.11628952E+04</pdfrwt>
<totfact> 0.16658568E+00</totfact>
</mgrwt>
</event>
<event>
 4    2  0.3171963E-007  0.7431221E+03  0.7818608E-02  0.9850944E-01
         -2   -1    0    0    0  501 -0.00000000000E+00  0.00000000000E+00  0.83682387993E+03  0.83682387993E+03  0.25500000000E-02 0.  1.
          2   -1    0    0  501    0  0.00000000000E+00 -0.00000000000E+00 -0.66172301766E+03  0.66172301767E+03  0.25500000000E-02 0. -1.
    8880023    1    1    2    0    0  0.33188442168E+03  0.90956212463E+02 -0.37462126335E+03  0.83220886751E+03  0.65864270000E+03 0. -1.
    8880022    1    1    2    0    0 -0.33188442168E+03 -0.90956212463E+02  0.54972212562E+03  0.66633803009E+03  0.15294330000E+03 0.  0.
<mgrwt>
<rscale>  0 0.62698804E+03</rscale>
<asrwt>0</asrwt>
<pdfrwt beam="1">  1        2 0.10180354E+00 0.74312214E+03</pdfrwt>
<pdfrwt beam="2">  1       -2 0.12874213E+00 0.74312214E+03</pdfrwt>
<totfact> 0.19856032E+01</totfact>
</mgrwt>
</event>
<event>
 4    2  0.3171963E-007  0.6691840E+03  0.7818608E-02  0.1016255E+00
         -2   -1    0    0    0  501 -0.00000000000E+00  0.00000000000E+00  0.19539448183E+03  0.19539448185E+03  0.25500000000E-02 0.  1.
          2   -1    0    0  501    0  0.00000000000E+00 -0.00000000000E+00 -0.26100134349E+04  0.26100134349E+04  0.25500000000E-02 0. -1.
    8880023    1    1    2    0    0  0.28501941389E+02 -0.11482475654E+03 -0.25043686293E+04  0.25922325364E+04  0.65864270000E+03 0. -1.
    8880022    1    1    2    0    0 -0.28501941389E+02  0.11482475654E+03  0.89749676210E+02  0.21317538031E+03  0.15294330000E+03 0.  0.
<mgrwt>
<rscale>  0 0.49062739E+03</rscale>
<asrwt>0</asrwt>
<pdfrwt beam="1">  1        2 0.40154050E+00 0.66918405E+03</pdfrwt>
<pdfrwt beam="2">  1       -2 0.30060691E-01 0.66918405E+03</pdfrwt>
<totfact> 0.32470052E+01</totfact>
</mgrwt>
</event>
<event>
 4    2  0.3171963E-007  0.6703082E+03  0.7818608E-02  0.1015443E+00
         -2   -1    0    0    0  501 -0.00000000000E+00  0.00000000000E+00  0.40068300163E+03  0.40068300164E+03  0.25500000000E-02 0.  1.
          2   -1    0    0  501    0  0.00000000000E+00 -0.00000000000E+00 -0.18974555700E+04  0.18974555700E+04  0.25500000000E-02 0. -1.
    8880023    1    1    2    0    0  0.85063956656E+02 -0.90922926205E+02 -0.18088015296E+04  0.19290090811E+04  0.65864270000E+03 0. -1.
    8880022    1    1    2    0    0 -0.85063956656E+02  0.90922926205E+02  0.31202896115E+03  0.36912949062E+03  0.15294330000E+03 0.  0.
<mgrwt>
<rscale>  0 0.49367590E+03</rscale>
<asrwt>0</asrwt>
<pdfrwt beam="1">  1        2 0.29191623E+00 0.67030818E+03</pdfrwt>
<pdfrwt beam="2">  1       -2 0.61643540E-01 0.67030818E+03</pdfrwt>
<totfact> 0.19447172E+01</totfact>
</mgrwt>
</event>
<event>
 4    2  0.3171963E-007  0.8117080E+03  0.7818608E-02  0.9686030E-01
         -2   -1    0    0    0  501 -0.00000000000E+00  0.00000000000E+00  0.54506814837E+03  0.54506814838E+03  0.25500000000E-02 0.  1.
          2   -1    0    0  501    0  0.00000000000E+00 -0.00000000000E+00 -0.10190789685E+04  0.10190789685E+04  0.25500000000E-02 0. -1.
    8880023    1    1    2    0    0  0.34041217436E+03 -0.33042276992E+03 -0.64543720238E+03  0.10370434146E+04  0.65864270000E+03 0. -1.
    8880022    1    1    2    0    0 -0.34041217436E+03  0.33042276992E+03  0.17142638230E+03  0.52710370222E+03  0.15294330000E+03 0.  0.
<mgrwt>
<rscale>  0 0.71854675E+03</rscale>
<asrwt>0</asrwt>
<pdfrwt beam="1">  1        2 0.15678138E+00 0.81170799E+03</pdfrwt>
<pdfrwt beam="2">  1       -2 0.83856638E-01 0.81170799E+03</pdfrwt>
<totfact> 0.30750863E+01</totfact>
</mgrwt>
</event>
<event>
 4    2  0.3171963E-007  0.7085559E+03  0.7818608E-02  0.9963403E-01
         -2   -1    0    0    0  501 -0.00000000000E+00  0.00000000000E+00  0.19114922476E+03  0.19114922477E+03  0.25500000000E-02 0.  1.
          2   -1    0    0  501    0  0.00000000000E+00 -0.00000000000E+00 -0.18150728770E+04  0.18150728770E+04  0.25500000000E-02 0. -1.
    8880023    1    1    2    0    0 -0.23693093541E+03  0.11002241530E+03 -0.15351250040E+04  0.16907572813E+04  0.65864270000E+03 0. -1.
    8880022    1    1    2    0    0  0.23693093541E+03 -0.11002241530E+03 -0.88798648232E+02  0.31546482049E+03  0.15294330000E+03 0.  0.
<mgrwt>
<rscale>  0 0.57284480E+03</rscale>
<asrwt>0</asrwt>
<pdfrwt beam="1">  1        2 0.27924197E+00 0.70855586E+03</pdfrwt>
<pdfrwt beam="2">  1       -2 0.29407574E-01 0.70855586E+03</pdfrwt>
<totfact> 0.92549252E+01</totfact>
</mgrwt>
</event>
<event>
 4    2  0.3171963E-007  0.6895107E+03  0.7818608E-02  0.1004386E+00
         -2   -1    0    0    0  501 -0.00000000000E+00  0.00000000000E+00  0.85998423495E+02  0.85998423533E+02  0.25500000000E-02 0.  1.
          2   -1    0    0  501    0  0.00000000000E+00 -0.00000000000E+00 -0.33386043821E+04  0.33386043821E+04  0.25500000000E-02 0. -1.
    8880023    1    1    2    0    0 -0.14837754698E+03  0.13999605446E+03 -0.29470882315E+04  0.30266737588E+04  0.65864270000E+03 0. -1.
    8880022    1    1    2    0    0  0.14837754698E+03 -0.13999605446E+03 -0.30551772704E+03  0.39792904677E+03  0.15294330000E+03 0.  0.
<mgrwt>
<rscale>  0 0.53768176E+03</rscale>
<asrwt>0</asrwt>
<pdfrwt beam="1">  1        2 0.51363134E+00 0.68951069E+03</pdfrwt>
<pdfrwt beam="2">  1       -2 0.13230529E-01 0.68951069E+03</pdfrwt>
<totfact> 0.48993453E+01</totfact>
</mgrwt>
</event>
<event>
 4    2  0.3171963E-007  0.9635949E+03  0.7818608E-02  0.9430818E-01
          2   -1    0    0  501    0  0.00000000000E+00  0.00000000000E+00  0.35567941576E+03  0.35567941577E+03  0.25500000000E-02 0. -1.
         -2   -1    0    0    0  501 -0.00000000000E+00 -0.00000000000E+00 -0.21554707411E+04  0.21554707411E+04  0.25500000000E-02 0.  1.
    8880023    1    1    2    0    0 -0.48524293234E+03  0.50916028573E+03 -0.67772649815E+03  0.11780612516E+04  0.65864270000E+03 0.  0.
    8880022    1    1    2    0    0  0.48524293234E+03 -0.50916028573E+03 -0.11220648272E+04  0.13330889053E+04  0.15294330000E+03 0.  0.
<mgrwt>
<rscale>  0 0.89582299E+03</rscale>
<asrwt>0</asrwt>
<pdfrwt beam="1">  1        2 0.54719912E-01 0.96359489E+03</pdfrwt>
<pdfrwt beam="2">  1       -2 0.33161087E+00 0.96359489E+03</pdfrwt>
<totfact> 0.18743365E+00</totfact>
</mgrwt>
</event>
<event>
 4    2  0.3171963E-007  0.6795078E+03  0.7818608E-02  0.1009603E+00
          2   -1    0    0  501    0  0.00000000000E+00  0.00000000000E+00  0.94027743488E+03  0.94027743489E+03  0.25500000000E-02 0. -1.
         -2   -1    0    0    0  501 -0.00000000000E+00 -0.00000000000E+00 -0.28821518258E+03  0.28821518259E+03  0.25500000000E-02 0.  1.
    8880023    1    1    2    0    0  0.16600702643E+03  0.19033709804E+02  0.72194984464E+03  0.99143451593E+03  0.65864270000E+03 0.  0.
    8880022    1    1    2    0    0 -0.16600702643E+03 -0.19033709804E+02 -0.69887592338E+02  0.23705810155E+03  0.15294330000E+03 0.  0.
<mgrwt>
<rscale>  0 0.51632538E+03</rscale>
<asrwt>0</asrwt>
<pdfrwt beam="1">  1        2 0.14465807E+00 0.67950778E+03</pdfrwt>
<pdfrwt beam="2">  1       -2 0.44340798E-01 0.67950778E+03</pdfrwt>
<totfact> 0.13514187E+02</totfact>
</mgrwt>
</event>
<event>
 4    2  0.3619729E-007  0.8251632E+03  0.7818608E-02  0.9658818E-01
         -2   -1    0    0    0  501 -0.00000000000E+00  0.00000000000E+00  0.98497183218E+03  0.98497183219E+03  0.25500000000E-02 0.  1.
          2   -1    0    0  501    0  0.00000000000E+00 -0.00000000000E+00 -0.20737837811E+04  0.20737837811E+04  0.25500000000E-02 0. -1.
    8880023    1    1    2    0    0 -0.43885181535E+03 -0.23343790772E+03 -0.19134651441E+04  0.20838049900E+04  0.65864270000E+03 0. -1.
    8880022    1    1    2    0    0  0.43885181535E+03  0.23343790772E+03  0.82465319513E+03  0.97495062329E+03  0.15294330000E+03 0.  0.
<mgrwt>
<rscale>  0 0.73522618E+03</rscale>
<asrwt>0</asrwt>
<pdfrwt beam="1">  1        2 0.31904366E+00 0.82516324E+03</pdfrwt>
<pdfrwt beam="2">  1       -2 0.15153413E+00 0.82516324E+03</pdfrwt>
<totfact> 0.18185051E+00</totfact>
</mgrwt>
</event>
<event>
 4    2  0.3171963E-007  0.1005744E+04  0.7818608E-02  0.9374081E-01
          2   -1    0    0  501    0  0.00000000000E+00  0.00000000000E+00  0.10359278656E+04  0.10359278656E+04  0.25500000000E-02 0. -1.
         -2   -1    0    0    0  501 -0.00000000000E+00 -0.00000000000E+00 -0.87744268570E+03  0.87744268571E+03  0.25500000000E-02 0.  1.
    8880023    1    1    2    0    0 -0.75904893604E+03 -0.39443752793E+02 -0.25096810129E+03  0.10365839527E+04  0.65864270000E+03 0.  1.
    8880022    1    1    2    0    0  0.75904893604E+03  0.39443752793E+02  0.40945328117E+03  0.87678659856E+03  0.15294330000E+03 0.  0.
<mgrwt>
<rscale>  0 0.94239772E+03</rscale>
<asrwt>0</asrwt>
<pdfrwt beam="1">  1        2 0.15937352E+00 0.10057442E+04</pdfrwt>
<pdfrwt beam="2">  1       -2 0.13499118E+00 0.10057442E+04</pdfrwt>
<totfact> 0.93448722E+00</totfact>
</mgrwt>
</event>
<event>
 4    2  0.3171963E-007  0.7901906E+03  0.7818608E-02  0.9732422E-01
          2   -1    0    0  501    0  0.00000000000E+00  0.00000000000E+00  0.17243100737E+04  0.17243100738E+04  0.25500000000E-02 0. -1.
         -2   -1    0    0    0  501 -0.00000000000E+00 -0.00000000000E+00 -0.27670661859E+03  0.27670661860E+03  0.25500000000E-02 0.  1.
    8880023    1    1    2    0    0 -0.38621754588E+03 -0.20353619207E+03  0.12891381418E+04  0.15120444203E+04  0.65864270000E+03 0. -1.
    8880022    1    1    2    0    0  0.38621754588E+03  0.20353619207E+03  0.15846531338E+03  0.48897227200E+03  0.15294330000E+03 0.  0.
<mgrwt>
<rscale>  0 0.69118803E+03</rscale>
<asrwt>0</asrwt>
<pdfrwt beam="1">  1        2 0.26527848E+00 0.79019060E+03</pdfrwt>
<pdfrwt beam="2">  1       -2 0.42570249E-01 0.79019060E+03</pdfrwt>
<totfact> 0.50751059E+01</totfact>
</mgrwt>
</event>
<event>
 4    2  0.3171963E-007  0.7335292E+03  0.7818608E-02  0.9879213E-01
         -2   -1    0    0    0  501 -0.00000000000E+00  0.00000000000E+00  0.46085729735E+03  0.46085729735E+03  0.25500000000E-02 0.  1.
          2   -1    0    0  501    0  0.00000000000E+00 -0.00000000000E+00 -0.22865976868E+04  0.22865976868E+04  0.25500000000E-02 0. -1.
    8880023    1    1    2    0    0 -0.20048203721E+03 -0.25310452279E+03 -0.21458436056E+04  0.22677543810E+04  0.65864270000E+03 0. -1.
    8880022    1    1    2    0    0  0.20048203721E+03  0.25310452279E+03  0.32010321611E+03  0.47970060317E+03  0.15294330000E+03 0.  0.
<mgrwt>
<rscale>  0 0.61279361E+03</rscale>
<asrwt>0</asrwt>
<pdfrwt beam="1">  1        2 0.35178425E+00 0.73352924E+03</pdfrwt>
<pdfrwt beam="2">  1       -2 0.70901124E-01 0.73352924E+03</pdfrwt>
<totfact> 0.87212191E+00</totfact>
</mgrwt>
</event>
<event>
 4    2  0.3171963E-007  0.6597016E+03  0.7818608E-02  0.1024464E+00
          2   -1    0    0  501    0  0.00000000000E+00  0.00000000000E+00  0.12765647081E+04  0.12765647081E+04  0.25500000000E-02 0. -1.
         -2   -1    0    0    0  501 -0.00000000000E+00 -0.00000000000E+00 -0.37146021726E+03  0.37146021727E+03  0.25500000000E-02 0.  1.
    8880023    1    1    2    0    0 -0.51638934131E+01  0.37003710588E+02  0.11680941636E+04  0.13415103883E+04  0.65864270000E+03 0. -1.
    8880022    1    1    2    0    0  0.51638934131E+01 -0.37003710588E+02 -0.26298967285E+03  0.30651453707E+03  0.15294330000E+03 0.  0.
<mgrwt>
<rscale>  0 0.46109449E+03</rscale>
<asrwt>0</asrwt>
<pdfrwt beam="1">  1        2 0.19639457E+00 0.65970156E+03</pdfrwt>
<pdfrwt beam="2">  1       -2 0.57147726E-01 0.65970156E+03</pdfrwt>
<totfact> 0.50347088E+01</totfact>
</mgrwt>
</event>
<event>
 4    2  0.3171963E-007  0.6623570E+03  0.7818608E-02  0.1021862E+00
          2   -1    0    0  501    0  0.00000000000E+00  0.00000000000E+00  0.59768988231E+03  0.59768988231E+03  0.25500000000E-02 0. -1.
         -2   -1    0    0    0  501 -0.00000000000E+00 -0.00000000000E+00 -0.54487928349E+03  0.54487928349E+03  0.25500000000E-02 0.  1.
    8880023    1    1    2    0    0  0.49998866622E+02 -0.49057916835E+02  0.38793024481E+03  0.76759797223E+03  0.65864270000E+03 0. -1.
    8880022    1    1    2    0    0 -0.49998866622E+02  0.49057916835E+02 -0.33511964599E+03  0.37497119358E+03  0.15294330000E+03 0.  0.
<mgrwt>
<rscale>  0 0.47020688E+03</rscale>
<asrwt>0</asrwt>
<pdfrwt beam="1">  1        2 0.91952289E-01 0.66235698E+03</pdfrwt>
<pdfrwt beam="2">  1       -2 0.83827582E-01 0.66235698E+03</pdfrwt>
<totfact> 0.63102546E+01</totfact>
</mgrwt>
</event>
<event>
 4    2  0.3171963E-007  0.8504990E+03  0.7818608E-02  0.9610692E-01
         -2   -1    0    0    0  501 -0.00000000000E+00  0.00000000000E+00  0.37315898035E+03  0.37315898036E+03  0.25500000000E-02 0.  1.
          2   -1    0    0  501    0  0.00000000000E+00 -0.00000000000E+00 -0.25060513036E+04  0.25060513036E+04  0.25500000000E-02 0. -1.
    8880023    1    1    2    0    0  0.33788903692E+02 -0.53702578228E+03 -0.21576876954E+04  0.23192595323E+04  0.65864270000E+03 0.  0.
    8880022    1    1    2    0    0 -0.33788903692E+02  0.53702578228E+03  0.24795372139E+02  0.55995075171E+03  0.15294330000E+03 0.  0.
<mgrwt>
<rscale>  0 0.76592504E+03</rscale>
<asrwt>0</asrwt>
<pdfrwt beam="1">  1        2 0.38554634E+00 0.85049902E+03</pdfrwt>
<pdfrwt beam="2">  1       -2 0.57409076E-01 0.85049902E+03</pdfrwt>
<totfact> 0.10133015E+01</totfact>
</mgrwt>
</event>
<event>
 4    2  0.3577482E-007  0.6715458E+03  0.7818608E-02  0.1014578E+00
         -2   -1    0    0    0  501 -0.00000000000E+00  0.00000000000E+00  0.97631366809E+03  0.97631366809E+03  0.25500000000E-02 0.  1.
          2   -1    0    0  501    0  0.00000000000E+00 -0.00000000000E+00 -0.17564028629E+04  0.17564028629E+04  0.25500000000E-02 0. -1.
    8880023    1    1    2    0    0 -0.86156220842E+02  0.98694930114E+02 -0.16806832926E+04  0.18098812447E+04  0.65864270000E+03 0. -1.
    8880022    1    1    2    0    0  0.86156220842E+02 -0.98694930114E+02  0.90059409780E+03  0.92283528629E+03  0.15294330000E+03 0.  0.
<mgrwt>
<rscale>  0 0.49694990E+03</rscale>
<asrwt>0</asrwt>
<pdfrwt beam="1">  1        2 0.27021583E+00 0.67154582E+03</pdfrwt>
<pdfrwt beam="2">  1       -2 0.15020210E+00 0.67154582E+03</pdfrwt>
<totfact> 0.28515677E+00</totfact>
</mgrwt>
</event>
<event>
 4    2  0.3171963E-007  0.7371917E+03  0.7818608E-02  0.9868204E-01
         -2   -1    0    0    0  501 -0.00000000000E+00  0.00000000000E+00  0.47088797768E+03  0.47088797768E+03  0.25500000000E-02 0.  1.
          2   -1    0    0  501    0  0.00000000000E+00 -0.00000000000E+00 -0.67510056259E+03  0.67510056259E+03  0.25500000000E-02 0. -1.
    8880023    1    1    2    0    0 -0.33055793708E+03 -0.19311053299E+02 -0.20214714714E+02  0.73746885189E+03  0.65864270000E+03 0.  1.
    8880022    1    1    2    0    0  0.33055793708E+03  0.19311053299E+02 -0.18399787020E+03  0.40851968839E+03  0.15294330000E+03 0.  0.
<mgrwt>
<rscale>  0 0.61827306E+03</rscale>
<asrwt>0</asrwt>
<pdfrwt beam="1">  1        2 0.10386163E+00 0.73719175E+03</pdfrwt>
<pdfrwt beam="2">  1       -2 0.72444304E-01 0.73719175E+03</pdfrwt>
<totfact> 0.74912489E+01</totfact>
</mgrwt>
</event>
<event>
 4    2  0.3171963E-007  0.9779138E+03  0.7818608E-02  0.9411041E-01
         -2   -1    0    0    0  501 -0.00000000000E+00  0.00000000000E+00  0.54698817930E+03  0.54698817930E+03  0.25500000000E-02 0.  1.
          2   -1    0    0  501    0  0.00000000000E+00 -0.00000000000E+00 -0.18069371849E+04  0.18069371849E+04  0.25500000000E-02 0. -1.
    8880023    1    1    2    0    0  0.58347022853E+03  0.42669398449E+03 -0.12848365019E+04  0.16146579535E+04  0.65864270000E+03 0. -1.
    8880022    1    1    2    0    0 -0.58347022853E+03 -0.42669398449E+03  0.24887496317E+02  0.73926741067E+03  0.15294330000E+03 0.  0.
<mgrwt>
<rscale>  0 0.91172586E+03</rscale>
<asrwt>0</asrwt>
<pdfrwt beam="1">  1        2 0.27799033E+00 0.97791384E+03</pdfrwt>
<pdfrwt beam="2">  1       -2 0.84152028E-01 0.97791384E+03</pdfrwt>
<totfact> 0.10562859E+01</totfact>
</mgrwt>
</event>
<event>
 4    2  0.3171963E-007  0.9127198E+03  0.7818608E-02  0.9505913E-01
         -2   -1    0    0    0  501 -0.00000000000E+00  0.00000000000E+00  0.15212718420E+04  0.15212718420E+04  0.25500000000E-02 0.  1.
          2   -1    0    0  501    0  0.00000000000E+00 -0.00000000000E+00 -0.42845061259E+03  0.42845061260E+03  0.25500000000E-02 0. -1.
    8880023    1    1    2    0    0 -0.56203681514E+03  0.28872459639E+03  0.39064288992E+03  0.99280378114E+03  0.65864270000E+03 0. -1.
    8880022    1    1    2    0    0  0.56203681514E+03 -0.28872459639E+03  0.70217833944E+03  0.95691867341E+03  0.15294330000E+03 0.  1.
<mgrwt>
<rscale>  0 0.83849273E+03</rscale>
<asrwt>0</asrwt>
<pdfrwt beam="1">  1        2 0.65915478E-01 0.91271983E+03</pdfrwt>
<pdfrwt beam="2">  1       -2 0.23404182E+00 0.91271983E+03</pdfrwt>
<totfact> 0.59766923E+00</totfact>
</mgrwt>
</event>
<event>
 4    2  0.3171963E-007  0.6935985E+03  0.7818608E-02  0.1002487E+00
         -2   -1    0    0    0  501 -0.00000000000E+00  0.00000000000E+00  0.14389388370E+03  0.14389388372E+03  0.25500000000E-02 0.  1.
          2   -1    0    0  501    0  0.00000000000E+00 -0.00000000000E+00 -0.19575119941E+04  0.19575119941E+04  0.25500000000E-02 0. -1.
    8880023    1    1    2    0    0  0.17901325101E+03 -0.12338135260E+03 -0.16485139067E+04  0.17884845566E+04  0.65864270000E+03 0. -1.
    8880022    1    1    2    0    0 -0.17901325101E+03  0.12338135260E+03 -0.16510420372E+03  0.31292132127E+03  0.15294330000E+03 0.  0.
<mgrwt>
<rscale>  0 0.54573034E+03</rscale>
<asrwt>0</asrwt>
<pdfrwt beam="1">  1        2 0.30115567E+00 0.69359852E+03</pdfrwt>
<pdfrwt beam="2">  1       -2 0.22137522E-01 0.69359852E+03</pdfrwt>
<totfact> 0.12961623E+02</totfact>
</mgrwt>
</event>
<event>
 4    2  0.3171963E-007  0.9323143E+03  0.7818608E-02  0.9476030E-01
         -2   -1    0    0    0  501 -0.00000000000E+00  0.00000000000E+00  0.18986983449E+03  0.18986983450E+03  0.25500000000E-02 0.  1.
          2   -1    0    0  501    0  0.00000000000E+00 -0.00000000000E+00 -0.40483507833E+04  0.40483507833E+04  0.25500000000E-02 0. -1.
    8880023    1    1    2    0    0 -0.41292173851E+03  0.51467987305E+03 -0.30182997954E+04  0.31590099074E+04  0.65864270000E+03 0.  0.
    8880022    1    1    2    0    0  0.41292173851E+03 -0.51467987305E+03 -0.84018115335E+03  0.10792107103E+04  0.15294330000E+03 0.  0.
<mgrwt>
<rscale>  0 0.86074333E+03</rscale>
<asrwt>0</asrwt>
<pdfrwt beam="1">  1        2 0.62282313E+00 0.93231429E+03</pdfrwt>
<pdfrwt beam="2">  1       -2 0.29210747E-01 0.93231429E+03</pdfrwt>
<totfact> 0.35958157E+00</totfact>
</mgrwt>
</event>
<event>
 4    2  0.3171963E-007  0.1213373E+04  0.7818608E-02  0.9144232E-01
         -2   -1    0    0    0  501 -0.00000000000E+00  0.00000000000E+00  0.96351795910E+03  0.96351795911E+03  0.25500000000E-02 0.  1.
          2   -1    0    0  501    0  0.00000000000E+00 -0.00000000000E+00 -0.31116119982E+04  0.31116119982E+04  0.25500000000E-02 0. -1.
    8880023    1    1    2    0    0  0.15033504425E+03 -0.10078998129E+04  0.43901549166E+03  0.12903516833E+04  0.65864270000E+03 0.  0.
    8880022    1    1    2    0    0 -0.15033504425E+03  0.10078998129E+04 -0.25871095308E+04  0.27847782741E+04  0.15294330000E+03 0.  0.
<mgrwt>
<rscale>  0 0.11648064E+04</rscale>
<asrwt>0</asrwt>
<pdfrwt beam="1">  1        2 0.47870953E+00 0.12133725E+04</pdfrwt>
<pdfrwt beam="2">  1       -2 0.14823353E+00 0.12133725E+04</pdfrwt>
<totfact> 0.45052416E-01</totfact>
</mgrwt>
</event>
<event>
 4    2  0.3171963E-007  0.1021343E+04  0.7818608E-02  0.9354152E-01
         -2   -1    0    0    0  501 -0.00000000000E+00  0.00000000000E+00  0.17893756990E+04  0.17893756990E+04  0.25500000000E-02 0.  1.
          2   -1    0    0  501    0  0.00000000000E+00 -0.00000000000E+00 -0.95365913572E+03  0.95365913572E+03  0.25500000000E-02 0. -1.
    8880023    1    1    2    0    0 -0.75601409134E+03 -0.19435780715E+03 -0.53894853892E+03  0.11548194653E+04  0.65864270000E+03 0. -1.
    8880022    1    1    2    0    0  0.75601409134E+03  0.19435780715E+03  0.13746651022E+04  0.15882153694E+04  0.15294330000E+03 0.  0.
<mgrwt>
<rscale>  0 0.95946832E+03</rscale>
<asrwt>0</asrwt>
<pdfrwt beam="1">  1        2 0.14671679E+00 0.10213435E+04</pdfrwt>
<pdfrwt beam="2">  1       -2 0.27528857E+00 0.10213435E+04</pdfrwt>
<totfact> 0.12117622E+00</totfact>
</mgrwt>
</event>
<event>
 4    2  0.3171963E-007  0.6854841E+03  0.7818608E-02  0.1006377E+00
         -2   -1    0    0    0  501 -0.00000000000E+00  0.00000000000E+00  0.13226527220E+04  0.13226527220E+04  0.25500000000E-02 0.  1.
          2   -1    0    0  501    0  0.00000000000E+00 -0.00000000000E+00 -0.11274918849E+04  0.11274918849E+04  0.25500000000E-02 0. -1.
    8880023    1    1    2    0    0  0.17058000333E+03  0.83550443423E+02 -0.10099488103E+04  0.12206084629E+04  0.65864270000E+03 0. -1.
    8880022    1    1    2    0    0 -0.17058000333E+03 -0.83550443423E+02  0.12051096474E+04  0.12295361440E+04  0.15294330000E+03 0.  0.
<mgrwt>
<rscale>  0 0.52940148E+03</rscale>
<asrwt>0</asrwt>
<pdfrwt beam="1">  1        2 0.17346029E+00 0.68548408E+03</pdfrwt>
<pdfrwt beam="2">  1       -2 0.20348503E+00 0.68548408E+03</pdfrwt>
<totfact> 0.27435384E+00</totfact>
</mgrwt>
</event>
<event>
 4    2  0.3171963E-007  0.7932193E+03  0.7818608E-02  0.9725654E-01
         -2   -1    0    0    0  501 -0.00000000000E+00  0.00000000000E+00  0.30037783759E+03  0.30037783760E+03  0.25500000000E-02 0.  1.
          2   -1    0    0  501    0  0.00000000000E+00 -0.00000000000E+00 -0.21111649879E+04  0.21111649879E+04  0.25500000000E-02 0. -1.
    8880023    1    1    2    0    0 -0.16052849415E+03  0.41184621977E+03 -0.17729169018E+04  0.19422747625E+04  0.65864270000E+03 0. -1.
    8880022    1    1    2    0    0  0.16052849415E+03 -0.41184621977E+03 -0.37870248473E+02  0.46926806296E+03  0.15294330000E+03 0.  0.
<mgrwt>
<rscale>  0 0.69509716E+03</rscale>
<asrwt>0</asrwt>
<pdfrwt beam="1">  1        2 0.32479460E+00 0.79321933E+03</pdfrwt>
<pdfrwt beam="2">  1       -2 0.46211976E-01 0.79321933E+03</pdfrwt>
<totfact> 0.26473846E+01</totfact>
</mgrwt>
</event>
<event>
 4    2  0.3171963E-007  0.7468324E+03  0.7818608E-02  0.9840474E-01
         -2   -1    0    0    0  501 -0.00000000000E+00  0.00000000000E+00  0.18165261800E+03  0.18165261802E+03  0.25500000000E-02 0.  1.
          2   -1    0    0  501    0  0.00000000000E+00 -0.00000000000E+00 -0.44191209049E+04  0.44191209049E+04  0.25500000000E-02 0. -1.
    8880023    1    1    2    0    0 -0.23840503587E+03  0.25905880126E+03 -0.41371689171E+04  0.42040367837E+04  0.65864270000E+03 0. -1.
    8880022    1    1    2    0    0  0.23840503587E+03 -0.25905880126E+03 -0.10029936974E+03  0.39673673919E+03  0.15294330000E+03 0.  0.
<mgrwt>
<rscale>  0 0.63234993E+03</rscale>
<asrwt>0</asrwt>
<pdfrwt beam="1">  1        2 0.67986467E+00 0.74683240E+03</pdfrwt>
<pdfrwt beam="2">  1       -2 0.27946560E-01 0.74683240E+03</pdfrwt>
<totfact> 0.19472834E+00</totfact>
</mgrwt>
</event>
<event>
 4    2  0.3171963E-007  0.6759655E+03  0.7818608E-02  0.1011705E+00
          2   -1    0    0  501    0  0.00000000000E+00  0.00000000000E+00  0.21790588544E+04  0.21790588544E+04  0.25500000000E-02 0. -1.
         -2   -1    0    0    0  501 -0.00000000000E+00 -0.00000000000E+00 -0.32303957895E+03  0.32303957896E+03  0.25500000000E-02 0.  1.
    8880023    1    1    2    0    0  0.17221597643E+02 -0.15107119266E+03  0.20824412658E+04  0.21894042387E+04  0.65864270000E+03 0. -1.
    8880022    1    1    2    0    0 -0.17221597643E+02  0.15107119266E+03 -0.22642199032E+03  0.31269419469E+03  0.15294330000E+03 0.  0.
<mgrwt>
<rscale>  0 0.50802787E+03</rscale>
<asrwt>0</asrwt>
<pdfrwt beam="1">  1        2 0.33523984E+00 0.67596545E+03</pdfrwt>
<pdfrwt beam="2">  1       -2 0.49698395E-01 0.67596545E+03</pdfrwt>
<totfact> 0.21334076E+01</totfact>
</mgrwt>
</event>
<event>
 4    2  0.3171963E-007  0.1279227E+04  0.7818608E-02  0.9083710E-01
          2   -1    0    0  501    0  0.00000000000E+00  0.00000000000E+00  0.27423655424E+04  0.27423655424E+04  0.25500000000E-02 0. -1.
         -2   -1    0    0    0  501 -0.00000000000E+00 -0.00000000000E+00 -0.80496105034E+03  0.80496105035E+03  0.25500000000E-02 0.  1.
    8880023    1    1    2    0    0 -0.10540752667E+04 -0.30254942834E+03  0.20687503263E+04  0.24323134961E+04  0.65864270000E+03 0.  0.
    8880022    1    1    2    0    0  0.10540752667E+04  0.30254942834E+03 -0.13134583430E+03  0.11150130966E+04  0.15294330000E+03 0.  0.
<mgrwt>
<rscale>  0 0.12338776E+04</rscale>
<asrwt>0</asrwt>
<pdfrwt beam="1">  1        2 0.42190239E+00 0.12792267E+04</pdfrwt>
<pdfrwt beam="2">  1       -2 0.12384016E+00 0.12792267E+04</pdfrwt>
<totfact> 0.11971837E+00</totfact>
</mgrwt>
</event>
<event>
 4    2  0.3171963E-007  0.6906651E+03  0.7818608E-02  0.1003838E+00
         -2   -1    0    0    0  501 -0.00000000000E+00  0.00000000000E+00  0.24021934536E+03  0.24021934537E+03  0.25500000000E-02 0.  1.
          2   -1    0    0  501    0  0.00000000000E+00 -0.00000000000E+00 -0.13258824577E+04  0.13258824577E+04  0.25500000000E-02 0. -1.
    8880023    1    1    2    0    0 -0.58853064698E+02 -0.19935984760E+03 -0.11095277830E+04  0.13069315741E+04  0.65864270000E+03 0. -1.
    8880022    1    1    2    0    0  0.58853064698E+02  0.19935984760E+03  0.23864670596E+02  0.25917022895E+03  0.15294330000E+03 0.  0.
<mgrwt>
<rscale>  0 0.53998866E+03</rscale>
<asrwt>0</asrwt>
<pdfrwt beam="1">  1        2 0.20398191E+00 0.69066507E+03</pdfrwt>
<pdfrwt beam="2">  1       -2 0.36956823E-01 0.69066507E+03</pdfrwt>
<totfact> 0.11246346E+02</totfact>
</mgrwt>
</event>
<event>
 4    2  0.3171963E-007  0.7548230E+03  0.7818608E-02  0.9818699E-01
         -2   -1    0    0    0  501 -0.00000000000E+00  0.00000000000E+00  0.14360386439E+04  0.14360386439E+04  0.25500000000E-02 0.  1.
          2   -1    0    0  501    0  0.00000000000E+00 -0.00000000000E+00 -0.23548576606E+03  0.23548576607E+03  0.25500000000E-02 0. -1.
    8880023    1    1    2    0    0 -0.30686398609E+03 -0.20440675772E+03  0.68335855267E+03  0.10182027039E+04  0.65864270000E+03 0.  0.
    8880022    1    1    2    0    0  0.30686398609E+03  0.20440675772E+03  0.51719432517E+03  0.65332170603E+03  0.15294330000E+03 0.  0.
<mgrwt>
<rscale>  0 0.64368623E+03</rscale>
<asrwt>0</asrwt>
<pdfrwt beam="1">  1        2 0.36228579E-01 0.75482305E+03</pdfrwt>
<pdfrwt beam="2">  1       -2 0.22092903E+00 0.75482305E+03</pdfrwt>
<totfact> 0.14310288E+01</totfact>
</mgrwt>
</event>
<event>
 4    2  0.3171963E-007  0.6688013E+03  0.7818608E-02  0.1016537E+00
          2   -1    0    0  501    0  0.00000000000E+00  0.00000000000E+00  0.12866400734E+04  0.12866400734E+04  0.25500000000E-02 0. -1.
         -2   -1    0    0    0  501 -0.00000000000E+00 -0.00000000000E+00 -0.24827411764E+03  0.24827411765E+03  0.25500000000E-02 0.  1.
    8880023    1    1    2    0    0  0.10138697875E+03 -0.56618023533E+02  0.11369369098E+04  0.13190605229E+04  0.65864270000E+03 0. -1.
    8880022    1    1    2    0    0 -0.10138697875E+03  0.56618023533E+02 -0.98570954027E+02  0.21585366812E+03  0.15294330000E+03 0.  0.
<mgrwt>
<rscale>  0 0.48957207E+03</rscale>
<asrwt>0</asrwt>
<pdfrwt beam="1">  1        2 0.19794463E+00 0.66880126E+03</pdfrwt>
<pdfrwt beam="2">  1       -2 0.38196018E-01 0.66880126E+03</pdfrwt>
<totfact> 0.11138263E+02</totfact>
</mgrwt>
</event>
<event>
 4    2  0.3171963E-007  0.7008929E+03  0.7818608E-02  0.9993517E-01
         -2   -1    0    0    0  501 -0.00000000000E+00  0.00000000000E+00  0.56451902612E+03  0.56451902612E+03  0.25500000000E-02 0.  1.
          2   -1    0    0  501    0  0.00000000000E+00 -0.00000000000E+00 -0.13743545213E+04  0.13743545213E+04  0.25500000000E-02 0. -1.
    8880023    1    1    2    0    0 -0.23694081167E+03 -0.36051171679E+02 -0.12393351266E+04  0.14237985804E+04  0.65864270000E+03 0. -1.
    8880022    1    1    2    0    0  0.23694081167E+03  0.36051171679E+02  0.42949963145E+03  0.51507496701E+03  0.15294330000E+03 0.  0.
<mgrwt>
<rscale>  0 0.55935413E+03</rscale>
<asrwt>0</asrwt>
<pdfrwt beam="1">  1        2 0.21143916E+00 0.70089289E+03</pdfrwt>
<pdfrwt beam="2">  1       -2 0.86849081E-01 0.70089289E+03</pdfrwt>
<totfact> 0.17656116E+01</totfact>
</mgrwt>
</event>
<event>
 4    2  0.3171963E-007  0.1063650E+04  0.7818608E-02  0.9302649E-01
          2   -1    0    0  501    0  0.00000000000E+00  0.00000000000E+00  0.36007332410E+04  0.36007332410E+04  0.25500000000E-02 0. -1.
         -2   -1    0    0    0  501 -0.00000000000E+00 -0.00000000000E+00 -0.35967622167E+03  0.35967622168E+03  0.25500000000E-02 0.  1.
    8880023    1    1    2    0    0 -0.46407817303E+03 -0.69438694319E+03  0.28174240096E+04  0.30115162350E+04  0.65864270000E+03 0. -1.
    8880022    1    1    2    0    0  0.46407817303E+03  0.69438694319E+03  0.42363300972E+03  0.94889322766E+03  0.15294330000E+03 0.  0.
<mgrwt>
<rscale>  0 0.10053934E+04</rscale>
<asrwt>0</asrwt>
<pdfrwt beam="1">  1        2 0.55395897E+00 0.10636503E+04</pdfrwt>
<pdfrwt beam="2">  1       -2 0.55334802E-01 0.10636503E+04</pdfrwt>
<totfact> 0.21796233E+00</totfact>
</mgrwt>
</event>
<event>
 4    2  0.3171963E-007  0.9690439E+03  0.7818608E-02  0.9423228E-01
          2   -1    0    0  501    0  0.00000000000E+00  0.00000000000E+00  0.10991702941E+04  0.10991702941E+04  0.25500000000E-02 0. -1.
         -2   -1    0    0    0  501 -0.00000000000E+00 -0.00000000000E+00 -0.65591774711E+03  0.65591774712E+03  0.25500000000E-02 0.  1.
    8880023    1    1    2    0    0 -0.18274085857E+03  0.68690726625E+03  0.29616391628E+03  0.10132912145E+04  0.65864270000E+03 0.  1.
    8880022    1    1    2    0    0  0.18274085857E+03 -0.68690726625E+03  0.14708863068E+03  0.74179682670E+03  0.15294330000E+03 0. -1.
<mgrwt>
<rscale>  0 0.90188527E+03</rscale>
<asrwt>0</asrwt>
<pdfrwt beam="1">  1        2 0.16910312E+00 0.96904387E+03</pdfrwt>
<pdfrwt beam="2">  1       -2 0.10091042E+00 0.96904387E+03</pdfrwt>
<totfact> 0.17571239E+01</totfact>
</mgrwt>
</event>
<event>
 4    2  0.3171963E-007  0.7377211E+03  0.7818608E-02  0.9866636E-01
         -2   -1    0    0    0  501 -0.00000000000E+00  0.00000000000E+00  0.38397560396E+03  0.38397560397E+03  0.25500000000E-02 0.  1.
          2   -1    0    0  501    0  0.00000000000E+00 -0.00000000000E+00 -0.16266210864E+04  0.16266210864E+04  0.25500000000E-02 0. -1.
    8880023    1    1    2    0    0  0.17408097466E+03  0.28305126780E+03 -0.14229145203E+04  0.16027844971E+04  0.65864270000E+03 0. -1.
    8880022    1    1    2    0    0 -0.17408097466E+03 -0.28305126780E+03  0.18026903784E+03  0.40781219325E+03  0.15294330000E+03 0.  0.
<mgrwt>
<rscale>  0 0.61905864E+03</rscale>
<asrwt>0</asrwt>
<pdfrwt beam="1">  1        2 0.25024939E+00 0.73772109E+03</pdfrwt>
<pdfrwt beam="2">  1       -2 0.59073171E-01 0.73772109E+03</pdfrwt>
<totfact> 0.29621313E+01</totfact>
</mgrwt>
</event>
<event>
 4    2  0.3171963E-007  0.6976957E+03  0.7818608E-02  0.1000690E+00
         -2   -1    0    0    0  501 -0.00000000000E+00  0.00000000000E+00  0.92410448877E+03  0.92410448878E+03  0.25500000000E-02 0.  1.
          2   -1    0    0  501    0  0.00000000000E+00 -0.00000000000E+00 -0.16068001303E+04  0.16068001303E+04  0.25500000000E-02 0. -1.
    8880023    1    1    2    0    0 -0.21545370250E+03 -0.80924938976E+02 -0.15074547461E+04  0.16610837310E+04  0.65864270000E+03 0. -1.
    8880022    1    1    2    0    0  0.21545370250E+03  0.80924938976E+02  0.82475910458E+03  0.86982088804E+03  0.15294330000E+03 0.  0.
<mgrwt>
<rscale>  0 0.55348819E+03</rscale>
<asrwt>0</asrwt>
<pdfrwt beam="1">  1        2 0.24720002E+00 0.69769574E+03</pdfrwt>
<pdfrwt beam="2">  1       -2 0.14216992E+00 0.69769574E+03</pdfrwt>
<totfact> 0.39561514E+00</totfact>
</mgrwt>
</event>
<event>
 4    2  0.3171963E-007  0.8071451E+03  0.7818608E-02  0.9695555E-01
         -2   -1    0    0    0  501 -0.00000000000E+00  0.00000000000E+00  0.27046953840E+03  0.27046953841E+03  0.25500000000E-02 0.  1.
          2   -1    0    0  501    0  0.00000000000E+00 -0.00000000000E+00 -0.19928351667E+04  0.19928351668E+04  0.25500000000E-02 0. -1.
    8880023    1    1    2    0    0  0.31657009670E+03 -0.34271902217E+03 -0.15415692051E+04  0.17400915995E+04  0.65864270000E+03 0. -1.
    8880022    1    1    2    0    0 -0.31657009670E+03  0.34271902217E+03 -0.18079642328E+03  0.52321310569E+03  0.15294330000E+03 0.  0.
<mgrwt>
<rscale>  0 0.71282083E+03</rscale>
<asrwt>0</asrwt>
<pdfrwt beam="1">  1        2 0.30659002E+00 0.80714507E+03</pdfrwt>
<pdfrwt beam="2">  1       -2 0.41610700E-01 0.80714507E+03</pdfrwt>
<totfact> 0.37791372E+01</totfact>
</mgrwt>
</event>
<event>
 4    2  0.3171963E-007  0.7151198E+03  0.7818608E-02  0.9939459E-01
         -2   -1    0    0    0  501 -0.00000000000E+00  0.00000000000E+00  0.81345228607E+03  0.81345228607E+03  0.25500000000E-02 0.  1.
          2   -1    0    0  501    0  0.00000000000E+00 -0.00000000000E+00 -0.13877571389E+04  0.13877571389E+04  0.25500000000E-02 0. -1.
    8880023    1    1    2    0    0 -0.26505404508E+03 -0.85629513690E+02 -0.12581255273E+04  0.14471613971E+04  0.65864270000E+03 0. -1.
    8880022    1    1    2    0    0  0.26505404508E+03  0.85629513690E+02  0.68382067452E+03  0.75404802787E+03  0.15294330000E+03 0.  0.
<mgrwt>
<rscale>  0 0.58386477E+03</rscale>
<asrwt>0</asrwt>
<pdfrwt beam="1">  1        2 0.21350110E+00 0.71511976E+03</pdfrwt>
<pdfrwt beam="2">  1       -2 0.12514650E+00 0.71511976E+03</pdfrwt>
<totfact> 0.72292699E+00</totfact>
</mgrwt>
</event>
<event>
 4    2  0.3171963E-007  0.7179613E+03  0.7818608E-02  0.9929546E-01
         -2   -1    0    0    0  501 -0.00000000000E+00  0.00000000000E+00  0.96052527903E+03  0.96052527903E+03  0.25500000000E-02 0.  1.
          2   -1    0    0  501    0  0.00000000000E+00 -0.00000000000E+00 -0.12102369075E+04  0.12102369075E+04  0.25500000000E-02 0. -1.
    8880023    1    1    2    0    0  0.17591583676E+03 -0.22519286793E+03 -0.10701192804E+04  0.12886518886E+04  0.65864270000E+03 0. -1.
    8880022    1    1    2    0    0 -0.17591583676E+03  0.22519286793E+03  0.82040765193E+03  0.88211029795E+03  0.15294330000E+03 0.  1.
<mgrwt>
<rscale>  0 0.58850507E+03</rscale>
<asrwt>0</asrwt>
<pdfrwt beam="1">  1        2 0.18619029E+00 0.71796129E+03</pdfrwt>
<pdfrwt beam="2">  1       -2 0.14777312E+00 0.71796129E+03</pdfrwt>
<totfact> 0.59726125E+00</totfact>
</mgrwt>
</event>
<event>
 4    2  0.3171963E-007  0.8562717E+03  0.7818608E-02  0.9600230E-01
          2   -1    0    0  501    0  0.00000000000E+00  0.00000000000E+00  0.20267721611E+04  0.20267721611E+04  0.25500000000E-02 0. -1.
         -2   -1    0    0    0  501 -0.00000000000E+00 -0.00000000000E+00 -0.26438789933E+03  0.26438789934E+03  0.25500000000E-02 0.  1.
    8880023    1    1    2    0    0 -0.44110038719E+03  0.32376145034E+03  0.13094812379E+04  0.15645901530E+04  0.65864270000E+03 0. -1.
    8880022    1    1    2    0    0  0.44110038719E+03 -0.32376145034E+03  0.45290302390E+03  0.72656990743E+03  0.15294330000E+03 0.  0.
<mgrwt>
<rscale>  0 0.77280954E+03</rscale>
<asrwt>0</asrwt>
<pdfrwt beam="1">  1        2 0.31181108E+00 0.85627171E+03</pdfrwt>
<pdfrwt beam="2">  1       -2 0.40675064E-01 0.85627171E+03</pdfrwt>
<totfact> 0.37650355E+01</totfact>
</mgrwt>
</event>
<event>
 4    2  0.3171963E-007  0.6646064E+03  0.7818608E-02  0.1019866E+00
         -2   -1    0    0    0  501 -0.00000000000E+00  0.00000000000E+00  0.11248419777E+03  0.11248419780E+03  0.25500000000E-02 0.  1.
          2   -1    0    0  501    0  0.00000000000E+00 -0.00000000000E+00 -0.32751431789E+04  0.32751431789E+04  0.25500000000E-02 0. -1.
    8880023    1    1    2    0    0 -0.31781540130E+02  0.82954042977E+02 -0.31397030855E+04  0.32092736111E+04  0.65864270000E+03 0. -1.
    8880022    1    1    2    0    0  0.31781540130E+02 -0.82954042977E+02 -0.22955895615E+02  0.17835376558E+03  0.15294330000E+03 0.  0.
<mgrwt>
<rscale>  0 0.47735018E+03</rscale>
<asrwt>0</asrwt>
<pdfrwt beam="1">  1        2 0.50386811E+00 0.66460638E+03</pdfrwt>
<pdfrwt beam="2">  1       -2 0.17305264E-01 0.66460638E+03</pdfrwt>
<totfact> 0.34366064E+01</totfact>
</mgrwt>
</event>
<event>
 4    2  0.3171963E-007  0.7613517E+03  0.7818608E-02  0.9801621E-01
          2   -1    0    0  501    0  0.00000000000E+00  0.00000000000E+00  0.49604964302E+03  0.49604964302E+03  0.25500000000E-02 0. -1.
         -2   -1    0    0    0  501 -0.00000000000E+00 -0.00000000000E+00 -0.92094608246E+03  0.92094608246E+03  0.25500000000E-02 0.  1.
    8880023    1    1    2    0    0 -0.37816111635E+03 -0.53295171159E+02  0.80202476774E+02  0.76556439882E+03  0.65864270000E+03 0. -1.
    8880022    1    1    2    0    0  0.37816111635E+03  0.53295171159E+02 -0.50509891622E+03  0.65143132667E+03  0.15294330000E+03 0.  0.
<mgrwt>
<rscale>  0 0.65275646E+03</rscale>
<asrwt>0</asrwt>
<pdfrwt beam="1">  1        2 0.76315330E-01 0.76135170E+03</pdfrwt>
<pdfrwt beam="2">  1       -2 0.14168401E+00 0.76135170E+03</pdfrwt>
<totfact> 0.21899972E+01</totfact>
</mgrwt>
</event>
<event>
 4    2  0.3171963E-007  0.6842891E+03  0.7818608E-02  0.1006995E+00
          2   -1    0    0  501    0  0.00000000000E+00  0.00000000000E+00  0.12415223258E+04  0.12415223258E+04  0.25500000000E-02 0. -1.
         -2   -1    0    0    0  501 -0.00000000000E+00 -0.00000000000E+00 -0.71053168372E+03  0.71053168372E+03  0.25500000000E-02 0.  1.
    8880023    1    1    2    0    0 -0.95912731660E+02  0.15887775332E+03  0.11218792897E+04  0.13141022561E+04  0.65864270000E+03 0. -1.
    8880022    1    1    2    0    0  0.95912731660E+02 -0.15887775332E+03 -0.59088864770E+03  0.63795175334E+03  0.15294330000E+03 0.  0.
<mgrwt>
<rscale>  0 0.52686789E+03</rscale>
<asrwt>0</asrwt>
<pdfrwt beam="1">  1        2 0.19100343E+00 0.68428912E+03</pdfrwt>
<pdfrwt beam="2">  1       -2 0.10931257E+00 0.68428912E+03</pdfrwt>
<totfact> 0.12280966E+01</totfact>
</mgrwt>
</event>
<event>
 4    2  0.3171963E-007  0.6652833E+03  0.7818608E-02  0.1019297E+00
         -2   -1    0    0    0  501 -0.00000000000E+00  0.00000000000E+00  0.64400279967E+03  0.64400279968E+03  0.25500000000E-02 0.  1.
          2   -1    0    0  501    0  0.00000000000E+00 -0.00000000000E+00 -0.40897712880E+03  0.40897712880E+03  0.25500000000E-02 0. -1.
    8880023    1    1    2    0    0  0.90204547090E+02 -0.25588368282E+02 -0.10018392650E+03  0.67278425242E+03  0.65864270000E+03 0. -1.
    8880022    1    1    2    0    0 -0.90204547090E+02  0.25588368282E+02  0.33520959738E+03  0.38019567607E+03  0.15294330000E+03 0.  0.
<mgrwt>
<rscale>  0 0.47941182E+03</rscale>
<asrwt>0</asrwt>
<pdfrwt beam="1">  1        2 0.62919559E-01 0.66528327E+03</pdfrwt>
<pdfrwt beam="2">  1       -2 0.99077353E-01 0.66528327E+03</pdfrwt>
<totfact> 0.66532474E+01</totfact>
</mgrwt>
</event>
<event>
 4    2  0.3171963E-007  0.7357105E+03  0.7818608E-02  0.9872623E-01
         -2   -1    0    0    0  501 -0.00000000000E+00  0.00000000000E+00  0.59551161304E+03  0.59551161305E+03  0.25500000000E-02 0.  1.
          2   -1    0    0  501    0  0.00000000000E+00 -0.00000000000E+00 -0.67651389431E+03  0.67651389431E+03  0.25500000000E-02 0. -1.
    8880023    1    1    2    0    0 -0.32460984573E+03 -0.45696044424E+02 -0.35630154585E+03  0.81744766087E+03  0.65864270000E+03 0.  0.
    8880022    1    1    2    0    0  0.32460984573E+03  0.45696044424E+02  0.27529926459E+03  0.45457784649E+03  0.15294330000E+03 0.  0.
<mgrwt>
<rscale>  0 0.61606632E+03</rscale>
<asrwt>0</asrwt>
<pdfrwt beam="1">  1        2 0.10407906E+00 0.73571046E+03</pdfrwt>
<pdfrwt beam="2">  1       -2 0.91617171E-01 0.73571046E+03</pdfrwt>
<totfact> 0.43988126E+01</totfact>
</mgrwt>
</event>
<event>
 4    2  0.3171963E-007  0.9283608E+03  0.7818608E-02  0.9481957E-01
         -2   -1    0    0    0  501 -0.00000000000E+00  0.00000000000E+00  0.29815881306E+03  0.29815881307E+03  0.25500000000E-02 0.  1.
          2   -1    0    0  501    0  0.00000000000E+00 -0.00000000000E+00 -0.30375964591E+04  0.30375964591E+04  0.25500000000E-02 0. -1.
    8880023    1    1    2    0    0 -0.21221930739E+03  0.61887517732E+03 -0.63011134905E+03  0.11220044733E+04  0.65864270000E+03 0.  1.
    8880022    1    1    2    0    0  0.21221930739E+03 -0.61887517732E+03 -0.21093262970E+04  0.22137507989E+04  0.15294330000E+03 0.  0.
<mgrwt>
<rscale>  0 0.85627253E+03</rscale>
<asrwt>0</asrwt>
<pdfrwt beam="1">  1        2 0.46732251E+00 0.92836077E+03</pdfrwt>
<pdfrwt beam="2">  1       -2 0.45870589E-01 0.92836077E+03</pdfrwt>
<totfact> 0.76875838E+00</totfact>
</mgrwt>
</event>
<event>
 4    2  0.3171963E-007  0.1531666E+04  0.7818608E-02  0.8887593E-01
          2   -1    0    0  501    0  0.00000000000E+00  0.00000000000E+00  0.18739166745E+04  0.18739166745E+04  0.25500000000E-02 0. -1.
         -2   -1    0    0    0  501 -0.00000000000E+00 -0.00000000000E+00 -0.14486118515E+04  0.14486118515E+04  0.25500000000E-02 0.  1.
    8880023    1    1    2    0    0 -0.13750510009E+04 -0.14637722985E+03 -0.54565616195E+03  0.16259589176E+04  0.65864270000E+03 0.  0.
    8880022    1    1    2    0    0  0.13750510009E+04  0.14637722985E+03  0.97096098500E+03  0.16965696083E+04  0.15294330000E+03 0.  0.
<mgrwt>
<rscale>  0 0.14952872E+04</rscale>
<asrwt>0</asrwt>
<pdfrwt beam="1">  1        2 0.28829487E+00 0.15316663E+04</pdfrwt>
<pdfrwt beam="2">  1       -2 0.22286336E+00 0.15316663E+04</pdfrwt>
<totfact> 0.69633107E-01</totfact>
</mgrwt>
</event>
<event>
 4    2  0.3171963E-007  0.1831867E+04  0.7818608E-02  0.8705111E-01
         -2   -1    0    0    0  501 -0.00000000000E+00  0.00000000000E+00  0.11693173987E+04  0.11693173987E+04  0.25500000000E-02 0.  1.
          2   -1    0    0  501    0  0.00000000000E+00 -0.00000000000E+00 -0.41799464913E+04  0.41799464913E+04  0.25500000000E-02 0. -1.
    8880023    1    1    2    0    0  0.17064297371E+04  0.10012222400E+03  0.58600515261E+02  0.18328041723E+04  0.65864270000E+03 0.  0.
    8880022    1    1    2    0    0 -0.17064297371E+04 -0.10012222400E+03 -0.30692296078E+04  0.35164597177E+04  0.15294330000E+03 0.  0.
<mgrwt>
<rscale>  0 0.18022374E+04</rscale>
<asrwt>0</asrwt>
<pdfrwt beam="1">  1        2 0.64306868E+00 0.18318671E+04</pdfrwt>
<pdfrwt beam="2">  1       -2 0.17989499E+00 0.18318671E+04</pdfrwt>
<totfact> 0.40369536E-02</totfact>
</mgrwt>
</event>
<event>
 4    2  0.3171963E-007  0.6797763E+03  0.7818608E-02  0.1009450E+00
          2   -1    0    0  501    0  0.00000000000E+00  0.00000000000E+00  0.73397412214E+03  0.73397412215E+03  0.25500000000E-02 0. -1.
         -2   -1    0    0    0  501 -0.00000000000E+00 -0.00000000000E+00 -0.14089860631E+04  0.14089860631E+04  0.25500000000E-02 0.  1.
    8880023    1    1    2    0    0 -0.25666277689E+02  0.16621318188E+03  0.56398889394E+03  0.88327756588E+03  0.65864270000E+03 0.  0.
    8880022    1    1    2    0    0  0.25666277689E+02 -0.16621318188E+03 -0.12390008349E+04  0.12596826194E+04  0.15294330000E+03 0.  0.
<mgrwt>
<rscale>  0 0.51693616E+03</rscale>
<asrwt>0</asrwt>
<pdfrwt beam="1">  1        2 0.11291910E+00 0.67977628E+03</pdfrwt>
<pdfrwt beam="2">  1       -2 0.21676709E+00 0.67977628E+03</pdfrwt>
<totfact> 0.41343305E+00</totfact>
</mgrwt>
</event>
<event>
 4    2  0.3171963E-007  0.6600115E+03  0.7818608E-02  0.1024145E+00
         -2   -1    0    0    0  501 -0.00000000000E+00  0.00000000000E+00  0.84796276479E+02  0.84796276517E+02  0.25500000000E-02 0.  1.
          2   -1    0    0  501    0  0.00000000000E+00 -0.00000000000E+00 -0.26227804617E+04  0.26227804617E+04  0.25500000000E-02 0. -1.
    8880023    1    1    2    0    0 -0.37655944421E+02  0.19671947079E+02 -0.24237598059E+04  0.25120164726E+04  0.65864270000E+03 0. -1.
    8880022    1    1    2    0    0  0.37655944421E+02 -0.19671947079E+02 -0.11422437938E+03  0.19556026568E+03  0.15294330000E+03 0.  0.
<mgrwt>
<rscale>  0 0.46220153E+03</rscale>
<asrwt>0</asrwt>
<pdfrwt beam="1">  1        2 0.40350462E+00 0.66001149E+03</pdfrwt>
<pdfrwt beam="2">  1       -2 0.13045583E-01 0.66001149E+03</pdfrwt>
<totfact> 0.13765625E+02</totfact>
</mgrwt>
</event>
<event>
 4    2  0.3171963E-007  0.7485484E+03  0.7818608E-02  0.9835711E-01
          2   -1    0    0  501    0  0.00000000000E+00  0.00000000000E+00  0.90830800102E+03  0.90830800102E+03  0.25500000000E-02 0. -1.
         -2   -1    0    0    0  501 -0.00000000000E+00 -0.00000000000E+00 -0.44411501377E+03  0.44411501378E+03  0.25500000000E-02 0.  1.
    8880023    1    1    2    0    0  0.34611681454E+03 -0.81961247870E+02  0.58148911009E+03  0.94786828562E+03  0.65864270000E+03 0. -1.
    8880022    1    1    2    0    0 -0.34611681454E+03  0.81961247870E+02 -0.11729612284E+03  0.40455472919E+03  0.15294330000E+03 0.  0.
<mgrwt>
<rscale>  0 0.63480793E+03</rscale>
<asrwt>0</asrwt>
<pdfrwt beam="1">  1        2 0.13973969E+00 0.74854840E+03</pdfrwt>
<pdfrwt beam="2">  1       -2 0.68325388E-01 0.74854840E+03</pdfrwt>
<totfact> 0.57544895E+01</totfact>
</mgrwt>
</event>
<event>
 4    2  0.3171963E-007  0.6600380E+03  0.7818608E-02  0.1024117E+00
          2   -1    0    0  501    0  0.00000000000E+00  0.00000000000E+00  0.88299000084E+03  0.88299000085E+03  0.25500000000E-02 0. -1.
         -2   -1    0    0    0  501 -0.00000000000E+00 -0.00000000000E+00 -0.33129840509E+03  0.33129840510E+03  0.25500000000E-02 0.  1.
    8880023    1    1    2    0    0  0.37960843246E+02 -0.19973771162E+02  0.72415407477E+03  0.97982105888E+03  0.65864270000E+03 0. -1.
    8880022    1    1    2    0    0 -0.37960843246E+02  0.19973771162E+02 -0.17246247902E+03  0.23446734706E+03  0.15294330000E+03 0.  0.
<mgrwt>
<rscale>  0 0.46229572E+03</rscale>
<asrwt>0</asrwt>
<pdfrwt beam="1">  1        2 0.13584461E+00 0.66003802E+03</pdfrwt>
<pdfrwt beam="2">  1       -2 0.50968986E-01 0.66003802E+03</pdfrwt>
<totfact> 0.11164255E+02</totfact>
</mgrwt>
</event>
<event>
 4    2  0.3171963E-007  0.6704304E+03  0.7818608E-02  0.1015356E+00
         -2   -1    0    0    0  501 -0.00000000000E+00  0.00000000000E+00  0.25855200290E+03  0.25855200291E+03  0.25500000000E-02 0.  1.
          2   -1    0    0  501    0  0.00000000000E+00 -0.00000000000E+00 -0.10053837017E+04  0.10053837017E+04  0.25500000000E-02 0. -1.
    8880023    1    1    2    0    0 -0.74773688718E+02  0.10037753165E+03 -0.81459608216E+03  0.10550088799E+04  0.65864270000E+03 0. -1.
    8880022    1    1    2    0    0  0.74773688718E+02 -0.10037753165E+03  0.67764383403E+02  0.20892682465E+03  0.15294330000E+03 0.  0.
<mgrwt>
<rscale>  0 0.49400302E+03</rscale>
<asrwt>0</asrwt>
<pdfrwt beam="1">  1        2 0.15467441E+00 0.67043043E+03</pdfrwt>
<pdfrwt beam="2">  1       -2 0.39777232E-01 0.67043043E+03</pdfrwt>
<totfact> 0.15198380E+02</totfact>
</mgrwt>
</event>
<event>
 4    2  0.3171963E-007  0.7629299E+03  0.7818608E-02  0.9797581E-01
         -2   -1    0    0    0  501 -0.00000000000E+00  0.00000000000E+00  0.11861243997E+04  0.11861243997E+04  0.25500000000E-02 0.  1.
          2   -1    0    0  501    0  0.00000000000E+00 -0.00000000000E+00 -0.81596798021E+03  0.81596798022E+03  0.25500000000E-02 0. -1.
    8880023    1    1    2    0    0  0.38005752491E+03 -0.61709627743E+02 -0.58470929254E+03  0.96122159955E+03  0.65864270000E+03 0. -1.
    8880022    1    1    2    0    0 -0.38005752491E+03  0.61709627743E+02  0.95486571204E+03  0.10408707804E+04  0.15294330000E+03 0.  0.
<mgrwt>
<rscale>  0 0.65492546E+03</rscale>
<asrwt>0</asrwt>
<pdfrwt beam="1">  1        2 0.12553354E+00 0.76292988E+03</pdfrwt>
<pdfrwt beam="2">  1       -2 0.18248068E+00 0.76292988E+03</pdfrwt>
<totfact> 0.59529767E+00</totfact>
</mgrwt>
</event>
<event>
 4    2  0.3171963E-007  0.9020557E+03  0.7818608E-02  0.9522740E-01
          2   -1    0    0  501    0  0.00000000000E+00  0.00000000000E+00  0.31411550356E+04  0.31411550356E+04  0.25500000000E-02 0. -1.
         -2   -1    0    0    0  501 -0.00000000000E+00 -0.00000000000E+00 -0.26254684936E+03  0.26254684937E+03  0.25500000000E-02 0.  1.
    8880023    1    1    2    0    0 -0.31854243482E+03  0.52765994153E+03  0.25151076579E+04  0.26719788610E+04  0.65864270000E+03 0. -1.
    8880022    1    1    2    0    0  0.31854243482E+03 -0.52765994153E+03  0.36350052837E+03  0.73172302398E+03  0.15294330000E+03 0.  0.
<mgrwt>
<rscale>  0 0.82627889E+03</rscale>
<asrwt>0</asrwt>
<pdfrwt beam="1">  1        2 0.48325464E+00 0.90205571E+03</pdfrwt>
<pdfrwt beam="2">  1       -2 0.40391821E-01 0.90205571E+03</pdfrwt>
<totfact> 0.85553290E+00</totfact>
</mgrwt>
</event>
<event>
 4    2  0.3171963E-007  0.6921513E+03  0.7818608E-02  0.1003146E+00
         -2   -1    0    0    0  501 -0.00000000000E+00  0.00000000000E+00  0.26607814019E+03  0.26607814020E+03  0.25500000000E-02 0.  1.
          2   -1    0    0  501    0  0.00000000000E+00 -0.00000000000E+00 -0.93806375600E+03  0.93806375601E+03  0.25500000000E-02 0. -1.
    8880023    1    1    2    0    0 -0.20036755181E+03  0.71526566064E+02 -0.63540266554E+03  0.93957967151E+03  0.65864270000E+03 0. -1.
    8880022    1    1    2    0    0  0.20036755181E+03 -0.71526566064E+02 -0.36582950278E+02  0.26456222470E+03  0.15294330000E+03 0.  0.
<mgrwt>
<rscale>  0 0.54291856E+03</rscale>
<asrwt>0</asrwt>
<pdfrwt beam="1">  1        2 0.14431750E+00 0.69215129E+03</pdfrwt>
<pdfrwt beam="2">  1       -2 0.40935099E-01 0.69215129E+03</pdfrwt>
<totfact> 0.15858417E+02</totfact>
</mgrwt>
</event>
<event>
 4    2  0.3171963E-007  0.9201848E+03  0.7818608E-02  0.9494376E-01
          2   -1    0    0  501    0  0.00000000000E+00  0.00000000000E+00  0.96977342822E+03  0.96977342822E+03  0.25500000000E-02 0. -1.
         -2   -1    0    0    0  501 -0.00000000000E+00 -0.00000000000E+00 -0.82465899017E+03  0.82465899018E+03  0.25500000000E-02 0.  1.
    8880023    1    1    2    0    0  0.19852706591E+03 -0.61116027632E+03  0.49718981580E+03  0.10459148141E+04  0.65864270000E+03 0. -1.
    8880022    1    1    2    0    0 -0.19852706591E+03  0.61116027632E+03 -0.35207537776E+03  0.74851760426E+03  0.15294330000E+03 0.  0.
<mgrwt>
<rscale>  0 0.84699749E+03</rscale>
<asrwt>0</asrwt>
<pdfrwt beam="1">  1        2 0.14919591E+00 0.92018481E+03</pdfrwt>
<pdfrwt beam="2">  1       -2 0.12687061E+00 0.92018481E+03</pdfrwt>
<totfact> 0.12162420E+01</totfact>
</mgrwt>
</event>
<event>
 4    2  0.3171963E-007  0.7026894E+03  0.7818608E-02  0.9986222E-01
         -2   -1    0    0    0  501 -0.00000000000E+00  0.00000000000E+00  0.84508514196E+03  0.84508514197E+03  0.25500000000E-02 0.  1.
          2   -1    0    0  501    0  0.00000000000E+00 -0.00000000000E+00 -0.56101105610E+03  0.56101105611E+03  0.25500000000E-02 0. -1.
    8880023    1    1    2    0    0 -0.98242881527E+02  0.22430004585E+03 -0.29261014223E+03  0.76117874112E+03  0.65864270000E+03 0. -1.
    8880022    1    1    2    0    0  0.98242881527E+02 -0.22430004585E+03  0.57668422809E+03  0.64491745695E+03  0.15294330000E+03 0.  0.
<mgrwt>
<rscale>  0 0.56258512E+03</rscale>
<asrwt>0</asrwt>
<pdfrwt beam="1">  1        2 0.86309393E-01 0.70268939E+03</pdfrwt>
<pdfrwt beam="2">  1       -2 0.13001310E+00 0.70268939E+03</pdfrwt>
<totfact> 0.23747620E+01</totfact>
</mgrwt>
</event>
<event>
 4    2  0.3171963E-007  0.6638056E+03  0.7818608E-02  0.1020557E+00
          2   -1    0    0  501    0  0.00000000000E+00  0.00000000000E+00  0.41926254868E+04  0.41926254868E+04  0.25500000000E-02 0. -1.
         -2   -1    0    0    0  501 -0.00000000000E+00 -0.00000000000E+00 -0.61366407713E+02  0.61366407766E+02  0.25500000000E-02 0.  1.
    8880023    1    1    2    0    0 -0.70911834637E+02 -0.42416504915E+02  0.39400365149E+04  0.39955632386E+04  0.65864270000E+03 0. -1.
    8880022    1    1    2    0    0  0.70911834637E+02  0.42416504915E+02  0.19122256415E+03  0.25842865599E+03  0.15294330000E+03 0.  0.
<mgrwt>
<rscale>  0 0.47486070E+03</rscale>
<asrwt>0</asrwt>
<pdfrwt beam="1">  1        2 0.64501931E+00 0.66380558E+03</pdfrwt>
<pdfrwt beam="2">  1       -2 0.94409857E-02 0.66380558E+03</pdfrwt>
<totfact> 0.20127016E+01</totfact>
</mgrwt>
</event>
<event>
 4    2  0.3171963E-007  0.7638057E+03  0.7818608E-02  0.9795353E-01
          2   -1    0    0  501    0  0.00000000000E+00  0.00000000000E+00  0.45825719399E+03  0.45825719400E+03  0.25500000000E-02 0. -1.
         -2   -1    0    0    0  501 -0.00000000000E+00 -0.00000000000E+00 -0.16202708330E+04  0.16202708330E+04  0.25500000000E-02 0.  1.
    8880023    1    1    2    0    0 -0.38621752450E+03 -0.20613969658E+02  0.80705965116E+02  0.76805766127E+03  0.65864270000E+03 0. -1.
    8880022    1    1    2    0    0  0.38621752450E+03  0.20613969658E+02 -0.12427196042E+04  0.13104703658E+04  0.15294330000E+03 0.  0.
<mgrwt>
<rscale>  0 0.65612536E+03</rscale>
<asrwt>0</asrwt>
<pdfrwt beam="1">  1        2 0.70501108E-01 0.76380568E+03</pdfrwt>
<pdfrwt beam="2">  1       -2 0.24927243E+00 0.76380568E+03</pdfrwt>
<totfact> 0.45412596E+00</totfact>
</mgrwt>
</event>
<event>
 4    2  0.3171963E-007  0.6853379E+03  0.7818608E-02  0.1006452E+00
          2   -1    0    0  501    0  0.00000000000E+00  0.00000000000E+00  0.23382650779E+03  0.23382650781E+03  0.25500000000E-02 0. -1.
         -2   -1    0    0    0  501 -0.00000000000E+00 -0.00000000000E+00 -0.26501517998E+04  0.26501517998E+04  0.25500000000E-02 0.  1.
    8880023    1    1    2    0    0  0.17245405255E+03 -0.78341650186E+02 -0.29067617315E+03  0.74443311204E+03  0.65864270000E+03 0. -1.
    8880022    1    1    2    0    0 -0.17245405255E+03  0.78341650186E+02 -0.21256491188E+04  0.21395451955E+04  0.15294330000E+03 0.  0.
<mgrwt>
<rscale>  0 0.52909351E+03</rscale>
<asrwt>0</asrwt>
<pdfrwt beam="1">  1        2 0.35973311E-01 0.68533789E+03</pdfrwt>
<pdfrwt beam="2">  1       -2 0.40771564E+00 0.68533789E+03</pdfrwt>
<totfact> 0.10293538E+00</totfact>
</mgrwt>
</event>
<event>
 4    2  0.3171963E-007  0.8080850E+03  0.7818608E-02  0.9693580E-01
          2   -1    0    0  501    0  0.00000000000E+00  0.00000000000E+00  0.21528420650E+04  0.21528420650E+04  0.25500000000E-02 0. -1.
         -2   -1    0    0    0  501 -0.00000000000E+00 -0.00000000000E+00 -0.30180324587E+03  0.30180324588E+03  0.25500000000E-02 0.  1.
    8880023    1    1    2    0    0 -0.71137573505E+02  0.46274256336E+03  0.17828298916E+04  0.19574176516E+04  0.65864270000E+03 0. -1.
    8880022    1    1    2    0    0  0.71137573505E+02 -0.46274256336E+03  0.68208927542E+02  0.49722765925E+03  0.15294330000E+03 0.  0.
<mgrwt>
<rscale>  0 0.71400347E+03</rscale>
<asrwt>0</asrwt>
<pdfrwt beam="1">  1        2 0.33120646E+00 0.80808505E+03</pdfrwt>
<pdfrwt beam="2">  1       -2 0.46431270E-01 0.80808505E+03</pdfrwt>
<totfact> 0.24827753E+01</totfact>
</mgrwt>
</event>
<event>
 4    2  0.3171963E-007  0.6622132E+03  0.7818608E-02  0.1021995E+00
          2   -1    0    0  501    0  0.00000000000E+00  0.00000000000E+00  0.82822846848E+03  0.82822846848E+03  0.25500000000E-02 0. -1.
         -2   -1    0    0    0  501 -0.00000000000E+00 -0.00000000000E+00 -0.30271028488E+03  0.30271028489E+03  0.25500000000E-02 0.  1.
    8880023    1    1    2    0    0  0.16908734793E+02 -0.66559376167E+02  0.64550547122E+03  0.92477217492E+03  0.65864270000E+03 0. -1.
    8880022    1    1    2    0    0 -0.16908734793E+02  0.66559376167E+02 -0.11998728762E+03  0.20616657846E+03  0.15294330000E+03 0.  0.
<mgrwt>
<rscale>  0 0.46973350E+03</rscale>
<asrwt>0</asrwt>
<pdfrwt beam="1">  1        2 0.12741976E+00 0.66221315E+03</pdfrwt>
<pdfrwt beam="2">  1       -2 0.46570814E-01 0.66221315E+03</pdfrwt>
<totfact> 0.14612262E+02</totfact>
</mgrwt>
</event>
<event>
 4    2  0.3171963E-007  0.7854923E+03  0.7818608E-02  0.9743090E-01
          2   -1    0    0  501    0  0.00000000000E+00  0.00000000000E+00  0.13205734995E+04  0.13205734995E+04  0.25500000000E-02 0. -1.
         -2   -1    0    0    0  501 -0.00000000000E+00 -0.00000000000E+00 -0.29806842410E+03  0.29806842411E+03  0.25500000000E-02 0.  1.
    8880023    1    1    2    0    0 -0.26865020096E+03  0.33318920881E+03  0.52504462659E+03  0.94481217473E+03  0.65864270000E+03 0. -1.
    8880022    1    1    2    0    0  0.26865020096E+03 -0.33318920881E+03  0.49746044884E+03  0.67382974891E+03  0.15294330000E+03 0.  0.
<mgrwt>
<rscale>  0 0.68508174E+03</rscale>
<asrwt>0</asrwt>
<pdfrwt beam="1">  1        2 0.20316516E+00 0.78549232E+03</pdfrwt>
<pdfrwt beam="2">  1       -2 0.45856680E-01 0.78549232E+03</pdfrwt>
<totfact> 0.73572282E+01</totfact>
</mgrwt>
</event>
<event>
 4    2  0.3171963E-007  0.7263197E+03  0.7818608E-02  0.9901755E-01
          2   -1    0    0  501    0  0.00000000000E+00  0.00000000000E+00  0.17487089540E+04  0.17487089540E+04  0.25500000000E-02 0. -1.
         -2   -1    0    0    0  501 -0.00000000000E+00 -0.00000000000E+00 -0.39838769950E+03  0.39838769951E+03  0.25500000000E-02 0.  1.
    8880023    1    1    2    0    0 -0.30202745410E+03 -0.50095632328E+02  0.15772603100E+04  0.17364591694E+04  0.65864270000E+03 0. -1.
    8880022    1    1    2    0    0  0.30202745410E+03  0.50095632328E+02 -0.22693905548E+03  0.41063748408E+03  0.15294330000E+03 0.  0.
<mgrwt>
<rscale>  0 0.60176317E+03</rscale>
<asrwt>0</asrwt>
<pdfrwt beam="1">  1        2 0.26903215E+00 0.72631974E+03</pdfrwt>
<pdfrwt beam="2">  1       -2 0.61290416E-01 0.72631974E+03</pdfrwt>
<totfact> 0.23528352E+01</totfact>
</mgrwt>
</event>
<event>
 4    2  0.3171963E-007  0.6698641E+03  0.7818608E-02  0.1015760E+00
          2   -1    0    0  501    0  0.00000000000E+00  0.00000000000E+00  0.45051558464E+03  0.45051558465E+03  0.25500000000E-02 0. -1.
         -2   -1    0    0    0  501 -0.00000000000E+00 -0.00000000000E+00 -0.93853115946E+03  0.93853115946E+03  0.25500000000E-02 0.  1.
    8880023    1    1    2    0    0 -0.11496836107E+03  0.41110100927E+02  0.17944858657E+03  0.69348378923E+03  0.65864270000E+03 0. -1.
    8880022    1    1    2    0    0  0.11496836107E+03 -0.41110100927E+02 -0.66746416138E+03  0.69556295487E+03  0.15294330000E+03 0.  0.
<mgrwt>
<rscale>  0 0.49248053E+03</rscale>
<asrwt>0</asrwt>
<pdfrwt beam="1">  1        2 0.69310090E-01 0.66986414E+03</pdfrwt>
<pdfrwt beam="2">  1       -2 0.14438941E+00 0.66986414E+03</pdfrwt>
<totfact> 0.23471766E+01</totfact>
</mgrwt>
</event>
<event>
 4    2  0.3171963E-007  0.7659611E+03  0.7818608E-02  0.9789912E-01
         -2   -1    0    0    0  501 -0.00000000000E+00  0.00000000000E+00  0.19825812440E+03  0.19825812441E+03  0.25500000000E-02 0.  1.
          2   -1    0    0  501    0  0.00000000000E+00 -0.00000000000E+00 -0.23530474436E+04  0.23530474436E+04  0.25500000000E-02 0. -1.
    8880023    1    1    2    0    0 -0.34909452993E+03 -0.17612285855E+03 -0.19269738548E+04  0.20736259777E+04  0.65864270000E+03 0.  0.
    8880022    1    1    2    0    0  0.34909452993E+03  0.17612285855E+03 -0.22781546437E+03  0.47767959026E+03  0.15294330000E+03 0.  0.
<mgrwt>
<rscale>  0 0.65906733E+03</rscale>
<asrwt>0</asrwt>
<pdfrwt beam="1">  1        2 0.36200728E+00 0.76596113E+03</pdfrwt>
<pdfrwt beam="2">  1       -2 0.30501252E-01 0.76596113E+03</pdfrwt>
<totfact> 0.43536819E+01</totfact>
</mgrwt>
</event>
<event>
 4    2  0.3171963E-007  0.6859408E+03  0.7818608E-02  0.1006145E+00
         -2   -1    0    0    0  501 -0.00000000000E+00  0.00000000000E+00  0.92560566400E+03  0.92560566400E+03  0.25500000000E-02 0.  1.
          2   -1    0    0  501    0  0.00000000000E+00 -0.00000000000E+00 -0.51400387243E+03  0.51400387244E+03  0.25500000000E-02 0. -1.
    8880023    1    1    2    0    0  0.12722259661E+03 -0.14324440640E+03 -0.25309780940E+03  0.73114516783E+03  0.65864270000E+03 0. -1.
    8880022    1    1    2    0    0 -0.12722259661E+03  0.14324440640E+03  0.66469960097E+03  0.70846436861E+03  0.15294330000E+03 0.  0.
<mgrwt>
<rscale>  0 0.53036010E+03</rscale>
<asrwt>0</asrwt>
<pdfrwt beam="1">  1        2 0.79077519E-01 0.68594078E+03</pdfrwt>
<pdfrwt beam="2">  1       -2 0.14240087E+00 0.68594078E+03</pdfrwt>
<totfact> 0.20878333E+01</totfact>
</mgrwt>
</event>
<event>
 4    2  0.3171963E-007  0.6869248E+03  0.7818608E-02  0.1005650E+00
         -2   -1    0    0    0  501 -0.00000000000E+00  0.00000000000E+00  0.34577573076E+03  0.34577573076E+03  0.25500000000E-02 0.  1.
          2   -1    0    0  501    0  0.00000000000E+00 -0.00000000000E+00 -0.67687246563E+03  0.67687246564E+03  0.25500000000E-02 0. -1.
    8880023    1    1    2    0    0 -0.15128902238E+03 -0.12315503367E+03 -0.12056720149E+03  0.69742539884E+03  0.65864270000E+03 0.  0.
    8880022    1    1    2    0    0  0.15128902238E+03  0.12315503367E+03 -0.21052953339E+03  0.32522279756E+03  0.15294330000E+03 0.  0.
<mgrwt>
<rscale>  0 0.53240811E+03</rscale>
<asrwt>0</asrwt>
<pdfrwt beam="1">  1        2 0.10413423E+00 0.68692484E+03</pdfrwt>
<pdfrwt beam="2">  1       -2 0.53196266E-01 0.68692484E+03</pdfrwt>
<totfact> 0.14445935E+02</totfact>
</mgrwt>
</event>
<event>
 4    2  0.3171963E-007  0.9526905E+03  0.7818608E-02  0.9446254E-01
         -2   -1    0    0    0  501 -0.00000000000E+00  0.00000000000E+00  0.68277337900E+03  0.68277337901E+03  0.25500000000E-02 0.  1.
          2   -1    0    0  501    0  0.00000000000E+00 -0.00000000000E+00 -0.21349352024E+04  0.21349352024E+04  0.25500000000E-02 0. -1.
    8880023    1    1    2    0    0  0.58767092922E+03 -0.35840185594E+03 -0.17961377788E+04  0.20331576766E+04  0.65864270000E+03 0.  0.
    8880022    1    1    2    0    0 -0.58767092922E+03  0.35840185594E+03  0.34397595534E+03  0.78455090482E+03  0.15294330000E+03 0.  0.
<mgrwt>
<rscale>  0 0.88365013E+03</rscale>
<asrwt>0</asrwt>
<pdfrwt beam="1">  1        2 0.32845157E+00 0.95269052E+03</pdfrwt>
<pdfrwt beam="2">  1       -2 0.10504206E+00 0.95269052E+03</pdfrwt>
<totfact> 0.41590842E+00</totfact>
</mgrwt>
</event>
<event>
 4    2  0.3171963E-007  0.6795898E+03  0.7818608E-02  0.1009557E+00
         -2   -1    0    0    0  501 -0.00000000000E+00  0.00000000000E+00  0.19324587866E+03  0.19324587868E+03  0.25500000000E-02 0.  1.
          2   -1    0    0  501    0  0.00000000000E+00 -0.00000000000E+00 -0.10627752467E+04  0.10627752467E+04  0.25500000000E-02 0. -1.
    8880023    1    1    2    0    0 -0.16132703192E+02  0.16664892963E+03 -0.65484827146E+03  0.94375240120E+03  0.65864270000E+03 0.  0.
    8880022    1    1    2    0    0  0.16132703192E+02 -0.16664892963E+03 -0.21468109657E+03  0.31226872418E+03  0.15294330000E+03 0. -1.
<mgrwt>
<rscale>  0 0.51651229E+03</rscale>
<asrwt>0</asrwt>
<pdfrwt beam="1">  1        2 0.16350388E+00 0.67958983E+03</pdfrwt>
<pdfrwt beam="2">  1       -2 0.29730136E-01 0.67958983E+03</pdfrwt>
<totfact> 0.24285008E+02</totfact>
</mgrwt>
</event>
<event>
 4    2  0.3171963E-007  0.9056555E+03  0.7818608E-02  0.9517013E-01
          2   -1    0    0  501    0  0.00000000000E+00  0.00000000000E+00  0.14790687402E+04  0.14790687402E+04  0.25500000000E-02 0. -1.
         -2   -1    0    0    0  501 -0.00000000000E+00 -0.00000000000E+00 -0.57538491516E+03  0.57538491516E+03  0.25500000000E-02 0.  1.
    8880023    1    1    2    0    0 -0.62119089614E+03 -0.22879477754E+02  0.10612891293E+04  0.13951868771E+04  0.65864270000E+03 0. -1.
    8880022    1    1    2    0    0  0.62119089614E+03  0.22879477754E+02 -0.15760530422E+03  0.65926677824E+03  0.15294330000E+03 0.  0.
<mgrwt>
<rscale>  0 0.83041055E+03</rscale>
<asrwt>0</asrwt>
<pdfrwt beam="1">  1        2 0.22754903E+00 0.90565546E+03</pdfrwt>
<pdfrwt beam="2">  1       -2 0.88520757E-01 0.90565546E+03</pdfrwt>
<totfact> 0.14404191E+01</totfact>
</mgrwt>
</event>
<event>
 4    2  0.3171963E-007  0.7109826E+03  0.7818608E-02  0.9954370E-01
         -2   -1    0    0    0  501 -0.00000000000E+00  0.00000000000E+00  0.56440929073E+03  0.56440929074E+03  0.25500000000E-02 0.  1.
          2   -1    0    0  501    0  0.00000000000E+00 -0.00000000000E+00 -0.73210994365E+03  0.73210994365E+03  0.25500000000E-02 0. -1.
    8880023    1    1    2    0    0  0.26760756763E+03  0.84996211702E+01 -0.47984525717E+03  0.85775738464E+03  0.65864270000E+03 0.  0.
    8880022    1    1    2    0    0 -0.26760756763E+03 -0.84996211702E+01  0.31214460425E+03  0.43876184975E+03  0.15294330000E+03 0.  0.
<mgrwt>
<rscale>  0 0.57697111E+03</rscale>
<asrwt>0</asrwt>
<pdfrwt beam="1">  1        2 0.11263230E+00 0.71098260E+03</pdfrwt>
<pdfrwt beam="2">  1       -2 0.86832198E-01 0.71098260E+03</pdfrwt>
<totfact> 0.45130546E+01</totfact>
</mgrwt>
</event>
<event>
 4    2  0.3171963E-007  0.9563498E+03  0.7818608E-02  0.9441036E-01
          2   -1    0    0  501    0  0.00000000000E+00  0.00000000000E+00  0.25454312801E+04  0.25454312801E+04  0.25500000000E-02 0. -1.
         -2   -1    0    0    0  501 -0.00000000000E+00 -0.00000000000E+00 -0.31594943892E+03  0.31594943893E+03  0.25500000000E-02 0.  1.
    8880023    1    1    2    0    0  0.23597859490E+03  0.65200368729E+03  0.73286396184E+03  0.12048628546E+04  0.65864270000E+03 0.  1.
    8880022    1    1    2    0    0 -0.23597859490E+03 -0.65200368729E+03  0.14966178793E+04  0.16565178645E+04  0.15294330000E+03 0.  0.
<mgrwt>
<rscale>  0 0.88774137E+03</rscale>
<asrwt>0</asrwt>
<pdfrwt beam="1">  1        2 0.39160483E+00 0.95634979E+03</pdfrwt>
<pdfrwt beam="2">  1       -2 0.48607604E-01 0.95634979E+03</pdfrwt>
<totfact> 0.13372735E+01</totfact>
</mgrwt>
</event>
<event>
 4    2  0.3171963E-007  0.1615449E+04  0.7818608E-02  0.8832141E-01
         -2   -1    0    0    0  501 -0.00000000000E+00  0.00000000000E+00  0.62620216517E+03  0.62620216517E+03  0.25500000000E-02 0.  1.
          2   -1    0    0  501    0  0.00000000000E+00 -0.00000000000E+00 -0.41126014081E+04  0.41126014081E+04  0.25500000000E-02 0. -1.
    8880023    1    1    2    0    0 -0.14665130034E+04 -0.15876105969E+03 -0.24301975450E+04  0.29181390949E+04  0.65864270000E+03 0.  0.
    8880022    1    1    2    0    0  0.14665130034E+04  0.15876105969E+03 -0.10562016979E+04  0.18206644784E+04  0.15294330000E+03 0.  0.
<mgrwt>
<rscale>  0 0.15812642E+04</rscale>
<asrwt>0</asrwt>
<pdfrwt beam="1">  1        2 0.63270789E+00 0.16154491E+04</pdfrwt>
<pdfrwt beam="2">  1       -2 0.96338797E-01 0.16154491E+04</pdfrwt>
<totfact> 0.23884883E-01</totfact>
</mgrwt>
</event>
<event>
 4    2  0.3171963E-007  0.6717338E+03  0.7818608E-02  0.1014449E+00
         -2   -1    0    0    0  501 -0.00000000000E+00  0.00000000000E+00  0.47960652204E+03  0.47960652204E+03  0.25500000000E-02 0.  1.
          2   -1    0    0  501    0  0.00000000000E+00 -0.00000000000E+00 -0.15606171887E+04  0.15606171887E+04  0.25500000000E-02 0. -1.
    8880023    1    1    2    0    0 -0.10860041744E+03 -0.74979997208E+02 -0.14620322159E+04  0.16089637837E+04  0.65864270000E+03 0. -1.
    8880022    1    1    2    0    0  0.10860041744E+03  0.74979997208E+02  0.38102154925E+03  0.43125992703E+03  0.15294330000E+03 0.  0.
<mgrwt>
<rscale>  0 0.49743994E+03</rscale>
<asrwt>0</asrwt>
<pdfrwt beam="1">  1        2 0.24009495E+00 0.67173377E+03</pdfrwt>
<pdfrwt beam="2">  1       -2 0.73785619E-01 0.67173377E+03</pdfrwt>
<totfact> 0.20120262E+01</totfact>
</mgrwt>
</event>
<event>
 4    2  0.3171963E-007  0.8694583E+03  0.7818608E-02  0.9576955E-01
         -2   -1    0    0    0  501 -0.00000000000E+00  0.00000000000E+00  0.57777544140E+03  0.57777544140E+03  0.25500000000E-02 0.  1.
          2   -1    0    0  501    0  0.00000000000E+00 -0.00000000000E+00 -0.12819427484E+04  0.12819427484E+04  0.25500000000E-02 0. -1.
    8880023    1    1    2    0    0  0.47209678799E+03 -0.31507480310E+03 -0.88902340817E+03  0.12435112928E+04  0.65864270000E+03 0. -1.
    8880022    1    1    2    0    0 -0.47209678799E+03  0.31507480310E+03  0.18485610117E+03  0.61620689701E+03  0.15294330000E+03 0.  0.
<mgrwt>
<rscale>  0 0.78840383E+03</rscale>
<asrwt>0</asrwt>
<pdfrwt beam="1">  1        2 0.19722196E+00 0.86945829E+03</pdfrwt>
<pdfrwt beam="2">  1       -2 0.88888530E-01 0.86945829E+03</pdfrwt>
<totfact> 0.18556871E+01</totfact>
</mgrwt>
</event>
<event>
 4    2  0.3171963E-007  0.7155086E+03  0.7818608E-02  0.9938087E-01
          2   -1    0    0  501    0  0.00000000000E+00  0.00000000000E+00  0.13500102432E+04  0.13500102432E+04  0.25500000000E-02 0. -1.
         -2   -1    0    0    0  501 -0.00000000000E+00 -0.00000000000E+00 -0.29315860411E+03  0.29315860412E+03  0.25500000000E-02 0.  1.
    8880023    1    1    2    0    0 -0.22185305125E+03 -0.17006930895E+03  0.11094990987E+04  0.13202048335E+04  0.65864270000E+03 0.  0.
    8880022    1    1    2    0    0  0.22185305125E+03  0.17006930895E+03 -0.52647459604E+02  0.32296401381E+03  0.15294330000E+03 0.  0.
<mgrwt>
<rscale>  0 0.58450412E+03</rscale>
<asrwt>0</asrwt>
<pdfrwt beam="1">  1        2 0.20769388E+00 0.71550860E+03</pdfrwt>
<pdfrwt beam="2">  1       -2 0.45101325E-01 0.71550860E+03</pdfrwt>
<totfact> 0.73628701E+01</totfact>
</mgrwt>
</event>
<event>
 4    2  0.3171963E-007  0.8004027E+03  0.7818608E-02  0.9709926E-01
         -2   -1    0    0    0  501 -0.00000000000E+00  0.00000000000E+00  0.47372258737E+03  0.47372258738E+03  0.25500000000E-02 0.  1.
          2   -1    0    0  501    0  0.00000000000E+00 -0.00000000000E+00 -0.96103630285E+03  0.96103630286E+03  0.25500000000E-02 0. -1.
    8880023    1    1    2    0    0 -0.39762427338E+03  0.22074689285E+03 -0.51892308998E+03  0.95390022175E+03  0.65864270000E+03 0.  0.
    8880022    1    1    2    0    0  0.39762427338E+03 -0.22074689285E+03  0.31609374500E+02  0.48085866848E+03  0.15294330000E+03 0.  0.
<mgrwt>
<rscale>  0 0.70428863E+03</rscale>
<asrwt>0</asrwt>
<pdfrwt beam="1">  1        2 0.14785174E+00 0.80040269E+03</pdfrwt>
<pdfrwt beam="2">  1       -2 0.72880398E-01 0.80040269E+03</pdfrwt>
<totfact> 0.45922651E+01</totfact>
</mgrwt>
</event>
<event>
 4    2  0.3171963E-007  0.7893242E+03  0.7818608E-02  0.9734373E-01
          2   -1    0    0  501    0  0.00000000000E+00  0.00000000000E+00  0.12590485122E+04  0.12590485122E+04  0.25500000000E-02 0. -1.
         -2   -1    0    0    0  501 -0.00000000000E+00 -0.00000000000E+00 -0.47011224319E+03  0.47011224320E+03  0.25500000000E-02 0.  1.
    8880023    1    1    2    0    0 -0.41269425173E+03  0.13749913618E+03  0.95508384476E+03  0.12390391094E+04  0.65864270000E+03 0. -1.
    8880022    1    1    2    0    0  0.41269425173E+03 -0.13749913618E+03 -0.16614757580E+03  0.49012164595E+03  0.15294330000E+03 0.  0.
<mgrwt>
<rscale>  0 0.69006598E+03</rscale>
<asrwt>0</asrwt>
<pdfrwt beam="1">  1        2 0.19369977E+00 0.78932425E+03</pdfrwt>
<pdfrwt beam="2">  1       -2 0.72324962E-01 0.78932425E+03</pdfrwt>
<totfact> 0.30695451E+01</totfact>
</mgrwt>
</event>
<event>
 4    2  0.3171963E-007  0.7068418E+03  0.7818608E-02  0.9969921E-01
         -2   -1    0    0    0  501 -0.00000000000E+00  0.00000000000E+00  0.88064281634E+02  0.88064281671E+02  0.25500000000E-02 0.  1.
          2   -1    0    0  501    0  0.00000000000E+00 -0.00000000000E+00 -0.31221550846E+04  0.31221550846E+04  0.25500000000E-02 0. -1.
    8880023    1    1    2    0    0 -0.23648658367E+03 -0.99444429146E+02 -0.16631863180E+04  0.18071563390E+04  0.65864270000E+03 0. -1.
    8880022    1    1    2    0    0  0.23648658367E+03  0.99444429146E+02 -0.13709044849E+04  0.14030630273E+04  0.15294330000E+03 0.  0.
<mgrwt>
<rscale>  0 0.56989045E+03</rscale>
<asrwt>0</asrwt>
<pdfrwt beam="1">  1        2 0.48033147E+00 0.70684178E+03</pdfrwt>
<pdfrwt beam="2">  1       -2 0.13548353E-01 0.70684178E+03</pdfrwt>
<totfact> 0.64588950E+01</totfact>
</mgrwt>
</event>
<event>
 4    2  0.3171963E-007  0.9978641E+03  0.7818608E-02  0.9384357E-01
          2   -1    0    0  501    0  0.00000000000E+00  0.00000000000E+00  0.24571829163E+04  0.24571829163E+04  0.25500000000E-02 0. -1.
         -2   -1    0    0    0  501 -0.00000000000E+00 -0.00000000000E+00 -0.43811539560E+03  0.43811539561E+03  0.25500000000E-02 0.  1.
    8880023    1    1    2    0    0  0.55255404439E+03 -0.50656360085E+03  0.34693314143E+03  0.10564541943E+04  0.65864270000E+03 0.  0.
    8880022    1    1    2    0    0 -0.55255404439E+03  0.50656360085E+03  0.16721343793E+04  0.18388441176E+04  0.15294330000E+03 0.  0.
<mgrwt>
<rscale>  0 0.93374267E+03</rscale>
<asrwt>0</asrwt>
<pdfrwt beam="1">  1        2 0.37802813E+00 0.99786415E+03</pdfrwt>
<pdfrwt beam="2">  1       -2 0.67402370E-01 0.99786415E+03</pdfrwt>
<totfact> 0.75190028E+00</totfact>
</mgrwt>
</event>
<event>
 4    2  0.3171963E-007  0.8177543E+03  0.7818608E-02  0.9673646E-01
          2   -1    0    0  501    0  0.00000000000E+00  0.00000000000E+00  0.12805552041E+04  0.12805552041E+04  0.25500000000E-02 0. -1.
         -2   -1    0    0    0  501 -0.00000000000E+00 -0.00000000000E+00 -0.10575601645E+04  0.10575601645E+04  0.25500000000E-02 0.  1.
    8880023    1    1    2    0    0  0.24031248164E+03  0.42090586845E+03 -0.83230142686E+03  0.11668109146E+04  0.65864270000E+03 0.  0.
    8880022    1    1    2    0    0 -0.24031248164E+03 -0.42090586845E+03  0.10552964665E+04  0.11713044541E+04  0.15294330000E+03 0.  0.
<mgrwt>
<rscale>  0 0.72607820E+03</rscale>
<asrwt>0</asrwt>
<pdfrwt beam="1">  1        2 0.19700849E+00 0.81775427E+03</pdfrwt>
<pdfrwt beam="2">  1       -2 0.16270156E+00 0.81775427E+03</pdfrwt>
<totfact> 0.41399225E+00</totfact>
</mgrwt>
</event>
<event>
 4    2  0.3171963E-007  0.8666943E+03  0.7818608E-02  0.9581765E-01
         -2   -1    0    0    0  501 -0.00000000000E+00  0.00000000000E+00  0.17851149722E+04  0.17851149722E+04  0.25500000000E-02 0.  1.
          2   -1    0    0  501    0  0.00000000000E+00 -0.00000000000E+00 -0.90842970044E+03  0.90842970045E+03  0.25500000000E-02 0. -1.
    8880023    1    1    2    0    0 -0.55502827239E+03  0.96397135548E+02 -0.63411328409E+03  0.10738988100E+04  0.65864270000E+03 0. -1.
    8880022    1    1    2    0    0  0.55502827239E+03 -0.96397135548E+02  0.15107985559E+04  0.16196458626E+04  0.15294330000E+03 0.  0.
<mgrwt>
<rscale>  0 0.78514960E+03</rscale>
<asrwt>0</asrwt>
<pdfrwt beam="1">  1        2 0.13975842E+00 0.86669429E+03</pdfrwt>
<pdfrwt beam="2">  1       -2 0.27463307E+00 0.86669429E+03</pdfrwt>
<totfact> 0.13393249E+00</totfact>
</mgrwt>
</event>
<event>
 4    2  0.3171963E-007  0.1157321E+04  0.7818608E-02  0.9199768E-01
          2   -1    0    0  501    0  0.00000000000E+00  0.00000000000E+00  0.32880825973E+04  0.32880825973E+04  0.25500000000E-02 0. -1.
         -2   -1    0    0    0  501 -0.00000000000E+00 -0.00000000000E+00 -0.38370977214E+03  0.38370977215E+03  0.25500000000E-02 0.  1.
    8880023    1    1    2    0    0  0.91793148690E+03 -0.25096724211E+03  0.96790110571E+03  0.15087165168E+04  0.65864270000E+03 0.  1.
    8880022    1    1    2    0    0 -0.91793148690E+03  0.25096724211E+03  0.19364717194E+04  0.21630758527E+04  0.15294330000E+03 0. -1.
<mgrwt>
<rscale>  0 0.11055820E+04</rscale>
<asrwt>0</asrwt>
<pdfrwt beam="1">  1        2 0.50585885E+00 0.11573215E+04</pdfrwt>
<pdfrwt beam="2">  1       -2 0.59032273E-01 0.11573215E+04</pdfrwt>
<totfact> 0.30641205E+00</totfact>
</mgrwt>
</event>
<event>
 4    2  0.3171963E-007  0.8293827E+03  0.7818608E-02  0.9650535E-01
         -2   -1    0    0    0  501 -0.00000000000E+00  0.00000000000E+00  0.20044382021E+03  0.20044382023E+03  0.25500000000E-02 0.  1.
          2   -1    0    0  501    0  0.00000000000E+00 -0.00000000000E+00 -0.28295448282E+04  0.28295448282E+04  0.25500000000E-02 0. -1.
    8880023    1    1    2    0    0 -0.50094860559E+03 -0.55821051617E+02 -0.21981693526E+04  0.23494306128E+04  0.65864270000E+03 0.  0.
    8880022    1    1    2    0    0  0.50094860559E+03  0.55821051617E+02 -0.43093165535E+03  0.68055803562E+03  0.15294330000E+03 0.  0.
<mgrwt>
<rscale>  0 0.74039884E+03</rscale>
<asrwt>0</asrwt>
<pdfrwt beam="1">  1        2 0.43531456E+00 0.82938272E+03</pdfrwt>
<pdfrwt beam="2">  1       -2 0.30837513E-01 0.82938272E+03</pdfrwt>
<totfact> 0.22493799E+01</totfact>
</mgrwt>
</event>
<event>
 4    2  0.3171963E-007  0.8017389E+03  0.7818608E-02  0.9707049E-01
          2   -1    0    0  501    0  0.00000000000E+00  0.00000000000E+00  0.17460033608E+04  0.17460033608E+04  0.25500000000E-02 0. -1.
         -2   -1    0    0    0  501 -0.00000000000E+00 -0.00000000000E+00 -0.31121092572E+03  0.31121092573E+03  0.25500000000E-02 0.  1.
    8880023    1    1    2    0    0  0.41769713992E+03  0.18575279187E+03  0.13465536597E+04  0.15671604784E+04  0.65864270000E+03 0.  1.
    8880022    1    1    2    0    0 -0.41769713992E+03 -0.18575279187E+03  0.88238775407E+02  0.49005380815E+03  0.15294330000E+03 0. -1.
<mgrwt>
<rscale>  0 0.70598655E+03</rscale>
<asrwt>0</asrwt>
<pdfrwt beam="1">  1        2 0.26861590E+00 0.80173886E+03</pdfrwt>
<pdfrwt beam="2">  1       -2 0.47878604E-01 0.80173886E+03</pdfrwt>
<totfact> 0.39003564E+01</totfact>
</mgrwt>
</event>
<event>
 4    2  0.3171963E-007  0.7211449E+03  0.7818608E-02  0.9918731E-01
         -2   -1    0    0    0  501 -0.00000000000E+00  0.00000000000E+00  0.23424193855E+03  0.23424193857E+03  0.25500000000E-02 0.  1.
          2   -1    0    0  501    0  0.00000000000E+00 -0.00000000000E+00 -0.11817438179E+04  0.11817438179E+04  0.25500000000E-02 0. -1.
    8880023    1    1    2    0    0 -0.28600409883E+03  0.66643547664E+02 -0.65237636162E+03  0.97244271320E+03  0.65864270000E+03 0. -1.
    8880022    1    1    2    0    0  0.28600409883E+03 -0.66643547664E+02 -0.29512551768E+03  0.44354304323E+03  0.15294330000E+03 0. -1.
<mgrwt>
<rscale>  0 0.59362029E+03</rscale>
<asrwt>0</asrwt>
<pdfrwt beam="1">  1        2 0.18180674E+00 0.72114486E+03</pdfrwt>
<pdfrwt beam="2">  1       -2 0.36037222E-01 0.72114486E+03</pdfrwt>
<totfact> 0.14283416E+02</totfact>
</mgrwt>
</event>
<event>
 4    2  0.3171963E-007  0.1392712E+04  0.7818608E-02  0.8989366E-01
          2   -1    0    0  501    0  0.00000000000E+00  0.00000000000E+00  0.11247046678E+04  0.11247046678E+04  0.25500000000E-02 0. -1.
         -2   -1    0    0    0  501 -0.00000000000E+00 -0.00000000000E+00 -0.17665567965E+04  0.17665567965E+04  0.25500000000E-02 0.  1.
    8880023    1    1    2    0    0 -0.40855877437E+03  0.11571157937E+04 -0.85814740103E+03  0.16358680877E+04  0.65864270000E+03 0.  0.
    8880022    1    1    2    0    0  0.40855877437E+03 -0.11571157937E+04  0.21629527232E+03  0.12553933766E+04  0.15294330000E+03 0.  0.
<mgrwt>
<rscale>  0 0.13519328E+04</rscale>
<asrwt>0</asrwt>
<pdfrwt beam="1">  1        2 0.17303149E+00 0.13927123E+04</pdfrwt>
<pdfrwt beam="2">  1       -2 0.27177797E+00 0.13927123E+04</pdfrwt>
<totfact> 0.94962203E-01</totfact>
</mgrwt>
</event>
<event>
 4    2  0.3171963E-007  0.1128968E+04  0.7818608E-02  0.9229470E-01
          2   -1    0    0  501    0  0.00000000000E+00  0.00000000000E+00  0.16300759731E+04  0.16300759731E+04  0.25500000000E-02 0. -1.
         -2   -1    0    0    0  501 -0.00000000000E+00 -0.00000000000E+00 -0.80654656243E+03  0.80654656243E+03  0.25500000000E-02 0.  1.
    8880023    1    1    2    0    0 -0.76346832260E+03  0.50781252181E+03  0.97874345860E+03  0.14941574217E+04  0.65864270000E+03 0. -1.
    8880022    1    1    2    0    0  0.76346832260E+03 -0.50781252181E+03 -0.15521404798E+03  0.94246511375E+03  0.15294330000E+03 0.  0.
<mgrwt>
<rscale>  0 0.10754362E+04</rscale>
<asrwt>0</asrwt>
<pdfrwt beam="1">  1        2 0.25078092E+00 0.11289675E+04</pdfrwt>
<pdfrwt beam="2">  1       -2 0.12408409E+00 0.11289675E+04</pdfrwt>
<totfact> 0.51415829E+00</totfact>
</mgrwt>
</event>
<event>
 4    2  0.3171963E-007  0.6970829E+03  0.7818608E-02  0.1000952E+00
         -2   -1    0    0    0  501 -0.00000000000E+00  0.00000000000E+00  0.38339138216E+03  0.38339138217E+03  0.25500000000E-02 0.  1.
          2   -1    0    0  501    0  0.00000000000E+00 -0.00000000000E+00 -0.96891227670E+03  0.96891227670E+03  0.25500000000E-02 0. -1.
    8880023    1    1    2    0    0  0.92721931663E+02 -0.20860715001E+03 -0.75647762839E+03  0.10286801778E+04  0.65864270000E+03 0. -1.
    8880022    1    1    2    0    0 -0.92721931663E+02  0.20860715001E+03  0.17095673385E+03  0.32362348108E+03  0.15294330000E+03 0.  0.
<mgrwt>
<rscale>  0 0.55234566E+03</rscale>
<asrwt>0</asrwt>
<pdfrwt beam="1">  1        2 0.14906343E+00 0.69708285E+03</pdfrwt>
<pdfrwt beam="2">  1       -2 0.58983290E-01 0.69708285E+03</pdfrwt>
<totfact> 0.72178821E+01</totfact>
</mgrwt>
</event>
<event>
 4    2  0.3171963E-007  0.1090021E+04  0.7818608E-02  0.9272249E-01
          2   -1    0    0  501    0  0.00000000000E+00  0.00000000000E+00  0.16403573652E+04  0.16403573652E+04  0.25500000000E-02 0. -1.
         -2   -1    0    0    0  501 -0.00000000000E+00 -0.00000000000E+00 -0.82782407857E+03  0.82782407858E+03  0.25500000000E-02 0.  1.
    8880023    1    1    2    0    0 -0.86850360625E+03  0.61010582935E+01  0.10921471667E+04  0.15430266935E+04  0.65864270000E+03 0.  0.
    8880022    1    1    2    0    0  0.86850360625E+03 -0.61010582935E+01 -0.27961388006E+03  0.92515475025E+03  0.15294330000E+03 0.  0.
<mgrwt>
<rscale>  0 0.10337835E+04</rscale>
<asrwt>0</asrwt>
<pdfrwt beam="1">  1        2 0.25236267E+00 0.10900211E+04</pdfrwt>
<pdfrwt beam="2">  1       -2 0.12735755E+00 0.10900211E+04</pdfrwt>
<totfact> 0.47700436E+00</totfact>
</mgrwt>
</event>
<event>
 4    2  0.3171963E-007  0.7182471E+03  0.7818608E-02  0.9928562E-01
          2   -1    0    0  501    0  0.00000000000E+00  0.00000000000E+00  0.24706684228E+04  0.24706684228E+04  0.25500000000E-02 0. -1.
         -2   -1    0    0    0  501 -0.00000000000E+00 -0.00000000000E+00 -0.35275186515E+03  0.35275186516E+03  0.25500000000E-02 0.  1.
    8880023    1    1    2    0    0  0.27449842133E+03  0.81971575909E+02  0.23282428730E+04  0.24365126317E+04  0.65864270000E+03 0. -1.
    8880022    1    1    2    0    0 -0.27449842133E+03 -0.81971575909E+02 -0.21032631530E+03  0.38690765629E+03  0.15294330000E+03 0.  0.
<mgrwt>
<rscale>  0 0.58896785E+03</rscale>
<asrwt>0</asrwt>
<pdfrwt beam="1">  1        2 0.38010284E+00 0.71824712E+03</pdfrwt>
<pdfrwt beam="2">  1       -2 0.54269517E-01 0.71824712E+03</pdfrwt>
<totfact> 0.12180347E+01</totfact>
</mgrwt>
</event>
<event>
 4    2  0.3171963E-007  0.1012168E+04  0.7818608E-02  0.9365809E-01
          2   -1    0    0  501    0  0.00000000000E+00  0.00000000000E+00  0.54086721869E+03  0.54086721870E+03  0.25500000000E-02 0. -1.
         -2   -1    0    0    0  501 -0.00000000000E+00 -0.00000000000E+00 -0.26403553150E+04  0.26403553150E+04  0.25500000000E-02 0.  1.
    8880023    1    1    2    0    0  0.14969504850E+03  0.75383335134E+03 -0.80346863717E+02  0.10153517390E+04  0.65864270000E+03 0. -1.
    8880022    1    1    2    0    0 -0.14969504850E+03 -0.75383335134E+03 -0.20191412326E+04  0.21658707947E+04  0.15294330000E+03 0.  0.
<mgrwt>
<rscale>  0 0.94943702E+03</rscale>
<asrwt>0</asrwt>
<pdfrwt beam="1">  1        2 0.83210343E-01 0.10121677E+04</pdfrwt>
<pdfrwt beam="2">  1       -2 0.40620850E+00 0.10121677E+04</pdfrwt>
<totfact> 0.38648705E-01</totfact>
</mgrwt>
</event>
<event>
 4    2  0.3171963E-007  0.7030295E+03  0.7818608E-02  0.9984858E-01
          2   -1    0    0  501    0  0.00000000000E+00  0.00000000000E+00  0.87103611088E+03  0.87103611088E+03  0.25500000000E-02 0. -1.
         -2   -1    0    0    0  501 -0.00000000000E+00 -0.00000000000E+00 -0.73859359332E+03  0.73859359332E+03  0.25500000000E-02 0.  1.
    8880023    1    1    2    0    0 -0.13814282460E+03 -0.20336384785E+03  0.68767642762E+03  0.98343752724E+03  0.65864270000E+03 0. -1.
    8880022    1    1    2    0    0  0.13814282460E+03  0.20336384785E+03 -0.55523391006E+03  0.62619217697E+03  0.15294330000E+03 0.  0.
<mgrwt>
<rscale>  0 0.56319185E+03</rscale>
<asrwt>0</asrwt>
<pdfrwt beam="1">  1        2 0.13400555E+00 0.70302952E+03</pdfrwt>
<pdfrwt beam="2">  1       -2 0.11362978E+00 0.70302952E+03</pdfrwt>
<totfact> 0.19010423E+01</totfact>
</mgrwt>
</event>
<event>
 4    2  0.3171963E-007  0.7503049E+03  0.7818608E-02  0.9830886E-01
         -2   -1    0    0    0  501 -0.00000000000E+00  0.00000000000E+00  0.45164717188E+03  0.45164717189E+03  0.25500000000E-02 0.  1.
          2   -1    0    0  501    0  0.00000000000E+00 -0.00000000000E+00 -0.89284308762E+03  0.89284308762E+03  0.25500000000E-02 0. -1.
    8880023    1    1    2    0    0 -0.34332255038E+03 -0.10619251349E+03 -0.56001338125E+03  0.93625446166E+03  0.65864270000E+03 0. -1.
    8880022    1    1    2    0    0  0.34332255038E+03  0.10619251349E+03  0.11881746552E+03  0.40823579785E+03  0.15294330000E+03 0.  0.
<mgrwt>
<rscale>  0 0.63731025E+03</rscale>
<asrwt>0</asrwt>
<pdfrwt beam="1">  1        2 0.13736048E+00 0.75030489E+03</pdfrwt>
<pdfrwt beam="2">  1       -2 0.69484180E-01 0.75030489E+03</pdfrwt>
<totfact> 0.56814452E+01</totfact>
</mgrwt>
</event>
<event>
 4    2  0.3171963E-007  0.7134203E+03  0.7818608E-02  0.9945513E-01
          2   -1    0    0  501    0  0.00000000000E+00  0.00000000000E+00  0.12963568377E+04  0.12963568377E+04  0.25500000000E-02 0. -1.
         -2   -1    0    0    0  501 -0.00000000000E+00 -0.00000000000E+00 -0.48372331001E+03  0.48372331002E+03  0.25500000000E-02 0.  1.
    8880023    1    1    2    0    0 -0.13848004781E+03  0.23660426442E+03  0.11282756336E+04  0.13349061439E+04  0.65864270000E+03 0. -1.
    8880022    1    1    2    0    0  0.13848004781E+03 -0.23660426442E+03 -0.31564210590E+03  0.44517400375E+03  0.15294330000E+03 0.  0.
<mgrwt>
<rscale>  0 0.58105353E+03</rscale>
<asrwt>0</asrwt>
<pdfrwt beam="1">  1        2 0.19943952E+00 0.71342029E+03</pdfrwt>
<pdfrwt beam="2">  1       -2 0.74418970E-01 0.71342029E+03</pdfrwt>
<totfact> 0.27645897E+01</totfact>
</mgrwt>
</event>
<event>
 4    2  0.3171963E-007  0.7342340E+03  0.7818608E-02  0.9877073E-01
          2   -1    0    0  501    0  0.00000000000E+00  0.00000000000E+00  0.69841291917E+03  0.69841291917E+03  0.25500000000E-02 0. -1.
         -2   -1    0    0    0  501 -0.00000000000E+00 -0.00000000000E+00 -0.44299629440E+03  0.44299629441E+03  0.25500000000E-02 0.  1.
    8880023    1    1    2    0    0  0.32426405010E+03  0.11922509453E+02  0.27022685772E+03  0.78238231148E+03  0.65864270000E+03 0.  0.
    8880022    1    1    2    0    0 -0.32426405010E+03 -0.11922509453E+02 -0.14810232947E+02  0.35902690210E+03  0.15294330000E+03 0. -1.
<mgrwt>
<rscale>  0 0.61385408E+03</rscale>
<asrwt>0</asrwt>
<pdfrwt beam="1">  1        2 0.10744814E+00 0.73423397E+03</pdfrwt>
<pdfrwt beam="2">  1       -2 0.68153276E-01 0.73423397E+03</pdfrwt>
<totfact> 0.82048471E+01</totfact>
</mgrwt>
</event>
<event>
 4    2  0.3171963E-007  0.8204615E+03  0.7818608E-02  0.9668184E-01
         -2   -1    0    0    0  501 -0.00000000000E+00  0.00000000000E+00  0.35645800316E+03  0.35645800317E+03  0.25500000000E-02 0.  1.
          2   -1    0    0  501    0  0.00000000000E+00 -0.00000000000E+00 -0.21723315401E+04  0.21723315401E+04  0.25500000000E-02 0. -1.
    8880023    1    1    2    0    0 -0.45983329804E+03 -0.16703356659E+03 -0.18410464747E+04  0.20155915267E+04  0.65864270000E+03 0. -1.
    8880022    1    1    2    0    0  0.45983329804E+03  0.16703356659E+03  0.25172937775E+02  0.51319801652E+03  0.15294330000E+03 0.  0.
<mgrwt>
<rscale>  0 0.72943085E+03</rscale>
<asrwt>0</asrwt>
<pdfrwt beam="1">  1        2 0.33420484E+00 0.82046150E+03</pdfrwt>
<pdfrwt beam="2">  1       -2 0.54839694E-01 0.82046150E+03</pdfrwt>
<totfact> 0.17214029E+01</totfact>
</mgrwt>
</event>
<event>
 4    2  0.3171963E-007  0.7221995E+03  0.7818608E-02  0.9915213E-01
         -2   -1    0    0    0  501 -0.00000000000E+00  0.00000000000E+00  0.28088974495E+03  0.28088974496E+03  0.25500000000E-02 0.  1.
          2   -1    0    0  501    0  0.00000000000E+00 -0.00000000000E+00 -0.15842957931E+04  0.15842957931E+04  0.25500000000E-02 0. -1.
    8880023    1    1    2    0    0  0.78392717188E+02 -0.28568611096E+03 -0.13475521922E+04  0.15288783761E+04  0.65864270000E+03 0.  0.
    8880022    1    1    2    0    0 -0.78392717188E+02  0.28568611096E+03  0.44146144041E+02  0.33630716191E+03  0.15294330000E+03 0.  0.
<mgrwt>
<rscale>  0 0.59529654E+03</rscale>
<asrwt>0</asrwt>
<pdfrwt beam="1">  1        2 0.24373781E+00 0.72219954E+03</pdfrwt>
<pdfrwt beam="2">  1       -2 0.43213808E-01 0.72219954E+03</pdfrwt>
<totfact> 0.59237335E+01</totfact>
</mgrwt>
</event>
<event>
 4    2  0.3171963E-007  0.1072643E+04  0.7818608E-02  0.9292144E-01
          2   -1    0    0  501    0  0.00000000000E+00  0.00000000000E+00  0.39876919979E+04  0.39876919979E+04  0.25500000000E-02 0. -1.
         -2   -1    0    0    0  501 -0.00000000000E+00 -0.00000000000E+00 -0.32315209915E+03  0.32315209916E+03  0.25500000000E-02 0.  1.
    8880023    1    1    2    0    0 -0.84581826974E+03 -0.36666856582E+02  0.85252513681E+03  0.13701687192E+04  0.65864270000E+03 0.  1.
    8880022    1    1    2    0    0  0.84581826974E+03  0.36666856582E+02  0.28120147620E+04  0.29406753779E+04  0.15294330000E+03 0.  0.
<mgrwt>
<rscale>  0 0.10150934E+04</rscale>
<asrwt>0</asrwt>
<pdfrwt beam="1">  1        2 0.61349112E+00 0.10726431E+04</pdfrwt>
<pdfrwt beam="2">  1       -2 0.49715704E-01 0.10726431E+04</pdfrwt>
<totfact> 0.13954171E+00</totfact>
</mgrwt>
</event>
<event>
 4    2  0.3171963E-007  0.7380276E+03  0.7818608E-02  0.9865730E-01
          2   -1    0    0  501    0  0.00000000000E+00  0.00000000000E+00  0.84699548222E+03  0.84699548223E+03  0.25500000000E-02 0. -1.
         -2   -1    0    0    0  501 -0.00000000000E+00 -0.00000000000E+00 -0.53103443315E+03  0.53103443316E+03  0.25500000000E-02 0.  1.
    8880023    1    1    2    0    0 -0.16363779743E+03  0.28999524950E+03  0.56969714147E+03  0.93233020585E+03  0.65864270000E+03 0.  0.
    8880022    1    1    2    0    0  0.16363779743E+03 -0.28999524950E+03 -0.25373609240E+03  0.44569970953E+03  0.15294330000E+03 0.  0.
<mgrwt>
<rscale>  0 0.61951284E+03</rscale>
<asrwt>0</asrwt>
<pdfrwt beam="1">  1        2 0.13030700E+00 0.73802763E+03</pdfrwt>
<pdfrwt beam="2">  1       -2 0.81697606E-01 0.73802763E+03</pdfrwt>
<totfact> 0.42686720E+01</totfact>
</mgrwt>
</event>
<event>
 4    2  0.3171963E-007  0.6691454E+03  0.7818608E-02  0.1016283E+00
         -2   -1    0    0    0  501 -0.00000000000E+00  0.00000000000E+00  0.62953194676E+03  0.62953194676E+03  0.25500000000E-02 0.  1.
          2   -1    0    0  501    0  0.00000000000E+00 -0.00000000000E+00 -0.99220982988E+03  0.99220982988E+03  0.25500000000E-02 0. -1.
    8880023    1    1    2    0    0  0.10243037311E+03  0.58765520239E+02 -0.85915288000E+03  0.10889900115E+04  0.65864270000E+03 0. -1.
    8880022    1    1    2    0    0 -0.10243037311E+03 -0.58765520239E+02  0.49647499688E+03  0.53275176513E+03  0.15294330000E+03 0.  0.
<mgrwt>
<rscale>  0 0.49052126E+03</rscale>
<asrwt>0</asrwt>
<pdfrwt beam="1">  1        2 0.15264767E+00 0.66914541E+03</pdfrwt>
<pdfrwt beam="2">  1       -2 0.96851069E-01 0.66914541E+03</pdfrwt>
<totfact> 0.23269775E+01</totfact>
</mgrwt>
</event>
<event>
 4    2  0.3171963E-007  0.1465621E+04  0.7818608E-02  0.8934302E-01
         -2   -1    0    0    0  501 -0.00000000000E+00  0.00000000000E+00  0.19078226158E+04  0.19078226158E+04  0.25500000000E-02 0.  1.
          2   -1    0    0  501    0  0.00000000000E+00 -0.00000000000E+00 -0.13863609374E+04  0.13863609374E+04  0.25500000000E-02 0. -1.
    8880023    1    1    2    0    0 -0.10796030275E+03 -0.13048290671E+04 -0.58016789144E+03  0.15762738689E+04  0.65864270000E+03 0.  0.
    8880022    1    1    2    0    0  0.10796030275E+03  0.13048290671E+04  0.11016295699E+04  0.17179096843E+04  0.15294330000E+03 0.  0.
<mgrwt>
<rscale>  0 0.14272852E+04</rscale>
<asrwt>0</asrwt>
<pdfrwt beam="1">  1        2 0.21328630E+00 0.14656209E+04</pdfrwt>
<pdfrwt beam="2">  1       -2 0.29351117E+00 0.14656209E+04</pdfrwt>
<totfact> 0.48508085E-01</totfact>
</mgrwt>
</event>
<event>
 4    2  0.3171963E-007  0.6954680E+03  0.7818608E-02  0.1001655E+00
         -2   -1    0    0    0  501 -0.00000000000E+00  0.00000000000E+00  0.22714545726E+03  0.22714545727E+03  0.25500000000E-02 0.  1.
          2   -1    0    0  501    0  0.00000000000E+00 -0.00000000000E+00 -0.15006681868E+04  0.15006681868E+04  0.25500000000E-02 0. -1.
    8880023    1    1    2    0    0 -0.16713714080E+03  0.14809011306E+03 -0.12803774355E+04  0.14570662611E+04  0.65864270000E+03 0. -1.
    8880022    1    1    2    0    0  0.16713714080E+03 -0.14809011306E+03  0.68547059540E+01  0.27074738305E+03  0.15294330000E+03 0.  0.
<mgrwt>
<rscale>  0 0.54930571E+03</rscale>
<asrwt>0</asrwt>
<pdfrwt beam="1">  1        2 0.23087202E+00 0.69546798E+03</pdfrwt>
<pdfrwt beam="2">  1       -2 0.34945456E-01 0.69546798E+03</pdfrwt>
<totfact> 0.99740056E+01</totfact>
</mgrwt>
</event>
<event>
 4    2  0.4983656E-007  0.7734448E+03  0.7818608E-02  0.9771467E-01
         -2   -1    0    0    0  501 -0.00000000000E+00  0.00000000000E+00  0.11139752428E+04  0.11139752428E+04  0.25500000000E-02 0.  1.
          2   -1    0    0  501    0  0.00000000000E+00 -0.00000000000E+00 -0.27844973932E+04  0.27844973932E+04  0.25500000000E-02 0. -1.
    8880023    1    1    2    0    0 -0.19446867023E+03 -0.35579281741E+03 -0.26856019073E+04  0.27947583801E+04  0.65864270000E+03 0. -1.
    8880022    1    1    2    0    0  0.19446867023E+03  0.35579281741E+03  0.10150797570E+04  0.11037142559E+04  0.15294330000E+03 0.  0.
<mgrwt>
<rscale>  0 0.66916531E+03</rscale>
<asrwt>0</asrwt>
<pdfrwt beam="1">  1        2 0.42838421E+00 0.77344476E+03</pdfrwt>
<pdfrwt beam="2">  1       -2 0.17138081E+00 0.77344476E+03</pdfrwt>
<totfact> 0.52102290E-01</totfact>
</mgrwt>
</event>
<event>
 4    2  0.3171963E-007  0.6730977E+03  0.7818608E-02  0.1013533E+00
         -2   -1    0    0    0  501 -0.00000000000E+00  0.00000000000E+00  0.24055879897E+03  0.24055879898E+03  0.25500000000E-02 0.  1.
          2   -1    0    0  501    0  0.00000000000E+00 -0.00000000000E+00 -0.80482054591E+03  0.80482054592E+03  0.25500000000E-02 0. -1.
    8880023    1    1    2    0    0  0.61856254609E+02 -0.12419384775E+03 -0.41799019024E+03  0.79232336420E+03  0.65864270000E+03 0.  1.
    8880022    1    1    2    0    0 -0.61856254609E+02  0.12419384775E+03 -0.14627155671E+03  0.25305598070E+03  0.15294330000E+03 0. -1.
<mgrwt>
<rscale>  0 0.50094290E+03</rscale>
<asrwt>0</asrwt>
<pdfrwt beam="1">  1        2 0.12381854E+00 0.67309770E+03</pdfrwt>
<pdfrwt beam="2">  1       -2 0.37009046E-01 0.67309770E+03</pdfrwt>
<totfact> 0.23806477E+02</totfact>
</mgrwt>
</event>
<event>
 4    2  0.3171963E-007  0.7377518E+03  0.7818608E-02  0.9866545E-01
          2   -1    0    0  501    0  0.00000000000E+00  0.00000000000E+00  0.20580928657E+04  0.20580928657E+04  0.25500000000E-02 0. -1.
         -2   -1    0    0    0  501 -0.00000000000E+00 -0.00000000000E+00 -0.21605470539E+03  0.21605470540E+03  0.25500000000E-02 0.  1.
    8880023    1    1    2    0    0 -0.32685702587E+03  0.60266308956E+02  0.17466263470E+04  0.18960436033E+04  0.65864270000E+03 0. -1.
    8880022    1    1    2    0    0  0.32685702587E+03 -0.60266308956E+02  0.95411813363E+02  0.37810396785E+03  0.15294330000E+03 0.  0.
<mgrwt>
<rscale>  0 0.61910419E+03</rscale>
<asrwt>0</asrwt>
<pdfrwt beam="1">  1        2 0.31662967E+00 0.73775182E+03</pdfrwt>
<pdfrwt beam="2">  1       -2 0.33239185E-01 0.73775182E+03</pdfrwt>
<totfact> 0.54097998E+01</totfact>
</mgrwt>
</event>
<event>
 4    2  0.3171963E-007  0.9374166E+03  0.7818608E-02  0.9468455E-01
          2   -1    0    0  501    0  0.00000000000E+00  0.00000000000E+00  0.39686257741E+04  0.39686257741E+04  0.25500000000E-02 0. -1.
         -2   -1    0    0    0  501 -0.00000000000E+00 -0.00000000000E+00 -0.18201057062E+03  0.18201057064E+03  0.25500000000E-02 0.  1.
    8880023    1    1    2    0    0  0.63399210722E+03  0.20734920777E+03  0.15475724293E+04  0.18093452728E+04  0.65864270000E+03 0.  0.
    8880022    1    1    2    0    0 -0.63399210722E+03 -0.20734920777E+03  0.22390427742E+04  0.23412910719E+04  0.15294330000E+03 0.  0.
<mgrwt>
<rscale>  0 0.86650013E+03</rscale>
<asrwt>0</asrwt>
<pdfrwt beam="1">  1        2 0.61055774E+00 0.93741661E+03</pdfrwt>
<pdfrwt beam="2">  1       -2 0.28001629E-01 0.93741661E+03</pdfrwt>
<totfact> 0.44951274E+00</totfact>
</mgrwt>
</event>
<event>
 4    2  0.3171963E-007  0.8823548E+03  0.7818608E-02  0.9554973E-01
          2   -1    0    0  501    0  0.00000000000E+00  0.00000000000E+00  0.20581638824E+04  0.20581638824E+04  0.25500000000E-02 0. -1.
         -2   -1    0    0    0  501 -0.00000000000E+00 -0.00000000000E+00 -0.62694289714E+03  0.62694289715E+03  0.25500000000E-02 0.  1.
    8880023    1    1    2    0    0 -0.58532890203E+03 -0.46150868377E+02  0.17789753582E+04  0.19857752536E+04  0.65864270000E+03 0.  0.
    8880022    1    1    2    0    0  0.58532890203E+03  0.46150868377E+02 -0.34775437302E+03  0.69933152594E+03  0.15294330000E+03 0.  1.
<mgrwt>
<rscale>  0 0.80349433E+03</rscale>
<asrwt>0</asrwt>
<pdfrwt beam="1">  1        2 0.31664060E+00 0.88235482E+03</pdfrwt>
<pdfrwt beam="2">  1       -2 0.96452752E-01 0.88235482E+03</pdfrwt>
<totfact> 0.56715322E+00</totfact>
</mgrwt>
</event>
<event>
 4    2  0.3171963E-007  0.8240571E+03  0.7818608E-02  0.9661008E-01
          2   -1    0    0  501    0  0.00000000000E+00  0.00000000000E+00  0.16295403893E+04  0.16295403893E+04  0.25500000000E-02 0. -1.
         -2   -1    0    0    0  501 -0.00000000000E+00 -0.00000000000E+00 -0.61604175829E+03  0.61604175829E+03  0.25500000000E-02 0.  1.
    8880023    1    1    2    0    0  0.48457086281E+03 -0.10222998814E+03  0.13824082148E+04  0.16093857742E+04  0.65864270000E+03 0. -1.
    8880022    1    1    2    0    0 -0.48457086281E+03  0.10222998814E+03 -0.36890958376E+03  0.63619637343E+03  0.15294330000E+03 0.  0.
<mgrwt>
<rscale>  0 0.73386579E+03</rscale>
<asrwt>0</asrwt>
<pdfrwt beam="1">  1        2 0.25069852E+00 0.82405710E+03</pdfrwt>
<pdfrwt beam="2">  1       -2 0.94775655E-01 0.82405710E+03</pdfrwt>
<totfact> 0.10233146E+01</totfact>
</mgrwt>
</event>
<event>
 4    2  0.3171963E-007  0.6630083E+03  0.7818608E-02  0.1021266E+00
          2   -1    0    0  501    0  0.00000000000E+00  0.00000000000E+00  0.77818286060E+03  0.77818286060E+03  0.25500000000E-02 0. -1.
         -2   -1    0    0    0  501 -0.00000000000E+00 -0.00000000000E+00 -0.25646453265E+03  0.25646453266E+03  0.25500000000E-02 0.  1.
    8880023    1    1    2    0    0  0.10011600142E+02 -0.75296718348E+02  0.55014121170E+03  0.86153083927E+03  0.65864270000E+03 0. -1.
    8880022    1    1    2    0    0 -0.10011600142E+02  0.75296718348E+02 -0.28422883756E+02  0.17311655400E+03  0.15294330000E+03 0.  0.
<mgrwt>
<rscale>  0 0.47232445E+03</rscale>
<asrwt>0</asrwt>
<pdfrwt beam="1">  1        2 0.11972044E+00 0.66300832E+03</pdfrwt>
<pdfrwt beam="2">  1       -2 0.39456082E-01 0.66300832E+03</pdfrwt>
<totfact> 0.22002435E+02</totfact>
</mgrwt>
</event>
<event>
 4    2  0.3171963E-007  0.1004221E+04  0.7818608E-02  0.9376056E-01
         -2   -1    0    0    0  501 -0.00000000000E+00  0.00000000000E+00  0.31654379871E+03  0.31654379872E+03  0.25500000000E-02 0.  1.
          2   -1    0    0  501    0  0.00000000000E+00 -0.00000000000E+00 -0.30164085067E+04  0.30164085067E+04  0.25500000000E-02 0. -1.
    8880023    1    1    2    0    0 -0.75805583947E+03 -0.10866029445E+01 -0.21826931533E+04  0.24026255314E+04  0.65864270000E+03 0.  0.
    8880022    1    1    2    0    0  0.75805583947E+03  0.10866029445E+01 -0.51717155472E+03  0.93032677403E+03  0.15294330000E+03 0.  0.
<mgrwt>
<rscale>  0 0.94072660E+03</rscale>
<asrwt>0</asrwt>
<pdfrwt beam="1">  1        2 0.46406283E+00 0.10042211E+04</pdfrwt>
<pdfrwt beam="2">  1       -2 0.48699048E-01 0.10042211E+04</pdfrwt>
<totfact> 0.69455420E+00</totfact>
</mgrwt>
</event>
<event>
 4    2  0.3171963E-007  0.6958588E+03  0.7818608E-02  0.1001483E+00
          2   -1    0    0  501    0  0.00000000000E+00  0.00000000000E+00  0.80278814966E+03  0.80278814966E+03  0.25500000000E-02 0. -1.
         -2   -1    0    0    0  501 -0.00000000000E+00 -0.00000000000E+00 -0.36417274838E+03  0.36417274838E+03  0.25500000000E-02 0.  1.
    8880023    1    1    2    0    0 -0.45347026954E+01 -0.22447418572E+03  0.53601119585E+03  0.87836634266E+03  0.65864270000E+03 0. -1.
    8880022    1    1    2    0    0  0.45347026954E+01  0.22447418572E+03 -0.97395794562E+02  0.28859455539E+03  0.15294330000E+03 0.  0.
<mgrwt>
<rscale>  0 0.55004538E+03</rscale>
<asrwt>0</asrwt>
<pdfrwt beam="1">  1        2 0.12350587E+00 0.69585877E+03</pdfrwt>
<pdfrwt beam="2">  1       -2 0.56026577E-01 0.69585877E+03</pdfrwt>
<totfact> 0.10419833E+02</totfact>
</mgrwt>
</event>
<event>
 4    2  0.3171963E-007  0.1187049E+04  0.7818608E-02  0.9169815E-01
         -2   -1    0    0    0  501 -0.00000000000E+00  0.00000000000E+00  0.20469909385E+04  0.20469909385E+04  0.25500000000E-02 0.  1.
          2   -1    0    0  501    0  0.00000000000E+00 -0.00000000000E+00 -0.11342472292E+04  0.11342472292E+04  0.25500000000E-02 0. -1.
    8880023    1    1    2    0    0 -0.48687834496E+02 -0.98635969700E+03 -0.62941681930E+03  0.13435965525E+04  0.65864270000E+03 0. -1.
    8880022    1    1    2    0    0  0.48687834496E+02  0.98635969700E+03  0.15421605286E+04  0.18376416153E+04  0.15294330000E+03 0.  0.
<mgrwt>
<rscale>  0 0.11370491E+04</rscale>
<asrwt>0</asrwt>
<pdfrwt beam="1">  1        2 0.17449958E+00 0.11870494E+04</pdfrwt>
<pdfrwt beam="2">  1       -2 0.31492168E+00 0.11870494E+04</pdfrwt>
<totfact> 0.52352075E-01</totfact>
</mgrwt>
</event>
<event>
 4    2  0.3171963E-007  0.8068585E+03  0.7818608E-02  0.9696158E-01
         -2   -1    0    0    0  501 -0.00000000000E+00  0.00000000000E+00  0.40228722937E+03  0.40228722938E+03  0.25500000000E-02 0.  1.
          2   -1    0    0  501    0  0.00000000000E+00 -0.00000000000E+00 -0.23406615244E+04  0.23406615245E+04  0.25500000000E-02 0. -1.
    8880023    1    1    2    0    0 -0.40521413407E+03 -0.23024329931E+03 -0.20811452870E+04  0.22320811776E+04  0.65864270000E+03 0. -1.
    8880022    1    1    2    0    0  0.40521413407E+03  0.23024329931E+03  0.14277099193E+03  0.51086757627E+03  0.15294330000E+03 0.  0.
<mgrwt>
<rscale>  0 0.71245998E+03</rscale>
<asrwt>0</asrwt>
<pdfrwt beam="1">  1        2 0.36010177E+00 0.80685852E+03</pdfrwt>
<pdfrwt beam="2">  1       -2 0.61890344E-01 0.80685852E+03</pdfrwt>
<totfact> 0.10786358E+01</totfact>
</mgrwt>
</event>
<event>
 4    2  0.3171963E-007  0.7382156E+03  0.7818608E-02  0.9865176E-01
         -2   -1    0    0    0  501 -0.00000000000E+00  0.00000000000E+00  0.29804727848E+03  0.29804727849E+03  0.25500000000E-02 0.  1.
          2   -1    0    0  501    0  0.00000000000E+00 -0.00000000000E+00 -0.11340956420E+04  0.11340956420E+04  0.25500000000E-02 0. -1.
    8880023    1    1    2    0    0  0.16563903853E+03 -0.28933676555E+03 -0.75612557559E+03  0.10567346627E+04  0.65864270000E+03 0. -1.
    8880022    1    1    2    0    0 -0.16563903853E+03  0.28933676555E+03 -0.79922787928E+02  0.37540825780E+03  0.15294330000E+03 0.  0.
<mgrwt>
<rscale>  0 0.61979110E+03</rscale>
<asrwt>0</asrwt>
<pdfrwt beam="1">  1        2 0.17447625E+00 0.73821559E+03</pdfrwt>
<pdfrwt beam="2">  1       -2 0.45853428E-01 0.73821559E+03</pdfrwt>
<totfact> 0.95102026E+01</totfact>
</mgrwt>
</event>
<event>
 4    2  0.3171963E-007  0.6814733E+03  0.7818608E-02  0.1008502E+00
         -2   -1    0    0    0  501 -0.00000000000E+00  0.00000000000E+00  0.24060652109E+03  0.24060652110E+03  0.25500000000E-02 0.  1.
          2   -1    0    0  501    0  0.00000000000E+00 -0.00000000000E+00 -0.18691843631E+04  0.18691843631E+04  0.25500000000E-02 0. -1.
    8880023    1    1    2    0    0 -0.17291133485E+03 -0.26407742557E+02 -0.17276515910E+04  0.18571984074E+04  0.65864270000E+03 0. -1.
    8880022    1    1    2    0    0  0.17291133485E+03  0.26407742557E+02  0.99073748925E+02  0.25259247678E+03  0.15294330000E+03 0.  0.
<mgrwt>
<rscale>  0 0.52074265E+03</rscale>
<asrwt>0</asrwt>
<pdfrwt beam="1">  1        2 0.28756682E+00 0.68147333E+03</pdfrwt>
<pdfrwt beam="2">  1       -2 0.37016389E-01 0.68147333E+03</pdfrwt>
<totfact> 0.56247370E+01</totfact>
</mgrwt>
</event>
<event>
 4    2  0.4589492E-007  0.9329756E+03  0.7818608E-02  0.9475044E-01
         -2   -1    0    0    0  501 -0.00000000000E+00  0.00000000000E+00  0.12209671807E+04  0.12209671807E+04  0.25500000000E-02 0.  1.
          2   -1    0    0  501    0  0.00000000000E+00 -0.00000000000E+00 -0.24124273758E+04  0.24124273758E+04  0.25500000000E-02 0. -1.
    8880023    1    1    2    0    0 -0.63508035644E+03 -0.18249994175E+03 -0.22161718019E+04  0.24045500514E+04  0.65864270000E+03 0. -1.
    8880022    1    1    2    0    0  0.63508035644E+03  0.18249994175E+03  0.10247116068E+04  0.12288445052E+04  0.15294330000E+03 0.  0.
<mgrwt>
<rscale>  0 0.86149030E+03</rscale>
<asrwt>0</asrwt>
<pdfrwt beam="1">  1        2 0.37114267E+00 0.93297561E+03</pdfrwt>
<pdfrwt beam="2">  1       -2 0.18784111E+00 0.93297561E+03</pdfrwt>
<totfact> 0.63689539E-01</totfact>
</mgrwt>
</event>
<event>
 4    2  0.3171963E-007  0.7708889E+03  0.7818608E-02  0.9777691E-01
          2   -1    0    0  501    0  0.00000000000E+00  0.00000000000E+00  0.16596724796E+04  0.16596724796E+04  0.25500000000E-02 0. -1.
         -2   -1    0    0    0  501 -0.00000000000E+00 -0.00000000000E+00 -0.28038332452E+03  0.28038332454E+03  0.25500000000E-02 0.  1.
    8880023    1    1    2    0    0  0.25656024938E+03  0.30763018469E+03  0.12889156951E+04  0.15018566401E+04  0.65864270000E+03 0. -1.
    8880022    1    1    2    0    0 -0.25656024938E+03 -0.30763018469E+03  0.90373460007E+02  0.43819916406E+03  0.15294330000E+03 0.  0.
<mgrwt>
<rscale>  0 0.66573615E+03</rscale>
<asrwt>0</asrwt>
<pdfrwt beam="1">  1        2 0.25533422E+00 0.77088890E+03</pdfrwt>
<pdfrwt beam="2">  1       -2 0.43135897E-01 0.77088890E+03</pdfrwt>
<totfact> 0.53757699E+01</totfact>
</mgrwt>
</event>
<event>
 4    2  0.3171963E-007  0.7428741E+03  0.7818608E-02  0.9851653E-01
         -2   -1    0    0    0  501 -0.00000000000E+00  0.00000000000E+00  0.65010641925E+03  0.65010641925E+03  0.25500000000E-02 0.  1.
          2   -1    0    0  501    0  0.00000000000E+00 -0.00000000000E+00 -0.11845748848E+04  0.11845748848E+04  0.25500000000E-02 0. -1.
    8880023    1    1    2    0    0 -0.20812337221E+03  0.27337952938E+03 -0.99396390721E+03  0.12408973206E+04  0.65864270000E+03 0. -1.
    8880022    1    1    2    0    0  0.20812337221E+03 -0.27337952938E+03  0.45949544164E+03  0.59378398349E+03  0.15294330000E+03 0.  0.
<mgrwt>
<rscale>  0 0.62662718E+03</rscale>
<asrwt>0</asrwt>
<pdfrwt beam="1">  1        2 0.18224229E+00 0.74287409E+03</pdfrwt>
<pdfrwt beam="2">  1       -2 0.10001637E+00 0.74287409E+03</pdfrwt>
<totfact> 0.16294296E+01</totfact>
</mgrwt>
</event>
<event>
 4    2  0.3171963E-007  0.7757824E+03  0.7818608E-02  0.9765839E-01
         -2   -1    0    0    0  501 -0.00000000000E+00  0.00000000000E+00  0.15788220369E+04  0.15788220369E+04  0.25500000000E-02 0.  1.
          2   -1    0    0  501    0  0.00000000000E+00 -0.00000000000E+00 -0.54321643057E+03  0.54321643058E+03  0.25500000000E-02 0. -1.
    8880023    1    1    2    0    0 -0.32314074091E+03  0.25220654865E+03 -0.20844338967E+03  0.80329753801E+03  0.65864270000E+03 0. -1.
    8880022    1    1    2    0    0  0.32314074091E+03 -0.25220654865E+03  0.12440489960E+04  0.13187409295E+04  0.15294330000E+03 0.  0.
<mgrwt>
<rscale>  0 0.67228476E+03</rscale>
<asrwt>0</asrwt>
<pdfrwt beam="1">  1        2 0.83571759E-01 0.77578237E+03</pdfrwt>
<pdfrwt beam="2">  1       -2 0.24289570E+00 0.77578237E+03</pdfrwt>
<totfact> 0.40681903E+00</totfact>
</mgrwt>
</event>
<event>
 4    2  0.3171963E-007  0.7835280E+03  0.7818608E-02  0.9747614E-01
         -2   -1    0    0    0  501 -0.00000000000E+00  0.00000000000E+00  0.11580710235E+04  0.11580710235E+04  0.25500000000E-02 0.  1.
          2   -1    0    0  501    0  0.00000000000E+00 -0.00000000000E+00 -0.99307733556E+03  0.99307733556E+03  0.25500000000E-02 0. -1.
    8880023    1    1    2    0    0 -0.11564230356E+03 -0.40832933922E+03 -0.77901731285E+03  0.11048910225E+04  0.65864270000E+03 0. -1.
    8880022    1    1    2    0    0  0.11564230356E+03  0.40832933922E+03  0.94401100075E+03  0.10462573365E+04  0.15294330000E+03 0.  0.
<mgrwt>
<rscale>  0 0.68251285E+03</rscale>
<asrwt>0</asrwt>
<pdfrwt beam="1">  1        2 0.15278113E+00 0.78352805E+03</pdfrwt>
<pdfrwt beam="2">  1       -2 0.17816477E+00 0.78352805E+03</pdfrwt>
<totfact> 0.48300529E+00</totfact>
</mgrwt>
</event>
<event>
 4    2  0.3171963E-007  0.6907057E+03  0.7818608E-02  0.1003819E+00
         -2   -1    0    0    0  501 -0.00000000000E+00  0.00000000000E+00  0.21087268580E+03  0.21087268581E+03  0.25500000000E-02 0.  1.
          2   -1    0    0  501    0  0.00000000000E+00 -0.00000000000E+00 -0.16087572134E+04  0.16087572134E+04  0.25500000000E-02 0. -1.
    8880023    1    1    2    0    0  0.14401542724E+03  0.15007888513E+03 -0.14003646621E+04  0.15614402032E+04  0.65864270000E+03 0. -1.
    8880022    1    1    2    0    0 -0.14401542724E+03 -0.15007888513E+03  0.24801345082E+01  0.25818969601E+03  0.15294330000E+03 0.  0.
<mgrwt>
<rscale>  0 0.54006929E+03</rscale>
<asrwt>0</asrwt>
<pdfrwt beam="1">  1        2 0.24750110E+00 0.69070567E+03</pdfrwt>
<pdfrwt beam="2">  1       -2 0.32441953E-01 0.69070567E+03</pdfrwt>
<totfact> 0.10009215E+02</totfact>
</mgrwt>
</event>
<event>
 4    2  0.3171963E-007  0.9789055E+03  0.7818608E-02  0.9409691E-01
         -2   -1    0    0    0  501 -0.00000000000E+00  0.00000000000E+00  0.20293818861E+04  0.20293818861E+04  0.25500000000E-02 0.  1.
          2   -1    0    0  501    0  0.00000000000E+00 -0.00000000000E+00 -0.66276537268E+03  0.66276537268E+03  0.25500000000E-02 0. -1.
    8880023    1    1    2    0    0 -0.57931724918E+03  0.43455407051E+03 -0.16345123861E+03  0.99245767117E+03  0.65864270000E+03 0. -1.
    8880022    1    1    2    0    0  0.57931724918E+03 -0.43455407051E+03  0.15300677520E+04  0.16996895876E+04  0.15294330000E+03 0.  0.
<mgrwt>
<rscale>  0 0.91282394E+03</rscale>
<asrwt>0</asrwt>
<pdfrwt beam="1">  1        2 0.10196390E+00 0.97890547E+03</pdfrwt>
<pdfrwt beam="2">  1       -2 0.31221259E+00 0.97890547E+03</pdfrwt>
<totfact> 0.11856877E+00</totfact>
</mgrwt>
</event>
<event>
 4    2  0.3171963E-007  0.6601367E+03  0.7818608E-02  0.1024017E+00
          2   -1    0    0  501    0  0.00000000000E+00  0.00000000000E+00  0.43113347472E+04  0.43113347472E+04  0.25500000000E-02 0. -1.
         -2   -1    0    0    0  501 -0.00000000000E+00 -0.00000000000E+00 -0.78030340773E+02  0.78030340814E+02  0.25500000000E-02 0.  1.
    8880023    1    1    2    0    0 -0.40976583654E+01 -0.44197346432E+02  0.41634586794E+04  0.42154677769E+04  0.65864270000E+03 0.  0.
    8880022    1    1    2    0    0  0.40976583654E+01  0.44197346432E+02  0.69845727029E+02  0.17389731118E+03  0.15294330000E+03 0.  1.
<mgrwt>
<rscale>  0 0.46264514E+03</rscale>
<asrwt>0</asrwt>
<pdfrwt beam="1">  1        2 0.66328230E+00 0.66013665E+03</pdfrwt>
<pdfrwt beam="2">  1       -2 0.12004667E-01 0.66013665E+03</pdfrwt>
<totfact> 0.10757960E+01</totfact>
</mgrwt>
</event>
<event>
 4    2  0.3806420E-007  0.7569996E+03  0.7818608E-02  0.9812938E-01
         -2   -1    0    0    0  501 -0.00000000000E+00  0.00000000000E+00  0.15181705425E+04  0.15181705425E+04  0.25500000000E-02 0.  1.
          2   -1    0    0  501    0  0.00000000000E+00 -0.00000000000E+00 -0.16751654022E+04  0.16751654022E+04  0.25500000000E-02 0. -1.
    8880023    1    1    2    0    0 -0.14300937621E+02 -0.37287221976E+03 -0.15597604228E+04  0.17337534403E+04  0.65864270000E+03 0. -1.
    8880022    1    1    2    0    0  0.14300937621E+02  0.37287221976E+03  0.14027655631E+04  0.14595825044E+04  0.15294330000E+03 0.  0.
<mgrwt>
<rscale>  0 0.64672817E+03</rscale>
<asrwt>0</asrwt>
<pdfrwt beam="1">  1        2 0.25771775E+00 0.75699961E+03</pdfrwt>
<pdfrwt beam="2">  1       -2 0.23356470E+00 0.75699961E+03</pdfrwt>
<totfact> 0.85593376E-01</totfact>
</mgrwt>
</event>
<event>
 4    2  0.3171963E-007  0.6906022E+03  0.7818608E-02  0.1003868E+00
          2   -1    0    0  501    0  0.00000000000E+00  0.00000000000E+00  0.41726747641E+03  0.41726747641E+03  0.25500000000E-02 0. -1.
         -2   -1    0    0    0  501 -0.00000000000E+00 -0.00000000000E+00 -0.58707954050E+03  0.58707954051E+03  0.25500000000E-02 0.  1.
    8880023    1    1    2    0    0 -0.19422152026E+03  0.73478974719E+02  0.87604761445E+01  0.69065773786E+03  0.65864270000E+03 0.  0.
    8880022    1    1    2    0    0  0.19422152026E+03 -0.73478974719E+02 -0.17857254024E+03  0.31368927907E+03  0.15294330000E+03 0.  0.
<mgrwt>
<rscale>  0 0.53986369E+03</rscale>
<asrwt>0</asrwt>
<pdfrwt beam="1">  1        2 0.64194996E-01 0.69060218E+03</pdfrwt>
<pdfrwt beam="2">  1       -2 0.90319930E-01 0.69060218E+03</pdfrwt>
<totfact> 0.80582212E+01</totfact>
</mgrwt>
</event>
<event>
 4    2  0.3171963E-007  0.6689364E+03  0.7818608E-02  0.1016437E+00
          2   -1    0    0  501    0  0.00000000000E+00  0.00000000000E+00  0.37141896552E+04  0.37141896552E+04  0.25500000000E-02 0. -1.
         -2   -1    0    0    0  501 -0.00000000000E+00 -0.00000000000E+00 -0.23635007820E+03  0.23635007822E+03  0.25500000000E-02 0.  1.
    8880023    1    1    2    0    0  0.11257225114E+03 -0.31515737934E+02  0.36386980064E+04  0.36996755455E+04  0.65864270000E+03 0.  0.
    8880022    1    1    2    0    0 -0.11257225114E+03  0.31515737934E+02 -0.16085842943E+03  0.25086418795E+03  0.15294330000E+03 0.  0.
<mgrwt>
<rscale>  0 0.48994578E+03</rscale>
<asrwt>0</asrwt>
<pdfrwt beam="1">  1        2 0.57141380E+00 0.66893644E+03</pdfrwt>
<pdfrwt beam="2">  1       -2 0.36361550E-01 0.66893644E+03</pdfrwt>
<totfact> 0.45148213E+00</totfact>
</mgrwt>
</event>
<event>
 4    2  0.3171963E-007  0.9520758E+03  0.7818608E-02  0.9447134E-01
          2   -1    0    0  501    0  0.00000000000E+00  0.00000000000E+00  0.91252116200E+03  0.91252116201E+03  0.25500000000E-02 0. -1.
         -2   -1    0    0    0  501 -0.00000000000E+00 -0.00000000000E+00 -0.12049858493E+04  0.12049858493E+04  0.25500000000E-02 0.  1.
    8880023    1    1    2    0    0  0.68218927848E+03  0.85181797105E+02  0.48498130020E+03  0.10684826709E+04  0.65864270000E+03 0.  0.
    8880022    1    1    2    0    0 -0.68218927848E+03 -0.85181797105E+02 -0.77744598745E+03  0.10490243404E+04  0.15294330000E+03 0.  0.
<mgrwt>
<rscale>  0 0.88296222E+03</rscale>
<asrwt>0</asrwt>
<pdfrwt beam="1">  1        2 0.14038787E+00 0.95207581E+03</pdfrwt>
<pdfrwt beam="2">  1       -2 0.18538244E+00 0.95207581E+03</pdfrwt>
<totfact> 0.47732733E+00</totfact>
</mgrwt>
</event>
<event>
 4    2  0.3171963E-007  0.7218126E+03  0.7818608E-02  0.9916500E-01
          2   -1    0    0  501    0  0.00000000000E+00  0.00000000000E+00  0.72324176352E+03  0.72324176352E+03  0.25500000000E-02 0. -1.
         -2   -1    0    0    0  501 -0.00000000000E+00 -0.00000000000E+00 -0.11298880844E+04  0.11298880844E+04  0.25500000000E-02 0.  1.
    8880023    1    1    2    0    0 -0.25532520836E+03 -0.14836532410E+03  0.50618308224E+03  0.88160918236E+03  0.65864270000E+03 0. -1.
    8880022    1    1    2    0    0  0.25532520836E+03  0.14836532410E+03 -0.91282940312E+03  0.97152066557E+03  0.15294330000E+03 0.  0.
<mgrwt>
<rscale>  0 0.59468259E+03</rscale>
<asrwt>0</asrwt>
<pdfrwt beam="1">  1        2 0.11126796E+00 0.72181261E+03</pdfrwt>
<pdfrwt beam="2">  1       -2 0.17382894E+00 0.72181261E+03</pdfrwt>
<totfact> 0.80354035E+00</totfact>
</mgrwt>
</event>
<event>
 4    2  0.3171963E-007  0.8158552E+03  0.7818608E-02  0.9677507E-01
          2   -1    0    0  501    0  0.00000000000E+00  0.00000000000E+00  0.44155158000E+03  0.44155158001E+03  0.25500000000E-02 0. -1.
         -2   -1    0    0    0  501 -0.00000000000E+00 -0.00000000000E+00 -0.15280663419E+04  0.15280663419E+04  0.25500000000E-02 0.  1.
    8880023    1    1    2    0    0  0.42626520927E+03  0.22384688515E+03 -0.50997716795E+02  0.81744750902E+03  0.65864270000E+03 0. -1.
    8880022    1    1    2    0    0 -0.42626520927E+03 -0.22384688515E+03 -0.10355170451E+04  0.11521704129E+04  0.15294330000E+03 0.  0.
<mgrwt>
<rscale>  0 0.72371925E+03</rscale>
<asrwt>0</asrwt>
<pdfrwt beam="1">  1        2 0.67931013E-01 0.81585517E+03</pdfrwt>
<pdfrwt beam="2">  1       -2 0.23508713E+00 0.81585517E+03</pdfrwt>
<totfact> 0.57475425E+00</totfact>
</mgrwt>
</event>
<event>
 4    2  0.3171963E-007  0.7110085E+03  0.7818608E-02  0.9954275E-01
         -2   -1    0    0    0  501 -0.00000000000E+00  0.00000000000E+00  0.11001232794E+04  0.11001232794E+04  0.25500000000E-02 0.  1.
          2   -1    0    0  501    0  0.00000000000E+00 -0.00000000000E+00 -0.54826737598E+03  0.54826737598E+03  0.25500000000E-02 0. -1.
    8880023    1    1    2    0    0 -0.72462687731E+01 -0.26771316683E+03 -0.27773507078E+03  0.76332812336E+03  0.65864270000E+03 0. -1.
    8880022    1    1    2    0    0  0.72462687731E+01  0.26771316683E+03  0.82959097424E+03  0.88506253206E+03  0.15294330000E+03 0.  0.
<mgrwt>
<rscale>  0 0.57701476E+03</rscale>
<asrwt>0</asrwt>
<pdfrwt beam="1">  1        2 0.84348828E-01 0.71100848E+03</pdfrwt>
<pdfrwt beam="2">  1       -2 0.16924973E+00 0.71100848E+03</pdfrwt>
<totfact> 0.12159769E+01</totfact>
</mgrwt>
</event>
<event>
 4    2  0.3171963E-007  0.9015805E+03  0.7818608E-02  0.9523499E-01
         -2   -1    0    0    0  501 -0.00000000000E+00  0.00000000000E+00  0.89045064895E+03  0.89045064896E+03  0.25500000000E-02 0.  1.
          2   -1    0    0  501    0  0.00000000000E+00 -0.00000000000E+00 -0.79390238757E+03  0.79390238758E+03  0.25500000000E-02 0. -1.
    8880023    1    1    2    0    0  0.58750929586E+03  0.18403793973E+03  0.39374985264E+03  0.98381212063E+03  0.65864270000E+03 0.  0.
    8880022    1    1    2    0    0 -0.58750929586E+03 -0.18403793973E+03 -0.29720159126E+03  0.70054091590E+03  0.15294330000E+03 0.  0.
<mgrwt>
<rscale>  0 0.82573273E+03</rscale>
<asrwt>0</asrwt>
<pdfrwt beam="1">  1        2 0.12213883E+00 0.90158047E+03</pdfrwt>
<pdfrwt beam="2">  1       -2 0.13699241E+00 0.90158047E+03</pdfrwt>
<totfact> 0.13229906E+01</totfact>
</mgrwt>
</event>
<event>
 4    2  0.3171963E-007  0.7999512E+03  0.7818608E-02  0.9710902E-01
          2   -1    0    0  501    0  0.00000000000E+00  0.00000000000E+00  0.60064615811E+03  0.60064615812E+03  0.25500000000E-02 0. -1.
         -2   -1    0    0    0  501 -0.00000000000E+00 -0.00000000000E+00 -0.82968643654E+03  0.82968643654E+03  0.25500000000E-02 0.  1.
    8880023    1    1    2    0    0  0.44985151864E+03  0.61198469898E+02  0.15684413492E+03  0.81518214557E+03  0.65864270000E+03 0.  0.
    8880022    1    1    2    0    0 -0.44985151864E+03 -0.61198469898E+02 -0.38588441335E+03  0.61515044909E+03  0.15294330000E+03 0.  0.
<mgrwt>
<rscale>  0 0.70371404E+03</rscale>
<asrwt>0</asrwt>
<pdfrwt beam="1">  1        2 0.92407102E-01 0.79995115E+03</pdfrwt>
<pdfrwt beam="2">  1       -2 0.12764407E+00 0.79995115E+03</pdfrwt>
<totfact> 0.22731803E+01</totfact>
</mgrwt>
</event>
<event>
 4    2  0.3171963E-007  0.7291316E+03  0.7818608E-02  0.9892818E-01
          2   -1    0    0  501    0  0.00000000000E+00  0.00000000000E+00  0.18338183516E+04  0.18338183516E+04  0.25500000000E-02 0. -1.
         -2   -1    0    0    0  501 -0.00000000000E+00 -0.00000000000E+00 -0.20311962393E+03  0.20311962394E+03  0.25500000000E-02 0.  1.
    8880023    1    1    2    0    0  0.23357163232E+03  0.20800726315E+03  0.14948909464E+04  0.16632293519E+04  0.65864270000E+03 0.  0.
    8880022    1    1    2    0    0 -0.23357163232E+03 -0.20800726315E+03  0.13580778125E+03  0.37370862368E+03  0.15294330000E+03 0.  0.
<mgrwt>
<rscale>  0 0.60610620E+03</rscale>
<asrwt>0</asrwt>
<pdfrwt beam="1">  1        2 0.28212589E+00 0.72913163E+03</pdfrwt>
<pdfrwt beam="2">  1       -2 0.31249175E-01 0.72913163E+03</pdfrwt>
<totfact> 0.80572856E+01</totfact>
</mgrwt>
</event>
<event>
 4    2  0.3171963E-007  0.8557292E+03  0.7818608E-02  0.9601206E-01
          2   -1    0    0  501    0  0.00000000000E+00  0.00000000000E+00  0.27109295421E+04  0.27109295421E+04  0.25500000000E-02 0. -1.
         -2   -1    0    0    0  501 -0.00000000000E+00 -0.00000000000E+00 -0.72533449925E+03  0.72533449925E+03  0.25500000000E-02 0.  1.
    8880023    1    1    2    0    0 -0.28541480235E+03  0.46583323421E+03 -0.42806706133E+03  0.95682486734E+03  0.65864270000E+03 0.  0.
    8880022    1    1    2    0    0  0.28541480235E+03 -0.46583323421E+03  0.24136621042E+04  0.24794391740E+04  0.15294330000E+03 0.  0.
<mgrwt>
<rscale>  0 0.77216408E+03</rscale>
<asrwt>0</asrwt>
<pdfrwt beam="1">  1        2 0.41706608E+00 0.85572917E+03</pdfrwt>
<pdfrwt beam="2">  1       -2 0.11158992E+00 0.85572917E+03</pdfrwt>
<totfact> 0.17201406E+00</totfact>
</mgrwt>
</event>
<event>
 4    2  0.3171963E-007  0.7118606E+03  0.7818608E-02  0.9951156E-01
         -2   -1    0    0    0  501 -0.00000000000E+00  0.00000000000E+00  0.53066143519E+03  0.53066143519E+03  0.25500000000E-02 0.  1.
          2   -1    0    0  501    0  0.00000000000E+00 -0.00000000000E+00 -0.84728078316E+03  0.84728078316E+03  0.25500000000E-02 0. -1.
    8880023    1    1    2    0    0  0.42703922027E+02  0.26666764763E+03 -0.61994456215E+03  0.94396860416E+03  0.65864270000E+03 0. -1.
    8880022    1    1    2    0    0 -0.42703922027E+02 -0.26666764763E+03  0.30332521417E+03  0.43397361419E+03  0.15294330000E+03 0.  0.
<mgrwt>
<rscale>  0 0.57844844E+03</rscale>
<asrwt>0</asrwt>
<pdfrwt beam="1">  1        2 0.13035089E+00 0.71186057E+03</pdfrwt>
<pdfrwt beam="2">  1       -2 0.81640221E-01 0.71186057E+03</pdfrwt>
<totfact> 0.42832201E+01</totfact>
</mgrwt>
</event>
<event>
 4    2  0.3171963E-007  0.6780946E+03  0.7818608E-02  0.1010423E+00
          2   -1    0    0  501    0  0.00000000000E+00  0.00000000000E+00  0.19608809851E+04  0.19608809851E+04  0.25500000000E-02 0. -1.
         -2   -1    0    0    0  501 -0.00000000000E+00 -0.00000000000E+00 -0.25497836126E+03  0.25497836127E+03  0.25500000000E-02 0.  1.
    8880023    1    1    2    0    0 -0.14883231418E+03  0.62056801181E+02  0.18367718778E+04  0.19579436257E+04  0.65864270000E+03 0. -1.
    8880022    1    1    2    0    0  0.14883231418E+03 -0.62056801181E+02 -0.13086925392E+03  0.25791572064E+03  0.15294330000E+03 0.  0.
<mgrwt>
<rscale>  0 0.51307013E+03</rscale>
<asrwt>0</asrwt>
<pdfrwt beam="1">  1        2 0.30167399E+00 0.67809462E+03</pdfrwt>
<pdfrwt beam="2">  1       -2 0.39227441E-01 0.67809462E+03</pdfrwt>
<totfact> 0.44858898E+01</totfact>
</mgrwt>
</event>
<event>
 4    2  0.3171963E-007  0.1075700E+04  0.7818608E-02  0.9288606E-01
          2   -1    0    0  501    0  0.00000000000E+00  0.00000000000E+00  0.11274349558E+04  0.11274349558E+04  0.25500000000E-02 0. -1.
         -2   -1    0    0    0  501 -0.00000000000E+00 -0.00000000000E+00 -0.10679554882E+04  0.10679554882E+04  0.25500000000E-02 0.  1.
    8880023    1    1    2    0    0  0.20712750847E+03 -0.82487466613E+03 -0.47867077718E+03  0.11773937059E+04  0.65864270000E+03 0.  0.
    8880022    1    1    2    0    0 -0.20712750847E+03  0.82487466613E+03  0.53815024478E+03  0.10179967380E+04  0.15294330000E+03 0.  0.
<mgrwt>
<rscale>  0 0.10183861E+04</rscale>
<asrwt>0</asrwt>
<pdfrwt beam="1">  1        2 0.17345153E+00 0.10756999E+04</pdfrwt>
<pdfrwt beam="2">  1       -2 0.16430084E+00 0.10756999E+04</pdfrwt>
<totfact> 0.48283665E+00</totfact>
</mgrwt>
</event>
<event>
 4    2  0.3171963E-007  0.8071132E+03  0.7818608E-02  0.9695622E-01
         -2   -1    0    0    0  501 -0.00000000000E+00  0.00000000000E+00  0.22788699083E+04  0.22788699083E+04  0.25500000000E-02 0.  1.
          2   -1    0    0  501    0  0.00000000000E+00 -0.00000000000E+00 -0.10649780961E+04  0.10649780961E+04  0.25500000000E-02 0. -1.
    8880023    1    1    2    0    0  0.30910056074E+03 -0.34939712546E+03 -0.87946952685E+03  0.11936910668E+04  0.65864270000E+03 0. -1.
    8880022    1    1    2    0    0 -0.30910056074E+03  0.34939712546E+03  0.20933613390E+04  0.21501569377E+04  0.15294330000E+03 0.  0.
<mgrwt>
<rscale>  0 0.71278070E+03</rscale>
<asrwt>0</asrwt>
<pdfrwt beam="1">  1        2 0.16384279E+00 0.80711320E+03</pdfrwt>
<pdfrwt beam="2">  1       -2 0.35059537E+00 0.80711320E+03</pdfrwt>
<totfact> 0.37005861E-01</totfact>
</mgrwt>
</event>
<event>
 4    2  0.3171963E-007  0.7126013E+03  0.7818608E-02  0.9948465E-01
          2   -1    0    0  501    0  0.00000000000E+00  0.00000000000E+00  0.26000183282E+04  0.26000183282E+04  0.25500000000E-02 0. -1.
         -2   -1    0    0    0  501 -0.00000000000E+00 -0.00000000000E+00 -0.57008194081E+03  0.57008194082E+03  0.25500000000E-02 0.  1.
    8880023    1    1    2    0    0 -0.25526946612E+03  0.93957201031E+02  0.25035110994E+04  0.26029538004E+04  0.65864270000E+03 0. -1.
    8880022    1    1    2    0    0  0.25526946612E+03 -0.93957201031E+02 -0.47357471203E+03  0.56714646860E+03  0.15294330000E+03 0.  0.
<mgrwt>
<rscale>  0 0.57968875E+03</rscale>
<asrwt>0</asrwt>
<pdfrwt beam="1">  1        2 0.40000283E+00 0.71260133E+03</pdfrwt>
<pdfrwt beam="2">  1       -2 0.87704913E-01 0.71260133E+03</pdfrwt>
<totfact> 0.36210676E+00</totfact>
</mgrwt>
</event>
<event>
 4    2  0.3171963E-007  0.7740400E+03  0.7818608E-02  0.9770028E-01
          2   -1    0    0  501    0  0.00000000000E+00  0.00000000000E+00  0.38929762024E+04  0.38929762024E+04  0.25500000000E-02 0. -1.
         -2   -1    0    0    0  501 -0.00000000000E+00 -0.00000000000E+00 -0.24311759977E+03  0.24311759978E+03  0.25500000000E-02 0.  1.
    8880023    1    1    2    0    0  0.23604232087E+02 -0.40591948229E+03  0.36187017136E+04  0.37005594285E+04  0.65864270000E+03 0. -1.
    8880022    1    1    2    0    0 -0.23604232087E+02  0.40591948229E+03  0.31156889030E+02  0.43553437364E+03  0.15294330000E+03 0.  0.
<mgrwt>
<rscale>  0 0.66996120E+03</rscale>
<asrwt>0</asrwt>
<pdfrwt beam="1">  1        2 0.59891938E+00 0.77404005E+03</pdfrwt>
<pdfrwt beam="2">  1       -2 0.37402710E-01 0.77404005E+03</pdfrwt>
<totfact> 0.30773068E+00</totfact>
</mgrwt>
</event>
<event>
 4    2  0.3171963E-007  0.1265716E+04  0.7818608E-02  0.9095746E-01
          2   -1    0    0  501    0  0.00000000000E+00  0.00000000000E+00  0.12265619395E+04  0.12265619395E+04  0.25500000000E-02 0. -1.
         -2   -1    0    0    0  501 -0.00000000000E+00 -0.00000000000E+00 -0.12555834267E+04  0.12555834267E+04  0.25500000000E-02 0.  1.
    8880023    1    1    2    0    0  0.82002646097E+03 -0.70411958401E+03  0.37192227759E+03  0.13192286277E+04  0.65864270000E+03 0.  0.
    8880022    1    1    2    0    0 -0.82002646097E+03  0.70411958401E+03 -0.40094376481E+03  0.11629167386E+04  0.15294330000E+03 0.  0.
<mgrwt>
<rscale>  0 0.12197463E+04</rscale>
<asrwt>0</asrwt>
<pdfrwt beam="1">  1        2 0.18870184E+00 0.12657164E+04</pdfrwt>
<pdfrwt beam="2">  1       -2 0.19316668E+00 0.12657164E+04</pdfrwt>
<totfact> 0.26011727E+00</totfact>
</mgrwt>
</event>
<event>
 4    2  0.3171963E-007  0.8183331E+03  0.7818608E-02  0.9672474E-01
         -2   -1    0    0    0  501 -0.00000000000E+00  0.00000000000E+00  0.19262211460E+03  0.19262211462E+03  0.25500000000E-02 0.  1.
          2   -1    0    0  501    0  0.00000000000E+00 -0.00000000000E+00 -0.30337470853E+04  0.30337470854E+04  0.25500000000E-02 0. -1.
    8880023    1    1    2    0    0  0.29748092650E+03  0.38388022489E+03 -0.24537048475E+04  0.25865685016E+04  0.65864270000E+03 0. -1.
    8880022    1    1    2    0    0 -0.29748092650E+03 -0.38388022489E+03 -0.38742012326E+03  0.63980069836E+03  0.15294330000E+03 0.  0.
<mgrwt>
<rscale>  0 0.72679608E+03</rscale>
<asrwt>0</asrwt>
<pdfrwt beam="1">  1        2 0.46673029E+00 0.81833314E+03</pdfrwt>
<pdfrwt beam="2">  1       -2 0.29634174E-01 0.81833314E+03</pdfrwt>
<totfact> 0.18246822E+01</totfact>
</mgrwt>
</event>
<event>
 4    2  0.3171963E-007  0.8050821E+03  0.7818608E-02  0.9699913E-01
          2   -1    0    0  501    0  0.00000000000E+00  0.00000000000E+00  0.15465855472E+04  0.15465855472E+04  0.25500000000E-02 0. -1.
         -2   -1    0    0    0  501 -0.00000000000E+00 -0.00000000000E+00 -0.54587690447E+03  0.54587690448E+03  0.25500000000E-02 0.  1.
    8880023    1    1    2    0    0 -0.21064059426E+03  0.41228335050E+03  0.12936034429E+04  0.15236689584E+04  0.65864270000E+03 0. -1.
    8880022    1    1    2    0    0  0.21064059426E+03 -0.41228335050E+03 -0.29289480015E+03  0.56879349330E+03  0.15294330000E+03 0.  0.
<mgrwt>
<rscale>  0 0.71021954E+03</rscale>
<asrwt>0</asrwt>
<pdfrwt beam="1">  1        2 0.23793624E+00 0.80508212E+03</pdfrwt>
<pdfrwt beam="2">  1       -2 0.83981063E-01 0.80508212E+03</pdfrwt>
<totfact> 0.15066555E+01</totfact>
</mgrwt>
</event>
<event>
 4    2  0.3171963E-007  0.7521294E+03  0.7818608E-02  0.9825927E-01
          2   -1    0    0  501    0  0.00000000000E+00  0.00000000000E+00  0.85253066590E+03  0.85253066590E+03  0.25500000000E-02 0. -1.
         -2   -1    0    0    0  501 -0.00000000000E+00 -0.00000000000E+00 -0.44931163768E+03  0.44931163769E+03  0.25500000000E-02 0.  1.
    8880023    1    1    2    0    0 -0.25643955694E+03  0.25715200562E+03  0.49089331325E+03  0.89815079559E+03  0.65864270000E+03 0.  0.
    8880022    1    1    2    0    0  0.25643955694E+03 -0.25715200562E+03 -0.87674285034E+02  0.40369150800E+03  0.15294330000E+03 0.  0.
<mgrwt>
<rscale>  0 0.63989523E+03</rscale>
<asrwt>0</asrwt>
<pdfrwt beam="1">  1        2 0.13115856E+00 0.75212938E+03</pdfrwt>
<pdfrwt beam="2">  1       -2 0.69124868E-01 0.75212938E+03</pdfrwt>
<totfact> 0.61219411E+01</totfact>
</mgrwt>
</event>
<event>
 4    2  0.3171963E-007  0.6597716E+03  0.7818608E-02  0.1024392E+00
         -2   -1    0    0    0  501 -0.00000000000E+00  0.00000000000E+00  0.35843336762E+03  0.35843336762E+03  0.25500000000E-02 0.  1.
          2   -1    0    0  501    0  0.00000000000E+00 -0.00000000000E+00 -0.62749638582E+03  0.62749638583E+03  0.25500000000E-02 0. -1.
    8880023    1    1    2    0    0 -0.65923900289E+01  0.38011364678E+02 -0.40799796688E+03  0.77573247366E+03  0.65864270000E+03 0. -1.
    8880022    1    1    2    0    0  0.65923900289E+01 -0.38011364678E+02  0.13893494868E+03  0.21019727979E+03  0.15294330000E+03 0.  0.
<mgrwt>
<rscale>  0 0.46134567E+03</rscale>
<asrwt>0</asrwt>
<pdfrwt beam="1">  1        2 0.96537905E-01 0.65977157E+03</pdfrwt>
<pdfrwt beam="2">  1       -2 0.55143595E-01 0.65977157E+03</pdfrwt>
<totfact> 0.14746218E+02</totfact>
</mgrwt>
</event>
<event>
 4    2  0.3171963E-007  0.7221392E+03  0.7818608E-02  0.9915413E-01
         -2   -1    0    0    0  501 -0.00000000000E+00  0.00000000000E+00  0.81830435731E+03  0.81830435732E+03  0.25500000000E-02 0.  1.
          2   -1    0    0  501    0  0.00000000000E+00 -0.00000000000E+00 -0.56786388233E+03  0.56786388233E+03  0.25500000000E-02 0. -1.
    8880023    1    1    2    0    0  0.18097118496E+02 -0.29554571163E+03 -0.26765131119E+03  0.77014427480E+03  0.65864270000E+03 0. -1.
    8880022    1    1    2    0    0 -0.18097118496E+02  0.29554571163E+03  0.51809178617E+03  0.61602396485E+03  0.15294330000E+03 0.  0.
<mgrwt>
<rscale>  0 0.59520083E+03</rscale>
<asrwt>0</asrwt>
<pdfrwt beam="1">  1        2 0.87363674E-01 0.72213917E+03</pdfrwt>
<pdfrwt beam="2">  1       -2 0.12589298E+00 0.72213917E+03</pdfrwt>
<totfact> 0.25340956E+01</totfact>
</mgrwt>
</event>
<event>
 4    2  0.3171963E-007  0.8987431E+03  0.7818608E-02  0.9528052E-01
         -2   -1    0    0    0  501 -0.00000000000E+00  0.00000000000E+00  0.64453854816E+03  0.64453854816E+03  0.25500000000E-02 0.  1.
          2   -1    0    0  501    0  0.00000000000E+00 -0.00000000000E+00 -0.25447428882E+04  0.25447428882E+04  0.25500000000E-02 0. -1.
    8880023    1    1    2    0    0  0.41796263600E+03  0.44635881832E+03 -0.22818154411E+04  0.24524316245E+04  0.65864270000E+03 0.  0.
    8880022    1    1    2    0    0 -0.41796263600E+03 -0.44635881832E+03  0.38161110100E+03  0.73684981183E+03  0.15294330000E+03 0.  0.
<mgrwt>
<rscale>  0 0.82246858E+03</rscale>
<asrwt>0</asrwt>
<pdfrwt beam="1">  1        2 0.39149890E+00 0.89874310E+03</pdfrwt>
<pdfrwt beam="2">  1       -2 0.99159778E-01 0.89874310E+03</pdfrwt>
<totfact> 0.28316106E+00</totfact>
</mgrwt>
</event>
<event>
 4    2  0.3171963E-007  0.9069517E+03  0.7818608E-02  0.9514963E-01
         -2   -1    0    0    0  501 -0.00000000000E+00  0.00000000000E+00  0.65508077951E+03  0.65508077952E+03  0.25500000000E-02 0.  1.
          2   -1    0    0  501    0  0.00000000000E+00 -0.00000000000E+00 -0.15716105026E+04  0.15716105026E+04  0.25500000000E-02 0. -1.
    8880023    1    1    2    0    0 -0.99227994855E+02  0.61555263230E+03 -0.12170762917E+04  0.15178393011E+04  0.65864270000E+03 0.  0.
    8880022    1    1    2    0    0  0.99227994855E+02 -0.61555263230E+03  0.30054656855E+03  0.70885198100E+03  0.15294330000E+03 0.  0.
<mgrwt>
<rscale>  0 0.83189614E+03</rscale>
<asrwt>0</asrwt>
<pdfrwt beam="1">  1        2 0.24178623E+00 0.90695173E+03</pdfrwt>
<pdfrwt beam="2">  1       -2 0.10078166E+00 0.90695173E+03</pdfrwt>
<totfact> 0.94365347E+00</totfact>
</mgrwt>
</event>
<event>
 4    2  0.3171963E-007  0.1329059E+04  0.7818608E-02  0.9040863E-01
         -2   -1    0    0    0  501 -0.00000000000E+00  0.00000000000E+00  0.85252246166E+03  0.85252246167E+03  0.25500000000E-02 0.  1.
          2   -1    0    0  501    0  0.00000000000E+00 -0.00000000000E+00 -0.25153535190E+04  0.25153535190E+04  0.25500000000E-02 0. -1.
    8880023    1    1    2    0    0 -0.66227064463E+03  0.94550769225E+03 -0.17530686375E+04  0.21999197842E+04  0.65864270000E+03 0.  0.
    8880022    1    1    2    0    0  0.66227064463E+03 -0.94550769225E+03  0.90237580232E+02  0.11679561964E+04  0.15294330000E+03 0.  0.
<mgrwt>
<rscale>  0 0.12858484E+04</rscale>
<asrwt>0</asrwt>
<pdfrwt beam="1">  1        2 0.38697746E+00 0.13290588E+04</pdfrwt>
<pdfrwt beam="2">  1       -2 0.13115730E+00 0.13290588E+04</pdfrwt>
<totfact> 0.13974132E+00</totfact>
</mgrwt>
</event>
<event>
 4    2  0.3171963E-007  0.7020299E+03  0.7818608E-02  0.9988882E-01
         -2   -1    0    0    0  501 -0.00000000000E+00  0.00000000000E+00  0.24326216851E+04  0.24326216851E+04  0.25500000000E-02 0.  1.
          2   -1    0    0  501    0  0.00000000000E+00 -0.00000000000E+00 -0.18997640960E+03  0.18997640962E+03  0.25500000000E-02 0. -1.
    8880023    1    1    2    0    0  0.19793850670E+03 -0.14091162052E+03  0.51351552450E+03  0.86979545722E+03  0.65864270000E+03 0. -1.
    8880022    1    1    2    0    0 -0.19793850670E+03  0.14091162052E+03  0.17291297510E+04  0.17528026375E+04  0.15294330000E+03 0.  0.
<mgrwt>
<rscale>  0 0.56140418E+03</rscale>
<asrwt>0</asrwt>
<pdfrwt beam="1">  1        2 0.29227141E-01 0.70202987E+03</pdfrwt>
<pdfrwt beam="2">  1       -2 0.37424948E+00 0.70202987E+03</pdfrwt>
<totfact> 0.21272180E+00</totfact>
</mgrwt>
</event>
<event>
 4    2  0.3171963E-007  0.8943033E+03  0.7818608E-02  0.9535239E-01
          2   -1    0    0  501    0  0.00000000000E+00  0.00000000000E+00  0.41956760178E+04  0.41956760178E+04  0.25500000000E-02 0. -1.
         -2   -1    0    0    0  501 -0.00000000000E+00 -0.00000000000E+00 -0.19366707278E+03  0.19366707280E+03  0.25500000000E-02 0.  1.
    8880023    1    1    2    0    0 -0.52330261381E+03 -0.30351689276E+03  0.34237172599E+04  0.35385898620E+04  0.65864270000E+03 0. -1.
    8880022    1    1    2    0    0  0.52330261381E+03  0.30351689276E+03  0.57829168516E+03  0.85075322859E+03  0.15294330000E+03 0.  0.
<mgrwt>
<rscale>  0 0.81734893E+03</rscale>
<asrwt>0</asrwt>
<pdfrwt beam="1">  1        2 0.64548866E+00 0.89430327E+03</pdfrwt>
<pdfrwt beam="2">  1       -2 0.29794932E-01 0.89430327E+03</pdfrwt>
<totfact> 0.26373026E+00</totfact>
</mgrwt>
</event>
<event>
 4    2  0.3171963E-007  0.6833617E+03  0.7818608E-02  0.1007483E+00
         -2   -1    0    0    0  501 -0.00000000000E+00  0.00000000000E+00  0.23593849636E+03  0.23593849637E+03  0.25500000000E-02 0.  1.
          2   -1    0    0  501    0  0.00000000000E+00 -0.00000000000E+00 -0.13296317722E+04  0.13296317722E+04  0.25500000000E-02 0. -1.
    8880023    1    1    2    0    0  0.17932514380E+03 -0.31866813752E+02 -0.11343510634E+04  0.13242868051E+04  0.65864270000E+03 0. -1.
    8880022    1    1    2    0    0 -0.17932514380E+03  0.31866813752E+02  0.40657787549E+02  0.24128346342E+03  0.15294330000E+03 0.  0.
<mgrwt>
<rscale>  0 0.52487528E+03</rscale>
<asrwt>0</asrwt>
<pdfrwt beam="1">  1        2 0.20455873E+00 0.68336170E+03</pdfrwt>
<pdfrwt beam="2">  1       -2 0.36298231E-01 0.68336170E+03</pdfrwt>
<totfact> 0.11591045E+02</totfact>
</mgrwt>
</event>
<event>
 4    2  0.3171963E-007  0.6959423E+03  0.7818608E-02  0.1001447E+00
          2   -1    0    0  501    0  0.00000000000E+00  0.00000000000E+00  0.16404655622E+04  0.16404655622E+04  0.25500000000E-02 0. -1.
         -2   -1    0    0    0  501 -0.00000000000E+00 -0.00000000000E+00 -0.15126658914E+03  0.15126658916E+03  0.25500000000E-02 0.  1.
    8880023    1    1    2    0    0 -0.15798887361E+03  0.15989070395E+03  0.12448856570E+04  0.14262103725E+04  0.65864270000E+03 0. -1.
    8880022    1    1    2    0    0  0.15798887361E+03 -0.15989070395E+03  0.24431331604E+03  0.36552177883E+03  0.15294330000E+03 0.  0.
<mgrwt>
<rscale>  0 0.55020320E+03</rscale>
<asrwt>0</asrwt>
<pdfrwt beam="1">  1        2 0.25237931E+00 0.69594233E+03</pdfrwt>
<pdfrwt beam="2">  1       -2 0.23271784E-01 0.69594233E+03</pdfrwt>
<totfact> 0.17646574E+02</totfact>
</mgrwt>
</event>
<event>
 4    2  0.3171963E-007  0.7171060E+03  0.7818608E-02  0.9932503E-01
          2   -1    0    0  501    0  0.00000000000E+00  0.00000000000E+00  0.14092218490E+04  0.14092218490E+04  0.25500000000E-02 0. -1.
         -2   -1    0    0    0  501 -0.00000000000E+00 -0.00000000000E+00 -0.23878529611E+03  0.23878529613E+03  0.25500000000E-02 0.  1.
    8880023    1    1    2    0    0 -0.22923117853E+03 -0.16698452312E+03  0.11079788835E+04  0.13197947480E+04  0.65864270000E+03 0. -1.
    8880022    1    1    2    0    0  0.22923117853E+03  0.16698452312E+03  0.62457669369E+02  0.32821239716E+03  0.15294330000E+03 0.  0.
<mgrwt>
<rscale>  0 0.58711597E+03</rscale>
<asrwt>0</asrwt>
<pdfrwt beam="1">  1        2 0.21680336E+00 0.71710597E+03</pdfrwt>
<pdfrwt beam="2">  1       -2 0.36736200E-01 0.71710597E+03</pdfrwt>
<totfact> 0.10178112E+02</totfact>
</mgrwt>
</event>
<event>
 4    2  0.3171963E-007  0.9147125E+03  0.7818608E-02  0.9502814E-01
         -2   -1    0    0    0  501 -0.00000000000E+00  0.00000000000E+00  0.40890521946E+03  0.40890521946E+03  0.25500000000E-02 0.  1.
          2   -1    0    0  501    0  0.00000000000E+00 -0.00000000000E+00 -0.15500385515E+04  0.15500385515E+04  0.25500000000E-02 0. -1.
    8880023    1    1    2    0    0  0.25592335219E+03  0.58085459066E+03 -0.83224424705E+03  0.12366606288E+04  0.65864270000E+03 0. -1.
    8880022    1    1    2    0    0 -0.25592335219E+03 -0.58085459066E+03 -0.30888908500E+03  0.72228314222E+03  0.15294330000E+03 0.  0.
<mgrwt>
<rscale>  0 0.84076651E+03</rscale>
<asrwt>0</asrwt>
<pdfrwt beam="1">  1        2 0.23846747E+00 0.91471254E+03</pdfrwt>
<pdfrwt beam="2">  1       -2 0.62908496E-01 0.91471254E+03</pdfrwt>
<totfact> 0.28040205E+01</totfact>
</mgrwt>
</event>
<event>
 4    2  0.3171963E-007  0.1483311E+04  0.7818608E-02  0.8921511E-01
         -2   -1    0    0    0  501 -0.00000000000E+00  0.00000000000E+00  0.18609196862E+04  0.18609196862E+04  0.25500000000E-02 0.  1.
          2   -1    0    0  501    0  0.00000000000E+00 -0.00000000000E+00 -0.12516847307E+04  0.12516847307E+04  0.25500000000E-02 0. -1.
    8880023    1    1    2    0    0  0.12757477441E+04  0.37265213257E+03 -0.27551153889E+03  0.15086811236E+04  0.65864270000E+03 0.  0.
    8880022    1    1    2    0    0 -0.12757477441E+04 -0.37265213257E+03  0.88474649444E+03  0.16039232933E+04  0.15294330000E+03 0.  0.
<mgrwt>
<rscale>  0 0.14455216E+04</rscale>
<asrwt>0</asrwt>
<pdfrwt beam="1">  1        2 0.19256688E+00 0.14833112E+04</pdfrwt>
<pdfrwt beam="2">  1       -2 0.28629533E+00 0.14833112E+04</pdfrwt>
<totfact> 0.64289856E-01</totfact>
</mgrwt>
</event>
<event>
 4    2  0.3171963E-007  0.6603530E+03  0.7818608E-02  0.1023798E+00
          2   -1    0    0  501    0  0.00000000000E+00  0.00000000000E+00  0.31861886105E+04  0.31861886105E+04  0.25500000000E-02 0. -1.
         -2   -1    0    0    0  501 -0.00000000000E+00 -0.00000000000E+00 -0.24333382666E+03  0.24333382667E+03  0.25500000000E-02 0.  1.
    8880023    1    1    2    0    0 -0.41056730762E+02  0.23878980865E+02  0.31209299124E+04  0.31900265806E+04  0.65864270000E+03 0. -1.
    8880022    1    1    2    0    0  0.41056730762E+02 -0.23878980865E+02 -0.17807512855E+03  0.23949585652E+03  0.15294330000E+03 0.  0.
<mgrwt>
<rscale>  0 0.46340719E+03</rscale>
<asrwt>0</asrwt>
<pdfrwt beam="1">  1        2 0.49018286E+00 0.66035299E+03</pdfrwt>
<pdfrwt beam="2">  1       -2 0.37435974E-01 0.66035299E+03</pdfrwt>
<totfact> 0.96977713E+00</totfact>
</mgrwt>
</event>
<event>
 4    2  0.3171963E-007  0.7878860E+03  0.7818608E-02  0.9737628E-01
         -2   -1    0    0    0  501 -0.00000000000E+00  0.00000000000E+00  0.46760653349E+03  0.46760653350E+03  0.25500000000E-02 0.  1.
          2   -1    0    0  501    0  0.00000000000E+00 -0.00000000000E+00 -0.91338815862E+03  0.91338815863E+03  0.25500000000E-02 0. -1.
    8880023    1    1    2    0    0  0.16645981325E+03  0.39905554387E+03 -0.47746073528E+03  0.92126714720E+03  0.65864270000E+03 0. -1.
    8880022    1    1    2    0    0 -0.16645981325E+03 -0.39905554387E+03  0.31679110149E+02  0.45972754492E+03  0.15294330000E+03 0.  0.
<mgrwt>
<rscale>  0 0.68819941E+03</rscale>
<asrwt>0</asrwt>
<pdfrwt beam="1">  1        2 0.14052126E+00 0.78788603E+03</pdfrwt>
<pdfrwt beam="2">  1       -2 0.71939466E-01 0.78788603E+03</pdfrwt>
<totfact> 0.50855776E+01</totfact>
</mgrwt>
</event>
<event>
 4    2  0.3171963E-007  0.8441047E+03  0.7818608E-02  0.9622488E-01
         -2   -1    0    0    0  501 -0.00000000000E+00  0.00000000000E+00  0.75922588952E+03  0.75922588952E+03  0.25500000000E-02 0.  1.
          2   -1    0    0  501    0  0.00000000000E+00 -0.00000000000E+00 -0.13095250357E+04  0.13095250357E+04  0.25500000000E-02 0. -1.
    8880023    1    1    2    0    0 -0.36926012291E+03  0.37729237342E+03 -0.10352518183E+04  0.13357616206E+04  0.65864270000E+03 0.  0.
    8880022    1    1    2    0    0  0.36926012291E+03 -0.37729237342E+03  0.48495267217E+03  0.73298930461E+03  0.15294330000E+03 0.  0.
<mgrwt>
<rscale>  0 0.75825459E+03</rscale>
<asrwt>0</asrwt>
<pdfrwt beam="1">  1        2 0.20146539E+00 0.84410472E+03</pdfrwt>
<pdfrwt beam="2">  1       -2 0.11680398E+00 0.84410472E+03</pdfrwt>
<totfact> 0.93543042E+00</totfact>
</mgrwt>
</event>
<event>
 4    2  0.3171963E-007  0.6668703E+03  0.7818608E-02  0.1018013E+00
          2   -1    0    0  501    0  0.00000000000E+00  0.00000000000E+00  0.14043909486E+04  0.14043909486E+04  0.25500000000E-02 0. -1.
         -2   -1    0    0    0  501 -0.00000000000E+00 -0.00000000000E+00 -0.72395066695E+03  0.72395066696E+03  0.25500000000E-02 0.  1.
    8880023    1    1    2    0    0 -0.47680318060E+02  0.92910825699E+02  0.13111543221E+04  0.14710002369E+04  0.65864270000E+03 0. -1.
    8880022    1    1    2    0    0  0.47680318060E+02 -0.92910825699E+02 -0.63071404046E+03  0.65734137867E+03  0.15294330000E+03 0.  0.
<mgrwt>
<rscale>  0 0.48410418E+03</rscale>
<asrwt>0</asrwt>
<pdfrwt beam="1">  1        2 0.21606014E+00 0.66687033E+03</pdfrwt>
<pdfrwt beam="2">  1       -2 0.11137703E+00 0.66687033E+03</pdfrwt>
<totfact> 0.94948181E+00</totfact>
</mgrwt>
</event>
<event>
 4    2  0.3171963E-007  0.1043213E+04  0.7818608E-02  0.9327086E-01
         -2   -1    0    0    0  501 -0.00000000000E+00  0.00000000000E+00  0.74061806993E+03  0.74061806994E+03  0.25500000000E-02 0.  1.
          2   -1    0    0  501    0  0.00000000000E+00 -0.00000000000E+00 -0.33229613249E+04  0.33229613249E+04  0.25500000000E-02 0. -1.
    8880023    1    1    2    0    0 -0.62406343110E+03  0.51480772225E+03 -0.29741301593E+04  0.31517840294E+04  0.65864270000E+03 0. -1.
    8880022    1    1    2    0    0  0.62406343110E+03 -0.51480772225E+03  0.39178690440E+03  0.91179536542E+03  0.15294330000E+03 0.  0.
<mgrwt>
<rscale>  0 0.98327093E+03</rscale>
<asrwt>0</asrwt>
<pdfrwt beam="1">  1        2 0.51122481E+00 0.10432125E+04</pdfrwt>
<pdfrwt beam="2">  1       -2 0.11394124E+00 0.10432125E+04</pdfrwt>
<totfact> 0.66098987E-01</totfact>
</mgrwt>
</event>
<event>
 4    2  0.3171963E-007  0.7274051E+03  0.7818608E-02  0.9898282E-01
         -2   -1    0    0    0  501 -0.00000000000E+00  0.00000000000E+00  0.26503956572E+03  0.26503956573E+03  0.25500000000E-02 0.  1.
          2   -1    0    0  501    0  0.00000000000E+00 -0.00000000000E+00 -0.24466638077E+04  0.24466638077E+04  0.25500000000E-02 0. -1.
    8880023    1    1    2    0    0 -0.27160875170E+02  0.30752275731E+03 -0.22463152552E+04  0.23611544615E+04  0.65864270000E+03 0. -1.
    8880022    1    1    2    0    0  0.27160875170E+02 -0.30752275731E+03  0.64691013213E+02  0.35054891187E+03  0.15294330000E+03 0.  0.
<mgrwt>
<rscale>  0 0.60344600E+03</rscale>
<asrwt>0</asrwt>
<pdfrwt beam="1">  1        2 0.37640980E+00 0.72740509E+03</pdfrwt>
<pdfrwt beam="2">  1       -2 0.40775320E-01 0.72740509E+03</pdfrwt>
<totfact> 0.22295197E+01</totfact>
</mgrwt>
</event>
<event>
 4    2  0.3171963E-007  0.6656305E+03  0.7818608E-02  0.1019010E+00
          2   -1    0    0  501    0  0.00000000000E+00  0.00000000000E+00  0.38274598968E+04  0.38274598968E+04  0.25500000000E-02 0. -1.
         -2   -1    0    0    0  501 -0.00000000000E+00 -0.00000000000E+00 -0.96188244144E+02  0.96188244178E+02  0.25500000000E-02 0.  1.
    8880023    1    1    2    0    0  0.14828546527E+02 -0.95046860462E+02  0.36744357463E+04  0.37342391530E+04  0.65864270000E+03 0.  0.
    8880022    1    1    2    0    0 -0.14828546527E+02  0.95046860462E+02  0.56835906340E+02  0.18940898801E+03  0.15294330000E+03 0.  0.
<mgrwt>
<rscale>  0 0.48045503E+03</rscale>
<asrwt>0</asrwt>
<pdfrwt beam="1">  1        2 0.58884000E+00 0.66563053E+03</pdfrwt>
<pdfrwt beam="2">  1       -2 0.14798191E-01 0.66563053E+03</pdfrwt>
<totfact> 0.18622625E+01</totfact>
</mgrwt>
</event>
<event>
 4    2  0.3171963E-007  0.1054549E+04  0.7818608E-02  0.9313433E-01
         -2   -1    0    0    0  501 -0.00000000000E+00  0.00000000000E+00  0.35717278902E+03  0.35717278902E+03  0.25500000000E-02 0.  1.
          2   -1    0    0  501    0  0.00000000000E+00 -0.00000000000E+00 -0.28962993174E+04  0.28962993174E+04  0.25500000000E-02 0. -1.
    8880023    1    1    2    0    0  0.96714571800E+02 -0.81786874401E+03 -0.80178265583E+03  0.13247371906E+04  0.65864270000E+03 0.  1.
    8880022    1    1    2    0    0 -0.96714571800E+02  0.81786874401E+03 -0.17373438726E+04  0.19287349158E+04  0.15294330000E+03 0. -1.
<mgrwt>
<rscale>  0 0.99555542E+03</rscale>
<asrwt>0</asrwt>
<pdfrwt beam="1">  1        2 0.44558449E+00 0.10545488E+04</pdfrwt>
<pdfrwt beam="2">  1       -2 0.54949662E-01 0.10545488E+04</pdfrwt>
<totfact> 0.63731045E+00</totfact>
</mgrwt>
</event>
<event>
 4    2  0.3171963E-007  0.6962361E+03  0.7818608E-02  0.1001319E+00
          2   -1    0    0  501    0  0.00000000000E+00  0.00000000000E+00  0.42935186614E+04  0.42935186614E+04  0.25500000000E-02 0. -1.
         -2   -1    0    0    0  501 -0.00000000000E+00 -0.00000000000E+00 -0.77548447372E+02  0.77548447414E+02  0.25500000000E-02 0.  1.
    8880023    1    1    2    0    0  0.21283666954E+03  0.75067373515E+02  0.38621086358E+04  0.39243633725E+04  0.65864270000E+03 0. -1.
    8880022    1    1    2    0    0 -0.21283666954E+03 -0.75067373515E+02  0.35386157821E+03  0.44670373629E+03  0.15294330000E+03 0.  0.
<mgrwt>
<rscale>  0 0.55075719E+03</rscale>
<asrwt>0</asrwt>
<pdfrwt beam="1">  1        2 0.66054148E+00 0.69623614E+03</pdfrwt>
<pdfrwt beam="2">  1       -2 0.11930528E-01 0.69623614E+03</pdfrwt>
<totfact> 0.11172281E+01</totfact>
</mgrwt>
</event>
<event>
 4    2  0.3171963E-007  0.9097810E+03  0.7818608E-02  0.9510509E-01
          2   -1    0    0  501    0  0.00000000000E+00  0.00000000000E+00  0.21522822588E+04  0.21522822588E+04  0.25500000000E-02 0. -1.
         -2   -1    0    0    0  501 -0.00000000000E+00 -0.00000000000E+00 -0.46717201480E+03  0.46717201481E+03  0.25500000000E-02 0.  1.
    8880023    1    1    2    0    0  0.30837257767E+03  0.54662389590E+03  0.17478379909E+04  0.19704413666E+04  0.65864270000E+03 0. -1.
    8880022    1    1    2    0    0 -0.30837257767E+03 -0.54662389590E+03 -0.62727746968E+02  0.64901290702E+03  0.15294330000E+03 0.  0.
<mgrwt>
<rscale>  0 0.83513463E+03</rscale>
<asrwt>0</asrwt>
<pdfrwt beam="1">  1        2 0.33112035E+00 0.90978104E+03</pdfrwt>
<pdfrwt beam="2">  1       -2 0.71872618E-01 0.90978104E+03</pdfrwt>
<totfact> 0.97907815E+00</totfact>
</mgrwt>
</event>
<event>
 4    2  0.3171963E-007  0.7604132E+03  0.7818608E-02  0.9804039E-01
         -2   -1    0    0    0  501 -0.00000000000E+00  0.00000000000E+00  0.27861308015E+03  0.27861308016E+03  0.25500000000E-02 0.  1.
          2   -1    0    0  501    0  0.00000000000E+00 -0.00000000000E+00 -0.22013465385E+04  0.22013465385E+04  0.25500000000E-02 0. -1.
    8880023    1    1    2    0    0 -0.14400598744E+03 -0.35168213980E+03 -0.19255984649E+04  0.20703037715E+04  0.65864270000E+03 0. -1.
    8880022    1    1    2    0    0  0.14400598744E+03  0.35168213980E+03  0.28650065303E+01  0.40965584721E+03  0.15294330000E+03 0.  0.
<mgrwt>
<rscale>  0 0.65146243E+03</rscale>
<asrwt>0</asrwt>
<pdfrwt beam="1">  1        2 0.33866869E+00 0.76041322E+03</pdfrwt>
<pdfrwt beam="2">  1       -2 0.42863552E-01 0.76041322E+03</pdfrwt>
<totfact> 0.27548508E+01</totfact>
</mgrwt>
</event>
<event>
 4    2  0.3171963E-007  0.7145532E+03  0.7818608E-02  0.9941466E-01
         -2   -1    0    0    0  501 -0.00000000000E+00  0.00000000000E+00  0.22759067215E+03  0.22759067217E+03  0.25500000000E-02 0.  1.
          2   -1    0    0  501    0  0.00000000000E+00 -0.00000000000E+00 -0.34044600178E+04  0.34044600178E+04  0.25500000000E-02 0. -1.
    8880023    1    1    2    0    0 -0.25406922365E+03  0.11056603701E+03 -0.32326486178E+04  0.33106801886E+04  0.65864270000E+03 0. -1.
    8880022    1    1    2    0    0  0.25406922365E+03 -0.11056603701E+03  0.55779272107E+02  0.32137050138E+03  0.15294330000E+03 0.  0.
<mgrwt>
<rscale>  0 0.58293061E+03</rscale>
<asrwt>0</asrwt>
<pdfrwt beam="1">  1        2 0.52376304E+00 0.71455316E+03</pdfrwt>
<pdfrwt beam="2">  1       -2 0.35013952E-01 0.71455316E+03</pdfrwt>
<totfact> 0.78655934E+00</totfact>
</mgrwt>
</event>
<event>
 4    2  0.3171963E-007  0.6665579E+03  0.7818608E-02  0.1018261E+00
         -2   -1    0    0    0  501 -0.00000000000E+00  0.00000000000E+00  0.16867362188E+03  0.16867362190E+03  0.25500000000E-02 0.  1.
          2   -1    0    0  501    0  0.00000000000E+00 -0.00000000000E+00 -0.11773270058E+04  0.11773270058E+04  0.25500000000E-02 0. -1.
    8880023    1    1    2    0    0 -0.98118767673E+02 -0.29357772607E+02 -0.93380440663E+03  0.11472968437E+04  0.65864270000E+03 0. -1.
    8880022    1    1    2    0    0  0.98118767673E+02  0.29357772607E+02 -0.74848977311E+02  0.19870378406E+03  0.15294330000E+03 0.  0.
<mgrwt>
<rscale>  0 0.48319523E+03</rscale>
<asrwt>0</asrwt>
<pdfrwt beam="1">  1        2 0.18112723E+00 0.66655786E+03</pdfrwt>
<pdfrwt beam="2">  1       -2 0.25949789E-01 0.66655786E+03</pdfrwt>
<totfact> 0.26573671E+02</totfact>
</mgrwt>
</event>
<event>
 4    2  0.3171963E-007  0.8020104E+03  0.7818608E-02  0.9706466E-01
          2   -1    0    0  501    0  0.00000000000E+00  0.00000000000E+00  0.64480945282E+03  0.64480945282E+03  0.25500000000E-02 0. -1.
         -2   -1    0    0    0  501 -0.00000000000E+00 -0.00000000000E+00 -0.12178559977E+04  0.12178559977E+04  0.25500000000E-02 0.  1.
    8880023    1    1    2    0    0 -0.45389646892E+03 -0.58210581177E+02  0.30721829580E+03  0.85883861336E+03  0.65864270000E+03 0.  0.
    8880022    1    1    2    0    0  0.45389646892E+03  0.58210581177E+02 -0.88026484069E+03  0.10038268372E+04  0.15294330000E+03 0. -1.
<mgrwt>
<rscale>  0 0.70633116E+03</rscale>
<asrwt>0</asrwt>
<pdfrwt beam="1">  1        2 0.99201455E-01 0.80201040E+03</pdfrwt>
<pdfrwt beam="2">  1       -2 0.18736246E+00 0.80201040E+03</pdfrwt>
<totfact> 0.74259039E+00</totfact>
</mgrwt>
</event>
<event>
 4    2  0.3171963E-007  0.6650925E+03  0.7818608E-02  0.1019456E+00
          2   -1    0    0  501    0  0.00000000000E+00  0.00000000000E+00  0.32979261047E+03  0.32979261048E+03  0.25500000000E-02 0. -1.
         -2   -1    0    0    0  501 -0.00000000000E+00 -0.00000000000E+00 -0.53983367743E+03  0.53983367744E+03  0.25500000000E-02 0.  1.
    8880023    1    1    2    0    0 -0.74490565778E+02  0.54671676142E+02 -0.16011047171E+03  0.68409312669E+03  0.65864270000E+03 0.  0.
    8880022    1    1    2    0    0  0.74490565778E+02 -0.54671676142E+02 -0.49930595247E+02  0.18553316124E+03  0.15294330000E+03 0. -1.
<mgrwt>
<rscale>  0 0.47883462E+03</rscale>
<asrwt>0</asrwt>
<pdfrwt beam="1">  1        2 0.50737325E-01 0.66509251E+03</pdfrwt>
<pdfrwt beam="2">  1       -2 0.83051335E-01 0.66509251E+03</pdfrwt>
<totfact> 0.12714488E+02</totfact>
</mgrwt>
</event>
<event>
 4    2  0.3171963E-007  0.7061329E+03  0.7818608E-02  0.9972651E-01
         -2   -1    0    0    0  501 -0.00000000000E+00  0.00000000000E+00  0.36448322214E+03  0.36448322215E+03  0.25500000000E-02 0.  1.
          2   -1    0    0  501    0  0.00000000000E+00 -0.00000000000E+00 -0.11278524169E+04  0.11278524169E+04  0.25500000000E-02 0. -1.
    8880023    1    1    2    0    0  0.18006622310E+03  0.17997116185E+03 -0.91746799671E+03  0.11577440110E+04  0.65864270000E+03 0. -1.
    8880022    1    1    2    0    0 -0.18006622310E+03 -0.17997116185E+03  0.15409880193E+03  0.33459162806E+03  0.15294330000E+03 0.  0.
<mgrwt>
<rscale>  0 0.56865853E+03</rscale>
<asrwt>0</asrwt>
<pdfrwt beam="1">  1        2 0.17351576E+00 0.70613290E+03</pdfrwt>
<pdfrwt beam="2">  1       -2 0.56074342E-01 0.70613290E+03</pdfrwt>
<totfact> 0.63803249E+01</totfact>
</mgrwt>
</event>
<event>
 4    2  0.3171963E-007  0.7257549E+03  0.7818608E-02  0.9903574E-01
          2   -1    0    0  501    0  0.00000000000E+00  0.00000000000E+00  0.12146771153E+04  0.12146771153E+04  0.25500000000E-02 0. -1.
         -2   -1    0    0    0  501 -0.00000000000E+00 -0.00000000000E+00 -0.70626424465E+03  0.70626424466E+03  0.25500000000E-02 0.  1.
    8880023    1    1    2    0    0 -0.22282267565E+03 -0.20799045062E+03  0.10527057666E+04  0.12786358393E+04  0.65864270000E+03 0. -1.
    8880022    1    1    2    0    0  0.22282267565E+03  0.20799045062E+03 -0.54429289591E+03  0.64230552067E+03  0.15294330000E+03 0.  0.
<mgrwt>
<rscale>  0 0.60088409E+03</rscale>
<asrwt>0</asrwt>
<pdfrwt beam="1">  1        2 0.18687340E+00 0.72575490E+03</pdfrwt>
<pdfrwt beam="2">  1       -2 0.10865604E+00 0.72575490E+03</pdfrwt>
<totfact> 0.12850651E+01</totfact>
</mgrwt>
</event>
<event>
 4    2  0.3171963E-007  0.7633429E+03  0.7818608E-02  0.9796529E-01
          2   -1    0    0  501    0  0.00000000000E+00  0.00000000000E+00  0.99861921628E+03  0.99861921628E+03  0.25500000000E-02 0. -1.
         -2   -1    0    0    0  501 -0.00000000000E+00 -0.00000000000E+00 -0.85525887395E+03  0.85525887396E+03  0.25500000000E-02 0.  1.
    8880023    1    1    2    0    0 -0.25994631790E+03 -0.28514911778E+03  0.78162064596E+03  0.10925306165E+04  0.65864270000E+03 0. -1.
    8880022    1    1    2    0    0  0.25994631790E+03  0.28514911778E+03 -0.63826030363E+03  0.76134747374E+03  0.15294330000E+03 0.  0.
<mgrwt>
<rscale>  0 0.65549159E+03</rscale>
<asrwt>0</asrwt>
<pdfrwt beam="1">  1        2 0.15363373E+00 0.76334285E+03</pdfrwt>
<pdfrwt beam="2">  1       -2 0.13157829E+00 0.76334285E+03</pdfrwt>
<totfact> 0.10799013E+01</totfact>
</mgrwt>
</event>
<event>
 4    2  0.3171963E-007  0.6826348E+03  0.7818608E-02  0.1007871E+00
          2   -1    0    0  501    0  0.00000000000E+00  0.00000000000E+00  0.13853121845E+04  0.13853121845E+04  0.25500000000E-02 0. -1.
         -2   -1    0    0    0  501 -0.00000000000E+00 -0.00000000000E+00 -0.16047361113E+03  0.16047361115E+03  0.25500000000E-02 0.  1.
    8880023    1    1    2    0    0  0.64201441334E+01  0.17927328185E+03  0.10495674884E+04  0.12520312483E+04  0.65864270000E+03 0.  1.
    8880022    1    1    2    0    0 -0.64201441334E+01 -0.17927328185E+03  0.17527108504E+03  0.29375454738E+03  0.15294330000E+03 0.  0.
<mgrwt>
<rscale>  0 0.52329686E+03</rscale>
<asrwt>0</asrwt>
<pdfrwt beam="1">  1        2 0.21312494E+00 0.68263485E+03</pdfrwt>
<pdfrwt beam="2">  1       -2 0.24688249E-01 0.68263485E+03</pdfrwt>
<totfact> 0.22020520E+02</totfact>
</mgrwt>
</event>
<event>
 4    2  0.3171963E-007  0.8336457E+03  0.7818608E-02  0.9642280E-01
          2   -1    0    0  501    0  0.00000000000E+00  0.00000000000E+00  0.23336925423E+04  0.23336925423E+04  0.25500000000E-02 0. -1.
         -2   -1    0    0    0  501 -0.00000000000E+00 -0.00000000000E+00 -0.49490941405E+03  0.49490941406E+03  0.25500000000E-02 0.  1.
    8880023    1    1    2    0    0 -0.48449419196E+03 -0.16254342839E+03  0.20817355520E+04  0.22424513602E+04  0.65864270000E+03 0. -1.
    8880022    1    1    2    0    0  0.48449419196E+03  0.16254342839E+03 -0.24295242375E+03  0.58615059616E+03  0.15294330000E+03 0.  0.
<mgrwt>
<rscale>  0 0.74559902E+03</rscale>
<asrwt>0</asrwt>
<pdfrwt beam="1">  1        2 0.35902963E+00 0.83364572E+03</pdfrwt>
<pdfrwt beam="2">  1       -2 0.76139909E-01 0.83364572E+03</pdfrwt>
<totfact> 0.69043770E+00</totfact>
</mgrwt>
</event>
<event>
 4    2  0.3171963E-007  0.8963385E+03  0.7818608E-02  0.9531935E-01
         -2   -1    0    0    0  501 -0.00000000000E+00  0.00000000000E+00  0.10864885562E+04  0.10864885562E+04  0.25500000000E-02 0.  1.
          2   -1    0    0  501    0  0.00000000000E+00 -0.00000000000E+00 -0.13136982685E+04  0.13136982685E+04  0.25500000000E-02 0. -1.
    8880023    1    1    2    0    0 -0.59500856991E+03 -0.12480907182E+03 -0.10404902599E+04  0.13733326945E+04  0.65864270000E+03 0.  0.
    8880022    1    1    2    0    0  0.59500856991E+03  0.12480907182E+03  0.81328054752E+03  0.10268541302E+04  0.15294330000E+03 0.  0.
<mgrwt>
<rscale>  0 0.81969763E+03</rscale>
<asrwt>0</asrwt>
<pdfrwt beam="1">  1        2 0.20210743E+00 0.89633850E+03</pdfrwt>
<pdfrwt beam="2">  1       -2 0.16715209E+00 0.89633850E+03</pdfrwt>
<totfact> 0.36398668E+00</totfact>
</mgrwt>
</event>
<event>
 4    2  0.3171963E-007  0.6906990E+03  0.7818608E-02  0.1003822E+00
          2   -1    0    0  501    0  0.00000000000E+00  0.00000000000E+00  0.20079297113E+04  0.20079297113E+04  0.25500000000E-02 0. -1.
         -2   -1    0    0    0  501 -0.00000000000E+00 -0.00000000000E+00 -0.56027492275E+03  0.56027492276E+03  0.25500000000E-02 0.  1.
    8880023    1    1    2    0    0  0.12930619867E+03 -0.16289512488E+03  0.19141977886E+04  0.20349983525E+04  0.65864270000E+03 0. -1.
    8880022    1    1    2    0    0 -0.12930619867E+03  0.16289512488E+03 -0.46654300006E+03  0.53320628151E+03  0.15294330000E+03 0.  0.
<mgrwt>
<rscale>  0 0.54005607E+03</rscale>
<asrwt>0</asrwt>
<pdfrwt beam="1">  1        2 0.30891226E+00 0.69069901E+03</pdfrwt>
<pdfrwt beam="2">  1       -2 0.86196142E-01 0.69069901E+03</pdfrwt>
<totfact> 0.80729281E+00</totfact>
</mgrwt>
</event>
<event>
 4    2  0.3171963E-007  0.6812973E+03  0.7818608E-02  0.1008599E+00
         -2   -1    0    0    0  501 -0.00000000000E+00  0.00000000000E+00  0.11575294886E+03  0.11575294889E+03  0.25500000000E-02 0.  1.
          2   -1    0    0  501    0  0.00000000000E+00 -0.00000000000E+00 -0.19550983505E+04  0.19550983505E+04  0.25500000000E-02 0. -1.
    8880023    1    1    2    0    0  0.29900044013E+01  0.17420338539E+03 -0.15929815442E+04  0.17325576949E+04  0.65864270000E+03 0. -1.
    8880022    1    1    2    0    0 -0.29900044013E+01 -0.17420338539E+03 -0.24636385749E+03  0.33829360458E+03  0.15294330000E+03 0.  0.
<mgrwt>
<rscale>  0 0.52035194E+03</rscale>
<asrwt>0</asrwt>
<pdfrwt beam="1">  1        2 0.30078434E+00 0.68129727E+03</pdfrwt>
<pdfrwt beam="2">  1       -2 0.17808147E-01 0.68129727E+03</pdfrwt>
<totfact> 0.19034976E+02</totfact>
</mgrwt>
</event>
<event>
 4    2  0.3171963E-007  0.7605423E+03  0.7818608E-02  0.9803705E-01
          2   -1    0    0  501    0  0.00000000000E+00  0.00000000000E+00  0.27537343100E+03  0.27537343101E+03  0.25500000000E-02 0. -1.
         -2   -1    0    0    0  501 -0.00000000000E+00 -0.00000000000E+00 -0.22329093888E+04  0.22329093888E+04  0.25500000000E-02 0.  1.
    8880023    1    1    2    0    0  0.89141118992E+02 -0.36968675832E+03 -0.32846943484E+03  0.82844240250E+03  0.65864270000E+03 0.  0.
    8880022    1    1    2    0    0 -0.89141118992E+02  0.36968675832E+03 -0.16290665230E+04  0.16798404174E+04  0.15294330000E+03 0.  0.
<mgrwt>
<rscale>  0 0.65164066E+03</rscale>
<asrwt>0</asrwt>
<pdfrwt beam="1">  1        2 0.42365145E-01 0.76054234E+03</pdfrwt>
<pdfrwt beam="2">  1       -2 0.34352451E+00 0.76054234E+03</pdfrwt>
<totfact> 0.21645899E+00</totfact>
</mgrwt>
</event>
<event>
 4    2  0.3171963E-007  0.9101999E+03  0.7818608E-02  0.9509852E-01
          2   -1    0    0  501    0  0.00000000000E+00  0.00000000000E+00  0.14693968871E+04  0.14693968871E+04  0.25500000000E-02 0. -1.
         -2   -1    0    0    0  501 -0.00000000000E+00 -0.00000000000E+00 -0.50229442023E+03  0.50229442024E+03  0.25500000000E-02 0.  1.
    8880023    1    1    2    0    0 -0.59471812009E+03 -0.20239562220E+03  0.96304948484E+03  0.13251143901E+04  0.65864270000E+03 0.  0.
    8880022    1    1    2    0    0  0.59471812009E+03  0.20239562220E+03  0.40529820194E+01  0.64657691726E+03  0.15294330000E+03 0.  0.
<mgrwt>
<rscale>  0 0.83561360E+03</rscale>
<asrwt>0</asrwt>
<pdfrwt beam="1">  1        2 0.22606106E+00 0.91019989E+03</pdfrwt>
<pdfrwt beam="2">  1       -2 0.77276066E-01 0.91019989E+03</pdfrwt>
<totfact> 0.19847471E+01</totfact>
</mgrwt>
</event>
<event>
 4    2  0.3171963E-007  0.7765479E+03  0.7818608E-02  0.9764009E-01
         -2   -1    0    0    0  501 -0.00000000000E+00  0.00000000000E+00  0.27409164900E+03  0.27409164901E+03  0.25500000000E-02 0.  1.
          2   -1    0    0  501    0  0.00000000000E+00 -0.00000000000E+00 -0.23691845464E+04  0.23691845464E+04  0.25500000000E-02 0. -1.
    8880023    1    1    2    0    0  0.41125246211E+03  0.93756927332E+01 -0.20617463023E+04  0.22031396943E+04  0.65864270000E+03 0. -1.
    8880022    1    1    2    0    0 -0.41125246211E+03 -0.93756927332E+01 -0.33346595103E+02  0.44013650113E+03  0.15294330000E+03 0.  0.
<mgrwt>
<rscale>  0 0.67330297E+03</rscale>
<asrwt>0</asrwt>
<pdfrwt beam="1">  1        2 0.36448992E+00 0.77654794E+03</pdfrwt>
<pdfrwt beam="2">  1       -2 0.42167948E-01 0.77654794E+03</pdfrwt>
<totfact> 0.22905763E+01</totfact>
</mgrwt>
</event>
<event>
 4    2  0.3171963E-007  0.6793154E+03  0.7818608E-02  0.1009714E+00
         -2   -1    0    0    0  501 -0.00000000000E+00  0.00000000000E+00  0.86211386707E+03  0.86211386707E+03  0.25500000000E-02 0.  1.
          2   -1    0    0  501    0  0.00000000000E+00 -0.00000000000E+00 -0.27149533529E+03  0.27149533530E+03  0.25500000000E-02 0. -1.
    8880023    1    1    2    0    0 -0.86486349876E+02  0.14205413318E+03  0.24794367679E+03  0.72314973456E+03  0.65864270000E+03 0. -1.
    8880022    1    1    2    0    0  0.86486349876E+02 -0.14205413318E+03  0.34267485498E+03  0.41045946782E+03  0.15294330000E+03 0.  1.
<mgrwt>
<rscale>  0 0.51588638E+03</rscale>
<asrwt>0</asrwt>
<pdfrwt beam="1">  1        2 0.41768514E-01 0.67931544E+03</pdfrwt>
<pdfrwt beam="2">  1       -2 0.13263290E+00 0.67931544E+03</pdfrwt>
<totfact> 0.51396783E+01</totfact>
</mgrwt>
</event>
<event>
 4    2  0.3171963E-007  0.7619446E+03  0.7818608E-02  0.9800099E-01
          2   -1    0    0  501    0  0.00000000000E+00  0.00000000000E+00  0.10992194995E+04  0.10992194995E+04  0.25500000000E-02 0. -1.
         -2   -1    0    0    0  501 -0.00000000000E+00 -0.00000000000E+00 -0.59656602692E+03  0.59656602692E+03  0.25500000000E-02 0.  1.
    8880023    1    1    2    0    0  0.37843108701E+03  0.59492364599E+02  0.86075402499E+03  0.11495464875E+04  0.65864270000E+03 0. -1.
    8880022    1    1    2    0    0 -0.37843108701E+03 -0.59492364599E+02 -0.35810055238E+03  0.54623903897E+03  0.15294330000E+03 0.  0.
<mgrwt>
<rscale>  0 0.65357241E+03</rscale>
<asrwt>0</asrwt>
<pdfrwt beam="1">  1        2 0.16911069E+00 0.76194464E+03</pdfrwt>
<pdfrwt beam="2">  1       -2 0.91779389E-01 0.76194464E+03</pdfrwt>
<totfact> 0.22388349E+01</totfact>
</mgrwt>
</event>
<event>
 4    2  0.3171963E-007  0.7243596E+03  0.7818608E-02  0.9908101E-01
         -2   -1    0    0    0  501 -0.00000000000E+00  0.00000000000E+00  0.11232912457E+04  0.11232912457E+04  0.25500000000E-02 0.  1.
          2   -1    0    0  501    0  0.00000000000E+00 -0.00000000000E+00 -0.55212656179E+03  0.55212656179E+03  0.25500000000E-02 0. -1.
    8880023    1    1    2    0    0  0.25078647046E+03 -0.16731042984E+03 -0.26672323994E+03  0.77190551668E+03  0.65864270000E+03 0. -1.
    8880022    1    1    2    0    0 -0.25078647046E+03  0.16731042984E+03  0.83788792385E+03  0.90351229081E+03  0.15294330000E+03 0.  0.
<mgrwt>
<rscale>  0 0.59870259E+03</rscale>
<asrwt>0</asrwt>
<pdfrwt beam="1">  1        2 0.84942547E-01 0.72435961E+03</pdfrwt>
<pdfrwt beam="2">  1       -2 0.17281404E+00 0.72435961E+03</pdfrwt>
<totfact> 0.11365823E+01</totfact>
</mgrwt>
</event>
<event>
 4    2  0.3171963E-007  0.6978954E+03  0.7818608E-02  0.1000605E+00
         -2   -1    0    0    0  501 -0.00000000000E+00  0.00000000000E+00  0.23678384224E+03  0.23678384226E+03  0.25500000000E-02 0.  1.
          2   -1    0    0  501    0  0.00000000000E+00 -0.00000000000E+00 -0.16676787164E+04  0.16676787164E+04  0.25500000000E-02 0. -1.
    8880023    1    1    2    0    0  0.19602196541E+03 -0.12175038215E+03 -0.14677107564E+04  0.16251870161E+04  0.65864270000E+03 0. -1.
    8880022    1    1    2    0    0 -0.19602196541E+03  0.12175038215E+03  0.36815882263E+02  0.27927554257E+03  0.15294330000E+03 0.  0.
<mgrwt>
<rscale>  0 0.55385907E+03</rscale>
<asrwt>0</asrwt>
<pdfrwt beam="1">  1        2 0.25656595E+00 0.69789539E+03</pdfrwt>
<pdfrwt beam="2">  1       -2 0.36428284E-01 0.69789539E+03</pdfrwt>
<totfact> 0.74530110E+01</totfact>
</mgrwt>
</event>
<event>
 4    2  0.3171963E-007  0.7219208E+03  0.7818608E-02  0.9916139E-01
         -2   -1    0    0    0  501 -0.00000000000E+00  0.00000000000E+00  0.23695411503E+03  0.23695411504E+03  0.25500000000E-02 0.  1.
          2   -1    0    0  501    0  0.00000000000E+00 -0.00000000000E+00 -0.19226800015E+04  0.19226800015E+04  0.25500000000E-02 0. -1.
    8880023    1    1    2    0    0 -0.18307329650E+03 -0.23204223979E+03 -0.16780512722E+04  0.18267527779E+04  0.65864270000E+03 0. -1.
    8880022    1    1    2    0    0  0.18307329650E+03  0.23204223979E+03 -0.76746142678E+01  0.33288133870E+03  0.15294330000E+03 0.  0.
<mgrwt>
<rscale>  0 0.59485438E+03</rscale>
<asrwt>0</asrwt>
<pdfrwt beam="1">  1        2 0.29579691E+00 0.72192080E+03</pdfrwt>
<pdfrwt beam="2">  1       -2 0.36454480E-01 0.72192080E+03</pdfrwt>
<totfact> 0.53899417E+01</totfact>
</mgrwt>
</event>
<event>
 4    2  0.3171963E-007  0.9953248E+03  0.7818608E-02  0.9387700E-01
         -2   -1    0    0    0  501 -0.00000000000E+00  0.00000000000E+00  0.64050869925E+03  0.64050869926E+03  0.25500000000E-02 0.  1.
          2   -1    0    0  501    0  0.00000000000E+00 -0.00000000000E+00 -0.26177834352E+04  0.26177834352E+04  0.25500000000E-02 0. -1.
    8880023    1    1    2    0    0  0.22657529569E+03  0.71100272557E+03 -0.22410777816E+04  0.24521625293E+04  0.65864270000E+03 0.  0.
    8880022    1    1    2    0    0 -0.22657529569E+03 -0.71100272557E+03  0.26380304571E+03  0.80612960516E+03  0.15294330000E+03 0.  0.
<mgrwt>
<rscale>  0 0.93094877E+03</rscale>
<asrwt>0</asrwt>
<pdfrwt beam="1">  1        2 0.40273591E+00 0.99532479E+03</pdfrwt>
<pdfrwt beam="2">  1       -2 0.98539801E-01 0.99532479E+03</pdfrwt>
<totfact> 0.25705793E+00</totfact>
</mgrwt>
</event>
<event>
 4    2  0.3171963E-007  0.7673826E+03  0.7818608E-02  0.9786357E-01
          2   -1    0    0  501    0  0.00000000000E+00  0.00000000000E+00  0.34467874067E+04  0.34467874067E+04  0.25500000000E-02 0. -1.
         -2   -1    0    0    0  501 -0.00000000000E+00 -0.00000000000E+00 -0.14032931452E+03  0.14032931454E+03  0.25500000000E-02 0.  1.
    8880023    1    1    2    0    0 -0.36505458336E+03 -0.14765142263E+03  0.29039033103E+04  0.30035862620E+04  0.65864270000E+03 0. -1.
    8880022    1    1    2    0    0  0.36505458336E+03  0.14765142263E+03  0.40255478186E+03  0.58353045923E+03  0.15294330000E+03 0.  0.
<mgrwt>
<rscale>  0 0.66099896E+03</rscale>
<asrwt>0</asrwt>
<pdfrwt beam="1">  1        2 0.53027495E+00 0.76738256E+03</pdfrwt>
<pdfrwt beam="2">  1       -2 0.21589127E-01 0.76738256E+03</pdfrwt>
<totfact> 0.17694851E+01</totfact>
</mgrwt>
</event>
<event>
 4    2  0.3171963E-007  0.1093377E+04  0.7818608E-02  0.9268466E-01
          2   -1    0    0  501    0  0.00000000000E+00  0.00000000000E+00  0.12085563079E+04  0.12085563079E+04  0.25500000000E-02 0. -1.
         -2   -1    0    0    0  501 -0.00000000000E+00 -0.00000000000E+00 -0.90976132852E+03  0.90976132852E+03  0.25500000000E-02 0.  1.
    8880023    1    1    2    0    0 -0.86560636861E+03  0.11130620021E+03  0.51150613243E+03  0.12071090197E+04  0.65864270000E+03 0.  0.
    8880022    1    1    2    0    0  0.86560636861E+03 -0.11130620021E+03 -0.21271115306E+03  0.91120861674E+03  0.15294330000E+03 0.  0.
<mgrwt>
<rscale>  0 0.10373851E+04</rscale>
<asrwt>0</asrwt>
<pdfrwt beam="1">  1        2 0.18593174E+00 0.10933772E+04</pdfrwt>
<pdfrwt beam="2">  1       -2 0.13996328E+00 0.10933772E+04</pdfrwt>
<totfact> 0.66126311E+00</totfact>
</mgrwt>
</event>
<event>
 4    2  0.3171963E-007  0.8861676E+03  0.7818608E-02  0.9548612E-01
         -2   -1    0    0    0  501 -0.00000000000E+00  0.00000000000E+00  0.79089716637E+03  0.79089716637E+03  0.25500000000E-02 0.  1.
          2   -1    0    0  501    0  0.00000000000E+00 -0.00000000000E+00 -0.11920651057E+04  0.11920651057E+04  0.25500000000E-02 0. -1.
    8880023    1    1    2    0    0  0.58821936576E+03  0.74032212854E+02 -0.84678437117E+03  0.12256984818E+04  0.65864270000E+03 0. -1.
    8880022    1    1    2    0    0 -0.58821936576E+03 -0.74032212854E+02  0.44561643180E+03  0.75726379030E+03  0.15294330000E+03 0.  0.
<mgrwt>
<rscale>  0 0.80792794E+03</rscale>
<asrwt>0</asrwt>
<pdfrwt beam="1">  1        2 0.18339463E+00 0.88616759E+03</pdfrwt>
<pdfrwt beam="2">  1       -2 0.12167649E+00 0.88616759E+03</pdfrwt>
<totfact> 0.98605329E+00</totfact>
</mgrwt>
</event>
<event>
 4    2  0.3171963E-007  0.7033681E+03  0.7818608E-02  0.9983506E-01
         -2   -1    0    0    0  501 -0.00000000000E+00  0.00000000000E+00  0.18591500594E+03  0.18591500596E+03  0.25500000000E-02 0.  1.
          2   -1    0    0  501    0  0.00000000000E+00 -0.00000000000E+00 -0.31328196541E+04  0.31328196541E+04  0.25500000000E-02 0. -1.
    8880023    1    1    2    0    0 -0.12744428080E+03 -0.21136327047E+03 -0.29455586643E+04  0.30283729175E+04  0.65864270000E+03 0. -1.
    8880022    1    1    2    0    0  0.12744428080E+03  0.21136327047E+03 -0.13459838621E+01  0.29036174249E+03  0.15294330000E+03 0.  0.
<mgrwt>
<rscale>  0 0.56379430E+03</rscale>
<asrwt>0</asrwt>
<pdfrwt beam="1">  1        2 0.48197222E+00 0.70336810E+03</pdfrwt>
<pdfrwt beam="2">  1       -2 0.28602311E-01 0.70336810E+03</pdfrwt>
<totfact> 0.17232885E+01</totfact>
</mgrwt>
</event>
<event>
 4    2  0.3171963E-007  0.6641290E+03  0.7818608E-02  0.1020276E+00
         -2   -1    0    0    0  501 -0.00000000000E+00  0.00000000000E+00  0.10156137083E+03  0.10156137086E+03  0.25500000000E-02 0.  1.
          2   -1    0    0  501    0  0.00000000000E+00 -0.00000000000E+00 -0.18341284963E+04  0.18341284963E+04  0.25500000000E-02 0. -1.
    8880023    1    1    2    0    0  0.83999489099E+02 -0.14182723107E+02 -0.15301963537E+04  0.16681031595E+04  0.65864270000E+03 0.  0.
    8880022    1    1    2    0    0 -0.83999489099E+02  0.14182723107E+02 -0.20237077177E+03  0.26758670761E+03  0.15294330000E+03 0.  0.
<mgrwt>
<rscale>  0 0.47587276E+03</rscale>
<asrwt>0</asrwt>
<pdfrwt beam="1">  1        2 0.28217359E+00 0.66412896E+03</pdfrwt>
<pdfrwt beam="2">  1       -2 0.15624828E-01 0.66412896E+03</pdfrwt>
<totfact> 0.27731589E+02</totfact>
</mgrwt>
</event>
<event>
 4    2  0.3171963E-007  0.6700571E+03  0.7818608E-02  0.1015622E+00
         -2   -1    0    0    0  501 -0.00000000000E+00  0.00000000000E+00  0.76670615532E+03  0.76670615533E+03  0.25500000000E-02 0.  1.
          2   -1    0    0  501    0  0.00000000000E+00 -0.00000000000E+00 -0.38668576560E+03  0.38668576561E+03  0.25500000000E-02 0. -1.
    8880023    1    1    2    0    0  0.65553038241E+02 -0.10425506317E+03 -0.58809027965E+02  0.67263290661E+03  0.65864270000E+03 0. -1.
    8880022    1    1    2    0    0 -0.65553038241E+02  0.10425506317E+03  0.43882941768E+03  0.48075901433E+03  0.15294330000E+03 0.  0.
<mgrwt>
<rscale>  0 0.49300138E+03</rscale>
<asrwt>0</asrwt>
<pdfrwt beam="1">  1        2 0.59490118E-01 0.67005711E+03</pdfrwt>
<pdfrwt beam="2">  1       -2 0.11795479E+00 0.67005711E+03</pdfrwt>
<totfact> 0.46539178E+01</totfact>
</mgrwt>
</event>
<event>
 4    2  0.3171963E-007  0.7692803E+03  0.7818608E-02  0.9781648E-01
         -2   -1    0    0    0  501 -0.00000000000E+00  0.00000000000E+00  0.43583519936E+03  0.43583519936E+03  0.25500000000E-02 0.  1.
          2   -1    0    0  501    0  0.00000000000E+00 -0.00000000000E+00 -0.19608685750E+04  0.19608685750E+04  0.25500000000E-02 0. -1.
    8880023    1    1    2    0    0 -0.39600789798E+03 -0.34055720964E+02 -0.17524819398E+04  0.19138926832E+04  0.65864270000E+03 0.  0.
    8880022    1    1    2    0    0  0.39600789798E+03  0.34055720964E+02  0.22744856413E+03  0.48281109114E+03  0.15294330000E+03 0.  0.
<mgrwt>
<rscale>  0 0.66356775E+03</rscale>
<asrwt>0</asrwt>
<pdfrwt beam="1">  1        2 0.30167208E+00 0.76928035E+03</pdfrwt>
<pdfrwt beam="2">  1       -2 0.67051570E-01 0.76928035E+03</pdfrwt>
<totfact> 0.14786053E+01</totfact>
</mgrwt>
</event>
<event>
 4    2  0.3171963E-007  0.6667464E+03  0.7818608E-02  0.1018111E+00
          2   -1    0    0  501    0  0.00000000000E+00  0.00000000000E+00  0.14752522930E+04  0.14752522930E+04  0.25500000000E-02 0. -1.
         -2   -1    0    0    0  501 -0.00000000000E+00 -0.00000000000E+00 -0.25743907847E+03  0.25743907849E+03  0.25500000000E-02 0.  1.
    8880023    1    1    2    0    0  0.75275791577E+02 -0.71232650029E+02  0.13498985368E+04  0.15055818812E+04  0.65864270000E+03 0. -1.
    8880022    1    1    2    0    0 -0.75275791577E+02  0.71232650029E+02 -0.13208532221E+03  0.22710949030E+03  0.15294330000E+03 0.  0.
<mgrwt>
<rscale>  0 0.48374448E+03</rscale>
<asrwt>0</asrwt>
<pdfrwt beam="1">  1        2 0.22696189E+00 0.66674638E+03</pdfrwt>
<pdfrwt beam="2">  1       -2 0.39606012E-01 0.66674638E+03</pdfrwt>
<totfact> 0.81240055E+01</totfact>
</mgrwt>
</event>
<event>
 4    2  0.3171963E-007  0.1196270E+04  0.7818608E-02  0.9160757E-01
         -2   -1    0    0    0  501 -0.00000000000E+00  0.00000000000E+00  0.60561291895E+03  0.60561291896E+03  0.25500000000E-02 0.  1.
          2   -1    0    0  501    0  0.00000000000E+00 -0.00000000000E+00 -0.31610954603E+04  0.31610954603E+04  0.25500000000E-02 0. -1.
    8880023    1    1    2    0    0 -0.71245338068E+02 -0.99608027419E+03 -0.21223139499E+03  0.12149502797E+04  0.65864270000E+03 0.  0.
    8880022    1    1    2    0    0  0.71245338068E+02  0.99608027419E+03 -0.23432511464E+04  0.25517580996E+04  0.15294330000E+03 0.  0.
<mgrwt>
<rscale>  0 0.11467828E+04</rscale>
<asrwt>0</asrwt>
<pdfrwt beam="1">  1        2 0.48632237E+00 0.11962700E+04</pdfrwt>
<pdfrwt beam="2">  1       -2 0.93171220E-01 0.11962700E+04</pdfrwt>
<totfact> 0.13337668E+00</totfact>
</mgrwt>
</event>
<event>
 4    2  0.3171963E-007  0.7521607E+03  0.7818608E-02  0.9825842E-01
          2   -1    0    0  501    0  0.00000000000E+00  0.00000000000E+00  0.96414994753E+03  0.96414994754E+03  0.25500000000E-02 0. -1.
         -2   -1    0    0    0  501 -0.00000000000E+00 -0.00000000000E+00 -0.34995416998E+03  0.34995416999E+03  0.25500000000E-02 0.  1.
    8880023    1    1    2    0    0 -0.19438698425E+03 -0.30683736648E+03  0.29884741827E+03  0.80935496217E+03  0.65864270000E+03 0.  0.
    8880022    1    1    2    0    0  0.19438698425E+03  0.30683736648E+03  0.31534835928E+03  0.50474915536E+03  0.15294330000E+03 0.  0.
<mgrwt>
<rscale>  0 0.63993944E+03</rscale>
<asrwt>0</asrwt>
<pdfrwt beam="1">  1        2 0.14833076E+00 0.75216067E+03</pdfrwt>
<pdfrwt beam="2">  1       -2 0.53839104E-01 0.75216067E+03</pdfrwt>
<totfact> 0.87538299E+01</totfact>
</mgrwt>
</event>
<event>
 4    2  0.3171963E-007  0.8545419E+03  0.7818608E-02  0.9603347E-01
          2   -1    0    0  501    0  0.00000000000E+00  0.00000000000E+00  0.62559829770E+03  0.62559829770E+03  0.25500000000E-02 0. -1.
         -2   -1    0    0    0  501 -0.00000000000E+00 -0.00000000000E+00 -0.85210101255E+03  0.85210101255E+03  0.25500000000E-02 0.  1.
    8880023    1    1    2    0    0 -0.45330381503E+03  0.30157463651E+03 -0.30374508375E+03  0.90691945192E+03  0.65864270000E+03 0.  0.
    8880022    1    1    2    0    0  0.45330381503E+03 -0.30157463651E+03  0.77242368899E+02  0.57077985833E+03  0.15294330000E+03 0.  0.
<mgrwt>
<rscale>  0 0.77075042E+03</rscale>
<asrwt>0</asrwt>
<pdfrwt beam="1">  1        2 0.96245892E-01 0.85454188E+03</pdfrwt>
<pdfrwt beam="2">  1       -2 0.13109246E+00 0.85454188E+03</pdfrwt>
<totfact> 0.20132199E+01</totfact>
</mgrwt>
</event>
<event>
 4    2  0.3171963E-007  0.6833906E+03  0.7818608E-02  0.1007467E+00
         -2   -1    0    0    0  501 -0.00000000000E+00  0.00000000000E+00  0.22702773675E+03  0.22702773677E+03  0.25500000000E-02 0.  1.
          2   -1    0    0  501    0  0.00000000000E+00 -0.00000000000E+00 -0.12742751130E+04  0.12742751130E+04  0.25500000000E-02 0. -1.
    8880023    1    1    2    0    0 -0.10870331452E+03  0.14627394678E+03 -0.10620546668E+04  0.12629262843E+04  0.65864270000E+03 0.  0.
    8880022    1    1    2    0    0  0.10870331452E+03 -0.14627394678E+03  0.14807290536E+02  0.23837656546E+03  0.15294330000E+03 0.  0.
<mgrwt>
<rscale>  0 0.52493769E+03</rscale>
<asrwt>0</asrwt>
<pdfrwt beam="1">  1        2 0.19604232E+00 0.68339058E+03</pdfrwt>
<pdfrwt beam="2">  1       -2 0.34927345E-01 0.68339058E+03</pdfrwt>
<totfact> 0.13422123E+02</totfact>
</mgrwt>
</event>
<event>
 4    2  0.3171963E-007  0.7732410E+03  0.7818608E-02  0.9771960E-01
          2   -1    0    0  501    0  0.00000000000E+00  0.00000000000E+00  0.57284239791E+03  0.57284239791E+03  0.25500000000E-02 0. -1.
         -2   -1    0    0    0  501 -0.00000000000E+00 -0.00000000000E+00 -0.78683545377E+03  0.78683545378E+03  0.25500000000E-02 0.  1.
    8880023    1    1    2    0    0 -0.40481299854E+03  0.14759209973E+02  0.15754938341E+03  0.78912826115E+03  0.65864270000E+03 0.  0.
    8880022    1    1    2    0    0  0.40481299854E+03 -0.14759209973E+02 -0.37154243927E+03  0.57054959054E+03  0.15294330000E+03 0.  0.
<mgrwt>
<rscale>  0 0.66889261E+03</rscale>
<asrwt>0</asrwt>
<pdfrwt beam="1">  1        2 0.88129600E-01 0.77324097E+03</pdfrwt>
<pdfrwt beam="2">  1       -2 0.12105161E+00 0.77324097E+03</pdfrwt>
<totfact> 0.27544687E+01</totfact>
</mgrwt>
</event>
<event>
 4    2  0.3171963E-007  0.9643992E+03  0.7818608E-02  0.9429693E-01
         -2   -1    0    0    0  501 -0.00000000000E+00  0.00000000000E+00  0.16105712203E+04  0.16105712203E+04  0.25500000000E-02 0.  1.
          2   -1    0    0  501    0  0.00000000000E+00 -0.00000000000E+00 -0.95269489384E+03  0.95269489385E+03  0.25500000000E-02 0. -1.
    8880023    1    1    2    0    0  0.65266059531E+03  0.26512210373E+03 -0.58392231896E+03  0.11274001346E+04  0.65864270000E+03 0.  0.
    8880022    1    1    2    0    0 -0.65266059531E+03 -0.26512210373E+03  0.12417986454E+04  0.14358659796E+04  0.15294330000E+03 0.  0.
<mgrwt>
<rscale>  0 0.89671865E+03</rscale>
<asrwt>0</asrwt>
<pdfrwt beam="1">  1        2 0.14656844E+00 0.96439919E+03</pdfrwt>
<pdfrwt beam="2">  1       -2 0.24778019E+00 0.96439919E+03</pdfrwt>
<totfact> 0.17952050E+00</totfact>
</mgrwt>
</event>
<event>
 4    2  0.3171963E-007  0.8052537E+03  0.7818608E-02  0.9699550E-01
         -2   -1    0    0    0  501 -0.00000000000E+00  0.00000000000E+00  0.25953572803E+03  0.25953572804E+03  0.25500000000E-02 0.  1.
          2   -1    0    0  501    0  0.00000000000E+00 -0.00000000000E+00 -0.18957834399E+04  0.18957834399E+04  0.25500000000E-02 0. -1.
    8880023    1    1    2    0    0 -0.34936994788E+03  0.30424317248E+03 -0.58168460391E+03  0.99337326981E+03  0.65864270000E+03 0.  0.
    8880022    1    1    2    0    0  0.34936994788E+03 -0.30424317248E+03 -0.10545631079E+04  0.11619458981E+04  0.15294330000E+03 0.  0.
<mgrwt>
<rscale>  0 0.71043616E+03</rscale>
<asrwt>0</asrwt>
<pdfrwt beam="1">  1        2 0.29165898E+00 0.80525367E+03</pdfrwt>
<pdfrwt beam="2">  1       -2 0.39928575E-01 0.80525367E+03</pdfrwt>
<totfact> 0.46306207E+01</totfact>
</mgrwt>
</event>
<event>
 4    2  0.3171963E-007  0.1183975E+04  0.7818608E-02  0.9172859E-01
          2   -1    0    0  501    0  0.00000000000E+00  0.00000000000E+00  0.20713045303E+04  0.20713045303E+04  0.25500000000E-02 0. -1.
         -2   -1    0    0    0  501 -0.00000000000E+00 -0.00000000000E+00 -0.73010870573E+03  0.73010870573E+03  0.25500000000E-02 0.  1.
    8880023    1    1    2    0    0 -0.85156459890E+03  0.49277187536E+03  0.13630876926E+04  0.18054929109E+04  0.65864270000E+03 0.  0.
    8880022    1    1    2    0    0  0.85156459890E+03 -0.49277187536E+03 -0.21891867979E+02  0.99592032520E+03  0.15294330000E+03 0.  0.
<mgrwt>
<rscale>  0 0.11338009E+04</rscale>
<asrwt>0</asrwt>
<pdfrwt beam="1">  1        2 0.31866224E+00 0.11839749E+04</pdfrwt>
<pdfrwt beam="2">  1       -2 0.11232442E+00 0.11839749E+04</pdfrwt>
<totfact> 0.37289785E+00</totfact>
</mgrwt>
</event>
<event>
 4    2  0.3171963E-007  0.8225085E+03  0.7818608E-02  0.9664088E-01
          2   -1    0    0  501    0  0.00000000000E+00  0.00000000000E+00  0.85709360703E+03  0.85709360704E+03  0.25500000000E-02 0. -1.
         -2   -1    0    0    0  501 -0.00000000000E+00 -0.00000000000E+00 -0.62106429870E+03  0.62106429871E+03  0.25500000000E-02 0.  1.
    8880023    1    1    2    0    0  0.35952816707E+03  0.33682264655E+03  0.42866891110E+03  0.92751131516E+03  0.65864270000E+03 0. -1.
    8880022    1    1    2    0    0 -0.35952816707E+03 -0.33682264655E+03 -0.19263960277E+03  0.55064659058E+03  0.15294330000E+03 0.  0.
<mgrwt>
<rscale>  0 0.73195812E+03</rscale>
<asrwt>0</asrwt>
<pdfrwt beam="1">  1        2 0.13186055E+00 0.82250848E+03</pdfrwt>
<pdfrwt beam="2">  1       -2 0.95548354E-01 0.82250848E+03</pdfrwt>
<totfact> 0.29092971E+01</totfact>
</mgrwt>
</event>
<event>
 4    2  0.3171963E-007  0.6694200E+03  0.7818608E-02  0.1016082E+00
          2   -1    0    0  501    0  0.00000000000E+00  0.00000000000E+00  0.14993276007E+04  0.14993276007E+04  0.25500000000E-02 0. -1.
         -2   -1    0    0    0  501 -0.00000000000E+00 -0.00000000000E+00 -0.30960363828E+03  0.30960363829E+03  0.25500000000E-02 0.  1.
    8880023    1    1    2    0    0 -0.79431421914E+02 -0.89462849819E+02  0.13820443577E+04  0.15356333433E+04  0.65864270000E+03 0. -1.
    8880022    1    1    2    0    0  0.79431421914E+02  0.89462849819E+02 -0.19232039531E+03  0.27329789562E+03  0.15294330000E+03 0.  0.
<mgrwt>
<rscale>  0 0.49127348E+03</rscale>
<asrwt>0</asrwt>
<pdfrwt beam="1">  1        2 0.23066578E+00 0.66942002E+03</pdfrwt>
<pdfrwt beam="2">  1       -2 0.47631329E-01 0.66942002E+03</pdfrwt>
<totfact> 0.54678779E+01</totfact>
</mgrwt>
</event>
<event>
 4    2  0.1069973E-006  0.7281018E+03  0.7818608E-02  0.9896069E-01
          2   -1    0    0  501    0  0.00000000000E+00  0.00000000000E+00  0.30184777095E+04  0.30184777095E+04  0.25500000000E-02 0. -1.
         -2   -1    0    0    0  501 -0.00000000000E+00 -0.00000000000E+00 -0.15002314911E+04  0.15002314911E+04  0.25500000000E-02 0.  1.
    8880023    1    1    2    0    0  0.59723780409E+02 -0.30455723641E+03  0.29537145041E+04  0.30421310981E+04  0.65864270000E+03 0.  0.
    8880022    1    1    2    0    0 -0.59723780409E+02  0.30455723641E+03 -0.14354682857E+04  0.14765781024E+04  0.15294330000E+03 0.  1.
<mgrwt>
<rscale>  0 0.60452193E+03</rscale>
<asrwt>0</asrwt>
<pdfrwt beam="1">  1        2 0.46438118E+00 0.72810181E+03</pdfrwt>
<pdfrwt beam="2">  1       -2 0.23080485E+00 0.72810181E+03</pdfrwt>
<totfact> 0.15603828E-01</totfact>
</mgrwt>
</event>
<event>
 4    2  0.3171963E-007  0.7181332E+03  0.7818608E-02  0.9928954E-01
         -2   -1    0    0    0  501 -0.00000000000E+00  0.00000000000E+00  0.99913368943E+03  0.99913368943E+03  0.25500000000E-02 0.  1.
          2   -1    0    0  501    0  0.00000000000E+00 -0.00000000000E+00 -0.48118924335E+03  0.48118924335E+03  0.25500000000E-02 0. -1.
    8880023    1    1    2    0    0 -0.68475314926E+02 -0.27787812465E+03 -0.15370144773E+03  0.73439734627E+03  0.65864270000E+03 0. -1.
    8880022    1    1    2    0    0  0.68475314926E+02  0.27787812465E+03  0.67164589382E+03  0.74592558651E+03  0.15294330000E+03 0.  0.
<mgrwt>
<rscale>  0 0.58878352E+03</rscale>
<asrwt>0</asrwt>
<pdfrwt beam="1">  1        2 0.74029116E-01 0.71813322E+03</pdfrwt>
<pdfrwt beam="2">  1       -2 0.15371287E+00 0.71813322E+03</pdfrwt>
<totfact> 0.18376156E+01</totfact>
</mgrwt>
</event>
<event>
 4    2  0.3171963E-007  0.6776933E+03  0.7818608E-02  0.1010660E+00
         -2   -1    0    0    0  501 -0.00000000000E+00  0.00000000000E+00  0.11644143710E+03  0.11644143713E+03  0.25500000000E-02 0.  1.
          2   -1    0    0  501    0  0.00000000000E+00 -0.00000000000E+00 -0.26605628455E+04  0.26605628456E+04  0.25500000000E-02 0. -1.
    8880023    1    1    2    0    0 -0.15648030126E+03  0.31175018735E+02 -0.24405998691E+04  0.25329421418E+04  0.65864270000E+03 0. -1.
    8880022    1    1    2    0    0  0.15648030126E+03 -0.31175018735E+02 -0.10352153933E+03  0.24406214085E+03  0.15294330000E+03 0.  0.
<mgrwt>
<rscale>  0 0.51213273E+03</rscale>
<asrwt>0</asrwt>
<pdfrwt beam="1">  1        2 0.40931731E+00 0.67769327E+03</pdfrwt>
<pdfrwt beam="2">  1       -2 0.17914069E-01 0.67769327E+03</pdfrwt>
<totfact> 0.76372720E+01</totfact>
</mgrwt>
</event>
<event>
 4    2  0.3171963E-007  0.8403220E+03  0.7818608E-02  0.9629573E-01
         -2   -1    0    0    0  501 -0.00000000000E+00  0.00000000000E+00  0.34448260574E+03  0.34448260575E+03  0.25500000000E-02 0.  1.
          2   -1    0    0  501    0  0.00000000000E+00 -0.00000000000E+00 -0.18646287927E+04  0.18646287927E+04  0.25500000000E-02 0. -1.
    8880023    1    1    2    0    0 -0.48684831088E+03  0.18790826262E+03 -0.33403103693E+03  0.90427746453E+03  0.65864270000E+03 0.  0.
    8880022    1    1    2    0    0  0.48684831088E+03 -0.18790826262E+03 -0.11861151500E+04  0.13048339339E+04  0.15294330000E+03 0.  0.
<mgrwt>
<rscale>  0 0.75369359E+03</rscale>
<asrwt>0</asrwt>
<pdfrwt beam="1">  1        2 0.28686596E+00 0.84032196E+03</pdfrwt>
<pdfrwt beam="2">  1       -2 0.52997325E-01 0.84032196E+03</pdfrwt>
<totfact> 0.27182072E+01</totfact>
</mgrwt>
</event>
<event>
 4    2  0.3171963E-007  0.8877683E+03  0.7818608E-02  0.9545960E-01
          2   -1    0    0  501    0  0.00000000000E+00  0.00000000000E+00  0.26264890942E+04  0.26264890942E+04  0.25500000000E-02 0. -1.
         -2   -1    0    0    0  501 -0.00000000000E+00 -0.00000000000E+00 -0.32039366321E+03  0.32039366322E+03  0.25500000000E-02 0.  1.
    8880023    1    1    2    0    0  0.12597477095E+02  0.59511657221E+03  0.21299452116E+04  0.23075526520E+04  0.65864270000E+03 0.  0.
    8880022    1    1    2    0    0 -0.12597477095E+02 -0.59511657221E+03  0.17615021941E+03  0.63933010547E+03  0.15294330000E+03 0.  0.
<mgrwt>
<rscale>  0 0.80978577E+03</rscale>
<asrwt>0</asrwt>
<pdfrwt beam="1">  1        2 0.40407523E+00 0.88776835E+03</pdfrwt>
<pdfrwt beam="2">  1       -2 0.49291335E-01 0.88776835E+03</pdfrwt>
<totfact> 0.11777544E+01</totfact>
</mgrwt>
</event>
<event>
 4    2  0.3171963E-007  0.9595448E+03  0.7818608E-02  0.9436512E-01
         -2   -1    0    0    0  501 -0.00000000000E+00  0.00000000000E+00  0.27276077070E+03  0.27276077071E+03  0.25500000000E-02 0.  1.
          2   -1    0    0  501    0  0.00000000000E+00 -0.00000000000E+00 -0.36567830533E+04  0.36567830533E+04  0.25500000000E-02 0. -1.
    8880023    1    1    2    0    0 -0.66829543953E+03  0.20074160215E+03 -0.29299859738E+04  0.30831062255E+04  0.65864270000E+03 0. -1.
    8880022    1    1    2    0    0  0.66829543953E+03 -0.20074160215E+03 -0.45403630884E+03  0.84643759846E+03  0.15294330000E+03 0.  0.
<mgrwt>
<rscale>  0 0.89130829E+03</rscale>
<asrwt>0</asrwt>
<pdfrwt beam="1">  1        2 0.56258197E+00 0.95954478E+03</pdfrwt>
<pdfrwt beam="2">  1       -2 0.41963198E-01 0.95954478E+03</pdfrwt>
<totfact> 0.35457859E+00</totfact>
</mgrwt>
</event>
<event>
 4    2  0.3171963E-007  0.1359526E+04  0.7818608E-02  0.9015788E-01
         -2   -1    0    0    0  501 -0.00000000000E+00  0.00000000000E+00  0.19282178279E+04  0.19282178279E+04  0.25500000000E-02 0.  1.
          2   -1    0    0  501    0  0.00000000000E+00 -0.00000000000E+00 -0.13676569628E+04  0.13676569628E+04  0.25500000000E-02 0. -1.
    8880023    1    1    2    0    0  0.71605368070E+03  0.94961431205E+03 -0.72260032161E+03  0.15396303603E+04  0.65864270000E+03 0.  0.
    8880022    1    1    2    0    0 -0.71605368070E+03 -0.94961431205E+03  0.12831611867E+04  0.17562444304E+04  0.15294330000E+03 0.  0.
<mgrwt>
<rscale>  0 0.13175174E+04</rscale>
<asrwt>0</asrwt>
<pdfrwt beam="1">  1        2 0.21040876E+00 0.13595258E+04</pdfrwt>
<pdfrwt beam="2">  1       -2 0.29664890E+00 0.13595258E+04</pdfrwt>
<totfact> 0.48149403E-01</totfact>
</mgrwt>
</event>
<event>
 4    2  0.3171963E-007  0.6685244E+03  0.7818608E-02  0.1016743E+00
         -2   -1    0    0    0  501 -0.00000000000E+00  0.00000000000E+00  0.10484725187E+03  0.10484725190E+03  0.25500000000E-02 0.  1.
          2   -1    0    0  501    0  0.00000000000E+00 -0.00000000000E+00 -0.26537784677E+04  0.26537784677E+04  0.25500000000E-02 0. -1.
    8880023    1    1    2    0    0 -0.92547112927E+02  0.67451675446E+02 -0.24575031685E+04  0.25468110896E+04  0.65864270000E+03 0. -1.
    8880022    1    1    2    0    0  0.92547112927E+02 -0.67451675446E+02 -0.91428047340E+02  0.21181463001E+03  0.15294330000E+03 0.  0.
<mgrwt>
<rscale>  0 0.48880316E+03</rscale>
<asrwt>0</asrwt>
<pdfrwt beam="1">  1        2 0.40827356E+00 0.66852442E+03</pdfrwt>
<pdfrwt beam="2">  1       -2 0.16130348E-01 0.66852442E+03</pdfrwt>
<totfact> 0.92340849E+01</totfact>
</mgrwt>
</event>
<event>
 4    2  0.3171963E-007  0.1008217E+04  0.7818608E-02  0.9370885E-01
         -2   -1    0    0    0  501 -0.00000000000E+00  0.00000000000E+00  0.29567059538E+03  0.29567059539E+03  0.25500000000E-02 0.  1.
          2   -1    0    0  501    0  0.00000000000E+00 -0.00000000000E+00 -0.36931752160E+04  0.36931752160E+04  0.25500000000E-02 0. -1.
    8880023    1    1    2    0    0 -0.75697594411E+03  0.98381368381E+02 -0.28867342265E+04  0.30577338299E+04  0.65864270000E+03 0. -1.
    8880022    1    1    2    0    0  0.75697594411E+03 -0.98381368381E+02 -0.51077039412E+03  0.93111198152E+03  0.15294330000E+03 0.  0.
<mgrwt>
<rscale>  0 0.94510935E+03</rscale>
<asrwt>0</asrwt>
<pdfrwt beam="1">  1        2 0.56818077E+00 0.10082171E+04</pdfrwt>
<pdfrwt beam="2">  1       -2 0.45487787E-01 0.10082171E+04</pdfrwt>
<totfact> 0.28203544E+00</totfact>
</mgrwt>
</event>
<event>
 4    2  0.3171963E-007  0.8581676E+03  0.7818608E-02  0.9596831E-01
         -2   -1    0    0    0  501 -0.00000000000E+00  0.00000000000E+00  0.47393536733E+03  0.47393536734E+03  0.25500000000E-02 0.  1.
          2   -1    0    0  501    0  0.00000000000E+00 -0.00000000000E+00 -0.19174658465E+04  0.19174658465E+04  0.25500000000E-02 0. -1.
    8880023    1    1    2    0    0 -0.54354872204E+03 -0.84830635578E+02 -0.15856562429E+04  0.18029856841E+04  0.65864270000E+03 0. -1.
    8880022    1    1    2    0    0  0.54354872204E+03  0.84830635578E+02  0.14212576374E+03  0.58841552979E+03  0.15294330000E+03 0.  0.
<mgrwt>
<rscale>  0 0.77506264E+03</rscale>
<asrwt>0</asrwt>
<pdfrwt beam="1">  1        2 0.29499474E+00 0.85816762E+03</pdfrwt>
<pdfrwt beam="2">  1       -2 0.72913134E-01 0.85816762E+03</pdfrwt>
<totfact> 0.12851038E+01</totfact>
</mgrwt>
</event>
<event>
 4    2  0.3171963E-007  0.9397970E+03  0.7818608E-02  0.9464948E-01
         -2   -1    0    0    0  501 -0.00000000000E+00  0.00000000000E+00  0.32244645452E+03  0.32244645453E+03  0.25500000000E-02 0.  1.
          2   -1    0    0  501    0  0.00000000000E+00 -0.00000000000E+00 -0.27987502535E+04  0.27987502535E+04  0.25500000000E-02 0. -1.
    8880023    1    1    2    0    0  0.43597950748E+03  0.50924462999E+03 -0.58068821605E+03  0.11047249588E+04  0.65864270000E+03 0.  0.
    8880022    1    1    2    0    0 -0.43597950748E+03 -0.50924462999E+03 -0.18956155830E+04  0.20164717493E+04  0.15294330000E+03 0.  0.
<mgrwt>
<rscale>  0 0.86918098E+03</rscale>
<asrwt>0</asrwt>
<pdfrwt beam="1">  1        2 0.43057695E+00 0.93979702E+03</pdfrwt>
<pdfrwt beam="2">  1       -2 0.49607149E-01 0.93979702E+03</pdfrwt>
<totfact> 0.91457795E+00</totfact>
</mgrwt>
</event>
<event>
 4    2  0.3171963E-007  0.1188936E+04  0.7818608E-02  0.9167953E-01
          2   -1    0    0  501    0  0.00000000000E+00  0.00000000000E+00  0.30387527462E+04  0.30387527462E+04  0.25500000000E-02 0. -1.
         -2   -1    0    0    0  501 -0.00000000000E+00 -0.00000000000E+00 -0.42462311940E+03  0.42462311940E+03  0.25500000000E-02 0.  1.
    8880023    1    1    2    0    0 -0.95046395837E+03  0.27636340308E+03  0.95334273612E+03  0.15239524420E+04  0.65864270000E+03 0.  0.
    8880022    1    1    2    0    0  0.95046395837E+03 -0.27636340308E+03  0.16607868907E+04  0.19394234236E+04  0.15294330000E+03 0.  0.
<mgrwt>
<rscale>  0 0.11390416E+04</rscale>
<asrwt>0</asrwt>
<pdfrwt beam="1">  1        2 0.46750044E+00 0.11889359E+04</pdfrwt>
<pdfrwt beam="2">  1       -2 0.65326631E-01 0.11889359E+04</pdfrwt>
<totfact> 0.35470394E+00</totfact>
</mgrwt>
</event>
<event>
 4    2  0.3171963E-007  0.7891337E+03  0.7818608E-02  0.9734803E-01
         -2   -1    0    0    0  501 -0.00000000000E+00  0.00000000000E+00  0.37333400015E+03  0.37333400016E+03  0.25500000000E-02 0.  1.
          2   -1    0    0  501    0  0.00000000000E+00 -0.00000000000E+00 -0.25731150762E+04  0.25731150762E+04  0.25500000000E-02 0. -1.
    8880023    1    1    2    0    0 -0.42968054659E+03 -0.65546798230E+02 -0.23362198169E+04  0.24658984152E+04  0.65864270000E+03 0. -1.
    8880022    1    1    2    0    0  0.42968054659E+03  0.65546798230E+02  0.13643874089E+03  0.48055066113E+03  0.15294330000E+03 0.  0.
<mgrwt>
<rscale>  0 0.68981893E+03</rscale>
<asrwt>0</asrwt>
<pdfrwt beam="1">  1        2 0.39586385E+00 0.78913368E+03</pdfrwt>
<pdfrwt beam="2">  1       -2 0.57436002E-01 0.78913368E+03</pdfrwt>
<totfact> 0.93561751E+00</totfact>
</mgrwt>
</event>
<event>
 4    2  0.3171963E-007  0.8394904E+03  0.7818608E-02  0.9631142E-01
          2   -1    0    0  501    0  0.00000000000E+00  0.00000000000E+00  0.16866362397E+04  0.16866362397E+04  0.25500000000E-02 0. -1.
         -2   -1    0    0    0  501 -0.00000000000E+00 -0.00000000000E+00 -0.38522373904E+03  0.38522373904E+03  0.25500000000E-02 0.  1.
    8880023    1    1    2    0    0 -0.49772457386E+03 -0.15232900003E+03  0.12777174202E+04  0.15288250024E+04  0.65864270000E+03 0. -1.
    8880022    1    1    2    0    0  0.49772457386E+03  0.15232900003E+03  0.23695080406E+02  0.54303497634E+03  0.15294330000E+03 0.  1.
<mgrwt>
<rscale>  0 0.75268850E+03</rscale>
<asrwt>0</asrwt>
<pdfrwt beam="1">  1        2 0.25948250E+00 0.83949037E+03</pdfrwt>
<pdfrwt beam="2">  1       -2 0.59265191E-01 0.83949037E+03</pdfrwt>
<totfact> 0.26950808E+01</totfact>
</mgrwt>
</event>
<event>
 4    2  0.3171963E-007  0.8352495E+03  0.7818608E-02  0.9639204E-01
         -2   -1    0    0    0  501 -0.00000000000E+00  0.00000000000E+00  0.12948741798E+04  0.12948741798E+04  0.25500000000E-02 0.  1.
          2   -1    0    0  501    0  0.00000000000E+00 -0.00000000000E+00 -0.42160245816E+03  0.42160245817E+03  0.25500000000E-02 0. -1.
    8880023    1    1    2    0    0 -0.45803538440E+03 -0.23245468124E+03  0.20534996661E+03  0.86012232110E+03  0.65864270000E+03 0.  0.
    8880022    1    1    2    0    0  0.45803538440E+03  0.23245468124E+03  0.66792175504E+03  0.85635431690E+03  0.15294330000E+03 0.  0.
<mgrwt>
<rscale>  0 0.74754895E+03</rscale>
<asrwt>0</asrwt>
<pdfrwt beam="1">  1        2 0.64861916E-01 0.83524954E+03</pdfrwt>
<pdfrwt beam="2">  1       -2 0.19921141E+00 0.83524954E+03</pdfrwt>
<totfact> 0.10186639E+01</totfact>
</mgrwt>
</event>
<event>
 4    2  0.3512590E-007  0.7144193E+03  0.7818608E-02  0.9941942E-01
         -2   -1    0    0    0  501 -0.00000000000E+00  0.00000000000E+00  0.80516961586E+03  0.80516961586E+03  0.25500000000E-02 0.  1.
          2   -1    0    0  501    0  0.00000000000E+00 -0.00000000000E+00 -0.26700529426E+04  0.26700529426E+04  0.25500000000E-02 0. -1.
    8880023    1    1    2    0    0 -0.24204247394E+03  0.13416458210E+03 -0.25886387985E+04  0.26854135118E+04  0.65864270000E+03 0. -1.
    8880022    1    1    2    0    0  0.24204247394E+03 -0.13416458210E+03  0.72375547173E+03  0.78980904664E+03  0.15294330000E+03 0.  0.
<mgrwt>
<rscale>  0 0.58270941E+03</rscale>
<asrwt>0</asrwt>
<pdfrwt beam="1">  1        2 0.41077737E+00 0.71441928E+03</pdfrwt>
<pdfrwt beam="2">  1       -2 0.12387225E+00 0.71441928E+03</pdfrwt>
<totfact> 0.14447845E+00</totfact>
</mgrwt>
</event>
<event>
 4    2  0.3171963E-007  0.7785125E+03  0.7818608E-02  0.9759343E-01
          2   -1    0    0  501    0  0.00000000000E+00  0.00000000000E+00  0.12917031820E+04  0.12917031820E+04  0.25500000000E-02 0. -1.
         -2   -1    0    0    0  501 -0.00000000000E+00 -0.00000000000E+00 -0.33029176716E+03  0.33029176717E+03  0.25500000000E-02 0.  1.
    8880023    1    1    2    0    0 -0.10655506226E+03 -0.40114521635E+03  0.87517390059E+03  0.11713287448E+04  0.65864270000E+03 0. -1.
    8880022    1    1    2    0    0  0.10655506226E+03  0.40114521635E+03  0.86237514271E+02  0.45066620438E+03  0.15294330000E+03 0.  0.
<mgrwt>
<rscale>  0 0.67590834E+03</rscale>
<asrwt>0</asrwt>
<pdfrwt beam="1">  1        2 0.19872357E+00 0.77851247E+03</pdfrwt>
<pdfrwt beam="2">  1       -2 0.50814118E-01 0.77851247E+03</pdfrwt>
<totfact> 0.62151965E+01</totfact>
</mgrwt>
</event>
<event>
 4    2  0.3171963E-007  0.1114756E+04  0.7818608E-02  0.9244802E-01
         -2   -1    0    0    0  501 -0.00000000000E+00  0.00000000000E+00  0.62586367743E+03  0.62586367744E+03  0.25500000000E-02 0.  1.
          2   -1    0    0  501    0  0.00000000000E+00 -0.00000000000E+00 -0.20533662344E+04  0.20533662344E+04  0.25500000000E-02 0. -1.
    8880023    1    1    2    0    0  0.52971686641E+03  0.72682247218E+03 -0.13684568261E+04  0.17650368710E+04  0.65864270000E+03 0.  1.
    8880022    1    1    2    0    0 -0.52971686641E+03 -0.72682247218E+03 -0.59045730828E+02  0.91419304087E+03  0.15294330000E+03 0.  0.
<mgrwt>
<rscale>  0 0.10602723E+04</rscale>
<asrwt>0</asrwt>
<pdfrwt beam="1">  1        2 0.31590250E+00 0.11147561E+04</pdfrwt>
<pdfrwt beam="2">  1       -2 0.96286720E-01 0.11147561E+04</pdfrwt>
<totfact> 0.55695939E+00</totfact>
</mgrwt>
</event>
<event>
 4    2  0.3171963E-007  0.7253055E+03  0.7818608E-02  0.9905027E-01
          2   -1    0    0  501    0  0.00000000000E+00  0.00000000000E+00  0.32447743937E+04  0.32447743937E+04  0.25500000000E-02 0. -1.
         -2   -1    0    0    0  501 -0.00000000000E+00 -0.00000000000E+00 -0.12256339663E+03  0.12256339666E+03  0.25500000000E-02 0.  1.
    8880023    1    1    2    0    0  0.17855127106E+02 -0.30321444489E+03  0.28219816801E+04  0.29137001586E+04  0.65864270000E+03 0.  0.
    8880022    1    1    2    0    0 -0.17855127106E+02  0.30321444489E+03  0.30022931694E+03  0.45363763173E+03  0.15294330000E+03 0.  0.
<mgrwt>
<rscale>  0 0.60018296E+03</rscale>
<asrwt>0</asrwt>
<pdfrwt beam="1">  1        2 0.49919600E+00 0.72530546E+03</pdfrwt>
<pdfrwt beam="2">  1       -2 0.18855909E-01 0.72530546E+03</pdfrwt>
<totfact> 0.30672771E+01</totfact>
</mgrwt>
</event>
<event>
 4    2  0.3171963E-007  0.6650675E+03  0.7818608E-02  0.1019477E+00
         -2   -1    0    0    0  501 -0.00000000000E+00  0.00000000000E+00  0.22456902867E+03  0.22456902869E+03  0.25500000000E-02 0.  1.
          2   -1    0    0  501    0  0.00000000000E+00 -0.00000000000E+00 -0.79755459811E+03  0.79755459811E+03  0.25500000000E-02 0. -1.
    8880023    1    1    2    0    0  0.50710232598E+02 -0.77025877089E+02 -0.41689391689E+03  0.78493009729E+03  0.65864270000E+03 0. -1.
    8880022    1    1    2    0    0 -0.50710232598E+02  0.77025877089E+02 -0.15609165255E+03  0.23719352951E+03  0.15294330000E+03 0.  0.
<mgrwt>
<rscale>  0 0.47875859E+03</rscale>
<asrwt>0</asrwt>
<pdfrwt beam="1">  1        2 0.12270071E+00 0.66506745E+03</pdfrwt>
<pdfrwt beam="2">  1       -2 0.34549082E-01 0.66506745E+03</pdfrwt>
<totfact> 0.27483741E+02</totfact>
</mgrwt>
</event>
<event>
 4    2  0.3171963E-007  0.7095944E+03  0.7818608E-02  0.9959510E-01
          2   -1    0    0  501    0  0.00000000000E+00  0.00000000000E+00  0.90119780740E+03  0.90119780740E+03  0.25500000000E-02 0. -1.
         -2   -1    0    0    0  501 -0.00000000000E+00 -0.00000000000E+00 -0.31670819086E+03  0.31670819087E+03  0.25500000000E-02 0.  1.
    8880023    1    1    2    0    0 -0.95636624283E+02 -0.24610485164E+03  0.57384045745E+03  0.91258809918E+03  0.65864270000E+03 0. -1.
    8880022    1    1    2    0    0  0.95636624283E+02  0.24610485164E+03  0.10649159085E+02  0.30531789909E+03  0.15294330000E+03 0.  0.
<mgrwt>
<rscale>  0 0.57461850E+03</rscale>
<asrwt>0</asrwt>
<pdfrwt beam="1">  1        2 0.13864581E+00 0.70959437E+03</pdfrwt>
<pdfrwt beam="2">  1       -2 0.48724338E-01 0.70959437E+03</pdfrwt>
<totfact> 0.11850186E+02</totfact>
</mgrwt>
</event>
<event>
 4    2  0.3171963E-007  0.6820230E+03  0.7818608E-02  0.1008202E+00
          2   -1    0    0  501    0  0.00000000000E+00  0.00000000000E+00  0.15841522531E+04  0.15841522531E+04  0.25500000000E-02 0. -1.
         -2   -1    0    0    0  501 -0.00000000000E+00 -0.00000000000E+00 -0.13436787266E+03  0.13436787269E+03  0.25500000000E-02 0.  1.
    8880023    1    1    2    0    0  0.48168664305E+02 -0.17036699331E+03  0.11650123397E+04  0.13499663294E+04  0.65864270000E+03 0.  0.
    8880022    1    1    2    0    0 -0.48168664305E+02  0.17036699331E+03  0.28477204078E+03  0.36855379642E+03  0.15294330000E+03 0. -1.
<mgrwt>
<rscale>  0 0.52195633E+03</rscale>
<asrwt>0</asrwt>
<pdfrwt beam="1">  1        2 0.24371572E+00 0.68202298E+03</pdfrwt>
<pdfrwt beam="2">  1       -2 0.20671981E-01 0.68202298E+03</pdfrwt>
<totfact> 0.23394382E+02</totfact>
</mgrwt>
</event>
<event>
 4    2  0.3171963E-007  0.7083058E+03  0.7818608E-02  0.9964347E-01
          2   -1    0    0  501    0  0.00000000000E+00  0.00000000000E+00  0.18656781991E+04  0.18656781991E+04  0.25500000000E-02 0. -1.
         -2   -1    0    0    0  501 -0.00000000000E+00 -0.00000000000E+00 -0.17599214866E+03  0.17599214868E+03  0.25500000000E-02 0.  1.
    8880023    1    1    2    0    0  0.23844026006E+03 -0.10503855554E+03  0.15592592384E+04  0.17125964015E+04  0.65864270000E+03 0. -1.
    8880022    1    1    2    0    0 -0.23844026006E+03  0.10503855554E+03  0.13042681199E+03  0.32907394620E+03  0.15294330000E+03 0.  0.
<mgrwt>
<rscale>  0 0.57241585E+03</rscale>
<asrwt>0</asrwt>
<pdfrwt beam="1">  1        2 0.28702740E+00 0.70830577E+03</pdfrwt>
<pdfrwt beam="2">  1       -2 0.27075716E-01 0.70830577E+03</pdfrwt>
<totfact> 0.10110021E+02</totfact>
</mgrwt>
</event>
<event>
 4    2  0.3171963E-007  0.7078938E+03  0.7818608E-02  0.9965907E-01
          2   -1    0    0  501    0  0.00000000000E+00  0.00000000000E+00  0.60155043679E+03  0.60155043680E+03  0.25500000000E-02 0. -1.
         -2   -1    0    0    0  501 -0.00000000000E+00 -0.00000000000E+00 -0.75303916891E+03  0.75303916892E+03  0.25500000000E-02 0.  1.
    8880023    1    1    2    0    0 -0.11126189791E+03 -0.23435914775E+03 -0.52023091854E+03  0.87849521053E+03  0.65864270000E+03 0.  1.
    8880022    1    1    2    0    0  0.11126189791E+03  0.23435914775E+03  0.36874218642E+03  0.47609439518E+03  0.15294330000E+03 0.  0.
<mgrwt>
<rscale>  0 0.57170770E+03</rscale>
<asrwt>0</asrwt>
<pdfrwt beam="1">  1        2 0.92546221E-01 0.70789380E+03</pdfrwt>
<pdfrwt beam="2">  1       -2 0.11585218E+00 0.70789380E+03</pdfrwt>
<totfact> 0.29101921E+01</totfact>
</mgrwt>
</event>
<event>
 4    2  0.3171963E-007  0.6845889E+03  0.7818608E-02  0.1006839E+00
          2   -1    0    0  501    0  0.00000000000E+00  0.00000000000E+00  0.21065519712E+04  0.21065519712E+04  0.25500000000E-02 0. -1.
         -2   -1    0    0    0  501 -0.00000000000E+00 -0.00000000000E+00 -0.28476219486E+03  0.28476219487E+03  0.25500000000E-02 0.  1.
    8880023    1    1    2    0    0  0.40450239376E+02  0.18225126891E+03  0.19851565959E+04  0.20998830118E+04  0.65864270000E+03 0. -1.
    8880022    1    1    2    0    0 -0.40450239376E+02 -0.18225126891E+03 -0.16336681959E+03  0.29143115420E+03  0.15294330000E+03 0.  0.
<mgrwt>
<rscale>  0 0.52750700E+03</rscale>
<asrwt>0</asrwt>
<pdfrwt beam="1">  1        2 0.32408493E+00 0.68458889E+03</pdfrwt>
<pdfrwt beam="2">  1       -2 0.43809567E-01 0.68458889E+03</pdfrwt>
<totfact> 0.30062611E+01</totfact>
</mgrwt>
</event>
<event>
 4    2  0.3171963E-007  0.6751699E+03  0.7818608E-02  0.1012199E+00
         -2   -1    0    0    0  501 -0.00000000000E+00  0.00000000000E+00  0.21800186233E+03  0.21800186234E+03  0.25500000000E-02 0.  1.
          2   -1    0    0  501    0  0.00000000000E+00 -0.00000000000E+00 -0.19837416318E+04  0.19837416318E+04  0.25500000000E-02 0. -1.
    8880023    1    1    2    0    0 -0.13375123758E+03  0.64458213750E+02 -0.18524267353E+04  0.19716336553E+04  0.65864270000E+03 0.  0.
    8880022    1    1    2    0    0  0.13375123758E+03 -0.64458213750E+02  0.86686965810E+02  0.23010983884E+03  0.15294330000E+03 0.  1.
<mgrwt>
<rscale>  0 0.50609813E+03</rscale>
<asrwt>0</asrwt>
<pdfrwt beam="1">  1        2 0.30519101E+00 0.67516995E+03</pdfrwt>
<pdfrwt beam="2">  1       -2 0.33538749E-01 0.67516995E+03</pdfrwt>
<totfact> 0.58854414E+01</totfact>
</mgrwt>
</event>
<event>
 4    2  0.3171963E-007  0.7791221E+03  0.7818608E-02  0.9757903E-01
          2   -1    0    0  501    0  0.00000000000E+00  0.00000000000E+00  0.22795964466E+04  0.22795964466E+04  0.25500000000E-02 0. -1.
         -2   -1    0    0    0  501 -0.00000000000E+00 -0.00000000000E+00 -0.25279850395E+03  0.25279850396E+03  0.25500000000E-02 0.  1.
    8880023    1    1    2    0    0 -0.27213410549E+03 -0.31490316685E+03  0.19260730908E+04  0.20776883147E+04  0.65864270000E+03 0.  0.
    8880022    1    1    2    0    0  0.27213410549E+03  0.31490316685E+03  0.10072485186E+03  0.45470663582E+03  0.15294330000E+03 0.  0.
<mgrwt>
<rscale>  0 0.67671461E+03</rscale>
<asrwt>0</asrwt>
<pdfrwt beam="1">  1        2 0.35070717E+00 0.77912206E+03</pdfrwt>
<pdfrwt beam="2">  1       -2 0.38892075E-01 0.77912206E+03</pdfrwt>
<totfact> 0.30089820E+01</totfact>
</mgrwt>
</event>
<event>
 4    2  0.3171963E-007  0.8114273E+03  0.7818608E-02  0.9686612E-01
         -2   -1    0    0    0  501 -0.00000000000E+00  0.00000000000E+00  0.37063614455E+03  0.37063614455E+03  0.25500000000E-02 0.  1.
          2   -1    0    0  501    0  0.00000000000E+00 -0.00000000000E+00 -0.13454849740E+04  0.13454849740E+04  0.25500000000E-02 0. -1.
    8880023    1    1    2    0    0 -0.29400290542E+03  0.37170735685E+03 -0.90126684498E+03  0.12127226392E+04  0.65864270000E+03 0. -1.
    8880022    1    1    2    0    0  0.29400290542E+03 -0.37170735685E+03 -0.73581984450E+02  0.50339847932E+03  0.15294330000E+03 0.  0.
<mgrwt>
<rscale>  0 0.71819560E+03</rscale>
<asrwt>0</asrwt>
<pdfrwt beam="1">  1        2 0.20699769E+00 0.81142731E+03</pdfrwt>
<pdfrwt beam="2">  1       -2 0.57020946E-01 0.81142731E+03</pdfrwt>
<totfact> 0.45466511E+01</totfact>
</mgrwt>
</event>
<event>
 4    2  0.3171963E-007  0.6657644E+03  0.7818608E-02  0.1018901E+00
          2   -1    0    0  501    0  0.00000000000E+00  0.00000000000E+00  0.19555056211E+04  0.19555056211E+04  0.25500000000E-02 0. -1.
         -2   -1    0    0    0  501 -0.00000000000E+00 -0.00000000000E+00 -0.13463813047E+03  0.13463813049E+03  0.25500000000E-02 0.  1.
    8880023    1    1    2    0    0  0.85308328097E+02  0.46416896756E+02  0.17854547303E+04  0.19055421379E+04  0.65864270000E+03 0. -1.
    8880022    1    1    2    0    0 -0.85308328097E+02 -0.46416896756E+02  0.35412760269E+02  0.18460161362E+03  0.15294330000E+03 0.  0.
<mgrwt>
<rscale>  0 0.48085469E+03</rscale>
<asrwt>0</asrwt>
<pdfrwt beam="1">  1        2 0.30084697E+00 0.66576441E+03</pdfrwt>
<pdfrwt beam="2">  1       -2 0.20713562E-01 0.66576441E+03</pdfrwt>
<totfact> 0.14653839E+02</totfact>
</mgrwt>
</event>
<event>
 4    2  0.3171963E-007  0.7231778E+03  0.7818608E-02  0.9911976E-01
          2   -1    0    0  501    0  0.00000000000E+00  0.00000000000E+00  0.32395699893E+04  0.32395699893E+04  0.25500000000E-02 0. -1.
         -2   -1    0    0    0  501 -0.00000000000E+00 -0.00000000000E+00 -0.14193805427E+03  0.14193805430E+03  0.25500000000E-02 0.  1.
    8880023    1    1    2    0    0  0.25294754345E+03 -0.15872454204E+03  0.29070404024E+04  0.29956418423E+04  0.65864270000E+03 0.  0.
    8880022    1    1    2    0    0 -0.25294754345E+03  0.15872454204E+03  0.19059153268E+03  0.38586620133E+03  0.15294330000E+03 0.  0.
<mgrwt>
<rscale>  0 0.59684353E+03</rscale>
<asrwt>0</asrwt>
<pdfrwt beam="1">  1        2 0.49839542E+00 0.72317781E+03</pdfrwt>
<pdfrwt beam="2">  1       -2 0.21836622E-01 0.72317781E+03</pdfrwt>
<totfact> 0.23907489E+01</totfact>
</mgrwt>
</event>
<event>
 4    2  0.3171963E-007  0.9237288E+03  0.7818608E-02  0.9488965E-01
         -2   -1    0    0    0  501 -0.00000000000E+00  0.00000000000E+00  0.75523099224E+03  0.75523099224E+03  0.25500000000E-02 0.  1.
          2   -1    0    0  501    0  0.00000000000E+00 -0.00000000000E+00 -0.16313387377E+04  0.16313387377E+04  0.25500000000E-02 0. -1.
    8880023    1    1    2    0    0 -0.83494336054E+02 -0.64225653514E+03 -0.13020628298E+04  0.15964468610E+04  0.65864270000E+03 0.  0.
    8880022    1    1    2    0    0  0.83494336054E+02  0.64225653514E+03  0.42595508434E+03  0.79012286891E+03  0.15294330000E+03 0.  0.
<mgrwt>
<rscale>  0 0.85102290E+03</rscale>
<asrwt>0</asrwt>
<pdfrwt beam="1">  1        2 0.25097519E+00 0.92372884E+03</pdfrwt>
<pdfrwt beam="2">  1       -2 0.11618938E+00 0.92372884E+03</pdfrwt>
<totfact> 0.61836643E+00</totfact>
</mgrwt>
</event>
<event>
 4    2  0.3171963E-007  0.6743808E+03  0.7818608E-02  0.1012699E+00
          2   -1    0    0  501    0  0.00000000000E+00  0.00000000000E+00  0.22516787016E+04  0.22516787016E+04  0.25500000000E-02 0. -1.
         -2   -1    0    0    0  501 -0.00000000000E+00 -0.00000000000E+00 -0.11173479307E+03  0.11173479310E+03  0.25500000000E-02 0.  1.
    8880023    1    1    2    0    0 -0.27574286046E+02 -0.14219320052E+03  0.19997019511E+04  0.21103547917E+04  0.65864270000E+03 0. -1.
    8880022    1    1    2    0    0  0.27574286046E+02  0.14219320052E+03  0.14024195750E+03  0.25305870304E+03  0.15294330000E+03 0.  0.
<mgrwt>
<rscale>  0 0.50415743E+03</rscale>
<asrwt>0</asrwt>
<pdfrwt beam="1">  1        2 0.34641208E+00 0.67438079E+03</pdfrwt>
<pdfrwt beam="2">  1       -2 0.17189969E-01 0.67438079E+03</pdfrwt>
<totfact> 0.13934887E+02</totfact>
</mgrwt>
</event>
<event>
 4    2  0.3171963E-007  0.7792313E+03  0.7818608E-02  0.9757646E-01
          2   -1    0    0  501    0  0.00000000000E+00  0.00000000000E+00  0.97432553651E+03  0.97432553651E+03  0.25500000000E-02 0. -1.
         -2   -1    0    0    0  501 -0.00000000000E+00 -0.00000000000E+00 -0.13300578326E+04  0.13300578326E+04  0.25500000000E-02 0.  1.
    8880023    1    1    2    0    0 -0.18886573539E+03 -0.37110765368E+03  0.76933264364E+03  0.10950224105E+04  0.65864270000E+03 0. -1.
    8880022    1    1    2    0    0  0.18886573539E+03  0.37110765368E+03 -0.11250649397E+04  0.12093609586E+04  0.15294330000E+03 0.  0.
<mgrwt>
<rscale>  0 0.67685894E+03</rscale>
<asrwt>0</asrwt>
<pdfrwt beam="1">  1        2 0.14989624E+00 0.77923126E+03</pdfrwt>
<pdfrwt beam="2">  1       -2 0.20462428E+00 0.77923126E+03</pdfrwt>
<totfact> 0.33125418E+00</totfact>
</mgrwt>
</event>
<event>
 4    2  0.3171963E-007  0.6945916E+03  0.7818608E-02  0.1002042E+00
          2   -1    0    0  501    0  0.00000000000E+00  0.00000000000E+00  0.78434526054E+03  0.78434526054E+03  0.25500000000E-02 0. -1.
         -2   -1    0    0    0  501 -0.00000000000E+00 -0.00000000000E+00 -0.94323703056E+03  0.94323703057E+03  0.25500000000E-02 0.  1.
    8880023    1    1    2    0    0  0.18657976612E+03 -0.11762338866E+03  0.60298605978E+03  0.91980958096E+03  0.65864270000E+03 0. -1.
    8880022    1    1    2    0    0 -0.18657976612E+03  0.11762338866E+03 -0.76187782980E+03  0.80777271014E+03  0.15294330000E+03 0.  0.
<mgrwt>
<rscale>  0 0.54763733E+03</rscale>
<asrwt>0</asrwt>
<pdfrwt beam="1">  1        2 0.12066850E+00 0.69459159E+03</pdfrwt>
<pdfrwt beam="2">  1       -2 0.14511339E+00 0.69459159E+03</pdfrwt>
<totfact> 0.11818880E+01</totfact>
</mgrwt>
</event>
<event>
 4    2  0.3171963E-007  0.8179658E+03  0.7818608E-02  0.9673217E-01
          2   -1    0    0  501    0  0.00000000000E+00  0.00000000000E+00  0.90281566440E+03  0.90281566441E+03  0.25500000000E-02 0. -1.
         -2   -1    0    0    0  501 -0.00000000000E+00 -0.00000000000E+00 -0.57256035102E+03  0.57256035102E+03  0.25500000000E-02 0.  1.
    8880023    1    1    2    0    0  0.46264589695E+03  0.14565910659E+03 -0.80119264222E+02  0.82188022489E+03  0.65864270000E+03 0.  0.
    8880022    1    1    2    0    0 -0.46264589695E+03 -0.14565910659E+03  0.41037457761E+03  0.65349579054E+03  0.15294330000E+03 0.  0.
<mgrwt>
<rscale>  0 0.72634056E+03</rscale>
<asrwt>0</asrwt>
<pdfrwt beam="1">  1        2 0.13889472E+00 0.81796577E+03</pdfrwt>
<pdfrwt beam="2">  1       -2 0.88086208E-01 0.81796577E+03</pdfrwt>
<totfact> 0.32710090E+01</totfact>
</mgrwt>
</event>
<event>
 4    2  0.3171963E-007  0.8173142E+03  0.7818608E-02  0.9674538E-01
          2   -1    0    0  501    0  0.00000000000E+00  0.00000000000E+00  0.74618879760E+03  0.74618879760E+03  0.25500000000E-02 0. -1.
         -2   -1    0    0    0  501 -0.00000000000E+00 -0.00000000000E+00 -0.23044599647E+04  0.23044599647E+04  0.25500000000E-02 0.  1.
    8880023    1    1    2    0    0  0.12156612257E+03 -0.46841648162E+03  0.48155670815E+03  0.94863027141E+03  0.65864270000E+03 0.  0.
    8880022    1    1    2    0    0 -0.12156612257E+03  0.46841648162E+03 -0.20398278752E+04  0.21020184909E+04  0.15294330000E+03 0.  0.
<mgrwt>
<rscale>  0 0.72553212E+03</rscale>
<asrwt>0</asrwt>
<pdfrwt beam="1">  1        2 0.11479828E+00 0.81731422E+03</pdfrwt>
<pdfrwt beam="2">  1       -2 0.35453230E+00 0.81731422E+03</pdfrwt>
<totfact> 0.57386933E-01</totfact>
</mgrwt>
</event>
<event>
 4    2  0.3171963E-007  0.7309143E+03  0.7818608E-02  0.9887250E-01
         -2   -1    0    0    0  501 -0.00000000000E+00  0.00000000000E+00  0.38763517524E+03  0.38763517525E+03  0.25500000000E-02 0.  1.
          2   -1    0    0  501    0  0.00000000000E+00 -0.00000000000E+00 -0.17992326791E+04  0.17992326791E+04  0.25500000000E-02 0. -1.
    8880023    1    1    2    0    0 -0.31175660798E+03 -0.56862395443E+02 -0.16204587620E+04  0.17776732884E+04  0.65864270000E+03 0. -1.
    8880022    1    1    2    0    0  0.31175660798E+03  0.56862395443E+02  0.20886125816E+03  0.40919456595E+03  0.15294330000E+03 0.  0.
<mgrwt>
<rscale>  0 0.60883198E+03</rscale>
<asrwt>0</asrwt>
<pdfrwt beam="1">  1        2 0.27680502E+00 0.73091430E+03</pdfrwt>
<pdfrwt beam="2">  1       -2 0.59636182E-01 0.73091430E+03</pdfrwt>
<totfact> 0.23383372E+01</totfact>
</mgrwt>
</event>
<event>
 4    2  0.3171963E-007  0.7359559E+03  0.7818608E-02  0.9871888E-01
          2   -1    0    0  501    0  0.00000000000E+00  0.00000000000E+00  0.13811912965E+04  0.13811912965E+04  0.25500000000E-02 0. -1.
         -2   -1    0    0    0  501 -0.00000000000E+00 -0.00000000000E+00 -0.29425633192E+03  0.29425633193E+03  0.25500000000E-02 0.  1.
    8880023    1    1    2    0    0 -0.10515548416E+03  0.31106776246E+03  0.10876124864E+04  0.13132143601E+04  0.65864270000E+03 0. -1.
    8880022    1    1    2    0    0  0.10515548416E+03 -0.31106776246E+03 -0.67752175253E+00  0.36223326841E+03  0.15294330000E+03 0.  0.
<mgrwt>
<rscale>  0 0.61643278E+03</rscale>
<asrwt>0</asrwt>
<pdfrwt beam="1">  1        2 0.21249097E+00 0.73595586E+03</pdfrwt>
<pdfrwt beam="2">  1       -2 0.45270204E-01 0.73595586E+03</pdfrwt>
<totfact> 0.70023145E+01</totfact>
</mgrwt>
</event>
<event>
 4    2  0.3171963E-007  0.7761985E+03  0.7818608E-02  0.9764844E-01
          2   -1    0    0  501    0  0.00000000000E+00  0.00000000000E+00  0.14923642833E+04  0.14923642833E+04  0.25500000000E-02 0. -1.
         -2   -1    0    0    0  501 -0.00000000000E+00 -0.00000000000E+00 -0.34404916341E+03  0.34404916342E+03  0.25500000000E-02 0.  1.
    8880023    1    1    2    0    0  0.32445948018E+03  0.25179359033E+03  0.11626327567E+04  0.13979267147E+04  0.65864270000E+03 0.  0.
    8880022    1    1    2    0    0 -0.32445948018E+03 -0.25179359033E+03 -0.14317636851E+02  0.43848673201E+03  0.15294330000E+03 0.  0.
<mgrwt>
<rscale>  0 0.67283848E+03</rscale>
<asrwt>0</asrwt>
<pdfrwt beam="1">  1        2 0.22959450E+00 0.77619854E+03</pdfrwt>
<pdfrwt beam="2">  1       -2 0.52930641E-01 0.77619854E+03</pdfrwt>
<totfact> 0.43989929E+01</totfact>
</mgrwt>
</event>
<event>
 4    2  0.3171963E-007  0.7218890E+03  0.7818608E-02  0.9916245E-01
          2   -1    0    0  501    0  0.00000000000E+00  0.00000000000E+00  0.31065154942E+04  0.31065154942E+04  0.25500000000E-02 0. -1.
         -2   -1    0    0    0  501 -0.00000000000E+00 -0.00000000000E+00 -0.12150509054E+03  0.12150509057E+03  0.25500000000E-02 0.  1.
    8880023    1    1    2    0    0 -0.19538687607E+03 -0.22166966450E+03  0.26838552077E+04  0.27792449431E+04  0.65864270000E+03 0. -1.
    8880022    1    1    2    0    0  0.19538687607E+03  0.22166966450E+03  0.30115519594E+03  0.44877564167E+03  0.15294330000E+03 0.  0.
<mgrwt>
<rscale>  0 0.59480385E+03</rscale>
<asrwt>0</asrwt>
<pdfrwt beam="1">  1        2 0.47792543E+00 0.72188896E+03</pdfrwt>
<pdfrwt beam="2">  1       -2 0.18693092E-01 0.72188896E+03</pdfrwt>
<totfact> 0.38107577E+01</totfact>
</mgrwt>
</event>
<event>
 4    2  0.3171963E-007  0.8324424E+03  0.7818608E-02  0.9644599E-01
         -2   -1    0    0    0  501 -0.00000000000E+00  0.00000000000E+00  0.20645386845E+03  0.20645386846E+03  0.25500000000E-02 0.  1.
          2   -1    0    0  501    0  0.00000000000E+00 -0.00000000000E+00 -0.32816280912E+04  0.32816280912E+04  0.25500000000E-02 0. -1.
    8880023    1    1    2    0    0 -0.49787091131E+03 -0.10618209460E+03 -0.27304823290E+04  0.28545567146E+04  0.65864270000E+03 0. -1.
    8880022    1    1    2    0    0  0.49787091131E+03  0.10618209460E+03 -0.34469189381E+03  0.63352524513E+03  0.15294330000E+03 0.  0.
<mgrwt>
<rscale>  0 0.74413367E+03</rscale>
<asrwt>0</asrwt>
<pdfrwt beam="1">  1        2 0.50486582E+00 0.83244236E+03</pdfrwt>
<pdfrwt beam="2">  1       -2 0.31762136E-01 0.83244236E+03</pdfrwt>
<totfact> 0.11146087E+01</totfact>
</mgrwt>
</event>
<event>
 4    2  0.3171963E-007  0.8482790E+03  0.7818608E-02  0.9614763E-01
          2   -1    0    0  501    0  0.00000000000E+00  0.00000000000E+00  0.24771999609E+04  0.24771999609E+04  0.25500000000E-02 0. -1.
         -2   -1    0    0    0  501 -0.00000000000E+00 -0.00000000000E+00 -0.19917648329E+03  0.19917648331E+03  0.25500000000E-02 0.  1.
    8880023    1    1    2    0    0 -0.10074234718E+03  0.52499342880E+03  0.14124698819E+04  0.16476190380E+04  0.65864270000E+03 0.  0.
    8880022    1    1    2    0    0  0.10074234718E+03 -0.52499342880E+03  0.86555359571E+03  0.10287574062E+04  0.15294330000E+03 0. -1.
<mgrwt>
<rscale>  0 0.76326746E+03</rscale>
<asrwt>0</asrwt>
<pdfrwt beam="1">  1        2 0.38110771E+00 0.84827904E+03</pdfrwt>
<pdfrwt beam="2">  1       -2 0.30642534E-01 0.84827904E+03</pdfrwt>
<totfact> 0.36367138E+01</totfact>
</mgrwt>
</event>
<event>
 4    2  0.3171963E-007  0.1245658E+04  0.7818608E-02  0.9113969E-01
         -2   -1    0    0    0  501 -0.00000000000E+00  0.00000000000E+00  0.69437934215E+03  0.69437934215E+03  0.25500000000E-02 0.  1.
          2   -1    0    0  501    0  0.00000000000E+00 -0.00000000000E+00 -0.22760915744E+04  0.22760915744E+04  0.25500000000E-02 0. -1.
    8880023    1    1    2    0    0 -0.55092151171E+03  0.90240697824E+03 -0.14217882313E+04  0.18902763945E+04  0.65864270000E+03 0.  0.
    8880022    1    1    2    0    0  0.55092151171E+03 -0.90240697824E+03 -0.15992400090E+03  0.10801945221E+04  0.15294330000E+03 0.  0.
<mgrwt>
<rscale>  0 0.11987300E+04</rscale>
<asrwt>0</asrwt>
<pdfrwt beam="1">  1        2 0.35016793E+00 0.12456577E+04</pdfrwt>
<pdfrwt beam="2">  1       -2 0.10682759E+00 0.12456577E+04</pdfrwt>
<totfact> 0.32167331E+00</totfact>
</mgrwt>
</event>
<event>
 4    2  0.3171963E-007  0.1106315E+04  0.7818608E-02  0.9254057E-01
          2   -1    0    0  501    0  0.00000000000E+00  0.00000000000E+00  0.17718411499E+04  0.17718411499E+04  0.25500000000E-02 0. -1.
         -2   -1    0    0    0  501 -0.00000000000E+00 -0.00000000000E+00 -0.86496924279E+03  0.86496924279E+03  0.25500000000E-02 0.  1.
    8880023    1    1    2    0    0 -0.88568757332E+03 -0.75369754298E+02  0.12522928543E+04  0.16709789575E+04  0.65864270000E+03 0.  0.
    8880022    1    1    2    0    0  0.88568757332E+03  0.75369754298E+02 -0.34542094715E+03  0.96583143516E+03  0.15294330000E+03 0.  0.
<mgrwt>
<rscale>  0 0.10512472E+04</rscale>
<asrwt>0</asrwt>
<pdfrwt beam="1">  1        2 0.27259094E+00 0.11063152E+04</pdfrwt>
<pdfrwt beam="2">  1       -2 0.13307219E+00 0.11063152E+04</pdfrwt>
<totfact> 0.36005025E+00</totfact>
</mgrwt>
</event>
<event>
 4    2  0.3171963E-007  0.6896530E+03  0.7818608E-02  0.1004318E+00
         -2   -1    0    0    0  501 -0.00000000000E+00  0.00000000000E+00  0.90823025158E+03  0.90823025158E+03  0.25500000000E-02 0.  1.
          2   -1    0    0  501    0  0.00000000000E+00 -0.00000000000E+00 -0.16296725814E+04  0.16296725814E+04  0.25500000000E-02 0. -1.
    8880023    1    1    2    0    0  0.12259893413E+03  0.16364773055E+03 -0.15362883702E+04  0.16839843351E+04  0.65864270000E+03 0. -1.
    8880022    1    1    2    0    0 -0.12259893413E+03 -0.16364773055E+03  0.81484604039E+03  0.85391849782E+03  0.15294330000E+03 0.  0.
<mgrwt>
<rscale>  0 0.53796770E+03</rscale>
<asrwt>0</asrwt>
<pdfrwt beam="1">  1        2 0.25071886E+00 0.68965302E+03</pdfrwt>
<pdfrwt beam="2">  1       -2 0.13972773E+00 0.68965302E+03</pdfrwt>
<totfact> 0.40257824E+00</totfact>
</mgrwt>
</event>
<event>
 4    2  0.3171963E-007  0.7211001E+03  0.7818608E-02  0.9918881E-01
          2   -1    0    0  501    0  0.00000000000E+00  0.00000000000E+00  0.28741099194E+04  0.28741099194E+04  0.25500000000E-02 0. -1.
         -2   -1    0    0    0  501 -0.00000000000E+00 -0.00000000000E+00 -0.16953501749E+03  0.16953501751E+03  0.25500000000E-02 0.  1.
    8880023    1    1    2    0    0 -0.28414334537E+03  0.73740880294E+02  0.25975195204E+04  0.26957546297E+04  0.65864270000E+03 0.  0.
    8880022    1    1    2    0    0  0.28414334537E+03 -0.73740880294E+02  0.10705538148E+03  0.34789030723E+03  0.15294330000E+03 0.  0.
<mgrwt>
<rscale>  0 0.59354896E+03</rscale>
<asrwt>0</asrwt>
<pdfrwt beam="1">  1        2 0.44217074E+00 0.72110011E+03</pdfrwt>
<pdfrwt beam="2">  1       -2 0.26082311E-01 0.72110011E+03</pdfrwt>
<totfact> 0.29270325E+01</totfact>
</mgrwt>
</event>
<event>
 4    2  0.3171963E-007  0.7216943E+03  0.7818608E-02  0.9916894E-01
         -2   -1    0    0    0  501 -0.00000000000E+00  0.00000000000E+00  0.79971841429E+03  0.79971841429E+03  0.25500000000E-02 0.  1.
          2   -1    0    0  501    0  0.00000000000E+00 -0.00000000000E+00 -0.40663241135E+03  0.40663241136E+03  0.25500000000E-02 0. -1.
    8880023    1    1    2    0    0  0.13219003890E+03 -0.26373886725E+03  0.41962188589E+02  0.72291315386E+03  0.65864270000E+03 0. -1.
    8880022    1    1    2    0    0 -0.13219003890E+03  0.26373886725E+03  0.35112381435E+03  0.48343767179E+03  0.15294330000E+03 0.  1.
<mgrwt>
<rscale>  0 0.59449458E+03</rscale>
<asrwt>0</asrwt>
<pdfrwt beam="1">  1        2 0.62558833E-01 0.72169426E+03</pdfrwt>
<pdfrwt beam="2">  1       -2 0.12303360E+00 0.72169426E+03</pdfrwt>
<totfact> 0.39469513E+01</totfact>
</mgrwt>
</event>
<event>
 4    2  0.3171963E-007  0.7427132E+03  0.7818608E-02  0.9852113E-01
          2   -1    0    0  501    0  0.00000000000E+00  0.00000000000E+00  0.69018880791E+03  0.69018880791E+03  0.25500000000E-02 0. -1.
         -2   -1    0    0    0  501 -0.00000000000E+00 -0.00000000000E+00 -0.73365453949E+03  0.73365453949E+03  0.25500000000E-02 0.  1.
    8880023    1    1    2    0    0 -0.34051961883E+03  0.43116617167E+02  0.39919395692E+03  0.84319551410E+03  0.65864270000E+03 0. -1.
    8880022    1    1    2    0    0  0.34051961883E+03 -0.43116617167E+02 -0.44265968850E+03  0.58064783331E+03  0.15294330000E+03 0.  1.
<mgrwt>
<rscale>  0 0.62639292E+03</rscale>
<asrwt>0</asrwt>
<pdfrwt beam="1">  1        2 0.10618289E+00 0.74271317E+03</pdfrwt>
<pdfrwt beam="2">  1       -2 0.11286993E+00 0.74271317E+03</pdfrwt>
<totfact> 0.26107051E+01</totfact>
</mgrwt>
</event>
<event>
 4    2  0.3171963E-007  0.6733023E+03  0.7818608E-02  0.1013398E+00
          2   -1    0    0  501    0  0.00000000000E+00  0.00000000000E+00  0.16979006881E+04  0.16979006881E+04  0.25500000000E-02 0. -1.
         -2   -1    0    0    0  501 -0.00000000000E+00 -0.00000000000E+00 -0.59679485645E+03  0.59679485646E+03  0.25500000000E-02 0.  1.
    8880023    1    1    2    0    0  0.13627524709E+03  0.30900784647E+02  0.16100713677E+04  0.17451836054E+04  0.65864270000E+03 0. -1.
    8880022    1    1    2    0    0 -0.13627524709E+03 -0.30900784647E+02 -0.50896553597E+03  0.54951193917E+03  0.15294330000E+03 0.  0.
<mgrwt>
<rscale>  0 0.50146061E+03</rscale>
<asrwt>0</asrwt>
<pdfrwt beam="1">  1        2 0.26121549E+00 0.67330232E+03</pdfrwt>
<pdfrwt beam="2">  1       -2 0.91814594E-01 0.67330232E+03</pdfrwt>
<totfact> 0.10324115E+01</totfact>
</mgrwt>
</event>
<event>
 4    2  0.3171963E-007  0.6759110E+03  0.7818608E-02  0.1011738E+00
          2   -1    0    0  501    0  0.00000000000E+00  0.00000000000E+00  0.10404241093E+04  0.10404241093E+04  0.25500000000E-02 0. -1.
         -2   -1    0    0    0  501 -0.00000000000E+00 -0.00000000000E+00 -0.36920551685E+03  0.36920551686E+03  0.25500000000E-02 0.  1.
    8880023    1    1    2    0    0 -0.14712412487E+03 -0.37415498649E+02  0.87997679120E+03  0.11096011837E+04  0.65864270000E+03 0. -1.
    8880022    1    1    2    0    0  0.14712412487E+03  0.37415498649E+02 -0.20875819879E+03  0.30002844238E+03  0.15294330000E+03 0.  0.
<mgrwt>
<rscale>  0 0.50789652E+03</rscale>
<asrwt>0</asrwt>
<pdfrwt beam="1">  1        2 0.16006525E+00 0.67591097E+03</pdfrwt>
<pdfrwt beam="2">  1       -2 0.56800849E-01 0.67591097E+03</pdfrwt>
<totfact> 0.70483222E+01</totfact>
</mgrwt>
</event>
<event>
 4    2  0.3171963E-007  0.6788329E+03  0.7818608E-02  0.1009992E+00
         -2   -1    0    0    0  501 -0.00000000000E+00  0.00000000000E+00  0.11862176419E+04  0.11862176419E+04  0.25500000000E-02 0.  1.
          2   -1    0    0  501    0  0.00000000000E+00 -0.00000000000E+00 -0.75670497928E+03  0.75670497929E+03  0.25500000000E-02 0. -1.
    8880023    1    1    2    0    0 -0.14528207054E+03  0.76792014661E+02 -0.58974913781E+03  0.89923197527E+03  0.65864270000E+03 0. -1.
    8880022    1    1    2    0    0  0.14528207054E+03 -0.76792014661E+02  0.10192618004E+04  0.10436906459E+04  0.15294330000E+03 0.  0.
<mgrwt>
<rscale>  0 0.51477942E+03</rscale>
<asrwt>0</asrwt>
<pdfrwt beam="1">  1        2 0.11641615E+00 0.67883290E+03</pdfrwt>
<pdfrwt beam="2">  1       -2 0.18249502E+00 0.67883290E+03</pdfrwt>
<totfact> 0.66443949E+00</totfact>
</mgrwt>
</event>
<event>
 4    2  0.3171963E-007  0.6758790E+03  0.7818608E-02  0.1011758E+00
          2   -1    0    0  501    0  0.00000000000E+00  0.00000000000E+00  0.62582993969E+03  0.62582993970E+03  0.25500000000E-02 0. -1.
         -2   -1    0    0    0  501 -0.00000000000E+00 -0.00000000000E+00 -0.52099542131E+03  0.52099542131E+03  0.25500000000E-02 0.  1.
    8880023    1    1    2    0    0  0.13150172382E+03 -0.75560970450E+02  0.39699619112E+03  0.78384842007E+03  0.65864270000E+03 0. -1.
    8880022    1    1    2    0    0 -0.13150172382E+03  0.75560970450E+02 -0.29216167273E+03  0.36297694094E+03  0.15294330000E+03 0.  0.
<mgrwt>
<rscale>  0 0.50781931E+03</rscale>
<asrwt>0</asrwt>
<pdfrwt beam="1">  1        2 0.96281529E-01 0.67587896E+03</pdfrwt>
<pdfrwt beam="2">  1       -2 0.80153142E-01 0.67587896E+03</pdfrwt>
<totfact> 0.65974534E+01</totfact>
</mgrwt>
</event>
<event>
 4    2  0.3171963E-007  0.7892883E+03  0.7818608E-02  0.9734454E-01
          2   -1    0    0  501    0  0.00000000000E+00  0.00000000000E+00  0.13773166521E+04  0.13773166521E+04  0.25500000000E-02 0. -1.
         -2   -1    0    0    0  501 -0.00000000000E+00 -0.00000000000E+00 -0.37698827154E+03  0.37698827154E+03  0.25500000000E-02 0.  1.
    8880023    1    1    2    0    0  0.40958701686E+03  0.14630223999E+03  0.10237305250E+04  0.12926717541E+04  0.65864270000E+03 0.  0.
    8880022    1    1    2    0    0 -0.40958701686E+03 -0.14630223999E+03 -0.23402144452E+02  0.46163316951E+03  0.15294330000E+03 0.  0.
<mgrwt>
<rscale>  0 0.69001944E+03</rscale>
<asrwt>0</asrwt>
<pdfrwt beam="1">  1        2 0.21189487E+00 0.78928834E+03</pdfrwt>
<pdfrwt beam="2">  1       -2 0.57998196E-01 0.78928834E+03</pdfrwt>
<totfact> 0.42168311E+01</totfact>
</mgrwt>
</event>
<event>
 4    2  0.3171963E-007  0.6930694E+03  0.7818608E-02  0.1002727E+00
          2   -1    0    0  501    0  0.00000000000E+00  0.00000000000E+00  0.19723964599E+04  0.19723964599E+04  0.25500000000E-02 0. -1.
         -2   -1    0    0    0  501 -0.00000000000E+00 -0.00000000000E+00 -0.11622786036E+03  0.11622786039E+03  0.25500000000E-02 0.  1.
    8880023    1    1    2    0    0 -0.20242620067E+03  0.74556301611E+02  0.13562620916E+04  0.15230863653E+04  0.65864270000E+03 0.  0.
    8880022    1    1    2    0    0  0.20242620067E+03 -0.74556301611E+02  0.49990650799E+03  0.56553795503E+03  0.15294330000E+03 0.  1.
<mgrwt>
<rscale>  0 0.54470693E+03</rscale>
<asrwt>0</asrwt>
<pdfrwt beam="1">  1        2 0.30344561E+00 0.69306942E+03</pdfrwt>
<pdfrwt beam="2">  1       -2 0.17881209E-01 0.69306942E+03</pdfrwt>
<totfact> 0.18474794E+02</totfact>
</mgrwt>
</event>
<event>
 4    2  0.3171963E-007  0.7565057E+03  0.7818608E-02  0.9814239E-01
          2   -1    0    0  501    0  0.00000000000E+00  0.00000000000E+00  0.98079421641E+03  0.98079421641E+03  0.25500000000E-02 0. -1.
         -2   -1    0    0    0  501 -0.00000000000E+00 -0.00000000000E+00 -0.93302247843E+03  0.93302247843E+03  0.25500000000E-02 0.  1.
    8880023    1    1    2    0    0  0.33123358974E+03 -0.16963171146E+03  0.77480514345E+03  0.10828775670E+04  0.65864270000E+03 0. -1.
    8880022    1    1    2    0    0 -0.33123358974E+03  0.16963171146E+03 -0.72703340547E+03  0.83093912785E+03  0.15294330000E+03 0.  0.
<mgrwt>
<rscale>  0 0.64603946E+03</rscale>
<asrwt>0</asrwt>
<pdfrwt beam="1">  1        2 0.15089142E+00 0.75650566E+03</pdfrwt>
<pdfrwt beam="2">  1       -2 0.14354192E+00 0.75650566E+03</pdfrwt>
<totfact> 0.88693249E+00</totfact>
</mgrwt>
</event>
<event>
 4    2  0.3171963E-007  0.6914607E+03  0.7818608E-02  0.1003466E+00
         -2   -1    0    0    0  501 -0.00000000000E+00  0.00000000000E+00  0.47671075505E+03  0.47671075505E+03  0.25500000000E-02 0.  1.
          2   -1    0    0  501    0  0.00000000000E+00 -0.00000000000E+00 -0.49172360091E+03  0.49172360092E+03  0.25500000000E-02 0. -1.
    8880023    1    1    2    0    0 -0.30684930423E+01  0.21047147791E+03 -0.90882205880E+02  0.69740765716E+03  0.65864270000E+03 0.  0.
    8880022    1    1    2    0    0  0.30684930423E+01 -0.21047147791E+03  0.75869360016E+02  0.27102669881E+03  0.15294330000E+03 0.  0.
<mgrwt>
<rscale>  0 0.54156258E+03</rscale>
<asrwt>0</asrwt>
<pdfrwt beam="1">  1        2 0.75649784E-01 0.69146067E+03</pdfrwt>
<pdfrwt beam="2">  1       -2 0.73340117E-01 0.69146067E+03</pdfrwt>
<totfact> 0.10683455E+02</totfact>
</mgrwt>
</event>
<event>
 4    2  0.3171963E-007  0.6600076E+03  0.7818608E-02  0.1024149E+00
          2   -1    0    0  501    0  0.00000000000E+00  0.00000000000E+00  0.58290439192E+03  0.58290439192E+03  0.25500000000E-02 0. -1.
         -2   -1    0    0    0  501 -0.00000000000E+00 -0.00000000000E+00 -0.31859812457E+03  0.31859812458E+03  0.25500000000E-02 0.  1.
    8880023    1    1    2    0    0 -0.13684290402E+02 -0.40157138136E+02  0.31974522482E+03  0.73338057692E+03  0.65864270000E+03 0. -1.
    8880022    1    1    2    0    0  0.13684290402E+02  0.40157138136E+02 -0.55438957469E+02  0.16812193958E+03  0.15294330000E+03 0.  1.
<mgrwt>
<rscale>  0 0.46218781E+03</rscale>
<asrwt>0</asrwt>
<pdfrwt beam="1">  1        2 0.89677599E-01 0.66000762E+03</pdfrwt>
<pdfrwt beam="2">  1       -2 0.49015096E-01 0.66000762E+03</pdfrwt>
<totfact> 0.20513413E+02</totfact>
</mgrwt>
</event>
<event>
 4    2  0.3171963E-007  0.7316162E+03  0.7818608E-02  0.9885078E-01
         -2   -1    0    0    0  501 -0.00000000000E+00  0.00000000000E+00  0.11412615209E+04  0.11412615209E+04  0.25500000000E-02 0.  1.
          2   -1    0    0  501    0  0.00000000000E+00 -0.00000000000E+00 -0.26373480294E+03  0.26373480295E+03  0.25500000000E-02 0. -1.
    8880023    1    1    2    0    0  0.21707002779E+03  0.23309352599E+03  0.48985910362E+03  0.88046813485E+03  0.65864270000E+03 0.  0.
    8880022    1    1    2    0    0 -0.21707002779E+03 -0.23309352599E+03  0.38766761432E+03  0.52452818897E+03  0.15294330000E+03 0. -1.
<mgrwt>
<rscale>  0 0.60989949E+03</rscale>
<asrwt>0</asrwt>
<pdfrwt beam="1">  1        2 0.40574585E-01 0.73161615E+03</pdfrwt>
<pdfrwt beam="2">  1       -2 0.17557870E+00 0.73161615E+03</pdfrwt>
<totfact> 0.25047399E+01</totfact>
</mgrwt>
</event>
<event>
 4    2  0.3171963E-007  0.8424774E+03  0.7818608E-02  0.9625526E-01
         -2   -1    0    0    0  501 -0.00000000000E+00  0.00000000000E+00  0.39522188913E+03  0.39522188914E+03  0.25500000000E-02 0.  1.
          2   -1    0    0  501    0  0.00000000000E+00 -0.00000000000E+00 -0.25298869261E+04  0.25298869261E+04  0.25500000000E-02 0. -1.
    8880023    1    1    2    0    0 -0.52049279053E+03  0.71029660571E+02 -0.22171307892E+04  0.23718003922E+04  0.65864270000E+03 0. -1.
    8880022    1    1    2    0    0  0.52049279053E+03 -0.71029660571E+02  0.82465752269E+02  0.55330842302E+03  0.15294330000E+03 0.  0.
<mgrwt>
<rscale>  0 0.75629465E+03</rscale>
<asrwt>0</asrwt>
<pdfrwt beam="1">  1        2 0.38921336E+00 0.84247740E+03</pdfrwt>
<pdfrwt beam="2">  1       -2 0.60803369E-01 0.84247740E+03</pdfrwt>
<totfact> 0.87107990E+00</totfact>
</mgrwt>
</event>
<event>
 4    2  0.3171963E-007  0.7525893E+03  0.7818608E-02  0.9824685E-01
         -2   -1    0    0    0  501 -0.00000000000E+00  0.00000000000E+00  0.24808472509E+03  0.24808472510E+03  0.25500000000E-02 0.  1.
          2   -1    0    0  501    0  0.00000000000E+00 -0.00000000000E+00 -0.15318502512E+04  0.15318502512E+04  0.25500000000E-02 0. -1.
    8880023    1    1    2    0    0  0.28652801190E+03 -0.22468216647E+03 -0.11266619471E+04  0.13549013717E+04  0.65864270000E+03 0. -1.
    8880022    1    1    2    0    0 -0.28652801190E+03  0.22468216647E+03 -0.15710357897E+03  0.42503360464E+03  0.15294330000E+03 0.  0.
<mgrwt>
<rscale>  0 0.64054456E+03</rscale>
<asrwt>0</asrwt>
<pdfrwt beam="1">  1        2 0.23566926E+00 0.75258925E+03</pdfrwt>
<pdfrwt beam="2">  1       -2 0.38166882E-01 0.75258925E+03</pdfrwt>
<totfact> 0.80487809E+01</totfact>
</mgrwt>
</event>
<event>
 4    2  0.3171963E-007  0.8337220E+03  0.7818608E-02  0.9642133E-01
         -2   -1    0    0    0  501 -0.00000000000E+00  0.00000000000E+00  0.55183252661E+03  0.55183252662E+03  0.25500000000E-02 0.  1.
          2   -1    0    0  501    0  0.00000000000E+00 -0.00000000000E+00 -0.12167994997E+04  0.12167994997E+04  0.25500000000E-02 0. -1.
    8880023    1    1    2    0    0  0.72234646326E+02  0.50602803118E+03 -0.86260216198E+03  0.11996561627E+04  0.65864270000E+03 0. -1.
    8880022    1    1    2    0    0 -0.72234646326E+02 -0.50602803118E+03  0.19763518894E+03  0.56897586362E+03  0.15294330000E+03 0.  0.
<mgrwt>
<rscale>  0 0.74569187E+03</rscale>
<asrwt>0</asrwt>
<pdfrwt beam="1">  1        2 0.18719992E+00 0.83372203E+03</pdfrwt>
<pdfrwt beam="2">  1       -2 0.84897312E-01 0.83372203E+03</pdfrwt>
<totfact> 0.22594470E+01</totfact>
</mgrwt>
</event>
<event>
 4    2  0.3171963E-007  0.8078919E+03  0.7818608E-02  0.9693985E-01
          2   -1    0    0  501    0  0.00000000000E+00  0.00000000000E+00  0.30067510086E+04  0.30067510086E+04  0.25500000000E-02 0. -1.
         -2   -1    0    0    0  501 -0.00000000000E+00 -0.00000000000E+00 -0.31352563359E+03  0.31352563360E+03  0.25500000000E-02 0.  1.
    8880023    1    1    2    0    0  0.16023552274E+03 -0.43954942483E+03  0.27099206878E+04  0.28277834889E+04  0.65864270000E+03 0. -1.
    8880022    1    1    2    0    0 -0.16023552274E+03  0.43954942483E+03 -0.16695312741E+02  0.49249315335E+03  0.15294330000E+03 0.  0.
<mgrwt>
<rscale>  0 0.71376060E+03</rscale>
<asrwt>0</asrwt>
<pdfrwt beam="1">  1        2 0.46257706E+00 0.80789190E+03</pdfrwt>
<pdfrwt beam="2">  1       -2 0.48234715E-01 0.80789190E+03</pdfrwt>
<totfact> 0.73988011E+00</totfact>
</mgrwt>
</event>
<event>
 4    2  0.3171963E-007  0.1032429E+04  0.7818608E-02  0.9340308E-01
          2   -1    0    0  501    0  0.00000000000E+00  0.00000000000E+00  0.67087882279E+03  0.67087882279E+03  0.25500000000E-02 0. -1.
         -2   -1    0    0    0  501 -0.00000000000E+00 -0.00000000000E+00 -0.18014154720E+04  0.18014154720E+04  0.25500000000E-02 0.  1.
    8880023    1    1    2    0    0 -0.53519358786E+03  0.58793536688E+03  0.58163317204E+02  0.10340664146E+04  0.65864270000E+03 0.  0.
    8880022    1    1    2    0    0  0.53519358786E+03 -0.58793536688E+03 -0.11886999664E+04  0.14382278802E+04  0.15294330000E+03 0.  0.
<mgrwt>
<rscale>  0 0.97155227E+03</rscale>
<asrwt>0</asrwt>
<pdfrwt beam="1">  1        2 0.10321213E+00 0.10324294E+04</pdfrwt>
<pdfrwt beam="2">  1       -2 0.27714084E+00 0.10324294E+04</pdfrwt>
<totfact> 0.18915900E+00</totfact>
</mgrwt>
</event>
<event>
 4    2  0.3171963E-007  0.7458334E+03  0.7818608E-02  0.9843269E-01
          2   -1    0    0  501    0  0.00000000000E+00  0.00000000000E+00  0.20668797586E+04  0.20668797586E+04  0.25500000000E-02 0. -1.
         -2   -1    0    0    0  501 -0.00000000000E+00 -0.00000000000E+00 -0.29115744651E+03  0.29115744652E+03  0.25500000000E-02 0.  1.
    8880023    1    1    2    0    0 -0.31993983960E+03  0.14175943875E+03  0.18263729638E+04  0.19727913343E+04  0.65864270000E+03 0. -1.
    8880022    1    1    2    0    0  0.31993983960E+03 -0.14175943875E+03 -0.50650651756E+02  0.38524587081E+03  0.15294330000E+03 0.  0.
<mgrwt>
<rscale>  0 0.63091268E+03</rscale>
<asrwt>0</asrwt>
<pdfrwt beam="1">  1        2 0.31798149E+00 0.74583339E+03</pdfrwt>
<pdfrwt beam="2">  1       -2 0.44793454E-01 0.74583339E+03</pdfrwt>
<totfact> 0.29980304E+01</totfact>
</mgrwt>
</event>
<event>
 4    2  0.3171963E-007  0.7244813E+03  0.7818608E-02  0.9907704E-01
          2   -1    0    0  501    0  0.00000000000E+00  0.00000000000E+00  0.10149763854E+04  0.10149763854E+04  0.25500000000E-02 0. -1.
         -2   -1    0    0    0  501 -0.00000000000E+00 -0.00000000000E+00 -0.58356710804E+03  0.58356710805E+03  0.25500000000E-02 0.  1.
    8880023    1    1    2    0    0  0.16235988862E+03 -0.25436633920E+03  0.81274102973E+03  0.10887704789E+04  0.65864270000E+03 0. -1.
    8880022    1    1    2    0    0 -0.16235988862E+03  0.25436633920E+03 -0.38133175242E+03  0.50977301456E+03  0.15294330000E+03 0.  0.
<mgrwt>
<rscale>  0 0.59889344E+03</rscale>
<asrwt>0</asrwt>
<pdfrwt beam="1">  1        2 0.15615021E+00 0.72448131E+03</pdfrwt>
<pdfrwt beam="2">  1       -2 0.89779556E-01 0.72448131E+03</pdfrwt>
<totfact> 0.26683761E+01</totfact>
</mgrwt>
</event>
<event>
 4    2  0.3171963E-007  0.8651249E+03  0.7818608E-02  0.9584511E-01
          2   -1    0    0  501    0  0.00000000000E+00  0.00000000000E+00  0.14714855282E+04  0.14714855282E+04  0.25500000000E-02 0. -1.
         -2   -1    0    0    0  501 -0.00000000000E+00 -0.00000000000E+00 -0.96668411597E+03  0.96668411597E+03  0.25500000000E-02 0.  1.
    8880023    1    1    2    0    0  0.53657914493E+03  0.16344320712E+03  0.12330721035E+04  0.15062894408E+04  0.65864270000E+03 0. -1.
    8880022    1    1    2    0    0 -0.53657914493E+03 -0.16344320712E+03 -0.72827069126E+03  0.93188020340E+03  0.15294330000E+03 0.  0.
<mgrwt>
<rscale>  0 0.78329852E+03</rscale>
<asrwt>0</asrwt>
<pdfrwt beam="1">  1        2 0.22638239E+00 0.86512489E+03</pdfrwt>
<pdfrwt beam="2">  1       -2 0.14872063E+00 0.86512489E+03</pdfrwt>
<totfact> 0.40749608E+00</totfact>
</mgrwt>
</event>
<event>
 4    2  0.3171963E-007  0.8011982E+03  0.7818608E-02  0.9708211E-01
         -2   -1    0    0    0  501 -0.00000000000E+00  0.00000000000E+00  0.21333546793E+04  0.21333546793E+04  0.25500000000E-02 0.  1.
          2   -1    0    0  501    0  0.00000000000E+00 -0.00000000000E+00 -0.22630059141E+03  0.22630059143E+03  0.25500000000E-02 0. -1.
    8880023    1    1    2    0    0  0.25730063947E+03 -0.37670247361E+03  0.71379034989E+03  0.10730401868E+04  0.65864270000E+03 0.  0.
    8880022    1    1    2    0    0 -0.25730063947E+03  0.37670247361E+03  0.11932637380E+04  0.12866150839E+04  0.15294330000E+03 0.  0.
<mgrwt>
<rscale>  0 0.70529996E+03</rscale>
<asrwt>0</asrwt>
<pdfrwt beam="1">  1        2 0.34815474E-01 0.80119821E+03</pdfrwt>
<pdfrwt beam="2">  1       -2 0.32820842E+00 0.80119821E+03</pdfrwt>
<totfact> 0.33288808E+00</totfact>
</mgrwt>
</event>
<event>
 4    2  0.3171963E-007  0.6670633E+03  0.7818608E-02  0.1017862E+00
         -2   -1    0    0    0  501 -0.00000000000E+00  0.00000000000E+00  0.11579010212E+04  0.11579010212E+04  0.25500000000E-02 0.  1.
          2   -1    0    0  501    0  0.00000000000E+00 -0.00000000000E+00 -0.73437429924E+03  0.73437429925E+03  0.25500000000E-02 0. -1.
    8880023    1    1    2    0    0  0.10528248176E+03 -0.88780188974E+01 -0.57250016724E+03  0.87905054914E+03  0.65864270000E+03 0.  0.
    8880022    1    1    2    0    0 -0.10528248176E+03  0.88780188974E+01  0.99602688915E+03  0.10132247713E+04  0.15294330000E+03 0.  1.
<mgrwt>
<rscale>  0 0.48466197E+03</rscale>
<asrwt>0</asrwt>
<pdfrwt beam="1">  1        2 0.11298066E+00 0.66706329E+03</pdfrwt>
<pdfrwt beam="2">  1       -2 0.17813862E+00 0.66706329E+03</pdfrwt>
<totfact> 0.74075301E+00</totfact>
</mgrwt>
</event>
<event>
 4    2  0.3171963E-007  0.6873506E+03  0.7818608E-02  0.1005438E+00
          2   -1    0    0  501    0  0.00000000000E+00  0.00000000000E+00  0.13261805949E+04  0.13261805949E+04  0.25500000000E-02 0. -1.
         -2   -1    0    0    0  501 -0.00000000000E+00 -0.00000000000E+00 -0.66376582396E+03  0.66376582397E+03  0.25500000000E-02 0.  1.
    8880023    1    1    2    0    0  0.17953580208E+03 -0.80046668818E+02  0.12081904695E+04  0.13900269746E+04  0.65864270000E+03 0. -1.
    8880022    1    1    2    0    0 -0.17953580208E+03  0.80046668818E+02 -0.54577569855E+03  0.59991944422E+03  0.15294330000E+03 0.  0.
<mgrwt>
<rscale>  0 0.53328686E+03</rscale>
<asrwt>0</asrwt>
<pdfrwt beam="1">  1        2 0.20402778E+00 0.68735055E+03</pdfrwt>
<pdfrwt beam="2">  1       -2 0.10211782E+00 0.68735055E+03</pdfrwt>
<totfact> 0.12916272E+01</totfact>
</mgrwt>
</event>
<event>
 4    2  0.3171963E-007  0.7553480E+03  0.7818608E-02  0.9817303E-01
          2   -1    0    0  501    0  0.00000000000E+00  0.00000000000E+00  0.16559499993E+04  0.16559499993E+04  0.25500000000E-02 0. -1.
         -2   -1    0    0    0  501 -0.00000000000E+00 -0.00000000000E+00 -0.33454048399E+03  0.33454048400E+03  0.25500000000E-02 0.  1.
    8880023    1    1    2    0    0  0.34284738316E+03 -0.13854961343E+03  0.13923918512E+04  0.15840787850E+04  0.65864270000E+03 0. -1.
    8880022    1    1    2    0    0 -0.34284738316E+03  0.13854961343E+03 -0.70982335867E+02  0.40641169833E+03  0.15294330000E+03 0.  0.
<mgrwt>
<rscale>  0 0.64442154E+03</rscale>
<asrwt>0</asrwt>
<pdfrwt beam="1">  1        2 0.25476153E+00 0.75534795E+03</pdfrwt>
<pdfrwt beam="2">  1       -2 0.51467768E-01 0.75534795E+03</pdfrwt>
<totfact> 0.37919424E+01</totfact>
</mgrwt>
</event>
<event>
 4    2  0.3171963E-007  0.6974636E+03  0.7818608E-02  0.1000789E+00
         -2   -1    0    0    0  501 -0.00000000000E+00  0.00000000000E+00  0.20303066001E+04  0.20303066001E+04  0.25500000000E-02 0.  1.
          2   -1    0    0  501    0  0.00000000000E+00 -0.00000000000E+00 -0.48221929392E+03  0.48221929392E+03  0.25500000000E-02 0. -1.
    8880023    1    1    2    0    0 -0.89917276866E+02 -0.21109287509E+03 -0.21356094543E+03  0.72942703697E+03  0.65864270000E+03 0. -1.
    8880022    1    1    2    0    0  0.89917276866E+02  0.21109287509E+03  0.17616482516E+04  0.17830988570E+04  0.15294330000E+03 0.  0.
<mgrwt>
<rscale>  0 0.55305622E+03</rscale>
<asrwt>0</asrwt>
<pdfrwt beam="1">  1        2 0.74187583E-01 0.69746364E+03</pdfrwt>
<pdfrwt beam="2">  1       -2 0.31235486E+00 0.69746364E+03</pdfrwt>
<totfact> 0.18062640E+00</totfact>
</mgrwt>
</event>
<event>
 4    2  0.3171963E-007  0.9305239E+03  0.7818608E-02  0.9478708E-01
         -2   -1    0    0    0  501 -0.00000000000E+00  0.00000000000E+00  0.10380272069E+04  0.10380272069E+04  0.25500000000E-02 0.  1.
          2   -1    0    0  501    0  0.00000000000E+00 -0.00000000000E+00 -0.19033454100E+04  0.19033454100E+04  0.25500000000E-02 0. -1.
    8880023    1    1    2    0    0 -0.43131959065E+03  0.49601194081E+03 -0.16574136530E+04  0.19007615995E+04  0.65864270000E+03 0. -1.
    8880022    1    1    2    0    0  0.43131959065E+03 -0.49601194081E+03  0.79209544995E+03  0.10406110174E+04  0.15294330000E+03 0.  0.
<mgrwt>
<rscale>  0 0.85871974E+03</rscale>
<asrwt>0</asrwt>
<pdfrwt beam="1">  1        2 0.29282237E+00 0.93052385E+03</pdfrwt>
<pdfrwt beam="2">  1       -2 0.15969649E+00 0.93052385E+03</pdfrwt>
<totfact> 0.19262787E+00</totfact>
</mgrwt>
</event>
<event>
 4    2  0.3171963E-007  0.7015096E+03  0.7818608E-02  0.9990996E-01
          2   -1    0    0  501    0  0.00000000000E+00  0.00000000000E+00  0.26883852018E+03  0.26883852019E+03  0.25500000000E-02 0. -1.
         -2   -1    0    0    0  501 -0.00000000000E+00 -0.00000000000E+00 -0.15599155690E+04  0.15599155690E+04  0.25500000000E-02 0.  1.
    8880023    1    1    2    0    0  0.19852644119E+03 -0.13745084522E+03 -0.24300546430E+03  0.74240645515E+03  0.65864270000E+03 0. -1.
    8880022    1    1    2    0    0 -0.19852644119E+03  0.13745084522E+03 -0.10480715845E+04  0.10863476341E+04  0.15294330000E+03 0.  0.
<mgrwt>
<rscale>  0 0.56046831E+03</rscale>
<asrwt>0</asrwt>
<pdfrwt beam="1">  1        2 0.41359773E-01 0.70150958E+03</pdfrwt>
<pdfrwt beam="2">  1       -2 0.23998701E+00 0.70150958E+03</pdfrwt>
<totfact> 0.94691627E+00</totfact>
</mgrwt>
</event>
<event>
 4    2  0.3171963E-007  0.8846906E+03  0.7818608E-02  0.9551069E-01
         -2   -1    0    0    0  501 -0.00000000000E+00  0.00000000000E+00  0.62692516342E+03  0.62692516342E+03  0.25500000000E-02 0.  1.
          2   -1    0    0  501    0  0.00000000000E+00 -0.00000000000E+00 -0.16243371661E+04  0.16243371661E+04  0.25500000000E-02 0. -1.
    8880023    1    1    2    0    0  0.51049628176E+03  0.29708729965E+03 -0.12982242601E+04  0.15710072416E+04  0.65864270000E+03 0. -1.
    8880022    1    1    2    0    0 -0.51049628176E+03 -0.29708729965E+03  0.30081225750E+03  0.68025508788E+03  0.15294330000E+03 0.  1.
<mgrwt>
<rscale>  0 0.80621193E+03</rscale>
<asrwt>0</asrwt>
<pdfrwt beam="1">  1        2 0.24989803E+00 0.88469064E+03</pdfrwt>
<pdfrwt beam="2">  1       -2 0.96450025E-01 0.88469064E+03</pdfrwt>
<totfact> 0.98135298E+00</totfact>
</mgrwt>
</event>
<event>
 4    2  0.3171963E-007  0.7879429E+03  0.7818608E-02  0.9737499E-01
          2   -1    0    0  501    0  0.00000000000E+00  0.00000000000E+00  0.86570440325E+03  0.86570440326E+03  0.25500000000E-02 0. -1.
         -2   -1    0    0    0  501 -0.00000000000E+00 -0.00000000000E+00 -0.63057192588E+03  0.63057192589E+03  0.25500000000E-02 0.  1.
    8880023    1    1    2    0    0 -0.42891219278E+03  0.55480262336E+02  0.53121940360E+03  0.95028837184E+03  0.65864270000E+03 0. -1.
    8880022    1    1    2    0    0  0.42891219278E+03 -0.55480262336E+02 -0.29608692622E+03  0.54598795731E+03  0.15294330000E+03 0.  0.
<mgrwt>
<rscale>  0 0.68827324E+03</rscale>
<asrwt>0</asrwt>
<pdfrwt beam="1">  1        2 0.13318529E+00 0.78794285E+03</pdfrwt>
<pdfrwt beam="2">  1       -2 0.97011065E-01 0.78794285E+03</pdfrwt>
<totfact> 0.27774497E+01</totfact>
</mgrwt>
</event>
<event>
 4    2  0.3171963E-007  0.7314230E+03  0.7818608E-02  0.9885675E-01
         -2   -1    0    0    0  501 -0.00000000000E+00  0.00000000000E+00  0.92507899937E+03  0.92507899938E+03  0.25500000000E-02 0.  1.
          2   -1    0    0  501    0  0.00000000000E+00 -0.00000000000E+00 -0.12775791611E+04  0.12775791611E+04  0.25500000000E-02 0. -1.
    8880023    1    1    2    0    0 -0.63975411844E+02 -0.31157118087E+03 -0.11315671361E+04  0.13473766526E+04  0.65864270000E+03 0. -1.
    8880022    1    1    2    0    0  0.63975411844E+02  0.31157118087E+03  0.77906697442E+03  0.85528150788E+03  0.15294330000E+03 0.  0.
<mgrwt>
<rscale>  0 0.60960607E+03</rscale>
<asrwt>0</asrwt>
<pdfrwt beam="1">  1        2 0.19655064E+00 0.73142304E+03</pdfrwt>
<pdfrwt beam="2">  1       -2 0.14231985E+00 0.73142304E+03</pdfrwt>
<totfact> 0.60079158E+00</totfact>
</mgrwt>
</event>
<event>
 4    2  0.3171963E-007  0.6892439E+03  0.7818608E-02  0.1004514E+00
         -2   -1    0    0    0  501 -0.00000000000E+00  0.00000000000E+00  0.23596454622E+03  0.23596454623E+03  0.25500000000E-02 0.  1.
          2   -1    0    0  501    0  0.00000000000E+00 -0.00000000000E+00 -0.98064424215E+03  0.98064424216E+03  0.25500000000E-02 0. -1.
    8880023    1    1    2    0    0 -0.20309341128E+03  0.11260060345E+00 -0.64358609369E+03  0.94300594518E+03  0.65864270000E+03 0. -1.
    8880022    1    1    2    0    0  0.20309341128E+03 -0.11260060345E+00 -0.10109360225E+03  0.27360284321E+03  0.15294330000E+03 0.  0.
<mgrwt>
<rscale>  0 0.53714457E+03</rscale>
<asrwt>0</asrwt>
<pdfrwt beam="1">  1        2 0.15086834E+00 0.68924390E+03</pdfrwt>
<pdfrwt beam="2">  1       -2 0.36302238E-01 0.68924390E+03</pdfrwt>
<totfact> 0.18776560E+02</totfact>
</mgrwt>
</event>
<event>
 4    2  0.3171963E-007  0.7354741E+03  0.7818608E-02  0.9873332E-01
          2   -1    0    0  501    0  0.00000000000E+00  0.00000000000E+00  0.95442077448E+03  0.95442077448E+03  0.25500000000E-02 0. -1.
         -2   -1    0    0    0  501 -0.00000000000E+00 -0.00000000000E+00 -0.64166840919E+03  0.64166840920E+03  0.25500000000E-02 0.  1.
    8880023    1    1    2    0    0 -0.28678313511E+02 -0.32602074753E+03  0.73541726566E+03  0.10400772733E+04  0.65864270000E+03 0. -1.
    8880022    1    1    2    0    0  0.28678313511E+02  0.32602074753E+03 -0.42266490038E+03  0.55601191040E+03  0.15294330000E+03 0.  0.
<mgrwt>
<rscale>  0 0.61571306E+03</rscale>
<asrwt>0</asrwt>
<pdfrwt beam="1">  1        2 0.14683396E+00 0.73547412E+03</pdfrwt>
<pdfrwt beam="2">  1       -2 0.98718217E-01 0.73547412E+03</pdfrwt>
<totfact> 0.23364952E+01</totfact>
</mgrwt>
</event>
<event>
 4    2  0.3171963E-007  0.7420228E+03  0.7818608E-02  0.9854094E-01
         -2   -1    0    0    0  501 -0.00000000000E+00  0.00000000000E+00  0.55922813126E+03  0.55922813126E+03  0.25500000000E-02 0.  1.
          2   -1    0    0  501    0  0.00000000000E+00 -0.00000000000E+00 -0.81469686337E+03  0.81469686337E+03  0.25500000000E-02 0. -1.
    8880023    1    1    2    0    0  0.77944499539E+02 -0.33273457120E+03 -0.52811186293E+03  0.91076889819E+03  0.65864270000E+03 0.  0.
    8880022    1    1    2    0    0 -0.77944499539E+02  0.33273457120E+03  0.27264313082E+03  0.46315609645E+03  0.15294330000E+03 0.  0.
<mgrwt>
<rscale>  0 0.62538639E+03</rscale>
<asrwt>0</asrwt>
<pdfrwt beam="1">  1        2 0.12533798E+00 0.74202281E+03</pdfrwt>
<pdfrwt beam="2">  1       -2 0.86035097E-01 0.74202281E+03</pdfrwt>
<totfact> 0.39981104E+01</totfact>
</mgrwt>
</event>
<event>
 4    2  0.3171963E-007  0.9561056E+03  0.7818608E-02  0.9441383E-01
         -2   -1    0    0    0  501 -0.00000000000E+00  0.00000000000E+00  0.29936471458E+03  0.29936471459E+03  0.25500000000E-02 0.  1.
          2   -1    0    0  501    0  0.00000000000E+00 -0.00000000000E+00 -0.35692681229E+04  0.35692681229E+04  0.25500000000E-02 0. -1.
    8880023    1    1    2    0    0  0.45259835691E+03  0.52486416602E+03 -0.29293348597E+04  0.30814186006E+04  0.65864270000E+03 0. -1.
    8880022    1    1    2    0    0 -0.45259835691E+03 -0.52486416602E+03 -0.34056854859E+03  0.78721423688E+03  0.15294330000E+03 0.  0.
<mgrwt>
<rscale>  0 0.88746853E+03</rscale>
<asrwt>0</asrwt>
<pdfrwt beam="1">  1        2 0.54911814E+00 0.95610558E+03</pdfrwt>
<pdfrwt beam="2">  1       -2 0.46056113E-01 0.95610558E+03</pdfrwt>
<totfact> 0.33987234E+00</totfact>
</mgrwt>
</event>
<event>
 4    2  0.3171963E-007  0.1261009E+04  0.7818608E-02  0.9099984E-01
          2   -1    0    0  501    0  0.00000000000E+00  0.00000000000E+00  0.18572165947E+04  0.18572165947E+04  0.25500000000E-02 0. -1.
         -2   -1    0    0    0  501 -0.00000000000E+00 -0.00000000000E+00 -0.98025663881E+03  0.98025663881E+03  0.25500000000E-02 0.  1.
    8880023    1    1    2    0    0  0.97674705352E+03 -0.44977678846E+03  0.11617707466E+04  0.17146006649E+04  0.65864270000E+03 0. -1.
    8880022    1    1    2    0    0 -0.97674705352E+03  0.44977678846E+03 -0.28481079070E+03  0.11228725687E+04  0.15294330000E+03 0.  0.
<mgrwt>
<rscale>  0 0.12148183E+04</rscale>
<asrwt>0</asrwt>
<pdfrwt beam="1">  1        2 0.28572563E+00 0.12610092E+04</pdfrwt>
<pdfrwt beam="2">  1       -2 0.15080871E+00 0.12610092E+04</pdfrwt>
<totfact> 0.22891062E+00</totfact>
</mgrwt>
</event>
<event>
 4    2  0.3171963E-007  0.7914438E+03  0.7818608E-02  0.9729611E-01
          2   -1    0    0  501    0  0.00000000000E+00  0.00000000000E+00  0.19151131544E+04  0.19151131544E+04  0.25500000000E-02 0. -1.
         -2   -1    0    0    0  501 -0.00000000000E+00 -0.00000000000E+00 -0.33911044264E+03  0.33911044265E+03  0.25500000000E-02 0.  1.
    8880023    1    1    2    0    0  0.36213248152E+03 -0.24785714240E+03  0.16040317279E+04  0.17886590194E+04  0.65864270000E+03 0. -1.
    8880022    1    1    2    0    0 -0.36213248152E+03  0.24785714240E+03 -0.28029016160E+02  0.46556457766E+03  0.15294330000E+03 0.  0.
<mgrwt>
<rscale>  0 0.69280805E+03</rscale>
<asrwt>0</asrwt>
<pdfrwt beam="1">  1        2 0.29463279E+00 0.79144381E+03</pdfrwt>
<pdfrwt beam="2">  1       -2 0.52170838E-01 0.79144381E+03</pdfrwt>
<totfact> 0.26501521E+01</totfact>
</mgrwt>
</event>
<event>
 4    2  0.3171963E-007  0.6664582E+03  0.7818608E-02  0.1018340E+00
          2   -1    0    0  501    0  0.00000000000E+00  0.00000000000E+00  0.18020679132E+04  0.18020679132E+04  0.25500000000E-02 0. -1.
         -2   -1    0    0    0  501 -0.00000000000E+00 -0.00000000000E+00 -0.11744484675E+03  0.11744484677E+03  0.25500000000E-02 0.  1.
    8880023    1    1    2    0    0 -0.10010180436E+03 -0.18327609378E+02  0.15631013742E+04  0.16992505362E+04  0.65864270000E+03 0. -1.
    8880022    1    1    2    0    0  0.10010180436E+03  0.18327609378E+02  0.12152169217E+03  0.22026222369E+03  0.15294330000E+03 0.  0.
<mgrwt>
<rscale>  0 0.48290372E+03</rscale>
<asrwt>0</asrwt>
<pdfrwt beam="1">  1        2 0.27724123E+00 0.66645816E+03</pdfrwt>
<pdfrwt beam="2">  1       -2 0.18068437E-01 0.66645816E+03</pdfrwt>
<totfact> 0.22512214E+02</totfact>
</mgrwt>
</event>
<event>
 4    2  0.3171963E-007  0.7409703E+03  0.7818608E-02  0.9857130E-01
         -2   -1    0    0    0  501 -0.00000000000E+00  0.00000000000E+00  0.36925081716E+03  0.36925081717E+03  0.25500000000E-02 0.  1.
          2   -1    0    0  501    0  0.00000000000E+00 -0.00000000000E+00 -0.19086142112E+04  0.19086142112E+04  0.25500000000E-02 0. -1.
    8880023    1    1    2    0    0 -0.19353725967E+02  0.33889844016E+03 -0.17134941688E+04  0.18668420373E+04  0.65864270000E+03 0.  0.
    8880022    1    1    2    0    0  0.19353725967E+02 -0.33889844016E+03  0.17413077476E+03  0.41102299107E+03  0.15294330000E+03 0.  0.
<mgrwt>
<rscale>  0 0.62384713E+03</rscale>
<asrwt>0</asrwt>
<pdfrwt beam="1">  1        2 0.29363295E+00 0.74097026E+03</pdfrwt>
<pdfrwt beam="2">  1       -2 0.56807819E-01 0.74097026E+03</pdfrwt>
<totfact> 0.22543525E+01</totfact>
</mgrwt>
</event>
<event>
 4    2  0.3171963E-007  0.7251014E+03  0.7818608E-02  0.9905688E-01
         -2   -1    0    0    0  501 -0.00000000000E+00  0.00000000000E+00  0.44061476150E+03  0.44061476151E+03  0.25500000000E-02 0.  1.
          2   -1    0    0  501    0  0.00000000000E+00 -0.00000000000E+00 -0.10363333142E+04  0.10363333142E+04  0.25500000000E-02 0. -1.
    8880023    1    1    2    0    0 -0.23811562817E+02 -0.30231577750E+03 -0.80071598814E+03  0.10802398436E+04  0.65864270000E+03 0. -1.
    8880022    1    1    2    0    0  0.23811562817E+02  0.30231577750E+03  0.20499743543E+03  0.39670823208E+03  0.15294330000E+03 0.  0.
<mgrwt>
<rscale>  0 0.59986412E+03</rscale>
<asrwt>0</asrwt>
<pdfrwt beam="1">  1        2 0.15943589E+00 0.72510139E+03</pdfrwt>
<pdfrwt beam="2">  1       -2 0.67786886E-01 0.72510139E+03</pdfrwt>
<totfact> 0.48472927E+01</totfact>
</mgrwt>
</event>
<event>
 4    2  0.3171963E-007  0.6810435E+03  0.7818608E-02  0.1008739E+00
         -2   -1    0    0    0  501 -0.00000000000E+00  0.00000000000E+00  0.13756898806E+04  0.13756898806E+04  0.25500000000E-02 0.  1.
          2   -1    0    0  501    0  0.00000000000E+00 -0.00000000000E+00 -0.57282646332E+03  0.57282646333E+03  0.25500000000E-02 0. -1.
    8880023    1    1    2    0    0 -0.32860896492E+02 -0.17008866311E+03 -0.35486407030E+03  0.76795097922E+03  0.65864270000E+03 0. -1.
    8880022    1    1    2    0    0  0.32860896492E+02  0.17008866311E+03  0.11577274876E+04  0.11805653647E+04  0.15294330000E+03 0.  0.
<mgrwt>
<rscale>  0 0.51978704E+03</rscale>
<asrwt>0</asrwt>
<pdfrwt beam="1">  1        2 0.88127147E-01 0.68104346E+03</pdfrwt>
<pdfrwt beam="2">  1       -2 0.21164460E+00 0.68104346E+03</pdfrwt>
<totfact> 0.60423344E+00</totfact>
</mgrwt>
</event>
<event>
 4    2  0.3171963E-007  0.7496624E+03  0.7818608E-02  0.9832645E-01
          2   -1    0    0  501    0  0.00000000000E+00  0.00000000000E+00  0.43258623754E+03  0.43258623755E+03  0.25500000000E-02 0. -1.
         -2   -1    0    0    0  501 -0.00000000000E+00 -0.00000000000E+00 -0.10111109850E+04  0.10111109850E+04  0.25500000000E-02 0.  1.
    8880023    1    1    2    0    0 -0.22049716476E+03  0.28207183517E+03 -0.39862895541E+01  0.74967300647E+03  0.65864270000E+03 0.  0.
    8880022    1    1    2    0    0  0.22049716476E+03 -0.28207183517E+03 -0.57453845791E+03  0.69402421607E+03  0.15294330000E+03 0.  0.
<mgrwt>
<rscale>  0 0.63639654E+03</rscale>
<asrwt>0</asrwt>
<pdfrwt beam="1">  1        2 0.66551729E-01 0.74966241E+03</pdfrwt>
<pdfrwt beam="2">  1       -2 0.15555554E+00 0.74966241E+03</pdfrwt>
<totfact> 0.20050685E+01</totfact>
</mgrwt>
</event>
<event>
 4    2  0.3171963E-007  0.7174994E+03  0.7818608E-02  0.9931140E-01
         -2   -1    0    0    0  501 -0.00000000000E+00  0.00000000000E+00  0.45826614122E+03  0.45826614122E+03  0.25500000000E-02 0.  1.
          2   -1    0    0  501    0  0.00000000000E+00 -0.00000000000E+00 -0.72934193954E+03  0.72934193954E+03  0.25500000000E-02 0. -1.
    8880023    1    1    2    0    0 -0.12400532633E+03 -0.25615985765E+03 -0.42049786893E+03  0.83163925934E+03  0.65864270000E+03 0. -1.
    8880022    1    1    2    0    0  0.12400532633E+03  0.25615985765E+03  0.14942207060E+03  0.35596882143E+03  0.15294330000E+03 0.  0.
<mgrwt>
<rscale>  0 0.58775574E+03</rscale>
<asrwt>0</asrwt>
<pdfrwt beam="1">  1        2 0.11220645E+00 0.71749941E+03</pdfrwt>
<pdfrwt beam="2">  1       -2 0.70502483E-01 0.71749941E+03</pdfrwt>
<totfact> 0.72217097E+01</totfact>
</mgrwt>
</event>
<event>
 4    2  0.3171963E-007  0.7071990E+03  0.7818608E-02  0.9968553E-01
         -2   -1    0    0    0  501 -0.00000000000E+00  0.00000000000E+00  0.16206352907E+03  0.16206352909E+03  0.25500000000E-02 0.  1.
          2   -1    0    0  501    0  0.00000000000E+00 -0.00000000000E+00 -0.28374972141E+04  0.28374972141E+04  0.25500000000E-02 0. -1.
    8880023    1    1    2    0    0 -0.23457617216E+03  0.10627413114E+03 -0.25947034871E+04  0.26893524432E+04  0.65864270000E+03 0.  0.
    8880022    1    1    2    0    0  0.23457617216E+03 -0.10627413114E+03 -0.80730197906E+02  0.31020829996E+03  0.15294330000E+03 0.  0.
<mgrwt>
<rscale>  0 0.57050890E+03</rscale>
<asrwt>0</asrwt>
<pdfrwt beam="1">  1        2 0.43653800E+00 0.70719897E+03</pdfrwt>
<pdfrwt beam="2">  1       -2 0.24932853E-01 0.70719897E+03</pdfrwt>
<totfact> 0.33466045E+01</totfact>
</mgrwt>
</event>
<event>
 4    2  0.3171963E-007  0.6931447E+03  0.7818608E-02  0.1002692E+00
          2   -1    0    0  501    0  0.00000000000E+00  0.00000000000E+00  0.11165784552E+04  0.11165784552E+04  0.25500000000E-02 0. -1.
         -2   -1    0    0    0  501 -0.00000000000E+00 -0.00000000000E+00 -0.34417858871E+03  0.34417858872E+03  0.25500000000E-02 0.  1.
    8880023    1    1    2    0    0  0.20809784531E+03  0.57746111362E+02  0.92453088364E+03  0.11555115264E+04  0.65864270000E+03 0. -1.
    8880022    1    1    2    0    0 -0.20809784531E+03 -0.57746111362E+02 -0.15213101711E+03  0.30524551755E+03  0.15294330000E+03 0. -1.
<mgrwt>
<rscale>  0 0.54485280E+03</rscale>
<asrwt>0</asrwt>
<pdfrwt beam="1">  1        2 0.17178130E+00 0.69314467E+03</pdfrwt>
<pdfrwt beam="2">  1       -2 0.52950551E-01 0.69314467E+03</pdfrwt>
<totfact> 0.73062891E+01</totfact>
</mgrwt>
</event>
<event>
 4    2  0.3171963E-007  0.9915440E+03  0.7818608E-02  0.9392705E-01
         -2   -1    0    0    0  501 -0.00000000000E+00  0.00000000000E+00  0.52726910748E+03  0.52726910748E+03  0.25500000000E-02 0.  1.
          2   -1    0    0  501    0  0.00000000000E+00 -0.00000000000E+00 -0.17757649771E+04  0.17757649771E+04  0.25500000000E-02 0. -1.
    8880023    1    1    2    0    0  0.63053065528E+03  0.38958991889E+03 -0.11827438416E+04  0.15433866701E+04  0.65864270000E+03 0.  0.
    8880022    1    1    2    0    0 -0.63053065528E+03 -0.38958991889E+03 -0.65752027967E+02  0.75964741449E+03  0.15294330000E+03 0.  0.
<mgrwt>
<rscale>  0 0.92678448E+03</rscale>
<asrwt>0</asrwt>
<pdfrwt beam="1">  1        2 0.27319461E+00 0.99154396E+03</pdfrwt>
<pdfrwt beam="2">  1       -2 0.81118325E-01 0.99154396E+03</pdfrwt>
<totfact> 0.11927338E+01</totfact>
</mgrwt>
</event>
<event>
 4    2  0.3171963E-007  0.9762763E+03  0.7818608E-02  0.9413276E-01
         -2   -1    0    0    0  501 -0.00000000000E+00  0.00000000000E+00  0.63150584372E+03  0.63150584372E+03  0.25500000000E-02 0.  1.
          2   -1    0    0  501    0  0.00000000000E+00 -0.00000000000E+00 -0.26811453611E+04  0.26811453611E+04  0.25500000000E-02 0. -1.
    8880023    1    1    2    0    0 -0.24931897470E+03 -0.67612516984E+03 -0.23285600567E+04  0.25249370963E+04  0.65864270000E+03 0. -1.
    8880022    1    1    2    0    0  0.24931897470E+03  0.67612516984E+03  0.27892053933E+03  0.78771410849E+03  0.15294330000E+03 0.  0.
<mgrwt>
<rscale>  0 0.90991164E+03</rscale>
<asrwt>0</asrwt>
<pdfrwt beam="1">  1        2 0.41248390E+00 0.97627629E+03</pdfrwt>
<pdfrwt beam="2">  1       -2 0.97154747E-01 0.97627629E+03</pdfrwt>
<totfact> 0.24482913E+00</totfact>
</mgrwt>
</event>
<event>
 4    2  0.3171963E-007  0.1034352E+04  0.7818608E-02  0.9337933E-01
          2   -1    0    0  501    0  0.00000000000E+00  0.00000000000E+00  0.21664091507E+04  0.21664091507E+04  0.25500000000E-02 0. -1.
         -2   -1    0    0    0  501 -0.00000000000E+00 -0.00000000000E+00 -0.90310822553E+03  0.90310822553E+03  0.25500000000E-02 0.  1.
    8880023    1    1    2    0    0 -0.29800538013E+03 -0.73977446041E+03  0.18141054740E+04  0.20882677836E+04  0.65864270000E+03 0. -1.
    8880022    1    1    2    0    0  0.29800538013E+03  0.73977446041E+03 -0.55080454890E+03  0.98124959259E+03  0.15294330000E+03 0.  0.
<mgrwt>
<rscale>  0 0.97364399E+03</rscale>
<asrwt>0</asrwt>
<pdfrwt beam="1">  1        2 0.33329371E+00 0.10343518E+04</pdfrwt>
<pdfrwt beam="2">  1       -2 0.13893973E+00 0.10343518E+04</pdfrwt>
<totfact> 0.19671830E+00</totfact>
</mgrwt>
</event>
<event>
 4    2  0.3171963E-007  0.7958416E+03  0.7818608E-02  0.9719861E-01
          2   -1    0    0  501    0  0.00000000000E+00  0.00000000000E+00  0.23172896053E+04  0.23172896053E+04  0.25500000000E-02 0. -1.
         -2   -1    0    0    0  501 -0.00000000000E+00 -0.00000000000E+00 -0.27386672951E+03  0.27386672952E+03  0.25500000000E-02 0.  1.
    8880023    1    1    2    0    0 -0.43293158037E+03  0.11010860324E+03  0.19549975714E+04  0.21107769585E+04  0.65864270000E+03 0. -1.
    8880022    1    1    2    0    0  0.43293158037E+03 -0.11010860324E+03  0.88425304390E+02  0.48037937639E+03  0.15294330000E+03 0.  0.
<mgrwt>
<rscale>  0 0.69846520E+03</rscale>
<asrwt>0</asrwt>
<pdfrwt beam="1">  1        2 0.35650610E+00 0.79584161E+03</pdfrwt>
<pdfrwt beam="2">  1       -2 0.42133342E-01 0.79584161E+03</pdfrwt>
<totfact> 0.24461090E+01</totfact>
</mgrwt>
</event>
<event>
 4    2  0.3171963E-007  0.9082079E+03  0.7818608E-02  0.9512982E-01
         -2   -1    0    0    0  501 -0.00000000000E+00  0.00000000000E+00  0.10817016800E+04  0.10817016800E+04  0.25500000000E-02 0.  1.
          2   -1    0    0  501    0  0.00000000000E+00 -0.00000000000E+00 -0.15103536635E+04  0.15103536636E+04  0.25500000000E-02 0. -1.
    8880023    1    1    2    0    0  0.10585654994E+03 -0.61630011297E+03 -0.12521194892E+04  0.15468176556E+04  0.65864270000E+03 0.  0.
    8880022    1    1    2    0    0 -0.10585654994E+03  0.61630011297E+03  0.82346750566E+03  0.10452376879E+04  0.15294330000E+03 0.  0.
<mgrwt>
<rscale>  0 0.83333469E+03</rscale>
<asrwt>0</asrwt>
<pdfrwt beam="1">  1        2 0.23236210E+00 0.90820793E+03</pdfrwt>
<pdfrwt beam="2">  1       -2 0.16641564E+00 0.90820793E+03</pdfrwt>
<totfact> 0.28442865E+00</totfact>
</mgrwt>
</event>
<event>
 4    2  0.3171963E-007  0.7421217E+03  0.7818608E-02  0.9853809E-01
          2   -1    0    0  501    0  0.00000000000E+00  0.00000000000E+00  0.50027006989E+03  0.50027006990E+03  0.25500000000E-02 0. -1.
         -2   -1    0    0    0  501 -0.00000000000E+00 -0.00000000000E+00 -0.72732199464E+03  0.72732199464E+03  0.25500000000E-02 0.  1.
    8880023    1    1    2    0    0 -0.33897698228E+03  0.45045187174E+02  0.75660805105E+02  0.74596865021E+03  0.65864270000E+03 0.  0.
    8880022    1    1    2    0    0  0.33897698228E+03 -0.45045187174E+02 -0.30271272985E+03  0.48162341433E+03  0.15294330000E+03 0.  0.
<mgrwt>
<rscale>  0 0.62553077E+03</rscale>
<asrwt>0</asrwt>
<pdfrwt beam="1">  1        2 0.76964626E-01 0.74212174E+03</pdfrwt>
<pdfrwt beam="2">  1       -2 0.11189569E+00 0.74212174E+03</pdfrwt>
<totfact> 0.39277610E+01</totfact>
</mgrwt>
</event>
<event>
 4    2  0.3731426E-007  0.7574767E+03  0.7818608E-02  0.9811684E-01
          2   -1    0    0  501    0  0.00000000000E+00  0.00000000000E+00  0.13912755230E+04  0.13912755230E+04  0.25500000000E-02 0. -1.
         -2   -1    0    0    0  501 -0.00000000000E+00 -0.00000000000E+00 -0.17765531399E+04  0.17765531399E+04  0.25500000000E-02 0.  1.
    8880023    1    1    2    0    0 -0.36527466327E+03  0.80839940585E+02  0.12619007308E+04  0.14717895013E+04  0.65864270000E+03 0. -1.
    8880022    1    1    2    0    0  0.36527466327E+03 -0.80839940585E+02 -0.16471783477E+04  0.16960391616E+04  0.15294330000E+03 0.  0.
<mgrwt>
<rscale>  0 0.64739241E+03</rscale>
<asrwt>0</asrwt>
<pdfrwt beam="1">  1        2 0.21404239E+00 0.75747665E+03</pdfrwt>
<pdfrwt beam="2">  1       -2 0.27331587E+00 0.75747665E+03</pdfrwt>
<totfact> 0.70712015E-01</totfact>
</mgrwt>
</event>
<event>
 4    2  0.3171963E-007  0.6611027E+03  0.7818608E-02  0.1023054E+00
          2   -1    0    0  501    0  0.00000000000E+00  0.00000000000E+00  0.19278525398E+04  0.19278525398E+04  0.25500000000E-02 0. -1.
         -2   -1    0    0    0  501 -0.00000000000E+00 -0.00000000000E+00 -0.21312651436E+03  0.21312651438E+03  0.25500000000E-02 0.  1.
    8880023    1    1    2    0    0 -0.46739066338E+02 -0.32589093092E+02  0.18269645597E+04  0.19428989418E+04  0.65864270000E+03 0. -1.
    8880022    1    1    2    0    0  0.46739066338E+02  0.32589093092E+02 -0.11223853431E+03  0.19808011235E+03  0.15294330000E+03 0.  0.
<mgrwt>
<rscale>  0 0.46600427E+03</rscale>
<asrwt>0</asrwt>
<pdfrwt beam="1">  1        2 0.29659271E+00 0.66110271E+03</pdfrwt>
<pdfrwt beam="2">  1       -2 0.32788693E-01 0.66110271E+03</pdfrwt>
<totfact> 0.65982097E+01</totfact>
</mgrwt>
</event>
<event>
 4    2  0.3171963E-007  0.1166117E+04  0.7818608E-02  0.9190784E-01
          2   -1    0    0  501    0  0.00000000000E+00  0.00000000000E+00  0.18175540294E+04  0.18175540294E+04  0.25500000000E-02 0. -1.
         -2   -1    0    0    0  501 -0.00000000000E+00 -0.00000000000E+00 -0.76294693610E+03  0.76294693611E+03  0.25500000000E-02 0.  1.
    8880023    1    1    2    0    0  0.31109034248E+03  0.91062700815E+03  0.11027208825E+04  0.16049368524E+04  0.65864270000E+03 0.  1.
    8880022    1    1    2    0    0 -0.31109034248E+03 -0.91062700815E+03 -0.48113789171E+02  0.97556411316E+03  0.15294330000E+03 0.  0.
<mgrwt>
<rscale>  0 0.11149063E+04</rscale>
<asrwt>0</asrwt>
<pdfrwt beam="1">  1        2 0.27962369E+00 0.11661170E+04</pdfrwt>
<pdfrwt beam="2">  1       -2 0.11737645E+00 0.11661170E+04</pdfrwt>
<totfact> 0.46329713E+00</totfact>
</mgrwt>
</event>
<event>
 4    2  0.3171963E-007  0.8780470E+03  0.7818608E-02  0.9562234E-01
         -2   -1    0    0    0  501 -0.00000000000E+00  0.00000000000E+00  0.18236286371E+04  0.18236286371E+04  0.25500000000E-02 0.  1.
          2   -1    0    0  501    0  0.00000000000E+00 -0.00000000000E+00 -0.42307587620E+03  0.42307587620E+03  0.25500000000E-02 0. -1.
    8880023    1    1    2    0    0  0.37848124557E+03  0.44035024979E+03  0.19433430752E+03  0.89929551599E+03  0.65864270000E+03 0.  0.
    8880022    1    1    2    0    0 -0.37848124557E+03 -0.44035024979E+03  0.12062184534E+04  0.13474089973E+04  0.15294330000E+03 0.  1.
<mgrwt>
<rscale>  0 0.79847023E+03</rscale>
<asrwt>0</asrwt>
<pdfrwt beam="1">  1        2 0.65088597E-01 0.87804704E+03</pdfrwt>
<pdfrwt beam="2">  1       -2 0.28055825E+00 0.87804704E+03</pdfrwt>
<totfact> 0.31767289E+00</totfact>
</mgrwt>
</event>
<event>
 4    2  0.3171963E-007  0.8089391E+03  0.7818608E-02  0.9691791E-01
         -2   -1    0    0    0  501 -0.00000000000E+00  0.00000000000E+00  0.67174506545E+03  0.67174506545E+03  0.25500000000E-02 0.  1.
          2   -1    0    0  501    0  0.00000000000E+00 -0.00000000000E+00 -0.24926856647E+04  0.24926856647E+04  0.25500000000E-02 0. -1.
    8880023    1    1    2    0    0  0.19670431544E+03  0.42647351072E+03 -0.23231925484E+04  0.24600012330E+04  0.65864270000E+03 0. -1.
    8880022    1    1    2    0    0 -0.19670431544E+03 -0.42647351072E+03  0.50225194915E+03  0.70442949718E+03  0.15294330000E+03 0.  0.
<mgrwt>
<rscale>  0 0.71507659E+03</rscale>
<asrwt>0</asrwt>
<pdfrwt beam="1">  1        2 0.38349010E+00 0.80893909E+03</pdfrwt>
<pdfrwt beam="2">  1       -2 0.10334540E+00 0.80893909E+03</pdfrwt>
<totfact> 0.27889271E+00</totfact>
</mgrwt>
</event>
<event>
 4    2  0.3171963E-007  0.6732006E+03  0.7818608E-02  0.1013465E+00
          2   -1    0    0  501    0  0.00000000000E+00  0.00000000000E+00  0.17943738067E+04  0.17943738067E+04  0.25500000000E-02 0. -1.
         -2   -1    0    0    0  501 -0.00000000000E+00 -0.00000000000E+00 -0.12696380837E+03  0.12696380839E+03  0.25500000000E-02 0.  1.
    8880023    1    1    2    0    0  0.10187943172E+03 -0.94918008056E+02  0.15339792338E+04  0.16751988965E+04  0.65864270000E+03 0. -1.
    8880022    1    1    2    0    0 -0.10187943172E+03  0.94918008056E+02  0.13343076459E+03  0.24613871864E+03  0.15294330000E+03 0.  0.
<mgrwt>
<rscale>  0 0.50120351E+03</rscale>
<asrwt>0</asrwt>
<pdfrwt beam="1">  1        2 0.27605751E+00 0.67320060E+03</pdfrwt>
<pdfrwt beam="2">  1       -2 0.19532894E-01 0.67320060E+03</pdfrwt>
<totfact> 0.19846243E+02</totfact>
</mgrwt>
</event>
<event>
 4    2  0.3171963E-007  0.7373239E+03  0.7818608E-02  0.9867812E-01
          2   -1    0    0  501    0  0.00000000000E+00  0.00000000000E+00  0.12357364737E+04  0.12357364737E+04  0.25500000000E-02 0. -1.
         -2   -1    0    0    0  501 -0.00000000000E+00 -0.00000000000E+00 -0.44331325654E+03  0.44331325655E+03  0.25500000000E-02 0.  1.
    8880023    1    1    2    0    0  0.23467067685E+03  0.23402133904E+03  0.10127363782E+04  0.12527096598E+04  0.65864270000E+03 0. -1.
    8880022    1    1    2    0    0 -0.23467067685E+03 -0.23402133904E+03 -0.22031316109E+03  0.42634007044E+03  0.15294330000E+03 0.  0.
<mgrwt>
<rscale>  0 0.61846931E+03</rscale>
<asrwt>0</asrwt>
<pdfrwt beam="1">  1        2 0.19011331E+00 0.73732389E+03</pdfrwt>
<pdfrwt beam="2">  1       -2 0.68202039E-01 0.73732389E+03</pdfrwt>
<totfact> 0.36199164E+01</totfact>
</mgrwt>
</event>
<event>
 4    2  0.3171963E-007  0.6651567E+03  0.7818608E-02  0.1019402E+00
          2   -1    0    0  501    0  0.00000000000E+00  0.00000000000E+00  0.20278465312E+04  0.20278465312E+04  0.25500000000E-02 0. -1.
         -2   -1    0    0    0  501 -0.00000000000E+00 -0.00000000000E+00 -0.25189423704E+03  0.25189423706E+03  0.25500000000E-02 0.  1.
    8880023    1    1    2    0    0  0.38085943169E+02  0.84691857009E+02  0.19313946766E+04  0.20427233912E+04  0.65864270000E+03 0. -1.
    8880022    1    1    2    0    0 -0.38085943169E+02 -0.84691857009E+02 -0.15544238253E+03  0.23701737702E+03  0.15294330000E+03 0.  0.
<mgrwt>
<rscale>  0 0.47902922E+03</rscale>
<asrwt>0</asrwt>
<pdfrwt beam="1">  1        2 0.31197638E+00 0.66515672E+03</pdfrwt>
<pdfrwt beam="2">  1       -2 0.38752961E-01 0.66515672E+03</pdfrwt>
<totfact> 0.42310707E+01</totfact>
</mgrwt>
</event>
<event>
 4    2  0.3171963E-007  0.7744730E+03  0.7818608E-02  0.9768984E-01
         -2   -1    0    0    0  501 -0.00000000000E+00  0.00000000000E+00  0.43496003399E+03  0.43496003400E+03  0.25500000000E-02 0.  1.
          2   -1    0    0  501    0  0.00000000000E+00 -0.00000000000E+00 -0.14701107951E+04  0.14701107951E+04  0.25500000000E-02 0. -1.
    8880023    1    1    2    0    0 -0.10305471645E+03  0.39418006933E+03 -0.12095378866E+04  0.14362417300E+04  0.65864270000E+03 0. -1.
    8880022    1    1    2    0    0  0.10305471645E+03 -0.39418006933E+03  0.17438712547E+03  0.46882909912E+03  0.15294330000E+03 0.  0.
<mgrwt>
<rscale>  0 0.67053939E+03</rscale>
<asrwt>0</asrwt>
<pdfrwt beam="1">  1        2 0.22617089E+00 0.77447299E+03</pdfrwt>
<pdfrwt beam="2">  1       -2 0.66916929E-01 0.77447299E+03</pdfrwt>
<totfact> 0.27605578E+01</totfact>
</mgrwt>
</event>
<event>
 4    2  0.3171963E-007  0.7577572E+03  0.7818608E-02  0.9810949E-01
          2   -1    0    0  501    0  0.00000000000E+00  0.00000000000E+00  0.47714682839E+03  0.47714682840E+03  0.25500000000E-02 0. -1.
         -2   -1    0    0    0  501 -0.00000000000E+00 -0.00000000000E+00 -0.18759721882E+04  0.18759721882E+04  0.25500000000E-02 0.  1.
    8880023    1    1    2    0    0  0.93533659062E+02  0.36281853033E+03  0.13247017146E+03  0.76924923394E+03  0.65864270000E+03 0. -1.
    8880022    1    1    2    0    0 -0.93533659062E+02 -0.36281853033E+03 -0.15312955312E+04  0.15838697826E+04  0.15294330000E+03 0.  0.
<mgrwt>
<rscale>  0 0.64778270E+03</rscale>
<asrwt>0</asrwt>
<pdfrwt beam="1">  1        2 0.73407206E-01 0.75775724E+03</pdfrwt>
<pdfrwt beam="2">  1       -2 0.28861110E+00 0.75775724E+03</pdfrwt>
<totfact> 0.25161194E+00</totfact>
</mgrwt>
</event>
<event>
 4    2  0.3171963E-007  0.9925262E+03  0.7818608E-02  0.9391402E-01
          2   -1    0    0  501    0  0.00000000000E+00  0.00000000000E+00  0.20529876653E+04  0.20529876653E+04  0.25500000000E-02 0. -1.
         -2   -1    0    0    0  501 -0.00000000000E+00 -0.00000000000E+00 -0.96717132326E+03  0.96717132327E+03  0.25500000000E-02 0.  1.
    8880023    1    1    2    0    0 -0.57623319645E+03  0.46824488204E+03  0.17502671508E+04  0.20120992202E+04  0.65864270000E+03 0. -1.
    8880022    1    1    2    0    0  0.57623319645E+03 -0.46824488204E+03 -0.66445080882E+03  0.10080597684E+04  0.15294330000E+03 0.  0.
<mgrwt>
<rscale>  0 0.92786681E+03</rscale>
<asrwt>0</asrwt>
<pdfrwt beam="1">  1        2 0.31584425E+00 0.99252616E+03</pdfrwt>
<pdfrwt beam="2">  1       -2 0.14879559E+00 0.99252616E+03</pdfrwt>
<totfact> 0.19097076E+00</totfact>
</mgrwt>
</event>
<event>
 4    2  0.3171963E-007  0.1558818E+04  0.7818608E-02  0.8869182E-01
         -2   -1    0    0    0  501 -0.00000000000E+00  0.00000000000E+00  0.13446095289E+04  0.13446095289E+04  0.25500000000E-02 0.  1.
          2   -1    0    0  501    0  0.00000000000E+00 -0.00000000000E+00 -0.34771506646E+04  0.34771506646E+04  0.25500000000E-02 0. -1.
    8880023    1    1    2    0    0  0.13773824969E+04  0.31451499918E+03  0.65659736298E+03  0.16914586991E+04  0.65864270000E+03 0.  1.
    8880022    1    1    2    0    0 -0.13773824969E+04 -0.31451499918E+03 -0.27891384987E+04  0.31303014944E+04  0.15294330000E+03 0.  0.
<mgrwt>
<rscale>  0 0.15231820E+04</rscale>
<asrwt>0</asrwt>
<pdfrwt beam="1">  1        2 0.53494625E+00 0.15588176E+04</pdfrwt>
<pdfrwt beam="2">  1       -2 0.20686301E+00 0.15588176E+04</pdfrwt>
<totfact> 0.95080708E-02</totfact>
</mgrwt>
</event>
<event>
 4    2  0.3171963E-007  0.7933900E+03  0.7818608E-02  0.9725275E-01
         -2   -1    0    0    0  501 -0.00000000000E+00  0.00000000000E+00  0.12375882920E+04  0.12375882920E+04  0.25500000000E-02 0.  1.
          2   -1    0    0  501    0  0.00000000000E+00 -0.00000000000E+00 -0.12139105500E+04  0.12139105500E+04  0.25500000000E-02 0. -1.
    8880023    1    1    2    0    0 -0.38527750429E+03 -0.21729863492E+03 -0.10290684395E+04  0.12994035214E+04  0.65864270000E+03 0. -1.
    8880022    1    1    2    0    0  0.38527750429E+03  0.21729863492E+03  0.10527461815E+04  0.11520953206E+04  0.15294330000E+03 0.  0.
<mgrwt>
<rscale>  0 0.69531679E+03</rscale>
<asrwt>0</asrwt>
<pdfrwt beam="1">  1        2 0.18675547E+00 0.79338998E+03</pdfrwt>
<pdfrwt beam="2">  1       -2 0.19039820E+00 0.79338998E+03</pdfrwt>
<totfact> 0.29171280E+00</totfact>
</mgrwt>
</event>
<event>
 4    2  0.3171963E-007  0.7992916E+03  0.7818608E-02  0.9712330E-01
         -2   -1    0    0    0  501 -0.00000000000E+00  0.00000000000E+00  0.30237633744E+03  0.30237633745E+03  0.25500000000E-02 0.  1.
          2   -1    0    0  501    0  0.00000000000E+00 -0.00000000000E+00 -0.17012849219E+04  0.17012849219E+04  0.25500000000E-02 0. -1.
    8880023    1    1    2    0    0  0.40829632767E+03  0.19583410955E+03 -0.12833875556E+04  0.15119360813E+04  0.65864270000E+03 0.  0.
    8880022    1    1    2    0    0 -0.40829632767E+03 -0.19583410955E+03 -0.11552102885E+03  0.49172517810E+03  0.15294330000E+03 0.  0.
<mgrwt>
<rscale>  0 0.70287403E+03</rscale>
<asrwt>0</asrwt>
<pdfrwt beam="1">  1        2 0.26173614E+00 0.79929162E+03</pdfrwt>
<pdfrwt beam="2">  1       -2 0.46519437E-01 0.79929162E+03</pdfrwt>
<totfact> 0.43743833E+01</totfact>
</mgrwt>
</event>
<event>
 4    2  0.3171963E-007  0.1124041E+04  0.7818608E-02  0.9234750E-01
         -2   -1    0    0    0  501 -0.00000000000E+00  0.00000000000E+00  0.20378327824E+04  0.20378327824E+04  0.25500000000E-02 0.  1.
          2   -1    0    0  501    0  0.00000000000E+00 -0.00000000000E+00 -0.12656273465E+04  0.12656273465E+04  0.25500000000E-02 0. -1.
    8880023    1    1    2    0    0 -0.50990945735E+03 -0.75475216609E+03 -0.86861693753E+03  0.14205506247E+04  0.65864270000E+03 0.  0.
    8880022    1    1    2    0    0  0.50990945735E+03  0.75475216609E+03  0.16408223734E+04  0.18829095042E+04  0.15294330000E+03 0.  1.
<mgrwt>
<rscale>  0 0.10701841E+04</rscale>
<asrwt>0</asrwt>
<pdfrwt beam="1">  1        2 0.19471190E+00 0.11240412E+04</pdfrwt>
<pdfrwt beam="2">  1       -2 0.31351273E+00 0.11240412E+04</pdfrwt>
<totfact> 0.44905342E-01</totfact>
</mgrwt>
</event>
<event>
 4    2  0.3171963E-007  0.6855289E+03  0.7818608E-02  0.1006354E+00
          2   -1    0    0  501    0  0.00000000000E+00  0.00000000000E+00  0.84019011698E+03  0.84019011699E+03  0.25500000000E-02 0. -1.
         -2   -1    0    0    0  501 -0.00000000000E+00 -0.00000000000E+00 -0.40849079680E+03  0.40849079681E+03  0.25500000000E-02 0.  1.
    8880023    1    1    2    0    0  0.13016368325E+03  0.13855337396E+03 -0.71700338189E+02  0.68926828350E+03  0.65864270000E+03 0.  1.
    8880022    1    1    2    0    0 -0.13016368325E+03 -0.13855337396E+03  0.50339965837E+03  0.55941263030E+03  0.15294330000E+03 0.  0.
<mgrwt>
<rscale>  0 0.52949573E+03</rscale>
<asrwt>0</asrwt>
<pdfrwt beam="1">  1        2 0.12926002E+00 0.68552887E+03</pdfrwt>
<pdfrwt beam="2">  1       -2 0.62844738E-01 0.68552887E+03</pdfrwt>
<totfact> 0.77054855E+01</totfact>
</mgrwt>
</event>
<event>
 4    2  0.3171963E-007  0.1218157E+04  0.7818608E-02  0.9139671E-01
          2   -1    0    0  501    0  0.00000000000E+00  0.00000000000E+00  0.18564096145E+04  0.18564096145E+04  0.25500000000E-02 0. -1.
         -2   -1    0    0    0  501 -0.00000000000E+00 -0.00000000000E+00 -0.12952095135E+04  0.12952095135E+04  0.25500000000E-02 0.  1.
    8880023    1    1    2    0    0  0.44151390661E+03  0.92475017511E+03  0.13729104686E+04  0.18354265927E+04  0.65864270000E+03 0.  0.
    8880022    1    1    2    0    0 -0.44151390661E+03 -0.92475017511E+03 -0.81171036766E+03  0.13161925353E+04  0.15294330000E+03 0.  0.
<mgrwt>
<rscale>  0 0.11698422E+04</rscale>
<asrwt>0</asrwt>
<pdfrwt beam="1">  1        2 0.28560148E+00 0.12181575E+04</pdfrwt>
<pdfrwt beam="2">  1       -2 0.19926300E+00 0.12181575E+04</pdfrwt>
<totfact> 0.10458244E+00</totfact>
</mgrwt>
</event>
<event>
 4    2  0.3171963E-007  0.8804276E+03  0.7818608E-02  0.9558212E-01
         -2   -1    0    0    0  501 -0.00000000000E+00  0.00000000000E+00  0.78908477206E+03  0.78908477206E+03  0.25500000000E-02 0.  1.
          2   -1    0    0  501    0  0.00000000000E+00 -0.00000000000E+00 -0.11586799285E+04  0.11586799285E+04  0.25500000000E-02 0. -1.
    8880023    1    1    2    0    0  0.57198387376E+03 -0.11906702949E+03 -0.81312133094E+03  0.11984652746E+04  0.65864270000E+03 0. -1.
    8880022    1    1    2    0    0 -0.57198387376E+03  0.11906702949E+03  0.44352617445E+03  0.74929942600E+03  0.15294330000E+03 0.  0.
<mgrwt>
<rscale>  0 0.80124860E+03</rscale>
<asrwt>0</asrwt>
<pdfrwt beam="1">  1        2 0.17825845E+00 0.88042758E+03</pdfrwt>
<pdfrwt beam="2">  1       -2 0.12139766E+00 0.88042758E+03</pdfrwt>
<totfact> 0.10391295E+01</totfact>
</mgrwt>
</event>
<event>
 4    2  0.3171963E-007  0.1005647E+04  0.7818608E-02  0.9374207E-01
         -2   -1    0    0    0  501 -0.00000000000E+00  0.00000000000E+00  0.72727458960E+03  0.72727458961E+03  0.25500000000E-02 0.  1.
          2   -1    0    0  501    0  0.00000000000E+00 -0.00000000000E+00 -0.21880352238E+04  0.21880352238E+04  0.25500000000E-02 0. -1.
    8880023    1    1    2    0    0 -0.60333711126E+03 -0.46205980964E+03 -0.18056957293E+04  0.20668483763E+04  0.65864270000E+03 0. -1.
    8880022    1    1    2    0    0  0.60333711126E+03  0.46205980964E+03  0.34493509506E+03  0.84846143715E+03  0.15294330000E+03 0.  0.
<mgrwt>
<rscale>  0 0.94229074E+03</rscale>
<asrwt>0</asrwt>
<pdfrwt beam="1">  1        2 0.33662080E+00 0.10056466E+04</pdfrwt>
<pdfrwt beam="2">  1       -2 0.11188840E+00 0.10056466E+04</pdfrwt>
<totfact> 0.33114021E+00</totfact>
</mgrwt>
</event>
<event>
 4    2  0.3171963E-007  0.7544062E+03  0.7818608E-02  0.9819810E-01
         -2   -1    0    0    0  501 -0.00000000000E+00  0.00000000000E+00  0.17650887584E+03  0.17650887586E+03  0.25500000000E-02 0.  1.
          2   -1    0    0  501    0  0.00000000000E+00 -0.00000000000E+00 -0.43685697557E+04  0.43685697557E+04  0.25500000000E-02 0. -1.
    8880023    1    1    2    0    0  0.27074847506E+03 -0.24902578666E+03 -0.40537764902E+04  0.41233763614E+04  0.65864270000E+03 0. -1.
    8880022    1    1    2    0    0 -0.27074847506E+03  0.24902578666E+03 -0.13828438960E+03  0.42170227008E+03  0.15294330000E+03 0.  0.
<mgrwt>
<rscale>  0 0.64310157E+03</rscale>
<asrwt>0</asrwt>
<pdfrwt beam="1">  1        2 0.67208757E+00 0.75440625E+03</pdfrwt>
<pdfrwt beam="2">  1       -2 0.27155215E-01 0.75440625E+03</pdfrwt>
<totfact> 0.22779653E+00</totfact>
</mgrwt>
</event>
<event>
 4    2  0.3171963E-007  0.6686087E+03  0.7818608E-02  0.1016680E+00
         -2   -1    0    0    0  501 -0.00000000000E+00  0.00000000000E+00  0.28811693743E+03  0.28811693744E+03  0.25500000000E-02 0.  1.
          2   -1    0    0  501    0  0.00000000000E+00 -0.00000000000E+00 -0.94115010487E+03  0.94115010487E+03  0.25500000000E-02 0. -1.
    8880023    1    1    2    0    0 -0.18486600858E+02  0.11351487141E+03 -0.75821503891E+03  0.10109043634E+04  0.65864270000E+03 0. -1.
    8880022    1    1    2    0    0  0.18486600858E+02 -0.11351487141E+03  0.10518187147E+03  0.21836267891E+03  0.15294330000E+03 0.  0.
<mgrwt>
<rscale>  0 0.48903774E+03</rscale>
<asrwt>0</asrwt>
<pdfrwt beam="1">  1        2 0.14479232E+00 0.66860869E+03</pdfrwt>
<pdfrwt beam="2">  1       -2 0.44325683E-01 0.66860869E+03</pdfrwt>
<totfact> 0.13516186E+02</totfact>
</mgrwt>
</event>
<event>
 4    2  0.3171963E-007  0.8612038E+03  0.7818608E-02  0.9591426E-01
         -2   -1    0    0    0  501 -0.00000000000E+00  0.00000000000E+00  0.44223960699E+03  0.44223960699E+03  0.25500000000E-02 0.  1.
          2   -1    0    0  501    0  0.00000000000E+00 -0.00000000000E+00 -0.24707593659E+04  0.24707593659E+04  0.25500000000E-02 0. -1.
    8880023    1    1    2    0    0 -0.57188956481E+02  0.55189783459E+03 -0.21576266989E+04  0.23231497960E+04  0.65864270000E+03 0. -1.
    8880022    1    1    2    0    0  0.57188956481E+02 -0.55189783459E+03  0.12910693996E+03  0.58984917693E+03  0.15294330000E+03 0.  0.
<mgrwt>
<rscale>  0 0.77866295E+03</rscale>
<asrwt>0</asrwt>
<pdfrwt beam="1">  1        2 0.38011682E+00 0.86120381E+03</pdfrwt>
<pdfrwt beam="2">  1       -2 0.68036864E-01 0.86120381E+03</pdfrwt>
<totfact> 0.73733594E+00</totfact>
</mgrwt>
</event>
<event>
 4    2  0.3171963E-007  0.6807027E+03  0.7818608E-02  0.1008929E+00
         -2   -1    0    0    0  501 -0.00000000000E+00  0.00000000000E+00  0.25084274979E+03  0.25084274980E+03  0.25500000000E-02 0.  1.
          2   -1    0    0  501    0  0.00000000000E+00 -0.00000000000E+00 -0.21945695138E+04  0.21945695138E+04  0.25500000000E-02 0. -1.
    8880023    1    1    2    0    0  0.58823638939E+02 -0.16151077129E+03 -0.20727231924E+04  0.21816364473E+04  0.65864270000E+03 0.  0.
    8880022    1    1    2    0    0 -0.58823638939E+02  0.16151077129E+03  0.12899642834E+03  0.26377581633E+03  0.15294330000E+03 0.  0.
<mgrwt>
<rscale>  0 0.51902543E+03</rscale>
<asrwt>0</asrwt>
<pdfrwt beam="1">  1        2 0.33762607E+00 0.68070269E+03</pdfrwt>
<pdfrwt beam="2">  1       -2 0.38591194E-01 0.68070269E+03</pdfrwt>
<totfact> 0.34504733E+01</totfact>
</mgrwt>
</event>
<event>
 4    2  0.3171963E-007  0.8532191E+03  0.7818608E-02  0.9605741E-01
          2   -1    0    0  501    0  0.00000000000E+00  0.00000000000E+00  0.33525315539E+04  0.33525315539E+04  0.25500000000E-02 0. -1.
         -2   -1    0    0    0  501 -0.00000000000E+00 -0.00000000000E+00 -0.23677183451E+03  0.23677183452E+03  0.25500000000E-02 0.  1.
    8880023    1    1    2    0    0 -0.19155507671E+03 -0.50742409013E+03  0.28332345250E+04  0.29589188287E+04  0.65864270000E+03 0.  0.
    8880022    1    1    2    0    0  0.19155507671E+03  0.50742409013E+03  0.28252519431E+03  0.63038455968E+03  0.15294330000E+03 0.  0.
<mgrwt>
<rscale>  0 0.76917357E+03</rscale>
<asrwt>0</asrwt>
<pdfrwt beam="1">  1        2 0.51577407E+00 0.85321906E+03</pdfrwt>
<pdfrwt beam="2">  1       -2 0.36426437E-01 0.85321906E+03</pdfrwt>
<totfact> 0.76940212E+00</totfact>
</mgrwt>
</event>
<event>
 4    2  0.3171963E-007  0.9819066E+03  0.7818608E-02  0.9405622E-01
          2   -1    0    0  501    0  0.00000000000E+00  0.00000000000E+00  0.88465455031E+03  0.88465455032E+03  0.25500000000E-02 0. -1.
         -2   -1    0    0    0  501 -0.00000000000E+00 -0.00000000000E+00 -0.13740500176E+04  0.13740500176E+04  0.25500000000E-02 0.  1.
    8880023    1    1    2    0    0 -0.63559344065E+03  0.35545933763E+03  0.43336679206E+03  0.10732880998E+04  0.65864270000E+03 0. -1.
    8880022    1    1    2    0    0  0.63559344065E+03 -0.35545933763E+03 -0.92276225931E+03  0.11854164681E+04  0.15294330000E+03 0.  0.
<mgrwt>
<rscale>  0 0.91614477E+03</rscale>
<asrwt>0</asrwt>
<pdfrwt beam="1">  1        2 0.13610070E+00 0.98190660E+03</pdfrwt>
<pdfrwt beam="2">  1       -2 0.21139231E+00 0.98190660E+03</pdfrwt>
<totfact> 0.33529071E+00</totfact>
</mgrwt>
</event>
<event>
 4    2  0.3171963E-007  0.6710156E+03  0.7818608E-02  0.1014945E+00
          2   -1    0    0  501    0  0.00000000000E+00  0.00000000000E+00  0.14820941410E+04  0.14820941410E+04  0.25500000000E-02 0. -1.
         -2   -1    0    0    0  501 -0.00000000000E+00 -0.00000000000E+00 -0.36255234616E+03  0.36255234617E+03  0.25500000000E-02 0.  1.
    8880023    1    1    2    0    0  0.87471334003E+02  0.93810722327E+02  0.13693290318E+04  0.15249012720E+04  0.65864270000E+03 0. -1.
    8880022    1    1    2    0    0 -0.87471334003E+02 -0.93810722327E+02 -0.24978723691E+03  0.31974521518E+03  0.15294330000E+03 0.  0.
<mgrwt>
<rscale>  0 0.49555734E+03</rscale>
<asrwt>0</asrwt>
<pdfrwt beam="1">  1        2 0.22801448E+00 0.67101557E+03</pdfrwt>
<pdfrwt beam="2">  1       -2 0.55777284E-01 0.67101557E+03</pdfrwt>
<totfact> 0.40467920E+01</totfact>
</mgrwt>
</event>
<event>
 4    2  0.3171963E-007  0.8854329E+03  0.7818608E-02  0.9549833E-01
          2   -1    0    0  501    0  0.00000000000E+00  0.00000000000E+00  0.95159445593E+03  0.95159445593E+03  0.25500000000E-02 0. -1.
         -2   -1    0    0    0  501 -0.00000000000E+00 -0.00000000000E+00 -0.14599273604E+04  0.14599273604E+04  0.25500000000E-02 0.  1.
    8880023    1    1    2    0    0 -0.57760526243E+03 -0.12865971786E+03  0.65231549850E+03  0.10997758308E+04  0.65864270000E+03 0. -1.
    8880022    1    1    2    0    0  0.57760526243E+03  0.12865971786E+03 -0.11606484029E+04  0.13117459855E+04  0.15294330000E+03 0.  0.
<mgrwt>
<rscale>  0 0.80707452E+03</rscale>
<asrwt>0</asrwt>
<pdfrwt beam="1">  1        2 0.14639915E+00 0.88543287E+03</pdfrwt>
<pdfrwt beam="2">  1       -2 0.22460421E+00 0.88543287E+03</pdfrwt>
<totfact> 0.25241243E+00</totfact>
</mgrwt>
</event>
<event>
 4    2  0.3171963E-007  0.8356463E+03  0.7818608E-02  0.9638445E-01
          2   -1    0    0  501    0  0.00000000000E+00  0.00000000000E+00  0.13423527886E+04  0.13423527886E+04  0.25500000000E-02 0. -1.
         -2   -1    0    0    0  501 -0.00000000000E+00 -0.00000000000E+00 -0.72399087158E+03  0.72399087158E+03  0.25500000000E-02 0.  1.
    8880023    1    1    2    0    0 -0.18711080492E+03  0.47904505127E+03  0.10751341562E+04  0.13616968365E+04  0.65864270000E+03 0. -1.
    8880022    1    1    2    0    0  0.18711080492E+03 -0.47904505127E+03 -0.45677223925E+03  0.70464682362E+03  0.15294330000E+03 0.  0.
<mgrwt>
<rscale>  0 0.74803085E+03</rscale>
<asrwt>0</asrwt>
<pdfrwt beam="1">  1        2 0.20651581E+00 0.83564635E+03</pdfrwt>
<pdfrwt beam="2">  1       -2 0.11138321E+00 0.83564635E+03</pdfrwt>
<totfact> 0.10067982E+01</totfact>
</mgrwt>
</event>
<event>
 4    2  0.3171963E-007  0.7100405E+03  0.7818608E-02  0.9957851E-01
         -2   -1    0    0    0  501 -0.00000000000E+00  0.00000000000E+00  0.66274775953E+03  0.66274775954E+03  0.25500000000E-02 0.  1.
          2   -1    0    0  501    0  0.00000000000E+00 -0.00000000000E+00 -0.22404046866E+04  0.22404046866E+04  0.25500000000E-02 0. -1.
    8880023    1    1    2    0    0  0.21877072213E+03  0.14995547470E+03 -0.21444553263E+04  0.22589480131E+04  0.65864270000E+03 0. -1.
    8880022    1    1    2    0    0 -0.21877072213E+03 -0.14995547470E+03  0.56679839918E+03  0.64420443306E+03  0.15294330000E+03 0.  0.
<mgrwt>
<rscale>  0 0.57537677E+03</rscale>
<asrwt>0</asrwt>
<pdfrwt beam="1">  1        2 0.34467764E+00 0.71004048E+03</pdfrwt>
<pdfrwt beam="2">  1       -2 0.10196119E+00 0.71004048E+03</pdfrwt>
<totfact> 0.40579960E+00</totfact>
</mgrwt>
</event>
<event>
 4    2  0.3171963E-007  0.7068001E+03  0.7818608E-02  0.9970081E-01
          2   -1    0    0  501    0  0.00000000000E+00  0.00000000000E+00  0.39570200048E+03  0.39570200049E+03  0.25500000000E-02 0. -1.
         -2   -1    0    0    0  501 -0.00000000000E+00 -0.00000000000E+00 -0.13910817942E+04  0.13910817942E+04  0.25500000000E-02 0.  1.
    8880023    1    1    2    0    0  0.22830304287E+03  0.11676408427E+03  0.41258831778E+02  0.70800326851E+03  0.65864270000E+03 0. -1.
    8880022    1    1    2    0    0 -0.22830304287E+03 -0.11676408427E+03 -0.10366386255E+04  0.10787805262E+04  0.15294330000E+03 0.  0.
<mgrwt>
<rscale>  0 0.56981812E+03</rscale>
<asrwt>0</asrwt>
<pdfrwt beam="1">  1        2 0.60877231E-01 0.70680007E+03</pdfrwt>
<pdfrwt beam="2">  1       -2 0.21401258E+00 0.70680007E+03</pdfrwt>
<totfact> 0.89101144E+00</totfact>
</mgrwt>
</event>
<event>
 4    2  0.3171963E-007  0.6924338E+03  0.7818608E-02  0.1003017E+00
         -2   -1    0    0    0  501 -0.00000000000E+00  0.00000000000E+00  0.20293080221E+03  0.20293080223E+03  0.25500000000E-02 0.  1.
          2   -1    0    0  501    0  0.00000000000E+00 -0.00000000000E+00 -0.21467701908E+04  0.21467701909E+04  0.25500000000E-02 0. -1.
    8880023    1    1    2    0    0  0.64076154772E+02 -0.20383466632E+03 -0.19675790536E+04  0.20858647759E+04  0.65864270000E+03 0.  0.
    8880022    1    1    2    0    0 -0.64076154772E+02  0.20383466632E+03  0.23739664956E+02  0.26383621721E+03  0.15294330000E+03 0.  0.
<mgrwt>
<rscale>  0 0.54347051E+03</rscale>
<asrwt>0</asrwt>
<pdfrwt beam="1">  1        2 0.33027232E+00 0.69243377E+03</pdfrwt>
<pdfrwt beam="2">  1       -2 0.31220125E-01 0.69243377E+03</pdfrwt>
<totfact> 0.54730688E+01</totfact>
</mgrwt>
</event>
<event>
 4    2  0.3171963E-007  0.6913357E+03  0.7818608E-02  0.1003524E+00
          2   -1    0    0  501    0  0.00000000000E+00  0.00000000000E+00  0.11629674519E+04  0.11629674519E+04  0.25500000000E-02 0. -1.
         -2   -1    0    0    0  501 -0.00000000000E+00 -0.00000000000E+00 -0.24941874187E+03  0.24941874189E+03  0.25500000000E-02 0.  1.
    8880023    1    1    2    0    0 -0.69548762172E+01 -0.20996774394E+03  0.92198656094E+03  0.11523906667E+04  0.65864270000E+03 0. -1.
    8880022    1    1    2    0    0  0.69548762172E+01  0.20996774394E+03 -0.84378508854E+01  0.25999552715E+03  0.15294330000E+03 0.  0.
<mgrwt>
<rscale>  0 0.54131616E+03</rscale>
<asrwt>0</asrwt>
<pdfrwt beam="1">  1        2 0.17891807E+00 0.69133569E+03</pdfrwt>
<pdfrwt beam="2">  1       -2 0.38372114E-01 0.69133569E+03</pdfrwt>
<totfact> 0.13019575E+02</totfact>
</mgrwt>
</event>
<event>
 4    2  0.3171963E-007  0.9564849E+03  0.7818608E-02  0.9440844E-01
          2   -1    0    0  501    0  0.00000000000E+00  0.00000000000E+00  0.27188286026E+04  0.27188286026E+04  0.25500000000E-02 0. -1.
         -2   -1    0    0    0  501 -0.00000000000E+00 -0.00000000000E+00 -0.42887261766E+03  0.42887261767E+03  0.25500000000E-02 0.  1.
    8880023    1    1    2    0    0  0.38174292915E+03  0.57907293567E+03  0.22400457846E+04  0.24357069718E+04  0.65864270000E+03 0.  0.
    8880022    1    1    2    0    0 -0.38174292915E+03 -0.57907293567E+03  0.49910200290E+02  0.71199424850E+03  0.15294330000E+03 0.  0.
<mgrwt>
<rscale>  0 0.88789230E+03</rscale>
<asrwt>0</asrwt>
<pdfrwt beam="1">  1        2 0.41828132E+00 0.95648488E+03</pdfrwt>
<pdfrwt beam="2">  1       -2 0.65980403E-01 0.95648488E+03</pdfrwt>
<totfact> 0.55900934E+00</totfact>
</mgrwt>
</event>
<event>
 4    2  0.3171963E-007  0.7545586E+03  0.7818608E-02  0.9819404E-01
          2   -1    0    0  501    0  0.00000000000E+00  0.00000000000E+00  0.50781707654E+03  0.50781707655E+03  0.25500000000E-02 0. -1.
         -2   -1    0    0    0  501 -0.00000000000E+00 -0.00000000000E+00 -0.22096185085E+04  0.22096185085E+04  0.25500000000E-02 0.  1.
    8880023    1    1    2    0    0 -0.11979413100E+03 -0.34813483298E+03  0.19487123323E+03  0.77931604600E+03  0.65864270000E+03 0.  0.
    8880022    1    1    2    0    0  0.11979413100E+03  0.34813483298E+03 -0.18966726651E+04  0.19381195390E+04  0.15294330000E+03 0.  0.
<mgrwt>
<rscale>  0 0.64331539E+03</rscale>
<asrwt>0</asrwt>
<pdfrwt beam="1">  1        2 0.78125705E-01 0.75455861E+03</pdfrwt>
<pdfrwt beam="2">  1       -2 0.33994130E+00 0.75455861E+03</pdfrwt>
<totfact> 0.11436913E+00</totfact>
</mgrwt>
</event>
<event>
 4    2  0.3171963E-007  0.7765154E+03  0.7818608E-02  0.9764087E-01
          2   -1    0    0  501    0  0.00000000000E+00  0.00000000000E+00  0.16318993569E+04  0.16318993569E+04  0.25500000000E-02 0. -1.
         -2   -1    0    0    0  501 -0.00000000000E+00 -0.00000000000E+00 -0.43663480994E+03  0.43663480995E+03  0.25500000000E-02 0.  1.
    8880023    1    1    2    0    0  0.41121281498E+03 -0.83647423479E+01  0.13870679558E+04  0.15896331867E+04  0.65864270000E+03 0. -1.
    8880022    1    1    2    0    0 -0.41121281498E+03  0.83647423479E+01 -0.19180340882E+03  0.47890098013E+03  0.15294330000E+03 0.  0.
<mgrwt>
<rscale>  0 0.67325972E+03</rscale>
<asrwt>0</asrwt>
<pdfrwt beam="1">  1        2 0.25106144E+00 0.77651539E+03</pdfrwt>
<pdfrwt beam="2">  1       -2 0.67174585E-01 0.77651539E+03</pdfrwt>
<totfact> 0.22261734E+01</totfact>
</mgrwt>
</event>
<event>
 4    2  0.3171963E-007  0.6683983E+03  0.7818608E-02  0.1016838E+00
         -2   -1    0    0    0  501 -0.00000000000E+00  0.00000000000E+00  0.34700499908E+03  0.34700499909E+03  0.25500000000E-02 0.  1.
          2   -1    0    0  501    0  0.00000000000E+00 -0.00000000000E+00 -0.57733189087E+03  0.57733189088E+03  0.25500000000E-02 0. -1.
    8880023    1    1    2    0    0 -0.56780083524E+02  0.98600550975E+02 -0.28410376037E+03  0.72627212493E+03  0.65864270000E+03 0. -1.
    8880022    1    1    2    0    0  0.56780083524E+02 -0.98600550975E+02  0.53776868572E+02  0.19806476503E+03  0.15294330000E+03 0. -1.
<mgrwt>
<rscale>  0 0.48845119E+03</rscale>
<asrwt>0</asrwt>
<pdfrwt beam="1">  1        2 0.88820291E-01 0.66839827E+03</pdfrwt>
<pdfrwt beam="2">  1       -2 0.53385384E-01 0.66839827E+03</pdfrwt>
<totfact> 0.17422965E+02</totfact>
</mgrwt>
</event>
<event>
 4    2  0.3171963E-007  0.1106631E+04  0.7818608E-02  0.9253709E-01
         -2   -1    0    0    0  501 -0.00000000000E+00  0.00000000000E+00  0.59162213001E+03  0.59162213002E+03  0.25500000000E-02 0.  1.
          2   -1    0    0  501    0  0.00000000000E+00 -0.00000000000E+00 -0.23850509544E+04  0.23850509544E+04  0.25500000000E-02 0. -1.
    8880023    1    1    2    0    0 -0.83258280034E+03  0.31245317692E+03 -0.17534435883E+04  0.20734501998E+04  0.65864270000E+03 0.  0.
    8880022    1    1    2    0    0  0.83258280034E+03 -0.31245317692E+03 -0.39985236032E+02  0.90322288462E+03  0.15294330000E+03 0.  0.
<mgrwt>
<rscale>  0 0.10515847E+04</rscale>
<asrwt>0</asrwt>
<pdfrwt beam="1">  1        2 0.36693091E+00 0.11066306E+04</pdfrwt>
<pdfrwt beam="2">  1       -2 0.91018790E-01 0.11066306E+04</pdfrwt>
<totfact> 0.41493497E+00</totfact>
</mgrwt>
</event>
<event>
 4    2  0.3171963E-007  0.8251491E+03  0.7818608E-02  0.9658846E-01
         -2   -1    0    0    0  501 -0.00000000000E+00  0.00000000000E+00  0.17494277244E+03  0.17494277246E+03  0.25500000000E-02 0.  1.
          2   -1    0    0  501    0  0.00000000000E+00 -0.00000000000E+00 -0.32622858895E+04  0.32622858895E+04  0.25500000000E-02 0. -1.
    8880023    1    1    2    0    0  0.41553432564E+03  0.27274894025E+03 -0.25876126340E+04  0.27159915520E+04  0.65864270000E+03 0.  0.
    8880022    1    1    2    0    0 -0.41553432564E+03 -0.27274894025E+03 -0.49973048306E+03  0.72123711004E+03  0.15294330000E+03 0.  0.
<mgrwt>
<rscale>  0 0.73520874E+03</rscale>
<asrwt>0</asrwt>
<pdfrwt beam="1">  1        2 0.50189009E+00 0.82514906E+03</pdfrwt>
<pdfrwt beam="2">  1       -2 0.26914275E-01 0.82514906E+03</pdfrwt>
<totfact> 0.15608909E+01</totfact>
</mgrwt>
</event>
<event>
 4    2  0.3171963E-007  0.7786993E+03  0.7818608E-02  0.9758901E-01
          2   -1    0    0  501    0  0.00000000000E+00  0.00000000000E+00  0.10514158079E+04  0.10514158079E+04  0.25500000000E-02 0. -1.
         -2   -1    0    0    0  501 -0.00000000000E+00 -0.00000000000E+00 -0.73780748971E+03  0.73780748971E+03  0.25500000000E-02 0.  1.
    8880023    1    1    2    0    0 -0.40779637515E+03  0.79148598077E+02  0.81035755879E+03  0.11238558464E+04  0.65864270000E+03 0. -1.
    8880022    1    1    2    0    0  0.40779637515E+03 -0.79148598077E+02 -0.49674924056E+03  0.66536745124E+03  0.15294330000E+03 0.  0.
<mgrwt>
<rscale>  0 0.67615554E+03</rscale>
<asrwt>0</asrwt>
<pdfrwt beam="1">  1        2 0.16175628E+00 0.77869929E+03</pdfrwt>
<pdfrwt beam="2">  1       -2 0.11350885E+00 0.77869929E+03</pdfrwt>
<totfact> 0.14422664E+01</totfact>
</mgrwt>
</event>
<event>
 4    2  0.3171963E-007  0.7945335E+03  0.7818608E-02  0.9722743E-01
         -2   -1    0    0    0  501 -0.00000000000E+00  0.00000000000E+00  0.87513574149E+03  0.87513574149E+03  0.25500000000E-02 0.  1.
          2   -1    0    0  501    0  0.00000000000E+00 -0.00000000000E+00 -0.14666974566E+04  0.14666974566E+04  0.25500000000E-02 0. -1.
    8880023    1    1    2    0    0 -0.33237780646E+03 -0.29495458225E+03 -0.12810337753E+04  0.15074252723E+04  0.65864270000E+03 0. -1.
    8880022    1    1    2    0    0  0.33237780646E+03  0.29495458225E+03  0.68947206020E+03  0.83440792580E+03  0.15294330000E+03 0.  0.
<mgrwt>
<rscale>  0 0.69678689E+03</rscale>
<asrwt>0</asrwt>
<pdfrwt beam="1">  1        2 0.22564576E+00 0.79453346E+03</pdfrwt>
<pdfrwt beam="2">  1       -2 0.13463627E+00 0.79453346E+03</pdfrwt>
<totfact> 0.53638328E+00</totfact>
</mgrwt>
</event>
<event>
 4    2  0.3171963E-007  0.9226683E+03  0.7818608E-02  0.9490580E-01
          2   -1    0    0  501    0  0.00000000000E+00  0.00000000000E+00  0.22302157149E+04  0.22302157149E+04  0.25500000000E-02 0. -1.
         -2   -1    0    0    0  501 -0.00000000000E+00 -0.00000000000E+00 -0.13864086841E+04  0.13864086841E+04  0.25500000000E-02 0.  1.
    8880023    1    1    2    0    0  0.44504185701E+03 -0.46844888260E+03 -0.11735340104E+04  0.14928157589E+04  0.65864270000E+03 0.  0.
    8880022    1    1    2    0    0 -0.44504185701E+03  0.46844888260E+03  0.20173410412E+04  0.21238086401E+04  0.15294330000E+03 0.  0.
<mgrwt>
<rscale>  0 0.84981913E+03</rscale>
<asrwt>0</asrwt>
<pdfrwt beam="1">  1        2 0.34311011E+00 0.92266831E+03</pdfrwt>
<pdfrwt beam="2">  1       -2 0.21329364E+00 0.92266831E+03</pdfrwt>
<totfact> 0.55040852E-01</totfact>
</mgrwt>
</event>
<event>
 4    2  0.3171963E-007  0.8329398E+03  0.7818608E-02  0.9643639E-01
         -2   -1    0    0    0  501 -0.00000000000E+00  0.00000000000E+00  0.20752494436E+03  0.20752494438E+03  0.25500000000E-02 0.  1.
          2   -1    0    0  501    0  0.00000000000E+00 -0.00000000000E+00 -0.26245794844E+04  0.26245794844E+04  0.25500000000E-02 0. -1.
    8880023    1    1    2    0    0  0.23755325376E+03 -0.45116180064E+03 -0.19631089467E+04  0.21325068491E+04  0.65864270000E+03 0.  0.
    8880022    1    1    2    0    0 -0.23755325376E+03  0.45116180064E+03 -0.45394559336E+03  0.69959757967E+03  0.15294330000E+03 0.  0.
<mgrwt>
<rscale>  0 0.74473966E+03</rscale>
<asrwt>0</asrwt>
<pdfrwt beam="1">  1        2 0.40378144E+00 0.83293981E+03</pdfrwt>
<pdfrwt beam="2">  1       -2 0.31926916E-01 0.83293981E+03</pdfrwt>
<totfact> 0.27784433E+01</totfact>
</mgrwt>
</event>
<event>
 4    2  0.3171963E-007  0.7592324E+03  0.7818608E-02  0.9807099E-01
         -2   -1    0    0    0  501 -0.00000000000E+00  0.00000000000E+00  0.35985818428E+03  0.35985818429E+03  0.25500000000E-02 0.  1.
          2   -1    0    0  501    0  0.00000000000E+00 -0.00000000000E+00 -0.13698123444E+04  0.13698123444E+04  0.25500000000E-02 0. -1.
    8880023    1    1    2    0    0  0.21822380748E+03 -0.30822405141E+03 -0.10760087163E+04  0.13169011580E+04  0.65864270000E+03 0.  0.
    8880022    1    1    2    0    0 -0.21822380748E+03  0.30822405141E+03  0.66054556171E+02  0.41276937075E+03  0.15294330000E+03 0.  0.
<mgrwt>
<rscale>  0 0.64982976E+03</rscale>
<asrwt>0</asrwt>
<pdfrwt beam="1">  1        2 0.21074036E+00 0.75923244E+03</pdfrwt>
<pdfrwt beam="2">  1       -2 0.55362798E-01 0.75923244E+03</pdfrwt>
<totfact> 0.47068520E+01</totfact>
</mgrwt>
</event>
<event>
 4    2  0.3171963E-007  0.7383606E+03  0.7818608E-02  0.9864749E-01
          2   -1    0    0  501    0  0.00000000000E+00  0.00000000000E+00  0.39544548610E+03  0.39544548610E+03  0.25500000000E-02 0. -1.
         -2   -1    0    0    0  501 -0.00000000000E+00 -0.00000000000E+00 -0.14807640342E+04  0.14807640342E+04  0.25500000000E-02 0.  1.
    8880023    1    1    2    0    0  0.17257589124E+03 -0.28562854221E+03 -0.83623017842E+01  0.73840790673E+03  0.65864270000E+03 0. -1.
    8880022    1    1    2    0    0 -0.17257589124E+03  0.28562854221E+03 -0.10769562463E+04  0.11378016135E+04  0.15294330000E+03 0.  0.
<mgrwt>
<rscale>  0 0.62000556E+03</rscale>
<asrwt>0</asrwt>
<pdfrwt beam="1">  1        2 0.60837768E-01 0.73836055E+03</pdfrwt>
<pdfrwt beam="2">  1       -2 0.22780985E+00 0.73836055E+03</pdfrwt>
<totfact> 0.72854599E+00</totfact>
</mgrwt>
</event>
<event>
 4    2  0.3171963E-007  0.9188001E+03  0.7818608E-02  0.9496501E-01
         -2   -1    0    0    0  501 -0.00000000000E+00  0.00000000000E+00  0.11559807654E+04  0.11559807654E+04  0.25500000000E-02 0.  1.
          2   -1    0    0  501    0  0.00000000000E+00 -0.00000000000E+00 -0.15916758442E+04  0.15916758442E+04  0.25500000000E-02 0. -1.
    8880023    1    1    2    0    0 -0.53262092855E+03 -0.35594701033E+03 -0.13425640221E+04  0.16268594554E+04  0.65864270000E+03 0.  0.
    8880022    1    1    2    0    0  0.53262092855E+03  0.35594701033E+03  0.90686894330E+03  0.11207971543E+04  0.15294330000E+03 0.  0.
<mgrwt>
<rscale>  0 0.84542254E+03</rscale>
<asrwt>0</asrwt>
<pdfrwt beam="1">  1        2 0.24487321E+00 0.91880005E+03</pdfrwt>
<pdfrwt beam="2">  1       -2 0.17784320E+00 0.91880005E+03</pdfrwt>
<totfact> 0.21247497E+00</totfact>
</mgrwt>
</event>
<event>
 4    2  0.3171963E-007  0.7368233E+03  0.7818608E-02  0.9869299E-01
         -2   -1    0    0    0  501 -0.00000000000E+00  0.00000000000E+00  0.12883736328E+03  0.12883736330E+03  0.25500000000E-02 0.  1.
          2   -1    0    0  501    0  0.00000000000E+00 -0.00000000000E+00 -0.30797417700E+04  0.30797417700E+04  0.25500000000E-02 0. -1.
    8880023    1    1    2    0    0  0.14741069062E+03  0.29558157681E+03 -0.26022175806E+04  0.27045230492E+04  0.65864270000E+03 0. -1.
    8880022    1    1    2    0    0 -0.14741069062E+03 -0.29558157681E+03 -0.34868682611E+03  0.50405608416E+03  0.15294330000E+03 0.  0.
<mgrwt>
<rscale>  0 0.61772534E+03</rscale>
<asrwt>0</asrwt>
<pdfrwt beam="1">  1        2 0.47380637E+00 0.73682331E+03</pdfrwt>
<pdfrwt beam="2">  1       -2 0.19821135E-01 0.73682331E+03</pdfrwt>
<totfact> 0.35674620E+01</totfact>
</mgrwt>
</event>
<event>
 4    2  0.3171963E-007  0.1072985E+04  0.7818608E-02  0.9291747E-01
          2   -1    0    0  501    0  0.00000000000E+00  0.00000000000E+00  0.44108255873E+04  0.44108255873E+04  0.25500000000E-02 0. -1.
         -2   -1    0    0    0  501 -0.00000000000E+00 -0.00000000000E+00 -0.31151861633E+03  0.31151861634E+03  0.25500000000E-02 0.  1.
    8880023    1    1    2    0    0  0.47028911432E+02 -0.84573972851E+03  0.87322203283E+03  0.13834067846E+04  0.65864270000E+03 0.  1.
    8880022    1    1    2    0    0 -0.47028911432E+02  0.84573972851E+03  0.32260849382E+04  0.33389374190E+04  0.15294330000E+03 0.  0.
<mgrwt>
<rscale>  0 0.10154622E+04</rscale>
<asrwt>0</asrwt>
<pdfrwt beam="1">  1        2 0.67858853E+00 0.10729854E+04</pdfrwt>
<pdfrwt beam="2">  1       -2 0.47925943E-01 0.10729854E+04</pdfrwt>
<totfact> 0.65388687E-01</totfact>
</mgrwt>
</event>
<event>
 4    2  0.3171963E-007  0.6720104E+03  0.7818608E-02  0.1014261E+00
          2   -1    0    0  501    0  0.00000000000E+00  0.00000000000E+00  0.30754366453E+04  0.30754366453E+04  0.25500000000E-02 0. -1.
         -2   -1    0    0    0  501 -0.00000000000E+00 -0.00000000000E+00 -0.25334436233E+03  0.25334436235E+03  0.25500000000E-02 0.  1.
    8880023    1    1    2    0    0 -0.11433333592E+03 -0.68670475629E+02  0.29905000046E+04  0.30650755667E+04  0.65864270000E+03 0. -1.
    8880022    1    1    2    0    0  0.11433333592E+03  0.68670475629E+02 -0.16840772155E+03  0.26370544101E+03  0.15294330000E+03 0.  0.
<mgrwt>
<rscale>  0 0.49815786E+03</rscale>
<asrwt>0</asrwt>
<pdfrwt beam="1">  1        2 0.47314411E+00 0.67201038E+03</pdfrwt>
<pdfrwt beam="2">  1       -2 0.38976055E-01 0.67201038E+03</pdfrwt>
<totfact> 0.10497567E+01</totfact>
</mgrwt>
</event>
<event>
 4    2  0.3171963E-007  0.6957853E+03  0.7818608E-02  0.1001516E+00
          2   -1    0    0  501    0  0.00000000000E+00  0.00000000000E+00  0.21569172138E+04  0.21569172138E+04  0.25500000000E-02 0. -1.
         -2   -1    0    0    0  501 -0.00000000000E+00 -0.00000000000E+00 -0.16009601226E+03  0.16009601228E+03  0.25500000000E-02 0.  1.
    8880023    1    1    2    0    0 -0.11978529580E+03 -0.18962704755E+03  0.19087479007E+04  0.20316091379E+04  0.65864270000E+03 0.  0.
    8880022    1    1    2    0    0  0.11978529580E+03  0.18962704755E+03  0.88073300852E+02  0.28540408825E+03  0.15294330000E+03 0.  0.
<mgrwt>
<rscale>  0 0.54990646E+03</rscale>
<asrwt>0</asrwt>
<pdfrwt beam="1">  1        2 0.33183341E+00 0.69578527E+03</pdfrwt>
<pdfrwt beam="2">  1       -2 0.24630156E-01 0.69578527E+03</pdfrwt>
<totfact> 0.83373672E+01</totfact>
</mgrwt>
</event>
<event>
 4    2  0.3171963E-007  0.9534475E+03  0.7818608E-02  0.9445171E-01
         -2   -1    0    0    0  501 -0.00000000000E+00  0.00000000000E+00  0.10162088490E+04  0.10162088490E+04  0.25500000000E-02 0.  1.
          2   -1    0    0  501    0  0.00000000000E+00 -0.00000000000E+00 -0.18643367180E+04  0.18643367180E+04  0.25500000000E-02 0. -1.
    8880023    1    1    2    0    0 -0.68935509567E+03 -0.64414156987E+01 -0.15914985586E+04  0.18552438676E+04  0.65864270000E+03 0.  0.
    8880022    1    1    2    0    0  0.68935509567E+03  0.64414156987E+01  0.74337068961E+03  0.10253016995E+04  0.15294330000E+03 0.  0.
<mgrwt>
<rscale>  0 0.88449701E+03</rscale>
<asrwt>0</asrwt>
<pdfrwt beam="1">  1        2 0.28682103E+00 0.95344751E+03</pdfrwt>
<pdfrwt beam="2">  1       -2 0.15633982E+00 0.95344751E+03</pdfrwt>
<totfact> 0.21366315E+00</totfact>
</mgrwt>
</event>
<event>
 4    2  0.3171963E-007  0.7628676E+03  0.7818608E-02  0.9797739E-01
          2   -1    0    0  501    0  0.00000000000E+00  0.00000000000E+00  0.21498335118E+03  0.21498335120E+03  0.25500000000E-02 0. -1.
         -2   -1    0    0    0  501 -0.00000000000E+00 -0.00000000000E+00 -0.23043122005E+04  0.23043122005E+04  0.25500000000E-02 0.  1.
    8880023    1    1    2    0    0  0.15108681403E+03 -0.35401914695E+03 -0.59167792003E+03  0.96542723656E+03  0.65864270000E+03 0. -1.
    8880022    1    1    2    0    0 -0.15108681403E+03  0.35401914695E+03 -0.14976509293E+04  0.15538683151E+04  0.15294330000E+03 0.  0.
<mgrwt>
<rscale>  0 0.65484004E+03</rscale>
<asrwt>0</asrwt>
<pdfrwt beam="1">  1        2 0.33074363E-01 0.76286761E+03</pdfrwt>
<pdfrwt beam="2">  1       -2 0.35450955E+00 0.76286761E+03</pdfrwt>
<totfact> 0.24391858E+00</totfact>
</mgrwt>
</event>
<event>
 4    2  0.3171963E-007  0.1294148E+04  0.7818608E-02  0.9070630E-01
          2   -1    0    0  501    0  0.00000000000E+00  0.00000000000E+00  0.31910623452E+04  0.31910623452E+04  0.25500000000E-02 0. -1.
         -2   -1    0    0    0  501 -0.00000000000E+00 -0.00000000000E+00 -0.10459827858E+04  0.10459827858E+04  0.25500000000E-02 0.  1.
    8880023    1    1    2    0    0  0.62465328801E+03 -0.92239783723E+03  0.26917887201E+04  0.29867283472E+04  0.65864270000E+03 0. -1.
    8880022    1    1    2    0    0 -0.62465328801E+03  0.92239783723E+03 -0.54670916070E+03  0.12503167838E+04  0.15294330000E+03 0.  0.
<mgrwt>
<rscale>  0 0.12494637E+04</rscale>
<asrwt>0</asrwt>
<pdfrwt beam="1">  1        2 0.49093266E+00 0.12941483E+04</pdfrwt>
<pdfrwt beam="2">  1       -2 0.16092043E+00 0.12941483E+04</pdfrwt>
<totfact> 0.31741991E-01</totfact>
</mgrwt>
</event>
<event>
 4    2  0.3171963E-007  0.1236265E+04  0.7818608E-02  0.9122651E-01
          2   -1    0    0  501    0  0.00000000000E+00  0.00000000000E+00  0.23398799502E+04  0.23398799502E+04  0.25500000000E-02 0. -1.
         -2   -1    0    0    0  501 -0.00000000000E+00 -0.00000000000E+00 -0.60385259337E+03  0.60385259338E+03  0.25500000000E-02 0.  1.
    8880023    1    1    2    0    0  0.87553892078E+03 -0.57268961999E+03  0.54489989946E+03  0.13510247627E+04  0.65864270000E+03 0.  0.
    8880022    1    1    2    0    0 -0.87553892078E+03  0.57268961999E+03  0.11911274574E+04  0.15927077809E+04  0.15294330000E+03 0.  0.
<mgrwt>
<rscale>  0 0.11888738E+04</rscale>
<asrwt>0</asrwt>
<pdfrwt beam="1">  1        2 0.35998154E+00 0.12362653E+04</pdfrwt>
<pdfrwt beam="2">  1       -2 0.92900398E-01 0.12362653E+04</pdfrwt>
<totfact> 0.41355140E+00</totfact>
</mgrwt>
</event>
<event>
 4    2  0.3171963E-007  0.6991517E+03  0.7818608E-02  0.1000074E+00
          2   -1    0    0  501    0  0.00000000000E+00  0.00000000000E+00  0.15596669449E+04  0.15596669449E+04  0.25500000000E-02 0. -1.
         -2   -1    0    0    0  501 -0.00000000000E+00 -0.00000000000E+00 -0.16076612885E+03  0.16076612887E+03  0.25500000000E-02 0.  1.
    8880023    1    1    2    0    0  0.19351630028E+03 -0.13249264054E+03  0.11497618285E+04  0.13456468061E+04  0.65864270000E+03 0.  1.
    8880022    1    1    2    0    0 -0.19351630028E+03  0.13249264054E+03  0.24913898749E+03  0.37478626759E+03  0.15294330000E+03 0.  0.
<mgrwt>
<rscale>  0 0.55617858E+03</rscale>
<asrwt>0</asrwt>
<pdfrwt beam="1">  1        2 0.23994876E+00 0.69915167E+03</pdfrwt>
<pdfrwt beam="2">  1       -2 0.24733251E-01 0.69915167E+03</pdfrwt>
<totfact> 0.17521636E+02</totfact>
</mgrwt>
</event>
<event>
 4    2  0.3171963E-007  0.1168901E+04  0.7818608E-02  0.9187962E-01
          2   -1    0    0  501    0  0.00000000000E+00  0.00000000000E+00  0.10221371026E+04  0.10221371026E+04  0.25500000000E-02 0. -1.
         -2   -1    0    0    0  501 -0.00000000000E+00 -0.00000000000E+00 -0.23941781301E+04  0.23941781301E+04  0.25500000000E-02 0.  1.
    8880023    1    1    2    0    0 -0.35429441361E+02  0.96502062260E+03  0.52558394487E+03  0.12816273783E+04  0.65864270000E+03 0.  0.
    8880022    1    1    2    0    0  0.35429441361E+02 -0.96502062260E+03 -0.18976249723E+04  0.21346878545E+04  0.15294330000E+03 0.  0.
<mgrwt>
<rscale>  0 0.11178553E+04</rscale>
<asrwt>0</asrwt>
<pdfrwt beam="1">  1        2 0.15725186E+00 0.11689013E+04</pdfrwt>
<pdfrwt beam="2">  1       -2 0.36833510E+00 0.11689013E+04</pdfrwt>
<totfact> 0.28666208E-01</totfact>
</mgrwt>
</event>
<event>
 4    2  0.3171963E-007  0.6857605E+03  0.7818608E-02  0.1006236E+00
         -2   -1    0    0    0  501 -0.00000000000E+00  0.00000000000E+00  0.11325261013E+03  0.11325261016E+03  0.25500000000E-02 0.  1.
          2   -1    0    0  501    0  0.00000000000E+00 -0.00000000000E+00 -0.19641802067E+04  0.19641802067E+04  0.25500000000E-02 0. -1.
    8880023    1    1    2    0    0  0.17891862640E+03 -0.66673898647E+02 -0.12010809036E+04  0.13830628427E+04  0.65864270000E+03 0.  0.
    8880022    1    1    2    0    0 -0.17891862640E+03  0.66673898647E+02 -0.64984669302E+03  0.69436997421E+03  0.15294330000E+03 0.  0.
<mgrwt>
<rscale>  0 0.52998236E+03</rscale>
<asrwt>0</asrwt>
<pdfrwt beam="1">  1        2 0.30218155E+00 0.68576052E+03</pdfrwt>
<pdfrwt beam="2">  1       -2 0.17423480E-01 0.68576052E+03</pdfrwt>
<totfact> 0.19531346E+02</totfact>
</mgrwt>
</event>
<event>
 4    2  0.3171963E-007  0.7464861E+03  0.7818608E-02  0.9841441E-01
         -2   -1    0    0    0  501 -0.00000000000E+00  0.00000000000E+00  0.15083527389E+04  0.15083527389E+04  0.25500000000E-02 0.  1.
          2   -1    0    0  501    0  0.00000000000E+00 -0.00000000000E+00 -0.28317901741E+03  0.28317901743E+03  0.25500000000E-02 0. -1.
    8880023    1    1    2    0    0  0.17079348996E+03 -0.30701933539E+03  0.32686118767E+03  0.81491087291E+03  0.65864270000E+03 0. -1.
    8880022    1    1    2    0    0 -0.17079348996E+03  0.30701933539E+03  0.89831253385E+03  0.97662088346E+03  0.15294330000E+03 0.  0.
<mgrwt>
<rscale>  0 0.63185225E+03</rscale>
<asrwt>0</asrwt>
<pdfrwt beam="1">  1        2 0.43566002E-01 0.74648610E+03</pdfrwt>
<pdfrwt beam="2">  1       -2 0.23205427E+00 0.74648610E+03</pdfrwt>
<totfact> 0.99477079E+00</totfact>
</mgrwt>
</event>
<event>
 4    2  0.3171963E-007  0.8726242E+03  0.7818608E-02  0.9571490E-01
         -2   -1    0    0    0  501 -0.00000000000E+00  0.00000000000E+00  0.66186009769E+03  0.66186009770E+03  0.25500000000E-02 0.  1.
          2   -1    0    0  501    0  0.00000000000E+00 -0.00000000000E+00 -0.88116292557E+03  0.88116292557E+03  0.25500000000E-02 0. -1.
    8880023    1    1    2    0    0 -0.42124372213E+03  0.38757769938E+03 -0.34323664271E+03  0.93770162933E+03  0.65864270000E+03 0.  0.
    8880022    1    1    2    0    0  0.42124372213E+03 -0.38757769938E+03  0.12393381484E+03  0.60532139394E+03  0.15294330000E+03 0.  0.
<mgrwt>
<rscale>  0 0.79212229E+03</rscale>
<asrwt>0</asrwt>
<pdfrwt beam="1">  1        2 0.13556353E+00 0.87262418E+03</pdfrwt>
<pdfrwt beam="2">  1       -2 0.10182463E+00 0.87262418E+03</pdfrwt>
<totfact> 0.23991241E+01</totfact>
</mgrwt>
</event>
<event>
 4    2  0.3171963E-007  0.6744508E+03  0.7818608E-02  0.1012655E+00
         -2   -1    0    0    0  501 -0.00000000000E+00  0.00000000000E+00  0.25087683440E+03  0.25087683441E+03  0.25500000000E-02 0.  1.
          2   -1    0    0  501    0  0.00000000000E+00 -0.00000000000E+00 -0.17511159045E+04  0.17511159045E+04  0.25500000000E-02 0. -1.
    8880023    1    1    2    0    0 -0.25117618505E+02  0.14297846197E+03 -0.16233046074E+04  0.17578400923E+04  0.65864270000E+03 0. -1.
    8880022    1    1    2    0    0  0.25117618505E+02 -0.14297846197E+03  0.12306553733E+03  0.24415264660E+03  0.15294330000E+03 0.  0.
<mgrwt>
<rscale>  0 0.50433080E+03</rscale>
<asrwt>0</asrwt>
<pdfrwt beam="1">  1        2 0.26940244E+00 0.67445084E+03</pdfrwt>
<pdfrwt beam="2">  1       -2 0.38596437E-01 0.67445084E+03</pdfrwt>
<totfact> 0.60209547E+01</totfact>
</mgrwt>
</event>
<event>
 4    2  0.3171963E-007  0.8241476E+03  0.7818608E-02  0.9660829E-01
         -2   -1    0    0    0  501 -0.00000000000E+00  0.00000000000E+00  0.17210142029E+04  0.17210142029E+04  0.25500000000E-02 0.  1.
          2   -1    0    0  501    0  0.00000000000E+00 -0.00000000000E+00 -0.50979612868E+03  0.50979612869E+03  0.25500000000E-02 0. -1.
    8880023    1    1    2    0    0 -0.48881100453E+03 -0.80453670799E+02 -0.91021091002E+02  0.82915863173E+03  0.65864270000E+03 0.  0.
    8880022    1    1    2    0    0  0.48881100453E+03  0.80453670799E+02  0.13022391652E+04  0.14016516999E+04  0.15294330000E+03 0.  0.
<mgrwt>
<rscale>  0 0.73397712E+03</rscale>
<asrwt>0</asrwt>
<pdfrwt beam="1">  1        2 0.78430172E-01 0.82414756E+03</pdfrwt>
<pdfrwt beam="2">  1       -2 0.26477142E+00 0.82414756E+03</pdfrwt>
<totfact> 0.32111065E+00</totfact>
</mgrwt>
</event>
<event>
 4    2  0.3171963E-007  0.8533009E+03  0.7818608E-02  0.9605593E-01
         -2   -1    0    0    0  501 -0.00000000000E+00  0.00000000000E+00  0.44044294823E+03  0.44044294824E+03  0.25500000000E-02 0.  1.
          2   -1    0    0  501    0  0.00000000000E+00 -0.00000000000E+00 -0.14271666735E+04  0.14271666735E+04  0.25500000000E-02 0. -1.
    8880023    1    1    2    0    0  0.37325140274E+03 -0.39369486583E+03 -0.98599239775E+03  0.13039568519E+04  0.65864270000E+03 0.  0.
    8880022    1    1    2    0    0 -0.37325140274E+03  0.39369486583E+03 -0.73132749247E+00  0.56365276978E+03  0.15294330000E+03 0.  0.
<mgrwt>
<rscale>  0 0.76927121E+03</rscale>
<asrwt>0</asrwt>
<pdfrwt beam="1">  1        2 0.21956410E+00 0.85330092E+03</pdfrwt>
<pdfrwt beam="2">  1       -2 0.67760454E-01 0.85330092E+03</pdfrwt>
<totfact> 0.28168330E+01</totfact>
</mgrwt>
</event>
<event>
 4    2  0.3171963E-007  0.6733248E+03  0.7818608E-02  0.1013384E+00
         -2   -1    0    0    0  501 -0.00000000000E+00  0.00000000000E+00  0.14813693298E+04  0.14813693298E+04  0.25500000000E-02 0.  1.
          2   -1    0    0  501    0  0.00000000000E+00 -0.00000000000E+00 -0.32993133469E+03  0.32993133470E+03  0.25500000000E-02 0. -1.
    8880023    1    1    2    0    0  0.13835606083E+03 -0.20339508697E+02  0.33329935075E+02  0.67414923127E+03  0.65864270000E+03 0. -1.
    8880022    1    1    2    0    0 -0.13835606083E+03  0.20339508697E+02  0.11181080600E+04  0.11371514332E+04  0.15294330000E+03 0.  0.
<mgrwt>
<rscale>  0 0.50151741E+03</rscale>
<asrwt>0</asrwt>
<pdfrwt beam="1">  1        2 0.50758666E-01 0.67332481E+03</pdfrwt>
<pdfrwt beam="2">  1       -2 0.22790298E+00 0.67332481E+03</pdfrwt>
<totfact> 0.89765527E+00</totfact>
</mgrwt>
</event>
<event>
 4    2  0.4363250E-007  0.6939366E+03  0.7818608E-02  0.1002335E+00
         -2   -1    0    0    0  501 -0.00000000000E+00  0.00000000000E+00  0.84534070472E+03  0.84534070472E+03  0.25500000000E-02 0.  1.
          2   -1    0    0  501    0  0.00000000000E+00 -0.00000000000E+00 -0.17793347098E+04  0.17793347098E+04  0.25500000000E-02 0. -1.
    8880023    1    1    2    0    0 -0.63560648429E+02 -0.20904028063E+03 -0.16879026790E+04  0.18249831383E+04  0.65864270000E+03 0. -1.
    8880022    1    1    2    0    0  0.63560648429E+02  0.20904028063E+03  0.75390867396E+03  0.79969227621E+03  0.15294330000E+03 0.  0.
<mgrwt>
<rscale>  0 0.54638155E+03</rscale>
<asrwt>0</asrwt>
<pdfrwt beam="1">  1        2 0.27374380E+00 0.69393660E+03</pdfrwt>
<pdfrwt beam="2">  1       -2 0.13005242E+00 0.69393660E+03</pdfrwt>
<totfact> 0.40028682E+00</totfact>
</mgrwt>
</event>
<event>
 4    2  0.3171963E-007  0.8089705E+03  0.7818608E-02  0.9691725E-01
         -2   -1    0    0    0  501 -0.00000000000E+00  0.00000000000E+00  0.53615408336E+03  0.53615408337E+03  0.25500000000E-02 0.  1.
          2   -1    0    0  501    0  0.00000000000E+00 -0.00000000000E+00 -0.17342163287E+04  0.17342163287E+04  0.25500000000E-02 0. -1.
    8880023    1    1    2    0    0 -0.43432831489E+03  0.17883509080E+03 -0.14908133534E+04  0.16961597023E+04  0.65864270000E+03 0.  0.
    8880022    1    1    2    0    0  0.43432831489E+03 -0.17883509080E+03  0.29275110812E+03  0.57421070970E+03  0.15294330000E+03 0.  0.
<mgrwt>
<rscale>  0 0.71511604E+03</rscale>
<asrwt>0</asrwt>
<pdfrwt beam="1">  1        2 0.26680251E+00 0.80897051E+03</pdfrwt>
<pdfrwt beam="2">  1       -2 0.82485245E-01 0.80897051E+03</pdfrwt>
<totfact> 0.12363167E+01</totfact>
</mgrwt>
</event>
<event>
 4    2  0.3171963E-007  0.2768920E+04  0.7818608E-02  0.8318980E-01
         -2   -1    0    0    0  501 -0.00000000000E+00  0.00000000000E+00  0.22442567772E+04  0.22442567772E+04  0.25500000000E-02 0.  1.
          2   -1    0    0  501    0  0.00000000000E+00 -0.00000000000E+00 -0.33800304134E+04  0.33800304134E+04  0.25500000000E-02 0. -1.
    8880023    1    1    2    0    0  0.18608175772E+04  0.19417693983E+04 -0.93703873874E+03  0.29231767404E+04  0.65864270000E+03 0. -1.
    8880022    1    1    2    0    0 -0.18608175772E+04 -0.19417693983E+04 -0.19873489749E+03  0.27011104502E+04  0.15294330000E+03 0.  1.
<mgrwt>
<rscale>  0 0.27499436E+04</rscale>
<asrwt>0</asrwt>
<pdfrwt beam="1">  1        2 0.52000468E+00 0.27689205E+04</pdfrwt>
<pdfrwt beam="2">  1       -2 0.34527027E+00 0.27689205E+04</pdfrwt>
<totfact> 0.13389600E-02</totfact>
</mgrwt>
</event>
<event>
 4    2  0.3171963E-007  0.7405924E+03  0.7818608E-02  0.9858225E-01
         -2   -1    0    0    0  501 -0.00000000000E+00  0.00000000000E+00  0.15992169277E+03  0.15992169279E+03  0.25500000000E-02 0.  1.
          2   -1    0    0  501    0  0.00000000000E+00 -0.00000000000E+00 -0.25325305644E+04  0.25325305644E+04  0.25500000000E-02 0. -1.
    8880023    1    1    2    0    0  0.23433236271E+03  0.24444881948E+03 -0.21134108717E+04  0.22394156828E+04  0.65864270000E+03 0. -1.
    8880022    1    1    2    0    0 -0.23433236271E+03 -0.24444881948E+03 -0.25919799999E+03  0.45303657443E+03  0.15294330000E+03 0.  0.
<mgrwt>
<rscale>  0 0.62329313E+03</rscale>
<asrwt>0</asrwt>
<pdfrwt beam="1">  1        2 0.38962006E+00 0.74059239E+03</pdfrwt>
<pdfrwt beam="2">  1       -2 0.24603339E-01 0.74059239E+03</pdfrwt>
<totfact> 0.51279932E+01</totfact>
</mgrwt>
</event>
<event>
 4    2  0.3171963E-007  0.7421431E+03  0.7818608E-02  0.9853748E-01
          2   -1    0    0  501    0  0.00000000000E+00  0.00000000000E+00  0.25111393479E+04  0.25111393479E+04  0.25500000000E-02 0. -1.
         -2   -1    0    0    0  501 -0.00000000000E+00 -0.00000000000E+00 -0.20223852586E+03  0.20223852588E+03  0.25500000000E-02 0.  1.
    8880023    1    1    2    0    0  0.31099828359E+03 -0.14228930599E+03  0.22021209074E+04  0.23238142947E+04  0.65864270000E+03 0. -1.
    8880022    1    1    2    0    0 -0.31099828359E+03  0.14228930599E+03  0.10677991465E+03  0.38956357913E+03  0.15294330000E+03 0.  0.
<mgrwt>
<rscale>  0 0.62556195E+03</rscale>
<asrwt>0</asrwt>
<pdfrwt beam="1">  1        2 0.38632914E+00 0.74214310E+03</pdfrwt>
<pdfrwt beam="2">  1       -2 0.31113618E-01 0.74214310E+03</pdfrwt>
<totfact> 0.34290853E+01</totfact>
</mgrwt>
</event>
<event>
 4    2  0.3171963E-007  0.1008063E+04  0.7818608E-02  0.9371084E-01
          2   -1    0    0  501    0  0.00000000000E+00  0.00000000000E+00  0.15746691499E+04  0.15746691499E+04  0.25500000000E-02 0. -1.
         -2   -1    0    0    0  501 -0.00000000000E+00 -0.00000000000E+00 -0.97591564754E+03  0.97591564755E+03  0.25500000000E-02 0.  1.
    8880023    1    1    2    0    0  0.76113577787E+03  0.55259075846E+02  0.11998995608E+04  0.15671472171E+04  0.65864270000E+03 0.  0.
    8880022    1    1    2    0    0 -0.76113577787E+03 -0.55259075846E+02 -0.60114605845E+03  0.98343758034E+03  0.15294330000E+03 0.  0.
<mgrwt>
<rscale>  0 0.94494070E+03</rscale>
<asrwt>0</asrwt>
<pdfrwt beam="1">  1        2 0.24225679E+00 0.10080632E+04</pdfrwt>
<pdfrwt beam="2">  1       -2 0.15014087E+00 0.10080632E+04</pdfrwt>
<totfact> 0.34172307E+00</totfact>
</mgrwt>
</event>
<event>
 4    2  0.3171963E-007  0.6942069E+03  0.7818608E-02  0.1002214E+00
          2   -1    0    0  501    0  0.00000000000E+00  0.00000000000E+00  0.76062125147E+03  0.76062125147E+03  0.25500000000E-02 0. -1.
         -2   -1    0    0    0  501 -0.00000000000E+00 -0.00000000000E+00 -0.92157944982E+03  0.92157944982E+03  0.25500000000E-02 0.  1.
    8880023    1    1    2    0    0 -0.89766847280E+02  0.20013728446E+03  0.57357602363E+03  0.90050690205E+03  0.65864270000E+03 0. -1.
    8880022    1    1    2    0    0  0.89766847280E+02 -0.20013728446E+03 -0.73453422198E+03  0.78169379924E+03  0.15294330000E+03 0.  0.
<mgrwt>
<rscale>  0 0.54690073E+03</rscale>
<asrwt>0</asrwt>
<pdfrwt beam="1">  1        2 0.11701865E+00 0.69420690E+03</pdfrwt>
<pdfrwt beam="2">  1       -2 0.14178145E+00 0.69420690E+03</pdfrwt>
<totfact> 0.13070395E+01</totfact>
</mgrwt>
</event>
<event>
 4    2  0.3171963E-007  0.6911481E+03  0.7818608E-02  0.1003612E+00
          2   -1    0    0  501    0  0.00000000000E+00  0.00000000000E+00  0.14156503311E+04  0.14156503311E+04  0.25500000000E-02 0. -1.
         -2   -1    0    0    0  501 -0.00000000000E+00 -0.00000000000E+00 -0.46328987312E+03  0.46328987313E+03  0.25500000000E-02 0.  1.
    8880023    1    1    2    0    0  0.87113105678E+02  0.19049077008E+03  0.12838376801E+04  0.14580551504E+04  0.65864270000E+03 0. -1.
    8880022    1    1    2    0    0 -0.87113105678E+02 -0.19049077008E+03 -0.33147722214E+03  0.42088505376E+03  0.15294330000E+03 0.  0.
<mgrwt>
<rscale>  0 0.54094566E+03</rscale>
<asrwt>0</asrwt>
<pdfrwt beam="1">  1        2 0.21779236E+00 0.69114805E+03</pdfrwt>
<pdfrwt beam="2">  1       -2 0.71275366E-01 0.69114805E+03</pdfrwt>
<totfact> 0.26072088E+01</totfact>
</mgrwt>
</event>
<event>
 4    2  0.3171963E-007  0.1053984E+04  0.7818608E-02  0.9314108E-01
          2   -1    0    0  501    0  0.00000000000E+00  0.00000000000E+00  0.19024782730E+04  0.19024782730E+04  0.25500000000E-02 0. -1.
         -2   -1    0    0    0  501 -0.00000000000E+00 -0.00000000000E+00 -0.85791434425E+03  0.85791434425E+03  0.25500000000E-02 0.  1.
    8880023    1    1    2    0    0 -0.14557788891E+03  0.80986303839E+03 -0.36978294381E+03  0.11169694242E+04  0.65864270000E+03 0.  1.
    8880022    1    1    2    0    0  0.14557788891E+03 -0.80986303839E+03  0.14143468726E+04  0.16434231931E+04  0.15294330000E+03 0.  0.
<mgrwt>
<rscale>  0 0.99494367E+03</rscale>
<asrwt>0</asrwt>
<pdfrwt beam="1">  1        2 0.29268896E+00 0.10539835E+04</pdfrwt>
<pdfrwt beam="2">  1       -2 0.13198682E+00 0.10539835E+04</pdfrwt>
<totfact> 0.31331120E+00</totfact>
</mgrwt>
</event>
<event>
 4    2  0.3171963E-007  0.7613938E+03  0.7818608E-02  0.9801512E-01
          2   -1    0    0  501    0  0.00000000000E+00  0.00000000000E+00  0.21966504383E+04  0.21966504383E+04  0.25500000000E-02 0. -1.
         -2   -1    0    0    0  501 -0.00000000000E+00 -0.00000000000E+00 -0.28806963724E+03  0.28806963725E+03  0.25500000000E-02 0.  1.
    8880023    1    1    2    0    0  0.21025870004E+03  0.31890696900E+03  0.19278988599E+04  0.20728035595E+04  0.65864270000E+03 0.  0.
    8880022    1    1    2    0    0 -0.21025870004E+03 -0.31890696900E+03 -0.19318058844E+02  0.41191651609E+03  0.15294330000E+03 0.  0.
<mgrwt>
<rscale>  0 0.65281450E+03</rscale>
<asrwt>0</asrwt>
<pdfrwt beam="1">  1        2 0.33794622E+00 0.76139384E+03</pdfrwt>
<pdfrwt beam="2">  1       -2 0.44318406E-01 0.76139384E+03</pdfrwt>
<totfact> 0.25935522E+01</totfact>
</mgrwt>
</event>
<event>
 4    2  0.3171963E-007  0.7437561E+03  0.7818608E-02  0.9849138E-01
         -2   -1    0    0    0  501 -0.00000000000E+00  0.00000000000E+00  0.20547232931E+03  0.20547232933E+03  0.25500000000E-02 0.  1.
          2   -1    0    0  501    0  0.00000000000E+00 -0.00000000000E+00 -0.19049061607E+04  0.19049061607E+04  0.25500000000E-02 0. -1.
    8880023    1    1    2    0    0  0.34294932281E+03  0.41816919252E+02 -0.15197813755E+04  0.16920131585E+04  0.65864270000E+03 0. -1.
    8880022    1    1    2    0    0 -0.34294932281E+03 -0.41816919252E+02 -0.17965245588E+03  0.41836533158E+03  0.15294330000E+03 0.  0.
<mgrwt>
<rscale>  0 0.62790890E+03</rscale>
<asrwt>0</asrwt>
<pdfrwt beam="1">  1        2 0.29306247E+00 0.74375607E+03</pdfrwt>
<pdfrwt beam="2">  1       -2 0.31611129E-01 0.74375607E+03</pdfrwt>
<totfact> 0.72016789E+01</totfact>
</mgrwt>
</event>
<event>
 4    2  0.3171963E-007  0.8571228E+03  0.7818608E-02  0.9598702E-01
         -2   -1    0    0    0  501 -0.00000000000E+00  0.00000000000E+00  0.21013115280E+03  0.21013115281E+03  0.25500000000E-02 0.  1.
          2   -1    0    0  501    0  0.00000000000E+00 -0.00000000000E+00 -0.33659788908E+04  0.33659788908E+04  0.25500000000E-02 0. -1.
    8880023    1    1    2    0    0 -0.21364785240E+02 -0.54808104538E+03 -0.27402014077E+04  0.28711257805E+04  0.65864270000E+03 0.  0.
    8880022    1    1    2    0    0  0.21364785240E+02  0.54808104538E+03 -0.41564633032E+03  0.70498426314E+03  0.15294330000E+03 0.  0.
<mgrwt>
<rscale>  0 0.77382145E+03</rscale>
<asrwt>0</asrwt>
<pdfrwt beam="1">  1        2 0.51784287E+00 0.85712280E+03</pdfrwt>
<pdfrwt beam="2">  1       -2 0.32327872E-01 0.85712280E+03</pdfrwt>
<totfact> 0.94529351E+00</totfact>
</mgrwt>
</event>
<event>
 4    2  0.3171963E-007  0.8691257E+03  0.7818608E-02  0.9577532E-01
         -2   -1    0    0    0  501 -0.00000000000E+00  0.00000000000E+00  0.83732842117E+03  0.83732842118E+03  0.25500000000E-02 0.  1.
          2   -1    0    0  501    0  0.00000000000E+00 -0.00000000000E+00 -0.96991824156E+03  0.96991824157E+03  0.25500000000E-02 0. -1.
    8880023    1    1    2    0    0 -0.40589825840E+03 -0.39599984354E+03 -0.60042775340E+03  0.10563583509E+04  0.65864270000E+03 0.  0.
    8880022    1    1    2    0    0  0.40589825840E+03  0.39599984354E+03  0.46783793301E+03  0.75088831182E+03  0.15294330000E+03 0.  0.
<mgrwt>
<rscale>  0 0.78801264E+03</rscale>
<asrwt>0</asrwt>
<pdfrwt beam="1">  1        2 0.14921819E+00 0.86912570E+03</pdfrwt>
<pdfrwt beam="2">  1       -2 0.12881976E+00 0.86912570E+03</pdfrwt>
<totfact> 0.11756985E+01</totfact>
</mgrwt>
</event>
<event>
 4    2  0.3171963E-007  0.7988814E+03  0.7818608E-02  0.9713220E-01
          2   -1    0    0  501    0  0.00000000000E+00  0.00000000000E+00  0.56328961089E+03  0.56328961089E+03  0.25500000000E-02 0. -1.
         -2   -1    0    0    0  501 -0.00000000000E+00 -0.00000000000E+00 -0.12781878438E+04  0.12781878438E+04  0.25500000000E-02 0.  1.
    8880023    1    1    2    0    0 -0.40086878907E+03  0.20905861920E+03  0.18754223230E+03  0.82059952929E+03  0.65864270000E+03 0.  1.
    8880022    1    1    2    0    0  0.40086878907E+03 -0.20905861920E+03 -0.90244046522E+03  0.10208779254E+04  0.15294330000E+03 0.  0.
<mgrwt>
<rscale>  0 0.70235110E+03</rscale>
<asrwt>0</asrwt>
<pdfrwt beam="1">  1        2 0.86659940E-01 0.79888140E+03</pdfrwt>
<pdfrwt beam="2">  1       -2 0.19664428E+00 0.79888140E+03</pdfrwt>
<totfact> 0.75925273E+00</totfact>
</mgrwt>
</event>
<event>
 4    2  0.3171963E-007  0.6876319E+03  0.7818608E-02  0.1005299E+00
         -2   -1    0    0    0  501 -0.00000000000E+00  0.00000000000E+00  0.35691924744E+03  0.35691924745E+03  0.25500000000E-02 0.  1.
          2   -1    0    0  501    0  0.00000000000E+00 -0.00000000000E+00 -0.11385213529E+04  0.11385213529E+04  0.25500000000E-02 0. -1.
    8880023    1    1    2    0    0  0.18034288903E+03 -0.80646229253E+02 -0.96541491884E+03  0.11852693971E+04  0.65864270000E+03 0. -1.
    8880022    1    1    2    0    0 -0.18034288903E+03  0.80646229253E+02  0.18381281342E+03  0.31017120322E+03  0.15294330000E+03 0.  0.
<mgrwt>
<rscale>  0 0.53386521E+03</rscale>
<asrwt>0</asrwt>
<pdfrwt beam="1">  1        2 0.17515713E+00 0.68763186E+03</pdfrwt>
<pdfrwt beam="2">  1       -2 0.54910654E-01 0.68763186E+03</pdfrwt>
<totfact> 0.65777275E+01</totfact>
</mgrwt>
</event>
<event>
 4    2  0.3171963E-007  0.9373521E+03  0.7818608E-02  0.9468550E-01
         -2   -1    0    0    0  501 -0.00000000000E+00  0.00000000000E+00  0.97137607283E+03  0.97137607284E+03  0.25500000000E-02 0.  1.
          2   -1    0    0  501    0  0.00000000000E+00 -0.00000000000E+00 -0.18308446055E+04  0.18308446055E+04  0.25500000000E-02 0. -1.
    8880023    1    1    2    0    0  0.20099217771E+03 -0.63594095575E+03 -0.15619103887E+04  0.18215907947E+04  0.65864270000E+03 0. -1.
    8880022    1    1    2    0    0 -0.20099217771E+03  0.63594095575E+03  0.70244185600E+03  0.98062988368E+03  0.15294330000E+03 0.  0.
<mgrwt>
<rscale>  0 0.86642745E+03</rscale>
<asrwt>0</asrwt>
<pdfrwt beam="1">  1        2 0.28166840E+00 0.93735210E+03</pdfrwt>
<pdfrwt beam="2">  1       -2 0.14944247E+00 0.93735210E+03</pdfrwt>
<totfact> 0.25203222E+00</totfact>
</mgrwt>
</event>
<event>
 4    2  0.3171963E-007  0.1170837E+04  0.7818608E-02  0.9186005E-01
          2   -1    0    0  501    0  0.00000000000E+00  0.00000000000E+00  0.23775761243E+04  0.23775761243E+04  0.25500000000E-02 0. -1.
         -2   -1    0    0    0  501 -0.00000000000E+00 -0.00000000000E+00 -0.92038757628E+03  0.92038757629E+03  0.25500000000E-02 0.  1.
    8880023    1    1    2    0    0  0.85571311891E+03  0.45255309097E+03  0.18926672989E+04  0.22255446418E+04  0.65864270000E+03 0.  0.
    8880022    1    1    2    0    0 -0.85571311891E+03 -0.45255309097E+03 -0.43547875094E+03  0.10724190587E+04  0.15294330000E+03 0.  0.
<mgrwt>
<rscale>  0 0.11199050E+04</rscale>
<asrwt>0</asrwt>
<pdfrwt beam="1">  1        2 0.36578094E+00 0.11708371E+04</pdfrwt>
<pdfrwt beam="2">  1       -2 0.14159809E+00 0.11708371E+04</pdfrwt>
<totfact> 0.14002569E+00</totfact>
</mgrwt>
</event>
<event>
 4    2  0.3171963E-007  0.6903907E+03  0.7818608E-02  0.1003967E+00
          2   -1    0    0  501    0  0.00000000000E+00  0.00000000000E+00  0.32528218646E+04  0.32528218646E+04  0.25500000000E-02 0. -1.
         -2   -1    0    0    0  501 -0.00000000000E+00 -0.00000000000E+00 -0.99637114098E+02  0.99637114131E+02  0.25500000000E-02 0.  1.
    8880023    1    1    2    0    0 -0.20585299061E+03 -0.21299098110E+02  0.29349168584E+04  0.30150250873E+04  0.65864270000E+03 0. -1.
    8880022    1    1    2    0    0  0.20585299061E+03  0.21299098110E+02  0.21826789212E+03  0.33743389141E+03  0.15294330000E+03 0.  0.
<mgrwt>
<rscale>  0 0.53944288E+03</rscale>
<asrwt>0</asrwt>
<pdfrwt beam="1">  1        2 0.50043406E+00 0.69039069E+03</pdfrwt>
<pdfrwt beam="2">  1       -2 0.15328789E-01 0.69039069E+03</pdfrwt>
<totfact> 0.43479185E+01</totfact>
</mgrwt>
</event>
<event>
 4    2  0.3171963E-007  0.7718598E+03  0.7818608E-02  0.9775318E-01
          2   -1    0    0  501    0  0.00000000000E+00  0.00000000000E+00  0.47917779246E+03  0.47917779246E+03  0.25500000000E-02 0. -1.
         -2   -1    0    0    0  501 -0.00000000000E+00 -0.00000000000E+00 -0.77325812193E+03  0.77325812194E+03  0.25500000000E-02 0.  1.
    8880023    1    1    2    0    0 -0.13506795986E+03  0.37909637899E+03 -0.28194701663E+03  0.82174311363E+03  0.65864270000E+03 0.  0.
    8880022    1    1    2    0    0  0.13506795986E+03 -0.37909637899E+03 -0.12133312842E+02  0.43069280077E+03  0.15294330000E+03 0.  0.
<mgrwt>
<rscale>  0 0.66704117E+03</rscale>
<asrwt>0</asrwt>
<pdfrwt beam="1">  1        2 0.73719660E-01 0.77185985E+03</pdfrwt>
<pdfrwt beam="2">  1       -2 0.11896279E+00 0.77185985E+03</pdfrwt>
<totfact> 0.35467636E+01</totfact>
</mgrwt>
</event>
<event>
 4    2  0.3171963E-007  0.1148009E+04  0.7818608E-02  0.9209397E-01
          2   -1    0    0  501    0  0.00000000000E+00  0.00000000000E+00  0.10662326053E+04  0.10662326053E+04  0.25500000000E-02 0. -1.
         -2   -1    0    0    0  501 -0.00000000000E+00 -0.00000000000E+00 -0.15416983361E+04  0.15416983361E+04  0.25500000000E-02 0.  1.
    8880023    1    1    2    0    0 -0.90190519398E+03 -0.26585932241E+03  0.49306778874E+03  0.12494159471E+04  0.65864270000E+03 0. -1.
    8880022    1    1    2    0    0  0.90190519398E+03  0.26585932241E+03 -0.96853351958E+03  0.13585149943E+04  0.15294330000E+03 0.  0.
<mgrwt>
<rscale>  0 0.10956961E+04</rscale>
<asrwt>0</asrwt>
<pdfrwt beam="1">  1        2 0.16403579E+00 0.11480089E+04</pdfrwt>
<pdfrwt beam="2">  1       -2 0.23718436E+00 0.11480089E+04</pdfrwt>
<totfact> 0.17250533E+00</totfact>
</mgrwt>
</event>
<event>
 4    2  0.3171963E-007  0.6778019E+03  0.7818608E-02  0.1010595E+00
          2   -1    0    0  501    0  0.00000000000E+00  0.00000000000E+00  0.11977366150E+04  0.11977366150E+04  0.25500000000E-02 0. -1.
         -2   -1    0    0    0  501 -0.00000000000E+00 -0.00000000000E+00 -0.32108061319E+03  0.32108061320E+03  0.25500000000E-02 0.  1.
    8880023    1    1    2    0    0 -0.79085849041E+02  0.13910657397E+03  0.10416351359E+04  0.12427466247E+04  0.65864270000E+03 0. -1.
    8880022    1    1    2    0    0  0.79085849041E+02 -0.13910657397E+03 -0.16497913411E+03  0.27607060355E+03  0.15294330000E+03 0.  0.
<mgrwt>
<rscale>  0 0.51238702E+03</rscale>
<asrwt>0</asrwt>
<pdfrwt beam="1">  1        2 0.18426717E+00 0.67780190E+03</pdfrwt>
<pdfrwt beam="2">  1       -2 0.49397018E-01 0.67780190E+03</pdfrwt>
<totfact> 0.75402724E+01</totfact>
</mgrwt>
</event>
<event>
 4    2  0.3171963E-007  0.6722781E+03  0.7818608E-02  0.1014080E+00
          2   -1    0    0  501    0  0.00000000000E+00  0.00000000000E+00  0.19053430948E+04  0.19053430948E+04  0.25500000000E-02 0. -1.
         -2   -1    0    0    0  501 -0.00000000000E+00 -0.00000000000E+00 -0.37617626970E+03  0.37617626971E+03  0.25500000000E-02 0.  1.
    8880023    1    1    2    0    0  0.67582901109E+02 -0.11653395929E+03  0.18121197252E+04  0.19328051420E+04  0.65864270000E+03 0. -1.
    8880022    1    1    2    0    0 -0.67582901109E+02  0.11653395929E+03 -0.28295290018E+03  0.34871422243E+03  0.15294330000E+03 0.  0.
<mgrwt>
<rscale>  0 0.49884895E+03</rscale>
<asrwt>0</asrwt>
<pdfrwt beam="1">  1        2 0.29312971E+00 0.67227808E+03</pdfrwt>
<pdfrwt beam="2">  1       -2 0.57873271E-01 0.67227808E+03</pdfrwt>
<totfact> 0.21987751E+01</totfact>
</mgrwt>
</event>
<event>
 4    2  0.3171963E-007  0.6715107E+03  0.7818608E-02  0.1014602E+00
          2   -1    0    0  501    0  0.00000000000E+00  0.00000000000E+00  0.66178036138E+03  0.66178036139E+03  0.25500000000E-02 0. -1.
         -2   -1    0    0    0  501 -0.00000000000E+00 -0.00000000000E+00 -0.32680078918E+03  0.32680078919E+03  0.25500000000E-02 0.  1.
    8880023    1    1    2    0    0  0.40002518508E+02 -0.12456427459E+03  0.39434893397E+03  0.77874113027E+03  0.65864270000E+03 0.  0.
    8880022    1    1    2    0    0 -0.40002518508E+02  0.12456427459E+03 -0.59369361771E+02  0.20984002031E+03  0.15294330000E+03 0.  0.
<mgrwt>
<rscale>  0 0.49685821E+03</rscale>
<asrwt>0</asrwt>
<pdfrwt beam="1">  1        2 0.10181236E+00 0.67151073E+03</pdfrwt>
<pdfrwt beam="2">  1       -2 0.50277045E-01 0.67151073E+03</pdfrwt>
<totfact> 0.16689380E+02</totfact>
</mgrwt>
</event>
<event>
 4    2  0.3171963E-007  0.1075094E+04  0.7818608E-02  0.9289306E-01
          2   -1    0    0  501    0  0.00000000000E+00  0.00000000000E+00  0.93903205599E+03  0.93903205599E+03  0.25500000000E-02 0. -1.
         -2   -1    0    0    0  501 -0.00000000000E+00 -0.00000000000E+00 -0.10740320540E+04  0.10740320540E+04  0.25500000000E-02 0.  1.
    8880023    1    1    2    0    0  0.14630040421E+03  0.83702658215E+03  0.18770087628E+03  0.10913565562E+04  0.65864270000E+03 0.  0.
    8880022    1    1    2    0    0 -0.14630040421E+03 -0.83702658215E+03 -0.32270087431E+03  0.92170755383E+03  0.15294330000E+03 0.  0.
<mgrwt>
<rscale>  0 0.10177338E+04</rscale>
<asrwt>0</asrwt>
<pdfrwt beam="1">  1        2 0.14446647E+00 0.10750942E+04</pdfrwt>
<pdfrwt beam="2">  1       -2 0.16523570E+00 0.10750942E+04</pdfrwt>
<totfact> 0.62674098E+00</totfact>
</mgrwt>
</event>
<event>
 4    2  0.3171963E-007  0.1671058E+04  0.7818608E-02  0.8797430E-01
          2   -1    0    0  501    0  0.00000000000E+00  0.00000000000E+00  0.16954214350E+04  0.16954214350E+04  0.25500000000E-02 0. -1.
         -2   -1    0    0    0  501 -0.00000000000E+00 -0.00000000000E+00 -0.18855729849E+04  0.18855729849E+04  0.25500000000E-02 0.  1.
    8880023    1    1    2    0    0  0.53185538954E+02  0.15348604769E+04  0.68586299016E+03  0.18063343081E+04  0.65864270000E+03 0.  0.
    8880022    1    1    2    0    0 -0.53185538954E+02 -0.15348604769E+04 -0.87601454011E+03  0.17746601118E+04  0.15294330000E+03 0.  0.
<mgrwt>
<rscale>  0 0.16381807E+04</rscale>
<asrwt>0</asrwt>
<pdfrwt beam="1">  1        2 0.26083407E+00 0.16710582E+04</pdfrwt>
<pdfrwt beam="2">  1       -2 0.29008815E+00 0.16710582E+04</pdfrwt>
<totfact> 0.33259806E-01</totfact>
</mgrwt>
</event>
<event>
 4    2  0.3171963E-007  0.6896491E+03  0.7818608E-02  0.1004320E+00
          2   -1    0    0  501    0  0.00000000000E+00  0.00000000000E+00  0.83363777193E+03  0.83363777193E+03  0.25500000000E-02 0. -1.
         -2   -1    0    0    0  501 -0.00000000000E+00 -0.00000000000E+00 -0.32057674898E+03  0.32057674899E+03  0.25500000000E-02 0.  1.
    8880023    1    1    2    0    0  0.98970824258E+02 -0.17891455042E+03  0.56751563848E+03  0.89313484233E+03  0.65864270000E+03 0.  0.
    8880022    1    1    2    0    0 -0.98970824258E+02  0.17891455042E+03 -0.54454615533E+02  0.26107967859E+03  0.15294330000E+03 0.  0.
<mgrwt>
<rscale>  0 0.53795979E+03</rscale>
<asrwt>0</asrwt>
<pdfrwt beam="1">  1        2 0.12825196E+00 0.68964908E+03</pdfrwt>
<pdfrwt beam="2">  1       -2 0.49319500E-01 0.68964908E+03</pdfrwt>
<totfact> 0.12880515E+02</totfact>
</mgrwt>
</event>
<event>
 4    2  0.3171963E-007  0.9923578E+03  0.7818608E-02  0.9391625E-01
          2   -1    0    0  501    0  0.00000000000E+00  0.00000000000E+00  0.18164322330E+04  0.18164322330E+04  0.25500000000E-02 0. -1.
         -2   -1    0    0    0  501 -0.00000000000E+00 -0.00000000000E+00 -0.75076558137E+03  0.75076558138E+03  0.25500000000E-02 0.  1.
    8880023    1    1    2    0    0 -0.33966310827E+03  0.65999450747E+03  0.14185538610E+04  0.17312045055E+04  0.65864270000E+03 0.  0.
    8880022    1    1    2    0    0  0.33966310827E+03 -0.65999450747E+03 -0.35288720935E+03  0.83599330891E+03  0.15294330000E+03 0.  1.
<mgrwt>
<rscale>  0 0.92768130E+03</rscale>
<asrwt>0</asrwt>
<pdfrwt beam="1">  1        2 0.27945111E+00 0.99235779E+03</pdfrwt>
<pdfrwt beam="2">  1       -2 0.11550240E+00 0.99235779E+03</pdfrwt>
<totfact> 0.49196929E+00</totfact>
</mgrwt>
</event>
<event>
 4    2  0.3171963E-007  0.8229022E+03  0.7818608E-02  0.9663304E-01
          2   -1    0    0  501    0  0.00000000000E+00  0.00000000000E+00  0.19832000849E+04  0.19832000849E+04  0.25500000000E-02 0. -1.
         -2   -1    0    0    0  501 -0.00000000000E+00 -0.00000000000E+00 -0.45231272487E+03  0.45231272488E+03  0.25500000000E-02 0.  1.
    8880023    1    1    2    0    0 -0.48005611006E+03 -0.11359534012E+03  0.17027669588E+04  0.18911856843E+04  0.65864270000E+03 0.  0.
    8880022    1    1    2    0    0  0.48005611006E+03  0.11359534012E+03 -0.17187959877E+03  0.54432712553E+03  0.15294330000E+03 0.  0.
<mgrwt>
<rscale>  0 0.73244343E+03</rscale>
<asrwt>0</asrwt>
<pdfrwt beam="1">  1        2 0.30510770E+00 0.82290217E+03</pdfrwt>
<pdfrwt beam="2">  1       -2 0.69586575E-01 0.82290217E+03</pdfrwt>
<totfact> 0.13166251E+01</totfact>
</mgrwt>
</event>
<event>
 4    2  0.3171963E-007  0.8260014E+03  0.7818608E-02  0.9657163E-01
          2   -1    0    0  501    0  0.00000000000E+00  0.00000000000E+00  0.36013835186E+04  0.36013835187E+04  0.25500000000E-02 0. -1.
         -2   -1    0    0    0  501 -0.00000000000E+00 -0.00000000000E+00 -0.29465671528E+03  0.29465671529E+03  0.25500000000E-02 0.  1.
    8880023    1    1    2    0    0 -0.42677669939E+03  0.25754577474E+03  0.32707063785E+04  0.33733957073E+04  0.65864270000E+03 0.  0.
    8880022    1    1    2    0    0  0.42677669939E+03 -0.25754577474E+03  0.36020424861E+02  0.52264452666E+03  0.15294330000E+03 0.  0.
<mgrwt>
<rscale>  0 0.73625581E+03</rscale>
<asrwt>0</asrwt>
<pdfrwt beam="1">  1        2 0.55405903E+00 0.82600144E+03</pdfrwt>
<pdfrwt beam="2">  1       -2 0.45331800E-01 0.82600144E+03</pdfrwt>
<totfact> 0.34100917E+00</totfact>
</mgrwt>
</event>
<event>
 4    2  0.3171963E-007  0.6970753E+03  0.7818608E-02  0.1000956E+00
          2   -1    0    0  501    0  0.00000000000E+00  0.00000000000E+00  0.26101808422E+04  0.26101808422E+04  0.25500000000E-02 0. -1.
         -2   -1    0    0    0  501 -0.00000000000E+00 -0.00000000000E+00 -0.36575478798E+03  0.36575478799E+03  0.25500000000E-02 0.  1.
    8880023    1    1    2    0    0 -0.14346509397E+03  0.17754310876E+03  0.25032310426E+04  0.25984764089E+04  0.65864270000E+03 0. -1.
    8880022    1    1    2    0    0  0.14346509397E+03 -0.17754310876E+03 -0.25880498843E+03  0.37745922126E+03  0.15294330000E+03 0.  0.
<mgrwt>
<rscale>  0 0.55233157E+03</rscale>
<asrwt>0</asrwt>
<pdfrwt beam="1">  1        2 0.40156629E+00 0.69707532E+03</pdfrwt>
<pdfrwt beam="2">  1       -2 0.56269966E-01 0.69707532E+03</pdfrwt>
<totfact> 0.94475776E+00</totfact>
</mgrwt>
</event>
<event>
 4    2  0.3171963E-007  0.6609484E+03  0.7818608E-02  0.1023205E+00
         -2   -1    0    0    0  501 -0.00000000000E+00  0.00000000000E+00  0.47821047743E+03  0.47821047743E+03  0.25500000000E-02 0.  1.
          2   -1    0    0  501    0  0.00000000000E+00 -0.00000000000E+00 -0.11422154048E+04  0.11422154048E+04  0.25500000000E-02 0. -1.
    8880023    1    1    2    0    0  0.17316351142E+02 -0.52370777463E+02 -0.10277865243E+04  0.12219647704E+04  0.65864270000E+03 0. -1.
    8880022    1    1    2    0    0 -0.17316351142E+02  0.52370777463E+02  0.36378159693E+03  0.39846111182E+03  0.15294330000E+03 0.  0.
<mgrwt>
<rscale>  0 0.46547509E+03</rscale>
<asrwt>0</asrwt>
<pdfrwt beam="1">  1        2 0.17572545E+00 0.66094838E+03</pdfrwt>
<pdfrwt beam="2">  1       -2 0.73570843E-01 0.66094838E+03</pdfrwt>
<totfact> 0.35135481E+01</totfact>
</mgrwt>
</event>
<event>
 4    2  0.3171963E-007  0.8373378E+03  0.7818608E-02  0.9635221E-01
          2   -1    0    0  501    0  0.00000000000E+00  0.00000000000E+00  0.31382378024E+04  0.31382378024E+04  0.25500000000E-02 0. -1.
         -2   -1    0    0    0  501 -0.00000000000E+00 -0.00000000000E+00 -0.28840111304E+03  0.28840111305E+03  0.25500000000E-02 0.  1.
    8880023    1    1    2    0    0 -0.48324182813E+03 -0.18385248581E+03  0.27546728161E+04  0.28791243341E+04  0.65864270000E+03 0. -1.
    8880022    1    1    2    0    0  0.48324182813E+03  0.18385248581E+03  0.95163873218E+02  0.54751458134E+03  0.15294330000E+03 0.  0.
<mgrwt>
<rscale>  0 0.75008271E+03</rscale>
<asrwt>0</asrwt>
<pdfrwt beam="1">  1        2 0.48280579E+00 0.83733781E+03</pdfrwt>
<pdfrwt beam="2">  1       -2 0.44369404E-01 0.83733781E+03</pdfrwt>
<totfact> 0.72112490E+00</totfact>
</mgrwt>
</event>
<event>
 4    2  0.3171963E-007  0.1153040E+04  0.7818608E-02  0.9204180E-01
         -2   -1    0    0    0  501 -0.00000000000E+00  0.00000000000E+00  0.51349565075E+03  0.51349565075E+03  0.25500000000E-02 0.  1.
          2   -1    0    0  501    0  0.00000000000E+00 -0.00000000000E+00 -0.36612328647E+04  0.36612328647E+04  0.25500000000E-02 0. -1.
    8880023    1    1    2    0    0  0.40758044814E+03  0.85414828625E+03 -0.29880883639E+04  0.32028383340E+04  0.65864270000E+03 0.  0.
    8880022    1    1    2    0    0 -0.40758044814E+03 -0.85414828625E+03 -0.15964885007E+03  0.97189018153E+03  0.15294330000E+03 0.  0.
<mgrwt>
<rscale>  0 0.11010388E+04</rscale>
<asrwt>0</asrwt>
<pdfrwt beam="1">  1        2 0.56326658E+00 0.11530400E+04</pdfrwt>
<pdfrwt beam="2">  1       -2 0.78999333E-01 0.11530400E+04</pdfrwt>
<totfact> 0.89927714E-01</totfact>
</mgrwt>
</event>
<event>
 4    2  0.3171963E-007  0.7046240E+03  0.7818608E-02  0.9978534E-01
         -2   -1    0    0    0  501 -0.00000000000E+00  0.00000000000E+00  0.41519005204E+03  0.41519005205E+03  0.25500000000E-02 0.  1.
          2   -1    0    0  501    0  0.00000000000E+00 -0.00000000000E+00 -0.25733695662E+04  0.25733695662E+04  0.25500000000E-02 0. -1.
    8880023    1    1    2    0    0 -0.21997406611E+03  0.11956658051E+03 -0.24651842480E+04  0.25639088010E+04  0.65864270000E+03 0.  0.
    8880022    1    1    2    0    0  0.21997406611E+03 -0.11956658051E+03  0.30700473388E+03  0.42465081723E+03  0.15294330000E+03 0.  0.
<mgrwt>
<rscale>  0 0.56601584E+03</rscale>
<asrwt>0</asrwt>
<pdfrwt beam="1">  1        2 0.39590300E+00 0.70462399E+03</pdfrwt>
<pdfrwt beam="2">  1       -2 0.63875394E-01 0.70462399E+03</pdfrwt>
<totfact> 0.75791269E+00</totfact>
</mgrwt>
</event>
<event>
 4    2  0.3171963E-007  0.2310879E+04  0.7818608E-02  0.8482710E-01
         -2   -1    0    0    0  501 -0.00000000000E+00  0.00000000000E+00  0.29125201427E+04  0.29125201427E+04  0.25500000000E-02 0.  1.
          2   -1    0    0  501    0  0.00000000000E+00 -0.00000000000E+00 -0.20945084595E+04  0.20945084595E+04  0.25500000000E-02 0. -1.
    8880023    1    1    2    0    0 -0.97536857133E+03  0.19887202232E+04 -0.58090493820E+03  0.23827741667E+04  0.65864270000E+03 0. -1.
    8880022    1    1    2    0    0  0.97536857133E+03 -0.19887202232E+04  0.13989166214E+04  0.26242544355E+04  0.15294330000E+03 0.  0.
<mgrwt>
<rscale>  0 0.22878943E+04</rscale>
<asrwt>0</asrwt>
<pdfrwt beam="1">  1        2 0.32223207E+00 0.23108791E+04</pdfrwt>
<pdfrwt beam="2">  1       -2 0.44808002E+00 0.23108791E+04</pdfrwt>
<totfact> 0.18088516E-02</totfact>
</mgrwt>
</event>
<event>
 4    2  0.3171963E-007  0.7123381E+03  0.7818608E-02  0.9949419E-01
          2   -1    0    0  501    0  0.00000000000E+00  0.00000000000E+00  0.36786468379E+03  0.36786468380E+03  0.25500000000E-02 0. -1.
         -2   -1    0    0    0  501 -0.00000000000E+00 -0.00000000000E+00 -0.90627541708E+03  0.90627541708E+03  0.25500000000E-02 0.  1.
    8880023    1    1    2    0    0 -0.12989088141E+02 -0.27101044919E+03 -0.75672124980E+02  0.71634618499E+03  0.65864270000E+03 0. -1.
    8880022    1    1    2    0    0  0.12989088141E+02  0.27101044919E+03 -0.46273860830E+03  0.55779391590E+03  0.15294330000E+03 0.  0.
<mgrwt>
<rscale>  0 0.57924866E+03</rscale>
<asrwt>0</asrwt>
<pdfrwt beam="1">  1        2 0.56594567E-01 0.71233811E+03</pdfrwt>
<pdfrwt beam="2">  1       -2 0.13942699E+00 0.71233811E+03</pdfrwt>
<totfact> 0.32187366E+01</totfact>
</mgrwt>
</event>
<event>
 4    2  0.3171963E-007  0.1016338E+04  0.7818608E-02  0.9360488E-01
          2   -1    0    0  501    0  0.00000000000E+00  0.00000000000E+00  0.10655377133E+04  0.10655377133E+04  0.25500000000E-02 0. -1.
         -2   -1    0    0    0  501 -0.00000000000E+00 -0.00000000000E+00 -0.11053640671E+04  0.11053640671E+04  0.25500000000E-02 0.  1.
    8880023    1    1    2    0    0 -0.68229279340E+03 -0.36552624837E+03  0.57762877325E+03  0.11690158682E+04  0.65864270000E+03 0. -1.
    8880022    1    1    2    0    0  0.68229279340E+03  0.36552624837E+03 -0.61745512701E+03  0.10018859122E+04  0.15294330000E+03 0.  1.
<mgrwt>
<rscale>  0 0.95399964E+03</rscale>
<asrwt>0</asrwt>
<pdfrwt beam="1">  1        2 0.16392888E+00 0.10163381E+04</pdfrwt>
<pdfrwt beam="2">  1       -2 0.17005601E+00 0.10163381E+04</pdfrwt>
<totfact> 0.48224452E+00</totfact>
</mgrwt>
</event>
<event>
 4    2  0.3171963E-007  0.8066225E+03  0.7818608E-02  0.9696656E-01
         -2   -1    0    0    0  501 -0.00000000000E+00  0.00000000000E+00  0.10535055190E+04  0.10535055190E+04  0.25500000000E-02 0.  1.
          2   -1    0    0  501    0  0.00000000000E+00 -0.00000000000E+00 -0.82639041793E+03  0.82639041793E+03  0.25500000000E-02 0. -1.
    8880023    1    1    2    0    0 -0.34119008193E+03  0.31688954247E+03 -0.53920142181E+03  0.97024637782E+03  0.65864270000E+03 0.  0.
    8880022    1    1    2    0    0  0.34119008193E+03 -0.31688954247E+03  0.76631652286E+03  0.90964955909E+03  0.15294330000E+03 0.  0.
<mgrwt>
<rscale>  0 0.71216265E+03</rscale>
<asrwt>0</asrwt>
<pdfrwt beam="1">  1        2 0.12713699E+00 0.80662250E+03</pdfrwt>
<pdfrwt beam="2">  1       -2 0.16207777E+00 0.80662250E+03</pdfrwt>
<totfact> 0.81061318E+00</totfact>
</mgrwt>
</event>
<event>
 4    2  0.3171963E-007  0.9653193E+03  0.7818608E-02  0.9428407E-01
          2   -1    0    0  501    0  0.00000000000E+00  0.00000000000E+00  0.27489241393E+04  0.27489241393E+04  0.25500000000E-02 0. -1.
         -2   -1    0    0    0  501 -0.00000000000E+00 -0.00000000000E+00 -0.31529111872E+03  0.31529111873E+03  0.25500000000E-02 0.  1.
    8880023    1    1    2    0    0  0.62972517186E+03 -0.31855501922E+03  0.20029589119E+04  0.22234400602E+04  0.65864270000E+03 0. -1.
    8880022    1    1    2    0    0 -0.62972517186E+03  0.31855501922E+03  0.43067410865E+03  0.84077519779E+03  0.15294330000E+03 0.  0.
<mgrwt>
<rscale>  0 0.89774290E+03</rscale>
<asrwt>0</asrwt>
<pdfrwt beam="1">  1        2 0.42291141E+00 0.96531927E+03</pdfrwt>
<pdfrwt beam="2">  1       -2 0.48506325E-01 0.96531927E+03</pdfrwt>
<totfact> 0.10211547E+01</totfact>
</mgrwt>
</event>
<event>
 4    2  0.3171963E-007  0.6994795E+03  0.7818608E-02  0.9999367E-01
         -2   -1    0    0    0  501 -0.00000000000E+00  0.00000000000E+00  0.19835730398E+03  0.19835730399E+03  0.25500000000E-02 0.  1.
          2   -1    0    0  501    0  0.00000000000E+00 -0.00000000000E+00 -0.24321077045E+04  0.24321077045E+04  0.25500000000E-02 0. -1.
    8880023    1    1    2    0    0 -0.12375895392E+03  0.20036243371E+03 -0.22429682376E+04  0.23495059278E+04  0.65864270000E+03 0. -1.
    8880022    1    1    2    0    0  0.12375895392E+03 -0.20036243371E+03  0.92178370518E+01  0.28095908074E+03  0.15294330000E+03 0.  0.
<mgrwt>
<rscale>  0 0.55677990E+03</rscale>
<asrwt>0</asrwt>
<pdfrwt beam="1">  1        2 0.37417039E+00 0.69947951E+03</pdfrwt>
<pdfrwt beam="2">  1       -2 0.30516510E-01 0.69947951E+03</pdfrwt>
<totfact> 0.39641634E+01</totfact>
</mgrwt>
</event>
<event>
 4    2  0.3171963E-007  0.8254497E+03  0.7818608E-02  0.9658251E-01
         -2   -1    0    0    0  501 -0.00000000000E+00  0.00000000000E+00  0.33063508736E+03  0.33063508737E+03  0.25500000000E-02 0.  1.
          2   -1    0    0  501    0  0.00000000000E+00 -0.00000000000E+00 -0.21014407464E+04  0.21014407464E+04  0.25500000000E-02 0. -1.
    8880023    1    1    2    0    0 -0.28595661209E+03  0.40716811133E+03 -0.17215602944E+04  0.19092242164E+04  0.65864270000E+03 0.  0.
    8880022    1    1    2    0    0  0.28595661209E+03 -0.40716811133E+03 -0.49245364663E+02  0.52285161742E+03  0.15294330000E+03 0.  0.
<mgrwt>
<rscale>  0 0.73557822E+03</rscale>
<asrwt>0</asrwt>
<pdfrwt beam="1">  1        2 0.32329857E+00 0.82544973E+03</pdfrwt>
<pdfrwt beam="2">  1       -2 0.50866938E-01 0.82544973E+03</pdfrwt>
<totfact> 0.21976063E+01</totfact>
</mgrwt>
</event>
<event>
 4    2  0.3171963E-007  0.7998809E+03  0.7818608E-02  0.9711054E-01
         -2   -1    0    0    0  501 -0.00000000000E+00  0.00000000000E+00  0.13064070815E+04  0.13064070815E+04  0.25500000000E-02 0.  1.
          2   -1    0    0  501    0  0.00000000000E+00 -0.00000000000E+00 -0.89771340054E+03  0.89771340054E+03  0.25500000000E-02 0. -1.
    8880023    1    1    2    0    0 -0.40281094976E+03 -0.20914734038E+03 -0.65741070233E+03  0.10353735118E+04  0.65864270000E+03 0. -1.
    8880022    1    1    2    0    0  0.40281094976E+03  0.20914734038E+03  0.10661043833E+04  0.11687469702E+04  0.15294330000E+03 0.  0.
<mgrwt>
<rscale>  0 0.70362462E+03</rscale>
<asrwt>0</asrwt>
<pdfrwt beam="1">  1        2 0.13810975E+00 0.79988091E+03</pdfrwt>
<pdfrwt beam="2">  1       -2 0.20098571E+00 0.79988091E+03</pdfrwt>
<totfact> 0.39181201E+00</totfact>
</mgrwt>
</event>
<event>
 4    2  0.3171963E-007  0.9258779E+03  0.7818608E-02  0.9485705E-01
         -2   -1    0    0    0  501 -0.00000000000E+00  0.00000000000E+00  0.89178138721E+03  0.89178138721E+03  0.25500000000E-02 0.  1.
          2   -1    0    0  501    0  0.00000000000E+00 -0.00000000000E+00 -0.31485222811E+04  0.31485222811E+04  0.25500000000E-02 0. -1.
    8880023    1    1    2    0    0  0.78943907642E+02  0.64591610463E+03 -0.29412556334E+04  0.30835425507E+04  0.65864270000E+03 0. -1.
    8880022    1    1    2    0    0 -0.78943907642E+02 -0.64591610463E+03  0.68451473943E+03  0.95676111767E+03  0.15294330000E+03 0.  0.
<mgrwt>
<rscale>  0 0.85346018E+03</rscale>
<asrwt>0</asrwt>
<pdfrwt beam="1">  1        2 0.48438804E+00 0.92587794E+03</pdfrwt>
<pdfrwt beam="2">  1       -2 0.13719714E+00 0.92587794E+03</pdfrwt>
<totfact> 0.54867209E-01</totfact>
</mgrwt>
</event>
<event>
 4    2  0.3171963E-007  0.7280807E+03  0.7818608E-02  0.9896135E-01
         -2   -1    0    0    0  501 -0.00000000000E+00  0.00000000000E+00  0.21028417341E+03  0.21028417343E+03  0.25500000000E-02 0.  1.
          2   -1    0    0  501    0  0.00000000000E+00 -0.00000000000E+00 -0.25765611452E+04  0.25765611452E+04  0.25500000000E-02 0. -1.
    8880023    1    1    2    0    0 -0.30738153848E+02  0.30878232863E+03 -0.23275071596E+04  0.24387273618E+04  0.65864270000E+03 0. -1.
    8880022    1    1    2    0    0  0.30738153848E+02 -0.30878232863E+03 -0.38769812198E+02  0.34811795692E+03  0.15294330000E+03 0.  0.
<mgrwt>
<rscale>  0 0.60448945E+03</rscale>
<asrwt>0</asrwt>
<pdfrwt beam="1">  1        2 0.39639400E+00 0.72808074E+03</pdfrwt>
<pdfrwt beam="2">  1       -2 0.32351413E-01 0.72808074E+03</pdfrwt>
<totfact> 0.29313745E+01</totfact>
</mgrwt>
</event>
<event>
 4    2  0.3171963E-007  0.6710499E+03  0.7818608E-02  0.1014921E+00
          2   -1    0    0  501    0  0.00000000000E+00  0.00000000000E+00  0.14072040446E+04  0.14072040446E+04  0.25500000000E-02 0. -1.
         -2   -1    0    0    0  501 -0.00000000000E+00 -0.00000000000E+00 -0.15095701447E+03  0.15095701450E+03  0.25500000000E-02 0.  1.
    8880023    1    1    2    0    0  0.11592898805E+03  0.55301057011E+02  0.11511800936E+04  0.13324877303E+04  0.65864270000E+03 0. -1.
    8880022    1    1    2    0    0 -0.11592898805E+03 -0.55301057011E+02  0.10506693652E+03  0.22567332882E+03  0.15294330000E+03 0.  0.
<mgrwt>
<rscale>  0 0.49564791E+03</rscale>
<asrwt>0</asrwt>
<pdfrwt beam="1">  1        2 0.21649293E+00 0.67104988E+03</pdfrwt>
<pdfrwt beam="2">  1       -2 0.23224156E-01 0.67104988E+03</pdfrwt>
<totfact> 0.23900154E+02</totfact>
</mgrwt>
</event>
<event>
 4    2  0.3171963E-007  0.6641088E+03  0.7818608E-02  0.1020293E+00
          2   -1    0    0  501    0  0.00000000000E+00  0.00000000000E+00  0.56087654321E+03  0.56087654322E+03  0.25500000000E-02 0. -1.
         -2   -1    0    0    0  501 -0.00000000000E+00 -0.00000000000E+00 -0.10599401074E+04  0.10599401074E+04  0.25500000000E-02 0.  1.
    8880023    1    1    2    0    0 -0.45009756156E+02 -0.72141932612E+02  0.35222166901E+03  0.75173176531E+03  0.65864270000E+03 0. -1.
    8880022    1    1    2    0    0  0.45009756156E+02  0.72141932612E+02 -0.85128523323E+03  0.86908488534E+03  0.15294330000E+03 0.  0.
<mgrwt>
<rscale>  0 0.47581006E+03</rscale>
<asrwt>0</asrwt>
<pdfrwt beam="1">  1        2 0.86288699E-01 0.66410883E+03</pdfrwt>
<pdfrwt beam="2">  1       -2 0.16306771E+00 0.66410883E+03</pdfrwt>
<totfact> 0.13176587E+01</totfact>
</mgrwt>
</event>
<event>
 4    2  0.3171963E-007  0.7171058E+03  0.7818608E-02  0.9932504E-01
          2   -1    0    0  501    0  0.00000000000E+00  0.00000000000E+00  0.34954291168E+04  0.34954291168E+04  0.25500000000E-02 0. -1.
         -2   -1    0    0    0  501 -0.00000000000E+00 -0.00000000000E+00 -0.12538318775E+03  0.12538318777E+03  0.25500000000E-02 0.  1.
    8880023    1    1    2    0    0  0.94740150579E+02 -0.26731023121E+03  0.31500861221E+04  0.32306784487E+04  0.65864270000E+03 0. -1.
    8880022    1    1    2    0    0 -0.94740150579E+02  0.26731023121E+03  0.21995980699E+03  0.39013385594E+03  0.15294330000E+03 0.  0.
<mgrwt>
<rscale>  0 0.58711562E+03</rscale>
<asrwt>0</asrwt>
<pdfrwt beam="1">  1        2 0.53775834E+00 0.71710575E+03</pdfrwt>
<pdfrwt beam="2">  1       -2 0.19289721E-01 0.71710575E+03</pdfrwt>
<totfact> 0.20164313E+01</totfact>
</mgrwt>
</event>
<event>
 4    2  0.3171963E-007  0.8124013E+03  0.7818608E-02  0.9684597E-01
          2   -1    0    0  501    0  0.00000000000E+00  0.00000000000E+00  0.70203321221E+03  0.70203321221E+03  0.25500000000E-02 0. -1.
         -2   -1    0    0    0  501 -0.00000000000E+00 -0.00000000000E+00 -0.97118586313E+03  0.97118586313E+03  0.25500000000E-02 0.  1.
    8880023    1    1    2    0    0 -0.99579251513E+02  0.46504796074E+03  0.34406966187E+03  0.88225833609E+03  0.65864270000E+03 0. -1.
    8880022    1    1    2    0    0  0.99579251513E+02 -0.46504796074E+03 -0.61322231279E+03  0.79096073925E+03  0.15294330000E+03 0.  0.
<mgrwt>
<rscale>  0 0.71941350E+03</rscale>
<asrwt>0</asrwt>
<pdfrwt beam="1">  1        2 0.10800511E+00 0.81240128E+03</pdfrwt>
<pdfrwt beam="2">  1       -2 0.14941321E+00 0.81240128E+03</pdfrwt>
<totfact> 0.12468844E+01</totfact>
</mgrwt>
</event>
<event>
 4    2  0.3171963E-007  0.7348473E+03  0.7818608E-02  0.9875219E-01
          2   -1    0    0  501    0  0.00000000000E+00  0.00000000000E+00  0.23204480399E+04  0.23204480399E+04  0.25500000000E-02 0. -1.
         -2   -1    0    0    0  501 -0.00000000000E+00 -0.00000000000E+00 -0.45573189699E+03  0.45573189700E+03  0.25500000000E-02 0.  1.
    8880023    1    1    2    0    0  0.14344509299E+03  0.29259844058E+03  0.21782143908E+04  0.22988298069E+04  0.65864270000E+03 0. -1.
    8880022    1    1    2    0    0 -0.14344509299E+03 -0.29259844058E+03 -0.31349824797E+03  0.47735013002E+03  0.15294330000E+03 0.  0.
<mgrwt>
<rscale>  0 0.61477459E+03</rscale>
<asrwt>0</asrwt>
<pdfrwt beam="1">  1        2 0.35699201E+00 0.73484730E+03</pdfrwt>
<pdfrwt beam="2">  1       -2 0.70112598E-01 0.73484730E+03</pdfrwt>
<totfact> 0.85565867E+00</totfact>
</mgrwt>
</event>
<event>
 4    2  0.3171963E-007  0.6661843E+03  0.7818608E-02  0.1018560E+00
          2   -1    0    0  501    0  0.00000000000E+00  0.00000000000E+00  0.65935231560E+03  0.65935231560E+03  0.25500000000E-02 0. -1.
         -2   -1    0    0    0  501 -0.00000000000E+00 -0.00000000000E+00 -0.32233881449E+03  0.32233881450E+03  0.25500000000E-02 0.  1.
    8880023    1    1    2    0    0 -0.97166684253E+02  0.23452294200E+02  0.41299117638E+03  0.78381330217E+03  0.65864270000E+03 0. -1.
    8880022    1    1    2    0    0  0.97166684253E+02 -0.23452294200E+02 -0.75977675266E+02  0.19787782793E+03  0.15294330000E+03 0.  0.
<mgrwt>
<rscale>  0 0.48209933E+03</rscale>
<asrwt>0</asrwt>
<pdfrwt beam="1">  1        2 0.10143882E+00 0.66618434E+03</pdfrwt>
<pdfrwt beam="2">  1       -2 0.49590588E-01 0.66618434E+03</pdfrwt>
<totfact> 0.17245261E+02</totfact>
</mgrwt>
</event>
<event>
 4    2  0.3171963E-007  0.8661287E+03  0.7818608E-02  0.9582753E-01
          2   -1    0    0  501    0  0.00000000000E+00  0.00000000000E+00  0.62695298142E+03  0.62695298142E+03  0.25500000000E-02 0. -1.
         -2   -1    0    0    0  501 -0.00000000000E+00 -0.00000000000E+00 -0.88046645246E+03  0.88046645246E+03  0.25500000000E-02 0.  1.
    8880023    1    1    2    0    0 -0.54695121568E+03 -0.13119883901E+03 -0.31424738902E+03  0.92137418862E+03  0.65864270000E+03 0.  0.
    8880022    1    1    2    0    0  0.54695121568E+03  0.13119883901E+03  0.60733917975E+02  0.58604524526E+03  0.15294330000E+03 0.  0.
<mgrwt>
<rscale>  0 0.78448281E+03</rscale>
<asrwt>0</asrwt>
<pdfrwt beam="1">  1        2 0.96454304E-01 0.86612873E+03</pdfrwt>
<pdfrwt beam="2">  1       -2 0.13545638E+00 0.86612873E+03</pdfrwt>
<totfact> 0.18453283E+01</totfact>
</mgrwt>
</event>
<event>
 4    2  0.3171963E-007  0.7480037E+03  0.7818608E-02  0.9837218E-01
          2   -1    0    0  501    0  0.00000000000E+00  0.00000000000E+00  0.11884444425E+04  0.11884444425E+04  0.25500000000E-02 0. -1.
         -2   -1    0    0    0  501 -0.00000000000E+00 -0.00000000000E+00 -0.10028369928E+04  0.10028369928E+04  0.25500000000E-02 0.  1.
    8880023    1    1    2    0    0 -0.27234784266E+03 -0.22699343675E+03  0.10240836787E+04  0.12681707121E+04  0.65864270000E+03 0.  0.
    8880022    1    1    2    0    0  0.27234784266E+03  0.22699343675E+03 -0.83847622904E+03  0.92311072326E+03  0.15294330000E+03 0.  0.
<mgrwt>
<rscale>  0 0.63402920E+03</rscale>
<asrwt>0</asrwt>
<pdfrwt beam="1">  1        2 0.18283760E+00 0.74800373E+03</pdfrwt>
<pdfrwt beam="2">  1       -2 0.15428262E+00 0.74800373E+03</pdfrwt>
<totfact> 0.54656517E+00</totfact>
</mgrwt>
</event>
<event>
 4    2  0.3171963E-007  0.1156981E+04  0.7818608E-02  0.9200118E-01
          2   -1    0    0  501    0  0.00000000000E+00  0.00000000000E+00  0.77366087275E+03  0.77366087276E+03  0.25500000000E-02 0. -1.
         -2   -1    0    0    0  501 -0.00000000000E+00 -0.00000000000E+00 -0.17924598982E+04  0.17924598982E+04  0.25500000000E-02 0.  1.
    8880023    1    1    2    0    0 -0.42231342849E+03 -0.85231802497E+03  0.94903887934E+01  0.11570198448E+04  0.65864270000E+03 0.  0.
    8880022    1    1    2    0    0  0.42231342849E+03  0.85231802497E+03 -0.10282894142E+04  0.14091009261E+04  0.15294330000E+03 0.  0.
<mgrwt>
<rscale>  0 0.11052208E+04</rscale>
<asrwt>0</asrwt>
<pdfrwt beam="1">  1        2 0.11902475E+00 0.11569809E+04</pdfrwt>
<pdfrwt beam="2">  1       -2 0.27576306E+00 0.11569809E+04</pdfrwt>
<totfact> 0.15824813E+00</totfact>
</mgrwt>
</event>
<event>
 4    2  0.3171963E-007  0.7526448E+03  0.7818608E-02  0.9824535E-01
         -2   -1    0    0    0  501 -0.00000000000E+00  0.00000000000E+00  0.16588841919E+03  0.16588841921E+03  0.25500000000E-02 0.  1.
          2   -1    0    0  501    0  0.00000000000E+00 -0.00000000000E+00 -0.20719091784E+04  0.20719091784E+04  0.25500000000E-02 0. -1.
    8880023    1    1    2    0    0  0.24348994363E+03 -0.27088132357E+03 -0.14557041671E+04  0.16387644347E+04  0.65864270000E+03 0. -1.
    8880022    1    1    2    0    0 -0.24348994363E+03  0.27088132357E+03 -0.45031659210E+03  0.59903316289E+03  0.15294330000E+03 0.  0.
<mgrwt>
<rscale>  0 0.64062299E+03</rscale>
<asrwt>0</asrwt>
<pdfrwt beam="1">  1        2 0.31875524E+00 0.75264484E+03</pdfrwt>
<pdfrwt beam="2">  1       -2 0.25521297E-01 0.75264484E+03</pdfrwt>
<totfact> 0.86475662E+01</totfact>
</mgrwt>
</event>
<event>
 4    2  0.3171963E-007  0.1566402E+04  0.7818608E-02  0.8864117E-01
          2   -1    0    0  501    0  0.00000000000E+00  0.00000000000E+00  0.44377115641E+04  0.44377115641E+04  0.25500000000E-02 0. -1.
         -2   -1    0    0    0  501 -0.00000000000E+00 -0.00000000000E+00 -0.66995827036E+03  0.66995827036E+03  0.25500000000E-02 0.  1.
    8880023    1    1    2    0    0  0.13676035800E+04 -0.38660588601E+03  0.68496998868E+03  0.17096191841E+04  0.65864270000E+03 0.  1.
    8880022    1    1    2    0    0 -0.13676035800E+04  0.38660588601E+03  0.30827833051E+04  0.33980506504E+04  0.15294330000E+03 0.  0.
<mgrwt>
<rscale>  0 0.15309678E+04</rscale>
<asrwt>0</asrwt>
<pdfrwt beam="1">  1        2 0.68272487E+00 0.15664016E+04</pdfrwt>
<pdfrwt beam="2">  1       -2 0.10307050E+00 0.15664016E+04</pdfrwt>
<totfact> 0.10530446E-01</totfact>
</mgrwt>
</event>
<event>
 4    2  0.3171963E-007  0.7965970E+03  0.7818608E-02  0.9718203E-01
          2   -1    0    0  501    0  0.00000000000E+00  0.00000000000E+00  0.76187816927E+03  0.76187816927E+03  0.25500000000E-02 0. -1.
         -2   -1    0    0    0  501 -0.00000000000E+00 -0.00000000000E+00 -0.65543450795E+03  0.65543450795E+03  0.25500000000E-02 0.  1.
    8880023    1    1    2    0    0 -0.40932132176E+03  0.18224336728E+03  0.36681688448E+03  0.87699567979E+03  0.65864270000E+03 0.  1.
    8880022    1    1    2    0    0  0.40932132176E+03 -0.18224336728E+03 -0.26037322316E+03  0.54031699744E+03  0.15294330000E+03 0.  0.
<mgrwt>
<rscale>  0 0.69943268E+03</rscale>
<asrwt>0</asrwt>
<pdfrwt beam="1">  1        2 0.11721203E+00 0.79659701E+03</pdfrwt>
<pdfrwt beam="2">  1       -2 0.10083608E+00 0.79659701E+03</pdfrwt>
<totfact> 0.30045230E+01</totfact>
</mgrwt>
</event>
<event>
 4    2  0.3171963E-007  0.1216991E+04  0.7818608E-02  0.9140780E-01
         -2   -1    0    0    0  501 -0.00000000000E+00  0.00000000000E+00  0.14808193210E+04  0.14808193210E+04  0.25500000000E-02 0.  1.
          2   -1    0    0  501    0  0.00000000000E+00 -0.00000000000E+00 -0.14634948145E+04  0.14634948145E+04  0.25500000000E-02 0. -1.
    8880023    1    1    2    0    0 -0.73430832337E+03  0.71277515714E+03 -0.93760718255E+03  0.15362859673E+04  0.65864270000E+03 0. -1.
    8880022    1    1    2    0    0  0.73430832337E+03 -0.71277515714E+03  0.95493168914E+03  0.14080281682E+04  0.15294330000E+03 0.  0.
<mgrwt>
<rscale>  0 0.11686149E+04</rscale>
<asrwt>0</asrwt>
<pdfrwt beam="1">  1        2 0.22515305E+00 0.12169911E+04</pdfrwt>
<pdfrwt beam="2">  1       -2 0.22781836E+00 0.12169911E+04</pdfrwt>
<totfact> 0.11379283E+00</totfact>
</mgrwt>
</event>
<event>
 4    2  0.3171963E-007  0.6598991E+03  0.7818608E-02  0.1024260E+00
          2   -1    0    0  501    0  0.00000000000E+00  0.00000000000E+00  0.25168720741E+03  0.25168720742E+03  0.25500000000E-02 0. -1.
         -2   -1    0    0    0  501 -0.00000000000E+00 -0.00000000000E+00 -0.98025762903E+03  0.98025762903E+03  0.25500000000E-02 0.  1.
    8880023    1    1    2    0    0 -0.27968830289E+02 -0.29569064260E+02 -0.21422518701E+03  0.69380056359E+03  0.65864270000E+03 0. -1.
    8880022    1    1    2    0    0  0.27968830289E+02  0.29569064260E+02 -0.51434523461E+03  0.53814427286E+03  0.15294330000E+03 0.  0.
<mgrwt>
<rscale>  0 0.46180145E+03</rscale>
<asrwt>0</asrwt>
<pdfrwt beam="1">  1        2 0.38721109E-01 0.65989908E+03</pdfrwt>
<pdfrwt beam="2">  1       -2 0.15080886E+00 0.65989908E+03</pdfrwt>
<totfact> 0.40132232E+01</totfact>
</mgrwt>
</event>
<event>
 4    2  0.3171963E-007  0.8204401E+03  0.7818608E-02  0.9668227E-01
          2   -1    0    0  501    0  0.00000000000E+00  0.00000000000E+00  0.11861692863E+04  0.11861692863E+04  0.25500000000E-02 0. -1.
         -2   -1    0    0    0  501 -0.00000000000E+00 -0.00000000000E+00 -0.40421619833E+03  0.40421619834E+03  0.25500000000E-02 0.  1.
    8880023    1    1    2    0    0  0.31475620988E+03  0.37448675979E+03  0.68487658938E+03  0.10687272589E+04  0.65864270000E+03 0. -1.
    8880022    1    1    2    0    0 -0.31475620988E+03 -0.37448675979E+03  0.97076498584E+02  0.52165822576E+03  0.15294330000E+03 0.  0.
<mgrwt>
<rscale>  0 0.72940443E+03</rscale>
<asrwt>0</asrwt>
<pdfrwt beam="1">  1        2 0.18248758E+00 0.82044013E+03</pdfrwt>
<pdfrwt beam="2">  1       -2 0.62187108E-01 0.82044013E+03</pdfrwt>
<totfact> 0.46858111E+01</totfact>
</mgrwt>
</event>
<event>
 4    2  0.3171963E-007  0.1164311E+04  0.7818608E-02  0.9192620E-01
          2   -1    0    0  501    0  0.00000000000E+00  0.00000000000E+00  0.23330121008E+04  0.23330121008E+04  0.25500000000E-02 0. -1.
         -2   -1    0    0    0  501 -0.00000000000E+00 -0.00000000000E+00 -0.66288612443E+03  0.66288612444E+03  0.25500000000E-02 0.  1.
    8880023    1    1    2    0    0  0.43646089487E+02 -0.95911712939E+03  0.16550526996E+04  0.20235662316E+04  0.65864270000E+03 0. -1.
    8880022    1    1    2    0    0 -0.43646089487E+02  0.95911712939E+03  0.15073276698E+02  0.97233199356E+03  0.15294330000E+03 0.  0.
<mgrwt>
<rscale>  0 0.11129930E+04</rscale>
<asrwt>0</asrwt>
<pdfrwt beam="1">  1        2 0.35892494E+00 0.11643113E+04</pdfrwt>
<pdfrwt beam="2">  1       -2 0.10198248E+00 0.11643113E+04</pdfrwt>
<totfact> 0.33720129E+00</totfact>
</mgrwt>
</event>
<event>
 4    2  0.3171963E-007  0.1364968E+04  0.7818608E-02  0.9011393E-01
          2   -1    0    0  501    0  0.00000000000E+00  0.00000000000E+00  0.31816627599E+04  0.31816627599E+04  0.25500000000E-02 0. -1.
         -2   -1    0    0    0  501 -0.00000000000E+00 -0.00000000000E+00 -0.54675322102E+03  0.54675322103E+03  0.25500000000E-02 0.  1.
    8880023    1    1    2    0    0  0.80712434830E+03  0.88197371860E+03  0.97656911744E+03  0.16783398945E+04  0.65864270000E+03 0.  0.
    8880022    1    1    2    0    0 -0.80712434830E+03 -0.88197371860E+03  0.16583404214E+04  0.20500760865E+04  0.15294330000E+03 0.  0.
<mgrwt>
<rscale>  0 0.13231667E+04</rscale>
<asrwt>0</asrwt>
<pdfrwt beam="1">  1        2 0.48948657E+00 0.13649680E+04</pdfrwt>
<pdfrwt beam="2">  1       -2 0.84115882E-01 0.13649680E+04</pdfrwt>
<totfact> 0.16054791E+00</totfact>
</mgrwt>
</event>
<event>
 4    2  0.3171963E-007  0.7451912E+03  0.7818608E-02  0.9845076E-01
          2   -1    0    0  501    0  0.00000000000E+00  0.00000000000E+00  0.94282146786E+03  0.94282146786E+03  0.25500000000E-02 0. -1.
         -2   -1    0    0    0  501 -0.00000000000E+00 -0.00000000000E+00 -0.35605474782E+03  0.35605474783E+03  0.25500000000E-02 0.  1.
    8880023    1    1    2    0    0  0.26642327228E+03  0.22476284276E+03  0.52901390892E+03  0.91387396154E+03  0.65864270000E+03 0.  0.
    8880022    1    1    2    0    0 -0.26642327228E+03 -0.22476284276E+03  0.57752811121E+02  0.38500225415E+03  0.15294330000E+03 0.  0.
<mgrwt>
<rscale>  0 0.62998628E+03</rscale>
<asrwt>0</asrwt>
<pdfrwt beam="1">  1        2 0.14504946E+00 0.74519118E+03</pdfrwt>
<pdfrwt beam="2">  1       -2 0.54777654E-01 0.74519118E+03</pdfrwt>
<totfact> 0.87260387E+01</totfact>
</mgrwt>
</event>
<event>
 4    2  0.3171963E-007  0.1030996E+04  0.7818608E-02  0.9342083E-01
          2   -1    0    0  501    0  0.00000000000E+00  0.00000000000E+00  0.83833117945E+03  0.83833117945E+03  0.25500000000E-02 0. -1.
         -2   -1    0    0    0  501 -0.00000000000E+00 -0.00000000000E+00 -0.18309808810E+04  0.18309808810E+04  0.25500000000E-02 0.  1.
    8880023    1    1    2    0    0  0.63206910688E+03 -0.47919863644E+03  0.36149111098E+03  0.10925331659E+04  0.65864270000E+03 0.  0.
    8880022    1    1    2    0    0 -0.63206910688E+03  0.47919863644E+03 -0.13541408125E+04  0.15767788945E+04  0.15294330000E+03 0.  0.
<mgrwt>
<rscale>  0 0.96999206E+03</rscale>
<asrwt>0</asrwt>
<pdfrwt beam="1">  1        2 0.12897403E+00 0.10309961E+04</pdfrwt>
<pdfrwt beam="2">  1       -2 0.28168937E+00 0.10309961E+04</pdfrwt>
<totfact> 0.13269732E+00</totfact>
</mgrwt>
</event>
<event>
 4    2  0.3171963E-007  0.6811025E+03  0.7818608E-02  0.1008707E+00
          2   -1    0    0  501    0  0.00000000000E+00  0.00000000000E+00  0.14374697408E+04  0.14374697408E+04  0.25500000000E-02 0. -1.
         -2   -1    0    0    0  501 -0.00000000000E+00 -0.00000000000E+00 -0.15898064061E+03  0.15898064063E+03  0.25500000000E-02 0.  1.
    8880023    1    1    2    0    0 -0.11709141105E+03 -0.12798418599E+03  0.71566422109E+03  0.98796550244E+03  0.65864270000E+03 0.  1.
    8880022    1    1    2    0    0  0.11709141105E+03  0.12798418599E+03  0.56282487914E+03  0.60848487903E+03  0.15294330000E+03 0.  1.
<mgrwt>
<rscale>  0 0.51991853E+03</rscale>
<asrwt>0</asrwt>
<pdfrwt beam="1">  1        2 0.22114919E+00 0.68110246E+03</pdfrwt>
<pdfrwt beam="2">  1       -2 0.24458560E-01 0.68110246E+03</pdfrwt>
<totfact> 0.20933455E+02</totfact>
</mgrwt>
</event>
<event>
 4    2  0.3171963E-007  0.7990971E+03  0.7818608E-02  0.9712752E-01
         -2   -1    0    0    0  501 -0.00000000000E+00  0.00000000000E+00  0.46369914365E+03  0.46369914366E+03  0.25500000000E-02 0.  1.
          2   -1    0    0  501    0  0.00000000000E+00 -0.00000000000E+00 -0.23286343206E+04  0.23286343206E+04  0.25500000000E-02 0. -1.
    8880023    1    1    2    0    0 -0.16000112493E+03  0.42325601504E+03 -0.21094593149E+04  0.22557426319E+04  0.65864270000E+03 0. -1.
    8880022    1    1    2    0    0  0.16000112493E+03 -0.42325601504E+03  0.24452413794E+03  0.53659083229E+03  0.15294330000E+03 0.  0.
<mgrwt>
<rscale>  0 0.70262614E+03</rscale>
<asrwt>0</asrwt>
<pdfrwt beam="1">  1        2 0.35825143E+00 0.79909713E+03</pdfrwt>
<pdfrwt beam="2">  1       -2 0.71338331E-01 0.79909713E+03</pdfrwt>
<totfact> 0.80684455E+00</totfact>
</mgrwt>
</event>
<event>
 4    2  0.3171963E-007  0.9370460E+03  0.7818608E-02  0.9469002E-01
         -2   -1    0    0    0  501 -0.00000000000E+00  0.00000000000E+00  0.14290498587E+04  0.14290498587E+04  0.25500000000E-02 0.  1.
          2   -1    0    0  501    0  0.00000000000E+00 -0.00000000000E+00 -0.53453240693E+03  0.53453240693E+03  0.25500000000E-02 0. -1.
    8880023    1    1    2    0    0  0.35555164611E+03  0.56376231405E+03  0.87100644539E+03  0.12793386393E+04  0.65864270000E+03 0.  0.
    8880022    1    1    2    0    0 -0.35555164611E+03 -0.56376231405E+03  0.23511006403E+02  0.68424362637E+03  0.15294330000E+03 0. -1.
<mgrwt>
<rscale>  0 0.86608243E+03</rscale>
<asrwt>0</asrwt>
<pdfrwt beam="1">  1        2 0.82235757E-01 0.93704596E+03</pdfrwt>
<pdfrwt beam="2">  1       -2 0.21985382E+00 0.93704596E+03</pdfrwt>
<totfact> 0.56534895E+00</totfact>
</mgrwt>
</event>
<event>
 4    2  0.3171963E-007  0.6845763E+03  0.7818608E-02  0.1006845E+00
         -2   -1    0    0    0  501 -0.00000000000E+00  0.00000000000E+00  0.33067465093E+03  0.33067465094E+03  0.25500000000E-02 0.  1.
          2   -1    0    0  501    0  0.00000000000E+00 -0.00000000000E+00 -0.13707416354E+04  0.13707416354E+04  0.25500000000E-02 0. -1.
    8880023    1    1    2    0    0  0.14015465141E+03 -0.12325267059E+03 -0.12209995252E+04  0.13998159143E+04  0.65864270000E+03 0. -1.
    8880022    1    1    2    0    0 -0.14015465141E+03  0.12325267059E+03  0.18093254072E+03  0.30160037206E+03  0.15294330000E+03 0.  0.
<mgrwt>
<rscale>  0 0.52748027E+03</rscale>
<asrwt>0</asrwt>
<pdfrwt beam="1">  1        2 0.21088333E+00 0.68457633E+03</pdfrwt>
<pdfrwt beam="2">  1       -2 0.50873024E-01 0.68457633E+03</pdfrwt>
<totfact> 0.56388596E+01</totfact>
</mgrwt>
</event>
<event>
 4    2  0.3171963E-007  0.6628035E+03  0.7818608E-02  0.1021452E+00
          2   -1    0    0  501    0  0.00000000000E+00  0.00000000000E+00  0.48207947557E+03  0.48207947558E+03  0.25500000000E-02 0. -1.
         -2   -1    0    0    0  501 -0.00000000000E+00 -0.00000000000E+00 -0.82709829500E+03  0.82709829501E+03  0.25500000000E-02 0.  1.
    8880023    1    1    2    0    0 -0.62048915789E+02 -0.40597855897E+02  0.23618704579E+03  0.70362829727E+03  0.65864270000E+03 0. -1.
    8880022    1    1    2    0    0  0.62048915789E+02  0.40597855897E+02 -0.58120586522E+03  0.60554947332E+03  0.15294330000E+03 0.  0.
<mgrwt>
<rscale>  0 0.47166305E+03</rscale>
<asrwt>0</asrwt>
<pdfrwt beam="1">  1        2 0.74166073E-01 0.66280349E+03</pdfrwt>
<pdfrwt beam="2">  1       -2 0.12724589E+00 0.66280349E+03</pdfrwt>
<totfact> 0.30029867E+01</totfact>
</mgrwt>
</event>
<event>
 4    2  0.3171963E-007  0.9766133E+03  0.7818608E-02  0.9412815E-01
          2   -1    0    0  501    0  0.00000000000E+00  0.00000000000E+00  0.35370685725E+04  0.35370685725E+04  0.25500000000E-02 0. -1.
         -2   -1    0    0    0  501 -0.00000000000E+00 -0.00000000000E+00 -0.22087295314E+03  0.22087295315E+03  0.25500000000E-02 0.  1.
    8880023    1    1    2    0    0  0.69871516921E+03  0.17821485247E+03  0.14191634981E+04  0.17227300026E+04  0.65864270000E+03 0.  1.
    8880022    1    1    2    0    0 -0.69871516921E+03 -0.17821485247E+03  0.18970321213E+04  0.20352115230E+04  0.15294330000E+03 0. -1.
<mgrwt>
<rscale>  0 0.91028515E+03</rscale>
<asrwt>0</asrwt>
<pdfrwt beam="1">  1        2 0.54416439E+00 0.97661335E+03</pdfrwt>
<pdfrwt beam="2">  1       -2 0.33980454E-01 0.97661335E+03</pdfrwt>
<totfact> 0.64632098E+00</totfact>
</mgrwt>
</event>
<event>
 4    2  0.3171963E-007  0.7867946E+03  0.7818608E-02  0.9740112E-01
          2   -1    0    0  501    0  0.00000000000E+00  0.00000000000E+00  0.68634046395E+03  0.68634046396E+03  0.25500000000E-02 0. -1.
         -2   -1    0    0    0  501 -0.00000000000E+00 -0.00000000000E+00 -0.57579603364E+03  0.57579603365E+03  0.25500000000E-02 0.  1.
    8880023    1    1    2    0    0 -0.20570863646E+03  0.37804697982E+03  0.15938295533E+03  0.80277561920E+03  0.65864270000E+03 0.  0.
    8880022    1    1    2    0    0  0.20570863646E+03 -0.37804697982E+03 -0.48838525024E+02  0.45936087840E+03  0.15294330000E+03 0.  0.
<mgrwt>
<rscale>  0 0.68677963E+03</rscale>
<asrwt>0</asrwt>
<pdfrwt beam="1">  1        2 0.10559084E+00 0.78679462E+03</pdfrwt>
<pdfrwt beam="2">  1       -2 0.88584005E-01 0.78679462E+03</pdfrwt>
<totfact> 0.46513349E+01</totfact>
</mgrwt>
</event>
<event>
 4    2  0.3171963E-007  0.8068282E+03  0.7818608E-02  0.9696222E-01
          2   -1    0    0  501    0  0.00000000000E+00  0.00000000000E+00  0.11468333379E+04  0.11468333379E+04  0.25500000000E-02 0. -1.
         -2   -1    0    0    0  501 -0.00000000000E+00 -0.00000000000E+00 -0.70239621328E+03  0.70239621328E+03  0.25500000000E-02 0.  1.
    8880023    1    1    2    0    0  0.17720213658E+03 -0.43099992843E+03 -0.37851855047E+03  0.89120594412E+03  0.65864270000E+03 0.  1.
    8880022    1    1    2    0    0 -0.17720213658E+03  0.43099992843E+03  0.82295567506E+03  0.95802360704E+03  0.15294330000E+03 0.  0.
<mgrwt>
<rscale>  0 0.71242178E+03</rscale>
<asrwt>0</asrwt>
<pdfrwt beam="1">  1        2 0.17643590E+00 0.80682820E+03</pdfrwt>
<pdfrwt beam="2">  1       -2 0.10806096E+00 0.80682820E+03</pdfrwt>
<totfact> 0.14158438E+01</totfact>
</mgrwt>
</event>
<event>
 4    2  0.3171963E-007  0.7239334E+03  0.7818608E-02  0.9909495E-01
          2   -1    0    0  501    0  0.00000000000E+00  0.00000000000E+00  0.26130613460E+04  0.26130613460E+04  0.25500000000E-02 0. -1.
         -2   -1    0    0    0  501 -0.00000000000E+00 -0.00000000000E+00 -0.24527315604E+03  0.24527315605E+03  0.25500000000E-02 0.  1.
    8880023    1    1    2    0    0  0.38614710571E+02  0.29795682182E+03  0.24120125581E+04  0.25183097804E+04  0.65864270000E+03 0. -1.
    8880022    1    1    2    0    0 -0.38614710571E+02 -0.29795682182E+03 -0.44224368160E+02  0.34002472160E+03  0.15294330000E+03 0.  0.
<mgrwt>
<rscale>  0 0.59803335E+03</rscale>
<asrwt>0</asrwt>
<pdfrwt beam="1">  1        2 0.40200944E+00 0.72393340E+03</pdfrwt>
<pdfrwt beam="2">  1       -2 0.37734332E-01 0.72393340E+03</pdfrwt>
<totfact> 0.20855515E+01</totfact>
</mgrwt>
</event>
<event>
 4    2  0.3171963E-007  0.6774503E+03  0.7818608E-02  0.1010804E+00
         -2   -1    0    0    0  501 -0.00000000000E+00  0.00000000000E+00  0.15441799360E+03  0.15441799362E+03  0.25500000000E-02 0.  1.
          2   -1    0    0  501    0  0.00000000000E+00 -0.00000000000E+00 -0.14005562692E+04  0.14005562692E+04  0.25500000000E-02 0. -1.
    8880023    1    1    2    0    0  0.30678834502E+02  0.15552320580E+03 -0.10957564189E+04  0.12882627815E+04  0.65864270000E+03 0. -1.
    8880022    1    1    2    0    0 -0.30678834502E+02 -0.15552320580E+03 -0.15038185678E+03  0.26671148136E+03  0.15294330000E+03 0. -1.
<mgrwt>
<rscale>  0 0.51156228E+03</rscale>
<asrwt>0</asrwt>
<pdfrwt beam="1">  1        2 0.21547019E+00 0.67745027E+03</pdfrwt>
<pdfrwt beam="2">  1       -2 0.23756615E-01 0.67745027E+03</pdfrwt>
<totfact> 0.23139614E+02</totfact>
</mgrwt>
</event>
<event>
 4    2  0.3171963E-007  0.6627880E+03  0.7818608E-02  0.1021466E+00
          2   -1    0    0  501    0  0.00000000000E+00  0.00000000000E+00  0.70964409888E+03  0.70964409888E+03  0.25500000000E-02 0. -1.
         -2   -1    0    0    0  501 -0.00000000000E+00 -0.00000000000E+00 -0.26994303443E+03  0.26994303444E+03  0.25500000000E-02 0.  1.
    8880023    1    1    2    0    0  0.83473681167E+01 -0.73539847789E+02  0.21278341941E+03  0.69610687226E+03  0.65864270000E+03 0.  1.
    8880022    1    1    2    0    0 -0.83473681167E+01  0.73539847789E+02  0.22691764504E+03  0.28348026106E+03  0.15294330000E+03 0.  0.
<mgrwt>
<rscale>  0 0.47161303E+03</rscale>
<asrwt>0</asrwt>
<pdfrwt beam="1">  1        2 0.10917601E+00 0.66278805E+03</pdfrwt>
<pdfrwt beam="2">  1       -2 0.41529698E-01 0.66278805E+03</pdfrwt>
<totfact> 0.22412256E+02</totfact>
</mgrwt>
</event>
<event>
 4    2  0.3171963E-007  0.6791458E+03  0.7818608E-02  0.1009811E+00
         -2   -1    0    0    0  501 -0.00000000000E+00  0.00000000000E+00  0.45970015082E+03  0.45970015083E+03  0.25500000000E-02 0.  1.
          2   -1    0    0  501    0  0.00000000000E+00 -0.00000000000E+00 -0.12291855943E+04  0.12291855943E+04  0.25500000000E-02 0. -1.
    8880023    1    1    2    0    0 -0.12962639086E+03  0.10308179973E+03 -0.10976406608E+04  0.12907571751E+04  0.65864270000E+03 0. -1.
    8880022    1    1    2    0    0  0.12962639086E+03 -0.10308179973E+03  0.32815521728E+03  0.39812857005E+03  0.15294330000E+03 0.  0.
<mgrwt>
<rscale>  0 0.51549821E+03</rscale>
<asrwt>0</asrwt>
<pdfrwt beam="1">  1        2 0.18910547E+00 0.67914583E+03</pdfrwt>
<pdfrwt beam="2">  1       -2 0.70723101E-01 0.67914583E+03</pdfrwt>
<totfact> 0.33958885E+01</totfact>
</mgrwt>
</event>
<event>
 4    2  0.3171963E-007  0.8952897E+03  0.7818608E-02  0.9533636E-01
          2   -1    0    0  501    0  0.00000000000E+00  0.00000000000E+00  0.26439084614E+04  0.26439084614E+04  0.25500000000E-02 0. -1.
         -2   -1    0    0    0  501 -0.00000000000E+00 -0.00000000000E+00 -0.47620037066E+03  0.47620037066E+03  0.25500000000E-02 0.  1.
    8880023    1    1    2    0    0 -0.41933553553E+03 -0.43805374401E+03  0.23111246608E+04  0.24784754947E+04  0.65864270000E+03 0. -1.
    8880022    1    1    2    0    0  0.41933553553E+03  0.43805374401E+03 -0.14341657004E+03  0.64163333734E+03  0.15294330000E+03 0.  0.
<mgrwt>
<rscale>  0 0.81848765E+03</rscale>
<asrwt>0</asrwt>
<pdfrwt beam="1">  1        2 0.40675515E+00 0.89528966E+03</pdfrwt>
<pdfrwt beam="2">  1       -2 0.73261596E-01 0.89528966E+03</pdfrwt>
<totfact> 0.49621596E+00</totfact>
</mgrwt>
</event>
<event>
 4    2  0.3171963E-007  0.8526769E+03  0.7818608E-02  0.9606725E-01
         -2   -1    0    0    0  501 -0.00000000000E+00  0.00000000000E+00  0.38806425851E+03  0.38806425852E+03  0.25500000000E-02 0.  1.
          2   -1    0    0  501    0  0.00000000000E+00 -0.00000000000E+00 -0.16449083999E+04  0.16449083999E+04  0.25500000000E-02 0. -1.
    8880023    1    1    2    0    0  0.51872325025E+03 -0.15547945894E+03 -0.11933747677E+04  0.14666973836E+04  0.65864270000E+03 0.  0.
    8880022    1    1    2    0    0 -0.51872325025E+03  0.15547945894E+03 -0.63469373676E+02  0.56627527485E+03  0.15294330000E+03 0.  0.
<mgrwt>
<rscale>  0 0.76852673E+03</rscale>
<asrwt>0</asrwt>
<pdfrwt beam="1">  1        2 0.25306283E+00 0.85267689E+03</pdfrwt>
<pdfrwt beam="2">  1       -2 0.59702194E-01 0.85267689E+03</pdfrwt>
<totfact> 0.27937933E+01</totfact>
</mgrwt>
</event>
<event>
 4    2  0.3171963E-007  0.6616514E+03  0.7818608E-02  0.1022525E+00
         -2   -1    0    0    0  501 -0.00000000000E+00  0.00000000000E+00  0.40362488946E+03  0.40362488946E+03  0.25500000000E-02 0.  1.
          2   -1    0    0  501    0  0.00000000000E+00 -0.00000000000E+00 -0.16147916288E+04  0.16147916288E+04  0.25500000000E-02 0. -1.
    8880023    1    1    2    0    0  0.63010321855E+02 -0.14579075086E+01 -0.15257243365E+04  0.16630145470E+04  0.65864270000E+03 0. -1.
    8880022    1    1    2    0    0 -0.63010321855E+02  0.14579075086E+01  0.31455759724E+03  0.35540197123E+03  0.15294330000E+03 0.  0.
<mgrwt>
<rscale>  0 0.46786392E+03</rscale>
<asrwt>0</asrwt>
<pdfrwt beam="1">  1        2 0.24842948E+00 0.66165144E+03</pdfrwt>
<pdfrwt beam="2">  1       -2 0.62096137E-01 0.66165144E+03</pdfrwt>
<totfact> 0.27323783E+01</totfact>
</mgrwt>
</event>
<event>
 4    2  0.3171963E-007  0.7084933E+03  0.7818608E-02  0.9963639E-01
          2   -1    0    0  501    0  0.00000000000E+00  0.00000000000E+00  0.49151699823E+03  0.49151699823E+03  0.25500000000E-02 0. -1.
         -2   -1    0    0    0  501 -0.00000000000E+00 -0.00000000000E+00 -0.20430949193E+04  0.20430949193E+04  0.25500000000E-02 0.  1.
    8880023    1    1    2    0    0  0.18399862037E+03  0.18519447272E+03  0.21649906736E+03  0.74083367732E+03  0.65864270000E+03 0. -1.
    8880022    1    1    2    0    0 -0.18399862037E+03 -0.18519447272E+03 -0.17680769884E+04  0.17937782402E+04  0.15294330000E+03 0.  0.
<mgrwt>
<rscale>  0 0.57273748E+03</rscale>
<asrwt>0</asrwt>
<pdfrwt beam="1">  1        2 0.75618001E-01 0.70849325E+03</pdfrwt>
<pdfrwt beam="2">  1       -2 0.31432229E+00 0.70849325E+03</pdfrwt>
<totfact> 0.17158758E+00</totfact>
</mgrwt>
</event>
<event>
 4    2  0.3171963E-007  0.7101761E+03  0.7818608E-02  0.9957347E-01
          2   -1    0    0  501    0  0.00000000000E+00  0.00000000000E+00  0.15288317303E+04  0.15288317303E+04  0.25500000000E-02 0. -1.
         -2   -1    0    0    0  501 -0.00000000000E+00 -0.00000000000E+00 -0.19549867703E+03  0.19549867704E+03  0.25500000000E-02 0.  1.
    8880023    1    1    2    0    0  0.25214881446E+01 -0.26558159847E+03  0.60063217669E+03  0.93011244551E+03  0.65864270000E+03 0.  1.
    8880022    1    1    2    0    0 -0.25214881446E+01  0.26558159847E+03  0.73270087661E+03  0.79421796187E+03  0.15294330000E+03 0.  0.
<mgrwt>
<rscale>  0 0.57560694E+03</rscale>
<asrwt>0</asrwt>
<pdfrwt beam="1">  1        2 0.23520488E+00 0.71017614E+03</pdfrwt>
<pdfrwt beam="2">  1       -2 0.30076720E-01 0.71017614E+03</pdfrwt>
<totfact> 0.12735608E+02</totfact>
</mgrwt>
</event>
<event>
 4    2  0.3171963E-007  0.7329697E+03  0.7818608E-02  0.9880920E-01
         -2   -1    0    0    0  501 -0.00000000000E+00  0.00000000000E+00  0.45917565385E+03  0.45917565386E+03  0.25500000000E-02 0.  1.
          2   -1    0    0  501    0  0.00000000000E+00 -0.00000000000E+00 -0.21171383332E+04  0.21171383333E+04  0.25500000000E-02 0. -1.
    8880023    1    1    2    0    0  0.27741924131E+03 -0.16270490055E+03 -0.19705544304E+04  0.21024579162E+04  0.65864270000E+03 0. -1.
    8880022    1    1    2    0    0 -0.27741924131E+03  0.16270490055E+03  0.31259175099E+03  0.47385607088E+03  0.15294330000E+03 0.  0.
<mgrwt>
<rscale>  0 0.61194942E+03</rscale>
<asrwt>0</asrwt>
<pdfrwt beam="1">  1        2 0.32571358E+00 0.73296966E+03</pdfrwt>
<pdfrwt beam="2">  1       -2 0.70642410E-01 0.73296966E+03</pdfrwt>
<totfact> 0.10901000E+01</totfact>
</mgrwt>
</event>
<event>
 4    2  0.3171963E-007  0.9797515E+03  0.7818608E-02  0.9408542E-01
          2   -1    0    0  501    0  0.00000000000E+00  0.00000000000E+00  0.26268346643E+04  0.26268346643E+04  0.25500000000E-02 0. -1.
         -2   -1    0    0    0  501 -0.00000000000E+00 -0.00000000000E+00 -0.33379553259E+03  0.33379553260E+03  0.25500000000E-02 0.  1.
    8880023    1    1    2    0    0  0.57971089355E+03  0.43593365344E+03  0.18596559929E+04  0.21019594402E+04  0.65864270000E+03 0.  0.
    8880022    1    1    2    0    0 -0.57971089355E+03 -0.43593365344E+03  0.43338313884E+03  0.85867075666E+03  0.15294330000E+03 0.  0.
<mgrwt>
<rscale>  0 0.91376051E+03</rscale>
<asrwt>0</asrwt>
<pdfrwt beam="1">  1        2 0.40412838E+00 0.97975154E+03</pdfrwt>
<pdfrwt beam="2">  1       -2 0.51353162E-01 0.97975154E+03</pdfrwt>
<totfact> 0.10695070E+01</totfact>
</mgrwt>
</event>
<event>
 4    2  0.3171963E-007  0.7440976E+03  0.7818608E-02  0.9848168E-01
         -2   -1    0    0    0  501 -0.00000000000E+00  0.00000000000E+00  0.15480901935E+03  0.15480901937E+03  0.25500000000E-02 0.  1.
          2   -1    0    0  501    0  0.00000000000E+00 -0.00000000000E+00 -0.23749835760E+04  0.23749835760E+04  0.25500000000E-02 0. -1.
    8880023    1    1    2    0    0  0.23827844120E+03 -0.25118610385E+03 -0.18761022787E+04  0.20182767503E+04  0.65864270000E+03 0.  0.
    8880022    1    1    2    0    0 -0.23827844120E+03  0.25118610385E+03 -0.34407227791E+03  0.51151584506E+03  0.15294330000E+03 0.  0.
<mgrwt>
<rscale>  0 0.62840422E+03</rscale>
<asrwt>0</asrwt>
<pdfrwt beam="1">  1        2 0.36538206E+00 0.74409763E+03</pdfrwt>
<pdfrwt beam="2">  1       -2 0.23816774E-01 0.74409763E+03</pdfrwt>
<totfact> 0.66670504E+01</totfact>
</mgrwt>
</event>
<event>
 4    2  0.3171963E-007  0.8959203E+03  0.7818608E-02  0.9532613E-01
          2   -1    0    0  501    0  0.00000000000E+00  0.00000000000E+00  0.50547637707E+03  0.50547637708E+03  0.25500000000E-02 0. -1.
         -2   -1    0    0    0  501 -0.00000000000E+00 -0.00000000000E+00 -0.15228595818E+04  0.15228595818E+04  0.25500000000E-02 0.  1.
    8880023    1    1    2    0    0 -0.60630612077E+03 -0.35438538356E+02 -0.10749963440E+04  0.13993892768E+04  0.65864270000E+03 0.  0.
    8880022    1    1    2    0    0  0.60630612077E+03  0.35438538356E+02  0.57613139281E+02  0.62894668210E+03  0.15294330000E+03 0.  0.
<mgrwt>
<rscale>  0 0.81921529E+03</rscale>
<asrwt>0</asrwt>
<pdfrwt beam="1">  1        2 0.77765597E-01 0.89592031E+03</pdfrwt>
<pdfrwt beam="2">  1       -2 0.23428609E+00 0.89592031E+03</pdfrwt>
<totfact> 0.49296779E+00</totfact>
</mgrwt>
</event>
<event>
 4    2  0.3171963E-007  0.6611776E+03  0.7818608E-02  0.1022981E+00
          2   -1    0    0  501    0  0.00000000000E+00  0.00000000000E+00  0.12274301872E+04  0.12274301872E+04  0.25500000000E-02 0. -1.
         -2   -1    0    0    0  501 -0.00000000000E+00 -0.00000000000E+00 -0.15226553101E+03  0.15226553103E+03  0.25500000000E-02 0.  1.
    8880023    1    1    2    0    0 -0.28765651965E+02  0.50180822764E+02  0.10021755985E+04  0.12006297157E+04  0.65864270000E+03 0. -1.
    8880022    1    1    2    0    0  0.28765651965E+02 -0.50180822764E+02  0.72989057691E+02  0.17906600253E+03  0.15294330000E+03 0.  0.
<mgrwt>
<rscale>  0 0.46625998E+03</rscale>
<asrwt>0</asrwt>
<pdfrwt beam="1">  1        2 0.18883542E+00 0.66117757E+03</pdfrwt>
<pdfrwt beam="2">  1       -2 0.23425466E-01 0.66117757E+03</pdfrwt>
<totfact> 0.29851284E+02</totfact>
</mgrwt>
</event>
<event>
 4    2  0.3171963E-007  0.7453109E+03  0.7818608E-02  0.9844738E-01
         -2   -1    0    0    0  501 -0.00000000000E+00  0.00000000000E+00  0.60290685847E+03  0.60290685848E+03  0.25500000000E-02 0.  1.
          2   -1    0    0  501    0  0.00000000000E+00 -0.00000000000E+00 -0.14462787511E+04  0.14462787511E+04  0.25500000000E-02 0. -1.
    8880023    1    1    2    0    0  0.12497954705E+03 -0.32566579376E+03 -0.12729385756E+04  0.14750799707E+04  0.65864270000E+03 0. -1.
    8880022    1    1    2    0    0 -0.12497954705E+03  0.32566579376E+03  0.42956668301E+03  0.57410563886E+03  0.15294330000E+03 0.  0.
<mgrwt>
<rscale>  0 0.63015909E+03</rscale>
<asrwt>0</asrwt>
<pdfrwt beam="1">  1        2 0.22250442E+00 0.74531088E+03</pdfrwt>
<pdfrwt beam="2">  1       -2 0.92754902E-01 0.74531088E+03</pdfrwt>
<totfact> 0.13740938E+01</totfact>
</mgrwt>
</event>
<event>
 4    2  0.3171963E-007  0.6841348E+03  0.7818608E-02  0.1007075E+00
         -2   -1    0    0    0  501 -0.00000000000E+00  0.00000000000E+00  0.33100429234E+03  0.33100429235E+03  0.25500000000E-02 0.  1.
          2   -1    0    0  501    0  0.00000000000E+00 -0.00000000000E+00 -0.70179195623E+03  0.70179195623E+03  0.25500000000E-02 0. -1.
    8880023    1    1    2    0    0  0.18045141762E+03 -0.40835703172E+02 -0.39756154114E+03  0.79126206407E+03  0.65864270000E+03 0. -1.
    8880022    1    1    2    0    0 -0.18045141762E+03  0.40835703172E+02  0.26773877258E+02  0.24153418452E+03  0.15294330000E+03 0.  0.
<mgrwt>
<rscale>  0 0.52653803E+03</rscale>
<asrwt>0</asrwt>
<pdfrwt beam="1">  1        2 0.10796799E+00 0.68413484E+03</pdfrwt>
<pdfrwt beam="2">  1       -2 0.50923738E-01 0.68413484E+03</pdfrwt>
<totfact> 0.15100812E+02</totfact>
</mgrwt>
</event>
<event>
 4    2  0.3171963E-007  0.7559148E+03  0.7818608E-02  0.9815801E-01
          2   -1    0    0  501    0  0.00000000000E+00  0.00000000000E+00  0.21001605761E+04  0.21001605761E+04  0.25500000000E-02 0. -1.
         -2   -1    0    0    0  501 -0.00000000000E+00 -0.00000000000E+00 -0.35446160334E+03  0.35446160335E+03  0.25500000000E-02 0.  1.
    8880023    1    1    2    0    0 -0.35546342283E+03 -0.10603166289E+03  0.18841839887E+04  0.20301616852E+04  0.65864270000E+03 0.  0.
    8880022    1    1    2    0    0  0.35546342283E+03  0.10603166289E+03 -0.13848501597E+03  0.42446049424E+03  0.15294330000E+03 0.  0.
<mgrwt>
<rscale>  0 0.64521436E+03</rscale>
<asrwt>0</asrwt>
<pdfrwt beam="1">  1        2 0.32310162E+00 0.75591479E+03</pdfrwt>
<pdfrwt beam="2">  1       -2 0.54532555E-01 0.75591479E+03</pdfrwt>
<totfact> 0.19251558E+01</totfact>
</mgrwt>
</event>
<event>
 4    2  0.3171963E-007  0.7108463E+03  0.7818608E-02  0.9954872E-01
         -2   -1    0    0    0  501 -0.00000000000E+00  0.00000000000E+00  0.67955884262E+02  0.67955884309E+02  0.25500000000E-02 0.  1.
          2   -1    0    0  501    0  0.00000000000E+00 -0.00000000000E+00 -0.38838066676E+04  0.38838066676E+04  0.25500000000E-02 0. -1.
    8880023    1    1    2    0    0 -0.18876785912E+03 -0.18936469328E+03 -0.28843239833E+04  0.29706274318E+04  0.65864270000E+03 0. -1.
    8880022    1    1    2    0    0  0.18876785912E+03  0.18936469328E+03 -0.93152680005E+03  0.98113512011E+03  0.15294330000E+03 0.  1.
<mgrwt>
<rscale>  0 0.57674108E+03</rscale>
<asrwt>0</asrwt>
<pdfrwt beam="1">  1        2 0.59750855E+00 0.71084633E+03</pdfrwt>
<pdfrwt beam="2">  1       -2 0.10454754E-01 0.71084633E+03</pdfrwt>
<totfact> 0.29783550E+01</totfact>
</mgrwt>
</event>
<event>
 4    2  0.3171963E-007  0.1031155E+04  0.7818608E-02  0.9341887E-01
          2   -1    0    0  501    0  0.00000000000E+00  0.00000000000E+00  0.72512464721E+03  0.72512464722E+03  0.25500000000E-02 0. -1.
         -2   -1    0    0    0  501 -0.00000000000E+00 -0.00000000000E+00 -0.23700754802E+04  0.23700754802E+04  0.25500000000E-02 0.  1.
    8880023    1    1    2    0    0 -0.79076498125E+03 -0.64503668463E+02  0.22741254788E+03  0.10559340188E+04  0.65864270000E+03 0.  0.
    8880022    1    1    2    0    0  0.79076498125E+03  0.64503668463E+02 -0.18723633808E+04  0.20392661086E+04  0.15294330000E+03 0.  0.
<mgrwt>
<rscale>  0 0.97016486E+03</rscale>
<asrwt>0</asrwt>
<pdfrwt beam="1">  1        2 0.11155764E+00 0.10311548E+04</pdfrwt>
<pdfrwt beam="2">  1       -2 0.36462699E+00 0.10311548E+04</pdfrwt>
<totfact> 0.49702509E-01</totfact>
</mgrwt>
</event>
<event>
 4    2  0.3171963E-007  0.7622988E+03  0.7818608E-02  0.9799192E-01
         -2   -1    0    0    0  501 -0.00000000000E+00  0.00000000000E+00  0.24528438941E+03  0.24528438942E+03  0.25500000000E-02 0.  1.
          2   -1    0    0  501    0  0.00000000000E+00 -0.00000000000E+00 -0.17175487065E+04  0.17175487065E+04  0.25500000000E-02 0. -1.
    8880023    1    1    2    0    0  0.20296552786E+03  0.32572118529E+03 -0.13165702065E+04  0.15213338262E+04  0.65864270000E+03 0. -1.
    8880022    1    1    2    0    0 -0.20296552786E+03 -0.32572118529E+03 -0.15569411064E+03  0.44149926970E+03  0.15294330000E+03 0.  0.
<mgrwt>
<rscale>  0 0.65405922E+03</rscale>
<asrwt>0</asrwt>
<pdfrwt beam="1">  1        2 0.26423825E+00 0.76229883E+03</pdfrwt>
<pdfrwt beam="2">  1       -2 0.37736061E-01 0.76229883E+03</pdfrwt>
<totfact> 0.64954581E+01</totfact>
</mgrwt>
</event>
<event>
 4    2  0.3171963E-007  0.9184772E+03  0.7818608E-02  0.9496998E-01
         -2   -1    0    0    0  501 -0.00000000000E+00  0.00000000000E+00  0.28175934741E+03  0.28175934742E+03  0.25500000000E-02 0.  1.
          2   -1    0    0  501    0  0.00000000000E+00 -0.00000000000E+00 -0.26623154446E+04  0.26623154446E+04  0.25500000000E-02 0. -1.
    8880023    1    1    2    0    0 -0.15510583675E+02  0.63996068084E+03 -0.19558517582E+04  0.21607768412E+04  0.65864270000E+03 0.  0.
    8880022    1    1    2    0    0  0.15510583675E+02 -0.63996068084E+03 -0.42470433906E+03  0.78329795088E+03  0.15294330000E+03 0.  0.
<mgrwt>
<rscale>  0 0.84505522E+03</rscale>
<asrwt>0</asrwt>
<pdfrwt beam="1">  1        2 0.40958697E+00 0.91847725E+03</pdfrwt>
<pdfrwt beam="2">  1       -2 0.43347594E-01 0.91847725E+03</pdfrwt>
<totfact> 0.14475352E+01</totfact>
</mgrwt>
</event>
<event>
 4    2  0.3171963E-007  0.1096122E+04  0.7818608E-02  0.9265386E-01
          2   -1    0    0  501    0  0.00000000000E+00  0.00000000000E+00  0.69763622350E+03  0.69763622350E+03  0.25500000000E-02 0. -1.
         -2   -1    0    0    0  501 -0.00000000000E+00 -0.00000000000E+00 -0.14873969697E+04  0.14873969698E+04  0.25500000000E-02 0.  1.
    8880023    1    1    2    0    0  0.80647557785E+03  0.34244791053E+03 -0.19045726977E+03  0.11125455528E+04  0.65864270000E+03 0.  0.
    8880022    1    1    2    0    0 -0.80647557785E+03 -0.34244791053E+03 -0.59930347647E+03  0.10724876405E+04  0.15294330000E+03 0. -1.
<mgrwt>
<rscale>  0 0.10403290E+04</rscale>
<asrwt>0</asrwt>
<pdfrwt beam="1">  1        2 0.10732865E+00 0.10961221E+04</pdfrwt>
<pdfrwt beam="2">  1       -2 0.22883030E+00 0.10961221E+04</pdfrwt>
<totfact> 0.35293574E+00</totfact>
</mgrwt>
</event>
<event>
 4    2  0.3171963E-007  0.7809018E+03  0.7818608E-02  0.9753723E-01
          2   -1    0    0  501    0  0.00000000000E+00  0.00000000000E+00  0.17003643929E+04  0.17003643929E+04  0.25500000000E-02 0. -1.
         -2   -1    0    0    0  501 -0.00000000000E+00 -0.00000000000E+00 -0.27767041573E+03  0.27767041574E+03  0.25500000000E-02 0.  1.
    8880023    1    1    2    0    0 -0.96333529134E+02  0.40831024449E+03  0.12973589808E+04  0.15142483072E+04  0.65864270000E+03 0.  0.
    8880022    1    1    2    0    0  0.96333529134E+02 -0.40831024449E+03  0.12533499640E+03  0.46378650145E+03  0.15294330000E+03 0.  0.
<mgrwt>
<rscale>  0 0.67906286E+03</rscale>
<asrwt>0</asrwt>
<pdfrwt beam="1">  1        2 0.26159452E+00 0.78090179E+03</pdfrwt>
<pdfrwt beam="2">  1       -2 0.42718525E-01 0.78090179E+03</pdfrwt>
<totfact> 0.52000557E+01</totfact>
</mgrwt>
</event>
<event>
 4    2  0.3171963E-007  0.6661825E+03  0.7818608E-02  0.1018561E+00
         -2   -1    0    0    0  501 -0.00000000000E+00  0.00000000000E+00  0.82775393695E+02  0.82775393734E+02  0.25500000000E-02 0.  1.
          2   -1    0    0  501    0  0.00000000000E+00 -0.00000000000E+00 -0.22638812165E+04  0.22638812165E+04  0.25500000000E-02 0. -1.
    8880023    1    1    2    0    0 -0.90674408128E+02  0.42035742478E+02 -0.18790113615E+04  0.19936104822E+04  0.65864270000E+03 0. -1.
    8880022    1    1    2    0    0  0.90674408128E+02 -0.42035742478E+02 -0.30209446130E+03  0.35304612800E+03  0.15294330000E+03 0.  0.
<mgrwt>
<rscale>  0 0.48209375E+03</rscale>
<asrwt>0</asrwt>
<pdfrwt beam="1">  1        2 0.34828937E+00 0.66618245E+03</pdfrwt>
<pdfrwt beam="2">  1       -2 0.12734678E-01 0.66618245E+03</pdfrwt>
<totfact> 0.22776039E+02</totfact>
</mgrwt>
</event>
<event>
 4    2  0.3171963E-007  0.8615008E+03  0.7818608E-02  0.9590899E-01
          2   -1    0    0  501    0  0.00000000000E+00  0.00000000000E+00  0.65042430637E+03  0.65042430638E+03  0.25500000000E-02 0. -1.
         -2   -1    0    0    0  501 -0.00000000000E+00 -0.00000000000E+00 -0.10151411757E+04  0.10151411757E+04  0.25500000000E-02 0.  1.
    8880023    1    1    2    0    0 -0.37411839667E+02 -0.55405220771E+03  0.17173720721E+03  0.87845168861E+03  0.65864270000E+03 0. -1.
    8880022    1    1    2    0    0  0.37411839667E+02  0.55405220771E+03 -0.53645407655E+03  0.78711379348E+03  0.15294330000E+03 0.  0.
<mgrwt>
<rscale>  0 0.77901465E+03</rscale>
<asrwt>0</asrwt>
<pdfrwt beam="1">  1        2 0.10006528E+00 0.86150084E+03</pdfrwt>
<pdfrwt beam="2">  1       -2 0.15617557E+00 0.86150084E+03</pdfrwt>
<totfact> 0.12137938E+01</totfact>
</mgrwt>
</event>
<event>
 4    2  0.3171963E-007  0.8209507E+03  0.7818608E-02  0.9667203E-01
         -2   -1    0    0    0  501 -0.00000000000E+00  0.00000000000E+00  0.56992074037E+03  0.56992074038E+03  0.25500000000E-02 0.  1.
          2   -1    0    0  501    0  0.00000000000E+00 -0.00000000000E+00 -0.11247878931E+04  0.11247878931E+04  0.25500000000E-02 0. -1.
    8880023    1    1    2    0    0  0.41847979335E+03  0.25499918495E+03 -0.78159000390E+03  0.11335091805E+04  0.65864270000E+03 0.  0.
    8880022    1    1    2    0    0 -0.41847979335E+03 -0.25499918495E+03  0.22672285119E+03  0.56119945299E+03  0.15294330000E+03 0.  0.
<mgrwt>
<rscale>  0 0.73003548E+03</rscale>
<asrwt>0</asrwt>
<pdfrwt beam="1">  1        2 0.17304429E+00 0.82095075E+03</pdfrwt>
<pdfrwt beam="2">  1       -2 0.87680114E-01 0.82095075E+03</pdfrwt>
<totfact> 0.23858319E+01</totfact>
</mgrwt>
</event>
<event>
 4    2  0.3171963E-007  0.1166491E+04  0.7818608E-02  0.9190404E-01
          2   -1    0    0  501    0  0.00000000000E+00  0.00000000000E+00  0.16176625257E+04  0.16176625257E+04  0.25500000000E-02 0. -1.
         -2   -1    0    0    0  501 -0.00000000000E+00 -0.00000000000E+00 -0.73380589797E+03  0.73380589798E+03  0.25500000000E-02 0.  1.
    8880023    1    1    2    0    0  0.49248154157E+03 -0.82725655691E+03  0.26315260892E+03  0.11958055785E+04  0.65864270000E+03 0.  1.
    8880022    1    1    2    0    0 -0.49248154157E+03  0.82725655691E+03  0.62070401882E+03  0.11556628452E+04  0.15294330000E+03 0.  0.
<mgrwt>
<rscale>  0 0.11153026E+04</rscale>
<asrwt>0</asrwt>
<pdfrwt beam="1">  1        2 0.24887116E+00 0.11664912E+04</pdfrwt>
<pdfrwt beam="2">  1       -2 0.11289322E+00 0.11664912E+04</pdfrwt>
<totfact> 0.65824391E+00</totfact>
</mgrwt>
</event>
<event>
 4    2  0.3171963E-007  0.7170088E+03  0.7818608E-02  0.9932840E-01
         -2   -1    0    0    0  501 -0.00000000000E+00  0.00000000000E+00  0.28131411791E+03  0.28131411792E+03  0.25500000000E-02 0.  1.
          2   -1    0    0  501    0  0.00000000000E+00 -0.00000000000E+00 -0.21002148262E+04  0.21002148262E+04  0.25500000000E-02 0. -1.
    8880023    1    1    2    0    0  0.25609861767E+03 -0.12126398984E+03 -0.19155450094E+04  0.20453396653E+04  0.65864270000E+03 0. -1.
    8880022    1    1    2    0    0 -0.25609861767E+03  0.12126398984E+03  0.96644301145E+02  0.33618927877E+03  0.15294330000E+03 0.  0.
<mgrwt>
<rscale>  0 0.58695780E+03</rscale>
<asrwt>0</asrwt>
<pdfrwt beam="1">  1        2 0.32310996E+00 0.71700883E+03</pdfrwt>
<pdfrwt beam="2">  1       -2 0.43279096E-01 0.71700883E+03</pdfrwt>
<totfact> 0.30898375E+01</totfact>
</mgrwt>
</event>
<event>
 4    2  0.3171963E-007  0.7094642E+03  0.7818608E-02  0.9959996E-01
         -2   -1    0    0    0  501 -0.00000000000E+00  0.00000000000E+00  0.15406781105E+03  0.15406781107E+03  0.25500000000E-02 0.  1.
          2   -1    0    0  501    0  0.00000000000E+00 -0.00000000000E+00 -0.41522752453E+04  0.41522752453E+04  0.25500000000E-02 0. -1.
    8880023    1    1    2    0    0 -0.19522514918E+03 -0.17724668328E+03 -0.39305887406E+04  0.39941040672E+04  0.65864270000E+03 0. -1.
    8880022    1    1    2    0    0  0.19522514918E+03  0.17724668328E+03 -0.67618693638E+02  0.31223898915E+03  0.15294330000E+03 0.  0.
<mgrwt>
<rscale>  0 0.57439684E+03</rscale>
<asrwt>0</asrwt>
<pdfrwt beam="1">  1        2 0.63881149E+00 0.70946420E+03</pdfrwt>
<pdfrwt beam="2">  1       -2 0.23702743E-01 0.70946420E+03</pdfrwt>
<totfact> 0.45280416E+00</totfact>
</mgrwt>
</event>
<event>
 4    2  0.3171963E-007  0.7919273E+03  0.7818608E-02  0.9728530E-01
         -2   -1    0    0    0  501 -0.00000000000E+00  0.00000000000E+00  0.29504425812E+03  0.29504425813E+03  0.25500000000E-02 0.  1.
          2   -1    0    0  501    0  0.00000000000E+00 -0.00000000000E+00 -0.36009680387E+04  0.36009680387E+04  0.25500000000E-02 0. -1.
    8880023    1    1    2    0    0  0.42512886095E+03 -0.11226823651E+03 -0.33367606758E+04  0.34294490402E+04  0.65864270000E+03 0.  0.
    8880022    1    1    2    0    0 -0.42512886095E+03  0.11226823651E+03  0.30836895206E+02  0.46656325666E+03  0.15294330000E+03 0.  0.
<mgrwt>
<rscale>  0 0.69343215E+03</rscale>
<asrwt>0</asrwt>
<pdfrwt beam="1">  1        2 0.55399505E+00 0.79192734E+03</pdfrwt>
<pdfrwt beam="2">  1       -2 0.45391427E-01 0.79192734E+03</pdfrwt>
<totfact> 0.34267584E+00</totfact>
</mgrwt>
</event>
<event>
 4    2  0.3171963E-007  0.7991599E+03  0.7818608E-02  0.9712615E-01
          2   -1    0    0  501    0  0.00000000000E+00  0.00000000000E+00  0.90914829826E+03  0.90914829826E+03  0.25500000000E-02 0. -1.
         -2   -1    0    0    0  501 -0.00000000000E+00 -0.00000000000E+00 -0.72626705361E+03  0.72626705362E+03  0.25500000000E-02 0.  1.
    8880023    1    1    2    0    0 -0.28833710381E+02  0.45168014872E+03  0.60148849258E+03  0.10002224515E+04  0.65864270000E+03 0. -1.
    8880022    1    1    2    0    0  0.28833710381E+02 -0.45168014872E+03 -0.41860724793E+03  0.63519290034E+03  0.15294330000E+03 0.  0.
<mgrwt>
<rscale>  0 0.70270615E+03</rscale>
<asrwt>0</asrwt>
<pdfrwt beam="1">  1        2 0.13986897E+00 0.79915990E+03</pdfrwt>
<pdfrwt beam="2">  1       -2 0.11173339E+00 0.79915990E+03</pdfrwt>
<totfact> 0.18480523E+01</totfact>
</mgrwt>
</event>
<event>
 4    2  0.3171963E-007  0.1296870E+04  0.7818608E-02  0.9068267E-01
          2   -1    0    0  501    0  0.00000000000E+00  0.00000000000E+00  0.25917407713E+04  0.25917407713E+04  0.25500000000E-02 0. -1.
         -2   -1    0    0    0  501 -0.00000000000E+00 -0.00000000000E+00 -0.63283111622E+03  0.63283111623E+03  0.25500000000E-02 0.  1.
    8880023    1    1    2    0    0  0.10896488266E+04  0.24642907885E+03  0.52182475973E+03  0.13979174304E+04  0.65864270000E+03 0.  0.
    8880022    1    1    2    0    0 -0.10896488266E+04 -0.24642907885E+03  0.14370848953E+04  0.18266544571E+04  0.15294330000E+03 0.  0.
<mgrwt>
<rscale>  0 0.12523044E+04</rscale>
<asrwt>0</asrwt>
<pdfrwt beam="1">  1        2 0.39872935E+00 0.12968701E+04</pdfrwt>
<pdfrwt beam="2">  1       -2 0.97358633E-01 0.12968701E+04</pdfrwt>
<totfact> 0.26378079E+00</totfact>
</mgrwt>
</event>
<event>
 4    2  0.3171963E-007  0.7122560E+03  0.7818608E-02  0.9949717E-01
          2   -1    0    0  501    0  0.00000000000E+00  0.00000000000E+00  0.28859923922E+04  0.28859923922E+04  0.25500000000E-02 0. -1.
         -2   -1    0    0    0  501 -0.00000000000E+00 -0.00000000000E+00 -0.22538470323E+03  0.22538470325E+03  0.25500000000E-02 0.  1.
    8880023    1    1    2    0    0  0.24474539575E+03 -0.11661090566E+03  0.27047786588E+04  0.27969869881E+04  0.65864270000E+03 0. -1.
    8880022    1    1    2    0    0 -0.24474539575E+03  0.11661090566E+03 -0.44170969791E+02  0.31439010743E+03  0.15294330000E+03 0.  0.
<mgrwt>
<rscale>  0 0.57911124E+03</rscale>
<asrwt>0</asrwt>
<pdfrwt beam="1">  1        2 0.44399879E+00 0.71225601E+03</pdfrwt>
<pdfrwt beam="2">  1       -2 0.34674573E-01 0.71225601E+03</pdfrwt>
<totfact> 0.16999551E+01</totfact>
</mgrwt>
</event>
<event>
 4    2  0.3171963E-007  0.1241227E+04  0.7818608E-02  0.9118053E-01
          2   -1    0    0  501    0  0.00000000000E+00  0.00000000000E+00  0.22351349335E+04  0.22351349335E+04  0.25500000000E-02 0. -1.
         -2   -1    0    0    0  501 -0.00000000000E+00 -0.00000000000E+00 -0.86623167282E+03  0.86623167283E+03  0.25500000000E-02 0.  1.
    8880023    1    1    2    0    0  0.10505936397E+04 -0.55556378594E+02  0.15883714034E+04  0.20158292161E+04  0.65864270000E+03 0. -1.
    8880022    1    1    2    0    0 -0.10505936397E+04  0.55556378594E+02 -0.21946814271E+03  0.10855373903E+04  0.15294330000E+03 0.  0.
<mgrwt>
<rscale>  0 0.11940815E+04</rscale>
<asrwt>0</asrwt>
<pdfrwt beam="1">  1        2 0.34386690E+00 0.12412267E+04</pdfrwt>
<pdfrwt beam="2">  1       -2 0.13326641E+00 0.12412267E+04</pdfrwt>
<totfact> 0.19552837E+00</totfact>
</mgrwt>
</event>
<event>
 4    2  0.3171963E-007  0.8281628E+03  0.7818608E-02  0.9652918E-01
          2   -1    0    0  501    0  0.00000000000E+00  0.00000000000E+00  0.22703143289E+04  0.22703143289E+04  0.25500000000E-02 0. -1.
         -2   -1    0    0    0  501 -0.00000000000E+00 -0.00000000000E+00 -0.36842725968E+03  0.36842725969E+03  0.25500000000E-02 0.  1.
    8880023    1    1    2    0    0 -0.19364700784E+03 -0.46318925020E+03  0.19431826793E+04  0.21123003045E+04  0.65864270000E+03 0. -1.
    8880022    1    1    2    0    0  0.19364700784E+03  0.46318925020E+03 -0.41295610060E+02  0.52644128407E+03  0.15294330000E+03 0.  0.
<mgrwt>
<rscale>  0 0.73890602E+03</rscale>
<asrwt>0</asrwt>
<pdfrwt beam="1">  1        2 0.34927913E+00 0.82816282E+03</pdfrwt>
<pdfrwt beam="2">  1       -2 0.56681116E-01 0.82816282E+03</pdfrwt>
<totfact> 0.14167041E+01</totfact>
</mgrwt>
</event>
<event>
 4    2  0.3171963E-007  0.9054331E+03  0.7818608E-02  0.9517365E-01
          2   -1    0    0  501    0  0.00000000000E+00  0.00000000000E+00  0.76048202590E+03  0.76048202590E+03  0.25500000000E-02 0. -1.
         -2   -1    0    0    0  501 -0.00000000000E+00 -0.00000000000E+00 -0.14415526105E+04  0.14415526105E+04  0.25500000000E-02 0.  1.
    8880023    1    1    2    0    0  0.54535626946E+03 -0.29763311453E+03  0.36464472115E+03  0.97610189552E+03  0.65864270000E+03 0. -1.
    8880022    1    1    2    0    0 -0.54535626946E+03  0.29763311453E+03 -0.10457153057E+04  0.12259327409E+04  0.15294330000E+03 0.  0.
<mgrwt>
<rscale>  0 0.83015562E+03</rscale>
<asrwt>0</asrwt>
<pdfrwt beam="1">  1        2 0.11699723E+00 0.90543312E+03</pdfrwt>
<pdfrwt beam="2">  1       -2 0.22177732E+00 0.90543312E+03</pdfrwt>
<totfact> 0.35650561E+00</totfact>
</mgrwt>
</event>
<event>
 4    2  0.3171963E-007  0.6767512E+03  0.7818608E-02  0.1011224E+00
          2   -1    0    0  501    0  0.00000000000E+00  0.00000000000E+00  0.15588880594E+04  0.15588880594E+04  0.25500000000E-02 0. -1.
         -2   -1    0    0    0  501 -0.00000000000E+00 -0.00000000000E+00 -0.22270833314E+03  0.22270833316E+03  0.25500000000E-02 0.  1.
    8880023    1    1    2    0    0 -0.13760428581E+03 -0.72436907714E+02  0.13994472568E+04  0.15544918385E+04  0.65864270000E+03 0.  0.
    8880022    1    1    2    0    0  0.13760428581E+03  0.72436907714E+02 -0.63267530503E+02  0.22710455412E+03  0.15294330000E+03 0.  1.
<mgrwt>
<rscale>  0 0.50990898E+03</rscale>
<asrwt>0</asrwt>
<pdfrwt beam="1">  1        2 0.23982892E+00 0.67675125E+03</pdfrwt>
<pdfrwt beam="2">  1       -2 0.34262822E-01 0.67675125E+03</pdfrwt>
<totfact> 0.96324128E+01</totfact>
</mgrwt>
</event>
<event>
 4    2  0.3171963E-007  0.7257120E+03  0.7818608E-02  0.9903712E-01
          2   -1    0    0  501    0  0.00000000000E+00  0.00000000000E+00  0.72461179620E+03  0.72461179621E+03  0.25500000000E-02 0. -1.
         -2   -1    0    0    0  501 -0.00000000000E+00 -0.00000000000E+00 -0.55092069996E+03  0.55092069996E+03  0.25500000000E-02 0.  1.
    8880023    1    1    2    0    0  0.24876117082E+03  0.17597051531E+03  0.43488763949E+03  0.84604090186E+03  0.65864270000E+03 0.  0.
    8880022    1    1    2    0    0 -0.24876117082E+03 -0.17597051531E+03 -0.26119654325E+03  0.42949159431E+03  0.15294330000E+03 0.  0.
<mgrwt>
<rscale>  0 0.60081727E+03</rscale>
<asrwt>0</asrwt>
<pdfrwt beam="1">  1        2 0.11147874E+00 0.72571203E+03</pdfrwt>
<pdfrwt beam="2">  1       -2 0.84757031E-01 0.72571203E+03</pdfrwt>
<totfact> 0.48263965E+01</totfact>
</mgrwt>
</event>
<event>
 4    2  0.3171963E-007  0.7102810E+03  0.7818608E-02  0.9956959E-01
          2   -1    0    0  501    0  0.00000000000E+00  0.00000000000E+00  0.12486472456E+04  0.12486472456E+04  0.25500000000E-02 0. -1.
         -2   -1    0    0    0  501 -0.00000000000E+00 -0.00000000000E+00 -0.33717752956E+03  0.33717752957E+03  0.25500000000E-02 0.  1.
    8880023    1    1    2    0    0  0.15647959432E+03 -0.21494878842E+03  0.10348997946E+04  0.12551958558E+04  0.65864270000E+03 0. -1.
    8880022    1    1    2    0    0 -0.15647959432E+03  0.21494878842E+03 -0.12343007856E+03  0.33062891947E+03  0.15294330000E+03 0.  0.
<mgrwt>
<rscale>  0 0.57578465E+03</rscale>
<asrwt>0</asrwt>
<pdfrwt beam="1">  1        2 0.19209957E+00 0.71028097E+03</pdfrwt>
<pdfrwt beam="2">  1       -2 0.51873467E-01 0.71028097E+03</pdfrwt>
<totfact> 0.63514200E+01</totfact>
</mgrwt>
</event>
<event>
 4    2  0.3171963E-007  0.9319511E+03  0.7818608E-02  0.9476572E-01
          2   -1    0    0  501    0  0.00000000000E+00  0.00000000000E+00  0.39259947014E+04  0.39259947014E+04  0.25500000000E-02 0. -1.
         -2   -1    0    0    0  501 -0.00000000000E+00 -0.00000000000E+00 -0.58386455504E+03  0.58386455504E+03  0.25500000000E-02 0.  1.
    8880023    1    1    2    0    0  0.24640345509E+03  0.61156192261E+03  0.36494136611E+04  0.37665306217E+04  0.65864270000E+03 0. -1.
    8880022    1    1    2    0    0 -0.24640345509E+03 -0.61156192261E+03 -0.30728351473E+03  0.74332863479E+03  0.15294330000E+03 0.  0.
<mgrwt>
<rscale>  0 0.86033299E+03</rscale>
<asrwt>0</asrwt>
<pdfrwt beam="1">  1        2 0.60399915E+00 0.93195110E+03</pdfrwt>
<pdfrwt beam="2">  1       -2 0.89825321E-01 0.93195110E+03</pdfrwt>
<totfact> 0.44276653E-01</totfact>
</mgrwt>
</event>
<event>
 4    2  0.3171963E-007  0.8347062E+03  0.7818608E-02  0.9640244E-01
          2   -1    0    0  501    0  0.00000000000E+00  0.00000000000E+00  0.24178042590E+04  0.24178042590E+04  0.25500000000E-02 0. -1.
         -2   -1    0    0    0  501 -0.00000000000E+00 -0.00000000000E+00 -0.66012460425E+03  0.66012460425E+03  0.25500000000E-02 0.  1.
    8880023    1    1    2    0    0  0.55428017049E+02  0.50975679422E+03  0.22193997581E+04  0.23711747609E+04  0.65864270000E+03 0.  0.
    8880022    1    1    2    0    0 -0.55428017049E+02 -0.50975679422E+03 -0.46172010334E+03  0.70675410233E+03  0.15294330000E+03 0.  0.
<mgrwt>
<rscale>  0 0.74688875E+03</rscale>
<asrwt>0</asrwt>
<pdfrwt beam="1">  1        2 0.37196989E+00 0.83470621E+03</pdfrwt>
<pdfrwt beam="2">  1       -2 0.10155763E+00 0.83470621E+03</pdfrwt>
<totfact> 0.31914968E+00</totfact>
</mgrwt>
</event>
<event>
 4    2  0.3171963E-007  0.8286281E+03  0.7818608E-02  0.9652008E-01
          2   -1    0    0  501    0  0.00000000000E+00  0.00000000000E+00  0.43069356814E+03  0.43069356815E+03  0.25500000000E-02 0. -1.
         -2   -1    0    0    0  501 -0.00000000000E+00 -0.00000000000E+00 -0.11911600511E+04  0.11911600511E+04  0.25500000000E-02 0.  1.
    8880023    1    1    2    0    0 -0.39892497482E+03 -0.30606080797E+03 -0.19778081985E+03  0.85190481433E+03  0.65864270000E+03 0. -1.
    8880022    1    1    2    0    0  0.39892497482E+03  0.30606080797E+03 -0.56268566311E+03  0.76994880492E+03  0.15294330000E+03 0.  0.
<mgrwt>
<rscale>  0 0.73947567E+03</rscale>
<asrwt>0</asrwt>
<pdfrwt beam="1">  1        2 0.66260549E-01 0.82862812E+03</pdfrwt>
<pdfrwt beam="2">  1       -2 0.18325539E+00 0.82862812E+03</pdfrwt>
<totfact> 0.12707199E+01</totfact>
</mgrwt>
</event>
<event>
 4    2  0.3171963E-007  0.7097417E+03  0.7818608E-02  0.9958961E-01
          2   -1    0    0  501    0  0.00000000000E+00  0.00000000000E+00  0.26146223159E+04  0.26146223159E+04  0.25500000000E-02 0. -1.
         -2   -1    0    0    0  501 -0.00000000000E+00 -0.00000000000E+00 -0.16642664956E+03  0.16642664958E+03  0.25500000000E-02 0.  1.
    8880023    1    1    2    0    0  0.16772967511E+03 -0.20442569522E+03  0.23580572036E+04  0.24625529620E+04  0.65864270000E+03 0. -1.
    8880022    1    1    2    0    0 -0.16772967511E+03  0.20442569522E+03  0.90138462761E+02  0.31849600353E+03  0.15294330000E+03 0.  0.
<mgrwt>
<rscale>  0 0.57486921E+03</rscale>
<asrwt>0</asrwt>
<pdfrwt beam="1">  1        2 0.40224958E+00 0.70974172E+03</pdfrwt>
<pdfrwt beam="2">  1       -2 0.25604100E-01 0.70974172E+03</pdfrwt>
<totfact> 0.43019751E+01</totfact>
</mgrwt>
</event>
<event>
 4    2  0.3171963E-007  0.6612112E+03  0.7818608E-02  0.1022948E+00
         -2   -1    0    0    0  501 -0.00000000000E+00  0.00000000000E+00  0.27906487549E+03  0.27906487551E+03  0.25500000000E-02 0.  1.
          2   -1    0    0  501    0  0.00000000000E+00 -0.00000000000E+00 -0.14085919948E+04  0.14085919948E+04  0.25500000000E-02 0. -1.
    8880023    1    1    2    0    0 -0.45660687383E+02  0.36126934446E+02 -0.12955553916E+04  0.14545322385E+04  0.65864270000E+03 0. -1.
    8880022    1    1    2    0    0  0.45660687383E+02 -0.36126934446E+02  0.16602827228E+03  0.23312463185E+03  0.15294330000E+03 0.  0.
<mgrwt>
<rscale>  0 0.46637465E+03</rscale>
<asrwt>0</asrwt>
<pdfrwt beam="1">  1        2 0.21670646E+00 0.66121121E+03</pdfrwt>
<pdfrwt beam="2">  1       -2 0.42933059E-01 0.66121121E+03</pdfrwt>
<totfact> 0.75634622E+01</totfact>
</mgrwt>
</event>
<event>
 4    2  0.3171963E-007  0.6985164E+03  0.7818608E-02  0.1000341E+00
         -2   -1    0    0    0  501 -0.00000000000E+00  0.00000000000E+00  0.17851565934E+03  0.17851565936E+03  0.25500000000E-02 0.  1.
          2   -1    0    0  501    0  0.00000000000E+00 -0.00000000000E+00 -0.37372955801E+04  0.37372955801E+04  0.25500000000E-02 0. -1.
    8880023    1    1    2    0    0 -0.22807635879E+03 -0.45783470911E+02 -0.35695004926E+04  0.36372048230E+04  0.65864270000E+03 0. -1.
    8880022    1    1    2    0    0  0.22807635879E+03  0.45783470911E+02  0.10720571775E+02  0.27860641651E+03  0.15294330000E+03 0.  0.
<mgrwt>
<rscale>  0 0.55500870E+03</rscale>
<asrwt>0</asrwt>
<pdfrwt beam="1">  1        2 0.57496849E+00 0.69851640E+03</pdfrwt>
<pdfrwt beam="2">  1       -2 0.27463950E-01 0.69851640E+03</pdfrwt>
<totfact> 0.72917505E+00</totfact>
</mgrwt>
</event>
<event>
 4    2  0.3171963E-007  0.9742822E+03  0.7818608E-02  0.9416006E-01
         -2   -1    0    0    0  501 -0.00000000000E+00  0.00000000000E+00  0.14802205668E+04  0.14802205668E+04  0.25500000000E-02 0.  1.
          2   -1    0    0  501    0  0.00000000000E+00 -0.00000000000E+00 -0.63642063457E+03  0.63642063458E+03  0.25500000000E-02 0. -1.
    8880023    1    1    2    0    0 -0.37969010128E+03 -0.60930372020E+03 -0.30876870435E+02  0.97477134952E+03  0.65864270000E+03 0. -1.
    8880022    1    1    2    0    0  0.37969010128E+03  0.60930372020E+03  0.87467680269E+03  0.11418698519E+04  0.15294330000E+03 0.  1.
<mgrwt>
<rscale>  0 0.90770088E+03</rscale>
<asrwt>0</asrwt>
<pdfrwt beam="1">  1        2 0.97910867E-01 0.97428220E+03</pdfrwt>
<pdfrwt beam="2">  1       -2 0.22772624E+00 0.97428220E+03</pdfrwt>
<totfact> 0.40726133E+00</totfact>
</mgrwt>
</event>
<event>
 4    2  0.3171963E-007  0.1191054E+04  0.7818608E-02  0.9165868E-01
         -2   -1    0    0    0  501 -0.00000000000E+00  0.00000000000E+00  0.61826380157E+03  0.61826380157E+03  0.25500000000E-02 0.  1.
          2   -1    0    0  501    0  0.00000000000E+00 -0.00000000000E+00 -0.23095903279E+04  0.23095903279E+04  0.25500000000E-02 0. -1.
    8880023    1    1    2    0    0 -0.96524341136E+03  0.23044595693E+03 -0.14835287388E+04  0.19024899230E+04  0.65864270000E+03 0. -1.
    8880022    1    1    2    0    0  0.96524341136E+03 -0.23044595693E+03 -0.20779778753E+03  0.10253642064E+04  0.15294330000E+03 0.  1.
<mgrwt>
<rscale>  0 0.11412783E+04</rscale>
<asrwt>0</asrwt>
<pdfrwt beam="1">  1        2 0.35532158E+00 0.11910543E+04</pdfrwt>
<pdfrwt beam="2">  1       -2 0.95117509E-01 0.11910543E+04</pdfrwt>
<totfact> 0.40898290E+00</totfact>
</mgrwt>
</event>
<event>
 4    2  0.3171963E-007  0.7855074E+03  0.7818608E-02  0.9743056E-01
         -2   -1    0    0    0  501 -0.00000000000E+00  0.00000000000E+00  0.47549352915E+03  0.47549352915E+03  0.25500000000E-02 0.  1.
          2   -1    0    0  501    0  0.00000000000E+00 -0.00000000000E+00 -0.19110198390E+04  0.19110198390E+04  0.25500000000E-02 0. -1.
    8880023    1    1    2    0    0  0.42791096400E+03  0.10189824419E+02 -0.16914033089E+04  0.18649040150E+04  0.65864270000E+03 0. -1.
    8880022    1    1    2    0    0 -0.42791096400E+03 -0.10189824419E+02  0.25587699903E+03  0.52160935314E+03  0.15294330000E+03 0.  0.
<mgrwt>
<rscale>  0 0.68510139E+03</rscale>
<asrwt>0</asrwt>
<pdfrwt beam="1">  1        2 0.29400305E+00 0.78550737E+03</pdfrwt>
<pdfrwt beam="2">  1       -2 0.73152852E-01 0.78550737E+03</pdfrwt>
<totfact> 0.12985717E+01</totfact>
</mgrwt>
</event>
<event>
 4    2  0.3171963E-007  0.8694764E+03  0.7818608E-02  0.9576924E-01
         -2   -1    0    0    0  501 -0.00000000000E+00  0.00000000000E+00  0.33987665416E+03  0.33987665417E+03  0.25500000000E-02 0.  1.
          2   -1    0    0  501    0  0.00000000000E+00 -0.00000000000E+00 -0.28654651418E+04  0.28654651418E+04  0.25500000000E-02 0. -1.
    8880023    1    1    2    0    0 -0.56566332294E+03  0.46947792857E+02 -0.24656236927E+04  0.26144386569E+04  0.65864270000E+03 0.  0.
    8880022    1    1    2    0    0  0.56566332294E+03 -0.46947792857E+02 -0.59964794937E+02  0.59090313912E+03  0.15294330000E+03 0.  0.
<mgrwt>
<rscale>  0 0.78842518E+03</rscale>
<asrwt>0</asrwt>
<pdfrwt beam="1">  1        2 0.44084078E+00 0.86947645E+03</pdfrwt>
<pdfrwt beam="2">  1       -2 0.52288718E-01 0.86947645E+03</pdfrwt>
<totfact> 0.75676307E+00</totfact>
</mgrwt>
</event>
<event>
 4    2  0.3171963E-007  0.7016355E+03  0.7818608E-02  0.9990483E-01
         -2   -1    0    0    0  501 -0.00000000000E+00  0.00000000000E+00  0.26265105214E+03  0.26265105216E+03  0.25500000000E-02 0.  1.
          2   -1    0    0  501    0  0.00000000000E+00 -0.00000000000E+00 -0.10405073942E+04  0.10405073942E+04  0.25500000000E-02 0. -1.
    8880023    1    1    2    0    0 -0.10995648874E+03 -0.21538740816E+03 -0.73095046501E+03  0.10132033130E+04  0.65864270000E+03 0. -1.
    8880022    1    1    2    0    0  0.10995648874E+03  0.21538740816E+03 -0.46905877033E+02  0.28995513330E+03  0.15294330000E+03 0.  1.
<mgrwt>
<rscale>  0 0.56069514E+03</rscale>
<asrwt>0</asrwt>
<pdfrwt beam="1">  1        2 0.16007806E+00 0.70163550E+03</pdfrwt>
<pdfrwt beam="2">  1       -2 0.40407855E-01 0.70163550E+03</pdfrwt>
<totfact> 0.13976199E+02</totfact>
</mgrwt>
</event>
<event>
 4    2  0.3171963E-007  0.7069093E+03  0.7818608E-02  0.9969662E-01
          2   -1    0    0  501    0  0.00000000000E+00  0.00000000000E+00  0.44371285951E+03  0.44371285951E+03  0.25500000000E-02 0. -1.
         -2   -1    0    0    0  501 -0.00000000000E+00 -0.00000000000E+00 -0.58977225819E+03  0.58977225819E+03  0.25500000000E-02 0.  1.
    8880023    1    1    2    0    0 -0.17280974628E+03  0.18986149178E+03 -0.14722433126E+02  0.70706262153E+03  0.65864270000E+03 0. -1.
    8880022    1    1    2    0    0  0.17280974628E+03 -0.18986149178E+03 -0.13133696556E+03  0.32642249617E+03  0.15294330000E+03 0.  1.
<mgrwt>
<rscale>  0 0.57000752E+03</rscale>
<asrwt>0</asrwt>
<pdfrwt beam="1">  1        2 0.68263517E-01 0.70690933E+03</pdfrwt>
<pdfrwt beam="2">  1       -2 0.90734194E-01 0.70690933E+03</pdfrwt>
<totfact> 0.74299459E+01</totfact>
</mgrwt>
</event>
<event>
 4    2  0.3171963E-007  0.7092410E+03  0.7818608E-02  0.9960830E-01
         -2   -1    0    0    0  501 -0.00000000000E+00  0.00000000000E+00  0.15890710304E+03  0.15890710306E+03  0.25500000000E-02 0.  1.
          2   -1    0    0  501    0  0.00000000000E+00 -0.00000000000E+00 -0.19415207233E+04  0.19415207233E+04  0.25500000000E-02 0. -1.
    8880023    1    1    2    0    0 -0.25233964133E+03  0.74412770751E+02 -0.15880637170E+04  0.17392438387E+04  0.65864270000E+03 0. -1.
    8880022    1    1    2    0    0  0.25233964133E+03 -0.74412770751E+02 -0.19454990323E+03  0.36118398760E+03  0.15294330000E+03 0.  0.
<mgrwt>
<rscale>  0 0.57401627E+03</rscale>
<asrwt>0</asrwt>
<pdfrwt beam="1">  1        2 0.29869548E+00 0.70924098E+03</pdfrwt>
<pdfrwt beam="2">  1       -2 0.24447248E-01 0.70924098E+03</pdfrwt>
<totfact> 0.11059551E+02</totfact>
</mgrwt>
</event>
<event>
 4    2  0.3171963E-007  0.7076122E+03  0.7818608E-02  0.9966977E-01
          2   -1    0    0  501    0  0.00000000000E+00  0.00000000000E+00  0.12620054115E+04  0.12620054115E+04  0.25500000000E-02 0. -1.
         -2   -1    0    0    0  501 -0.00000000000E+00 -0.00000000000E+00 -0.66524691219E+03  0.66524691219E+03  0.25500000000E-02 0.  1.
    8880023    1    1    2    0    0 -0.18916403638E+03  0.17641386507E+03  0.11194486246E+04  0.13243414642E+04  0.65864270000E+03 0.  0.
    8880022    1    1    2    0    0  0.18916403638E+03 -0.17641386507E+03 -0.52269012526E+03  0.60291085951E+03  0.15294330000E+03 0.  1.
<mgrwt>
<rscale>  0 0.57122261E+03</rscale>
<asrwt>0</asrwt>
<pdfrwt beam="1">  1        2 0.19415468E+00 0.70761225E+03</pdfrwt>
<pdfrwt beam="2">  1       -2 0.10234568E+00 0.70761225E+03</pdfrwt>
<totfact> 0.13951699E+01</totfact>
</mgrwt>
</event>
<event>
 4    2  0.3171963E-007  0.6820898E+03  0.7818608E-02  0.1008165E+00
         -2   -1    0    0    0  501 -0.00000000000E+00  0.00000000000E+00  0.33766808081E+03  0.33766808082E+03  0.25500000000E-02 0.  1.
          2   -1    0    0  501    0  0.00000000000E+00 -0.00000000000E+00 -0.72609066445E+03  0.72609066446E+03  0.25500000000E-02 0. -1.
    8880023    1    1    2    0    0 -0.14977409860E+03  0.94889300517E+02 -0.95488861594E+02  0.68874130769E+03  0.65864270000E+03 0.  1.
    8880022    1    1    2    0    0  0.14977409860E+03 -0.94889300517E+02 -0.29293372205E+03  0.37501743759E+03  0.15294330000E+03 0.  1.
<mgrwt>
<rscale>  0 0.52210322E+03</rscale>
<asrwt>0</asrwt>
<pdfrwt beam="1">  1        2 0.11170626E+00 0.68208978E+03</pdfrwt>
<pdfrwt beam="2">  1       -2 0.51948936E-01 0.68208978E+03</pdfrwt>
<totfact> 0.13887589E+02</totfact>
</mgrwt>
</event>
<event>
 4    2  0.5652877E-007  0.8423101E+03  0.7818608E-02  0.9625840E-01
          2   -1    0    0  501    0  0.00000000000E+00  0.00000000000E+00  0.14876082653E+04  0.14876082653E+04  0.25500000000E-02 0. -1.
         -2   -1    0    0    0  501 -0.00000000000E+00 -0.00000000000E+00 -0.21428365936E+04  0.21428365936E+04  0.25500000000E-02 0.  1.
    8880023    1    1    2    0    0 -0.29820089110E+03 -0.43214850816E+03  0.13283310427E+04  0.15728794200E+04  0.65864270000E+03 0.  0.
    8880022    1    1    2    0    0  0.29820089110E+03  0.43214850816E+03 -0.19835593710E+04  0.20575654390E+04  0.15294330000E+03 0.  1.
<mgrwt>
<rscale>  0 0.75609298E+03</rscale>
<asrwt>0</asrwt>
<pdfrwt beam="1">  1        2 0.22886281E+00 0.84231010E+03</pdfrwt>
<pdfrwt beam="2">  1       -2 0.32966717E+00 0.84231010E+03</pdfrwt>
<totfact> 0.27999630E-01</totfact>
</mgrwt>
</event>
<event>
 4    2  0.3171963E-007  0.9902733E+03  0.7818608E-02  0.9394395E-01
          2   -1    0    0  501    0  0.00000000000E+00  0.00000000000E+00  0.27752740084E+04  0.27752740084E+04  0.25500000000E-02 0. -1.
         -2   -1    0    0    0  501 -0.00000000000E+00 -0.00000000000E+00 -0.41243423299E+03  0.41243423300E+03  0.25500000000E-02 0.  1.
    8880023    1    1    2    0    0  0.69160155979E+03 -0.26176006142E+03  0.37092483518E+03  0.10574622863E+04  0.65864270000E+03 0.  0.
    8880022    1    1    2    0    0 -0.69160155979E+03  0.26176006142E+03  0.19919149402E+04  0.21302459551E+04  0.15294330000E+03 0.  0.
<mgrwt>
<rscale>  0 0.92538376E+03</rscale>
<asrwt>0</asrwt>
<pdfrwt beam="1">  1        2 0.42696523E+00 0.99027332E+03</pdfrwt>
<pdfrwt beam="2">  1       -2 0.63451421E-01 0.99027332E+03</pdfrwt>
<totfact> 0.56051108E+00</totfact>
</mgrwt>
</event>
<event>
 4    2  0.3171963E-007  0.8029667E+03  0.7818608E-02  0.9704418E-01
          2   -1    0    0  501    0  0.00000000000E+00  0.00000000000E+00  0.33502168925E+04  0.33502168925E+04  0.25500000000E-02 0. -1.
         -2   -1    0    0    0  501 -0.00000000000E+00 -0.00000000000E+00 -0.21665034607E+03  0.21665034609E+03  0.25500000000E-02 0.  1.
    8880023    1    1    2    0    0  0.33827608994E+03 -0.31066787620E+03  0.29363372439E+04  0.30441471480E+04  0.65864270000E+03 0.  0.
    8880022    1    1    2    0    0 -0.33827608994E+03  0.31066787620E+03  0.19722930250E+03  0.52272009059E+03  0.15294330000E+03 0.  0.
<mgrwt>
<rscale>  0 0.70754362E+03</rscale>
<asrwt>0</asrwt>
<pdfrwt beam="1">  1        2 0.51541799E+00 0.80296665E+03</pdfrwt>
<pdfrwt beam="2">  1       -2 0.33330822E-01 0.80296665E+03</pdfrwt>
<totfact> 0.92256024E+00</totfact>
</mgrwt>
</event>
<event>
 4    2  0.3171963E-007  0.6602919E+03  0.7818608E-02  0.1023859E+00
          2   -1    0    0  501    0  0.00000000000E+00  0.00000000000E+00  0.69312858245E+03  0.69312858245E+03  0.25500000000E-02 0. -1.
         -2   -1    0    0    0  501 -0.00000000000E+00 -0.00000000000E+00 -0.72034225568E+03  0.72034225568E+03  0.25500000000E-02 0.  1.
    8880023    1    1    2    0    0 -0.14383998471E+00  0.46638312205E+02  0.52184083322E+03  0.84160751799E+03  0.65864270000E+03 0. -1.
    8880022    1    1    2    0    0  0.14383998471E+00 -0.46638312205E+02 -0.54905450645E+03  0.57186332014E+03  0.15294330000E+03 0.  0.
<mgrwt>
<rscale>  0 0.46319251E+03</rscale>
<asrwt>0</asrwt>
<pdfrwt beam="1">  1        2 0.10663517E+00 0.66029187E+03</pdfrwt>
<pdfrwt beam="2">  1       -2 0.11082189E+00 0.66029187E+03</pdfrwt>
<totfact> 0.27357984E+01</totfact>
</mgrwt>
</event>
<event>
 4    2  0.3171963E-007  0.7023643E+03  0.7818608E-02  0.9987531E-01
         -2   -1    0    0    0  501 -0.00000000000E+00  0.00000000000E+00  0.29376161039E+03  0.29376161040E+03  0.25500000000E-02 0.  1.
          2   -1    0    0  501    0  0.00000000000E+00 -0.00000000000E+00 -0.10431626078E+04  0.10431626078E+04  0.25500000000E-02 0. -1.
    8880023    1    1    2    0    0 -0.19918988769E+03 -0.14081473597E+03 -0.77734252336E+03  0.10476530944E+04  0.65864270000E+03 0.  0.
    8880022    1    1    2    0    0  0.19918988769E+03  0.14081473597E+03  0.27941525922E+02  0.28927112388E+03  0.15294330000E+03 0.  0.
<mgrwt>
<rscale>  0 0.56200374E+03</rscale>
<asrwt>0</asrwt>
<pdfrwt beam="1">  1        2 0.16048655E+00 0.70236430E+03</pdfrwt>
<pdfrwt beam="2">  1       -2 0.45194094E-01 0.70236430E+03</pdfrwt>
<totfact> 0.11163687E+02</totfact>
</mgrwt>
</event>
<event>
 4    2  0.3171963E-007  0.7709945E+03  0.7818608E-02  0.9777433E-01
         -2   -1    0    0    0  501 -0.00000000000E+00  0.00000000000E+00  0.11632418040E+04  0.11632418040E+04  0.25500000000E-02 0.  1.
          2   -1    0    0  501    0  0.00000000000E+00 -0.00000000000E+00 -0.42605223367E+03  0.42605223368E+03  0.25500000000E-02 0. -1.
    8880023    1    1    2    0    0  0.39097534942E+03  0.88094480687E+02  0.84814965481E+03  0.11462069641E+04  0.65864270000E+03 0.  1.
    8880022    1    1    2    0    0 -0.39097534942E+03 -0.88094480687E+02 -0.11096008449E+03  0.44308707355E+03  0.15294330000E+03 0.  0.
<mgrwt>
<rscale>  0 0.66587826E+03</rscale>
<asrwt>0</asrwt>
<pdfrwt beam="1">  1        2 0.65546497E-01 0.77099453E+03</pdfrwt>
<pdfrwt beam="2">  1       -2 0.17896028E+00 0.77099453E+03</pdfrwt>
<totfact> 0.13837495E+01</totfact>
</mgrwt>
</event>
<event>
 4    2  0.3171963E-007  0.6682826E+03  0.7818608E-02  0.1016925E+00
         -2   -1    0    0    0  501 -0.00000000000E+00  0.00000000000E+00  0.29877986908E+04  0.29877986908E+04  0.25500000000E-02 0.  1.
          2   -1    0    0  501    0  0.00000000000E+00 -0.00000000000E+00 -0.20875887900E+03  0.20875887901E+03  0.25500000000E-02 0. -1.
    8880023    1    1    2    0    0  0.93242164039E+02  0.64010072141E+02  0.33942906435E+03  0.74954231801E+03  0.65864270000E+03 0. -1.
    8880022    1    1    2    0    0 -0.93242164039E+02 -0.64010072141E+02  0.24396107475E+04  0.24470152518E+04  0.15294330000E+03 0.  0.
<mgrwt>
<rscale>  0 0.48812746E+03</rscale>
<asrwt>0</asrwt>
<pdfrwt beam="1">  1        2 0.32116753E-01 0.66828257E+03</pdfrwt>
<pdfrwt beam="2">  1       -2 0.45966130E+00 0.66828257E+03</pdfrwt>
<totfact> 0.53300864E-01</totfact>
</mgrwt>
</event>
<event>
 4    2  0.3171963E-007  0.6678070E+03  0.7818608E-02  0.1017286E+00
         -2   -1    0    0    0  501 -0.00000000000E+00  0.00000000000E+00  0.70330597802E+03  0.70330597803E+03  0.25500000000E-02 0.  1.
          2   -1    0    0  501    0  0.00000000000E+00 -0.00000000000E+00 -0.45453623861E+03  0.45453623861E+03  0.25500000000E-02 0. -1.
    8880023    1    1    2    0    0 -0.62944311753E+02 -0.90520418558E+02 -0.17813472757E+03  0.69115708778E+03  0.65864270000E+03 0. -1.
    8880022    1    1    2    0    0  0.62944311753E+02  0.90520418558E+02  0.42690446698E+03  0.46668512886E+03  0.15294330000E+03 0.  0.
<mgrwt>
<rscale>  0 0.48678756E+03</rscale>
<asrwt>0</asrwt>
<pdfrwt beam="1">  1        2 0.69928652E-01 0.66780696E+03</pdfrwt>
<pdfrwt beam="2">  1       -2 0.10820092E+00 0.66780696E+03</pdfrwt>
<totfact> 0.47827194E+01</totfact>
</mgrwt>
</event>
<event>
 4    2  0.3171963E-007  0.6772850E+03  0.7818608E-02  0.1010903E+00
          2   -1    0    0  501    0  0.00000000000E+00  0.00000000000E+00  0.18036018905E+04  0.18036018905E+04  0.25500000000E-02 0. -1.
         -2   -1    0    0    0  501 -0.00000000000E+00 -0.00000000000E+00 -0.18374868592E+03  0.18374868594E+03  0.25500000000E-02 0.  1.
    8880023    1    1    2    0    0 -0.59491829330E+02 -0.14616957695E+03  0.16322991216E+04  0.17672338418E+04  0.65864270000E+03 0. -1.
    8880022    1    1    2    0    0  0.59491829330E+02  0.14616957695E+03 -0.12445917062E+02  0.22011673460E+03  0.15294330000E+03 0.  0.
<mgrwt>
<rscale>  0 0.51117316E+03</rscale>
<asrwt>0</asrwt>
<pdfrwt beam="1">  1        2 0.27747720E+00 0.67728504E+03</pdfrwt>
<pdfrwt beam="2">  1       -2 0.28269030E-01 0.67728504E+03</pdfrwt>
<totfact> 0.10131812E+02</totfact>
</mgrwt>
</event>
<event>
 4    2  0.3171963E-007  0.7620369E+03  0.7818608E-02  0.9799862E-01
          2   -1    0    0  501    0  0.00000000000E+00  0.00000000000E+00  0.15615995970E+04  0.15615995970E+04  0.25500000000E-02 0. -1.
         -2   -1    0    0    0  501 -0.00000000000E+00 -0.00000000000E+00 -0.43319151519E+03  0.43319151520E+03  0.25500000000E-02 0.  1.
    8880023    1    1    2    0    0  0.16803488476E+03 -0.34446232979E+03  0.13320550444E+04  0.15346240148E+04  0.65864270000E+03 0. -1.
    8880022    1    1    2    0    0 -0.16803488476E+03  0.34446232979E+03 -0.20364696261E+03  0.46016709741E+03  0.15294330000E+03 0.  0.
<mgrwt>
<rscale>  0 0.65369925E+03</rscale>
<asrwt>0</asrwt>
<pdfrwt beam="1">  1        2 0.24024609E+00 0.76203689E+03</pdfrwt>
<pdfrwt beam="2">  1       -2 0.66644848E-01 0.76203689E+03</pdfrwt>
<totfact> 0.24804664E+01</totfact>
</mgrwt>
</event>
<event>
 4    2  0.3171963E-007  0.8934630E+03  0.7818608E-02  0.9536608E-01
          2   -1    0    0  501    0  0.00000000000E+00  0.00000000000E+00  0.17596123701E+04  0.17596123701E+04  0.25500000000E-02 0. -1.
         -2   -1    0    0    0  501 -0.00000000000E+00 -0.00000000000E+00 -0.37284057409E+03  0.37284057410E+03  0.25500000000E-02 0.  1.
    8880023    1    1    2    0    0 -0.42566392476E+03 -0.42810761706E+03  0.11719035322E+04  0.14736464989E+04  0.65864270000E+03 0.  1.
    8880022    1    1    2    0    0  0.42566392476E+03  0.42810761706E+03  0.21486826387E+03  0.65880644537E+03  0.15294330000E+03 0. -1.
<mgrwt>
<rscale>  0 0.81637831E+03</rscale>
<asrwt>0</asrwt>
<pdfrwt beam="1">  1        2 0.27070960E+00 0.89346299E+03</pdfrwt>
<pdfrwt beam="2">  1       -2 0.57360088E-01 0.89346299E+03</pdfrwt>
<totfact> 0.26171103E+01</totfact>
</mgrwt>
</event>
<event>
 4    2  0.3171963E-007  0.8500203E+03  0.7818608E-02  0.9611568E-01
         -2   -1    0    0    0  501 -0.00000000000E+00  0.00000000000E+00  0.28014671725E+03  0.28014671726E+03  0.25500000000E-02 0.  1.
          2   -1    0    0  501    0  0.00000000000E+00 -0.00000000000E+00 -0.26987964302E+04  0.26987964302E+04  0.25500000000E-02 0. -1.
    8880023    1    1    2    0    0  0.43780422762E+03 -0.31153144181E+03 -0.22344775358E+04  0.23906953894E+04  0.65864270000E+03 0. -1.
    8880022    1    1    2    0    0 -0.43780422762E+03  0.31153144181E+03 -0.18417217717E+03  0.58824775802E+03  0.15294330000E+03 0.  0.
<mgrwt>
<rscale>  0 0.76535249E+03</rscale>
<asrwt>0</asrwt>
<pdfrwt beam="1">  1        2 0.41519943E+00 0.85002035E+03</pdfrwt>
<pdfrwt beam="2">  1       -2 0.43099497E-01 0.85002035E+03</pdfrwt>
<totfact> 0.14072640E+01</totfact>
</mgrwt>
</event>
<event>
 4    2  0.3171963E-007  0.7145569E+03  0.7818608E-02  0.9941453E-01
          2   -1    0    0  501    0  0.00000000000E+00  0.00000000000E+00  0.16412024469E+04  0.16412024469E+04  0.25500000000E-02 0. -1.
         -2   -1    0    0    0  501 -0.00000000000E+00 -0.00000000000E+00 -0.76406947172E+03  0.76406947172E+03  0.25500000000E-02 0.  1.
    8880023    1    1    2    0    0 -0.20172883254E+03  0.18996539516E+03  0.15250668954E+04  0.16841676326E+04  0.65864270000E+03 0.  0.
    8880022    1    1    2    0    0  0.20172883254E+03 -0.18996539516E+03 -0.64793392021E+03  0.72110428595E+03  0.15294330000E+03 0.  0.
<mgrwt>
<rscale>  0 0.58293679E+03</rscale>
<asrwt>0</asrwt>
<pdfrwt beam="1">  1        2 0.25249268E+00 0.71455691E+03</pdfrwt>
<pdfrwt beam="2">  1       -2 0.11754915E+00 0.71455691E+03</pdfrwt>
<totfact> 0.61080173E+00</totfact>
</mgrwt>
</event>
<event>
 4    2  0.3171963E-007  0.9083177E+03  0.7818608E-02  0.9512809E-01
          2   -1    0    0  501    0  0.00000000000E+00  0.00000000000E+00  0.10682340441E+04  0.10682340441E+04  0.25500000000E-02 0. -1.
         -2   -1    0    0    0  501 -0.00000000000E+00 -0.00000000000E+00 -0.84512890517E+03  0.84512890518E+03  0.25500000000E-02 0.  1.
    8880023    1    1    2    0    0  0.29142029272E+03 -0.55344830822E+03 -0.42229098708E+03  0.10016839326E+04  0.65864270000E+03 0.  0.
    8880022    1    1    2    0    0 -0.29142029272E+03  0.55344830822E+03  0.64539612601E+03  0.91167901664E+03  0.15294330000E+03 0.  0.
<mgrwt>
<rscale>  0 0.83346033E+03</rscale>
<asrwt>0</asrwt>
<pdfrwt beam="1">  1        2 0.16434370E+00 0.90831769E+03</pdfrwt>
<pdfrwt beam="2">  1       -2 0.13001983E+00 0.90831769E+03</pdfrwt>
<totfact> 0.99045834E+00</totfact>
</mgrwt>
</event>
<event>
 4    2  0.3171963E-007  0.6606953E+03  0.7818608E-02  0.1023455E+00
          2   -1    0    0  501    0  0.00000000000E+00  0.00000000000E+00  0.67510749876E+03  0.67510749877E+03  0.25500000000E-02 0. -1.
         -2   -1    0    0    0  501 -0.00000000000E+00 -0.00000000000E+00 -0.25973776561E+03  0.25973776562E+03  0.25500000000E-02 0.  1.
    8880023    1    1    2    0    0 -0.42340990016E+02 -0.30254352452E+02  0.40050754295E+03  0.77260894604E+03  0.65864270000E+03 0. -1.
    8880022    1    1    2    0    0  0.42340990016E+02  0.30254352452E+02  0.14862190198E+02  0.16223631835E+03  0.15294330000E+03 0. -1.
<mgrwt>
<rscale>  0 0.46460132E+03</rscale>
<asrwt>0</asrwt>
<pdfrwt beam="1">  1        2 0.10386269E+00 0.66069531E+03</pdfrwt>
<pdfrwt beam="2">  1       -2 0.39959656E-01 0.66069531E+03</pdfrwt>
<totfact> 0.25726086E+02</totfact>
</mgrwt>
</event>
<event>
 4    2  0.3171963E-007  0.6604299E+03  0.7818608E-02  0.1023720E+00
         -2   -1    0    0    0  501 -0.00000000000E+00  0.00000000000E+00  0.21963301077E+03  0.21963301079E+03  0.25500000000E-02 0.  1.
          2   -1    0    0  501    0  0.00000000000E+00 -0.00000000000E+00 -0.13442764766E+04  0.13442764766E+04  0.25500000000E-02 0. -1.
    8880023    1    1    2    0    0  0.48516112911E+02 -0.18958486089E+01 -0.30278140731E+03  0.72652886683E+03  0.65864270000E+03 0.  1.
    8880022    1    1    2    0    0 -0.48516112911E+02  0.18958486089E+01 -0.82186205849E+03  0.83738062054E+03  0.15294330000E+03 0.  0.
<mgrwt>
<rscale>  0 0.46367663E+03</rscale>
<asrwt>0</asrwt>
<pdfrwt beam="1">  1        2 0.20681176E+00 0.66042987E+03</pdfrwt>
<pdfrwt beam="2">  1       -2 0.33789695E-01 0.66042987E+03</pdfrwt>
<totfact> 0.13055928E+02</totfact>
</mgrwt>
</event>
<event>
 4    2  0.3171963E-007  0.6790880E+03  0.7818608E-02  0.1009844E+00
          2   -1    0    0  501    0  0.00000000000E+00  0.00000000000E+00  0.42890948132E+03  0.42890948133E+03  0.25500000000E-02 0. -1.
         -2   -1    0    0    0  501 -0.00000000000E+00 -0.00000000000E+00 -0.49514817932E+03  0.49514817933E+03  0.25500000000E-02 0.  1.
    8880023    1    1    2    0    0 -0.50486423938E+02  0.15748455738E+03  0.28501386600E+02  0.67968580985E+03  0.65864270000E+03 0. -1.
    8880022    1    1    2    0    0  0.50486423938E+02 -0.15748455738E+03 -0.94740084602E+02  0.24437185080E+03  0.15294330000E+03 0.  0.
<mgrwt>
<rscale>  0 0.51536555E+03</rscale>
<asrwt>0</asrwt>
<pdfrwt beam="1">  1        2 0.65986074E-01 0.67908797E+03</pdfrwt>
<pdfrwt beam="2">  1       -2 0.76176643E-01 0.67908797E+03</pdfrwt>
<totfact> 0.11491815E+02</totfact>
</mgrwt>
</event>
<event>
 4    2  0.3171963E-007  0.1060188E+04  0.7818608E-02  0.9306733E-01
          2   -1    0    0  501    0  0.00000000000E+00  0.00000000000E+00  0.71786439335E+03  0.71786439336E+03  0.25500000000E-02 0. -1.
         -2   -1    0    0    0  501 -0.00000000000E+00 -0.00000000000E+00 -0.23457102666E+04  0.23457102666E+04  0.25500000000E-02 0.  1.
    8880023    1    1    2    0    0  0.67511208610E+03  0.48416188657E+03  0.17322225836E+03  0.10742463490E+04  0.65864270000E+03 0. -1.
    8880022    1    1    2    0    0 -0.67511208610E+03 -0.48416188657E+03 -0.18010681316E+04  0.19893283110E+04  0.15294330000E+03 0.  0.
<mgrwt>
<rscale>  0 0.10016538E+04</rscale>
<asrwt>0</asrwt>
<pdfrwt beam="1">  1        2 0.11044068E+00 0.10601883E+04</pdfrwt>
<pdfrwt beam="2">  1       -2 0.36087850E+00 0.10601883E+04</pdfrwt>
<totfact> 0.52956856E-01</totfact>
</mgrwt>
</event>
<event>
 4    2  0.3171963E-007  0.6731397E+03  0.7818608E-02  0.1013505E+00
          2   -1    0    0  501    0  0.00000000000E+00  0.00000000000E+00  0.55084376580E+03  0.55084376580E+03  0.25500000000E-02 0. -1.
         -2   -1    0    0    0  501 -0.00000000000E+00 -0.00000000000E+00 -0.10489223596E+04  0.10489223596E+04  0.25500000000E-02 0.  1.
    8880023    1    1    2    0    0  0.13852618858E+03  0.10832422380E+02  0.32759926261E+03  0.74862429123E+03  0.65864270000E+03 0. -1.
    8880022    1    1    2    0    0 -0.13852618858E+03 -0.10832422380E+02 -0.82567785637E+03  0.85114183414E+03  0.15294330000E+03 0.  0.
<mgrwt>
<rscale>  0 0.50104932E+03</rscale>
<asrwt>0</asrwt>
<pdfrwt beam="1">  1        2 0.84745195E-01 0.67313970E+03</pdfrwt>
<pdfrwt beam="2">  1       -2 0.16137267E+00 0.67313970E+03</pdfrwt>
<totfact> 0.13834607E+01</totfact>
</mgrwt>
</event>
<event>
 4    2  0.3171963E-007  0.6946314E+03  0.7818608E-02  0.1002025E+00
         -2   -1    0    0    0  501 -0.00000000000E+00  0.00000000000E+00  0.27434576265E+03  0.27434576267E+03  0.25500000000E-02 0.  1.
          2   -1    0    0  501    0  0.00000000000E+00 -0.00000000000E+00 -0.14750926170E+04  0.14750926170E+04  0.25500000000E-02 0. -1.
    8880023    1    1    2    0    0  0.18219826404E+03  0.12452478903E+03 -0.12911325336E+04  0.14661296178E+04  0.65864270000E+03 0.  0.
    8880022    1    1    2    0    0 -0.18219826404E+03 -0.12452478903E+03  0.90385679314E+02  0.28330876185E+03  0.15294330000E+03 0.  0.
<mgrwt>
<rscale>  0 0.54771348E+03</rscale>
<asrwt>0</asrwt>
<pdfrwt beam="1">  1        2 0.22693732E+00 0.69463144E+03</pdfrwt>
<pdfrwt beam="2">  1       -2 0.42207041E-01 0.69463144E+03</pdfrwt>
<totfact> 0.71543331E+01</totfact>
</mgrwt>
</event>
<event>
 4    2  0.3171963E-007  0.6707681E+03  0.7818608E-02  0.1015118E+00
          2   -1    0    0  501    0  0.00000000000E+00  0.00000000000E+00  0.13360433975E+04  0.13360433975E+04  0.25500000000E-02 0. -1.
         -2   -1    0    0    0  501 -0.00000000000E+00 -0.00000000000E+00 -0.22759577178E+03  0.22759577179E+03  0.25500000000E-02 0.  1.
    8880023    1    1    2    0    0  0.77517774124E+02  0.10055185319E+03  0.11758747802E+04  0.13537397776E+04  0.65864270000E+03 0. -1.
    8880022    1    1    2    0    0 -0.77517774124E+02 -0.10055185319E+03 -0.67427154426E+02  0.20989939174E+03  0.15294330000E+03 0.  0.
<mgrwt>
<rscale>  0 0.49490236E+03</rscale>
<asrwt>0</asrwt>
<pdfrwt beam="1">  1        2 0.20554514E+00 0.67076813E+03</pdfrwt>
<pdfrwt beam="2">  1       -2 0.35014734E-01 0.67076813E+03</pdfrwt>
<totfact> 0.12324760E+02</totfact>
</mgrwt>
</event>
<event>
 4    2  0.3171963E-007  0.7010129E+03  0.7818608E-02  0.9993025E-01
         -2   -1    0    0    0  501 -0.00000000000E+00  0.00000000000E+00  0.20129957856E+03  0.20129957858E+03  0.25500000000E-02 0.  1.
          2   -1    0    0  501    0  0.00000000000E+00 -0.00000000000E+00 -0.22452915906E+04  0.22452915906E+04  0.25500000000E-02 0. -1.
    8880023    1    1    2    0    0  0.11224896039E+03  0.21215325789E+03 -0.20451774562E+04  0.21619828555E+04  0.65864270000E+03 0. -1.
    8880022    1    1    2    0    0 -0.11224896039E+03 -0.21215325789E+03  0.11854441073E+01  0.28460831371E+03  0.15294330000E+03 0.  0.
<mgrwt>
<rscale>  0 0.55957132E+03</rscale>
<asrwt>0</asrwt>
<pdfrwt beam="1">  1        2 0.34542946E+00 0.70101287E+03</pdfrwt>
<pdfrwt beam="2">  1       -2 0.30969167E-01 0.70101287E+03</pdfrwt>
<totfact> 0.48988384E+01</totfact>
</mgrwt>
</event>
<event>
 4    2  0.3171963E-007  0.6962682E+03  0.7818608E-02  0.1001305E+00
          2   -1    0    0  501    0  0.00000000000E+00  0.00000000000E+00  0.73881015388E+03  0.73881015388E+03  0.25500000000E-02 0. -1.
         -2   -1    0    0    0  501 -0.00000000000E+00 -0.00000000000E+00 -0.86175181865E+03  0.86175181865E+03  0.25500000000E-02 0.  1.
    8880023    1    1    2    0    0  0.22225070609E+03 -0.39797424025E+02  0.54168373848E+03  0.88216250777E+03  0.65864270000E+03 0. -1.
    8880022    1    1    2    0    0 -0.22225070609E+03  0.39797424025E+02 -0.66462540325E+03  0.71839946477E+03  0.15294330000E+03 0.  0.
<mgrwt>
<rscale>  0 0.55081756E+03</rscale>
<asrwt>0</asrwt>
<pdfrwt beam="1">  1        2 0.11366310E+00 0.69626821E+03</pdfrwt>
<pdfrwt beam="2">  1       -2 0.13257720E+00 0.69626821E+03</pdfrwt>
<totfact> 0.16118841E+01</totfact>
</mgrwt>
</event>
<event>
 4    2  0.3171963E-007  0.7241414E+03  0.7818608E-02  0.9908814E-01
          2   -1    0    0  501    0  0.00000000000E+00  0.00000000000E+00  0.15107119082E+04  0.15107119082E+04  0.25500000000E-02 0. -1.
         -2   -1    0    0    0  501 -0.00000000000E+00 -0.00000000000E+00 -0.30168489686E+03  0.30168489687E+03  0.25500000000E-02 0.  1.
    8880023    1    1    2    0    0 -0.29543363613E+03  0.57354812740E+02  0.12770087613E+04  0.14680368492E+04  0.65864270000E+03 0. -1.
    8880022    1    1    2    0    0  0.29543363613E+03 -0.57354812740E+02 -0.67981749915E+02  0.34435995591E+03  0.15294330000E+03 0.  0.
<mgrwt>
<rscale>  0 0.59836017E+03</rscale>
<asrwt>0</asrwt>
<pdfrwt beam="1">  1        2 0.23241721E+00 0.72414143E+03</pdfrwt>
<pdfrwt beam="2">  1       -2 0.46413062E-01 0.72414143E+03</pdfrwt>
<totfact> 0.56423542E+01</totfact>
</mgrwt>
</event>
<event>
 4    2  0.3171963E-007  0.7398742E+03  0.7818608E-02  0.9860314E-01
          2   -1    0    0  501    0  0.00000000000E+00  0.00000000000E+00  0.58406809725E+03  0.58406809726E+03  0.25500000000E-02 0. -1.
         -2   -1    0    0    0  501 -0.00000000000E+00 -0.00000000000E+00 -0.99780208404E+03  0.99780208405E+03  0.25500000000E-02 0.  1.
    8880023    1    1    2    0    0  0.33702058857E+03 -0.45499620402E+01  0.28362452172E+03  0.79237406246E+03  0.65864270000E+03 0. -1.
    8880022    1    1    2    0    0 -0.33702058857E+03  0.45499620402E+01 -0.69735850851E+03  0.78949611885E+03  0.15294330000E+03 0.  0.
<mgrwt>
<rscale>  0 0.62223807E+03</rscale>
<asrwt>0</asrwt>
<pdfrwt beam="1">  1        2 0.89856631E-01 0.73987417E+03</pdfrwt>
<pdfrwt beam="2">  1       -2 0.15350801E+00 0.73987417E+03</pdfrwt>
<totfact> 0.14658996E+01</totfact>
</mgrwt>
</event>
<event>
 4    2  0.3171963E-007  0.6897498E+03  0.7818608E-02  0.1004272E+00
         -2   -1    0    0    0  501 -0.00000000000E+00  0.00000000000E+00  0.14793878862E+03  0.14793878865E+03  0.25500000000E-02 0.  1.
          2   -1    0    0  501    0  0.00000000000E+00 -0.00000000000E+00 -0.15738785909E+04  0.15738785909E+04  0.25500000000E-02 0. -1.
    8880023    1    1    2    0    0  0.80222434125E+02  0.18843818646E+03 -0.11817380143E+04  0.13683053496E+04  0.65864270000E+03 0. -1.
    8880022    1    1    2    0    0 -0.80222434125E+02 -0.18843818646E+03 -0.24420178798E+03  0.35351202995E+03  0.15294330000E+03 0.  1.
<mgrwt>
<rscale>  0 0.53816191E+03</rscale>
<asrwt>0</asrwt>
<pdfrwt beam="1">  1        2 0.24213516E+00 0.68974981E+03</pdfrwt>
<pdfrwt beam="2">  1       -2 0.22759815E-01 0.68974981E+03</pdfrwt>
<totfact> 0.19983792E+02</totfact>
</mgrwt>
</event>
<event>
 4    2  0.3171963E-007  0.7271859E+03  0.7818608E-02  0.9898981E-01
          2   -1    0    0  501    0  0.00000000000E+00  0.00000000000E+00  0.22621972368E+04  0.22621972368E+04  0.25500000000E-02 0. -1.
         -2   -1    0    0    0  501 -0.00000000000E+00 -0.00000000000E+00 -0.43047514451E+03  0.43047514452E+03  0.25500000000E-02 0.  1.
    8880023    1    1    2    0    0  0.12694911686E+03  0.28084343888E+03  0.21216059261E+04  0.22427686076E+04  0.65864270000E+03 0. -1.
    8880022    1    1    2    0    0 -0.12694911686E+03 -0.28084343888E+03 -0.28988383383E+03  0.44990377367E+03  0.15294330000E+03 0.  0.
<mgrwt>
<rscale>  0 0.60310680E+03</rscale>
<asrwt>0</asrwt>
<pdfrwt beam="1">  1        2 0.34803034E+00 0.72718589E+03</pdfrwt>
<pdfrwt beam="2">  1       -2 0.66226946E-01 0.72718589E+03</pdfrwt>
<totfact> 0.10444230E+01</totfact>
</mgrwt>
</event>
<event>
 4    2  0.3171963E-007  0.7277797E+03  0.7818608E-02  0.9897091E-01
          2   -1    0    0  501    0  0.00000000000E+00  0.00000000000E+00  0.16383521974E+04  0.16383521974E+04  0.25500000000E-02 0. -1.
         -2   -1    0    0    0  501 -0.00000000000E+00 -0.00000000000E+00 -0.66835515018E+03  0.66835515018E+03  0.25500000000E-02 0.  1.
    8880023    1    1    2    0    0  0.20208404845E+03  0.23455304493E+03  0.15039700199E+04  0.16708049319E+04  0.65864270000E+03 0. -1.
    8880022    1    1    2    0    0 -0.20208404845E+03 -0.23455304493E+03 -0.53397297274E+03  0.63590241560E+03  0.15294330000E+03 0.  0.
<mgrwt>
<rscale>  0 0.60402493E+03</rscale>
<asrwt>0</asrwt>
<pdfrwt beam="1">  1        2 0.25205418E+00 0.72777971E+03</pdfrwt>
<pdfrwt beam="2">  1       -2 0.10282387E+00 0.72777971E+03</pdfrwt>
<totfact> 0.84572715E+00</totfact>
</mgrwt>
</event>
<event>
 4    2  0.3171963E-007  0.7014155E+03  0.7818608E-02  0.9991379E-01
          2   -1    0    0  501    0  0.00000000000E+00  0.00000000000E+00  0.59579941173E+03  0.59579941173E+03  0.25500000000E-02 0. -1.
         -2   -1    0    0    0  501 -0.00000000000E+00 -0.00000000000E+00 -0.46329619580E+03  0.46329619580E+03  0.25500000000E-02 0.  1.
    8880023    1    1    2    0    0 -0.12365893690E+03  0.20707958513E+03  0.25770850521E+03  0.74725990604E+03  0.65864270000E+03 0.  0.
    8880022    1    1    2    0    0  0.12365893690E+03 -0.20707958513E+03 -0.12520528927E+03  0.31183570150E+03  0.15294330000E+03 0.  0.
<mgrwt>
<rscale>  0 0.56029867E+03</rscale>
<asrwt>0</asrwt>
<pdfrwt beam="1">  1        2 0.91661448E-01 0.70141549E+03</pdfrwt>
<pdfrwt beam="2">  1       -2 0.71276338E-01 0.70141549E+03</pdfrwt>
<totfact> 0.90679152E+01</totfact>
</mgrwt>
</event>
<event>
 4    2  0.3171963E-007  0.6709522E+03  0.7818608E-02  0.1014989E+00
          2   -1    0    0  501    0  0.00000000000E+00  0.00000000000E+00  0.11096610654E+04  0.11096610654E+04  0.25500000000E-02 0. -1.
         -2   -1    0    0    0  501 -0.00000000000E+00 -0.00000000000E+00 -0.33228316739E+03  0.33228316740E+03  0.25500000000E-02 0.  1.
    8880023    1    1    2    0    0  0.91448580111E+02  0.89464268460E+02  0.96021957458E+03  0.11714087825E+04  0.65864270000E+03 0.  0.
    8880022    1    1    2    0    0 -0.91448580111E+02 -0.89464268460E+02 -0.18284167658E+03  0.27053545026E+03  0.15294330000E+03 0.  0.
<mgrwt>
<rscale>  0 0.49539002E+03</rscale>
<asrwt>0</asrwt>
<pdfrwt beam="1">  1        2 0.17071709E+00 0.67095224E+03</pdfrwt>
<pdfrwt beam="2">  1       -2 0.51120487E-01 0.67095224E+03</pdfrwt>
<totfact> 0.79446469E+01</totfact>
</mgrwt>
</event>
<event>
 4    2  0.3171963E-007  0.7251695E+03  0.7818608E-02  0.9905467E-01
         -2   -1    0    0    0  501 -0.00000000000E+00  0.00000000000E+00  0.32338716215E+03  0.32338716216E+03  0.25500000000E-02 0.  1.
          2   -1    0    0  501    0  0.00000000000E+00 -0.00000000000E+00 -0.12042671169E+04  0.12042671169E+04  0.25500000000E-02 0. -1.
    8880023    1    1    2    0    0 -0.18756811762E+03  0.23849266552E+03 -0.93535039935E+03  0.11835333228E+04  0.65864270000E+03 0.  0.
    8880022    1    1    2    0    0  0.18756811762E+03 -0.23849266552E+03  0.54470444565E+02  0.34412095635E+03  0.15294330000E+03 0.  0.
<mgrwt>
<rscale>  0 0.59997052E+03</rscale>
<asrwt>0</asrwt>
<pdfrwt beam="1">  1        2 0.18527186E+00 0.72516947E+03</pdfrwt>
<pdfrwt beam="2">  1       -2 0.49751872E-01 0.72516947E+03</pdfrwt>
<totfact> 0.73335235E+01</totfact>
</mgrwt>
</event>
<event>
 4    2  0.3171963E-007  0.6735721E+03  0.7818608E-02  0.1013222E+00
          2   -1    0    0  501    0  0.00000000000E+00  0.00000000000E+00  0.12137450081E+04  0.12137450081E+04  0.25500000000E-02 0. -1.
         -2   -1    0    0    0  501 -0.00000000000E+00 -0.00000000000E+00 -0.49134276097E+03  0.49134276098E+03  0.25500000000E-02 0.  1.
    8880023    1    1    2    0    0  0.11140025145E+03 -0.86481929358E+02  0.10907992909E+04  0.12820071916E+04  0.65864270000E+03 0. -1.
    8880022    1    1    2    0    0 -0.11140025145E+03  0.86481929358E+02 -0.36839704377E+03  0.42308057744E+03  0.15294330000E+03 0.  0.
<mgrwt>
<rscale>  0 0.50214016E+03</rscale>
<asrwt>0</asrwt>
<pdfrwt beam="1">  1        2 0.18673000E+00 0.67357208E+03</pdfrwt>
<pdfrwt beam="2">  1       -2 0.75591195E-01 0.67357208E+03</pdfrwt>
<totfact> 0.29968038E+01</totfact>
</mgrwt>
</event>
<event>
 4    2  0.3171963E-007  0.8546648E+03  0.7818608E-02  0.9603125E-01
          2   -1    0    0  501    0  0.00000000000E+00  0.00000000000E+00  0.41549632961E+04  0.41549632961E+04  0.25500000000E-02 0. -1.
         -2   -1    0    0    0  501 -0.00000000000E+00 -0.00000000000E+00 -0.21737638892E+03  0.21737638893E+03  0.25500000000E-02 0.  1.
    8880023    1    1    2    0    0 -0.54458419742E+03 -0.83566721316E+01  0.36282929500E+04  0.37275946292E+04  0.65864270000E+03 0.  0.
    8880022    1    1    2    0    0  0.54458419742E+03  0.83566721316E+01  0.30929395710E+03  0.64474505579E+03  0.15294330000E+03 0.  0.
<mgrwt>
<rscale>  0 0.77089690E+03</rscale>
<asrwt>0</asrwt>
<pdfrwt beam="1">  1        2 0.63922512E+00 0.85466484E+03</pdfrwt>
<pdfrwt beam="2">  1       -2 0.33442521E-01 0.85466484E+03</pdfrwt>
<totfact> 0.23159438E+00</totfact>
</mgrwt>
</event>
<event>
 4    2  0.3171963E-007  0.1001435E+04  0.7818608E-02  0.9379682E-01
         -2   -1    0    0    0  501 -0.00000000000E+00  0.00000000000E+00  0.14041403940E+04  0.14041403941E+04  0.25500000000E-02 0.  1.
          2   -1    0    0  501    0  0.00000000000E+00 -0.00000000000E+00 -0.85504256079E+03  0.85504256079E+03  0.25500000000E-02 0. -1.
    8880023    1    1    2    0    0  0.58787590467E+03 -0.47271997482E+03 -0.36346598731E+03  0.10653543937E+04  0.65864270000E+03 0.  0.
    8880022    1    1    2    0    0 -0.58787590467E+03  0.47271997482E+03  0.91256382057E+03  0.11938285612E+04  0.15294330000E+03 0.  0.
<mgrwt>
<rscale>  0 0.93766771E+03</rscale>
<asrwt>0</asrwt>
<pdfrwt beam="1">  1        2 0.13154501E+00 0.10014352E+04</pdfrwt>
<pdfrwt beam="2">  1       -2 0.21602160E+00 0.10014352E+04</pdfrwt>
<totfact> 0.32770577E+00</totfact>
</mgrwt>
</event>
<event>
 4    2  0.3171963E-007  0.1182559E+04  0.7818608E-02  0.9174266E-01
         -2   -1    0    0    0  501 -0.00000000000E+00  0.00000000000E+00  0.18401183988E+04  0.18401183988E+04  0.25500000000E-02 0.  1.
          2   -1    0    0  501    0  0.00000000000E+00 -0.00000000000E+00 -0.92138429521E+03  0.92138429521E+03  0.25500000000E-02 0. -1.
    8880023    1    1    2    0    0 -0.96785777678E+03  0.16699094870E+03 -0.26894808266E+03  0.12127563360E+04  0.65864270000E+03 0.  0.
    8880022    1    1    2    0    0  0.96785777678E+03 -0.16699094870E+03  0.11876821863E+04  0.15487463581E+04  0.15294330000E+03 0.  0.
<mgrwt>
<rscale>  0 0.11323041E+04</rscale>
<asrwt>0</asrwt>
<pdfrwt beam="1">  1        2 0.14175143E+00 0.11825586E+04</pdfrwt>
<pdfrwt beam="2">  1       -2 0.28309514E+00 0.11825586E+04</pdfrwt>
<totfact> 0.11201750E+00</totfact>
</mgrwt>
</event>
<event>
 4    2  0.3171963E-007  0.7460460E+03  0.7818608E-02  0.9842673E-01
          2   -1    0    0  501    0  0.00000000000E+00  0.00000000000E+00  0.14502717666E+04  0.14502717666E+04  0.25500000000E-02 0. -1.
         -2   -1    0    0    0  501 -0.00000000000E+00 -0.00000000000E+00 -0.21952278582E+03  0.21952278584E+03  0.25500000000E-02 0.  1.
    8880023    1    1    2    0    0  0.15774034594E+03 -0.31287770433E+03  0.82516779209E+03  0.11124237349E+04  0.65864270000E+03 0.  1.
    8880022    1    1    2    0    0 -0.15774034594E+03  0.31287770433E+03  0.40558118866E+03  0.55737081751E+03  0.15294330000E+03 0. -1.
<mgrwt>
<rscale>  0 0.63121900E+03</rscale>
<asrwt>0</asrwt>
<pdfrwt beam="1">  1        2 0.22311873E+00 0.74604603E+03</pdfrwt>
<pdfrwt beam="2">  1       -2 0.33772737E-01 0.74604603E+03</pdfrwt>
<totfact> 0.11300469E+02</totfact>
</mgrwt>
</event>
<event>
 4    2  0.3171963E-007  0.9182467E+03  0.7818608E-02  0.9497353E-01
          2   -1    0    0  501    0  0.00000000000E+00  0.00000000000E+00  0.14377742924E+04  0.14377742924E+04  0.25500000000E-02 0. -1.
         -2   -1    0    0    0  501 -0.00000000000E+00 -0.00000000000E+00 -0.44076261561E+03  0.44076261562E+03  0.25500000000E-02 0.  1.
    8880023    1    1    2    0    0 -0.16042632703E+03  0.61937880024E+03  0.44803201656E+03  0.10217189431E+04  0.65864270000E+03 0.  1.
    8880022    1    1    2    0    0  0.16042632703E+03 -0.61937880024E+03  0.54897966018E+03  0.85681796486E+03  0.15294330000E+03 0. -1.
<mgrwt>
<rscale>  0 0.84479279E+03</rscale>
<asrwt>0</asrwt>
<pdfrwt beam="1">  1        2 0.22119604E+00 0.91824665E+03</pdfrwt>
<pdfrwt beam="2">  1       -2 0.67809635E-01 0.91824665E+03</pdfrwt>
<totfact> 0.27566881E+01</totfact>
</mgrwt>
</event>
<event>
 4    2  0.3171963E-007  0.1254623E+04  0.7818608E-02  0.9105771E-01
          2   -1    0    0  501    0  0.00000000000E+00  0.00000000000E+00  0.33923334627E+04  0.33923334627E+04  0.25500000000E-02 0. -1.
         -2   -1    0    0    0  501 -0.00000000000E+00 -0.00000000000E+00 -0.71121506332E+03  0.71121506333E+03  0.25500000000E-02 0.  1.
    8880023    1    1    2    0    0  0.10182754474E+04  0.32153285471E+03  0.45197080880E+02  0.12554366754E+04  0.65864270000E+03 0.  0.
    8880022    1    1    2    0    0 -0.10182754474E+04 -0.32153285471E+03  0.26359213185E+04  0.28481118506E+04  0.15294330000E+03 0.  0.
<mgrwt>
<rscale>  0 0.12081286E+04</rscale>
<asrwt>0</asrwt>
<pdfrwt beam="1">  1        2 0.52189747E+00 0.12546228E+04</pdfrwt>
<pdfrwt beam="2">  1       -2 0.10941770E+00 0.12546228E+04</pdfrwt>
<totfact> 0.63511745E-01</totfact>
</mgrwt>
</event>
<event>
 4    2  0.3171963E-007  0.9034289E+03  0.7818608E-02  0.9520549E-01
          2   -1    0    0  501    0  0.00000000000E+00  0.00000000000E+00  0.96000631892E+03  0.96000631892E+03  0.25500000000E-02 0. -1.
         -2   -1    0    0    0  501 -0.00000000000E+00 -0.00000000000E+00 -0.68853550268E+03  0.68853550268E+03  0.25500000000E-02 0.  1.
    8880023    1    1    2    0    0 -0.52425911447E+03 -0.32791147301E+03  0.41716875580E+03  0.99509473434E+03  0.65864270000E+03 0. -1.
    8880022    1    1    2    0    0  0.52425911447E+03  0.32791147301E+03 -0.14569793956E+03  0.65344708726E+03  0.15294330000E+03 0.  0.
<mgrwt>
<rscale>  0 0.82785606E+03</rscale>
<asrwt>0</asrwt>
<pdfrwt beam="1">  1        2 0.14769328E+00 0.90342889E+03</pdfrwt>
<pdfrwt beam="2">  1       -2 0.10592854E+00 0.90342889E+03</pdfrwt>
<totfact> 0.19274902E+01</totfact>
</mgrwt>
</event>
<event>
 4    2  0.3171963E-007  0.9960189E+03  0.7818608E-02  0.9386785E-01
          2   -1    0    0  501    0  0.00000000000E+00  0.00000000000E+00  0.28310593850E+04  0.28310593850E+04  0.25500000000E-02 0. -1.
         -2   -1    0    0    0  501 -0.00000000000E+00 -0.00000000000E+00 -0.66945209555E+03  0.66945209555E+03  0.25500000000E-02 0.  1.
    8880023    1    1    2    0    0  0.73311830081E+03  0.14415607334E+03  0.24811652648E+04  0.26736182776E+04  0.65864270000E+03 0. -1.
    8880022    1    1    2    0    0 -0.73311830081E+03 -0.14415607334E+03 -0.31955797540E+03  0.82689320297E+03  0.15294330000E+03 0.  0.
<mgrwt>
<rscale>  0 0.93171267E+03</rscale>
<asrwt>0</asrwt>
<pdfrwt beam="1">  1        2 0.43554759E+00 0.99601889E+03</pdfrwt>
<pdfrwt beam="2">  1       -2 0.10299263E+00 0.99601889E+03</pdfrwt>
<totfact> 0.17318557E+00</totfact>
</mgrwt>
</event>
<event>
 4    2  0.3171963E-007  0.6827455E+03  0.7818608E-02  0.1007811E+00
          2   -1    0    0  501    0  0.00000000000E+00  0.00000000000E+00  0.10226886991E+04  0.10226886991E+04  0.25500000000E-02 0. -1.
         -2   -1    0    0    0  501 -0.00000000000E+00 -0.00000000000E+00 -0.30463258344E+03  0.30463258345E+03  0.25500000000E-02 0.  1.
    8880023    1    1    2    0    0 -0.17973749987E+03 -0.50592092129E+01  0.82270762108E+03  0.10691067302E+04  0.65864270000E+03 0. -1.
    8880022    1    1    2    0    0  0.17973749987E+03  0.50592092129E+01 -0.10465150542E+03  0.25821455238E+03  0.15294330000E+03 0.  0.
<mgrwt>
<rscale>  0 0.52353805E+03</rscale>
<asrwt>0</asrwt>
<pdfrwt beam="1">  1        2 0.15733672E+00 0.68274547E+03</pdfrwt>
<pdfrwt beam="2">  1       -2 0.46866552E-01 0.68274547E+03</pdfrwt>
<totfact> 0.10709041E+02</totfact>
</mgrwt>
</event>
<event>
 4    2  0.3171963E-007  0.7634796E+03  0.7818608E-02  0.9796181E-01
          2   -1    0    0  501    0  0.00000000000E+00  0.00000000000E+00  0.91270511549E+03  0.91270511550E+03  0.25500000000E-02 0. -1.
         -2   -1    0    0    0  501 -0.00000000000E+00 -0.00000000000E+00 -0.69738637515E+03  0.69738637516E+03  0.25500000000E-02 0.  1.
    8880023    1    1    2    0    0  0.37337469401E+03  0.98398279516E+02  0.65451394100E+03  0.10056289518E+04  0.65864270000E+03 0. -1.
    8880022    1    1    2    0    0 -0.37337469401E+03 -0.98398279516E+02 -0.43919520066E+03  0.60446253882E+03  0.15294330000E+03 0.  0.
<mgrwt>
<rscale>  0 0.65567891E+03</rscale>
<asrwt>0</asrwt>
<pdfrwt beam="1">  1        2 0.14041617E+00 0.76347959E+03</pdfrwt>
<pdfrwt beam="2">  1       -2 0.10729021E+00 0.76347959E+03</pdfrwt>
<totfact> 0.20347524E+01</totfact>
</mgrwt>
</event>
<event>
 4    2  0.3171963E-007  0.7914225E+03  0.7818608E-02  0.9729659E-01
         -2   -1    0    0    0  501 -0.00000000000E+00  0.00000000000E+00  0.10622809445E+04  0.10622809445E+04  0.25500000000E-02 0.  1.
          2   -1    0    0  501    0  0.00000000000E+00 -0.00000000000E+00 -0.10497161159E+04  0.10497161159E+04  0.25500000000E-02 0. -1.
    8880023    1    1    2    0    0  0.16518122262E+03 -0.40651517543E+03 -0.83184033752E+03  0.11481759349E+04  0.65864270000E+03 0. -1.
    8880022    1    1    2    0    0 -0.16518122262E+03  0.40651517543E+03  0.84440516614E+03  0.96382112541E+03  0.15294330000E+03 0.  0.
<mgrwt>
<rscale>  0 0.69278058E+03</rscale>
<asrwt>0</asrwt>
<pdfrwt beam="1">  1        2 0.16149479E+00 0.79142254E+03</pdfrwt>
<pdfrwt beam="2">  1       -2 0.16342784E+00 0.79142254E+03</pdfrwt>
<totfact> 0.56482897E+00</totfact>
</mgrwt>
</event>
<event>
 4    2  0.3171963E-007  0.6726898E+03  0.7818608E-02  0.1013804E+00
          2   -1    0    0  501    0  0.00000000000E+00  0.00000000000E+00  0.21664782244E+04  0.21664782244E+04  0.25500000000E-02 0. -1.
         -2   -1    0    0    0  501 -0.00000000000E+00 -0.00000000000E+00 -0.24138680026E+03  0.24138680027E+03  0.25500000000E-02 0.  1.
    8880023    1    1    2    0    0  0.12446255972E+03  0.56661211617E+02  0.20568346762E+04  0.21640426320E+04  0.65864270000E+03 0. -1.
    8880022    1    1    2    0    0 -0.12446255972E+03 -0.56661211617E+02 -0.13174325208E+03  0.24382239265E+03  0.15294330000E+03 0.  0.
<mgrwt>
<rscale>  0 0.49990501E+03</rscale>
<asrwt>0</asrwt>
<pdfrwt beam="1">  1        2 0.33330433E+00 0.67268985E+03</pdfrwt>
<pdfrwt beam="2">  1       -2 0.37136433E-01 0.67268985E+03</pdfrwt>
<totfact> 0.38545492E+01</totfact>
</mgrwt>
</event>
<event>
 4    2  0.3171963E-007  0.7577143E+03  0.7818608E-02  0.9811061E-01
         -2   -1    0    0    0  501 -0.00000000000E+00  0.00000000000E+00  0.11046835791E+04  0.11046835791E+04  0.25500000000E-02 0.  1.
          2   -1    0    0  501    0  0.00000000000E+00 -0.00000000000E+00 -0.55704227436E+03  0.55704227437E+03  0.25500000000E-02 0. -1.
    8880023    1    1    2    0    0  0.24123447240E+03 -0.28657762877E+03 -0.22426241947E+03  0.79020544610E+03  0.65864270000E+03 0. -1.
    8880022    1    1    2    0    0 -0.24123447240E+03  0.28657762877E+03  0.77190372416E+03  0.87152040732E+03  0.15294330000E+03 0.  0.
<mgrwt>
<rscale>  0 0.64772304E+03</rscale>
<asrwt>0</asrwt>
<pdfrwt beam="1">  1        2 0.85698812E-01 0.75771434E+03</pdfrwt>
<pdfrwt beam="2">  1       -2 0.16995132E+00 0.75771434E+03</pdfrwt>
<totfact> 0.11740671E+01</totfact>
</mgrwt>
</event>
<event>
 4    2  0.3171963E-007  0.7678963E+03  0.7818608E-02  0.9785078E-01
          2   -1    0    0  501    0  0.00000000000E+00  0.00000000000E+00  0.22338747315E+04  0.22338747315E+04  0.25500000000E-02 0. -1.
         -2   -1    0    0    0  501 -0.00000000000E+00 -0.00000000000E+00 -0.26570773550E+03  0.26570773551E+03  0.25500000000E-02 0.  1.
    8880023    1    1    2    0    0  0.38131745758E+03  0.10223290777E+03  0.19268137588E+04  0.20741928643E+04  0.65864270000E+03 0.  0.
    8880022    1    1    2    0    0 -0.38131745758E+03 -0.10223290777E+03  0.41353237226E+02  0.42538960276E+03  0.15294330000E+03 0.  0.
<mgrwt>
<rscale>  0 0.66169552E+03</rscale>
<asrwt>0</asrwt>
<pdfrwt beam="1">  1        2 0.34367303E+00 0.76789633E+03</pdfrwt>
<pdfrwt beam="2">  1       -2 0.40878114E-01 0.76789633E+03</pdfrwt>
<totfact> 0.28988228E+01</totfact>
</mgrwt>
</event>
<event>
 4    2  0.3171963E-007  0.8360786E+03  0.7818608E-02  0.9637619E-01
         -2   -1    0    0    0  501 -0.00000000000E+00  0.00000000000E+00  0.13237439504E+04  0.13237439504E+04  0.25500000000E-02 0.  1.
          2   -1    0    0  501    0  0.00000000000E+00 -0.00000000000E+00 -0.49953589361E+03  0.49953589362E+03  0.25500000000E-02 0. -1.
    8880023    1    1    2    0    0  0.30625879325E+03  0.41403238141E+03 -0.40059157674E+01  0.83608822197E+03  0.65864270000E+03 0.  1.
    8880022    1    1    2    0    0 -0.30625879325E+03 -0.41403238141E+03  0.82821397258E+03  0.98719162207E+03  0.15294330000E+03 0.  0.
<mgrwt>
<rscale>  0 0.74855559E+03</rscale>
<asrwt>0</asrwt>
<pdfrwt beam="1">  1        2 0.76851677E-01 0.83607863E+03</pdfrwt>
<pdfrwt beam="2">  1       -2 0.20365291E+00 0.83607863E+03</pdfrwt>
<totfact> 0.78426852E+00</totfact>
</mgrwt>
</event>
<event>
 4    2  0.3171963E-007  0.9776189E+03  0.7818608E-02  0.9411443E-01
         -2   -1    0    0    0  501 -0.00000000000E+00  0.00000000000E+00  0.48796393103E+03  0.48796393104E+03  0.25500000000E-02 0.  1.
          2   -1    0    0  501    0  0.00000000000E+00 -0.00000000000E+00 -0.27845103141E+04  0.27845103141E+04  0.25500000000E-02 0. -1.
    8880023    1    1    2    0    0  0.70692684595E+03 -0.14893932911E+03 -0.23366607197E+04  0.25329275581E+04  0.65864270000E+03 0.  0.
    8880022    1    1    2    0    0 -0.70692684595E+03  0.14893932911E+03  0.40114336652E+02  0.73954668703E+03  0.15294330000E+03 0.  0.
<mgrwt>
<rscale>  0 0.91139918E+03</rscale>
<asrwt>0</asrwt>
<pdfrwt beam="1">  1        2 0.42838619E+00 0.97761889E+03</pdfrwt>
<pdfrwt beam="2">  1       -2 0.75071376E-01 0.97761889E+03</pdfrwt>
<totfact> 0.38398068E+00</totfact>
</mgrwt>
</event>
<event>
 4    2  0.3171963E-007  0.8081449E+03  0.7818608E-02  0.9693454E-01
          2   -1    0    0  501    0  0.00000000000E+00  0.00000000000E+00  0.26822288784E+04  0.26822288784E+04  0.25500000000E-02 0. -1.
         -2   -1    0    0    0  501 -0.00000000000E+00 -0.00000000000E+00 -0.41562507994E+03  0.41562507995E+03  0.25500000000E-02 0.  1.
    8880023    1    1    2    0    0 -0.46739178936E+03  0.28860372045E+02  0.24440886525E+04  0.25742314491E+04  0.65864270000E+03 0. -1.
    8880022    1    1    2    0    0  0.46739178936E+03 -0.28860372045E+02 -0.17748485402E+03  0.52362250931E+03  0.15294330000E+03 0.  0.
<mgrwt>
<rscale>  0 0.71407875E+03</rscale>
<asrwt>0</asrwt>
<pdfrwt beam="1">  1        2 0.41265059E+00 0.80814492E+03</pdfrwt>
<pdfrwt beam="2">  1       -2 0.63942321E-01 0.80814492E+03</pdfrwt>
<totfact> 0.64272664E+00</totfact>
</mgrwt>
</event>
<event>
 4    2  0.3171963E-007  0.9688089E+03  0.7818608E-02  0.9423553E-01
          2   -1    0    0  501    0  0.00000000000E+00  0.00000000000E+00  0.10884462486E+04  0.10884462486E+04  0.25500000000E-02 0. -1.
         -2   -1    0    0    0  501 -0.00000000000E+00 -0.00000000000E+00 -0.90945835973E+03  0.90945835973E+03  0.25500000000E-02 0.  1.
    8880023    1    1    2    0    0  0.17554245710E+03  0.68845146488E+03 -0.42018233205E+03  0.10560037747E+04  0.65864270000E+03 0.  0.
    8880022    1    1    2    0    0 -0.17554245710E+03 -0.68845146488E+03  0.59917022088E+03  0.94190083361E+03  0.15294330000E+03 0.  0.
<mgrwt>
<rscale>  0 0.90162418E+03</rscale>
<asrwt>0</asrwt>
<pdfrwt beam="1">  1        2 0.16745327E+00 0.96880895E+03</pdfrwt>
<pdfrwt beam="2">  1       -2 0.13991667E+00 0.96880895E+03</pdfrwt>
<totfact> 0.79234081E+00</totfact>
</mgrwt>
</event>
<event>
 4    2  0.3171963E-007  0.7931287E+03  0.7818608E-02  0.9725855E-01
          2   -1    0    0  501    0  0.00000000000E+00  0.00000000000E+00  0.12344430039E+04  0.12344430039E+04  0.25500000000E-02 0. -1.
         -2   -1    0    0    0  501 -0.00000000000E+00 -0.00000000000E+00 -0.40348544107E+03  0.40348544108E+03  0.25500000000E-02 0.  1.
    8880023    1    1    2    0    0 -0.28242550885E+03 -0.33982161632E+03  0.85943388471E+03  0.11694783912E+04  0.65864270000E+03 0.  0.
    8880022    1    1    2    0    0  0.28242550885E+03  0.33982161632E+03 -0.28476321916E+02  0.46845005378E+03  0.15294330000E+03 0.  0.
<mgrwt>
<rscale>  0 0.69498046E+03</rscale>
<asrwt>0</asrwt>
<pdfrwt beam="1">  1        2 0.18991430E+00 0.79312868E+03</pdfrwt>
<pdfrwt beam="2">  1       -2 0.62074685E-01 0.79312868E+03</pdfrwt>
<totfact> 0.44152985E+01</totfact>
</mgrwt>
</event>
<event>
 4    2  0.3171963E-007  0.7320798E+03  0.7818608E-02  0.9883649E-01
          2   -1    0    0  501    0  0.00000000000E+00  0.00000000000E+00  0.18277682566E+03  0.18277682568E+03  0.25500000000E-02 0. -1.
         -2   -1    0    0    0  501 -0.00000000000E+00 -0.00000000000E+00 -0.19706610471E+04  0.19706610472E+04  0.25500000000E-02 0.  1.
    8880023    1    1    2    0    0  0.29961501902E+03  0.11118220358E+03 -0.71397216546E+03  0.10225933216E+04  0.65864270000E+03 0.  0.
    8880022    1    1    2    0    0 -0.29961501902E+03 -0.11118220358E+03 -0.10739120560E+04  0.11308445513E+04  0.15294330000E+03 0.  0.
<mgrwt>
<rscale>  0 0.61060300E+03</rscale>
<asrwt>0</asrwt>
<pdfrwt beam="1">  1        2 0.28119513E-01 0.73207981E+03</pdfrwt>
<pdfrwt beam="2">  1       -2 0.30317861E+00 0.73207981E+03</pdfrwt>
<totfact> 0.60630554E+00</totfact>
</mgrwt>
</event>
<event>
 4    2  0.3171963E-007  0.7424501E+03  0.7818608E-02  0.9852867E-01
         -2   -1    0    0    0  501 -0.00000000000E+00  0.00000000000E+00  0.33561330939E+03  0.33561330940E+03  0.25500000000E-02 0.  1.
          2   -1    0    0  501    0  0.00000000000E+00 -0.00000000000E+00 -0.18054953109E+04  0.18054953109E+04  0.25500000000E-02 0. -1.
    8880023    1    1    2    0    0  0.22013706331E+03  0.26260536588E+03 -0.15835992847E+04  0.17490050902E+04  0.65864270000E+03 0. -1.
    8880022    1    1    2    0    0 -0.22013706331E+03 -0.26260536588E+03  0.11371728315E+03  0.39210353013E+03  0.15294330000E+03 0.  0.
<mgrwt>
<rscale>  0 0.62600961E+03</rscale>
<asrwt>0</asrwt>
<pdfrwt beam="1">  1        2 0.27776850E+00 0.74245007E+03</pdfrwt>
<pdfrwt beam="2">  1       -2 0.51632818E-01 0.74245007E+03</pdfrwt>
<totfact> 0.31255184E+01</totfact>
</mgrwt>
</event>
<event>
 4    2  0.3171963E-007  0.7336945E+03  0.7818608E-02  0.9878710E-01
         -2   -1    0    0    0  501 -0.00000000000E+00  0.00000000000E+00  0.43521655767E+03  0.43521655768E+03  0.25500000000E-02 0.  1.
          2   -1    0    0  501    0  0.00000000000E+00 -0.00000000000E+00 -0.90465446634E+03  0.90465446634E+03  0.25500000000E-02 0. -1.
    8880023    1    1    2    0    0  0.20157950978E+03  0.25271143418E+03 -0.61145943294E+03  0.95508649458E+03  0.65864270000E+03 0. -1.
    8880022    1    1    2    0    0 -0.20157950978E+03 -0.25271143418E+03  0.14202152427E+03  0.38478452945E+03  0.15294330000E+03 0.  0.
<mgrwt>
<rscale>  0 0.61304251E+03</rscale>
<asrwt>0</asrwt>
<pdfrwt beam="1">  1        2 0.13917761E+00 0.73369447E+03</pdfrwt>
<pdfrwt beam="2">  1       -2 0.66956394E-01 0.73369447E+03</pdfrwt>
<totfact> 0.60536801E+01</totfact>
</mgrwt>
</event>
<event>
 4    2  0.3171963E-007  0.8227010E+03  0.7818608E-02  0.9663704E-01
         -2   -1    0    0    0  501 -0.00000000000E+00  0.00000000000E+00  0.42152364100E+03  0.42152364100E+03  0.25500000000E-02 0.  1.
          2   -1    0    0  501    0  0.00000000000E+00 -0.00000000000E+00 -0.15389904054E+04  0.15389904054E+04  0.25500000000E-02 0. -1.
    8880023    1    1    2    0    0  0.46232412335E+03 -0.17112334913E+03 -0.11822251543E+04  0.14403101463E+04  0.65864270000E+03 0. -1.
    8880022    1    1    2    0    0 -0.46232412335E+03  0.17112334913E+03  0.64758389911E+02  0.52020390015E+03  0.15294330000E+03 0.  0.
<mgrwt>
<rscale>  0 0.73219553E+03</rscale>
<asrwt>0</asrwt>
<pdfrwt beam="1">  1        2 0.23676775E+00 0.82270104E+03</pdfrwt>
<pdfrwt beam="2">  1       -2 0.64849792E-01 0.82270104E+03</pdfrwt>
<totfact> 0.26894685E+01</totfact>
</mgrwt>
</event>
<event>
 4    2  0.3592086E-007  0.1293173E+04  0.7818608E-02  0.9071478E-01
         -2   -1    0    0    0  501 -0.00000000000E+00  0.00000000000E+00  0.30142937201E+04  0.30142937201E+04  0.25500000000E-02 0.  1.
          2   -1    0    0  501    0  0.00000000000E+00 -0.00000000000E+00 -0.13709813894E+04  0.13709813894E+04  0.25500000000E-02 0. -1.
    8880023    1    1    2    0    0 -0.95946506763E+03  0.56383660769E+03 -0.91972217201E+03  0.15868787024E+04  0.65864270000E+03 0. -1.
    8880022    1    1    2    0    0  0.95946506763E+03 -0.56383660769E+03  0.25630345028E+04  0.27983964071E+04  0.15294330000E+03 0.  0.
<mgrwt>
<rscale>  0 0.12484451E+04</rscale>
<asrwt>0</asrwt>
<pdfrwt beam="1">  1        2 0.21092022E+00 0.12931725E+04</pdfrwt>
<pdfrwt beam="2">  1       -2 0.46373749E+00 0.12931725E+04</pdfrwt>
<totfact> 0.40996201E-02</totfact>
</mgrwt>
</event>
<event>
 4    2  0.3171963E-007  0.8030400E+03  0.7818608E-02  0.9704261E-01
          2   -1    0    0  501    0  0.00000000000E+00  0.00000000000E+00  0.31829315727E+04  0.31829315727E+04  0.25500000000E-02 0. -1.
         -2   -1    0    0    0  501 -0.00000000000E+00 -0.00000000000E+00 -0.16336798547E+03  0.16336798549E+03  0.25500000000E-02 0.  1.
    8880023    1    1    2    0    0  0.30164169031E+03  0.34651890226E+03  0.25435178345E+04  0.26672750589E+04  0.65864270000E+03 0. -1.
    8880022    1    1    2    0    0 -0.30164169031E+03 -0.34651890226E+03  0.47604575263E+03  0.67902449924E+03  0.15294330000E+03 0.  0.
<mgrwt>
<rscale>  0 0.70763656E+03</rscale>
<asrwt>0</asrwt>
<pdfrwt beam="1">  1        2 0.48968173E+00 0.80304001E+03</pdfrwt>
<pdfrwt beam="2">  1       -2 0.25133539E-01 0.80304001E+03</pdfrwt>
<totfact> 0.19943478E+01</totfact>
</mgrwt>
</event>
<event>
 4    2  0.3171963E-007  0.9016714E+03  0.7818608E-02  0.9523354E-01
          2   -1    0    0  501    0  0.00000000000E+00  0.00000000000E+00  0.10435513804E+04  0.10435513804E+04  0.25500000000E-02 0. -1.
         -2   -1    0    0    0  501 -0.00000000000E+00 -0.00000000000E+00 -0.62025340533E+03  0.62025340534E+03  0.25500000000E-02 0.  1.
    8880023    1    1    2    0    0  0.29104452714E+03 -0.54267322234E+03  0.10972481222E+01  0.90167208742E+03  0.65864270000E+03 0.  0.
    8880022    1    1    2    0    0 -0.29104452714E+03  0.54267322234E+03  0.42220072698E+03  0.76213269835E+03  0.15294330000E+03 0.  0.
<mgrwt>
<rscale>  0 0.82583727E+03</rscale>
<asrwt>0</asrwt>
<pdfrwt beam="1">  1        2 0.16054637E+00 0.90167142E+03</pdfrwt>
<pdfrwt beam="2">  1       -2 0.95423601E-01 0.90167142E+03</pdfrwt>
<totfact> 0.21846801E+01</totfact>
</mgrwt>
</event>
<event>
 4    2  0.3171963E-007  0.6635598E+03  0.7818608E-02  0.1020774E+00
          2   -1    0    0  501    0  0.00000000000E+00  0.00000000000E+00  0.10615068630E+04  0.10615068630E+04  0.25500000000E-02 0. -1.
         -2   -1    0    0    0  501 -0.00000000000E+00 -0.00000000000E+00 -0.68065624571E+03  0.68065624572E+03  0.25500000000E-02 0.  1.
    8880023    1    1    2    0    0  0.43820424012E+02  0.67684115075E+02  0.94354152631E+03  0.11535086420E+04  0.65864270000E+03 0. -1.
    8880022    1    1    2    0    0 -0.43820424012E+02 -0.67684115075E+02 -0.56269090907E+03  0.58865446669E+03  0.15294330000E+03 0.  0.
<mgrwt>
<rscale>  0 0.47408506E+03</rscale>
<asrwt>0</asrwt>
<pdfrwt beam="1">  1        2 0.16330875E+00 0.66355978E+03</pdfrwt>
<pdfrwt beam="2">  1       -2 0.10471635E+00 0.66355978E+03</pdfrwt>
<totfact> 0.17505610E+01</totfact>
</mgrwt>
</event>
<event>
 4    2  0.3171963E-007  0.6633208E+03  0.7818608E-02  0.1020986E+00
          2   -1    0    0  501    0  0.00000000000E+00  0.00000000000E+00  0.12182707602E+04  0.12182707602E+04  0.25500000000E-02 0. -1.
         -2   -1    0    0    0  501 -0.00000000000E+00 -0.00000000000E+00 -0.14538220133E+03  0.14538220135E+03  0.25500000000E-02 0.  1.
    8880023    1    1    2    0    0  0.55882064398E+02  0.55330509474E+02  0.91536725883E+03  0.11304387180E+04  0.65864270000E+03 0. -1.
    8880022    1    1    2    0    0 -0.55882064398E+02 -0.55330509474E+02  0.15752130001E+03  0.23321424350E+03  0.15294330000E+03 0.  0.
<mgrwt>
<rscale>  0 0.47332560E+03</rscale>
<asrwt>0</asrwt>
<pdfrwt beam="1">  1        2 0.18742626E+00 0.66332079E+03</pdfrwt>
<pdfrwt beam="2">  1       -2 0.22366494E-01 0.66332079E+03</pdfrwt>
<totfact> 0.32808883E+02</totfact>
</mgrwt>
</event>
<event>
 4    2  0.3171963E-007  0.8551861E+03  0.7818608E-02  0.9602184E-01
         -2   -1    0    0    0  501 -0.00000000000E+00  0.00000000000E+00  0.21073089532E+04  0.21073089532E+04  0.25500000000E-02 0.  1.
          2   -1    0    0  501    0  0.00000000000E+00 -0.00000000000E+00 -0.42834189236E+03  0.42834189237E+03  0.25500000000E-02 0. -1.
    8880023    1    1    2    0    0 -0.45814089921E+03 -0.29604049776E+03  0.10349775208E+03  0.86142617257E+03  0.65864270000E+03 0.  1.
    8880022    1    1    2    0    0  0.45814089921E+03  0.29604049776E+03  0.15754693087E+04  0.16742246730E+04  0.15294330000E+03 0.  0.
<mgrwt>
<rscale>  0 0.77151766E+03</rscale>
<asrwt>0</asrwt>
<pdfrwt beam="1">  1        2 0.65898753E-01 0.85518610E+03</pdfrwt>
<pdfrwt beam="2">  1       -2 0.32420137E+00 0.85518610E+03</pdfrwt>
<totfact> 0.17103525E+00</totfact>
</mgrwt>
</event>
<event>
 4    2  0.3171963E-007  0.7634507E+03  0.7818608E-02  0.9796255E-01
          2   -1    0    0  501    0  0.00000000000E+00  0.00000000000E+00  0.30871404947E+04  0.30871404947E+04  0.25500000000E-02 0. -1.
         -2   -1    0    0    0  501 -0.00000000000E+00 -0.00000000000E+00 -0.12751823466E+03  0.12751823468E+03  0.25500000000E-02 0.  1.
    8880023    1    1    2    0    0  0.38180103258E+03  0.57224944600E+02  0.23952534068E+04  0.25139800739E+04  0.65864270000E+03 0.  0.
    8880022    1    1    2    0    0 -0.38180103258E+03 -0.57224944600E+02  0.56436885324E+03  0.70067865551E+03  0.15294330000E+03 0.  0.
<mgrwt>
<rscale>  0 0.65563930E+03</rscale>
<asrwt>0</asrwt>
<pdfrwt beam="1">  1        2 0.47494465E+00 0.76345067E+03</pdfrwt>
<pdfrwt beam="2">  1       -2 0.19618192E-01 0.76345067E+03</pdfrwt>
<totfact> 0.35793730E+01</totfact>
</mgrwt>
</event>
<event>
 4    2  0.3171963E-007  0.7390206E+03  0.7818608E-02  0.9862809E-01
         -2   -1    0    0    0  501 -0.00000000000E+00  0.00000000000E+00  0.14838556559E+04  0.14838556559E+04  0.25500000000E-02 0.  1.
          2   -1    0    0  501    0  0.00000000000E+00 -0.00000000000E+00 -0.24388939449E+03  0.24388939451E+03  0.25500000000E-02 0. -1.
    8880023    1    1    2    0    0  0.31115185958E+03 -0.12460256120E+03  0.47451477663E+03  0.87824584114E+03  0.65864270000E+03 0. -1.
    8880022    1    1    2    0    0 -0.31115185958E+03  0.12460256120E+03  0.76545148479E+03  0.84949920928E+03  0.15294330000E+03 0.  0.
<mgrwt>
<rscale>  0 0.62098066E+03</rscale>
<asrwt>0</asrwt>
<pdfrwt beam="1">  1        2 0.37521446E-01 0.73902063E+03</pdfrwt>
<pdfrwt beam="2">  1       -2 0.22828548E+00 0.73902063E+03</pdfrwt>
<totfact> 0.12403983E+01</totfact>
</mgrwt>
</event>
<event>
 4    2  0.3171963E-007  0.6844554E+03  0.7818608E-02  0.1006908E+00
         -2   -1    0    0    0  501 -0.00000000000E+00  0.00000000000E+00  0.52638736947E+03  0.52638736948E+03  0.25500000000E-02 0.  1.
          2   -1    0    0  501    0  0.00000000000E+00 -0.00000000000E+00 -0.10842318259E+04  0.10842318259E+04  0.25500000000E-02 0. -1.
    8880023    1    1    2    0    0  0.10176815233E+03 -0.15592369144E+03 -0.93761169004E+03  0.11608595272E+04  0.65864270000E+03 0.  0.
    8880022    1    1    2    0    0 -0.10176815233E+03  0.15592369144E+03  0.37976723360E+03  0.44975966817E+03  0.15294330000E+03 0.  1.
<mgrwt>
<rscale>  0 0.52722264E+03</rscale>
<asrwt>0</asrwt>
<pdfrwt beam="1">  1        2 0.16680490E+00 0.68445538E+03</pdfrwt>
<pdfrwt beam="2">  1       -2 0.80982673E-01 0.68445538E+03</pdfrwt>
<totfact> 0.30686246E+01</totfact>
</mgrwt>
</event>
<event>
 4    2  0.3171963E-007  0.9646995E+03  0.7818608E-02  0.9429273E-01
         -2   -1    0    0    0  501 -0.00000000000E+00  0.00000000000E+00  0.12381180132E+04  0.12381180132E+04  0.25500000000E-02 0.  1.
          2   -1    0    0  501    0  0.00000000000E+00 -0.00000000000E+00 -0.11736218442E+04  0.11736218442E+04  0.25500000000E-02 0. -1.
    8880023    1    1    2    0    0 -0.11255495888E+03  0.69582065432E+03 -0.82303965999E+03  0.12680849695E+04  0.65864270000E+03 0. -1.
    8880022    1    1    2    0    0  0.11255495888E+03 -0.69582065432E+03  0.88753582900E+03  0.11436548879E+04  0.15294330000E+03 0.  0.
<mgrwt>
<rscale>  0 0.89705306E+03</rscale>
<asrwt>0</asrwt>
<pdfrwt beam="1">  1        2 0.18055721E+00 0.96469954E+03</pdfrwt>
<pdfrwt beam="2">  1       -2 0.19047970E+00 0.96469954E+03</pdfrwt>
<totfact> 0.30099421E+00</totfact>
</mgrwt>
</event>
<event>
 4    2  0.3171963E-007  0.7972178E+03  0.7818608E-02  0.9716844E-01
          2   -1    0    0  501    0  0.00000000000E+00  0.00000000000E+00  0.16712854365E+04  0.16712854365E+04  0.25500000000E-02 0. -1.
         -2   -1    0    0    0  501 -0.00000000000E+00 -0.00000000000E+00 -0.57822316019E+03  0.57822316019E+03  0.25500000000E-02 0.  1.
    8880023    1    1    2    0    0  0.47246656319E+02 -0.44666967984E+03  0.14507095446E+04  0.16553291028E+04  0.65864270000E+03 0.  0.
    8880022    1    1    2    0    0 -0.47246656319E+02  0.44666967984E+03 -0.35764726831E+03  0.59417949390E+03  0.15294330000E+03 0.  0.
<mgrwt>
<rscale>  0 0.70022688E+03</rscale>
<asrwt>0</asrwt>
<pdfrwt beam="1">  1        2 0.25712084E+00 0.79721782E+03</pdfrwt>
<pdfrwt beam="2">  1       -2 0.88957410E-01 0.79721782E+03</pdfrwt>
<totfact> 0.11282196E+01</totfact>
</mgrwt>
</event>
<event>
 4    2  0.3171963E-007  0.9394012E+03  0.7818608E-02  0.9465530E-01
          2   -1    0    0  501    0  0.00000000000E+00  0.00000000000E+00  0.19943315107E+04  0.19943315107E+04  0.25500000000E-02 0. -1.
         -2   -1    0    0    0  501 -0.00000000000E+00 -0.00000000000E+00 -0.84845557374E+03  0.84845557374E+03  0.25500000000E-02 0.  1.
    8880023    1    1    2    0    0 -0.54730476799E+03 -0.38616312007E+03  0.17118249392E+04  0.19526441799E+04  0.65864270000E+03 0. -1.
    8880022    1    1    2    0    0  0.54730476799E+03  0.38616312007E+03 -0.56594900227E+03  0.89014290457E+03  0.15294330000E+03 0.  0.
<mgrwt>
<rscale>  0 0.86873546E+03</rscale>
<asrwt>0</asrwt>
<pdfrwt beam="1">  1        2 0.30682023E+00 0.93940123E+03</pdfrwt>
<pdfrwt beam="2">  1       -2 0.13053163E+00 0.93940123E+03</pdfrwt>
<totfact> 0.29116596E+00</totfact>
</mgrwt>
</event>
<event>
 4    2  0.3171963E-007  0.6743047E+03  0.7818608E-02  0.1012748E+00
         -2   -1    0    0    0  501 -0.00000000000E+00  0.00000000000E+00  0.69276438265E+02  0.69276438312E+02  0.25500000000E-02 0.  1.
          2   -1    0    0  501    0  0.00000000000E+00 -0.00000000000E+00 -0.36781722979E+04  0.36781722979E+04  0.25500000000E-02 0. -1.
    8880023    1    1    2    0    0 -0.86129697761E+02 -0.11601000655E+03 -0.33327558575E+04  0.34002865259E+04  0.65864270000E+03 0. -1.
    8880022    1    1    2    0    0  0.86129697761E+02  0.11601000655E+03 -0.27614000214E+03  0.34716221029E+03  0.15294330000E+03 0.  0.
<mgrwt>
<rscale>  0 0.50396892E+03</rscale>
<asrwt>0</asrwt>
<pdfrwt beam="1">  1        2 0.56587251E+00 0.67430472E+03</pdfrwt>
<pdfrwt beam="2">  1       -2 0.10657916E-01 0.67430472E+03</pdfrwt>
<totfact> 0.41158512E+01</totfact>
</mgrwt>
</event>
<event>
 4    2  0.3171963E-007  0.7262358E+03  0.7818608E-02  0.9902025E-01
          2   -1    0    0  501    0  0.00000000000E+00  0.00000000000E+00  0.25600022696E+03  0.25600022697E+03  0.25500000000E-02 0. -1.
         -2   -1    0    0    0  501 -0.00000000000E+00 -0.00000000000E+00 -0.19304850964E+04  0.19304850964E+04  0.25500000000E-02 0.  1.
    8880023    1    1    2    0    0  0.61280643793E+01 -0.30589323807E+03 -0.32734971926E+03  0.79660295709E+03  0.65864270000E+03 0. -1.
    8880022    1    1    2    0    0 -0.61280643793E+01  0.30589323807E+03 -0.13471351502E+04  0.13898823663E+04  0.15294330000E+03 0.  0.
<mgrwt>
<rscale>  0 0.60163268E+03</rscale>
<asrwt>0</asrwt>
<pdfrwt beam="1">  1        2 0.39384652E-01 0.72623580E+03</pdfrwt>
<pdfrwt beam="2">  1       -2 0.29699770E+00 0.72623580E+03</pdfrwt>
<totfact> 0.45253665E+00</totfact>
</mgrwt>
</event>
<event>
 4    2  0.3171963E-007  0.7653056E+03  0.7818608E-02  0.9791561E-01
         -2   -1    0    0    0  501 -0.00000000000E+00  0.00000000000E+00  0.71604584921E+03  0.71604584921E+03  0.25500000000E-02 0.  1.
          2   -1    0    0  501    0  0.00000000000E+00 -0.00000000000E+00 -0.62038868745E+03  0.62038868746E+03  0.25500000000E-02 0. -1.
    8880023    1    1    2    0    0  0.14729974334E+03 -0.36081187222E+03  0.35534265332E+03  0.84377783158E+03  0.65864270000E+03 0.  0.
    8880022    1    1    2    0    0 -0.14729974334E+03  0.36081187222E+03 -0.25968549157E+03  0.49265670509E+03  0.15294330000E+03 0.  0.
<mgrwt>
<rscale>  0 0.65817422E+03</rscale>
<asrwt>0</asrwt>
<pdfrwt beam="1">  1        2 0.95444414E-01 0.76530558E+03</pdfrwt>
<pdfrwt beam="2">  1       -2 0.11016090E+00 0.76530558E+03</pdfrwt>
<totfact> 0.31537991E+01</totfact>
</mgrwt>
</event>
<event>
 4    2  0.3171963E-007  0.6693186E+03  0.7818608E-02  0.1016156E+00
         -2   -1    0    0    0  501 -0.00000000000E+00  0.00000000000E+00  0.24048907373E+04  0.24048907373E+04  0.25500000000E-02 0.  1.
          2   -1    0    0  501    0  0.00000000000E+00 -0.00000000000E+00 -0.15880667962E+03  0.15880667964E+03  0.25500000000E-02 0. -1.
    8880023    1    1    2    0    0 -0.10054838947E+03 -0.63774259473E+02  0.57787614725E+03  0.88426703128E+03  0.65864270000E+03 0. -1.
    8880022    1    1    2    0    0  0.10054838947E+03  0.63774259473E+02  0.16682079104E+04  0.16794303856E+04  0.15294330000E+03 0.  0.
<mgrwt>
<rscale>  0 0.49099611E+03</rscale>
<asrwt>0</asrwt>
<pdfrwt beam="1">  1        2 0.24431798E-01 0.66931856E+03</pdfrwt>
<pdfrwt beam="2">  1       -2 0.36998318E+00 0.66931856E+03</pdfrwt>
<totfact> 0.27924826E+00</totfact>
</mgrwt>
</event>
<event>
 4    2  0.3171963E-007  0.7179309E+03  0.7818608E-02  0.9929650E-01
         -2   -1    0    0    0  501 -0.00000000000E+00  0.00000000000E+00  0.31269688874E+03  0.31269688875E+03  0.25500000000E-02 0.  1.
          2   -1    0    0  501    0  0.00000000000E+00 -0.00000000000E+00 -0.19139112973E+04  0.19139112973E+04  0.25500000000E-02 0. -1.
    8880023    1    1    2    0    0  0.28568244582E+03  0.33165621308E+00 -0.17337416068E+04  0.18765086558E+04  0.65864270000E+03 0. -1.
    8880022    1    1    2    0    0 -0.28568244582E+03 -0.33165621308E+00  0.13252719820E+03  0.35009953031E+03  0.15294330000E+03 0.  0.
<mgrwt>
<rscale>  0 0.58845582E+03</rscale>
<asrwt>0</asrwt>
<pdfrwt beam="1">  1        2 0.29444788E+00 0.71793090E+03</pdfrwt>
<pdfrwt beam="2">  1       -2 0.48107215E-01 0.71793090E+03</pdfrwt>
<totfact> 0.31601409E+01</totfact>
</mgrwt>
</event>
<event>
 4    2  0.3171963E-007  0.9113088E+03  0.7818608E-02  0.9508116E-01
          2   -1    0    0  501    0  0.00000000000E+00  0.00000000000E+00  0.12254059550E+04  0.12254059550E+04  0.25500000000E-02 0. -1.
         -2   -1    0    0    0  501 -0.00000000000E+00 -0.00000000000E+00 -0.51025179982E+03  0.51025179983E+03  0.25500000000E-02 0.  1.
    8880023    1    1    2    0    0  0.38494706919E+03 -0.49848706842E+03  0.55862555335E+03  0.10688995830E+04  0.65864270000E+03 0. -1.
    8880022    1    1    2    0    0 -0.38494706919E+03  0.49848706842E+03  0.15652860181E+03  0.66675817180E+03  0.15294330000E+03 0.  1.
<mgrwt>
<rscale>  0 0.83688115E+03</rscale>
<asrwt>0</asrwt>
<pdfrwt beam="1">  1        2 0.18852399E+00 0.91130884E+03</pdfrwt>
<pdfrwt beam="2">  1       -2 0.78500278E-01 0.91130884E+03</pdfrwt>
<totfact> 0.26471356E+01</totfact>
</mgrwt>
</event>
<event>
 4    2  0.3171963E-007  0.7871520E+03  0.7818608E-02  0.9739297E-01
          2   -1    0    0  501    0  0.00000000000E+00  0.00000000000E+00  0.82876467325E+03  0.82876467326E+03  0.25500000000E-02 0. -1.
         -2   -1    0    0    0  501 -0.00000000000E+00 -0.00000000000E+00 -0.86557116153E+03  0.86557116154E+03  0.25500000000E-02 0.  1.
    8880023    1    1    2    0    0 -0.39342181131E+03  0.17611762677E+03  0.54268556231E+03  0.95609411978E+03  0.65864270000E+03 0.  0.
    8880022    1    1    2    0    0  0.39342181131E+03 -0.17611762677E+03 -0.57949205059E+03  0.73824171501E+03  0.15294330000E+03 0.  0.
<mgrwt>
<rscale>  0 0.68724491E+03</rscale>
<asrwt>0</asrwt>
<pdfrwt beam="1">  1        2 0.12750226E+00 0.78715205E+03</pdfrwt>
<pdfrwt beam="2">  1       -2 0.13316479E+00 0.78715205E+03</pdfrwt>
<totfact> 0.13575920E+01</totfact>
</mgrwt>
</event>
<event>
 4    2  0.3171963E-007  0.7436794E+03  0.7818608E-02  0.9849356E-01
          2   -1    0    0  501    0  0.00000000000E+00  0.00000000000E+00  0.85505369771E+03  0.85505369771E+03  0.25500000000E-02 0. -1.
         -2   -1    0    0    0  501 -0.00000000000E+00 -0.00000000000E+00 -0.76410612330E+03  0.76410612331E+03  0.25500000000E-02 0.  1.
    8880023    1    1    2    0    0  0.13434924227E+03  0.31811819189E+03  0.62062328257E+03  0.96862395595E+03  0.65864270000E+03 0. -1.
    8880022    1    1    2    0    0 -0.13434924227E+03 -0.31811819189E+03 -0.52967570816E+03  0.65053586507E+03  0.15294330000E+03 0.  0.
<mgrwt>
<rscale>  0 0.62779768E+03</rscale>
<asrwt>0</asrwt>
<pdfrwt beam="1">  1        2 0.13154672E+00 0.74367944E+03</pdfrwt>
<pdfrwt beam="2">  1       -2 0.11755479E+00 0.74367944E+03</pdfrwt>
<totfact> 0.17869026E+01</totfact>
</mgrwt>
</event>
<event>
 4    2  0.3171963E-007  0.8135412E+03  0.7818608E-02  0.9682247E-01
         -2   -1    0    0    0  501 -0.00000000000E+00  0.00000000000E+00  0.72996754449E+03  0.72996754450E+03  0.25500000000E-02 0.  1.
          2   -1    0    0  501    0  0.00000000000E+00 -0.00000000000E+00 -0.79997845005E+03  0.79997845006E+03  0.25500000000E-02 0. -1.
    8880023    1    1    2    0    0 -0.26724001415E+03  0.39575474823E+03  0.34048707870E+03  0.88191876210E+03  0.65864270000E+03 0.  0.
    8880022    1    1    2    0    0  0.26724001415E+03 -0.39575474823E+03 -0.41049798426E+03  0.64802723246E+03  0.15294330000E+03 0.  0.
<mgrwt>
<rscale>  0 0.72083679E+03</rscale>
<asrwt>0</asrwt>
<pdfrwt beam="1">  1        2 0.12307361E+00 0.81354118E+03</pdfrwt>
<pdfrwt beam="2">  1       -2 0.11230270E+00 0.81354118E+03</pdfrwt>
<totfact> 0.21707136E+01</totfact>
</mgrwt>
</event>
<event>
 4    2  0.3171963E-007  0.6798172E+03  0.7818608E-02  0.1009427E+00
         -2   -1    0    0    0  501 -0.00000000000E+00  0.00000000000E+00  0.20607009358E+04  0.20607009359E+04  0.25500000000E-02 0.  1.
          2   -1    0    0  501    0  0.00000000000E+00 -0.00000000000E+00 -0.38150355209E+03  0.38150355209E+03  0.25500000000E-02 0. -1.
    8880023    1    1    2    0    0 -0.13688230230E+03 -0.98001974212E+02 -0.65296330447E+02  0.68294580214E+03  0.65864270000E+03 0. -1.
    8880022    1    1    2    0    0  0.13688230230E+03  0.98001974212E+02  0.17444937142E+04  0.17592586858E+04  0.15294330000E+03 0.  0.
<mgrwt>
<rscale>  0 0.51702893E+03</rscale>
<asrwt>0</asrwt>
<pdfrwt beam="1">  1        2 0.58692855E-01 0.67981715E+03</pdfrwt>
<pdfrwt beam="2">  1       -2 0.31703091E+00 0.67981715E+03</pdfrwt>
<totfact> 0.22139948E+00</totfact>
</mgrwt>
</event>
<event>
 4    2  0.3171963E-007  0.9997382E+03  0.7818608E-02  0.9381900E-01
          2   -1    0    0  501    0  0.00000000000E+00  0.00000000000E+00  0.10433999867E+04  0.10433999867E+04  0.25500000000E-02 0. -1.
         -2   -1    0    0    0  501 -0.00000000000E+00 -0.00000000000E+00 -0.75942162451E+03  0.75942162452E+03  0.25500000000E-02 0.  1.
    8880023    1    1    2    0    0  0.51126210373E+03  0.55161332261E+03  0.52256714618E+02  0.10011029752E+04  0.65864270000E+03 0.  1.
    8880022    1    1    2    0    0 -0.51126210373E+03 -0.55161332261E+03  0.23172164753E+03  0.80171863602E+03  0.15294330000E+03 0. -1.
<mgrwt>
<rscale>  0 0.93580303E+03</rscale>
<asrwt>0</asrwt>
<pdfrwt beam="1">  1        2 0.16052307E+00 0.99973817E+03</pdfrwt>
<pdfrwt beam="2">  1       -2 0.11683410E+00 0.99973817E+03</pdfrwt>
<totfact> 0.13309591E+01</totfact>
</mgrwt>
</event>
<event>
 4    2  0.3171963E-007  0.6660590E+03  0.7818608E-02  0.1018661E+00
         -2   -1    0    0    0  501 -0.00000000000E+00  0.00000000000E+00  0.40872681171E+03  0.40872681172E+03  0.25500000000E-02 0.  1.
          2   -1    0    0  501    0  0.00000000000E+00 -0.00000000000E+00 -0.56440731045E+03  0.56440731046E+03  0.25500000000E-02 0. -1.
    8880023    1    1    2    0    0  0.96481769410E+02 -0.22708428055E+02 -0.30967877454E+03  0.73453083951E+03  0.65864270000E+03 0. -1.
    8880022    1    1    2    0    0 -0.96481769410E+02  0.22708428055E+02  0.15399827580E+03  0.23860328266E+03  0.15294330000E+03 0.  0.
<mgrwt>
<rscale>  0 0.48172928E+03</rscale>
<asrwt>0</asrwt>
<pdfrwt beam="1">  1        2 0.86831894E-01 0.66605901E+03</pdfrwt>
<pdfrwt beam="2">  1       -2 0.62881048E-01 0.66605901E+03</pdfrwt>
<totfact> 0.12706230E+02</totfact>
</mgrwt>
</event>
<event>
 4    2  0.3171963E-007  0.7146963E+03  0.7818608E-02  0.9940958E-01
         -2   -1    0    0    0  501 -0.00000000000E+00  0.00000000000E+00  0.67382755038E+02  0.67382755087E+02  0.25500000000E-02 0.  1.
          2   -1    0    0  501    0  0.00000000000E+00 -0.00000000000E+00 -0.41898712741E+04  0.41898712741E+04  0.25500000000E-02 0. -1.
    8880023    1    1    2    0    0 -0.96552714613E+01  0.27728560983E+03 -0.23357880129E+04  0.24426822104E+04  0.65864270000E+03 0.  1.
    8880022    1    1    2    0    0  0.96552714613E+01 -0.27728560983E+03 -0.17867005061E+04  0.18145718187E+04  0.15294330000E+03 0.  0.
<mgrwt>
<rscale>  0 0.58316682E+03</rscale>
<asrwt>0</asrwt>
<pdfrwt beam="1">  1        2 0.64459538E+00 0.71469626E+03</pdfrwt>
<pdfrwt beam="2">  1       -2 0.10366581E-01 0.71469626E+03</pdfrwt>
<totfact> 0.17194909E+01</totfact>
</mgrwt>
</event>
<event>
 4    2  0.3171963E-007  0.8937796E+03  0.7818608E-02  0.9536092E-01
          2   -1    0    0  501    0  0.00000000000E+00  0.00000000000E+00  0.16394457555E+04  0.16394457555E+04  0.25500000000E-02 0. -1.
         -2   -1    0    0    0  501 -0.00000000000E+00 -0.00000000000E+00 -0.47847663389E+03  0.47847663390E+03  0.25500000000E-02 0.  1.
    8880023    1    1    2    0    0  0.19990233972E+03  0.57014976037E+03  0.11967373362E+04  0.14936606551E+04  0.65864270000E+03 0. -1.
    8880022    1    1    2    0    0 -0.19990233972E+03 -0.57014976037E+03 -0.35768214552E+02  0.62426173426E+03  0.15294330000E+03 0.  0.
<mgrwt>
<rscale>  0 0.81674405E+03</rscale>
<asrwt>0</asrwt>
<pdfrwt beam="1">  1        2 0.25222242E+00 0.89377956E+03</pdfrwt>
<pdfrwt beam="2">  1       -2 0.73611791E-01 0.89377956E+03</pdfrwt>
<totfact> 0.17808500E+01</totfact>
</mgrwt>
</event>
<event>
 4    2  0.3171963E-007  0.8465159E+03  0.7818608E-02  0.9618014E-01
          2   -1    0    0  501    0  0.00000000000E+00  0.00000000000E+00  0.28154056696E+04  0.28154056696E+04  0.25500000000E-02 0. -1.
         -2   -1    0    0    0  501 -0.00000000000E+00 -0.00000000000E+00 -0.21566006791E+03  0.21566006793E+03  0.25500000000E-02 0.  1.
    8880023    1    1    2    0    0  0.47667543568E+03 -0.23571056909E+03  0.21737174275E+04  0.23327315757E+04  0.65864270000E+03 0.  0.
    8880022    1    1    2    0    0 -0.47667543568E+03  0.23571056909E+03  0.42602817417E+03  0.69833416182E+03  0.15294330000E+03 0.  0.
<mgrwt>
<rscale>  0 0.76115266E+03</rscale>
<asrwt>0</asrwt>
<pdfrwt beam="1">  1        2 0.43313933E+00 0.84651589E+03</pdfrwt>
<pdfrwt beam="2">  1       -2 0.33178472E-01 0.84651589E+03</pdfrwt>
<totfact> 0.19938873E+01</totfact>
</mgrwt>
</event>
<event>
 4    2  0.3171963E-007  0.7147313E+03  0.7818608E-02  0.9940834E-01
         -2   -1    0    0    0  501 -0.00000000000E+00  0.00000000000E+00  0.56879587830E+03  0.56879587831E+03  0.25500000000E-02 0.  1.
          2   -1    0    0  501    0  0.00000000000E+00 -0.00000000000E+00 -0.12766265441E+04  0.12766265441E+04  0.25500000000E-02 0. -1.
    8880023    1    1    2    0    0 -0.27352098439E+03 -0.47084394263E+02 -0.11180972379E+04  0.13270200861E+04  0.65864270000E+03 0. -1.
    8880022    1    1    2    0    0  0.27352098439E+03  0.47084394263E+02  0.41026657214E+03  0.51840233634E+03  0.15294330000E+03 0.  0.
<mgrwt>
<rscale>  0 0.58322469E+03</rscale>
<asrwt>0</asrwt>
<pdfrwt beam="1">  1        2 0.19640408E+00 0.71473133E+03</pdfrwt>
<pdfrwt beam="2">  1       -2 0.87507058E-01 0.71473133E+03</pdfrwt>
<totfact> 0.19705456E+01</totfact>
</mgrwt>
</event>
<event>
 4    2  0.3171963E-007  0.6774870E+03  0.7818608E-02  0.1010782E+00
          2   -1    0    0  501    0  0.00000000000E+00  0.00000000000E+00  0.18960868194E+04  0.18960868194E+04  0.25500000000E-02 0. -1.
         -2   -1    0    0    0  501 -0.00000000000E+00 -0.00000000000E+00 -0.16457246865E+03  0.16457246867E+03  0.25500000000E-02 0.  1.
    8880023    1    1    2    0    0 -0.13779133221E+03  0.78688810669E+02  0.17098896116E+04  0.18392147972E+04  0.65864270000E+03 0. -1.
    8880022    1    1    2    0    0  0.13779133221E+03 -0.78688810669E+02  0.21624739109E+02  0.22144449082E+03  0.15294330000E+03 0.  0.
<mgrwt>
<rscale>  0 0.51164856E+03</rscale>
<asrwt>0</asrwt>
<pdfrwt beam="1">  1        2 0.29170568E+00 0.67748696E+03</pdfrwt>
<pdfrwt beam="2">  1       -2 0.25318840E-01 0.67748696E+03</pdfrwt>
<totfact> 0.11029392E+02</totfact>
</mgrwt>
</event>
<event>
 4    2  0.3171963E-007  0.7152464E+03  0.7818608E-02  0.9939011E-01
          2   -1    0    0  501    0  0.00000000000E+00  0.00000000000E+00  0.15805120441E+04  0.15805120441E+04  0.25500000000E-02 0. -1.
         -2   -1    0    0    0  501 -0.00000000000E+00 -0.00000000000E+00 -0.25407069764E+03  0.25407069766E+03  0.25500000000E-02 0.  1.
    8880023    1    1    2    0    0  0.10682442237E+03  0.25759611064E+03  0.13370645509E+04  0.15163505640E+04  0.65864270000E+03 0.  0.
    8880022    1    1    2    0    0 -0.10682442237E+03 -0.25759611064E+03 -0.10623204507E+02  0.31823217769E+03  0.15294330000E+03 0.  0.
<mgrwt>
<rscale>  0 0.58407317E+03</rscale>
<asrwt>0</asrwt>
<pdfrwt beam="1">  1        2 0.24315569E+00 0.71524640E+03</pdfrwt>
<pdfrwt beam="2">  1       -2 0.39087801E-01 0.71524640E+03</pdfrwt>
<totfact> 0.72506183E+01</totfact>
</mgrwt>
</event>
<event>
 4    2  0.3171963E-007  0.7505444E+03  0.7818608E-02  0.9830232E-01
          2   -1    0    0  501    0  0.00000000000E+00  0.00000000000E+00  0.22634229503E+04  0.22634229503E+04  0.25500000000E-02 0. -1.
         -2   -1    0    0    0  501 -0.00000000000E+00 -0.00000000000E+00 -0.28636582624E+03  0.28636582625E+03  0.25500000000E-02 0.  1.
    8880023    1    1    2    0    0  0.31999194814E+03  0.16465659105E+03  0.20214185708E+04  0.21562583066E+04  0.65864270000E+03 0. -1.
    8880022    1    1    2    0    0 -0.31999194814E+03 -0.16465659105E+03 -0.44361446758E+02  0.39353047001E+03  0.15294330000E+03 0.  0.
<mgrwt>
<rscale>  0 0.63765036E+03</rscale>
<asrwt>0</asrwt>
<pdfrwt beam="1">  1        2 0.34821891E+00 0.75054437E+03</pdfrwt>
<pdfrwt beam="2">  1       -2 0.44056281E-01 0.75054437E+03</pdfrwt>
<totfact> 0.24141955E+01</totfact>
</mgrwt>
</event>
<event>
 4    2  0.3171963E-007  0.7127627E+03  0.7818608E-02  0.9947882E-01
          2   -1    0    0  501    0  0.00000000000E+00  0.00000000000E+00  0.79313234629E+03  0.79313234629E+03  0.25500000000E-02 0. -1.
         -2   -1    0    0    0  501 -0.00000000000E+00 -0.00000000000E+00 -0.73806371039E+03  0.73806371039E+03  0.25500000000E-02 0.  1.
    8880023    1    1    2    0    0  0.27060334893E+03 -0.31531772390E+02  0.58093538500E+03  0.91951974037E+03  0.65864270000E+03 0. -1.
    8880022    1    1    2    0    0 -0.27060334893E+03  0.31531772390E+02 -0.52586674910E+03  0.61167631632E+03  0.15294330000E+03 0.  0.
<mgrwt>
<rscale>  0 0.57995815E+03</rscale>
<asrwt>0</asrwt>
<pdfrwt beam="1">  1        2 0.12202036E+00 0.71276268E+03</pdfrwt>
<pdfrwt beam="2">  1       -2 0.11354826E+00 0.71276268E+03</pdfrwt>
<totfact> 0.21577331E+01</totfact>
</mgrwt>
</event>
<event>
 4    2  0.3171963E-007  0.7150066E+03  0.7818608E-02  0.9939859E-01
          2   -1    0    0  501    0  0.00000000000E+00  0.00000000000E+00  0.86952970501E+03  0.86952970501E+03  0.25500000000E-02 0. -1.
         -2   -1    0    0    0  501 -0.00000000000E+00 -0.00000000000E+00 -0.53350879099E+03  0.53350879099E+03  0.25500000000E-02 0.  1.
    8880023    1    1    2    0    0  0.36866284491E+02 -0.27579894800E+03  0.64284379269E+03  0.96150014598E+03  0.65864270000E+03 0. -1.
    8880022    1    1    2    0    0 -0.36866284491E+02  0.27579894800E+03 -0.30682287867E+03  0.44153835003E+03  0.15294330000E+03 0.  0.
<mgrwt>
<rscale>  0 0.58367839E+03</rscale>
<asrwt>0</asrwt>
<pdfrwt beam="1">  1        2 0.13377380E+00 0.71500657E+03</pdfrwt>
<pdfrwt beam="2">  1       -2 0.82078276E-01 0.71500657E+03</pdfrwt>
<totfact> 0.40837531E+01</totfact>
</mgrwt>
</event>
<event>
 4    2  0.3171963E-007  0.6743051E+03  0.7818608E-02  0.1012748E+00
          2   -1    0    0  501    0  0.00000000000E+00  0.00000000000E+00  0.11972786708E+04  0.11972786708E+04  0.25500000000E-02 0. -1.
         -2   -1    0    0    0  501 -0.00000000000E+00 -0.00000000000E+00 -0.45592890684E+03  0.45592890685E+03  0.25500000000E-02 0.  1.
    8880023    1    1    2    0    0  0.65177838618E+02  0.12895341903E+03  0.10689507883E+04  0.12638604072E+04  0.65864270000E+03 0. -1.
    8880022    1    1    2    0    0 -0.65177838618E+02 -0.12895341903E+03 -0.32760102435E+03  0.38934717040E+03  0.15294330000E+03 0.  0.
<mgrwt>
<rscale>  0 0.50396982E+03</rscale>
<asrwt>0</asrwt>
<pdfrwt beam="1">  1        2 0.18419671E+00 0.67430508E+03</pdfrwt>
<pdfrwt beam="2">  1       -2 0.70142911E-01 0.67430508E+03</pdfrwt>
<totfact> 0.36120007E+01</totfact>
</mgrwt>
</event>
<event>
 4    2  0.3171963E-007  0.7044531E+03  0.7818608E-02  0.9979206E-01
          2   -1    0    0  501    0  0.00000000000E+00  0.00000000000E+00  0.17851104335E+04  0.17851104335E+04  0.25500000000E-02 0. -1.
         -2   -1    0    0    0  501 -0.00000000000E+00 -0.00000000000E+00 -0.23421804739E+03  0.23421804741E+03  0.25500000000E-02 0.  1.
    8880023    1    1    2    0    0 -0.14845363580E+02  0.24944663723E+03  0.15749975531E+04  0.17253612689E+04  0.65864270000E+03 0. -1.
    8880022    1    1    2    0    0  0.14845363580E+02 -0.24944663723E+03 -0.24105167006E+02  0.29396721201E+03  0.15294330000E+03 0.  0.
<mgrwt>
<rscale>  0 0.56571481E+03</rscale>
<asrwt>0</asrwt>
<pdfrwt beam="1">  1        2 0.27463237E+00 0.70445313E+03</pdfrwt>
<pdfrwt beam="2">  1       -2 0.36033547E-01 0.70445313E+03</pdfrwt>
<totfact> 0.65614813E+01</totfact>
</mgrwt>
</event>
<event>
 4    2  0.3171963E-007  0.6815835E+03  0.7818608E-02  0.1008442E+00
          2   -1    0    0  501    0  0.00000000000E+00  0.00000000000E+00  0.23978223483E+04  0.23978223483E+04  0.25500000000E-02 0. -1.
         -2   -1    0    0    0  501 -0.00000000000E+00 -0.00000000000E+00 -0.10469868481E+03  0.10469868484E+03  0.25500000000E-02 0.  1.
    8880023    1    1    2    0    0  0.12197111261E+03 -0.12597175668E+03  0.20731784884E+04  0.21823439433E+04  0.65864270000E+03 0. -1.
    8880022    1    1    2    0    0 -0.12197111261E+03  0.12597175668E+03  0.21994517504E+03  0.32017708980E+03  0.15294330000E+03 0.  0.
<mgrwt>
<rscale>  0 0.52098660E+03</rscale>
<asrwt>0</asrwt>
<pdfrwt beam="1">  1        2 0.36889572E+00 0.68158348E+03</pdfrwt>
<pdfrwt beam="2">  1       -2 0.16107491E-01 0.68158348E+03</pdfrwt>
<totfact> 0.12908176E+02</totfact>
</mgrwt>
</event>
<event>
 4    2  0.3171963E-007  0.9283668E+03  0.7818608E-02  0.9481948E-01
         -2   -1    0    0    0  501 -0.00000000000E+00  0.00000000000E+00  0.95230564635E+03  0.95230564636E+03  0.25500000000E-02 0.  1.
          2   -1    0    0  501    0  0.00000000000E+00 -0.00000000000E+00 -0.10901087139E+04  0.10901087139E+04  0.25500000000E-02 0. -1.
    8880023    1    1    2    0    0 -0.22530367774E+03 -0.61424184000E+03 -0.70292204342E+03  0.11644588402E+04  0.65864270000E+03 0. -1.
    8880022    1    1    2    0    0  0.22530367774E+03  0.61424184000E+03  0.56511897588E+03  0.87795552002E+03  0.15294330000E+03 0.  0.
<mgrwt>
<rscale>  0 0.85627940E+03</rscale>
<asrwt>0</asrwt>
<pdfrwt beam="1">  1        2 0.16770903E+00 0.92836684E+03</pdfrwt>
<pdfrwt beam="2">  1       -2 0.14650856E+00 0.92836684E+03</pdfrwt>
<totfact> 0.70350970E+00</totfact>
</mgrwt>
</event>
<event>
 4    2  0.3171963E-007  0.1019087E+04  0.7818608E-02  0.9357002E-01
         -2   -1    0    0    0  501 -0.00000000000E+00  0.00000000000E+00  0.14920037209E+04  0.14920037209E+04  0.25500000000E-02 0.  1.
          2   -1    0    0  501    0  0.00000000000E+00 -0.00000000000E+00 -0.72339825288E+03  0.72339825288E+03  0.25500000000E-02 0. -1.
    8880023    1    1    2    0    0  0.76238685159E+03  0.15327571292E+03 -0.11836033892E+03  0.10259369044E+04  0.65864270000E+03 0.  0.
    8880022    1    1    2    0    0 -0.76238685159E+03 -0.15327571292E+03  0.88696580694E+03  0.11894650694E+04  0.15294330000E+03 0.  0.
<mgrwt>
<rscale>  0 0.95700349E+03</rscale>
<asrwt>0</asrwt>
<pdfrwt beam="1">  1        2 0.11129204E+00 0.10190865E+04</pdfrwt>
<pdfrwt beam="2">  1       -2 0.22953903E+00 0.10190865E+04</pdfrwt>
<totfact> 0.33603519E+00</totfact>
</mgrwt>
</event>
<event>
 4    2  0.3171963E-007  0.6704837E+03  0.7818608E-02  0.1015318E+00
          2   -1    0    0  501    0  0.00000000000E+00  0.00000000000E+00  0.10053263641E+04  0.10053263641E+04  0.25500000000E-02 0. -1.
         -2   -1    0    0    0  501 -0.00000000000E+00 -0.00000000000E+00 -0.62348999608E+03  0.62348999608E+03  0.25500000000E-02 0.  1.
    8880023    1    1    2    0    0 -0.12221029799E+03 -0.28333311023E+02  0.87215894139E+03  0.11000952499E+04  0.65864270000E+03 0. -1.
    8880022    1    1    2    0    0  0.12221029799E+03  0.28333311023E+02 -0.49032257341E+03  0.52872111029E+03  0.15294330000E+03 0.  0.
<mgrwt>
<rscale>  0 0.49414520E+03</rscale>
<asrwt>0</asrwt>
<pdfrwt beam="1">  1        2 0.15466559E+00 0.67048366E+03</pdfrwt>
<pdfrwt beam="2">  1       -2 0.95921539E-01 0.67048366E+03</pdfrwt>
<totfact> 0.23344719E+01</totfact>
</mgrwt>
</event>
<event>
 4    2  0.3171963E-007  0.8083993E+03  0.7818608E-02  0.9692921E-01
          2   -1    0    0  501    0  0.00000000000E+00  0.00000000000E+00  0.24665846939E+04  0.24665846939E+04  0.25500000000E-02 0. -1.
         -2   -1    0    0    0  501 -0.00000000000E+00 -0.00000000000E+00 -0.25589399933E+03  0.25589399934E+03  0.25500000000E-02 0.  1.
    8880023    1    1    2    0    0 -0.11763038319E+03 -0.45372045756E+03  0.20504440118E+04  0.22040485504E+04  0.65864270000E+03 0. -1.
    8880022    1    1    2    0    0  0.11763038319E+03  0.45372045756E+03  0.16024668274E+03  0.51843014283E+03  0.15294330000E+03 0.  0.
<mgrwt>
<rscale>  0 0.71439844E+03</rscale>
<asrwt>0</asrwt>
<pdfrwt beam="1">  1        2 0.37947455E+00 0.80839926E+03</pdfrwt>
<pdfrwt beam="2">  1       -2 0.39368309E-01 0.80839926E+03</pdfrwt>
<totfact> 0.22995363E+01</totfact>
</mgrwt>
</event>
<event>
 4    2  0.3171963E-007  0.9195627E+03  0.7818608E-02  0.9495330E-01
          2   -1    0    0  501    0  0.00000000000E+00  0.00000000000E+00  0.32698923404E+04  0.32698923404E+04  0.25500000000E-02 0. -1.
         -2   -1    0    0    0  501 -0.00000000000E+00 -0.00000000000E+00 -0.62058826739E+03  0.62058826740E+03  0.25500000000E-02 0.  1.
    8880023    1    1    2    0    0  0.39284228531E+03 -0.50740552274E+03  0.30039276998E+04  0.31415246709E+04  0.65864270000E+03 0.  0.
    8880022    1    1    2    0    0 -0.39284228531E+03  0.50740552274E+03 -0.35462362687E+03  0.74895593688E+03  0.15294330000E+03 0.  0.
<mgrwt>
<rscale>  0 0.84629013E+03</rscale>
<asrwt>0</asrwt>
<pdfrwt beam="1">  1        2 0.50306036E+00 0.91956274E+03</pdfrwt>
<pdfrwt beam="2">  1       -2 0.95475118E-01 0.91956274E+03</pdfrwt>
<totfact> 0.11193360E+00</totfact>
</mgrwt>
</event>
<event>
 4    2  0.3171963E-007  0.7853273E+03  0.7818608E-02  0.9743469E-01
         -2   -1    0    0    0  501 -0.00000000000E+00  0.00000000000E+00  0.19261607780E+03  0.19261607782E+03  0.25500000000E-02 0.  1.
          2   -1    0    0  501    0  0.00000000000E+00 -0.00000000000E+00 -0.35746483893E+04  0.35746483893E+04  0.25500000000E-02 0. -1.
    8880023    1    1    2    0    0 -0.42217171636E+03 -0.68555644785E+02 -0.31702900291E+04  0.32661105170E+04  0.65864270000E+03 0. -1.
    8880022    1    1    2    0    0  0.42217171636E+03  0.68555644785E+02 -0.21174228241E+03  0.50115395010E+03  0.15294330000E+03 0.  0.
<mgrwt>
<rscale>  0 0.68486636E+03</rscale>
<asrwt>0</asrwt>
<pdfrwt beam="1">  1        2 0.54994586E+00 0.78532735E+03</pdfrwt>
<pdfrwt beam="2">  1       -2 0.29633245E-01 0.78532735E+03</pdfrwt>
<totfact> 0.81283161E+00</totfact>
</mgrwt>
</event>
<event>
 4    2  0.3171963E-007  0.8234997E+03  0.7818608E-02  0.9662115E-01
          2   -1    0    0  501    0  0.00000000000E+00  0.00000000000E+00  0.86181577925E+03  0.86181577925E+03  0.25500000000E-02 0. -1.
         -2   -1    0    0    0  501 -0.00000000000E+00 -0.00000000000E+00 -0.96008138264E+03  0.96008138264E+03  0.25500000000E-02 0.  1.
    8880023    1    1    2    0    0 -0.22521921225E+03 -0.44002023088E+03  0.55162349885E+03  0.99118120841E+03  0.65864270000E+03 0. -1.
    8880022    1    1    2    0    0  0.22521921225E+03  0.44002023088E+03 -0.64988910224E+03  0.83071595349E+03  0.15294330000E+03 0.  0.
<mgrwt>
<rscale>  0 0.73317954E+03</rscale>
<asrwt>0</asrwt>
<pdfrwt beam="1">  1        2 0.13258704E+00 0.82349967E+03</pdfrwt>
<pdfrwt beam="2">  1       -2 0.14770483E+00 0.82349967E+03</pdfrwt>
<totfact> 0.98022794E+00</totfact>
</mgrwt>
</event>
<event>
 4    2  0.3171963E-007  0.1163075E+04  0.7818608E-02  0.9193879E-01
          2   -1    0    0  501    0  0.00000000000E+00  0.00000000000E+00  0.29484153445E+04  0.29484153445E+04  0.25500000000E-02 0. -1.
         -2   -1    0    0    0  501 -0.00000000000E+00 -0.00000000000E+00 -0.52114529874E+03  0.52114529875E+03  0.25500000000E-02 0.  1.
    8880023    1    1    2    0    0 -0.21608338742E+02 -0.95836649131E+03  0.41414056375E+03  0.12346075752E+04  0.65864270000E+03 0.  0.
    8880022    1    1    2    0    0  0.21608338742E+02  0.95836649131E+03  0.20131294820E+04  0.22349530680E+04  0.15294330000E+03 0.  0.
<mgrwt>
<rscale>  0 0.11116828E+04</rscale>
<asrwt>0</asrwt>
<pdfrwt beam="1">  1        2 0.45360235E+00 0.11630750E+04</pdfrwt>
<pdfrwt beam="2">  1       -2 0.80176201E-01 0.11630750E+04</pdfrwt>
<totfact> 0.25721392E+00</totfact>
</mgrwt>
</event>
<event>
 4    2  0.3171963E-007  0.8320570E+03  0.7818608E-02  0.9645343E-01
          2   -1    0    0  501    0  0.00000000000E+00  0.00000000000E+00  0.15890000876E+04  0.15890000876E+04  0.25500000000E-02 0. -1.
         -2   -1    0    0    0  501 -0.00000000000E+00 -0.00000000000E+00 -0.40329409999E+03  0.40329409999E+03  0.25500000000E-02 0.  1.
    8880023    1    1    2    0    0  0.38091854647E+02 -0.50700849145E+03  0.12010741898E+04  0.14611290208E+04  0.65864270000E+03 0.  0.
    8880022    1    1    2    0    0 -0.38091854647E+02  0.50700849145E+03 -0.15368202139E+02  0.53116516682E+03  0.15294330000E+03 0.  0.
<mgrwt>
<rscale>  0 0.74366395E+03</rscale>
<asrwt>0</asrwt>
<pdfrwt beam="1">  1        2 0.24446155E+00 0.83205697E+03</pdfrwt>
<pdfrwt beam="2">  1       -2 0.62045246E-01 0.83205697E+03</pdfrwt>
<totfact> 0.27705723E+01</totfact>
</mgrwt>
</event>
<event>
 4    2  0.3171963E-007  0.1140457E+04  0.7818608E-02  0.9217295E-01
          2   -1    0    0  501    0  0.00000000000E+00  0.00000000000E+00  0.26546797329E+04  0.26546797329E+04  0.25500000000E-02 0. -1.
         -2   -1    0    0    0  501 -0.00000000000E+00 -0.00000000000E+00 -0.48709923518E+03  0.48709923519E+03  0.25500000000E-02 0.  1.
    8880023    1    1    2    0    0  0.86028457109E+03 -0.35600769013E+03  0.17964812934E+04  0.21279065446E+04  0.65864270000E+03 0.  0.
    8880022    1    1    2    0    0 -0.86028457109E+03  0.35600769013E+03  0.37109920431E+03  0.10138724235E+04  0.15294330000E+03 0.  0.
<mgrwt>
<rscale>  0 0.10876681E+04</rscale>
<asrwt>0</asrwt>
<pdfrwt beam="1">  1        2 0.40841227E+00 0.11404566E+04</pdfrwt>
<pdfrwt beam="2">  1       -2 0.74938344E-01 0.11404566E+04</pdfrwt>
<totfact> 0.45011391E+00</totfact>
</mgrwt>
</event>
<event>
 4    2  0.3171963E-007  0.8083936E+03  0.7818608E-02  0.9692933E-01
          2   -1    0    0  501    0  0.00000000000E+00  0.00000000000E+00  0.16945401611E+04  0.16945401611E+04  0.25500000000E-02 0. -1.
         -2   -1    0    0    0  501 -0.00000000000E+00 -0.00000000000E+00 -0.54133499773E+03  0.54133499774E+03  0.25500000000E-02 0.  1.
    8880023    1    1    2    0    0 -0.25220332991E+03  0.39507408683E+03  0.14502028745E+04  0.16602977555E+04  0.65864270000E+03 0. -1.
    8880022    1    1    2    0    0  0.25220332991E+03 -0.39507408683E+03 -0.29699771113E+03  0.57557740326E+03  0.15294330000E+03 0.  0.
<mgrwt>
<rscale>  0 0.71439136E+03</rscale>
<asrwt>0</asrwt>
<pdfrwt beam="1">  1        2 0.26069849E+00 0.80839363E+03</pdfrwt>
<pdfrwt beam="2">  1       -2 0.83282308E-01 0.80839363E+03</pdfrwt>
<totfact> 0.12718800E+01</totfact>
</mgrwt>
</event>
<event>
 4    2  0.3171963E-007  0.7374780E+03  0.7818608E-02  0.9867355E-01
          2   -1    0    0  501    0  0.00000000000E+00  0.00000000000E+00  0.16489517163E+04  0.16489517163E+04  0.25500000000E-02 0. -1.
         -2   -1    0    0    0  501 -0.00000000000E+00 -0.00000000000E+00 -0.22509190784E+03  0.22509190786E+03  0.25500000000E-02 0.  1.
    8880023    1    1    2    0    0 -0.34893065613E+02  0.32991829410E+03  0.12881809078E+04  0.14843462751E+04  0.65864270000E+03 0.  0.
    8880022    1    1    2    0    0  0.34893065613E+02 -0.32991829410E+03  0.13567890067E+03  0.38969734912E+03  0.15294330000E+03 0.  0.
<mgrwt>
<rscale>  0 0.61869808E+03</rscale>
<asrwt>0</asrwt>
<pdfrwt beam="1">  1        2 0.25368487E+00 0.73747801E+03</pdfrwt>
<pdfrwt beam="2">  1       -2 0.34629525E-01 0.73747801E+03</pdfrwt>
<totfact> 0.83704289E+01</totfact>
</mgrwt>
</event>
<event>
 4    2  0.3171963E-007  0.8648173E+03  0.7818608E-02  0.9585051E-01
          2   -1    0    0  501    0  0.00000000000E+00  0.00000000000E+00  0.12401030814E+04  0.12401030814E+04  0.25500000000E-02 0. -1.
         -2   -1    0    0    0  501 -0.00000000000E+00 -0.00000000000E+00 -0.11038568245E+04  0.11038568245E+04  0.25500000000E-02 0.  1.
    8880023    1    1    2    0    0  0.55915690209E+03  0.37978292729E+02  0.98795007284E+03  0.13129944191E+04  0.65864270000E+03 0.  0.
    8880022    1    1    2    0    0 -0.55915690209E+03 -0.37978292729E+02 -0.85170381598E+03  0.10309654868E+04  0.15294330000E+03 0.  0.
<mgrwt>
<rscale>  0 0.78293547E+03</rscale>
<asrwt>0</asrwt>
<pdfrwt beam="1">  1        2 0.19078509E+00 0.86481732E+03</pdfrwt>
<pdfrwt beam="2">  1       -2 0.16982413E+00 0.86481732E+03</pdfrwt>
<totfact> 0.38606932E+00</totfact>
</mgrwt>
</event>
<event>
 4    2  0.3171963E-007  0.1016965E+04  0.7818608E-02  0.9359692E-01
         -2   -1    0    0    0  501 -0.00000000000E+00  0.00000000000E+00  0.22175116338E+04  0.22175116338E+04  0.25500000000E-02 0.  1.
          2   -1    0    0  501    0  0.00000000000E+00 -0.00000000000E+00 -0.94183839078E+03  0.94183839078E+03  0.25500000000E-02 0. -1.
    8880023    1    1    2    0    0 -0.71420906710E+03  0.30051993862E+03 -0.56001554616E+03  0.11609627226E+04  0.65864270000E+03 0.  0.
    8880022    1    1    2    0    0  0.71420906710E+03 -0.30051993862E+03  0.18356887891E+04  0.19983873020E+04  0.15294330000E+03 0.  0.
<mgrwt>
<rscale>  0 0.95468461E+03</rscale>
<asrwt>0</asrwt>
<pdfrwt beam="1">  1        2 0.14489821E+00 0.10169646E+04</pdfrwt>
<pdfrwt beam="2">  1       -2 0.34115563E+00 0.10169646E+04</pdfrwt>
<totfact> 0.48981018E-01</totfact>
</mgrwt>
</event>
<event>
 4    2  0.3171963E-007  0.8797857E+03  0.7818608E-02  0.9559294E-01
         -2   -1    0    0    0  501 -0.00000000000E+00  0.00000000000E+00  0.16271317122E+04  0.16271317122E+04  0.25500000000E-02 0.  1.
          2   -1    0    0  501    0  0.00000000000E+00 -0.00000000000E+00 -0.52717262448E+03  0.52717262448E+03  0.25500000000E-02 0. -1.
    8880023    1    1    2    0    0 -0.53209404684E+02  0.58084544478E+03 -0.22563128515E+02  0.88007498118E+03  0.65864270000E+03 0.  0.
    8880022    1    1    2    0    0  0.53209404684E+02 -0.58084544478E+03  0.11225222163E+04  0.12742293555E+04  0.15294330000E+03 0.  0.
<mgrwt>
<rscale>  0 0.80049994E+03</rscale>
<asrwt>0</asrwt>
<pdfrwt beam="1">  1        2 0.81103482E-01 0.87978570E+03</pdfrwt>
<pdfrwt beam="2">  1       -2 0.25032795E+00 0.87978570E+03</pdfrwt>
<totfact> 0.37497140E+00</totfact>
</mgrwt>
</event>
<event>
 4    2  0.3171963E-007  0.8240282E+03  0.7818608E-02  0.9661065E-01
          2   -1    0    0  501    0  0.00000000000E+00  0.00000000000E+00  0.21189671611E+04  0.21189671611E+04  0.25500000000E-02 0. -1.
         -2   -1    0    0    0  501 -0.00000000000E+00 -0.00000000000E+00 -0.33981244140E+03  0.33981244141E+03  0.25500000000E-02 0.  1.
    8880023    1    1    2    0    0  0.10065546269E+03  0.48485128557E+03  0.17563030599E+04  0.19400059113E+04  0.65864270000E+03 0.  0.
    8880022    1    1    2    0    0 -0.10065546269E+03 -0.48485128557E+03  0.22851659734E+02  0.51877369118E+03  0.15294330000E+03 0.  0.
<mgrwt>
<rscale>  0 0.73383025E+03</rscale>
<asrwt>0</asrwt>
<pdfrwt beam="1">  1        2 0.32599495E+00 0.82402821E+03</pdfrwt>
<pdfrwt beam="2">  1       -2 0.52278836E-01 0.82402821E+03</pdfrwt>
<totfact> 0.20323712E+01</totfact>
</mgrwt>
</event>
<event>
 4    2  0.3376533E-007  0.8422974E+03  0.7818608E-02  0.9625864E-01
         -2   -1    0    0    0  501 -0.00000000000E+00  0.00000000000E+00  0.99434297001E+03  0.99434297001E+03  0.25500000000E-02 0.  1.
          2   -1    0    0  501    0  0.00000000000E+00 -0.00000000000E+00 -0.25681689052E+04  0.25681689052E+04  0.25500000000E-02 0. -1.
    8880023    1    1    2    0    0  0.40409246745E+03 -0.33520724731E+03 -0.24158607734E+04  0.25584855097E+04  0.65864270000E+03 0.  0.
    8880022    1    1    2    0    0 -0.40409246745E+03  0.33520724731E+03  0.84203483817E+03  0.10040263655E+04  0.15294330000E+03 0.  0.
<mgrwt>
<rscale>  0 0.75607761E+03</rscale>
<asrwt>0</asrwt>
<pdfrwt beam="1">  1        2 0.39510291E+00 0.84229735E+03</pdfrwt>
<pdfrwt beam="2">  1       -2 0.15297584E+00 0.84229735E+03</pdfrwt>
<totfact> 0.93512368E-01</totfact>
</mgrwt>
</event>
<event>
 4    2  0.3171963E-007  0.9322574E+03  0.7818608E-02  0.9476115E-01
         -2   -1    0    0    0  501 -0.00000000000E+00  0.00000000000E+00  0.25672957680E+03  0.25672957681E+03  0.25500000000E-02 0.  1.
          2   -1    0    0  501    0  0.00000000000E+00 -0.00000000000E+00 -0.27654435068E+04  0.27654435068E+04  0.25500000000E-02 0. -1.
    8880023    1    1    2    0    0 -0.14656252095E+01  0.65976631110E+03 -0.18782191253E+04  0.20968574158E+04  0.65864270000E+03 0.  0.
    8880022    1    1    2    0    0  0.14656252095E+01 -0.65976631110E+03 -0.63049480471E+03  0.92531566782E+03  0.15294330000E+03 0.  0.
<mgrwt>
<rscale>  0 0.86067910E+03</rscale>
<asrwt>0</asrwt>
<pdfrwt beam="1">  1        2 0.42545283E+00 0.93225744E+03</pdfrwt>
<pdfrwt beam="2">  1       -2 0.39496860E-01 0.93225744E+03</pdfrwt>
<totfact> 0.15096076E+01</totfact>
</mgrwt>
</event>
<event>
 4    2  0.3171963E-007  0.7001384E+03  0.7818608E-02  0.9996628E-01
         -2   -1    0    0    0  501 -0.00000000000E+00  0.00000000000E+00  0.44737291972E+03  0.44737291973E+03  0.25500000000E-02 0.  1.
          2   -1    0    0  501    0  0.00000000000E+00 -0.00000000000E+00 -0.10369530755E+04  0.10369530755E+04  0.25500000000E-02 0. -1.
    8880023    1    1    2    0    0  0.23451996419E+03  0.37201329443E+02 -0.84925675308E+03  0.11006501676E+04  0.65864270000E+03 0.  0.
    8880022    1    1    2    0    0 -0.23451996419E+03 -0.37201329443E+02  0.25967659730E+03  0.38367582764E+03  0.15294330000E+03 0.  0.
<mgrwt>
<rscale>  0 0.55798357E+03</rscale>
<asrwt>0</asrwt>
<pdfrwt beam="1">  1        2 0.15953124E+00 0.70013839E+03</pdfrwt>
<pdfrwt beam="2">  1       -2 0.68826603E-01 0.70013839E+03</pdfrwt>
<totfact> 0.46966420E+01</totfact>
</mgrwt>
</event>
<event>
 4    2  0.3171963E-007  0.7713159E+03  0.7818608E-02  0.9776646E-01
          2   -1    0    0  501    0  0.00000000000E+00  0.00000000000E+00  0.30380782036E+03  0.30380782038E+03  0.25500000000E-02 0. -1.
         -2   -1    0    0    0  501 -0.00000000000E+00 -0.00000000000E+00 -0.14218930588E+04  0.14218930588E+04  0.25500000000E-02 0.  1.
    8880023    1    1    2    0    0  0.37611134902E+03 -0.14020797726E+03 -0.35294316860E+03  0.84823175505E+03  0.65864270000E+03 0.  0.
    8880022    1    1    2    0    0 -0.37611134902E+03  0.14020797726E+03 -0.76514206981E+03  0.87746912411E+03  0.15294330000E+03 0.  0.
<mgrwt>
<rscale>  0 0.66631043E+03</rscale>
<asrwt>0</asrwt>
<pdfrwt beam="1">  1        2 0.46739665E-01 0.77131591E+03</pdfrwt>
<pdfrwt beam="2">  1       -2 0.21875278E+00 0.77131591E+03</pdfrwt>
<totfact> 0.11099493E+01</totfact>
</mgrwt>
</event>
<event>
 4    2  0.3171963E-007  0.1074503E+04  0.7818608E-02  0.9289989E-01
         -2   -1    0    0    0  501 -0.00000000000E+00  0.00000000000E+00  0.75933662604E+03  0.75933662604E+03  0.25500000000E-02 0.  1.
          2   -1    0    0  501    0  0.00000000000E+00 -0.00000000000E+00 -0.27524408107E+04  0.27524408107E+04  0.25500000000E-02 0. -1.
    8880023    1    1    2    0    0  0.22681332871E+03 -0.81810946601E+03 -0.23455241235E+04  0.25799304263E+04  0.65864270000E+03 0.  0.
    8880022    1    1    2    0    0 -0.22681332871E+03  0.81810946601E+03  0.35241993887E+03  0.93184701039E+03  0.15294330000E+03 0.  0.
<mgrwt>
<rscale>  0 0.10170976E+04</rscale>
<asrwt>0</asrwt>
<pdfrwt beam="1">  1        2 0.42345243E+00 0.10745034E+04</pdfrwt>
<pdfrwt beam="2">  1       -2 0.11682102E+00 0.10745034E+04</pdfrwt>
<totfact> 0.14034699E+00</totfact>
</mgrwt>
</event>
<event>
 4    2  0.3171963E-007  0.6599850E+03  0.7818608E-02  0.1024172E+00
          2   -1    0    0  501    0  0.00000000000E+00  0.00000000000E+00  0.10111415062E+04  0.10111415062E+04  0.25500000000E-02 0. -1.
         -2   -1    0    0    0  501 -0.00000000000E+00 -0.00000000000E+00 -0.17868520092E+03  0.17868520094E+03  0.25500000000E-02 0.  1.
    8880023    1    1    2    0    0  0.22096047653E+02 -0.35802458750E+02  0.78219441766E+03  0.10234297068E+04  0.65864270000E+03 0. -1.
    8880022    1    1    2    0    0 -0.22096047653E+02  0.35802458750E+02  0.50261887598E+02  0.16639700038E+03  0.15294330000E+03 0.  0.
<mgrwt>
<rscale>  0 0.46210756E+03</rscale>
<asrwt>0</asrwt>
<pdfrwt beam="1">  1        2 0.15556023E+00 0.65998504E+03</pdfrwt>
<pdfrwt beam="2">  1       -2 0.27490031E-01 0.65998504E+03</pdfrwt>
<totfact> 0.30247407E+02</totfact>
</mgrwt>
</event>
<event>
 4    2  0.3171963E-007  0.7432087E+03  0.7818608E-02  0.9850697E-01
          2   -1    0    0  501    0  0.00000000000E+00  0.00000000000E+00  0.87372929182E+03  0.87372929182E+03  0.25500000000E-02 0. -1.
         -2   -1    0    0    0  501 -0.00000000000E+00 -0.00000000000E+00 -0.83741696180E+03  0.83741696180E+03  0.25500000000E-02 0.  1.
    8880023    1    1    2    0    0 -0.14478633925E+02  0.34400481088E+03  0.65244117921E+03  0.98895836077E+03  0.65864270000E+03 0.  0.
    8880022    1    1    2    0    0  0.14478633925E+02 -0.34400481088E+03 -0.61612884920E+03  0.72218789285E+03  0.15294330000E+03 0.  0.
<mgrwt>
<rscale>  0 0.62711387E+03</rscale>
<asrwt>0</asrwt>
<pdfrwt beam="1">  1        2 0.13441989E+00 0.74320868E+03</pdfrwt>
<pdfrwt beam="2">  1       -2 0.12883338E+00 0.74320868E+03</pdfrwt>
<totfact> 0.13802239E+01</totfact>
</mgrwt>
</event>
<event>
 4    2  0.3171963E-007  0.7562343E+03  0.7818608E-02  0.9814956E-01
          2   -1    0    0  501    0  0.00000000000E+00  0.00000000000E+00  0.75204754501E+03  0.75204754502E+03  0.25500000000E-02 0. -1.
         -2   -1    0    0    0  501 -0.00000000000E+00 -0.00000000000E+00 -0.22656848338E+04  0.22656848338E+04  0.25500000000E-02 0.  1.
    8880023    1    1    2    0    0 -0.77157720310E+01 -0.37151120129E+03  0.53738013891E+03  0.92772179331E+03  0.65864270000E+03 0.  0.
    8880022    1    1    2    0    0  0.77157720310E+01  0.37151120129E+03 -0.20510174277E+04  0.20900105855E+04  0.15294330000E+03 0.  0.
<mgrwt>
<rscale>  0 0.64566070E+03</rscale>
<asrwt>0</asrwt>
<pdfrwt beam="1">  1        2 0.11569962E+00 0.75623430E+03</pdfrwt>
<pdfrwt beam="2">  1       -2 0.34856689E+00 0.75623430E+03</pdfrwt>
<totfact> 0.62597819E-01</totfact>
</mgrwt>
</event>
<event>
 4    2  0.3171963E-007  0.8289401E+03  0.7818608E-02  0.9651398E-01
          2   -1    0    0  501    0  0.00000000000E+00  0.00000000000E+00  0.36240194076E+04  0.36240194076E+04  0.25500000000E-02 0. -1.
         -2   -1    0    0    0  501 -0.00000000000E+00 -0.00000000000E+00 -0.15899820149E+03  0.15899820151E+03  0.25500000000E-02 0.  1.
    8880023    1    1    2    0    0  0.22596939156E+03  0.44974369215E+03  0.28769846452E+04  0.29940244503E+04  0.65864270000E+03 0. -1.
    8880022    1    1    2    0    0 -0.22596939156E+03 -0.44974369215E+03  0.58803656100E+03  0.78899315880E+03  0.15294330000E+03 0.  0.
<mgrwt>
<rscale>  0 0.73985749E+03</rscale>
<asrwt>0</asrwt>
<pdfrwt beam="1">  1        2 0.55754144E+00 0.82894014E+03</pdfrwt>
<pdfrwt beam="2">  1       -2 0.24461262E-01 0.82894014E+03</pdfrwt>
<totfact> 0.10571424E+01</totfact>
</mgrwt>
</event>
<event>
 4    2  0.3171963E-007  0.8199010E+03  0.7818608E-02  0.9669311E-01
         -2   -1    0    0    0  501 -0.00000000000E+00  0.00000000000E+00  0.44388580906E+03  0.44388580907E+03  0.25500000000E-02 0.  1.
          2   -1    0    0  501    0  0.00000000000E+00 -0.00000000000E+00 -0.10213579519E+04  0.10213579519E+04  0.25500000000E-02 0. -1.
    8880023    1    1    2    0    0 -0.36079883317E+03 -0.32901629378E+03 -0.46046272543E+03  0.94035293766E+03  0.65864270000E+03 0.  0.
    8880022    1    1    2    0    0  0.36079883317E+03  0.32901629378E+03 -0.11700941736E+03  0.52489082327E+03  0.15294330000E+03 0.  0.
<mgrwt>
<rscale>  0 0.72873774E+03</rscale>
<asrwt>0</asrwt>
<pdfrwt beam="1">  1        2 0.15713199E+00 0.81990105E+03</pdfrwt>
<pdfrwt beam="2">  1       -2 0.68290125E-01 0.81990105E+03</pdfrwt>
<totfact> 0.48353495E+01</totfact>
</mgrwt>
</event>
<event>
 4    2  0.3171963E-007  0.7323206E+03  0.7818608E-02  0.9882909E-01
          2   -1    0    0  501    0  0.00000000000E+00  0.00000000000E+00  0.20197205053E+04  0.20197205053E+04  0.25500000000E-02 0. -1.
         -2   -1    0    0    0  501 -0.00000000000E+00 -0.00000000000E+00 -0.19476976639E+03  0.19476976641E+03  0.25500000000E-02 0.  1.
    8880023    1    1    2    0    0  0.27929780259E+03 -0.15644810431E+03  0.16773098621E+04  0.18302081444E+04  0.65864270000E+03 0. -1.
    8880022    1    1    2    0    0 -0.27929780259E+03  0.15644810431E+03  0.14764087676E+03  0.38428212732E+03  0.15294330000E+03 0.  0.
<mgrwt>
<rscale>  0 0.61096783E+03</rscale>
<asrwt>0</asrwt>
<pdfrwt beam="1">  1        2 0.31072624E+00 0.73232061E+03</pdfrwt>
<pdfrwt beam="2">  1       -2 0.29964579E-01 0.73232061E+03</pdfrwt>
<totfact> 0.68975360E+01</totfact>
</mgrwt>
</event>
<event>
 4    2  0.3171963E-007  0.9321489E+03  0.7818608E-02  0.9476277E-01
         -2   -1    0    0    0  501 -0.00000000000E+00  0.00000000000E+00  0.11156610290E+04  0.11156610290E+04  0.25500000000E-02 0.  1.
          2   -1    0    0  501    0  0.00000000000E+00 -0.00000000000E+00 -0.72595137911E+03  0.72595137911E+03  0.25500000000E-02 0. -1.
    8880023    1    1    2    0    0  0.17518429084E+03  0.63592591862E+03  0.62781232262E+03  0.11238548965E+04  0.65864270000E+03 0.  1.
    8880022    1    1    2    0    0 -0.17518429084E+03 -0.63592591862E+03 -0.23810267270E+03  0.71775751163E+03  0.15294330000E+03 0.  0.
<mgrwt>
<rscale>  0 0.86055644E+03</rscale>
<asrwt>0</asrwt>
<pdfrwt beam="1">  1        2 0.11168483E+00 0.93214887E+03</pdfrwt>
<pdfrwt beam="2">  1       -2 0.17164016E+00 0.93214887E+03</pdfrwt>
<totfact> 0.81025414E+00</totfact>
</mgrwt>
</event>
<event>
 4    2  0.3171963E-007  0.1248216E+04  0.7818608E-02  0.9111621E-01
         -2   -1    0    0    0  501 -0.00000000000E+00  0.00000000000E+00  0.91725045278E+03  0.91725045278E+03  0.25500000000E-02 0.  1.
          2   -1    0    0  501    0  0.00000000000E+00 -0.00000000000E+00 -0.21847251232E+04  0.21847251232E+04  0.25500000000E-02 0. -1.
    8880023    1    1    2    0    0 -0.68620601677E+03  0.80830300306E+03 -0.15538261741E+04  0.19930926792E+04  0.65864270000E+03 0. -1.
    8880022    1    1    2    0    0  0.68620601677E+03 -0.80830300306E+03  0.28635150367E+03  0.11088828968E+04  0.15294330000E+03 0.  0.
<mgrwt>
<rscale>  0 0.12014127E+04</rscale>
<asrwt>0</asrwt>
<pdfrwt beam="1">  1        2 0.33611155E+00 0.12482158E+04</pdfrwt>
<pdfrwt beam="2">  1       -2 0.14111546E+00 0.12482158E+04</pdfrwt>
<totfact> 0.17974301E+00</totfact>
</mgrwt>
</event>
<event>
 4    2  0.3171963E-007  0.8826124E+03  0.7818608E-02  0.9554541E-01
          2   -1    0    0  501    0  0.00000000000E+00  0.00000000000E+00  0.84250155945E+03  0.84250155946E+03  0.25500000000E-02 0. -1.
         -2   -1    0    0    0  501 -0.00000000000E+00 -0.00000000000E+00 -0.90269856143E+03  0.90269856143E+03  0.25500000000E-02 0.  1.
    8880023    1    1    2    0    0 -0.46378062086E+03  0.36069646504E+03  0.41396047166E+03  0.97486813597E+03  0.65864270000E+03 0.  0.
    8880022    1    1    2    0    0  0.46378062086E+03 -0.36069646504E+03 -0.47415747363E+03  0.77033198492E+03  0.15294330000E+03 0.  0.
<mgrwt>
<rscale>  0 0.80379421E+03</rscale>
<asrwt>0</asrwt>
<pdfrwt beam="1">  1        2 0.12961562E+00 0.88261238E+03</pdfrwt>
<pdfrwt beam="2">  1       -2 0.13887670E+00 0.88261238E+03</pdfrwt>
<totfact> 0.11809522E+01</totfact>
</mgrwt>
</event>
<event>
 4    2  0.3171963E-007  0.7357792E+03  0.7818608E-02  0.9872417E-01
         -2   -1    0    0    0  501 -0.00000000000E+00  0.00000000000E+00  0.30813532753E+03  0.30813532754E+03  0.25500000000E-02 0.  1.
          2   -1    0    0  501    0  0.00000000000E+00 -0.00000000000E+00 -0.11734740097E+04  0.11734740097E+04  0.25500000000E-02 0. -1.
    8880023    1    1    2    0    0 -0.31181770373E+03  0.10163908581E+03 -0.84315895459E+03  0.11190567515E+04  0.65864270000E+03 0. -1.
    8880022    1    1    2    0    0  0.31181770373E+03 -0.10163908581E+03 -0.22179727627E+02  0.36255258578E+03  0.15294330000E+03 0.  0.
<mgrwt>
<rscale>  0 0.61616896E+03</rscale>
<asrwt>0</asrwt>
<pdfrwt beam="1">  1        2 0.18053446E+00 0.73577917E+03</pdfrwt>
<pdfrwt beam="2">  1       -2 0.47405436E-01 0.73577917E+03</pdfrwt>
<totfact> 0.84261430E+01</totfact>
</mgrwt>
</event>
<event>
 4    2  0.3171963E-007  0.9245461E+03  0.7818608E-02  0.9487723E-01
         -2   -1    0    0    0  501 -0.00000000000E+00  0.00000000000E+00  0.32536482282E+03  0.32536482283E+03  0.25500000000E-02 0.  1.
          2   -1    0    0  501    0  0.00000000000E+00 -0.00000000000E+00 -0.25676617144E+04  0.25676617144E+04  0.25500000000E-02 0. -1.
    8880023    1    1    2    0    0 -0.43662315699E+03  0.47993284806E+03 -0.19638559374E+04  0.21706026050E+04  0.65864270000E+03 0.  0.
    8880022    1    1    2    0    0  0.43662315699E+03 -0.47993284806E+03 -0.27844095421E+03  0.72242393223E+03  0.15294330000E+03 0.  0.
<mgrwt>
<rscale>  0 0.85195010E+03</rscale>
<asrwt>0</asrwt>
<pdfrwt beam="1">  1        2 0.39502487E+00 0.92454612E+03</pdfrwt>
<pdfrwt beam="2">  1       -2 0.50056128E-01 0.92454612E+03</pdfrwt>
<totfact> 0.12280968E+01</totfact>
</mgrwt>
</event>
<event>
 4    2  0.3171963E-007  0.6665089E+03  0.7818608E-02  0.1018300E+00
          2   -1    0    0  501    0  0.00000000000E+00  0.00000000000E+00  0.81576246021E+03  0.81576246021E+03  0.25500000000E-02 0. -1.
         -2   -1    0    0    0  501 -0.00000000000E+00 -0.00000000000E+00 -0.27320453501E+03  0.27320453503E+03  0.25500000000E-02 0.  1.
    8880023    1    1    2    0    0  0.97530989994E+02 -0.30192177095E+02  0.59950636326E+03  0.89646078967E+03  0.65864270000E+03 0. -1.
    8880022    1    1    2    0    0 -0.97530989994E+02  0.30192177095E+02 -0.56948438071E+02  0.19250620556E+03  0.15294330000E+03 0. -1.
<mgrwt>
<rscale>  0 0.48305207E+03</rscale>
<asrwt>0</asrwt>
<pdfrwt beam="1">  1        2 0.12550191E+00 0.66650887E+03</pdfrwt>
<pdfrwt beam="2">  1       -2 0.42031468E-01 0.66650887E+03</pdfrwt>
<totfact> 0.18270481E+02</totfact>
</mgrwt>
</event>
<event>
 4    2  0.3171963E-007  0.9848945E+03  0.7818608E-02  0.9401593E-01
          2   -1    0    0  501    0  0.00000000000E+00  0.00000000000E+00  0.13855952924E+04  0.13855952924E+04  0.25500000000E-02 0. -1.
         -2   -1    0    0    0  501 -0.00000000000E+00 -0.00000000000E+00 -0.60357960739E+03  0.60357960740E+03  0.25500000000E-02 0.  1.
    8880023    1    1    2    0    0 -0.33927892863E+03 -0.64891975536E+03  0.12358875278E+03  0.99261846970E+03  0.65864270000E+03 0.  0.
    8880022    1    1    2    0    0  0.33927892863E+03  0.64891975536E+03  0.65842693226E+03  0.99655643014E+03  0.15294330000E+03 0.  0.
<mgrwt>
<rscale>  0 0.91944739E+03</rscale>
<asrwt>0</asrwt>
<pdfrwt beam="1">  1        2 0.21316850E+00 0.98489454E+03</pdfrwt>
<pdfrwt beam="2">  1       -2 0.92858403E-01 0.98489454E+03</pdfrwt>
<totfact> 0.14450284E+01</totfact>
</mgrwt>
</event>
<event>
 4    2  0.3171963E-007  0.9092362E+03  0.7818608E-02  0.9511364E-01
         -2   -1    0    0    0  501 -0.00000000000E+00  0.00000000000E+00  0.13769928596E+04  0.13769928596E+04  0.25500000000E-02 0.  1.
          2   -1    0    0  501    0  0.00000000000E+00 -0.00000000000E+00 -0.64305706381E+03  0.64305706382E+03  0.25500000000E-02 0. -1.
    8880023    1    1    2    0    0 -0.62660384708E+03  0.16365149141E+02 -0.15427254314E+03  0.92223121998E+03  0.65864270000E+03 0. -1.
    8880022    1    1    2    0    0  0.62660384708E+03 -0.16365149141E+02  0.88820833895E+03  0.10978187035E+04  0.15294330000E+03 0.  0.
<mgrwt>
<rscale>  0 0.83451138E+03</rscale>
<asrwt>0</asrwt>
<pdfrwt beam="1">  1        2 0.98931857E-01 0.90923617E+03</pdfrwt>
<pdfrwt beam="2">  1       -2 0.21184505E+00 0.90923617E+03</pdfrwt>
<totfact> 0.50961071E+00</totfact>
</mgrwt>
</event>
<event>
 4    2  0.3171963E-007  0.7679952E+03  0.7818608E-02  0.9784832E-01
         -2   -1    0    0    0  501 -0.00000000000E+00  0.00000000000E+00  0.48924397759E+03  0.48924397759E+03  0.25500000000E-02 0.  1.
          2   -1    0    0  501    0  0.00000000000E+00 -0.00000000000E+00 -0.14394701874E+04  0.14394701874E+04  0.25500000000E-02 0. -1.
    8880023    1    1    2    0    0 -0.38621723356E+03 -0.82720786143E+02 -0.12090442804E+04  0.14323424025E+04  0.65864270000E+03 0.  0.
    8880022    1    1    2    0    0  0.38621723356E+03  0.82720786143E+02  0.25881807052E+03  0.49637176249E+03  0.15294330000E+03 0.  1.
<mgrwt>
<rscale>  0 0.66182952E+03</rscale>
<asrwt>0</asrwt>
<pdfrwt beam="1">  1        2 0.22145695E+00 0.76799524E+03</pdfrwt>
<pdfrwt beam="2">  1       -2 0.75268305E-01 0.76799524E+03</pdfrwt>
<totfact> 0.22213365E+01</totfact>
</mgrwt>
</event>
<event>
 4    2  0.3171963E-007  0.8080974E+03  0.7818608E-02  0.9693554E-01
         -2   -1    0    0    0  501 -0.00000000000E+00  0.00000000000E+00  0.84944300406E+03  0.84944300406E+03  0.25500000000E-02 0.  1.
          2   -1    0    0  501    0  0.00000000000E+00 -0.00000000000E+00 -0.15356248284E+04  0.15356248284E+04  0.25500000000E-02 0. -1.
    8880023    1    1    2    0    0  0.99815625390E+02 -0.45743637624E+03 -0.13410124046E+04  0.15656741912E+04  0.65864270000E+03 0.  0.
    8880022    1    1    2    0    0 -0.99815625390E+02  0.45743637624E+03  0.65483058030E+03  0.81939364123E+03  0.15294330000E+03 0.  0.
<mgrwt>
<rscale>  0 0.71401900E+03</rscale>
<asrwt>0</asrwt>
<pdfrwt beam="1">  1        2 0.23624997E+00 0.80809740E+03</pdfrwt>
<pdfrwt beam="2">  1       -2 0.13068354E+00 0.80809740E+03</pdfrwt>
<totfact> 0.52856823E+00</totfact>
</mgrwt>
</event>
<event>
 4    2  0.3171963E-007  0.6661394E+03  0.7818608E-02  0.1018596E+00
         -2   -1    0    0    0  501 -0.00000000000E+00  0.00000000000E+00  0.43678356960E+03  0.43678356960E+03  0.25500000000E-02 0.  1.
          2   -1    0    0  501    0  0.00000000000E+00 -0.00000000000E+00 -0.91188004418E+03  0.91188004419E+03  0.25500000000E-02 0. -1.
    8880023    1    1    2    0    0  0.89840197584E+02 -0.43129704025E+02 -0.75979975372E+03  0.10104639056E+04  0.65864270000E+03 0. -1.
    8880022    1    1    2    0    0 -0.89840197584E+02  0.43129704025E+02  0.28470327913E+03  0.33819970821E+03  0.15294330000E+03 0.  0.
<mgrwt>
<rscale>  0 0.48196663E+03</rscale>
<asrwt>0</asrwt>
<pdfrwt beam="1">  1        2 0.14028924E+00 0.66613935E+03</pdfrwt>
<pdfrwt beam="2">  1       -2 0.67197472E-01 0.66613935E+03</pdfrwt>
<totfact> 0.59749419E+01</totfact>
</mgrwt>
</event>
<event>
 4    2  0.3171963E-007  0.6760762E+03  0.7818608E-02  0.1011636E+00
         -2   -1    0    0    0  501 -0.00000000000E+00  0.00000000000E+00  0.47915372418E+03  0.47915372419E+03  0.25500000000E-02 0.  1.
          2   -1    0    0  501    0  0.00000000000E+00 -0.00000000000E+00 -0.73360701977E+03  0.73360701977E+03  0.25500000000E-02 0. -1.
    8880023    1    1    2    0    0  0.13524504947E+03 -0.70552538491E+02 -0.53254583284E+03  0.86063009152E+03  0.65864270000E+03 0.  0.
    8880022    1    1    2    0    0 -0.13524504947E+03  0.70552538491E+02  0.27809253726E+03  0.35213065244E+03  0.15294330000E+03 0.  0.
<mgrwt>
<rscale>  0 0.50829458E+03</rscale>
<asrwt>0</asrwt>
<pdfrwt beam="1">  1        2 0.11286262E+00 0.67607625E+03</pdfrwt>
<pdfrwt beam="2">  1       -2 0.73715958E-01 0.67607625E+03</pdfrwt>
<totfact> 0.65204254E+01</totfact>
</mgrwt>
</event>
<event>
 4    2  0.3171963E-007  0.9334677E+03  0.7818608E-02  0.9474310E-01
          2   -1    0    0  501    0  0.00000000000E+00  0.00000000000E+00  0.18340192430E+04  0.18340192430E+04  0.25500000000E-02 0. -1.
         -2   -1    0    0    0  501 -0.00000000000E+00 -0.00000000000E+00 -0.97461287881E+03  0.97461287881E+03  0.25500000000E-02 0.  1.
    8880023    1    1    2    0    0  0.21057507934E+03 -0.62706448342E+03  0.15695532589E+04  0.18261597327E+04  0.65864270000E+03 0. -1.
    8880022    1    1    2    0    0 -0.21057507934E+03  0.62706448342E+03 -0.71014689470E+03  0.98247238917E+03  0.15294330000E+03 0.  1.
<mgrwt>
<rscale>  0 0.86204595E+03</rscale>
<asrwt>0</asrwt>
<pdfrwt beam="1">  1        2 0.28215680E+00 0.93346769E+03</pdfrwt>
<pdfrwt beam="2">  1       -2 0.14994044E+00 0.93346769E+03</pdfrwt>
<totfact> 0.24895151E+00</totfact>
</mgrwt>
</event>
<event>
 4    2  0.3171963E-007  0.6739544E+03  0.7818608E-02  0.1012974E+00
         -2   -1    0    0    0  501 -0.00000000000E+00  0.00000000000E+00  0.32272408863E+03  0.32272408864E+03  0.25500000000E-02 0.  1.
          2   -1    0    0  501    0  0.00000000000E+00 -0.00000000000E+00 -0.84066578306E+03  0.84066578307E+03  0.25500000000E-02 0. -1.
    8880023    1    1    2    0    0  0.46210224347E+02 -0.13516264813E+03 -0.63296672585E+03  0.92458715575E+03  0.65864270000E+03 0. -1.
    8880022    1    1    2    0    0 -0.46210224347E+02  0.13516264813E+03  0.11502503141E+03  0.23880271596E+03  0.15294330000E+03 0. -1.
<mgrwt>
<rscale>  0 0.50309751E+03</rscale>
<asrwt>0</asrwt>
<pdfrwt beam="1">  1        2 0.12933320E+00 0.67395440E+03</pdfrwt>
<pdfrwt beam="2">  1       -2 0.49649860E-01 0.67395440E+03</pdfrwt>
<totfact> 0.12577986E+02</totfact>
</mgrwt>
</event>
<event>
 4    2  0.3171963E-007  0.1101155E+04  0.7818608E-02  0.9259771E-01
          2   -1    0    0  501    0  0.00000000000E+00  0.00000000000E+00  0.19026841922E+04  0.19026841922E+04  0.25500000000E-02 0. -1.
         -2   -1    0    0    0  501 -0.00000000000E+00 -0.00000000000E+00 -0.62824566609E+03  0.62824566610E+03  0.25500000000E-02 0.  1.
    8880023    1    1    2    0    0 -0.52906117835E+03 -0.70627691783E+03  0.12054198029E+04  0.16326603819E+04  0.65864270000E+03 0.  0.
    8880022    1    1    2    0    0  0.52906117835E+03  0.70627691783E+03  0.69018723222E+02  0.89826947642E+03  0.15294330000E+03 0.  0.
<mgrwt>
<rscale>  0 0.10457230E+04</rscale>
<asrwt>0</asrwt>
<pdfrwt beam="1">  1        2 0.29272064E+00 0.11011553E+04</pdfrwt>
<pdfrwt beam="2">  1       -2 0.96653180E-01 0.11011553E+04</pdfrwt>
<totfact> 0.66958158E+00</totfact>
</mgrwt>
</event>
<event>
 4    2  0.3171963E-007  0.7241841E+03  0.7818608E-02  0.9908675E-01
         -2   -1    0    0    0  501 -0.00000000000E+00  0.00000000000E+00  0.67156335433E+03  0.67156335433E+03  0.25500000000E-02 0.  1.
          2   -1    0    0  501    0  0.00000000000E+00 -0.00000000000E+00 -0.97715909863E+03  0.97715909864E+03  0.25500000000E-02 0. -1.
    8880023    1    1    2    0    0  0.28283780737E+03  0.10312698292E+03 -0.78133246613E+03  0.10653276626E+04  0.65864270000E+03 0.  0.
    8880022    1    1    2    0    0 -0.28283780737E+03 -0.10312698292E+03  0.47573672182E+03  0.58339479033E+03  0.15294330000E+03 0.  1.
<mgrwt>
<rscale>  0 0.59842716E+03</rscale>
<asrwt>0</asrwt>
<pdfrwt beam="1">  1        2 0.15033217E+00 0.72418410E+03</pdfrwt>
<pdfrwt beam="2">  1       -2 0.10331744E+00 0.72418410E+03</pdfrwt>
<totfact> 0.20292162E+01</totfact>
</mgrwt>
</event>
<event>
 4    2  0.3171963E-007  0.8026426E+03  0.7818608E-02  0.9705111E-01
          2   -1    0    0  501    0  0.00000000000E+00  0.00000000000E+00  0.17018205148E+04  0.17018205148E+04  0.25500000000E-02 0. -1.
         -2   -1    0    0    0  501 -0.00000000000E+00 -0.00000000000E+00 -0.24566548115E+03  0.24566548116E+03  0.25500000000E-02 0.  1.
    8880023    1    1    2    0    0 -0.34844221350E+03 -0.29835033678E+03  0.80877097592E+03  0.11394496906E+04  0.65864270000E+03 0.  0.
    8880022    1    1    2    0    0  0.34844221350E+03  0.29835033678E+03  0.64738405774E+03  0.80803630540E+03  0.15294330000E+03 0.  1.
<mgrwt>
<rscale>  0 0.70713291E+03</rscale>
<asrwt>0</asrwt>
<pdfrwt beam="1">  1        2 0.26181855E+00 0.80264258E+03</pdfrwt>
<pdfrwt beam="2">  1       -2 0.37794688E-01 0.80264258E+03</pdfrwt>
<totfact> 0.65789116E+01</totfact>
</mgrwt>
</event>
<event>
 4    2  0.3171963E-007  0.9645526E+03  0.7818608E-02  0.9429478E-01
         -2   -1    0    0    0  501 -0.00000000000E+00  0.00000000000E+00  0.68787883858E+03  0.68787883859E+03  0.25500000000E-02 0.  1.
          2   -1    0    0  501    0  0.00000000000E+00 -0.00000000000E+00 -0.13568502662E+04  0.13568502662E+04  0.25500000000E-02 0. -1.
    8880023    1    1    2    0    0 -0.23359608909E+03 -0.66481910474E+03  0.12450993630E+03  0.97255565670E+03  0.65864270000E+03 0.  1.
    8880022    1    1    2    0    0  0.23359608909E+03  0.66481910474E+03 -0.79348136387E+03  0.10721734480E+04  0.15294330000E+03 0.  0.
<mgrwt>
<rscale>  0 0.89688950E+03</rscale>
<asrwt>0</asrwt>
<pdfrwt beam="1">  1        2 0.20874619E+00 0.96455263E+03</pdfrwt>
<pdfrwt beam="2">  1       -2 0.10582751E+00 0.96455263E+03</pdfrwt>
<totfact> 0.11026402E+01</totfact>
</mgrwt>
</event>
<event>
 4    2  0.3171963E-007  0.6734384E+03  0.7818608E-02  0.1013309E+00
         -2   -1    0    0    0  501 -0.00000000000E+00  0.00000000000E+00  0.45996992494E+03  0.45996992495E+03  0.25500000000E-02 0.  1.
          2   -1    0    0  501    0  0.00000000000E+00 -0.00000000000E+00 -0.28837133771E+04  0.28837133771E+04  0.25500000000E-02 0. -1.
    8880023    1    1    2    0    0  0.13990179425E+03 -0.11686313639E+02 -0.28184065120E+04  0.28977464614E+04  0.65864270000E+03 0. -1.
    8880022    1    1    2    0    0 -0.13990179425E+03  0.11686313639E+02  0.39466305983E+03  0.44593684056E+03  0.15294330000E+03 0.  0.
<mgrwt>
<rscale>  0 0.50180386E+03</rscale>
<asrwt>0</asrwt>
<pdfrwt beam="1">  1        2 0.44364820E+00 0.67343841E+03</pdfrwt>
<pdfrwt beam="2">  1       -2 0.70764605E-01 0.67343841E+03</pdfrwt>
<totfact> 0.40286394E+00</totfact>
</mgrwt>
</event>
<event>
 4    2  0.3870883E-007  0.8078703E+03  0.7818608E-02  0.9694030E-01
         -2   -1    0    0    0  501 -0.00000000000E+00  0.00000000000E+00  0.84276353568E+03  0.84276353568E+03  0.25500000000E-02 0.  1.
          2   -1    0    0  501    0  0.00000000000E+00 -0.00000000000E+00 -0.20338148511E+04  0.20338148511E+04  0.25500000000E-02 0. -1.
    8880023    1    1    2    0    0 -0.27818326583E+03 -0.37610948692E+03 -0.18705546591E+04  0.20375547145E+04  0.65864270000E+03 0.  0.
    8880022    1    1    2    0    0  0.27818326583E+03  0.37610948692E+03  0.67950334370E+03  0.83902367229E+03  0.15294330000E+03 0.  0.
<mgrwt>
<rscale>  0 0.71373348E+03</rscale>
<asrwt>0</asrwt>
<pdfrwt beam="1">  1        2 0.31289459E+00 0.80787034E+03</pdfrwt>
<pdfrwt beam="2">  1       -2 0.12965593E+00 0.80787034E+03</pdfrwt>
<totfact> 0.28741608E+00</totfact>
</mgrwt>
</event>
<event>
 4    2  0.3171963E-007  0.7138570E+03  0.7818608E-02  0.9943948E-01
          2   -1    0    0  501    0  0.00000000000E+00  0.00000000000E+00  0.15980624966E+04  0.15980624966E+04  0.25500000000E-02 0. -1.
         -2   -1    0    0    0  501 -0.00000000000E+00 -0.00000000000E+00 -0.35503499045E+03  0.35503499045E+03  0.25500000000E-02 0.  1.
    8880023    1    1    2    0    0 -0.27343856352E+03  0.31827631564E+02  0.14218211673E+04  0.15909642624E+04  0.65864270000E+03 0. -1.
    8880022    1    1    2    0    0  0.27343856352E+03 -0.31827631564E+02 -0.17879366113E+03  0.36213322469E+03  0.15294330000E+03 0.  0.
<mgrwt>
<rscale>  0 0.58177864E+03</rscale>
<asrwt>0</asrwt>
<pdfrwt beam="1">  1        2 0.24585577E+00 0.71385703E+03</pdfrwt>
<pdfrwt beam="2">  1       -2 0.54620767E-01 0.71385703E+03</pdfrwt>
<totfact> 0.36274642E+01</totfact>
</mgrwt>
</event>
<event>
 4    2  0.3171963E-007  0.1692602E+04  0.7818608E-02  0.8784393E-01
          2   -1    0    0  501    0  0.00000000000E+00  0.00000000000E+00  0.15891407027E+04  0.15891407027E+04  0.25500000000E-02 0. -1.
         -2   -1    0    0    0  501 -0.00000000000E+00 -0.00000000000E+00 -0.20742579769E+04  0.20742579769E+04  0.25500000000E-02 0.  1.
    8880023    1    1    2    0    0  0.14128827011E+04 -0.65943436438E+03 -0.10570839984E+04  0.19955771080E+04  0.65864270000E+03 0.  0.
    8880022    1    1    2    0    0 -0.14128827011E+04  0.65943436438E+03  0.57196672431E+03  0.16678215716E+04  0.15294330000E+03 0.  0.
<mgrwt>
<rscale>  0 0.16602028E+04</rscale>
<asrwt>0</asrwt>
<pdfrwt beam="1">  1        2 0.24448319E+00 0.16926020E+04</pdfrwt>
<pdfrwt beam="2">  1       -2 0.31911661E+00 0.16926020E+04</pdfrwt>
<totfact> 0.25271228E-01</totfact>
</mgrwt>
</event>
<event>
 4    2  0.3171963E-007  0.6946015E+03  0.7818608E-02  0.1002038E+00
          2   -1    0    0  501    0  0.00000000000E+00  0.00000000000E+00  0.20629163078E+04  0.20629163078E+04  0.25500000000E-02 0. -1.
         -2   -1    0    0    0  501 -0.00000000000E+00 -0.00000000000E+00 -0.33211044242E+03  0.33211044243E+03  0.25500000000E-02 0.  1.
    8880023    1    1    2    0    0  0.19806368986E+03 -0.97117741820E+02  0.19362070309E+04  0.20570291573E+04  0.65864270000E+03 0. -1.
    8880022    1    1    2    0    0 -0.19806368986E+03  0.97117741820E+02 -0.20540116555E+03  0.33799759295E+03  0.15294330000E+03 0.  0.
<mgrwt>
<rscale>  0 0.54765633E+03</rscale>
<asrwt>0</asrwt>
<pdfrwt beam="1">  1        2 0.31737174E+00 0.69460153E+03</pdfrwt>
<pdfrwt beam="2">  1       -2 0.51093914E-01 0.69460153E+03</pdfrwt>
<totfact> 0.23273842E+01</totfact>
</mgrwt>
</event>
<event>
 4    2  0.3171963E-007  0.1856003E+04  0.7818608E-02  0.8692174E-01
         -2   -1    0    0    0  501 -0.00000000000E+00  0.00000000000E+00  0.16013764330E+04  0.16013764330E+04  0.25500000000E-02 0.  1.
          2   -1    0    0  501    0  0.00000000000E+00 -0.00000000000E+00 -0.21168772593E+04  0.21168772593E+04  0.25500000000E-02 0. -1.
    8880023    1    1    2    0    0  0.67022359422E+02 -0.17339108007E+04 -0.66114172451E+03  0.19702429413E+04  0.65864270000E+03 0.  0.
    8880022    1    1    2    0    0 -0.67022359422E+02  0.17339108007E+04  0.14564089814E+03  0.17480107510E+04  0.15294330000E+03 0.  0.
<mgrwt>
<rscale>  0 0.18268040E+04</rscale>
<asrwt>0</asrwt>
<pdfrwt beam="1">  1        2 0.32567343E+00 0.18560035E+04</pdfrwt>
<pdfrwt beam="2">  1       -2 0.24636560E+00 0.18560035E+04</pdfrwt>
<totfact> 0.35192738E-01</totfact>
</mgrwt>
</event>
<event>
 4    2  0.3171963E-007  0.9834941E+03  0.7818608E-02  0.9403478E-01
          2   -1    0    0  501    0  0.00000000000E+00  0.00000000000E+00  0.23193218270E+04  0.23193218270E+04  0.25500000000E-02 0. -1.
         -2   -1    0    0    0  501 -0.00000000000E+00 -0.00000000000E+00 -0.57253045889E+03  0.57253045890E+03  0.25500000000E-02 0.  1.
    8880023    1    1    2    0    0  0.57645799518E+03 -0.44849367194E+03  0.18913365433E+04  0.21317632420E+04  0.65864270000E+03 0. -1.
    8880022    1    1    2    0    0 -0.57645799518E+03  0.44849367194E+03 -0.14454517512E+03  0.76008904389E+03  0.15294330000E+03 0.  0.
<mgrwt>
<rscale>  0 0.91789988E+03</rscale>
<asrwt>0</asrwt>
<pdfrwt beam="1">  1        2 0.35681874E+00 0.98349408E+03</pdfrwt>
<pdfrwt beam="2">  1       -2 0.88081609E-01 0.98349408E+03</pdfrwt>
<totfact> 0.49509585E+00</totfact>
</mgrwt>
</event>
<event>
 4    2  0.3171963E-007  0.7256158E+03  0.7818608E-02  0.9904023E-01
         -2   -1    0    0    0  501 -0.00000000000E+00  0.00000000000E+00  0.42855758135E+03  0.42855758136E+03  0.25500000000E-02 0.  1.
          2   -1    0    0  501    0  0.00000000000E+00 -0.00000000000E+00 -0.10006460807E+04  0.10006460807E+04  0.25500000000E-02 0. -1.
    8880023    1    1    2    0    0 -0.17174322391E+03  0.25142069056E+03 -0.75106326887E+03  0.10443248243E+04  0.65864270000E+03 0.  0.
    8880022    1    1    2    0    0  0.17174322391E+03 -0.25142069056E+03  0.17897476951E+03  0.38487883774E+03  0.15294330000E+03 0.  0.
<mgrwt>
<rscale>  0 0.60066726E+03</rscale>
<asrwt>0</asrwt>
<pdfrwt beam="1">  1        2 0.15394555E+00 0.72561581E+03</pdfrwt>
<pdfrwt beam="2">  1       -2 0.65931936E-01 0.72561581E+03</pdfrwt>
<totfact> 0.54208319E+01</totfact>
</mgrwt>
</event>
<event>
 4    2  0.3171963E-007  0.9392291E+03  0.7818608E-02  0.9465783E-01
         -2   -1    0    0    0  501 -0.00000000000E+00  0.00000000000E+00  0.49994700125E+03  0.49994700126E+03  0.25500000000E-02 0.  1.
          2   -1    0    0  501    0  0.00000000000E+00 -0.00000000000E+00 -0.21494293134E+04  0.21494293134E+04  0.25500000000E-02 0. -1.
    8880023    1    1    2    0    0 -0.62432577828E+03  0.24198853402E+03 -0.87789284515E+02  0.94332300553E+03  0.65864270000E+03 0.  0.
    8880022    1    1    2    0    0  0.62432577828E+03 -0.24198853402E+03 -0.15616930276E+04  0.17060533091E+04  0.15294330000E+03 0.  0.
<mgrwt>
<rscale>  0 0.86854169E+03</rscale>
<asrwt>0</asrwt>
<pdfrwt beam="1">  1        2 0.33068143E+00 0.93922912E+03</pdfrwt>
<pdfrwt beam="2">  1       -2 0.76914924E-01 0.93922912E+03</pdfrwt>
<totfact> 0.84225650E+00</totfact>
</mgrwt>
</event>
<event>
 4    2  0.3171963E-007  0.7435844E+03  0.7818608E-02  0.9849626E-01
          2   -1    0    0  501    0  0.00000000000E+00  0.00000000000E+00  0.16483341161E+04  0.16483341161E+04  0.25500000000E-02 0. -1.
         -2   -1    0    0    0  501 -0.00000000000E+00 -0.00000000000E+00 -0.22825836286E+03  0.22825836287E+03  0.25500000000E-02 0.  1.
    8880023    1    1    2    0    0  0.34072175175E+03 -0.54920238628E+02  0.12673327776E+04  0.14693706545E+04  0.65864270000E+03 0.  1.
    8880022    1    1    2    0    0 -0.34072175175E+03  0.54920238628E+02  0.15274297560E+03  0.40722182448E+03  0.15294330000E+03 0.  0.
<mgrwt>
<rscale>  0 0.62765971E+03</rscale>
<asrwt>0</asrwt>
<pdfrwt beam="1">  1        2 0.25358987E+00 0.74358439E+03</pdfrwt>
<pdfrwt beam="2">  1       -2 0.35116670E-01 0.74358439E+03</pdfrwt>
<totfact> 0.81522645E+01</totfact>
</mgrwt>
</event>
<event>
 4    2  0.3171963E-007  0.7249031E+03  0.7818608E-02  0.9906332E-01
          2   -1    0    0  501    0  0.00000000000E+00  0.00000000000E+00  0.13944896305E+04  0.13944896305E+04  0.25500000000E-02 0. -1.
         -2   -1    0    0    0  501 -0.00000000000E+00 -0.00000000000E+00 -0.63675264688E+03  0.63675264689E+03  0.25500000000E-02 0.  1.
    8880023    1    1    2    0    0  0.27581579323E+03 -0.12489999162E+03  0.12431413595E+04  0.14390569848E+04  0.65864270000E+03 0. -1.
    8880022    1    1    2    0    0 -0.27581579323E+03  0.12489999162E+03 -0.48540437581E+03  0.59218529260E+03  0.15294330000E+03 0.  0.
<mgrwt>
<rscale>  0 0.59955409E+03</rscale>
<asrwt>0</asrwt>
<pdfrwt beam="1">  1        2 0.21453686E+00 0.72490314E+03</pdfrwt>
<pdfrwt beam="2">  1       -2 0.97961947E-01 0.72490314E+03</pdfrwt>
<totfact> 0.12967423E+01</totfact>
</mgrwt>
</event>
<event>
 4    2  0.3171963E-007  0.1159942E+04  0.7818608E-02  0.9197081E-01
          2   -1    0    0  501    0  0.00000000000E+00  0.00000000000E+00  0.82010693190E+03  0.82010693190E+03  0.25500000000E-02 0. -1.
         -2   -1    0    0    0  501 -0.00000000000E+00 -0.00000000000E+00 -0.26452147203E+04  0.26452147203E+04  0.25500000000E-02 0.  1.
    8880023    1    1    2    0    0  0.89218276548E+03 -0.34009505323E+03  0.24047140132E+03  0.11846060245E+04  0.65864270000E+03 0.  0.
    8880022    1    1    2    0    0 -0.89218276548E+03  0.34009505323E+03 -0.20655791897E+04  0.22807156277E+04  0.15294330000E+03 0.  0.
<mgrwt>
<rscale>  0 0.11083611E+04</rscale>
<asrwt>0</asrwt>
<pdfrwt beam="1">  1        2 0.12617030E+00 0.11599418E+04</pdfrwt>
<pdfrwt beam="2">  1       -2 0.40695611E+00 0.11599418E+04</pdfrwt>
<totfact> 0.22126948E-01</totfact>
</mgrwt>
</event>
<event>
 4    2  0.3171963E-007  0.8570709E+03  0.7818608E-02  0.9598795E-01
          2   -1    0    0  501    0  0.00000000000E+00  0.00000000000E+00  0.39245881605E+04  0.39245881605E+04  0.25500000000E-02 0. -1.
         -2   -1    0    0    0  501 -0.00000000000E+00 -0.00000000000E+00 -0.19574761847E+03  0.19574761849E+03  0.25500000000E-02 0.  1.
    8880023    1    1    2    0    0 -0.40390688167E+03 -0.37097101324E+03  0.32947030550E+04  0.34043558404E+04  0.65864270000E+03 0.  0.
    8880022    1    1    2    0    0  0.40390688167E+03  0.37097101324E+03  0.43413748710E+03  0.71597993858E+03  0.15294330000E+03 0.  0.
<mgrwt>
<rscale>  0 0.77375973E+03</rscale>
<asrwt>0</asrwt>
<pdfrwt beam="1">  1        2 0.60378282E+00 0.85707087E+03</pdfrwt>
<pdfrwt beam="2">  1       -2 0.30115017E-01 0.85707087E+03</pdfrwt>
<totfact> 0.43128084E+00</totfact>
</mgrwt>
</event>
<event>
 4    2  0.3171963E-007  0.9901535E+03  0.7818608E-02  0.9394555E-01
         -2   -1    0    0    0  501 -0.00000000000E+00  0.00000000000E+00  0.92079892756E+03  0.92079892756E+03  0.25500000000E-02 0.  1.
          2   -1    0    0  501    0  0.00000000000E+00 -0.00000000000E+00 -0.18292815125E+04  0.18292815125E+04  0.25500000000E-02 0. -1.
    8880023    1    1    2    0    0  0.73929394472E+03 -0.61786928917E+01 -0.14956159093E+04  0.17936752402E+04  0.65864270000E+03 0.  0.
    8880022    1    1    2    0    0 -0.73929394472E+03  0.61786928917E+01  0.58713332428E+03  0.95640519992E+03  0.15294330000E+03 0.  0.
<mgrwt>
<rscale>  0 0.92525162E+03</rscale>
<asrwt>0</asrwt>
<pdfrwt beam="1">  1        2 0.28142792E+00 0.99015348E+03</pdfrwt>
<pdfrwt beam="2">  1       -2 0.14166137E+00 0.99015348E+03</pdfrwt>
<totfact> 0.28866409E+00</totfact>
</mgrwt>
</event>
<event>
 4    2  0.3171963E-007  0.1032548E+04  0.7818608E-02  0.9340161E-01
          2   -1    0    0  501    0  0.00000000000E+00  0.00000000000E+00  0.13733780273E+04  0.13733780273E+04  0.25500000000E-02 0. -1.
         -2   -1    0    0    0  501 -0.00000000000E+00 -0.00000000000E+00 -0.83461616992E+03  0.83461616992E+03  0.25500000000E-02 0.  1.
    8880023    1    1    2    0    0  0.78623816008E+03  0.11905931626E+03 -0.26608104761E+03  0.10662808707E+04  0.65864270000E+03 0.  0.
    8880022    1    1    2    0    0 -0.78623816008E+03 -0.11905931626E+03  0.80484290503E+03  0.11417133265E+04  0.15294330000E+03 0.  0.
<mgrwt>
<rscale>  0 0.97168160E+03</rscale>
<asrwt>0</asrwt>
<pdfrwt beam="1">  1        2 0.21128893E+00 0.10325482E+04</pdfrwt>
<pdfrwt beam="2">  1       -2 0.12840249E+00 0.10325482E+04</pdfrwt>
<totfact> 0.66462529E+00</totfact>
</mgrwt>
</event>
<event>
 4    2  0.3171963E-007  0.7894604E+03  0.7818608E-02  0.9734066E-01
          2   -1    0    0  501    0  0.00000000000E+00  0.00000000000E+00  0.12551228249E+04  0.12551228249E+04  0.25500000000E-02 0. -1.
         -2   -1    0    0    0  501 -0.00000000000E+00 -0.00000000000E+00 -0.14215619750E+04  0.14215619750E+04  0.25500000000E-02 0.  1.
    8880023    1    1    2    0    0  0.28534224760E+03 -0.32865991543E+03  0.10856312685E+04  0.13423274547E+04  0.65864270000E+03 0. -1.
    8880022    1    1    2    0    0 -0.28534224760E+03  0.32865991543E+03 -0.12520704186E+04  0.13343573451E+04  0.15294330000E+03 0.  0.
<mgrwt>
<rscale>  0 0.69024245E+03</rscale>
<asrwt>0</asrwt>
<pdfrwt beam="1">  1        2 0.19309582E+00 0.78946041E+03</pdfrwt>
<pdfrwt beam="2">  1       -2 0.21870184E+00 0.78946041E+03</pdfrwt>
<totfact> 0.18124881E+00</totfact>
</mgrwt>
</event>
<event>
 4    2  0.3171963E-007  0.6962209E+03  0.7818608E-02  0.1001325E+00
          2   -1    0    0  501    0  0.00000000000E+00  0.00000000000E+00  0.12392021128E+04  0.12392021128E+04  0.25500000000E-02 0. -1.
         -2   -1    0    0    0  501 -0.00000000000E+00 -0.00000000000E+00 -0.51434225053E+03  0.51434225053E+03  0.25500000000E-02 0.  1.
    8880023    1    1    2    0    0 -0.16802001413E+03 -0.15060754483E+03  0.10927351899E+04  0.12956827387E+04  0.65864270000E+03 0. -1.
    8880022    1    1    2    0    0  0.16802001413E+03  0.15060754483E+03 -0.36787532761E+03  0.45786162471E+03  0.15294330000E+03 0.  0.
<mgrwt>
<rscale>  0 0.55072851E+03</rscale>
<asrwt>0</asrwt>
<pdfrwt beam="1">  1        2 0.19064648E+00 0.69622092E+03</pdfrwt>
<pdfrwt beam="2">  1       -2 0.79129577E-01 0.69622092E+03</pdfrwt>
<totfact> 0.26080450E+01</totfact>
</mgrwt>
</event>
<event>
 4    2  0.3171963E-007  0.7129400E+03  0.7818608E-02  0.9947241E-01
          2   -1    0    0  501    0  0.00000000000E+00  0.00000000000E+00  0.16942462816E+04  0.16942462816E+04  0.25500000000E-02 0. -1.
         -2   -1    0    0    0  501 -0.00000000000E+00 -0.00000000000E+00 -0.30745368083E+03  0.30745368084E+03  0.25500000000E-02 0.  1.
    8880023    1    1    2    0    0  0.27266497203E+03  0.11274492100E+02  0.15065507049E+04  0.16667268924E+04  0.65864270000E+03 0. -1.
    8880022    1    1    2    0    0 -0.27266497203E+03 -0.11274492100E+02 -0.11975810412E+03  0.33497307005E+03  0.15294330000E+03 0.  0.
<mgrwt>
<rscale>  0 0.58025402E+03</rscale>
<asrwt>0</asrwt>
<pdfrwt beam="1">  1        2 0.26065329E+00 0.71294004E+03</pdfrwt>
<pdfrwt beam="2">  1       -2 0.47300564E-01 0.71294004E+03</pdfrwt>
<totfact> 0.43097625E+01</totfact>
</mgrwt>
</event>
<event>
 4    2  0.3171963E-007  0.9241760E+03  0.7818608E-02  0.9488285E-01
         -2   -1    0    0    0  501 -0.00000000000E+00  0.00000000000E+00  0.15565114936E+04  0.15565114936E+04  0.25500000000E-02 0.  1.
          2   -1    0    0  501    0  0.00000000000E+00 -0.00000000000E+00 -0.65472293234E+03  0.65472293234E+03  0.25500000000E-02 0. -1.
    8880023    1    1    2    0    0  0.34104307404E+02  0.64740089433E+03 -0.17930871603E+03  0.94141002952E+03  0.65864270000E+03 0. -1.
    8880022    1    1    2    0    0 -0.34104307404E+02 -0.64740089433E+03  0.10810972773E+04  0.12698243964E+04  0.15294330000E+03 0.  0.
<mgrwt>
<rscale>  0 0.85153022E+03</rscale>
<asrwt>0</asrwt>
<pdfrwt beam="1">  1        2 0.10072660E+00 0.92417597E+03</pdfrwt>
<pdfrwt beam="2">  1       -2 0.23946331E+00 0.92417597E+03</pdfrwt>
<totfact> 0.33448113E+00</totfact>
</mgrwt>
</event>
<event>
 4    2  0.3171963E-007  0.6653773E+03  0.7818608E-02  0.1019219E+00
          2   -1    0    0  501    0  0.00000000000E+00  0.00000000000E+00  0.99735723480E+03  0.99735723481E+03  0.25500000000E-02 0. -1.
         -2   -1    0    0    0  501 -0.00000000000E+00 -0.00000000000E+00 -0.22696300355E+03  0.22696300356E+03  0.25500000000E-02 0.  1.
    8880023    1    1    2    0    0  0.76134533881E+02 -0.55859599278E+02  0.80172095131E+03  0.10418653714E+04  0.65864270000E+03 0. -1.
    8880022    1    1    2    0    0 -0.76134533881E+02  0.55859599278E+02 -0.31326720050E+02  0.18245486698E+03  0.15294330000E+03 0.  0.
<mgrwt>
<rscale>  0 0.47969528E+03</rscale>
<asrwt>0</asrwt>
<pdfrwt beam="1">  1        2 0.15343957E+00 0.66537731E+03</pdfrwt>
<pdfrwt beam="2">  1       -2 0.34917386E-01 0.66537731E+03</pdfrwt>
<totfact> 0.19761649E+02</totfact>
</mgrwt>
</event>
<event>
 4    2  0.3171963E-007  0.6842751E+03  0.7818608E-02  0.1007002E+00
          2   -1    0    0  501    0  0.00000000000E+00  0.00000000000E+00  0.45404593106E+03  0.45404593106E+03  0.25500000000E-02 0. -1.
         -2   -1    0    0    0  501 -0.00000000000E+00 -0.00000000000E+00 -0.48740910967E+03  0.48740910967E+03  0.25500000000E-02 0.  1.
    8880023    1    1    2    0    0  0.16997474971E+03 -0.74369121824E+02 -0.10097407752E+03  0.69168500953E+03  0.65864270000E+03 0.  0.
    8880022    1    1    2    0    0 -0.16997474971E+03  0.74369121824E+02  0.67610898907E+02  0.24977003120E+03  0.15294330000E+03 0.  0.
<mgrwt>
<rscale>  0 0.52683791E+03</rscale>
<asrwt>0</asrwt>
<pdfrwt beam="1">  1        2 0.69853221E-01 0.68427508E+03</pdfrwt>
<pdfrwt beam="2">  1       -2 0.74986016E-01 0.68427508E+03</pdfrwt>
<totfact> 0.11151535E+02</totfact>
</mgrwt>
</event>
<event>
 4    2  0.3171963E-007  0.7295621E+03  0.7818608E-02  0.9891467E-01
         -2   -1    0    0    0  501 -0.00000000000E+00  0.00000000000E+00  0.14241760505E+04  0.14241760505E+04  0.25500000000E-02 0.  1.
          2   -1    0    0  501    0  0.00000000000E+00 -0.00000000000E+00 -0.83114619323E+03  0.83114619324E+03  0.25500000000E-02 0. -1.
    8880023    1    1    2    0    0  0.31348813546E+03 -0.13262525277E+02 -0.64205978314E+03  0.97185476129E+03  0.65864270000E+03 0. -1.
    8880022    1    1    2    0    0 -0.31348813546E+03  0.13262525277E+02  0.12350896404E+04  0.12834674824E+04  0.15294330000E+03 0.  0.
<mgrwt>
<rscale>  0 0.60676637E+03</rscale>
<asrwt>0</asrwt>
<pdfrwt beam="1">  1        2 0.12786865E+00 0.72956214E+03</pdfrwt>
<pdfrwt beam="2">  1       -2 0.21910400E+00 0.72956214E+03</pdfrwt>
<totfact> 0.33705523E+00</totfact>
</mgrwt>
</event>
<event>
 4    2  0.3171963E-007  0.9924549E+03  0.7818608E-02  0.9391496E-01
         -2   -1    0    0    0  501 -0.00000000000E+00  0.00000000000E+00  0.60622611140E+03  0.60622611140E+03  0.25500000000E-02 0.  1.
          2   -1    0    0  501    0  0.00000000000E+00 -0.00000000000E+00 -0.20670189245E+04  0.20670189245E+04  0.25500000000E-02 0. -1.
    8880023    1    1    2    0    0 -0.44184899154E+03  0.59659541220E+03 -0.16189434361E+04  0.18989325088E+04  0.65864270000E+03 0.  0.
    8880022    1    1    2    0    0  0.44184899154E+03 -0.59659541220E+03  0.15815062300E+03  0.77431252718E+03  0.15294330000E+03 0.  0.
<mgrwt>
<rscale>  0 0.92778835E+03</rscale>
<asrwt>0</asrwt>
<pdfrwt beam="1">  1        2 0.31800291E+00 0.99245495E+03</pdfrwt>
<pdfrwt beam="2">  1       -2 0.93265557E-01 0.99245495E+03</pdfrwt>
<totfact> 0.59820322E+00</totfact>
</mgrwt>
</event>
<event>
 4    2  0.3171963E-007  0.6630072E+03  0.7818608E-02  0.1021267E+00
         -2   -1    0    0    0  501 -0.00000000000E+00  0.00000000000E+00  0.58815500830E+03  0.58815500830E+03  0.25500000000E-02 0.  1.
          2   -1    0    0  501    0  0.00000000000E+00 -0.00000000000E+00 -0.82392967334E+03  0.82392967335E+03  0.25500000000E-02 0. -1.
    8880023    1    1    2    0    0 -0.29634627173E+02  0.69929070184E+02 -0.67176450572E+03  0.94384640879E+03  0.65864270000E+03 0. -1.
    8880022    1    1    2    0    0  0.29634627173E+02 -0.69929070184E+02  0.43598984067E+03  0.46823827286E+03  0.15294330000E+03 0.  0.
<mgrwt>
<rscale>  0 0.47232071E+03</rscale>
<asrwt>0</asrwt>
<pdfrwt beam="1">  1        2 0.12675841E+00 0.66300716E+03</pdfrwt>
<pdfrwt beam="2">  1       -2 0.90485386E-01 0.66300716E+03</pdfrwt>
<totfact> 0.35334306E+01</totfact>
</mgrwt>
</event>
<event>
 4    2  0.3171963E-007  0.9803780E+03  0.7818608E-02  0.9407692E-01
          2   -1    0    0  501    0  0.00000000000E+00  0.00000000000E+00  0.21066491677E+04  0.21066491677E+04  0.25500000000E-02 0. -1.
         -2   -1    0    0    0  501 -0.00000000000E+00 -0.00000000000E+00 -0.42932298748E+03  0.42932298749E+03  0.25500000000E-02 0.  1.
    8880023    1    1    2    0    0  0.34325807115E+03 -0.63992560611E+03  0.40025299693E+03  0.10589351031E+04  0.65864270000E+03 0.  0.
    8880022    1    1    2    0    0 -0.34325807115E+03  0.63992560611E+03  0.12770731833E+04  0.14770370521E+04  0.15294330000E+03 0.  0.
<mgrwt>
<rscale>  0 0.91445383E+03</rscale>
<asrwt>0</asrwt>
<pdfrwt beam="1">  1        2 0.32409988E+00 0.98037803E+03</pdfrwt>
<pdfrwt beam="2">  1       -2 0.66049689E-01 0.98037803E+03</pdfrwt>
<totfact> 0.12372210E+01</totfact>
</mgrwt>
</event>
<event>
 4    2  0.3171963E-007  0.7334951E+03  0.7818608E-02  0.9879317E-01
         -2   -1    0    0    0  501 -0.00000000000E+00  0.00000000000E+00  0.37279752403E+03  0.37279752404E+03  0.25500000000E-02 0.  1.
          2   -1    0    0  501    0  0.00000000000E+00 -0.00000000000E+00 -0.21537088566E+04  0.21537088566E+04  0.25500000000E-02 0. -1.
    8880023    1    1    2    0    0 -0.86619042774E+02  0.31096934806E+03 -0.19842484554E+04  0.21154803079E+04  0.65864270000E+03 0. -1.
    8880022    1    1    2    0    0  0.86619042774E+02 -0.31096934806E+03  0.20333712278E+03  0.41102607280E+03  0.15294330000E+03 0.  0.
<mgrwt>
<rscale>  0 0.61274209E+03</rscale>
<asrwt>0</asrwt>
<pdfrwt beam="1">  1        2 0.33133982E+00 0.73349506E+03</pdfrwt>
<pdfrwt beam="2">  1       -2 0.57353466E-01 0.73349506E+03</pdfrwt>
<totfact> 0.16251319E+01</totfact>
</mgrwt>
</event>
<event>
 4    2  0.3171963E-007  0.9425444E+03  0.7818608E-02  0.9460923E-01
         -2   -1    0    0    0  501 -0.00000000000E+00  0.00000000000E+00  0.45436313030E+03  0.45436313031E+03  0.25500000000E-02 0.  1.
          2   -1    0    0  501    0  0.00000000000E+00 -0.00000000000E+00 -0.19469551154E+04  0.19469551154E+04  0.25500000000E-02 0. -1.
    8880023    1    1    2    0    0  0.20666629468E+03 -0.64177001213E+03 -0.14224885636E+04  0.17064183619E+04  0.65864270000E+03 0. -1.
    8880022    1    1    2    0    0 -0.20666629468E+03  0.64177001213E+03 -0.70103421456E+02  0.69489988383E+03  0.15294330000E+03 0.  0.
<mgrwt>
<rscale>  0 0.87227132E+03</rscale>
<asrwt>0</asrwt>
<pdfrwt beam="1">  1        2 0.29953155E+00 0.94254438E+03</pdfrwt>
<pdfrwt beam="2">  1       -2 0.69902021E-01 0.94254438E+03</pdfrwt>
<totfact> 0.13448849E+01</totfact>
</mgrwt>
</event>
<event>
 4    2  0.3171963E-007  0.1376703E+04  0.7818608E-02  0.9002000E-01
         -2   -1    0    0    0  501 -0.00000000000E+00  0.00000000000E+00  0.17302380989E+04  0.17302380989E+04  0.25500000000E-02 0.  1.
          2   -1    0    0  501    0  0.00000000000E+00 -0.00000000000E+00 -0.10015970424E+04  0.10015970424E+04  0.25500000000E-02 0. -1.
    8880023    1    1    2    0    0 -0.12082835823E+04  0.39397136540E+02  0.61550943886E+03  0.15080329655E+04  0.65864270000E+03 0.  1.
    8880022    1    1    2    0    0  0.12082835823E+04 -0.39397136540E+02  0.11313161769E+03  0.12238021758E+04  0.15294330000E+03 0.  1.
<mgrwt>
<rscale>  0 0.13353408E+04</rscale>
<asrwt>0</asrwt>
<pdfrwt beam="1">  1        2 0.15409185E+00 0.13767031E+04</pdfrwt>
<pdfrwt beam="2">  1       -2 0.26619047E+00 0.13767031E+04</pdfrwt>
<totfact> 0.12310899E+00</totfact>
</mgrwt>
</event>
<event>
 4    2  0.3171963E-007  0.8666472E+03  0.7818608E-02  0.9581847E-01
          2   -1    0    0  501    0  0.00000000000E+00  0.00000000000E+00  0.11237453603E+04  0.11237453603E+04  0.25500000000E-02 0. -1.
         -2   -1    0    0    0  501 -0.00000000000E+00 -0.00000000000E+00 -0.87971797911E+03  0.87971797911E+03  0.25500000000E-02 0.  1.
    8880023    1    1    2    0    0 -0.56209555484E+03  0.36274130672E+02  0.81304869263E+03  0.11883289141E+04  0.65864270000E+03 0.  0.
    8880022    1    1    2    0    0  0.56209555484E+03 -0.36274130672E+02 -0.56902131147E+03  0.81513442526E+03  0.15294330000E+03 0.  0.
<mgrwt>
<rscale>  0 0.78509413E+03</rscale>
<asrwt>0</asrwt>
<pdfrwt beam="1">  1        2 0.17288390E+00 0.86664724E+03</pdfrwt>
<pdfrwt beam="2">  1       -2 0.13534123E+00 0.86664724E+03</pdfrwt>
<totfact> 0.83006425E+00</totfact>
</mgrwt>
</event>
<event>
 4    2  0.3171963E-007  0.7153768E+03  0.7818608E-02  0.9938552E-01
         -2   -1    0    0    0  501 -0.00000000000E+00  0.00000000000E+00  0.31694613079E+03  0.31694613080E+03  0.25500000000E-02 0.  1.
          2   -1    0    0  501    0  0.00000000000E+00 -0.00000000000E+00 -0.92034253871E+03  0.92034253871E+03  0.25500000000E-02 0. -1.
    8880023    1    1    2    0    0 -0.27641617695E+03 -0.39341923651E+02 -0.57473826928E+03  0.91765351537E+03  0.65864270000E+03 0. -1.
    8880022    1    1    2    0    0  0.27641617695E+03  0.39341923651E+02 -0.28658138631E+02  0.31963515414E+03  0.15294330000E+03 0.  1.
<mgrwt>
<rscale>  0 0.58428749E+03</rscale>
<asrwt>0</asrwt>
<pdfrwt beam="1">  1        2 0.14159116E+00 0.71537675E+03</pdfrwt>
<pdfrwt beam="2">  1       -2 0.48760944E-01 0.71537675E+03</pdfrwt>
<totfact> 0.11484402E+02</totfact>
</mgrwt>
</event>
<event>
 4    2  0.3171963E-007  0.7135676E+03  0.7818608E-02  0.9944984E-01
          2   -1    0    0  501    0  0.00000000000E+00  0.00000000000E+00  0.19670879458E+04  0.19670879458E+04  0.25500000000E-02 0. -1.
         -2   -1    0    0    0  501 -0.00000000000E+00 -0.00000000000E+00 -0.16084465384E+03  0.16084465386E+03  0.25500000000E-02 0.  1.
    8880023    1    1    2    0    0 -0.13613324705E+03  0.23840362705E+03  0.16003593663E+04  0.17522353889E+04  0.65864270000E+03 0.  0.
    8880022    1    1    2    0    0  0.13613324705E+03 -0.23840362705E+03  0.20588392562E+03  0.37569721078E+03  0.15294330000E+03 0.  0.
<mgrwt>
<rscale>  0 0.58129836E+03</rscale>
<asrwt>0</asrwt>
<pdfrwt beam="1">  1        2 0.30262891E+00 0.71356763E+03</pdfrwt>
<pdfrwt beam="2">  1       -2 0.24745332E-01 0.71356763E+03</pdfrwt>
<totfact> 0.10474902E+02</totfact>
</mgrwt>
</event>
<event>
 4    2  0.3171963E-007  0.7630045E+03  0.7818608E-02  0.9797390E-01
          2   -1    0    0  501    0  0.00000000000E+00  0.00000000000E+00  0.26653241050E+04  0.26653241050E+04  0.25500000000E-02 0. -1.
         -2   -1    0    0    0  501 -0.00000000000E+00 -0.00000000000E+00 -0.15589310889E+03  0.15589310892E+03  0.25500000000E-02 0.  1.
    8880023    1    1    2    0    0  0.26620165494E+03  0.27839244401E+03  0.10114745580E+04  0.12669872382E+04  0.65864270000E+03 0.  1.
    8880022    1    1    2    0    0 -0.26620165494E+03 -0.27839244401E+03  0.14979564381E+04  0.15542299757E+04  0.15294330000E+03 0.  0.
<mgrwt>
<rscale>  0 0.65502781E+03</rscale>
<asrwt>0</asrwt>
<pdfrwt beam="1">  1        2 0.41004986E+00 0.76300451E+03</pdfrwt>
<pdfrwt beam="2">  1       -2 0.23983555E-01 0.76300451E+03</pdfrwt>
<totfact> 0.44906064E+01</totfact>
</mgrwt>
</event>
<event>
 4    2  0.3171963E-007  0.8143872E+03  0.7818608E-02  0.9680510E-01
          2   -1    0    0  501    0  0.00000000000E+00  0.00000000000E+00  0.10292240032E+04  0.10292240032E+04  0.25500000000E-02 0. -1.
         -2   -1    0    0    0  501 -0.00000000000E+00 -0.00000000000E+00 -0.63947682231E+03  0.63947682231E+03  0.25500000000E-02 0.  1.
    8880023    1    1    2    0    0 -0.33712563209E+02 -0.47778632718E+03  0.70338994375E+03  0.10760966177E+04  0.65864270000E+03 0. -1.
    8880022    1    1    2    0    0  0.33712563209E+02  0.47778632718E+03 -0.31364276290E+03  0.59260420779E+03  0.15294330000E+03 0.  0.
<mgrwt>
<rscale>  0 0.72189170E+03</rscale>
<asrwt>0</asrwt>
<pdfrwt beam="1">  1        2 0.15834215E+00 0.81438720E+03</pdfrwt>
<pdfrwt beam="2">  1       -2 0.98381050E-01 0.81438720E+03</pdfrwt>
<totfact> 0.20926281E+01</totfact>
</mgrwt>
</event>
<event>
 4    2  0.3171963E-007  0.8893120E+03  0.7818608E-02  0.9543412E-01
          2   -1    0    0  501    0  0.00000000000E+00  0.00000000000E+00  0.69448194391E+03  0.69448194392E+03  0.25500000000E-02 0. -1.
         -2   -1    0    0    0  501 -0.00000000000E+00 -0.00000000000E+00 -0.11344895344E+04  0.11344895344E+04  0.25500000000E-02 0.  1.
    8880023    1    1    2    0    0 -0.58771098257E+03  0.10798818735E+03  0.22969834181E+03  0.91849724122E+03  0.65864270000E+03 0.  0.
    8880022    1    1    2    0    0  0.58771098257E+03 -0.10798818735E+03 -0.66970593226E+03  0.91047423707E+03  0.15294330000E+03 0.  0.
<mgrwt>
<rscale>  0 0.81157537E+03</rscale>
<asrwt>0</asrwt>
<pdfrwt beam="1">  1        2 0.10684338E+00 0.88931201E+03</pdfrwt>
<pdfrwt beam="2">  1       -2 0.17453685E+00 0.88931201E+03</pdfrwt>
<totfact> 0.82142271E+00</totfact>
</mgrwt>
</event>
<event>
 4    2  0.3171963E-007  0.6999711E+03  0.7818608E-02  0.9997321E-01
         -2   -1    0    0    0  501 -0.00000000000E+00  0.00000000000E+00  0.30483180530E+03  0.30483180531E+03  0.25500000000E-02 0.  1.
          2   -1    0    0  501    0  0.00000000000E+00 -0.00000000000E+00 -0.32916024841E+04  0.32916024841E+04  0.25500000000E-02 0. -1.
    8880023    1    1    2    0    0 -0.21147526007E+03  0.10689957997E+03 -0.31789828757E+04  0.32551331211E+04  0.65864270000E+03 0.  0.
    8880022    1    1    2    0    0  0.21147526007E+03 -0.10689957997E+03  0.19221219692E+03  0.34130116830E+03  0.15294330000E+03 0.  0.
<mgrwt>
<rscale>  0 0.55767853E+03</rscale>
<asrwt>0</asrwt>
<pdfrwt beam="1">  1        2 0.50640036E+00 0.69997108E+03</pdfrwt>
<pdfrwt beam="2">  1       -2 0.46897203E-01 0.69997108E+03</pdfrwt>
<totfact> 0.52873055E+00</totfact>
</mgrwt>
</event>
<event>
 4    2  0.3171963E-007  0.8934108E+03  0.7818608E-02  0.9536693E-01
          2   -1    0    0  501    0  0.00000000000E+00  0.00000000000E+00  0.79497647565E+03  0.79497647565E+03  0.25500000000E-02 0. -1.
         -2   -1    0    0    0  501 -0.00000000000E+00 -0.00000000000E+00 -0.12094493177E+04  0.12094493177E+04  0.25500000000E-02 0.  1.
    8880023    1    1    2    0    0  0.51882861698E+03 -0.30852806675E+03  0.40025858058E+03  0.97897387063E+03  0.65864270000E+03 0. -1.
    8880022    1    1    2    0    0 -0.51882861698E+03  0.30852806675E+03 -0.81473142258E+03  0.10254519227E+04  0.15294330000E+03 0.  0.
<mgrwt>
<rscale>  0 0.81631804E+03</rscale>
<asrwt>0</asrwt>
<pdfrwt beam="1">  1        2 0.12230407E+00 0.89341083E+03</pdfrwt>
<pdfrwt beam="2">  1       -2 0.18606913E+00 0.89341083E+03</pdfrwt>
<totfact> 0.57402240E+00</totfact>
</mgrwt>
</event>
<event>
 4    2  0.3171963E-007  0.7993455E+03  0.7818608E-02  0.9712213E-01
         -2   -1    0    0    0  501 -0.00000000000E+00  0.00000000000E+00  0.36890860174E+03  0.36890860175E+03  0.25500000000E-02 0.  1.
          2   -1    0    0  501    0  0.00000000000E+00 -0.00000000000E+00 -0.16291986840E+04  0.16291986840E+04  0.25500000000E-02 0. -1.
    8880023    1    1    2    0    0  0.42578278451E+03  0.15444113095E+03 -0.12916964924E+04  0.15190237251E+04  0.65864270000E+03 0.  0.
    8880022    1    1    2    0    0 -0.42578278451E+03 -0.15444113095E+03  0.31406410149E+02  0.47908356069E+03  0.15294330000E+03 0.  0.
<mgrwt>
<rscale>  0 0.70294270E+03</rscale>
<asrwt>0</asrwt>
<pdfrwt beam="1">  1        2 0.25064595E+00 0.79934551E+03</pdfrwt>
<pdfrwt beam="2">  1       -2 0.56755170E-01 0.79934551E+03</pdfrwt>
<totfact> 0.31883470E+01</totfact>
</mgrwt>
</event>
<event>
 4    2  0.3171963E-007  0.1143594E+04  0.7818608E-02  0.9214004E-01
         -2   -1    0    0    0  501 -0.00000000000E+00  0.00000000000E+00  0.55732780774E+03  0.55732780775E+03  0.25500000000E-02 0.  1.
          2   -1    0    0  501    0  0.00000000000E+00 -0.00000000000E+00 -0.22989917000E+04  0.22989917000E+04  0.25500000000E-02 0. -1.
    8880023    1    1    2    0    0  0.81728806825E+03 -0.45391305079E+03 -0.14860360266E+04  0.18751293616E+04  0.65864270000E+03 0.  0.
    8880022    1    1    2    0    0 -0.81728806825E+03  0.45391305079E+03 -0.25562786568E+03  0.98119014615E+03  0.15294330000E+03 0.  0.
<mgrwt>
<rscale>  0 0.10910042E+04</rscale>
<asrwt>0</asrwt>
<pdfrwt beam="1">  1        2 0.35369103E+00 0.11435939E+04</pdfrwt>
<pdfrwt beam="2">  1       -2 0.85742741E-01 0.11435939E+04</pdfrwt>
<totfact> 0.53047674E+00</totfact>
</mgrwt>
</event>
<event>
 4    2  0.3171963E-007  0.7157017E+03  0.7818608E-02  0.9937408E-01
         -2   -1    0    0    0  501 -0.00000000000E+00  0.00000000000E+00  0.51565546926E+03  0.51565546927E+03  0.25500000000E-02 0.  1.
          2   -1    0    0  501    0  0.00000000000E+00 -0.00000000000E+00 -0.24915314342E+04  0.24915314342E+04  0.25500000000E-02 0. -1.
    8880023    1    1    2    0    0 -0.10698795934E+03 -0.25879007247E+03 -0.23840136407E+04  0.24891263468E+04  0.65864270000E+03 0. -1.
    8880022    1    1    2    0    0  0.10698795934E+03  0.25879007247E+03  0.40813767572E+03  0.51806055670E+03  0.15294330000E+03 0.  0.
<mgrwt>
<rscale>  0 0.58482112E+03</rscale>
<asrwt>0</asrwt>
<pdfrwt beam="1">  1        2 0.38331252E+00 0.71570171E+03</pdfrwt>
<pdfrwt beam="2">  1       -2 0.79331612E-01 0.71570171E+03</pdfrwt>
<totfact> 0.52375736E+00</totfact>
</mgrwt>
</event>
<event>
 4    2  0.3171963E-007  0.6873832E+03  0.7818608E-02  0.1005422E+00
         -2   -1    0    0    0  501 -0.00000000000E+00  0.00000000000E+00  0.81145554646E+03  0.81145554647E+03  0.25500000000E-02 0.  1.
          2   -1    0    0  501    0  0.00000000000E+00 -0.00000000000E+00 -0.12202281492E+04  0.12202281492E+04  0.25500000000E-02 0. -1.
    8880023    1    1    2    0    0 -0.19080475083E+03  0.47738752627E+02 -0.10998955111E+04  0.12970218899E+04  0.65864270000E+03 0. -1.
    8880022    1    1    2    0    0  0.19080475083E+03 -0.47738752627E+02  0.69112290831E+03  0.73466180576E+03  0.15294330000E+03 0.  0.
<mgrwt>
<rscale>  0 0.53335406E+03</rscale>
<asrwt>0</asrwt>
<pdfrwt beam="1">  1        2 0.18772741E+00 0.68738319E+03</pdfrwt>
<pdfrwt beam="2">  1       -2 0.12483931E+00 0.68738319E+03</pdfrwt>
<totfact> 0.91177413E+00</totfact>
</mgrwt>
</event>
<event>
 4    2  0.3171963E-007  0.6703992E+03  0.7818608E-02  0.1015378E+00
         -2   -1    0    0    0  501 -0.00000000000E+00  0.00000000000E+00  0.33783234455E+03  0.33783234456E+03  0.25500000000E-02 0.  1.
          2   -1    0    0  501    0  0.00000000000E+00 -0.00000000000E+00 -0.73108796046E+03  0.73108796046E+03  0.25500000000E-02 0. -1.
    8880023    1    1    2    0    0  0.94359618942E+02 -0.81982968565E+02 -0.50741625105E+03  0.84077726118E+03  0.65864270000E+03 0. -1.
    8880022    1    1    2    0    0 -0.94359618942E+02  0.81982968565E+02  0.11416063515E+03  0.22814304384E+03  0.15294330000E+03 0.  0.
<mgrwt>
<rscale>  0 0.49391966E+03</rscale>
<asrwt>0</asrwt>
<pdfrwt beam="1">  1        2 0.11247507E+00 0.67039925E+03</pdfrwt>
<pdfrwt beam="2">  1       -2 0.51974207E-01 0.67039925E+03</pdfrwt>
<totfact> 0.13762955E+02</totfact>
</mgrwt>
</event>
<event>
 4    2  0.3171963E-007  0.7478707E+03  0.7818608E-02  0.9837586E-01
          2   -1    0    0  501    0  0.00000000000E+00  0.00000000000E+00  0.13610636306E+04  0.13610636306E+04  0.25500000000E-02 0. -1.
         -2   -1    0    0    0  501 -0.00000000000E+00 -0.00000000000E+00 -0.27710691671E+03  0.27710691672E+03  0.25500000000E-02 0.  1.
    8880023    1    1    2    0    0  0.25121741812E+03 -0.24978014159E+03  0.38830620153E+03  0.84266969965E+03  0.65864270000E+03 0.  0.
    8880022    1    1    2    0    0 -0.25121741812E+03  0.24978014159E+03  0.69565051241E+03  0.79550084772E+03  0.15294330000E+03 0.  0.
<mgrwt>
<rscale>  0 0.63383874E+03</rscale>
<asrwt>0</asrwt>
<pdfrwt beam="1">  1        2 0.20939441E+00 0.74787065E+03</pdfrwt>
<pdfrwt beam="2">  1       -2 0.42631832E-01 0.74787065E+03</pdfrwt>
<totfact> 0.80900043E+01</totfact>
</mgrwt>
</event>
<event>
 4    2  0.3171963E-007  0.1072351E+04  0.7818608E-02  0.9292482E-01
         -2   -1    0    0    0  501 -0.00000000000E+00  0.00000000000E+00  0.91219056913E+03  0.91219056914E+03  0.25500000000E-02 0.  1.
          2   -1    0    0  501    0  0.00000000000E+00 -0.00000000000E+00 -0.12685520191E+04  0.12685520191E+04  0.25500000000E-02 0. -1.
    8880023    1    1    2    0    0  0.68294654512E+03  0.49971109663E+03  0.28310396214E+03  0.11090920716E+04  0.65864270000E+03 0.  0.
    8880022    1    1    2    0    0 -0.68294654512E+03 -0.49971109663E+03 -0.63946541213E+03  0.10716505167E+04  0.15294330000E+03 0.  0.
<mgrwt>
<rscale>  0 0.10147790E+04</rscale>
<asrwt>0</asrwt>
<pdfrwt beam="1">  1        2 0.19516185E+00 0.10723513E+04</pdfrwt>
<pdfrwt beam="2">  1       -2 0.14033701E+00 0.10723513E+04</pdfrwt>
<totfact> 0.60622209E+00</totfact>
</mgrwt>
</event>
<event>
 4    2  0.3171963E-007  0.8001899E+03  0.7818608E-02  0.9710386E-01
         -2   -1    0    0    0  501 -0.00000000000E+00  0.00000000000E+00  0.15785617647E+04  0.15785617647E+04  0.25500000000E-02 0.  1.
          2   -1    0    0  501    0  0.00000000000E+00 -0.00000000000E+00 -0.27997499110E+03  0.27997499111E+03  0.25500000000E-02 0. -1.
    8880023    1    1    2    0    0  0.35241826160E+03 -0.28687109234E+03  0.10448860845E+04  0.13160892031E+04  0.65864270000E+03 0.  0.
    8880022    1    1    2    0    0 -0.35241826160E+03  0.28687109234E+03  0.25370068906E+03  0.54244755265E+03  0.15294330000E+03 0.  0.
<mgrwt>
<rscale>  0 0.70401789E+03</rscale>
<asrwt>0</asrwt>
<pdfrwt beam="1">  1        2 0.43073076E-01 0.80018989E+03</pdfrwt>
<pdfrwt beam="2">  1       -2 0.24285566E+00 0.80018989E+03</pdfrwt>
<totfact> 0.86034200E+00</totfact>
</mgrwt>
</event>
<event>
 4    2  0.3171963E-007  0.7085050E+03  0.7818608E-02  0.9963595E-01
          2   -1    0    0  501    0  0.00000000000E+00  0.00000000000E+00  0.14530342231E+04  0.14530342231E+04  0.25500000000E-02 0. -1.
         -2   -1    0    0    0  501 -0.00000000000E+00 -0.00000000000E+00 -0.25095629376E+03  0.25095629378E+03  0.25500000000E-02 0.  1.
    8880023    1    1    2    0    0 -0.18144468015E+03 -0.18774179627E+03  0.12090164025E+04  0.14013208133E+04  0.65864270000E+03 0. -1.
    8880022    1    1    2    0    0  0.18144468015E+03  0.18774179627E+03 -0.69384731852E+01  0.30266970355E+03  0.15294330000E+03 0.  0.
<mgrwt>
<rscale>  0 0.57275765E+03</rscale>
<asrwt>0</asrwt>
<pdfrwt beam="1">  1        2 0.22354372E+00 0.70850502E+03</pdfrwt>
<pdfrwt beam="2">  1       -2 0.38608661E-01 0.70850502E+03</pdfrwt>
<totfact> 0.87459225E+01</totfact>
</mgrwt>
</event>
<event>
 4    2  0.3171963E-007  0.1251277E+04  0.7818608E-02  0.9108820E-01
         -2   -1    0    0    0  501 -0.00000000000E+00  0.00000000000E+00  0.80963132981E+03  0.80963132981E+03  0.25500000000E-02 0.  1.
          2   -1    0    0  501    0  0.00000000000E+00 -0.00000000000E+00 -0.17371764131E+04  0.17371764131E+04  0.25500000000E-02 0. -1.
    8880023    1    1    2    0    0  0.97365910514E+03  0.42880295033E+03 -0.74589974891E+03  0.14567294412E+04  0.65864270000E+03 0.  0.
    8880022    1    1    2    0    0 -0.97365910514E+03 -0.42880295033E+03 -0.18164533435E+03  0.10900783017E+04  0.15294330000E+03 0.  0.
<mgrwt>
<rscale>  0 0.12046221E+04</rscale>
<asrwt>0</asrwt>
<pdfrwt beam="1">  1        2 0.26725791E+00 0.12512770E+04</pdfrwt>
<pdfrwt beam="2">  1       -2 0.12455867E+00 0.12512770E+04</pdfrwt>
<totfact> 0.43874215E+00</totfact>
</mgrwt>
</event>
<event>
 4    2  0.3171963E-007  0.7206564E+03  0.7818608E-02  0.9920371E-01
         -2   -1    0    0    0  501 -0.00000000000E+00  0.00000000000E+00  0.13249372868E+03  0.13249372870E+03  0.25500000000E-02 0.  1.
          2   -1    0    0  501    0  0.00000000000E+00 -0.00000000000E+00 -0.26152026968E+04  0.26152026968E+04  0.25500000000E-02 0. -1.
    8880023    1    1    2    0    0  0.13951431485E+03 -0.25704311450E+03 -0.21935680627E+04  0.23089145629E+04  0.65864270000E+03 0. -1.
    8880022    1    1    2    0    0 -0.13951431485E+03  0.25704311450E+03 -0.28914090544E+03  0.43878186263E+03  0.15294330000E+03 0.  0.
<mgrwt>
<rscale>  0 0.59284089E+03</rscale>
<asrwt>0</asrwt>
<pdfrwt beam="1">  1        2 0.40233884E+00 0.72065638E+03</pdfrwt>
<pdfrwt beam="2">  1       -2 0.20383653E-01 0.72065638E+03</pdfrwt>
<totfact> 0.64411936E+01</totfact>
</mgrwt>
</event>
<event>
 4    2  0.3171963E-007  0.9863964E+03  0.7818608E-02  0.9399576E-01
         -2   -1    0    0    0  501 -0.00000000000E+00  0.00000000000E+00  0.17079122205E+04  0.17079122205E+04  0.25500000000E-02 0.  1.
          2   -1    0    0  501    0  0.00000000000E+00 -0.00000000000E+00 -0.10884084830E+04  0.10884084830E+04  0.25500000000E-02 0. -1.
    8880023    1    1    2    0    0  0.43655394801E+03 -0.59041363009E+03 -0.74712104196E+03  0.12374035969E+04  0.65864270000E+03 0.  0.
    8880022    1    1    2    0    0 -0.43655394801E+03  0.59041363009E+03  0.13666247795E+04  0.15589171065E+04  0.15294330000E+03 0.  0.
<mgrwt>
<rscale>  0 0.92110605E+03</rscale>
<asrwt>0</asrwt>
<pdfrwt beam="1">  1        2 0.16744746E+00 0.98639638E+03</pdfrwt>
<pdfrwt beam="2">  1       -2 0.26275572E+00 0.98639638E+03</pdfrwt>
<totfact> 0.11890548E+00</totfact>
</mgrwt>
</event>
<event>
 4    2  0.3171963E-007  0.7571931E+03  0.7818608E-02  0.9812429E-01
         -2   -1    0    0    0  501 -0.00000000000E+00  0.00000000000E+00  0.11290058160E+04  0.11290058160E+04  0.25500000000E-02 0.  1.
          2   -1    0    0  501    0  0.00000000000E+00 -0.00000000000E+00 -0.16797972580E+04  0.16797972580E+04  0.25500000000E-02 0. -1.
    8880023    1    1    2    0    0 -0.21390479449E+03  0.30622848879E+03 -0.15533323269E+04  0.17280574853E+04  0.65864270000E+03 0. -1.
    8880022    1    1    2    0    0  0.21390479449E+03 -0.30622848879E+03  0.10025408849E+04  0.10807455886E+04  0.15294330000E+03 0.  0.
<mgrwt>
<rscale>  0 0.64699766E+03</rscale>
<asrwt>0</asrwt>
<pdfrwt beam="1">  1        2 0.25843035E+00 0.75719308E+03</pdfrwt>
<pdfrwt beam="2">  1       -2 0.17369320E+00 0.75719308E+03</pdfrwt>
<totfact> 0.20828544E+00</totfact>
</mgrwt>
</event>
<event>
 4    2  0.3171963E-007  0.6622786E+03  0.7818608E-02  0.1021935E+00
         -2   -1    0    0    0  501 -0.00000000000E+00  0.00000000000E+00  0.90836886753E+02  0.90836886789E+02  0.25500000000E-02 0.  1.
          2   -1    0    0  501    0  0.00000000000E+00 -0.00000000000E+00 -0.28602597734E+04  0.28602597734E+04  0.25500000000E-02 0. -1.
    8880023    1    1    2    0    0 -0.15392054881E+02 -0.67570697150E+02 -0.26804775453E+04  0.27610818154E+04  0.65864270000E+03 0. -1.
    8880022    1    1    2    0    0  0.15392054881E+02  0.67570697150E+02 -0.88945341377E+02  0.19001484477E+03  0.15294330000E+03 0.  0.
<mgrwt>
<rscale>  0 0.46994911E+03</rscale>
<asrwt>0</asrwt>
<pdfrwt beam="1">  1        2 0.44003990E+00 0.66227858E+03</pdfrwt>
<pdfrwt beam="2">  1       -2 0.13974908E-01 0.66227858E+03</pdfrwt>
<totfact> 0.89152390E+01</totfact>
</mgrwt>
</event>
<event>
 4    2  0.3171963E-007  0.8824441E+03  0.7818608E-02  0.9554823E-01
          2   -1    0    0  501    0  0.00000000000E+00  0.00000000000E+00  0.13614513104E+04  0.13614513104E+04  0.25500000000E-02 0. -1.
         -2   -1    0    0    0  501 -0.00000000000E+00 -0.00000000000E+00 -0.55314210901E+03  0.55314210901E+03  0.25500000000E-02 0.  1.
    8880023    1    1    2    0    0 -0.39943500808E+03  0.43052187521E+03  0.94454380978E+03  0.12926216096E+04  0.65864270000E+03 0. -1.
    8880022    1    1    2    0    0  0.39943500808E+03 -0.43052187521E+03 -0.13623460837E+03  0.62197180985E+03  0.15294330000E+03 0.  1.
<mgrwt>
<rscale>  0 0.80359830E+03</rscale>
<asrwt>0</asrwt>
<pdfrwt beam="1">  1        2 0.20945404E+00 0.88244412E+03</pdfrwt>
<pdfrwt beam="2">  1       -2 0.85098787E-01 0.88244412E+03</pdfrwt>
<totfact> 0.18427904E+01</totfact>
</mgrwt>
</event>
<event>
 4    2  0.3171963E-007  0.7053020E+03  0.7818608E-02  0.9975879E-01
          2   -1    0    0  501    0  0.00000000000E+00  0.00000000000E+00  0.22281149389E+04  0.22281149389E+04  0.25500000000E-02 0. -1.
         -2   -1    0    0    0  501 -0.00000000000E+00 -0.00000000000E+00 -0.12539405500E+03  0.12539405503E+03  0.25500000000E-02 0.  1.
    8880023    1    1    2    0    0 -0.22433892714E+02  0.25127165828E+03  0.17882804811E+04  0.19223418040E+04  0.65864270000E+03 0. -1.
    8880022    1    1    2    0    0  0.22433892714E+02 -0.25127165828E+03  0.31444040276E+03  0.43116718997E+03  0.15294330000E+03 0.  0.
<mgrwt>
<rscale>  0 0.56720683E+03</rscale>
<asrwt>0</asrwt>
<pdfrwt beam="1">  1        2 0.34278695E+00 0.70530201E+03</pdfrwt>
<pdfrwt beam="2">  1       -2 0.19291391E-01 0.70530201E+03</pdfrwt>
<totfact> 0.11723025E+02</totfact>
</mgrwt>
</event>
<event>
 4    2  0.3171963E-007  0.6998196E+03  0.7818608E-02  0.9997950E-01
         -2   -1    0    0    0  501 -0.00000000000E+00  0.00000000000E+00  0.86262553786E+03  0.86262553786E+03  0.25500000000E-02 0.  1.
          2   -1    0    0  501    0  0.00000000000E+00 -0.00000000000E+00 -0.51364683826E+03  0.51364683827E+03  0.25500000000E-02 0. -1.
    8880023    1    1    2    0    0  0.94958374975E+02 -0.21661054163E+03 -0.22650435444E+03  0.73556213100E+03  0.65864270000E+03 0. -1.
    8880022    1    1    2    0    0 -0.94958374975E+02  0.21661054163E+03  0.57548305403E+03  0.64071024513E+03  0.15294330000E+03 0.  0.
<mgrwt>
<rscale>  0 0.55740193E+03</rscale>
<asrwt>0</asrwt>
<pdfrwt beam="1">  1        2 0.79022591E-01 0.69981957E+03</pdfrwt>
<pdfrwt beam="2">  1       -2 0.13271162E+00 0.69981957E+03</pdfrwt>
<totfact> 0.25012032E+01</totfact>
</mgrwt>
</event>
<event>
 4    2  0.3171963E-007  0.6944206E+03  0.7818608E-02  0.1002118E+00
         -2   -1    0    0    0  501 -0.00000000000E+00  0.00000000000E+00  0.67957780256E+03  0.67957780256E+03  0.25500000000E-02 0.  1.
          2   -1    0    0  501    0  0.00000000000E+00 -0.00000000000E+00 -0.92671878894E+03  0.92671878895E+03  0.25500000000E-02 0. -1.
    8880023    1    1    2    0    0  0.17432971653E+03  0.13423436677E+03 -0.75887922570E+03  0.10286484340E+04  0.65864270000E+03 0. -1.
    8880022    1    1    2    0    0 -0.17432971653E+03 -0.13423436677E+03  0.51173823932E+03  0.57764815752E+03  0.15294330000E+03 0.  0.
<mgrwt>
<rscale>  0 0.54731017E+03</rscale>
<asrwt>0</asrwt>
<pdfrwt beam="1">  1        2 0.14257212E+00 0.69442057E+03</pdfrwt>
<pdfrwt beam="2">  1       -2 0.10455043E+00 0.69442057E+03</pdfrwt>
<totfact> 0.21345817E+01</totfact>
</mgrwt>
</event>
<event>
 4    2  0.3171963E-007  0.8024734E+03  0.7818608E-02  0.9705473E-01
         -2   -1    0    0    0  501 -0.00000000000E+00  0.00000000000E+00  0.84514671100E+03  0.84514671101E+03  0.25500000000E-02 0.  1.
          2   -1    0    0  501    0  0.00000000000E+00 -0.00000000000E+00 -0.11956424672E+04  0.11956424672E+04  0.25500000000E-02 0. -1.
    8880023    1    1    2    0    0 -0.20494436049E+03  0.41006237335E+03 -0.96754279838E+03  0.12570213259E+04  0.65864270000E+03 0. -1.
    8880022    1    1    2    0    0  0.20494436049E+03 -0.41006237335E+03  0.61704704219E+03  0.78376785225E+03  0.15294330000E+03 0.  0.
<mgrwt>
<rscale>  0 0.70691843E+03</rscale>
<asrwt>0</asrwt>
<pdfrwt beam="1">  1        2 0.18394500E+00 0.80247339E+03</pdfrwt>
<pdfrwt beam="2">  1       -2 0.13002257E+00 0.80247339E+03</pdfrwt>
<totfact> 0.83831567E+00</totfact>
</mgrwt>
</event>
<event>
 4    2  0.3622411E-007  0.6777329E+03  0.7818608E-02  0.1010636E+00
          2   -1    0    0  501    0  0.00000000000E+00  0.00000000000E+00  0.17883776609E+04  0.17883776609E+04  0.25500000000E-02 0. -1.
         -2   -1    0    0    0  501 -0.00000000000E+00 -0.00000000000E+00 -0.85225394247E+03  0.85225394247E+03  0.25500000000E-02 0.  1.
    8880023    1    1    2    0    0  0.15263342087E+03 -0.47061050403E+02  0.17080808443E+04  0.18376240313E+04  0.65864270000E+03 0. -1.
    8880022    1    1    2    0    0 -0.15263342087E+03  0.47061050403E+02 -0.77195712584E+03  0.80300757206E+03  0.15294330000E+03 0.  0.
<mgrwt>
<rscale>  0 0.51222559E+03</rscale>
<asrwt>0</asrwt>
<pdfrwt beam="1">  1        2 0.27513502E+00 0.67773292E+03</pdfrwt>
<pdfrwt beam="2">  1       -2 0.13111599E+00 0.67773292E+03</pdfrwt>
<totfact> 0.38885513E+00</totfact>
</mgrwt>
</event>
<event>
 4    2  0.3171963E-007  0.6672921E+03  0.7818608E-02  0.1017683E+00
          2   -1    0    0  501    0  0.00000000000E+00  0.00000000000E+00  0.16717603968E+03  0.16717603970E+03  0.25500000000E-02 0. -1.
         -2   -1    0    0    0  501 -0.00000000000E+00 -0.00000000000E+00 -0.13923683004E+04  0.13923683004E+04  0.25500000000E-02 0.  1.
    8880023    1    1    2    0    0  0.10204217603E+03  0.32495906403E+02 -0.56785994444E+03  0.87620985636E+03  0.65864270000E+03 0. -1.
    8880022    1    1    2    0    0 -0.10204217603E+03 -0.32495906403E+02 -0.65733231630E+03  0.68333448376E+03  0.15294330000E+03 0.  0.
<mgrwt>
<rscale>  0 0.48532013E+03</rscale>
<asrwt>0</asrwt>
<pdfrwt beam="1">  1        2 0.25719392E-01 0.66729214E+03</pdfrwt>
<pdfrwt beam="2">  1       -2 0.21421050E+00 0.66729214E+03</pdfrwt>
<totfact> 0.23409724E+01</totfact>
</mgrwt>
</event>
<event>
 4    2  0.3171963E-007  0.7314898E+03  0.7818608E-02  0.9885468E-01
         -2   -1    0    0    0  501 -0.00000000000E+00  0.00000000000E+00  0.27950380530E+03  0.27950380531E+03  0.25500000000E-02 0.  1.
          2   -1    0    0  501    0  0.00000000000E+00 -0.00000000000E+00 -0.16245734954E+04  0.16245734954E+04  0.25500000000E-02 0. -1.
    8880023    1    1    2    0    0 -0.12704911726E+03 -0.29176310953E+03 -0.13669129081E+04  0.15503316726E+04  0.65864270000E+03 0. -1.
    8880022    1    1    2    0    0  0.12704911726E+03  0.29176310953E+03  0.21843217982E+02  0.35374562820E+03  0.15294330000E+03 0.  0.
<mgrwt>
<rscale>  0 0.60970761E+03</rscale>
<asrwt>0</asrwt>
<pdfrwt beam="1">  1        2 0.24993438E+00 0.73148985E+03</pdfrwt>
<pdfrwt beam="2">  1       -2 0.43000586E-01 0.73148985E+03</pdfrwt>
<totfact> 0.56785936E+01</totfact>
</mgrwt>
</event>
<event>
 4    2  0.3171963E-007  0.6877073E+03  0.7818608E-02  0.1005262E+00
         -2   -1    0    0    0  501 -0.00000000000E+00  0.00000000000E+00  0.10212770220E+04  0.10212770220E+04  0.25500000000E-02 0.  1.
          2   -1    0    0  501    0  0.00000000000E+00 -0.00000000000E+00 -0.80646125965E+03  0.80646125965E+03  0.25500000000E-02 0. -1.
    8880023    1    1    2    0    0 -0.16757532249E+03 -0.10511726595E+03 -0.63857696544E+03  0.93846783395E+03  0.65864270000E+03 0. -1.
    8880022    1    1    2    0    0  0.16757532249E+03  0.10511726595E+03  0.85339272783E+03  0.88927044775E+03  0.15294330000E+03 0.  0.
<mgrwt>
<rscale>  0 0.53401999E+03</rscale>
<asrwt>0</asrwt>
<pdfrwt beam="1">  1        2 0.12407096E+00 0.68770730E+03</pdfrwt>
<pdfrwt beam="2">  1       -2 0.15711954E+00 0.68770730E+03</pdfrwt>
<totfact> 0.92390461E+00</totfact>
</mgrwt>
</event>
<event>
 4    2  0.3171963E-007  0.6975342E+03  0.7818608E-02  0.1000759E+00
          2   -1    0    0  501    0  0.00000000000E+00  0.00000000000E+00  0.82831299785E+03  0.82831299786E+03  0.25500000000E-02 0. -1.
         -2   -1    0    0    0  501 -0.00000000000E+00 -0.00000000000E+00 -0.80559428385E+03  0.80559428386E+03  0.25500000000E-02 0.  1.
    8880023    1    1    2    0    0 -0.16985214688E+02  0.22903102329E+03  0.64697841872E+03  0.95138582484E+03  0.65864270000E+03 0. -1.
    8880022    1    1    2    0    0  0.16985214688E+02 -0.22903102329E+03 -0.62425970472E+03  0.68252145688E+03  0.15294330000E+03 0.  0.
<mgrwt>
<rscale>  0 0.55318757E+03</rscale>
<asrwt>0</asrwt>
<pdfrwt beam="1">  1        2 0.12743277E+00 0.69753417E+03</pdfrwt>
<pdfrwt beam="2">  1       -2 0.12393758E+00 0.69753417E+03</pdfrwt>
<totfact> 0.16438689E+01</totfact>
</mgrwt>
</event>
<event>
 4    2  0.3171963E-007  0.7746374E+03  0.7818608E-02  0.9768588E-01
          2   -1    0    0  501    0  0.00000000000E+00  0.00000000000E+00  0.32974157062E+04  0.32974157063E+04  0.25500000000E-02 0. -1.
         -2   -1    0    0    0  501 -0.00000000000E+00 -0.00000000000E+00 -0.17129213974E+03  0.17129213976E+03  0.25500000000E-02 0.  1.
    8880023    1    1    2    0    0  0.29548714777E+03  0.28096312283E+03  0.28492194899E+04  0.29526453968E+04  0.65864270000E+03 0.  0.
    8880022    1    1    2    0    0 -0.29548714777E+03 -0.28096312283E+03  0.27690407657E+03  0.51606244925E+03  0.15294330000E+03 0.  0.
<mgrwt>
<rscale>  0 0.67075885E+03</rscale>
<asrwt>0</asrwt>
<pdfrwt beam="1">  1        2 0.50729478E+00 0.77463742E+03</pdfrwt>
<pdfrwt beam="2">  1       -2 0.26352634E-01 0.77463742E+03</pdfrwt>
<totfact> 0.15520665E+01</totfact>
</mgrwt>
</event>
<event>
 4    2  0.3171963E-007  0.6799272E+03  0.7818608E-02  0.1009365E+00
         -2   -1    0    0    0  501 -0.00000000000E+00  0.00000000000E+00  0.49544918009E+03  0.49544918010E+03  0.25500000000E-02 0.  1.
          2   -1    0    0  501    0  0.00000000000E+00 -0.00000000000E+00 -0.14818106708E+04  0.14818106708E+04  0.25500000000E-02 0. -1.
    8880023    1    1    2    0    0 -0.16405307568E+03  0.39716831691E+02 -0.13709411684E+04  0.15302877938E+04  0.65864270000E+03 0. -1.
    8880022    1    1    2    0    0  0.16405307568E+03 -0.39716831691E+02  0.38457967767E+03  0.44697205712E+03  0.15294330000E+03 0.  0.
<mgrwt>
<rscale>  0 0.51727850E+03</rscale>
<asrwt>0</asrwt>
<pdfrwt beam="1">  1        2 0.22797087E+00 0.67992723E+03</pdfrwt>
<pdfrwt beam="2">  1       -2 0.76222951E-01 0.67992723E+03</pdfrwt>
<totfact> 0.20679308E+01</totfact>
</mgrwt>
</event>
<event>
 4    2  0.3171963E-007  0.1566558E+04  0.7818608E-02  0.8864013E-01
         -2   -1    0    0    0  501 -0.00000000000E+00  0.00000000000E+00  0.19141216861E+04  0.19141216861E+04  0.25500000000E-02 0.  1.
          2   -1    0    0  501    0  0.00000000000E+00 -0.00000000000E+00 -0.14079977295E+04  0.14079977295E+04  0.25500000000E-02 0. -1.
    8880023    1    1    2    0    0 -0.13319741981E+04 -0.49612276561E+03  0.94150876078E+03  0.18277149712E+04  0.65864270000E+03 0.  0.
    8880022    1    1    2    0    0  0.13319741981E+04  0.49612276561E+03 -0.43538480419E+03  0.14944044445E+04  0.15294330000E+03 0.  0.
<mgrwt>
<rscale>  0 0.15311282E+04</rscale>
<asrwt>0</asrwt>
<pdfrwt beam="1">  1        2 0.21661504E+00 0.15665578E+04</pdfrwt>
<pdfrwt beam="2">  1       -2 0.29448026E+00 0.15665578E+04</pdfrwt>
<totfact> 0.46013873E-01</totfact>
</mgrwt>
</event>
<event>
 4    2  0.3171963E-007  0.8520212E+03  0.7818608E-02  0.9607917E-01
         -2   -1    0    0    0  501 -0.00000000000E+00  0.00000000000E+00  0.30081401382E+03  0.30081401383E+03  0.25500000000E-02 0.  1.
          2   -1    0    0  501    0  0.00000000000E+00 -0.00000000000E+00 -0.16696640883E+04  0.16696640883E+04  0.25500000000E-02 0. -1.
    8880023    1    1    2    0    0  0.47267116763E+03 -0.26212939818E+03 -0.89359146890E+03  0.12346844834E+04  0.65864270000E+03 0. -1.
    8880022    1    1    2    0    0 -0.47267116763E+03  0.26212939818E+03 -0.47525860557E+03  0.73579361868E+03  0.15294330000E+03 0.  1.
<mgrwt>
<rscale>  0 0.76774396E+03</rscale>
<asrwt>0</asrwt>
<pdfrwt beam="1">  1        2 0.25687139E+00 0.85202116E+03</pdfrwt>
<pdfrwt beam="2">  1       -2 0.46279080E-01 0.85202116E+03</pdfrwt>
<totfact> 0.45758098E+01</totfact>
</mgrwt>
</event>
<event>
 4    2  0.3171963E-007  0.6868846E+03  0.7818608E-02  0.1005670E+00
          2   -1    0    0  501    0  0.00000000000E+00  0.00000000000E+00  0.44629802923E+04  0.44629802923E+04  0.25500000000E-02 0. -1.
         -2   -1    0    0    0  501 -0.00000000000E+00 -0.00000000000E+00 -0.97304503674E+02  0.97304503708E+02  0.25500000000E-02 0.  1.
    8880023    1    1    2    0    0  0.81001248389E+02 -0.17731072067E+03  0.42143395743E+04  0.42699494783E+04  0.65864270000E+03 0. -1.
    8880022    1    1    2    0    0 -0.81001248389E+02  0.17731072067E+03  0.15133621435E+03  0.29033531768E+03  0.15294330000E+03 0.  0.
<mgrwt>
<rscale>  0 0.53232489E+03</rscale>
<asrwt>0</asrwt>
<pdfrwt beam="1">  1        2 0.68661208E+00 0.68688463E+03</pdfrwt>
<pdfrwt beam="2">  1       -2 0.14969930E-01 0.68688463E+03</pdfrwt>
<totfact> 0.53874583E+00</totfact>
</mgrwt>
</event>
<event>
 4    2  0.3171963E-007  0.1338508E+04  0.7818608E-02  0.9033000E-01
          2   -1    0    0  501    0  0.00000000000E+00  0.00000000000E+00  0.25986699240E+04  0.25986699240E+04  0.25500000000E-02 0. -1.
         -2   -1    0    0    0  501 -0.00000000000E+00 -0.00000000000E+00 -0.10689739797E+04  0.10689739797E+04  0.25500000000E-02 0.  1.
    8880023    1    1    2    0    0 -0.35060749384E+03  0.11112456357E+04  0.19960211245E+04  0.24032692345E+04  0.65864270000E+03 0.  0.
    8880022    1    1    2    0    0  0.35060749384E+03 -0.11112456357E+04 -0.46632518015E+03  0.12643746693E+04  0.15294330000E+03 0.  0.
<mgrwt>
<rscale>  0 0.12956780E+04</rscale>
<asrwt>0</asrwt>
<pdfrwt beam="1">  1        2 0.39979536E+00 0.13385076E+04</pdfrwt>
<pdfrwt beam="2">  1       -2 0.16445754E+00 0.13385076E+04</pdfrwt>
<totfact> 0.68438449E-01</totfact>
</mgrwt>
</event>
<event>
 4    2  0.3171963E-007  0.7726359E+03  0.7818608E-02  0.9773428E-01
          2   -1    0    0  501    0  0.00000000000E+00  0.00000000000E+00  0.17251097111E+04  0.17251097111E+04  0.25500000000E-02 0. -1.
         -2   -1    0    0    0  501 -0.00000000000E+00 -0.00000000000E+00 -0.67280269180E+03  0.67280269180E+03  0.25500000000E-02 0.  1.
    8880023    1    1    2    0    0 -0.14952469707E+03  0.37523120398E+03  0.15542632010E+04  0.17357132239E+04  0.65864270000E+03 0. -1.
    8880022    1    1    2    0    0  0.14952469707E+03 -0.37523120398E+03 -0.50195618161E+03  0.66219917906E+03  0.15294330000E+03 0.  0.
<mgrwt>
<rscale>  0 0.66808225E+03</rscale>
<asrwt>0</asrwt>
<pdfrwt beam="1">  1        2 0.26540149E+00 0.77263594E+03</pdfrwt>
<pdfrwt beam="2">  1       -2 0.10350811E+00 0.77263594E+03</pdfrwt>
<totfact> 0.74125161E+00</totfact>
</mgrwt>
</event>
<event>
 4    2  0.3171963E-007  0.6896715E+03  0.7818608E-02  0.1004309E+00
         -2   -1    0    0    0  501 -0.00000000000E+00  0.00000000000E+00  0.71716213687E+03  0.71716213688E+03  0.25500000000E-02 0.  1.
          2   -1    0    0  501    0  0.00000000000E+00 -0.00000000000E+00 -0.11570174975E+04  0.11570174975E+04  0.25500000000E-02 0. -1.
    8880023    1    1    2    0    0  0.18330039130E+03 -0.90760528611E+02 -0.10251734022E+04  0.12355675691E+04  0.65864270000E+03 0. -1.
    8880022    1    1    2    0    0 -0.18330039130E+03  0.90760528611E+02  0.58531804161E+03  0.63861206523E+03  0.15294330000E+03 0.  0.
<mgrwt>
<rscale>  0 0.53800471E+03</rscale>
<asrwt>0</asrwt>
<pdfrwt beam="1">  1        2 0.17800269E+00 0.68967145E+03</pdfrwt>
<pdfrwt beam="2">  1       -2 0.11033264E+00 0.68967145E+03</pdfrwt>
<totfact> 0.13460485E+01</totfact>
</mgrwt>
</event>
<event>
 4    2  0.3171963E-007  0.7204012E+03  0.7818608E-02  0.9921231E-01
          2   -1    0    0  501    0  0.00000000000E+00  0.00000000000E+00  0.12620957531E+04  0.12620957531E+04  0.25500000000E-02 0. -1.
         -2   -1    0    0    0  501 -0.00000000000E+00 -0.00000000000E+00 -0.37054515103E+03  0.37054515103E+03  0.25500000000E-02 0.  1.
    8880023    1    1    2    0    0 -0.27553859384E+03  0.96156741648E+02  0.10449390866E+04  0.12692027170E+04  0.65864270000E+03 0. -1.
    8880022    1    1    2    0    0  0.27553859384E+03 -0.96156741648E+02 -0.15338848460E+03  0.36343818715E+03  0.15294330000E+03 0.  1.
<mgrwt>
<rscale>  0 0.59243292E+03</rscale>
<asrwt>0</asrwt>
<pdfrwt beam="1">  1        2 0.19416858E+00 0.72040117E+03</pdfrwt>
<pdfrwt beam="2">  1       -2 0.57006946E-01 0.72040117E+03</pdfrwt>
<totfact> 0.51264342E+01</totfact>
</mgrwt>
</event>
<event>
 4    2  0.3171963E-007  0.7364959E+03  0.7818608E-02  0.9870274E-01
         -2   -1    0    0    0  501 -0.00000000000E+00  0.00000000000E+00  0.34918961835E+03  0.34918961836E+03  0.25500000000E-02 0.  1.
          2   -1    0    0  501    0  0.00000000000E+00 -0.00000000000E+00 -0.93253277945E+03  0.93253277945E+03  0.25500000000E-02 0. -1.
    8880023    1    1    2    0    0 -0.26548455046E+03 -0.19527923910E+03 -0.54532712890E+03  0.91641034015E+03  0.65864270000E+03 0. -1.
    8880022    1    1    2    0    0  0.26548455046E+03  0.19527923910E+03 -0.38016032202E+02  0.36531205766E+03  0.15294330000E+03 0.  1.
<mgrwt>
<rscale>  0 0.61723800E+03</rscale>
<asrwt>0</asrwt>
<pdfrwt beam="1">  1        2 0.14346658E+00 0.73649592E+03</pdfrwt>
<pdfrwt beam="2">  1       -2 0.53721480E-01 0.73649592E+03</pdfrwt>
<totfact> 0.92334652E+01</totfact>
</mgrwt>
</event>
<event>
 4    2  0.3171963E-007  0.8659476E+03  0.7818608E-02  0.9583070E-01
         -2   -1    0    0    0  501 -0.00000000000E+00  0.00000000000E+00  0.52937870544E+03  0.52937870544E+03  0.25500000000E-02 0.  1.
          2   -1    0    0  501    0  0.00000000000E+00 -0.00000000000E+00 -0.12199796544E+04  0.12199796544E+04  0.25500000000E-02 0. -1.
    8880023    1    1    2    0    0  0.30492150611E+03  0.47231123604E+03 -0.77320687299E+03  0.11609108938E+04  0.65864270000E+03 0.  0.
    8880022    1    1    2    0    0 -0.30492150611E+03 -0.47231123604E+03  0.82605924058E+02  0.58844746604E+03  0.15294330000E+03 0.  0.
<mgrwt>
<rscale>  0 0.78426919E+03</rscale>
<asrwt>0</asrwt>
<pdfrwt beam="1">  1        2 0.18768918E+00 0.86594759E+03</pdfrwt>
<pdfrwt beam="2">  1       -2 0.81442878E-01 0.86594759E+03</pdfrwt>
<totfact> 0.24645748E+01</totfact>
</mgrwt>
</event>
<event>
 4    2  0.3171963E-007  0.1378301E+04  0.7818608E-02  0.9000730E-01
          2   -1    0    0  501    0  0.00000000000E+00  0.00000000000E+00  0.43511611683E+03  0.43511611684E+03  0.25500000000E-02 0. -1.
         -2   -1    0    0    0  501 -0.00000000000E+00 -0.00000000000E+00 -0.49605789591E+04  0.49605789591E+04  0.25500000000E-02 0.  1.
    8880023    1    1    2    0    0 -0.42652923540E+03 -0.11331262990E+04 -0.11129814150E+04  0.17715643467E+04  0.65864270000E+03 0.  0.
    8880022    1    1    2    0    0  0.42652923540E+03  0.11331262990E+04 -0.34124814272E+04  0.36241307292E+04  0.15294330000E+03 0.  0.
<mgrwt>
<rscale>  0 0.13369973E+04</rscale>
<asrwt>0</asrwt>
<pdfrwt beam="1">  1        2 0.66940945E-01 0.13783006E+04</pdfrwt>
<pdfrwt beam="2">  1       -2 0.76316595E+00 0.13783006E+04</pdfrwt>
<totfact> 0.88945823E-03</totfact>
</mgrwt>
</event>
<event>
 4    2  0.3171963E-007  0.6596202E+03  0.7818608E-02  0.1024549E+00
         -2   -1    0    0    0  501 -0.00000000000E+00  0.00000000000E+00  0.83343809002E+03  0.83343809002E+03  0.25500000000E-02 0.  1.
          2   -1    0    0  501    0  0.00000000000E+00 -0.00000000000E+00 -0.47015117951E+03  0.47015117952E+03  0.25500000000E-02 0. -1.
    8880023    1    1    2    0    0  0.34059706842E+02 -0.11336839882E+02 -0.22325148560E+03  0.69637634915E+03  0.65864270000E+03 0. -1.
    8880022    1    1    2    0    0 -0.34059706842E+02  0.11336839882E+02  0.58653839610E+03  0.60721292039E+03  0.15294330000E+03 0.  0.
<mgrwt>
<rscale>  0 0.46080176E+03</rscale>
<asrwt>0</asrwt>
<pdfrwt beam="1">  1        2 0.72330952E-01 0.65962019E+03</pdfrwt>
<pdfrwt beam="2">  1       -2 0.12822124E+00 0.65962019E+03</pdfrwt>
<totfact> 0.30326653E+01</totfact>
</mgrwt>
</event>
<event>
 4    2  0.3171963E-007  0.7575520E+03  0.7818608E-02  0.9811487E-01
          2   -1    0    0  501    0  0.00000000000E+00  0.00000000000E+00  0.16133400417E+04  0.16133400417E+04  0.25500000000E-02 0. -1.
         -2   -1    0    0    0  501 -0.00000000000E+00 -0.00000000000E+00 -0.23230741434E+03  0.23230741436E+03  0.25500000000E-02 0.  1.
    8880023    1    1    2    0    0 -0.26046498770E+02  0.37335821570E+03  0.60077194883E+03  0.96685672056E+03  0.65864270000E+03 0.  1.
    8880022    1    1    2    0    0  0.26046498770E+02 -0.37335821570E+03  0.78026067856E+03  0.87879073553E+03  0.15294330000E+03 0.  0.
<mgrwt>
<rscale>  0 0.64749720E+03</rscale>
<asrwt>0</asrwt>
<pdfrwt beam="1">  1        2 0.24820616E+00 0.75755197E+03</pdfrwt>
<pdfrwt beam="2">  1       -2 0.35739603E-01 0.75755197E+03</pdfrwt>
<totfact> 0.82290313E+01</totfact>
</mgrwt>
</event>
<event>
 4    2  0.3171963E-007  0.8081943E+03  0.7818608E-02  0.9693350E-01
         -2   -1    0    0    0  501 -0.00000000000E+00  0.00000000000E+00  0.95137900317E+03  0.95137900318E+03  0.25500000000E-02 0.  1.
          2   -1    0    0  501    0  0.00000000000E+00 -0.00000000000E+00 -0.67207403845E+03  0.67207403846E+03  0.25500000000E-02 0. -1.
    8880023    1    1    2    0    0 -0.21035072176E+03 -0.41847389381E+03 -0.30079216534E+03  0.86235373191E+03  0.65864270000E+03 0. -1.
    8880022    1    1    2    0    0  0.21035072176E+03  0.41847389381E+03  0.58009713006E+03  0.76109930973E+03  0.15294330000E+03 0.  0.
<mgrwt>
<rscale>  0 0.71414083E+03</rscale>
<asrwt>0</asrwt>
<pdfrwt beam="1">  1        2 0.10339601E+00 0.80819430E+03</pdfrwt>
<pdfrwt beam="2">  1       -2 0.14636600E+00 0.80819430E+03</pdfrwt>
<totfact> 0.13913065E+01</totfact>
</mgrwt>
</event>
<event>
 4    2  0.3171963E-007  0.9016991E+03  0.7818608E-02  0.9523310E-01
         -2   -1    0    0    0  501 -0.00000000000E+00  0.00000000000E+00  0.22550157947E+03  0.22550157949E+03  0.25500000000E-02 0.  1.
          2   -1    0    0  501    0  0.00000000000E+00 -0.00000000000E+00 -0.37765245828E+04  0.37765245828E+04  0.25500000000E-02 0. -1.
    8880023    1    1    2    0    0 -0.57056010632E+03 -0.23175879642E+03 -0.30867993986E+04  0.32158034312E+04  0.65864270000E+03 0.  0.
    8880022    1    1    2    0    0  0.57056010632E+03  0.23175879642E+03 -0.46422360466E+03  0.78622273103E+03  0.15294330000E+03 0.  0.
<mgrwt>
<rscale>  0 0.82586903E+03</rscale>
<asrwt>0</asrwt>
<pdfrwt beam="1">  1        2 0.58100374E+00 0.90169905E+03</pdfrwt>
<pdfrwt beam="2">  1       -2 0.34692553E-01 0.90169905E+03</pdfrwt>
<totfact> 0.42391236E+00</totfact>
</mgrwt>
</event>
<event>
 4    2  0.3171963E-007  0.1140147E+04  0.7818608E-02  0.9217621E-01
         -2   -1    0    0    0  501 -0.00000000000E+00  0.00000000000E+00  0.25965551925E+04  0.25965551925E+04  0.25500000000E-02 0.  1.
          2   -1    0    0  501    0  0.00000000000E+00 -0.00000000000E+00 -0.98570557177E+03  0.98570557177E+03  0.25500000000E-02 0. -1.
    8880023    1    1    2    0    0 -0.83312334017E+03  0.41476639356E+03 -0.51916203214E+03  0.12527829353E+04  0.65864270000E+03 0.  0.
    8880022    1    1    2    0    0  0.83312334017E+03 -0.41476639356E+03  0.21300116529E+04  0.23294778289E+04  0.15294330000E+03 0.  0.
<mgrwt>
<rscale>  0 0.10873391E+04</rscale>
<asrwt>0</asrwt>
<pdfrwt beam="1">  1        2 0.15164701E+00 0.11401473E+04</pdfrwt>
<pdfrwt beam="2">  1       -2 0.39947003E+00 0.11401473E+04</pdfrwt>
<totfact> 0.19146891E-01</totfact>
</mgrwt>
</event>
<event>
 4    2  0.3990594E-007  0.6722557E+03  0.7818608E-02  0.1014095E+00
         -2   -1    0    0    0  501 -0.00000000000E+00  0.00000000000E+00  0.15682897153E+04  0.15682897153E+04  0.25500000000E-02 0.  1.
          2   -1    0    0  501    0  0.00000000000E+00 -0.00000000000E+00 -0.12692005823E+04  0.12692005823E+04  0.25500000000E-02 0. -1.
    8880023    1    1    2    0    0  0.76305010301E+02 -0.11088330661E+03 -0.11726699731E+04  0.13516962064E+04  0.65864270000E+03 0. -1.
    8880022    1    1    2    0    0 -0.76305010301E+02  0.11088330661E+03  0.14717591061E+04  0.14857940913E+04  0.15294330000E+03 0.  0.
<mgrwt>
<rscale>  0 0.49879139E+03</rscale>
<asrwt>0</asrwt>
<pdfrwt beam="1">  1        2 0.19526163E+00 0.67225573E+03</pdfrwt>
<pdfrwt beam="2">  1       -2 0.24127534E+00 0.67225573E+03</pdfrwt>
<totfact> 0.13186347E+00</totfact>
</mgrwt>
</event>
<event>
 4    2  0.3171963E-007  0.6831914E+03  0.7818608E-02  0.1007573E+00
          2   -1    0    0  501    0  0.00000000000E+00  0.00000000000E+00  0.45712122180E+03  0.45712122181E+03  0.25500000000E-02 0. -1.
         -2   -1    0    0    0  501 -0.00000000000E+00 -0.00000000000E+00 -0.16227886388E+04  0.16227886388E+04  0.25500000000E-02 0.  1.
    8880023    1    1    2    0    0  0.17506263623E+03 -0.47889634732E+02  0.18560266150E+03  0.70795402247E+03  0.65864270000E+03 0. -1.
    8880022    1    1    2    0    0 -0.17506263623E+03  0.47889634732E+02 -0.13512700785E+04  0.13719558381E+04  0.15294330000E+03 0.  0.
<mgrwt>
<rscale>  0 0.52450690E+03</rscale>
<asrwt>0</asrwt>
<pdfrwt beam="1">  1        2 0.70326343E-01 0.68319144E+03</pdfrwt>
<pdfrwt beam="2">  1       -2 0.24965979E+00 0.68319144E+03</pdfrwt>
<totfact> 0.45790886E+00</totfact>
</mgrwt>
</event>
<event>
 4    2  0.3171963E-007  0.1236234E+04  0.7818608E-02  0.9122680E-01
         -2   -1    0    0    0  501 -0.00000000000E+00  0.00000000000E+00  0.14140008735E+04  0.14140008735E+04  0.25500000000E-02 0.  1.
          2   -1    0    0  501    0  0.00000000000E+00 -0.00000000000E+00 -0.16375510089E+04  0.16375510089E+04  0.25500000000E-02 0. -1.
    8880023    1    1    2    0    0 -0.10350088007E+04  0.15238642316E+03 -0.11179067568E+04  0.16667305009E+04  0.65864270000E+03 0.  0.
    8880022    1    1    2    0    0  0.10350088007E+04 -0.15238642316E+03  0.89435662142E+03  0.13848213815E+04  0.15294330000E+03 0.  0.
<mgrwt>
<rscale>  0 0.11888411E+04</rscale>
<asrwt>0</asrwt>
<pdfrwt beam="1">  1        2 0.25193093E+00 0.12362342E+04</pdfrwt>
<pdfrwt beam="2">  1       -2 0.21753859E+00 0.12362342E+04</pdfrwt>
<totfact> 0.10518562E+00</totfact>
</mgrwt>
</event>
<event>
 4    2  0.3171963E-007  0.7412772E+03  0.7818608E-02  0.9856242E-01
          2   -1    0    0  501    0  0.00000000000E+00  0.00000000000E+00  0.10939511316E+04  0.10939511316E+04  0.25500000000E-02 0. -1.
         -2   -1    0    0    0  501 -0.00000000000E+00 -0.00000000000E+00 -0.32452362285E+03  0.32452362286E+03  0.25500000000E-02 0.  1.
    8880023    1    1    2    0    0 -0.20073539297E+03 -0.27456681116E+03  0.73511212173E+03  0.10439739794E+04  0.65864270000E+03 0. -1.
    8880022    1    1    2    0    0  0.20073539297E+03  0.27456681116E+03  0.34315387062E+02  0.37450077515E+03  0.15294330000E+03 0.  0.
<mgrwt>
<rscale>  0 0.62429654E+03</rscale>
<asrwt>0</asrwt>
<pdfrwt beam="1">  1        2 0.16830018E+00 0.74127717E+03</pdfrwt>
<pdfrwt beam="2">  1       -2 0.49926710E-01 0.74127717E+03</pdfrwt>
<totfact> 0.84711324E+01</totfact>
</mgrwt>
</event>
<event>
 4    2  0.3171963E-007  0.9587189E+03  0.7818608E-02  0.9437679E-01
          2   -1    0    0  501    0  0.00000000000E+00  0.00000000000E+00  0.37600736411E+03  0.37600736412E+03  0.25500000000E-02 0. -1.
         -2   -1    0    0    0  501 -0.00000000000E+00 -0.00000000000E+00 -0.27210065882E+04  0.27210065882E+04  0.25500000000E-02 0.  1.
    8880023    1    1    2    0    0 -0.64931876424E+03  0.25242191940E+03 -0.42478027657E+03  0.10486086842E+04  0.65864270000E+03 0.  0.
    8880022    1    1    2    0    0  0.64931876424E+03 -0.25242191940E+03 -0.19202189476E+04  0.20484052681E+04  0.15294330000E+03 0.  0.
<mgrwt>
<rscale>  0 0.89038671E+03</rscale>
<asrwt>0</asrwt>
<pdfrwt beam="1">  1        2 0.57847289E-01 0.95871888E+03</pdfrwt>
<pdfrwt beam="2">  1       -2 0.41861639E+00 0.95871888E+03</pdfrwt>
<totfact> 0.49117103E-01</totfact>
</mgrwt>
</event>
<event>
 4    2  0.3171963E-007  0.6593048E+03  0.7818608E-02  0.1024880E+00
          2   -1    0    0  501    0  0.00000000000E+00  0.00000000000E+00  0.19184118916E+04  0.19184118916E+04  0.25500000000E-02 0. -1.
         -2   -1    0    0    0  501 -0.00000000000E+00 -0.00000000000E+00 -0.10211395150E+03  0.10211395153E+03  0.25500000000E-02 0.  1.
    8880023    1    1    2    0    0 -0.15823291594E+02 -0.24944348630E+02  0.17079341542E+04  0.18307708427E+04  0.65864270000E+03 0. -1.
    8880022    1    1    2    0    0  0.15823291594E+02  0.24944348630E+02  0.10836378590E+03  0.18975500045E+03  0.15294330000E+03 0.  0.
<mgrwt>
<rscale>  0 0.45965875E+03</rscale>
<asrwt>0</asrwt>
<pdfrwt beam="1">  1        2 0.29514030E+00 0.65930479E+03</pdfrwt>
<pdfrwt beam="2">  1       -2 0.15709838E-01 0.65930479E+03</pdfrwt>
<totfact> 0.24741762E+02</totfact>
</mgrwt>
</event>
<event>
 4    2  0.3171963E-007  0.7222815E+03  0.7818608E-02  0.9914940E-01
         -2   -1    0    0    0  501 -0.00000000000E+00  0.00000000000E+00  0.50134910825E+03  0.50134910826E+03  0.25500000000E-02 0.  1.
          2   -1    0    0  501    0  0.00000000000E+00 -0.00000000000E+00 -0.13050290867E+04  0.13050290867E+04  0.25500000000E-02 0. -1.
    8880023    1    1    2    0    0 -0.25229795424E+03 -0.15564734998E+03 -0.11291037515E+04  0.13403603408E+04  0.65864270000E+03 0. -1.
    8880022    1    1    2    0    0  0.25229795424E+03  0.15564734998E+03  0.32542377308E+03  0.46601785413E+03  0.15294330000E+03 0.  0.
<mgrwt>
<rscale>  0 0.59542643E+03</rscale>
<asrwt>0</asrwt>
<pdfrwt beam="1">  1        2 0.20077370E+00 0.72228150E+03</pdfrwt>
<pdfrwt beam="2">  1       -2 0.77130633E-01 0.72228150E+03</pdfrwt>
<totfact> 0.25216482E+01</totfact>
</mgrwt>
</event>
<event>
 4    2  0.3171963E-007  0.6601223E+03  0.7818608E-02  0.1024031E+00
         -2   -1    0    0    0  501 -0.00000000000E+00  0.00000000000E+00  0.44943463376E+03  0.44943463377E+03  0.25500000000E-02 0.  1.
          2   -1    0    0  501    0  0.00000000000E+00 -0.00000000000E+00 -0.65177147250E+03  0.65177147250E+03  0.25500000000E-02 0. -1.
    8880023    1    1    2    0    0  0.43558277620E+02  0.73408632650E+01 -0.45558956127E+03  0.80207435218E+03  0.65864270000E+03 0. -1.
    8880022    1    1    2    0    0 -0.43558277620E+02 -0.73408632650E+01  0.25325272253E+03  0.29913175409E+03  0.15294330000E+03 0.  0.
<mgrwt>
<rscale>  0 0.46259428E+03</rscale>
<asrwt>0</asrwt>
<pdfrwt beam="1">  1        2 0.10027253E+00 0.66012228E+03</pdfrwt>
<pdfrwt beam="2">  1       -2 0.69143789E-01 0.66012228E+03</pdfrwt>
<totfact> 0.87107626E+01</totfact>
</mgrwt>
</event>
<event>
 4    2  0.3171963E-007  0.8277996E+03  0.7818608E-02  0.9653629E-01
          2   -1    0    0  501    0  0.00000000000E+00  0.00000000000E+00  0.14566626143E+04  0.14566626143E+04  0.25500000000E-02 0. -1.
         -2   -1    0    0    0  501 -0.00000000000E+00 -0.00000000000E+00 -0.39601366198E+03  0.39601366199E+03  0.25500000000E-02 0.  1.
    8880023    1    1    2    0    0 -0.28188216901E+03  0.41471012834E+03  0.21093143960E+03  0.85425073967E+03  0.65864270000E+03 0.  0.
    8880022    1    1    2    0    0  0.28188216901E+03 -0.41471012834E+03  0.84971751273E+03  0.99842553664E+03  0.15294330000E+03 0.  0.
<mgrwt>
<rscale>  0 0.73846119E+03</rscale>
<asrwt>0</asrwt>
<pdfrwt beam="1">  1        2 0.22410194E+00 0.82779965E+03</pdfrwt>
<pdfrwt beam="2">  1       -2 0.60925179E-01 0.82779965E+03</pdfrwt>
<totfact> 0.34147652E+01</totfact>
</mgrwt>
</event>
<event>
 4    2  0.3171963E-007  0.6984575E+03  0.7818608E-02  0.1000366E+00
          2   -1    0    0  501    0  0.00000000000E+00  0.00000000000E+00  0.60297656586E+03  0.60297656586E+03  0.25500000000E-02 0. -1.
         -2   -1    0    0    0  501 -0.00000000000E+00 -0.00000000000E+00 -0.16412567742E+04  0.16412567742E+04  0.25500000000E-02 0.  1.
    8880023    1    1    2    0    0  0.22702269143E+03 -0.49934189869E+02  0.38258724482E+03  0.79637675249E+03  0.65864270000E+03 0.  0.
    8880022    1    1    2    0    0 -0.22702269143E+03  0.49934189869E+02 -0.14208674532E+04  0.14478565876E+04  0.15294330000E+03 0.  0.
<mgrwt>
<rscale>  0 0.55490000E+03</rscale>
<asrwt>0</asrwt>
<pdfrwt beam="1">  1        2 0.92765626E-01 0.69845754E+03</pdfrwt>
<pdfrwt beam="2">  1       -2 0.25250104E+00 0.69845754E+03</pdfrwt>
<totfact> 0.31755014E+00</totfact>
</mgrwt>
</event>
<event>
 4    2  0.3171963E-007  0.6860189E+03  0.7818608E-02  0.1006105E+00
         -2   -1    0    0    0  501 -0.00000000000E+00  0.00000000000E+00  0.39799361237E+03  0.39799361237E+03  0.25500000000E-02 0.  1.
          2   -1    0    0  501    0  0.00000000000E+00 -0.00000000000E+00 -0.19974143766E+04  0.19974143766E+04  0.25500000000E-02 0. -1.
    8880023    1    1    2    0    0 -0.15973821863E+03  0.10627982522E+03 -0.18926036925E+04  0.20130997598E+04  0.65864270000E+03 0. -1.
    8880022    1    1    2    0    0  0.15973821863E+03 -0.10627982522E+03  0.29318292821E+03  0.38230822924E+03  0.15294330000E+03 0.  0.
<mgrwt>
<rscale>  0 0.53052351E+03</rscale>
<asrwt>0</asrwt>
<pdfrwt beam="1">  1        2 0.30729451E+00 0.68601888E+03</pdfrwt>
<pdfrwt beam="2">  1       -2 0.61229788E-01 0.68601888E+03</pdfrwt>
<totfact> 0.17365182E+01</totfact>
</mgrwt>
</event>
<event>
 4    2  0.3171963E-007  0.6656638E+03  0.7818608E-02  0.1018983E+00
         -2   -1    0    0    0  501 -0.00000000000E+00  0.00000000000E+00  0.26940909944E+03  0.26940909945E+03  0.25500000000E-02 0.  1.
          2   -1    0    0  501    0  0.00000000000E+00 -0.00000000000E+00 -0.13801758292E+04  0.13801758292E+04  0.25500000000E-02 0. -1.
    8880023    1    1    2    0    0  0.17452122251E+02  0.94834391276E+02 -0.12534644183E+04  0.14192538154E+04  0.65864270000E+03 0. -1.
    8880022    1    1    2    0    0 -0.17452122251E+02 -0.94834391276E+02  0.14269768862E+03  0.23033111317E+03  0.15294330000E+03 0.  0.
<mgrwt>
<rscale>  0 0.48055460E+03</rscale>
<asrwt>0</asrwt>
<pdfrwt beam="1">  1        2 0.21233474E+00 0.66566384E+03</pdfrwt>
<pdfrwt beam="2">  1       -2 0.41447554E-01 0.66566384E+03</pdfrwt>
<totfact> 0.84061282E+01</totfact>
</mgrwt>
</event>
<event>
 4    2  0.3171963E-007  0.7338907E+03  0.7818608E-02  0.9878114E-01
          2   -1    0    0  501    0  0.00000000000E+00  0.00000000000E+00  0.27888990123E+03  0.27888990124E+03  0.25500000000E-02 0. -1.
         -2   -1    0    0    0  501 -0.00000000000E+00 -0.00000000000E+00 -0.13293938780E+04  0.13293938780E+04  0.25500000000E-02 0.  1.
    8880023    1    1    2    0    0 -0.31468919364E+03  0.75868706834E+02 -0.33193875214E+03  0.80546811899E+03  0.65864270000E+03 0. -1.
    8880022    1    1    2    0    0  0.31468919364E+03 -0.75868706834E+02 -0.71856522462E+03  0.80281566023E+03  0.15294330000E+03 0.  0.
<mgrwt>
<rscale>  0 0.61333790E+03</rscale>
<asrwt>0</asrwt>
<pdfrwt beam="1">  1        2 0.42906139E-01 0.73389070E+03</pdfrwt>
<pdfrwt beam="2">  1       -2 0.20452213E+00 0.73389070E+03</pdfrwt>
<totfact> 0.15085356E+01</totfact>
</mgrwt>
</event>
<event>
 4    2  0.3171963E-007  0.7965642E+03  0.7818608E-02  0.9718275E-01
          2   -1    0    0  501    0  0.00000000000E+00  0.00000000000E+00  0.13161131792E+04  0.13161131792E+04  0.25500000000E-02 0. -1.
         -2   -1    0    0    0  501 -0.00000000000E+00 -0.00000000000E+00 -0.32570673888E+03  0.32570673889E+03  0.25500000000E-02 0.  1.
    8880023    1    1    2    0    0 -0.32547500499E+03  0.30784779139E+03  0.41981286648E+03  0.90042061875E+03  0.65864270000E+03 0.  0.
    8880022    1    1    2    0    0  0.32547500499E+03 -0.30784779139E+03  0.57059357381E+03  0.74139929931E+03  0.15294330000E+03 0.  0.
<mgrwt>
<rscale>  0 0.69939062E+03</rscale>
<asrwt>0</asrwt>
<pdfrwt beam="1">  1        2 0.20247895E+00 0.79656415E+03</pdfrwt>
<pdfrwt beam="2">  1       -2 0.50108728E-01 0.79656415E+03</pdfrwt>
<totfact> 0.61809787E+01</totfact>
</mgrwt>
</event>
<event>
 4    2  0.3171963E-007  0.6865720E+03  0.7818608E-02  0.1005826E+00
          2   -1    0    0  501    0  0.00000000000E+00  0.00000000000E+00  0.83446589739E+03  0.83446589739E+03  0.25500000000E-02 0. -1.
         -2   -1    0    0    0  501 -0.00000000000E+00 -0.00000000000E+00 -0.84715976600E+03  0.84715976601E+03  0.25500000000E-02 0.  1.
    8880023    1    1    2    0    0  0.12091352951E+03 -0.15149510075E+03  0.66776694238E+03  0.95775453158E+03  0.65864270000E+03 0. -1.
    8880022    1    1    2    0    0 -0.12091352951E+03  0.15149510075E+03 -0.68046081099E+03  0.72387113182E+03  0.15294330000E+03 0.  0.
<mgrwt>
<rscale>  0 0.53167641E+03</rscale>
<asrwt>0</asrwt>
<pdfrwt beam="1">  1        2 0.12837937E+00 0.68657196E+03</pdfrwt>
<pdfrwt beam="2">  1       -2 0.13033227E+00 0.68657196E+03</pdfrwt>
<totfact> 0.14360826E+01</totfact>
</mgrwt>
</event>
<event>
 4    2  0.3171963E-007  0.7635984E+03  0.7818608E-02  0.9795879E-01
          2   -1    0    0  501    0  0.00000000000E+00  0.00000000000E+00  0.49265641647E+03  0.49265641648E+03  0.25500000000E-02 0. -1.
         -2   -1    0    0    0  501 -0.00000000000E+00 -0.00000000000E+00 -0.16111180851E+04  0.16111180851E+04  0.25500000000E-02 0.  1.
    8880023    1    1    2    0    0  0.32002324735E+03  0.21646569144E+03  0.14190925456E+03  0.77667285083E+03  0.65864270000E+03 0.  0.
    8880022    1    1    2    0    0 -0.32002324735E+03 -0.21646569144E+03 -0.12603709231E+04  0.13271016507E+04  0.15294330000E+03 0.  0.
<mgrwt>
<rscale>  0 0.65584158E+03</rscale>
<asrwt>0</asrwt>
<pdfrwt beam="1">  1        2 0.75793296E-01 0.76359838E+03</pdfrwt>
<pdfrwt beam="2">  1       -2 0.24786432E+00 0.76359838E+03</pdfrwt>
<totfact> 0.42610356E+00</totfact>
</mgrwt>
</event>
<event>
 4    2  0.3171963E-007  0.6695703E+03  0.7818608E-02  0.1015973E+00
          2   -1    0    0  501    0  0.00000000000E+00  0.00000000000E+00  0.21910671039E+04  0.21910671039E+04  0.25500000000E-02 0. -1.
         -2   -1    0    0    0  501 -0.00000000000E+00 -0.00000000000E+00 -0.59101672735E+03  0.59101672736E+03  0.25500000000E-02 0.  1.
    8880023    1    1    2    0    0  0.11987963208E+03  0.11959361611E+02  0.21219331218E+04  0.22250673096E+04  0.65864270000E+03 0. -1.
    8880022    1    1    2    0    0 -0.11987963208E+03 -0.11959361611E+02 -0.52188274530E+03  0.55701652163E+03  0.15294330000E+03 0.  0.
<mgrwt>
<rscale>  0 0.49168317E+03</rscale>
<asrwt>0</asrwt>
<pdfrwt beam="1">  1        2 0.33708725E+00 0.66957028E+03</pdfrwt>
<pdfrwt beam="2">  1       -2 0.90925651E-01 0.66957028E+03</pdfrwt>
<totfact> 0.56935189E+00</totfact>
</mgrwt>
</event>
<event>
 4    2  0.3171963E-007  0.8215057E+03  0.7818608E-02  0.9666091E-01
         -2   -1    0    0    0  501 -0.00000000000E+00  0.00000000000E+00  0.96742458002E+03  0.96742458003E+03  0.25500000000E-02 0.  1.
          2   -1    0    0  501    0  0.00000000000E+00 -0.00000000000E+00 -0.11793290090E+04  0.11793290090E+04  0.25500000000E-02 0. -1.
    8880023    1    1    2    0    0 -0.27731602663E+02  0.49019632876E+03 -0.94443933961E+03  0.12517337397E+04  0.65864270000E+03 0. -1.
    8880022    1    1    2    0    0  0.27731602663E+02 -0.49019632876E+03  0.73253491062E+03  0.89501984939E+03  0.15294330000E+03 0.  0.
<mgrwt>
<rscale>  0 0.73072092E+03</rscale>
<asrwt>0</asrwt>
<pdfrwt beam="1">  1        2 0.18143523E+00 0.82150574E+03</pdfrwt>
<pdfrwt beam="2">  1       -2 0.14883455E+00 0.82150574E+03</pdfrwt>
<totfact> 0.60296639E+00</totfact>
</mgrwt>
</event>
<event>
 4    2  0.3171963E-007  0.8648482E+03  0.7818608E-02  0.9584997E-01
          2   -1    0    0  501    0  0.00000000000E+00  0.00000000000E+00  0.68429664556E+03  0.68429664557E+03  0.25500000000E-02 0. -1.
         -2   -1    0    0    0  501 -0.00000000000E+00 -0.00000000000E+00 -0.10064118227E+04  0.10064118227E+04  0.25500000000E-02 0.  1.
    8880023    1    1    2    0    0  0.36998281074E+03 -0.42102834944E+03  0.22395823998E+03  0.89337542545E+03  0.65864270000E+03 0.  0.
    8880022    1    1    2    0    0 -0.36998281074E+03  0.42102834944E+03 -0.54607341711E+03  0.79733304282E+03  0.15294330000E+03 0.  0.
<mgrwt>
<rscale>  0 0.78297189E+03</rscale>
<asrwt>0</asrwt>
<pdfrwt beam="1">  1        2 0.10527641E+00 0.86484817E+03</pdfrwt>
<pdfrwt beam="2">  1       -2 0.15483259E+00 0.86484817E+03</pdfrwt>
<totfact> 0.11656212E+01</totfact>
</mgrwt>
</event>
<event>
 4    2  0.3171963E-007  0.6813634E+03  0.7818608E-02  0.1008563E+00
         -2   -1    0    0    0  501 -0.00000000000E+00  0.00000000000E+00  0.26044742300E+03  0.26044742302E+03  0.25500000000E-02 0.  1.
          2   -1    0    0  501    0  0.00000000000E+00 -0.00000000000E+00 -0.11468091441E+04  0.11468091441E+04  0.25500000000E-02 0. -1.
    8880023    1    1    2    0    0  0.10055723873E+03  0.14259761050E+03 -0.94773898948E+03  0.11672468613E+04  0.65864270000E+03 0. -1.
    8880022    1    1    2    0    0 -0.10055723873E+03 -0.14259761050E+03  0.61377268407E+02  0.24000970579E+03  0.15294330000E+03 0.  0.
<mgrwt>
<rscale>  0 0.52049875E+03</rscale>
<asrwt>0</asrwt>
<pdfrwt beam="1">  1        2 0.17643217E+00 0.68136337E+03</pdfrwt>
<pdfrwt beam="2">  1       -2 0.40068835E-01 0.68136337E+03</pdfrwt>
<totfact> 0.12250500E+02</totfact>
</mgrwt>
</event>
<event>
 4    2  0.3171963E-007  0.1053055E+04  0.7818608E-02  0.9315218E-01
         -2   -1    0    0    0  501 -0.00000000000E+00  0.00000000000E+00  0.47832042975E+03  0.47832042976E+03  0.25500000000E-02 0.  1.
          2   -1    0    0  501    0  0.00000000000E+00 -0.00000000000E+00 -0.18975836051E+04  0.18975836051E+04  0.25500000000E-02 0. -1.
    8880023    1    1    2    0    0  0.68098131805E+03  0.45975968262E+03 -0.63442859473E+03  0.12294000038E+04  0.65864270000E+03 0.  1.
    8880022    1    1    2    0    0 -0.68098131805E+03 -0.45975968262E+03 -0.78483458066E+03  0.11465040311E+04  0.15294330000E+03 0. -1.
<mgrwt>
<rscale>  0 0.99393860E+03</rscale>
<asrwt>0</asrwt>
<pdfrwt beam="1">  1        2 0.29193593E+00 0.10530549E+04</pdfrwt>
<pdfrwt beam="2">  1       -2 0.73587760E-01 0.10530549E+04</pdfrwt>
<totfact> 0.12633579E+01</totfact>
</mgrwt>
</event>
<event>
 4    2  0.3171963E-007  0.1091196E+04  0.7818608E-02  0.9270922E-01
          2   -1    0    0  501    0  0.00000000000E+00  0.00000000000E+00  0.13102295577E+04  0.13102295577E+04  0.25500000000E-02 0. -1.
         -2   -1    0    0    0  501 -0.00000000000E+00 -0.00000000000E+00 -0.13264647788E+04  0.13264647788E+04  0.25500000000E-02 0.  1.
    8880023    1    1    2    0    0 -0.48601435478E+03  0.72158827214E+03  0.86235611564E+03  0.13908155392E+04  0.65864270000E+03 0. -1.
    8880022    1    1    2    0    0  0.48601435478E+03 -0.72158827214E+03 -0.87859133676E+03  0.12458787973E+04  0.15294330000E+03 0.  0.
<mgrwt>
<rscale>  0 0.10350452E+04</rscale>
<asrwt>0</asrwt>
<pdfrwt beam="1">  1        2 0.20157378E+00 0.10911965E+04</pdfrwt>
<pdfrwt beam="2">  1       -2 0.20407150E+00 0.10911965E+04</pdfrwt>
<totfact> 0.20031155E+00</totfact>
</mgrwt>
</event>
<event>
 4    2  0.3171963E-007  0.7754129E+03  0.7818608E-02  0.9766725E-01
         -2   -1    0    0    0  501 -0.00000000000E+00  0.00000000000E+00  0.15042504478E+04  0.15042504478E+04  0.25500000000E-02 0.  1.
          2   -1    0    0  501    0  0.00000000000E+00 -0.00000000000E+00 -0.80950810781E+03  0.80950810781E+03  0.25500000000E-02 0. -1.
    8880023    1    1    2    0    0  0.40561580359E+03 -0.54136229593E+02 -0.57864405787E+03  0.96751954164E+03  0.65864270000E+03 0. -1.
    8880022    1    1    2    0    0 -0.40561580359E+03  0.54136229593E+02  0.12733863979E+04  0.13462390140E+04  0.15294330000E+03 0.  0.
<mgrwt>
<rscale>  0 0.67179273E+03</rscale>
<asrwt>0</asrwt>
<pdfrwt beam="1">  1        2 0.12453971E+00 0.77541287E+03</pdfrwt>
<pdfrwt beam="2">  1       -2 0.23142314E+00 0.77541287E+03</pdfrwt>
<totfact> 0.29081466E+00</totfact>
</mgrwt>
</event>
<event>
 4    2  0.3171963E-007  0.8631800E+03  0.7818608E-02  0.9587932E-01
         -2   -1    0    0    0  501 -0.00000000000E+00  0.00000000000E+00  0.74595656773E+03  0.74595656774E+03  0.25500000000E-02 0.  1.
          2   -1    0    0  501    0  0.00000000000E+00 -0.00000000000E+00 -0.14275037636E+04  0.14275037636E+04  0.25500000000E-02 0. -1.
    8880023    1    1    2    0    0 -0.38389786901E+03 -0.40483571110E+03 -0.11438048757E+04  0.14329582432E+04  0.65864270000E+03 0. -1.
    8880022    1    1    2    0    0  0.38389786901E+03  0.40483571110E+03  0.46225767990E+03  0.74050208808E+03  0.15294330000E+03 0.  1.
<mgrwt>
<rscale>  0 0.78100120E+03</rscale>
<asrwt>0</asrwt>
<pdfrwt beam="1">  1        2 0.21961596E+00 0.86318001E+03</pdfrwt>
<pdfrwt beam="2">  1       -2 0.11476255E+00 0.86318001E+03</pdfrwt>
<totfact> 0.83444756E+00</totfact>
</mgrwt>
</event>
<event>
 4    2  0.3171963E-007  0.8717753E+03  0.7818608E-02  0.9572951E-01
          2   -1    0    0  501    0  0.00000000000E+00  0.00000000000E+00  0.15190495242E+04  0.15190495242E+04  0.25500000000E-02 0. -1.
         -2   -1    0    0    0  501 -0.00000000000E+00 -0.00000000000E+00 -0.75482816239E+03  0.75482816239E+03  0.25500000000E-02 0.  1.
    8880023    1    1    2    0    0  0.32789523821E+03  0.46761814649E+03  0.12394394594E+04  0.15153225393E+04  0.65864270000E+03 0. -1.
    8880022    1    1    2    0    0 -0.32789523821E+03 -0.46761814649E+03 -0.47521809763E+03  0.75855514731E+03  0.15294330000E+03 0.  0.
<mgrwt>
<rscale>  0 0.79112621E+03</rscale>
<asrwt>0</asrwt>
<pdfrwt beam="1">  1        2 0.23369993E+00 0.87177533E+03</pdfrwt>
<pdfrwt beam="2">  1       -2 0.11612741E+00 0.87177533E+03</pdfrwt>
<totfact> 0.71935733E+00</totfact>
</mgrwt>
</event>
<event>
 4    2  0.3171963E-007  0.1154578E+04  0.7818608E-02  0.9202592E-01
         -2   -1    0    0    0  501 -0.00000000000E+00  0.00000000000E+00  0.40661171005E+03  0.40661171006E+03  0.25500000000E-02 0.  1.
          2   -1    0    0  501    0  0.00000000000E+00 -0.00000000000E+00 -0.30167927458E+04  0.30167927458E+04  0.25500000000E-02 0. -1.
    8880023    1    1    2    0    0  0.48377730398E+03  0.81559776407E+03 -0.90775827026E+03  0.14686985654E+04  0.65864270000E+03 0.  0.
    8880022    1    1    2    0    0 -0.48377730398E+03 -0.81559776407E+03 -0.17024227655E+04  0.19547058904E+04  0.15294330000E+03 0.  0.
<mgrwt>
<rscale>  0 0.11026712E+04</rscale>
<asrwt>0</asrwt>
<pdfrwt beam="1">  1        2 0.46412195E+00 0.11545780E+04</pdfrwt>
<pdfrwt beam="2">  1       -2 0.62555650E-01 0.11545780E+04</pdfrwt>
<totfact> 0.40358321E+00</totfact>
</mgrwt>
</event>
<event>
 4    2  0.3171963E-007  0.1015330E+04  0.7818608E-02  0.9361771E-01
          2   -1    0    0  501    0  0.00000000000E+00  0.00000000000E+00  0.14494051755E+04  0.14494051755E+04  0.25500000000E-02 0. -1.
         -2   -1    0    0    0  501 -0.00000000000E+00 -0.00000000000E+00 -0.79641972100E+03  0.79641972101E+03  0.25500000000E-02 0.  1.
    8880023    1    1    2    0    0 -0.13582769056E+03 -0.76068038186E+03  0.96293575044E+03  0.13993352960E+04  0.65864270000E+03 0. -1.
    8880022    1    1    2    0    0  0.13582769056E+03  0.76068038186E+03 -0.30995029591E+03  0.84648960054E+03  0.15294330000E+03 0.  0.
<mgrwt>
<rscale>  0 0.95289672E+03</rscale>
<asrwt>0</asrwt>
<pdfrwt beam="1">  1        2 0.22298541E+00 0.10153295E+04</pdfrwt>
<pdfrwt beam="2">  1       -2 0.12252611E+00 0.10153295E+04</pdfrwt>
<totfact> 0.67811243E+00</totfact>
</mgrwt>
</event>
<event>
 4    2  0.3171963E-007  0.6829738E+03  0.7818608E-02  0.1007689E+00
         -2   -1    0    0    0  501 -0.00000000000E+00  0.00000000000E+00  0.10036514716E+04  0.10036514716E+04  0.25500000000E-02 0.  1.
          2   -1    0    0  501    0  0.00000000000E+00 -0.00000000000E+00 -0.36976777934E+03  0.36976777935E+03  0.25500000000E-02 0. -1.
    8880023    1    1    2    0    0 -0.10544092606E+03 -0.14671490222E+03 -0.14549959403E+02  0.68312880118E+03  0.65864270000E+03 0. -1.
    8880022    1    1    2    0    0  0.10544092606E+03  0.14671490222E+03  0.64843365168E+03  0.69029044979E+03  0.15294330000E+03 0.  0.
<mgrwt>
<rscale>  0 0.52403487E+03</rscale>
<asrwt>0</asrwt>
<pdfrwt beam="1">  1        2 0.56887351E-01 0.68297383E+03</pdfrwt>
<pdfrwt beam="2">  1       -2 0.15440792E+00 0.68297383E+03</pdfrwt>
<totfact> 0.24541424E+01</totfact>
</mgrwt>
</event>
<event>
 4    2  0.3171963E-007  0.9898358E+03  0.7818608E-02  0.9394978E-01
          2   -1    0    0  501    0  0.00000000000E+00  0.00000000000E+00  0.18708587635E+04  0.18708587635E+04  0.25500000000E-02 0. -1.
         -2   -1    0    0    0  501 -0.00000000000E+00 -0.00000000000E+00 -0.86619434029E+03  0.86619434030E+03  0.25500000000E-02 0.  1.
    8880023    1    1    2    0    0  0.68125655254E+03  0.28610168897E+03  0.15267086871E+04  0.18195093537E+04  0.65864270000E+03 0. -1.
    8880022    1    1    2    0    0 -0.68125655254E+03 -0.28610168897E+03 -0.52204426389E+03  0.91754375006E+03  0.15294330000E+03 0.  0.
<mgrwt>
<rscale>  0 0.92490128E+03</rscale>
<asrwt>0</asrwt>
<pdfrwt beam="1">  1        2 0.28782442E+00 0.98983578E+03</pdfrwt>
<pdfrwt beam="2">  1       -2 0.13326067E+00 0.98983578E+03</pdfrwt>
<totfact> 0.32076591E+00</totfact>
</mgrwt>
</event>
<event>
 4    2  0.4810657E-007  0.1365049E+04  0.7818608E-02  0.9011328E-01
          2   -1    0    0  501    0  0.00000000000E+00  0.00000000000E+00  0.24980373882E+04  0.24980373882E+04  0.25500000000E-02 0. -1.
         -2   -1    0    0    0  501 -0.00000000000E+00 -0.00000000000E+00 -0.18673468025E+04  0.18673468025E+04  0.25500000000E-02 0.  1.
    8880023    1    1    2    0    0  0.11955311185E+04 -0.15948827561E+02  0.20752651328E+04  0.24839654985E+04  0.65864270000E+03 0. -1.
    8880022    1    1    2    0    0 -0.11955311185E+04  0.15948827561E+02 -0.14445745471E+04  0.18814186922E+04  0.15294330000E+03 0.  0.
<mgrwt>
<rscale>  0 0.13232509E+04</rscale>
<asrwt>0</asrwt>
<pdfrwt beam="1">  1        2 0.38431345E+00 0.13650492E+04</pdfrwt>
<pdfrwt beam="2">  1       -2 0.28728412E+00 0.13650492E+04</pdfrwt>
<totfact> 0.12678750E-01</totfact>
</mgrwt>
</event>
<event>
 4    2  0.3171963E-007  0.8123483E+03  0.7818608E-02  0.9684706E-01
          2   -1    0    0  501    0  0.00000000000E+00  0.00000000000E+00  0.69507763325E+03  0.69507763326E+03  0.25500000000E-02 0. -1.
         -2   -1    0    0    0  501 -0.00000000000E+00 -0.00000000000E+00 -0.85981172641E+03  0.85981172641E+03  0.25500000000E-02 0.  1.
    8880023    1    1    2    0    0  0.28685510940E+03  0.37922782746E+03  0.30644782583E+03  0.86822812390E+03  0.65864270000E+03 0.  0.
    8880022    1    1    2    0    0 -0.28685510940E+03 -0.37922782746E+03 -0.47118191898E+03  0.68666123577E+03  0.15294330000E+03 0.  0.
<mgrwt>
<rscale>  0 0.71934733E+03</rscale>
<asrwt>0</asrwt>
<pdfrwt beam="1">  1        2 0.10693502E+00 0.81234833E+03</pdfrwt>
<pdfrwt beam="2">  1       -2 0.13227873E+00 0.81234833E+03</pdfrwt>
<totfact> 0.17322469E+01</totfact>
</mgrwt>
</event>
<event>
 4    2  0.3171963E-007  0.7271518E+03  0.7818608E-02  0.9899090E-01
         -2   -1    0    0    0  501 -0.00000000000E+00  0.00000000000E+00  0.14326874884E+03  0.14326874887E+03  0.25500000000E-02 0.  1.
          2   -1    0    0  501    0  0.00000000000E+00 -0.00000000000E+00 -0.31134150012E+04  0.31134150012E+04  0.25500000000E-02 0. -1.
    8880023    1    1    2    0    0  0.27807817278E+03 -0.13271063960E+03 -0.27586473747E+04  0.28528731357E+04  0.65864270000E+03 0. -1.
    8880022    1    1    2    0    0 -0.27807817278E+03  0.13271063960E+03 -0.21149887768E+03  0.40381061442E+03  0.15294330000E+03 0.  0.
<mgrwt>
<rscale>  0 0.60305407E+03</rscale>
<asrwt>0</asrwt>
<pdfrwt beam="1">  1        2 0.47898687E+00 0.72715183E+03</pdfrwt>
<pdfrwt beam="2">  1       -2 0.22041348E-01 0.72715183E+03</pdfrwt>
<totfact> 0.28243259E+01</totfact>
</mgrwt>
</event>
<event>
 4    2  0.3171963E-007  0.8970586E+03  0.7818608E-02  0.9530770E-01
         -2   -1    0    0    0  501 -0.00000000000E+00  0.00000000000E+00  0.36363006990E+03  0.36363006990E+03  0.25500000000E-02 0.  1.
          2   -1    0    0  501    0  0.00000000000E+00 -0.00000000000E+00 -0.29360013094E+04  0.29360013094E+04  0.25500000000E-02 0. -1.
    8880023    1    1    2    0    0  0.35021902169E+03  0.49824747546E+03 -0.25136959599E+04  0.26689663720E+04  0.65864270000E+03 0.  0.
    8880022    1    1    2    0    0 -0.35021902169E+03 -0.49824747546E+03 -0.58675279611E+02  0.63066500728E+03  0.15294330000E+03 0.  0.
<mgrwt>
<rscale>  0 0.82052788E+03</rscale>
<asrwt>0</asrwt>
<pdfrwt beam="1">  1        2 0.45169249E+00 0.89705859E+03</pdfrwt>
<pdfrwt beam="2">  1       -2 0.55943090E-01 0.89705859E+03</pdfrwt>
<totfact> 0.59388937E+00</totfact>
</mgrwt>
</event>
<event>
 4    2  0.3171963E-007  0.8214962E+03  0.7818608E-02  0.9666110E-01
         -2   -1    0    0    0  501 -0.00000000000E+00  0.00000000000E+00  0.45934246737E+03  0.45934246738E+03  0.25500000000E-02 0.  1.
          2   -1    0    0  501    0  0.00000000000E+00 -0.00000000000E+00 -0.28665917233E+04  0.28665917233E+04  0.25500000000E-02 0. -1.
    8880023    1    1    2    0    0  0.82293494603E+02 -0.48401823506E+03  0.42693603496E+02  0.82260489980E+03  0.65864270000E+03 0.  0.
    8880022    1    1    2    0    0 -0.82293494603E+02  0.48401823506E+03 -0.24499428595E+04  0.25033292909E+04  0.15294330000E+03 0.  0.
<mgrwt>
<rscale>  0 0.73070919E+03</rscale>
<asrwt>0</asrwt>
<pdfrwt beam="1">  1        2 0.44101410E+00 0.82149624E+03</pdfrwt>
<pdfrwt beam="2">  1       -2 0.70668073E-01 0.82149624E+03</pdfrwt>
<totfact> 0.40189044E+00</totfact>
</mgrwt>
</event>
<event>
 4    2  0.3760697E-007  0.7594791E+03  0.7818608E-02  0.9806458E-01
         -2   -1    0    0    0  501 -0.00000000000E+00  0.00000000000E+00  0.15946501445E+04  0.15946501445E+04  0.25500000000E-02 0.  1.
          2   -1    0    0  501    0  0.00000000000E+00 -0.00000000000E+00 -0.10159949659E+04  0.10159949659E+04  0.25500000000E-02 0. -1.
    8880023    1    1    2    0    0 -0.90814139391E+02 -0.36708461843E+03 -0.84121896779E+03  0.11333392621E+04  0.65864270000E+03 0. -1.
    8880022    1    1    2    0    0  0.90814139391E+02  0.36708461843E+03  0.14198741464E+04  0.14773058483E+04  0.15294330000E+03 0.  0.
<mgrwt>
<rscale>  0 0.65017127E+03</rscale>
<asrwt>0</asrwt>
<pdfrwt beam="1">  1        2 0.15630692E+00 0.75947912E+03</pdfrwt>
<pdfrwt beam="2">  1       -2 0.24533079E+00 0.75947912E+03</pdfrwt>
<totfact> 0.17424290E+00</totfact>
</mgrwt>
</event>
<event>
 4    2  0.3171963E-007  0.6770340E+03  0.7818608E-02  0.1011054E+00
         -2   -1    0    0    0  501 -0.00000000000E+00  0.00000000000E+00  0.41676856773E+03  0.41676856774E+03  0.25500000000E-02 0.  1.
          2   -1    0    0  501    0  0.00000000000E+00 -0.00000000000E+00 -0.66382364529E+03  0.66382364529E+03  0.25500000000E-02 0. -1.
    8880023    1    1    2    0    0  0.14302043526E+03 -0.64109495642E+02 -0.42417799410E+03  0.79893807599E+03  0.65864270000E+03 0. -1.
    8880022    1    1    2    0    0 -0.14302043526E+03  0.64109495642E+02  0.17712291654E+03  0.28165413704E+03  0.15294330000E+03 0.  0.
<mgrwt>
<rscale>  0 0.51058005E+03</rscale>
<asrwt>0</asrwt>
<pdfrwt beam="1">  1        2 0.10212671E+00 0.67703403E+03</pdfrwt>
<pdfrwt beam="2">  1       -2 0.64118241E-01 0.67703403E+03</pdfrwt>
<totfact> 0.10008762E+02</totfact>
</mgrwt>
</event>
<event>
 4    2  0.3171963E-007  0.6810595E+03  0.7818608E-02  0.1008731E+00
         -2   -1    0    0    0  501 -0.00000000000E+00  0.00000000000E+00  0.14515033207E+04  0.14515033207E+04  0.25500000000E-02 0.  1.
          2   -1    0    0  501    0  0.00000000000E+00 -0.00000000000E+00 -0.15219862724E+03  0.15219862726E+03  0.25500000000E-02 0. -1.
    8880023    1    1    2    0    0  0.13400049436E+03  0.10988940385E+03  0.78130635182E+03  0.10364755835E+04  0.65864270000E+03 0. -1.
    8880022    1    1    2    0    0 -0.13400049436E+03 -0.10988940385E+03  0.51799834165E+03  0.56722636445E+03  0.15294330000E+03 0.  1.
<mgrwt>
<rscale>  0 0.51982276E+03</rscale>
<asrwt>0</asrwt>
<pdfrwt beam="1">  1        2 0.23415174E-01 0.68105948E+03</pdfrwt>
<pdfrwt beam="2">  1       -2 0.22330820E+00 0.68105948E+03</pdfrwt>
<totfact> 0.22850346E+01</totfact>
</mgrwt>
</event>
<event>
 4    2  0.3171963E-007  0.7290627E+03  0.7818608E-02  0.9893035E-01
          2   -1    0    0  501    0  0.00000000000E+00  0.00000000000E+00  0.15189501669E+04  0.15189501669E+04  0.25500000000E-02 0. -1.
         -2   -1    0    0    0  501 -0.00000000000E+00 -0.00000000000E+00 -0.38144790034E+03  0.38144790035E+03  0.25500000000E-02 0.  1.
    8880023    1    1    2    0    0 -0.10363759287E+03 -0.29492622614E+03  0.13196113585E+04  0.15076161890E+04  0.65864270000E+03 0. -1.
    8880022    1    1    2    0    0  0.10363759287E+03  0.29492622614E+03 -0.18210909194E+03  0.39278187827E+03  0.15294330000E+03 0.  1.
<mgrwt>
<rscale>  0 0.60600039E+03</rscale>
<asrwt>0</asrwt>
<pdfrwt beam="1">  1        2 0.23368464E+00 0.72906271E+03</pdfrwt>
<pdfrwt beam="2">  1       -2 0.58684292E-01 0.72906271E+03</pdfrwt>
<totfact> 0.34477291E+01</totfact>
</mgrwt>
</event>
<event>
 4    2  0.3171963E-007  0.1000764E+04  0.7818608E-02  0.9380559E-01
         -2   -1    0    0    0  501 -0.00000000000E+00  0.00000000000E+00  0.68810569069E+03  0.68810569070E+03  0.25500000000E-02 0.  1.
          2   -1    0    0  501    0  0.00000000000E+00 -0.00000000000E+00 -0.14004076591E+04  0.14004076591E+04  0.25500000000E-02 0. -1.
    8880023    1    1    2    0    0  0.31047849941E+03  0.68652853198E+03 -0.84317821355E+03  0.13086168385E+04  0.65864270000E+03 0. -1.
    8880022    1    1    2    0    0 -0.31047849941E+03 -0.68652853198E+03  0.13087624516E+03  0.77989651133E+03  0.15294330000E+03 0.  0.
<mgrwt>
<rscale>  0 0.93693030E+03</rscale>
<asrwt>0</asrwt>
<pdfrwt beam="1">  1        2 0.21544733E+00 0.10007640E+04</pdfrwt>
<pdfrwt beam="2">  1       -2 0.10586241E+00 0.10007640E+04</pdfrwt>
<totfact> 0.10365617E+01</totfact>
</mgrwt>
</event>
<event>
 4    2  0.3171963E-007  0.6943120E+03  0.7818608E-02  0.1002167E+00
          2   -1    0    0  501    0  0.00000000000E+00  0.00000000000E+00  0.15918416718E+04  0.15918416718E+04  0.25500000000E-02 0. -1.
         -2   -1    0    0    0  501 -0.00000000000E+00 -0.00000000000E+00 -0.16422456273E+03  0.16422456275E+03  0.25500000000E-02 0.  1.
    8880023    1    1    2    0    0  0.17826897092E+03  0.12837118730E+03  0.12645780839E+04  0.14426458069E+04  0.65864270000E+03 0. -1.
    8880022    1    1    2    0    0 -0.17826897092E+03 -0.12837118730E+03  0.16303902521E+03  0.31342042767E+03  0.15294330000E+03 0.  0.
<mgrwt>
<rscale>  0 0.54710228E+03</rscale>
<asrwt>0</asrwt>
<pdfrwt beam="1">  1        2 0.24489871E+00 0.69431203E+03</pdfrwt>
<pdfrwt beam="2">  1       -2 0.25265318E-01 0.69431203E+03</pdfrwt>
<totfact> 0.16194770E+02</totfact>
</mgrwt>
</event>
<event>
 4    2  0.3171963E-007  0.7200650E+03  0.7818608E-02  0.9922366E-01
         -2   -1    0    0    0  501 -0.00000000000E+00  0.00000000000E+00  0.39212144974E+03  0.39212144975E+03  0.25500000000E-02 0.  1.
          2   -1    0    0  501    0  0.00000000000E+00 -0.00000000000E+00 -0.21766717996E+04  0.21766717996E+04  0.25500000000E-02 0. -1.
    8880023    1    1    2    0    0 -0.26585461472E+03 -0.11834179267E+03 -0.20329803642E+04  0.21567342960E+04  0.65864270000E+03 0. -1.
    8880022    1    1    2    0    0  0.26585461472E+03  0.11834179267E+03  0.24843001430E+03  0.41205895340E+03  0.15294330000E+03 0.  0.
<mgrwt>
<rscale>  0 0.59189477E+03</rscale>
<asrwt>0</asrwt>
<pdfrwt beam="1">  1        2 0.33487258E+00 0.72006504E+03</pdfrwt>
<pdfrwt beam="2">  1       -2 0.60326378E-01 0.72006504E+03</pdfrwt>
<totfact> 0.14223980E+01</totfact>
</mgrwt>
</event>
<event>
 4    2  0.3171963E-007  0.1066382E+04  0.7818608E-02  0.9299442E-01
         -2   -1    0    0    0  501 -0.00000000000E+00  0.00000000000E+00  0.87971767047E+03  0.87971767048E+03  0.25500000000E-02 0.  1.
          2   -1    0    0  501    0  0.00000000000E+00 -0.00000000000E+00 -0.24263046840E+04  0.24263046840E+04  0.25500000000E-02 0. -1.
    8880023    1    1    2    0    0 -0.42909326798E+02  0.83756758660E+03 -0.20537294060E+04  0.23140819674E+04  0.65864270000E+03 0.  0.
    8880022    1    1    2    0    0  0.42909326798E+02 -0.83756758660E+03  0.50714239241E+03  0.99194038715E+03  0.15294330000E+03 0.  0.
<mgrwt>
<rscale>  0 0.10083422E+04</rscale>
<asrwt>0</asrwt>
<pdfrwt beam="1">  1        2 0.37327764E+00 0.10663821E+04</pdfrwt>
<pdfrwt beam="2">  1       -2 0.13534118E+00 0.10663821E+04</pdfrwt>
<totfact> 0.14980201E+00</totfact>
</mgrwt>
</event>
<event>
 4    2  0.3171963E-007  0.8182257E+03  0.7818608E-02  0.9672691E-01
         -2   -1    0    0    0  501 -0.00000000000E+00  0.00000000000E+00  0.34795711680E+03  0.34795711681E+03  0.25500000000E-02 0.  1.
          2   -1    0    0  501    0  0.00000000000E+00 -0.00000000000E+00 -0.19645344521E+04  0.19645344521E+04  0.25500000000E-02 0. -1.
    8880023    1    1    2    0    0  0.40997968848E+02 -0.48373771433E+03 -0.16071071329E+04  0.18034097018E+04  0.65864270000E+03 0. -1.
    8880022    1    1    2    0    0 -0.40997968848E+02  0.48373771433E+03 -0.94702024531E+01  0.50908186716E+03  0.15294330000E+03 0.  0.
<mgrwt>
<rscale>  0 0.72666281E+03</rscale>
<asrwt>0</asrwt>
<pdfrwt beam="1">  1        2 0.30223606E+00 0.81822565E+03</pdfrwt>
<pdfrwt beam="2">  1       -2 0.53531865E-01 0.81822565E+03</pdfrwt>
<totfact> 0.23539109E+01</totfact>
</mgrwt>
</event>
<event>
 4    2  0.3897690E-007  0.6646272E+03  0.7818608E-02  0.1019848E+00
          2   -1    0    0  501    0  0.00000000000E+00  0.00000000000E+00  0.26019819153E+04  0.26019819153E+04  0.25500000000E-02 0. -1.
         -2   -1    0    0    0  501 -0.00000000000E+00 -0.00000000000E+00 -0.10775156109E+04  0.10775156109E+04  0.25500000000E-02 0.  1.
    8880023    1    1    2    0    0 -0.72798597356E+02 -0.51180168112E+02  0.25518532398E+04  0.26369839228E+04  0.65864270000E+03 0. -1.
    8880022    1    1    2    0    0  0.72798597356E+02  0.51180168112E+02 -0.10273869354E+04  0.10425136035E+04  0.15294330000E+03 0.  0.
<mgrwt>
<rscale>  0 0.47741400E+03</rscale>
<asrwt>0</asrwt>
<pdfrwt beam="1">  1        2 0.40030491E+00 0.66462715E+03</pdfrwt>
<pdfrwt beam="2">  1       -2 0.16577163E+00 0.66462715E+03</pdfrwt>
<totfact> 0.74844299E-01</totfact>
</mgrwt>
</event>
<event>
 4    2  0.3171963E-007  0.8931481E+03  0.7818608E-02  0.9537122E-01
         -2   -1    0    0    0  501 -0.00000000000E+00  0.00000000000E+00  0.60057634371E+03  0.60057634371E+03  0.25500000000E-02 0.  1.
          2   -1    0    0  501    0  0.00000000000E+00 -0.00000000000E+00 -0.17145948767E+04  0.17145948767E+04  0.25500000000E-02 0. -1.
    8880023    1    1    2    0    0  0.54187135374E+03  0.26510129514E+03 -0.13755857102E+04  0.16401065554E+04  0.65864270000E+03 0.  0.
    8880022    1    1    2    0    0 -0.54187135374E+03 -0.26510129514E+03  0.26156717724E+03  0.67506466499E+03  0.15294330000E+03 0.  0.
<mgrwt>
<rscale>  0 0.81601440E+03</rscale>
<asrwt>0</asrwt>
<pdfrwt beam="1">  1        2 0.26378383E+00 0.89314807E+03</pdfrwt>
<pdfrwt beam="2">  1       -2 0.92396361E-01 0.89314807E+03</pdfrwt>
<totfact> 0.96658703E+00</totfact>
</mgrwt>
</event>
<event>
 4    2  0.3171963E-007  0.7194661E+03  0.7818608E-02  0.9924397E-01
         -2   -1    0    0    0  501 -0.00000000000E+00  0.00000000000E+00  0.75131053991E+03  0.75131053991E+03  0.25500000000E-02 0.  1.
          2   -1    0    0  501    0  0.00000000000E+00 -0.00000000000E+00 -0.49311584595E+03  0.49311584596E+03  0.25500000000E-02 0. -1.
    8880023    1    1    2    0    0 -0.26495786419E+03  0.11669865349E+03 -0.13576089720E+03  0.73216287327E+03  0.65864270000E+03 0. -1.
    8880022    1    1    2    0    0  0.26495786419E+03 -0.11669865349E+03  0.39395559116E+03  0.51226351260E+03  0.15294330000E+03 0.  0.
<mgrwt>
<rscale>  0 0.59093352E+03</rscale>
<asrwt>0</asrwt>
<pdfrwt beam="1">  1        2 0.75863976E-01 0.71946609E+03</pdfrwt>
<pdfrwt beam="2">  1       -2 0.11558624E+00 0.71946609E+03</pdfrwt>
<totfact> 0.36966061E+01</totfact>
</mgrwt>
</event>
<event>
 4    2  0.3171963E-007  0.6734227E+03  0.7818608E-02  0.1013319E+00
         -2   -1    0    0    0  501 -0.00000000000E+00  0.00000000000E+00  0.96709175658E+02  0.96709175692E+02  0.25500000000E-02 0.  1.
          2   -1    0    0  501    0  0.00000000000E+00 -0.00000000000E+00 -0.27155354918E+04  0.27155354918E+04  0.25500000000E-02 0. -1.
    8880023    1    1    2    0    0 -0.12749316162E+03 -0.58595607178E+02 -0.24610674113E+04  0.25515389397E+04  0.65864270000E+03 0. -1.
    8880022    1    1    2    0    0  0.12749316162E+03  0.58595607178E+02 -0.15775890482E+03  0.26070572780E+03  0.15294330000E+03 0.  0.
<mgrwt>
<rscale>  0 0.50176433E+03</rscale>
<asrwt>0</asrwt>
<pdfrwt beam="1">  1        2 0.41777463E+00 0.67342272E+03</pdfrwt>
<pdfrwt beam="2">  1       -2 0.14878337E-01 0.67342272E+03</pdfrwt>
<totfact> 0.97453910E+01</totfact>
</mgrwt>
</event>
<event>
 4    2  0.3171963E-007  0.6599056E+03  0.7818608E-02  0.1024253E+00
          2   -1    0    0  501    0  0.00000000000E+00  0.00000000000E+00  0.41629990437E+03  0.41629990437E+03  0.25500000000E-02 0. -1.
         -2   -1    0    0    0  501 -0.00000000000E+00 -0.00000000000E+00 -0.41552563296E+03  0.41552563297E+03  0.25500000000E-02 0.  1.
    8880023    1    1    2    0    0  0.39435510056E+02 -0.10488893097E+02  0.60423831964E+02  0.66266614676E+03  0.65864270000E+03 0. -1.
    8880022    1    1    2    0    0 -0.39435510056E+02  0.10488893097E+02 -0.59649560559E+02  0.16915939058E+03  0.15294330000E+03 0.  0.
<mgrwt>
<rscale>  0 0.46182466E+03</rscale>
<asrwt>0</asrwt>
<pdfrwt beam="1">  1        2 0.64046139E-01 0.65990559E+03</pdfrwt>
<pdfrwt beam="2">  1       -2 0.63927020E-01 0.65990559E+03</pdfrwt>
<totfact> 0.17428900E+02</totfact>
</mgrwt>
</event>
<event>
 4    2  0.3171963E-007  0.9518290E+03  0.7818608E-02  0.9447487E-01
          2   -1    0    0  501    0  0.00000000000E+00  0.00000000000E+00  0.27421914071E+04  0.27421914071E+04  0.25500000000E-02 0. -1.
         -2   -1    0    0    0  501 -0.00000000000E+00 -0.00000000000E+00 -0.49378259038E+03  0.49378259039E+03  0.25500000000E-02 0.  1.
    8880023    1    1    2    0    0 -0.93007343747E+02  0.68082147640E+03  0.23399069651E+04  0.25260924489E+04  0.65864270000E+03 0.  0.
    8880022    1    1    2    0    0  0.93007343747E+02 -0.68082147640E+03 -0.91498148477E+02  0.70988154851E+03  0.15294330000E+03 0.  0.
<mgrwt>
<rscale>  0 0.88268596E+03</rscale>
<asrwt>0</asrwt>
<pdfrwt beam="1">  1        2 0.42187560E+00 0.95182901E+03</pdfrwt>
<pdfrwt beam="2">  1       -2 0.75966553E-01 0.95182901E+03</pdfrwt>
<totfact> 0.39768201E+00</totfact>
</mgrwt>
</event>
<event>
 4    2  0.3171963E-007  0.9516767E+03  0.7818608E-02  0.9447706E-01
         -2   -1    0    0    0  501 -0.00000000000E+00  0.00000000000E+00  0.10009107955E+04  0.10009107955E+04  0.25500000000E-02 0.  1.
          2   -1    0    0  501    0  0.00000000000E+00 -0.00000000000E+00 -0.14764390418E+04  0.14764390418E+04  0.25500000000E-02 0. -1.
    8880023    1    1    2    0    0  0.33236268668E+03  0.60117668936E+03 -0.11567336884E+04  0.14979056711E+04  0.65864270000E+03 0. -1.
    8880022    1    1    2    0    0 -0.33236268668E+03 -0.60117668936E+03  0.68120544213E+03  0.97944416621E+03  0.15294330000E+03 0.  0.
<mgrwt>
<rscale>  0 0.88251549E+03</rscale>
<asrwt>0</asrwt>
<pdfrwt beam="1">  1        2 0.22714447E+00 0.95167672E+03</pdfrwt>
<pdfrwt beam="2">  1       -2 0.15398628E+00 0.95167672E+03</pdfrwt>
<totfact> 0.36506803E+00</totfact>
</mgrwt>
</event>
<event>
 4    2  0.3171963E-007  0.6768073E+03  0.7818608E-02  0.1011190E+00
          2   -1    0    0  501    0  0.00000000000E+00  0.00000000000E+00  0.37265388635E+04  0.37265388635E+04  0.25500000000E-02 0. -1.
         -2   -1    0    0    0  501 -0.00000000000E+00 -0.00000000000E+00 -0.44168730364E+03  0.44168730364E+03  0.25500000000E-02 0.  1.
    8880023    1    1    2    0    0 -0.61873480719E+02 -0.14293200058E+03  0.36665637462E+04  0.37285061077E+04  0.65864270000E+03 0. -1.
    8880022    1    1    2    0    0  0.61873480719E+02  0.14293200058E+03 -0.38171218634E+03  0.43972005938E+03  0.15294330000E+03 0.  0.
<mgrwt>
<rscale>  0 0.51004219E+03</rscale>
<asrwt>0</asrwt>
<pdfrwt beam="1">  1        2 0.57331365E+00 0.67680728E+03</pdfrwt>
<pdfrwt beam="2">  1       -2 0.67951895E-01 0.67680728E+03</pdfrwt>
<totfact> 0.12381774E+00</totfact>
</mgrwt>
</event>
<event>
 4    2  0.3171963E-007  0.6906876E+03  0.7818608E-02  0.1003827E+00
          2   -1    0    0  501    0  0.00000000000E+00  0.00000000000E+00  0.64681362585E+03  0.64681362586E+03  0.25500000000E-02 0. -1.
         -2   -1    0    0    0  501 -0.00000000000E+00 -0.00000000000E+00 -0.87206339615E+03  0.87206339615E+03  0.25500000000E-02 0.  1.
    8880023    1    1    2    0    0  0.11248733422E+03 -0.17488781206E+03  0.43069463194E+03  0.81397003594E+03  0.65864270000E+03 0. -1.
    8880022    1    1    2    0    0 -0.11248733422E+03  0.17488781206E+03 -0.65594440224E+03  0.70490698607E+03  0.15294330000E+03 0.  0.
<mgrwt>
<rscale>  0 0.54003340E+03</rscale>
<asrwt>0</asrwt>
<pdfrwt beam="1">  1        2 0.99509788E-01 0.69068759E+03</pdfrwt>
<pdfrwt beam="2">  1       -2 0.13416360E+00 0.69068759E+03</pdfrwt>
<totfact> 0.18490382E+01</totfact>
</mgrwt>
</event>
<event>
 4    2  0.3171963E-007  0.8434792E+03  0.7818608E-02  0.9623654E-01
         -2   -1    0    0    0  501 -0.00000000000E+00  0.00000000000E+00  0.85344184222E+03  0.85344184222E+03  0.25500000000E-02 0.  1.
          2   -1    0    0  501    0  0.00000000000E+00 -0.00000000000E+00 -0.71474219273E+03  0.71474219274E+03  0.25500000000E-02 0. -1.
    8880023    1    1    2    0    0 -0.47071715418E+03  0.23679606673E+03 -0.26820672748E+03  0.88509438558E+03  0.65864270000E+03 0.  0.
    8880022    1    1    2    0    0  0.47071715418E+03 -0.23679606673E+03  0.40690637697E+03  0.68308964938E+03  0.15294330000E+03 0.  0.
<mgrwt>
<rscale>  0 0.75750165E+03</rscale>
<asrwt>0</asrwt>
<pdfrwt beam="1">  1        2 0.10996034E+00 0.84347924E+03</pdfrwt>
<pdfrwt beam="2">  1       -2 0.13129874E+00 0.84347924E+03</pdfrwt>
<totfact> 0.16991997E+01</totfact>
</mgrwt>
</event>
<event>
 4    2  0.3171963E-007  0.1029239E+04  0.7818608E-02  0.9344265E-01
          2   -1    0    0  501    0  0.00000000000E+00  0.00000000000E+00  0.20759415284E+04  0.20759415284E+04  0.25500000000E-02 0. -1.
         -2   -1    0    0    0  501 -0.00000000000E+00 -0.00000000000E+00 -0.62731100958E+03  0.62731100959E+03  0.25500000000E-02 0.  1.
    8880023    1    1    2    0    0  0.63196239751E+03  0.47554895192E+03  0.15813934218E+04  0.18868329651E+04  0.65864270000E+03 0.  1.
    8880022    1    1    2    0    0 -0.63196239751E+03 -0.47554895192E+03 -0.13276290297E+03  0.81641957286E+03  0.15294330000E+03 0.  0.
<mgrwt>
<rscale>  0 0.96807885E+03</rscale>
<asrwt>0</asrwt>
<pdfrwt beam="1">  1        2 0.31937562E+00 0.10292393E+04</pdfrwt>
<pdfrwt beam="2">  1       -2 0.96509385E-01 0.10292393E+04</pdfrwt>
<totfact> 0.54343502E+00</totfact>
</mgrwt>
</event>
<event>
 4    2  0.3171963E-007  0.6882548E+03  0.7818608E-02  0.1004993E+00
          2   -1    0    0  501    0  0.00000000000E+00  0.00000000000E+00  0.10872829464E+04  0.10872829464E+04  0.25500000000E-02 0. -1.
         -2   -1    0    0    0  501 -0.00000000000E+00 -0.00000000000E+00 -0.60424810067E+03  0.60424810068E+03  0.25500000000E-02 0.  1.
    8880023    1    1    2    0    0  0.12852716509E+02  0.19929694235E+03  0.94289528187E+03  0.11673672012E+04  0.65864270000E+03 0.  0.
    8880022    1    1    2    0    0 -0.12852716509E+02 -0.19929694235E+03 -0.45986043617E+03  0.52416384587E+03  0.15294330000E+03 0.  0.
<mgrwt>
<rscale>  0 0.53513938E+03</rscale>
<asrwt>0</asrwt>
<pdfrwt beam="1">  1        2 0.16727430E+00 0.68825480E+03</pdfrwt>
<pdfrwt beam="2">  1       -2 0.92961246E-01 0.68825480E+03</pdfrwt>
<totfact> 0.22281909E+01</totfact>
</mgrwt>
</event>
<event>
 4    2  0.3171963E-007  0.7250791E+03  0.7818608E-02  0.9905760E-01
         -2   -1    0    0    0  501 -0.00000000000E+00  0.00000000000E+00  0.13903189070E+03  0.13903189073E+03  0.25500000000E-02 0.  1.
          2   -1    0    0  501    0  0.00000000000E+00 -0.00000000000E+00 -0.29256828330E+04  0.29256828330E+04  0.25500000000E-02 0. -1.
    8880023    1    1    2    0    0 -0.17882592438E+03 -0.24484846292E+03 -0.25492760089E+04  0.26503863599E+04  0.65864270000E+03 0. -1.
    8880022    1    1    2    0    0  0.17882592438E+03  0.24484846292E+03 -0.23737493338E+03  0.41432836378E+03  0.15294330000E+03 0.  0.
<mgrwt>
<rscale>  0 0.59982926E+03</rscale>
<asrwt>0</asrwt>
<pdfrwt beam="1">  1        2 0.45010500E+00 0.72507909E+03</pdfrwt>
<pdfrwt beam="2">  1       -2 0.21389524E-01 0.72507909E+03</pdfrwt>
<totfact> 0.38842481E+01</totfact>
</mgrwt>
</event>
<event>
 4    2  0.3171963E-007  0.8467087E+03  0.7818608E-02  0.9617658E-01
          2   -1    0    0  501    0  0.00000000000E+00  0.00000000000E+00  0.83714343889E+03  0.83714343889E+03  0.25500000000E-02 0. -1.
         -2   -1    0    0    0  501 -0.00000000000E+00 -0.00000000000E+00 -0.73866917520E+03  0.73866917521E+03  0.25500000000E-02 0.  1.
    8880023    1    1    2    0    0  0.16777249158E+03 -0.50493354021E+03  0.40979226017E+03  0.94066220915E+03  0.65864270000E+03 0. -1.
    8880022    1    1    2    0    0 -0.16777249158E+03  0.50493354021E+03 -0.31131799648E+03  0.63515040495E+03  0.15294330000E+03 0.  0.
<mgrwt>
<rscale>  0 0.76138416E+03</rscale>
<asrwt>0</asrwt>
<pdfrwt beam="1">  1        2 0.12879130E+00 0.84670874E+03</pdfrwt>
<pdfrwt beam="2">  1       -2 0.11364141E+00 0.84670874E+03</pdfrwt>
<totfact> 0.19784564E+01</totfact>
</mgrwt>
</event>
<event>
 4    2  0.3171963E-007  0.7508342E+03  0.7818608E-02  0.9829442E-01
         -2   -1    0    0    0  501 -0.00000000000E+00  0.00000000000E+00  0.88350515447E+03  0.88350515447E+03  0.25500000000E-02 0.  1.
          2   -1    0    0  501    0  0.00000000000E+00 -0.00000000000E+00 -0.80439829079E+03  0.80439829080E+03  0.25500000000E-02 0. -1.
    8880023    1    1    2    0    0 -0.28592580229E+03 -0.21951833521E+03 -0.56117523806E+03  0.93737384110E+03  0.65864270000E+03 0. -1.
    8880022    1    1    2    0    0  0.28592580229E+03  0.21951833521E+03  0.64028210173E+03  0.75052960416E+03  0.15294330000E+03 0.  0.
<mgrwt>
<rscale>  0 0.63806172E+03</rscale>
<asrwt>0</asrwt>
<pdfrwt beam="1">  1        2 0.12375358E+00 0.75083425E+03</pdfrwt>
<pdfrwt beam="2">  1       -2 0.13592387E+00 0.75083425E+03</pdfrwt>
<totfact> 0.13459236E+01</totfact>
</mgrwt>
</event>
<event>
 4    2  0.3171963E-007  0.6890514E+03  0.7818608E-02  0.1004607E+00
         -2   -1    0    0    0  501 -0.00000000000E+00  0.00000000000E+00  0.50097126899E+03  0.50097126899E+03  0.25500000000E-02 0.  1.
          2   -1    0    0  501    0  0.00000000000E+00 -0.00000000000E+00 -0.57850672483E+03  0.57850672483E+03  0.25500000000E-02 0. -1.
    8880023    1    1    2    0    0  0.20240526477E+03 -0.36998987389E+01 -0.29092866054E+03  0.74795138361E+03  0.65864270000E+03 0. -1.
    8880022    1    1    2    0    0 -0.20240526477E+03  0.36998987389E+01  0.21339320470E+03  0.33152661022E+03  0.15294330000E+03 0.  1.
<mgrwt>
<rscale>  0 0.53675595E+03</rscale>
<asrwt>0</asrwt>
<pdfrwt beam="1">  1        2 0.89001034E-01 0.68905137E+03</pdfrwt>
<pdfrwt beam="2">  1       -2 0.77072503E-01 0.68905137E+03</pdfrwt>
<totfact> 0.79104165E+01</totfact>
</mgrwt>
</event>
<event>
 4    2  0.3171963E-007  0.6618557E+03  0.7818608E-02  0.1022331E+00
          2   -1    0    0  501    0  0.00000000000E+00  0.00000000000E+00  0.50183148567E+03  0.50183148568E+03  0.25500000000E-02 0. -1.
         -2   -1    0    0    0  501 -0.00000000000E+00 -0.00000000000E+00 -0.17821778418E+04  0.17821778418E+04  0.25500000000E-02 0.  1.
    8880023    1    1    2    0    0  0.64630969656E+02 -0.80963955030E+01  0.27724105675E+03  0.71757614486E+03  0.65864270000E+03 0. -1.
    8880022    1    1    2    0    0 -0.64630969656E+02  0.80963955030E+01 -0.15575874129E+04  0.15664331827E+04  0.15294330000E+03 0.  0.
<mgrwt>
<rscale>  0 0.46854753E+03</rscale>
<asrwt>0</asrwt>
<pdfrwt beam="1">  1        2 0.77204845E-01 0.66185566E+03</pdfrwt>
<pdfrwt beam="2">  1       -2 0.27418120E+00 0.66185566E+03</pdfrwt>
<totfact> 0.29401069E+00</totfact>
</mgrwt>
</event>
<event>
 4    2  0.3171963E-007  0.8318375E+03  0.7818608E-02  0.9645768E-01
          2   -1    0    0  501    0  0.00000000000E+00  0.00000000000E+00  0.19602733062E+04  0.19602733062E+04  0.25500000000E-02 0. -1.
         -2   -1    0    0    0  501 -0.00000000000E+00 -0.00000000000E+00 -0.27345856758E+03  0.27345856759E+03  0.25500000000E-02 0.  1.
    8880023    1    1    2    0    0 -0.28319000252E+03  0.42183747874E+03  0.14053941313E+04  0.16331216447E+04  0.65864270000E+03 0.  0.
    8880022    1    1    2    0    0  0.28319000252E+03 -0.42183747874E+03  0.28142060734E+03  0.60061022905E+03  0.15294330000E+03 0.  0.
<mgrwt>
<rscale>  0 0.74339638E+03</rscale>
<asrwt>0</asrwt>
<pdfrwt beam="1">  1        2 0.30158050E+00 0.83183751E+03</pdfrwt>
<pdfrwt beam="2">  1       -2 0.42070550E-01 0.83183751E+03</pdfrwt>
<totfact> 0.38422182E+01</totfact>
</mgrwt>
</event>
<event>
 4    2  0.3171963E-007  0.1073228E+04  0.7818608E-02  0.9291466E-01
         -2   -1    0    0    0  501 -0.00000000000E+00  0.00000000000E+00  0.83346784475E+03  0.83346784475E+03  0.25500000000E-02 0.  1.
          2   -1    0    0  501    0  0.00000000000E+00 -0.00000000000E+00 -0.19118540976E+04  0.19118540976E+04  0.25500000000E-02 0. -1.
    8880023    1    1    2    0    0  0.13498962695E+03 -0.83653201792E+03 -0.14529412385E+04  0.18063378602E+04  0.65864270000E+03 0.  0.
    8880022    1    1    2    0    0 -0.13498962695E+03  0.83653201792E+03  0.37455498559E+03  0.93898408220E+03  0.15294330000E+03 0.  0.
<mgrwt>
<rscale>  0 0.10157236E+04</rscale>
<asrwt>0</asrwt>
<pdfrwt beam="1">  1        2 0.29413140E+00 0.10732279E+04</pdfrwt>
<pdfrwt beam="2">  1       -2 0.12822582E+00 0.10732279E+04</pdfrwt>
<totfact> 0.33248599E+00</totfact>
</mgrwt>
</event>
<event>
 4    2  0.3171963E-007  0.7341880E+03  0.7818608E-02  0.9877212E-01
         -2   -1    0    0    0  501 -0.00000000000E+00  0.00000000000E+00  0.36136743955E+03  0.36136743956E+03  0.25500000000E-02 0.  1.
          2   -1    0    0  501    0  0.00000000000E+00 -0.00000000000E+00 -0.24173541424E+04  0.24173541424E+04  0.25500000000E-02 0. -1.
    8880023    1    1    2    0    0  0.51370869702E+02  0.32028546551E+03 -0.22529543327E+04  0.23695643433E+04  0.65864270000E+03 0. -1.
    8880022    1    1    2    0    0 -0.51370869702E+02 -0.32028546551E+03  0.19696762988E+03  0.40915723860E+03  0.15294330000E+03 0.  0.
<mgrwt>
<rscale>  0 0.61378493E+03</rscale>
<asrwt>0</asrwt>
<pdfrwt beam="1">  1        2 0.37190063E+00 0.73418795E+03</pdfrwt>
<pdfrwt beam="2">  1       -2 0.55594992E-01 0.73418795E+03</pdfrwt>
<totfact> 0.12382122E+01</totfact>
</mgrwt>
</event>
<event>
 4    2  0.3171963E-007  0.7659569E+03  0.7818608E-02  0.9789923E-01
          2   -1    0    0  501    0  0.00000000000E+00  0.00000000000E+00  0.12133621515E+04  0.12133621515E+04  0.25500000000E-02 0. -1.
         -2   -1    0    0    0  501 -0.00000000000E+00 -0.00000000000E+00 -0.38064863316E+03  0.38064863317E+03  0.25500000000E-02 0.  1.
    8880023    1    1    2    0    0 -0.32206450736E+03 -0.22170743382E+03  0.88555311641E+03  0.11708519383E+04  0.65864270000E+03 0.  0.
    8880022    1    1    2    0    0  0.32206450736E+03  0.22170743382E+03 -0.52839598103E+02  0.42315884637E+03  0.15294330000E+03 0.  0.
<mgrwt>
<rscale>  0 0.65906154E+03</rscale>
<asrwt>0</asrwt>
<pdfrwt beam="1">  1        2 0.18667110E+00 0.76595688E+03</pdfrwt>
<pdfrwt beam="2">  1       -2 0.58561327E-01 0.76595688E+03</pdfrwt>
<totfact> 0.51520518E+01</totfact>
</mgrwt>
</event>
<event>
 4    2  0.3171963E-007  0.7704564E+03  0.7818608E-02  0.9778752E-01
          2   -1    0    0  501    0  0.00000000000E+00  0.00000000000E+00  0.28395808668E+04  0.28395808668E+04  0.25500000000E-02 0. -1.
         -2   -1    0    0    0  501 -0.00000000000E+00 -0.00000000000E+00 -0.41705965369E+03  0.41705965370E+03  0.25500000000E-02 0.  1.
    8880023    1    1    2    0    0  0.16309999075E+03  0.36495369248E+03  0.26585034186E+04  0.27678951277E+04  0.65864270000E+03 0. -1.
    8880022    1    1    2    0    0 -0.16309999075E+03 -0.36495369248E+03 -0.23598220555E+03  0.48874539281E+03  0.15294330000E+03 0.  0.
<mgrwt>
<rscale>  0 0.66515386E+03</rscale>
<asrwt>0</asrwt>
<pdfrwt beam="1">  1        2 0.43685859E+00 0.77045637E+03</pdfrwt>
<pdfrwt beam="2">  1       -2 0.64163024E-01 0.77045637E+03</pdfrwt>
<totfact> 0.51889846E+00</totfact>
</mgrwt>
</event>
<event>
 4    2  0.3171963E-007  0.8295419E+03  0.7818608E-02  0.9650224E-01
          2   -1    0    0  501    0  0.00000000000E+00  0.00000000000E+00  0.40569195763E+03  0.40569195764E+03  0.25500000000E-02 0. -1.
         -2   -1    0    0    0  501 -0.00000000000E+00 -0.00000000000E+00 -0.12912102795E+04  0.12912102795E+04  0.25500000000E-02 0.  1.
    8880023    1    1    2    0    0  0.89843100386E+02  0.49624371754E+03 -0.23995130847E+03  0.86354875171E+03  0.65864270000E+03 0. -1.
    8880022    1    1    2    0    0 -0.89843100386E+02 -0.49624371754E+03 -0.64556701344E+03  0.83335348547E+03  0.15294330000E+03 0.  0.
<mgrwt>
<rscale>  0 0.74059351E+03</rscale>
<asrwt>0</asrwt>
<pdfrwt beam="1">  1        2 0.62414148E-01 0.82954193E+03</pdfrwt>
<pdfrwt beam="2">  1       -2 0.19864773E+00 0.82954193E+03</pdfrwt>
<totfact> 0.10737039E+01</totfact>
</mgrwt>
</event>
<event>
 4    2  0.3171963E-007  0.1503701E+04  0.7818608E-02  0.8907027E-01
          2   -1    0    0  501    0  0.00000000000E+00  0.00000000000E+00  0.17237811781E+04  0.17237811781E+04  0.25500000000E-02 0. -1.
         -2   -1    0    0    0  501 -0.00000000000E+00 -0.00000000000E+00 -0.13993884676E+04  0.13993884676E+04  0.25500000000E-02 0.  1.
    8880023    1    1    2    0    0  0.71403741256E+03 -0.11478051342E+04 -0.43475107000E+03  0.15652874342E+04  0.65864270000E+03 0.  0.
    8880022    1    1    2    0    0 -0.71403741256E+03  0.11478051342E+04  0.75914378044E+03  0.15578822115E+04  0.15294330000E+03 0.  0.
<mgrwt>
<rscale>  0 0.14665201E+04</rscale>
<asrwt>0</asrwt>
<pdfrwt beam="1">  1        2 0.26519710E+00 0.15037009E+04</pdfrwt>
<pdfrwt beam="2">  1       -2 0.21529053E+00 0.15037009E+04</pdfrwt>
<totfact> 0.94625932E-01</totfact>
</mgrwt>
</event>
