<event>
 4    2  0.4039581E+000  0.1965480E+03  0.7546771E-02  0.1152685E+00
         21   -1    0    0  501  502  0.00000000000E+00  0.00000000000E+00  0.11658013203E+04  0.11658013203E+04  0.00000000000E+00 0. -1.
         21   -1    0    0  502  503 -0.00000000000E+00 -0.00000000000E+00 -0.35010633342E+02  0.35010633342E+02  0.00000000000E+00 0. -1.
          6    1    1    2  501    0  0.32119092549E+02 -0.87581280100E+02  0.70429189517E+03  0.73120324831E+03  0.17300000000E+03 0. -1.
         -6    1    1    2    0  503 -0.32119092549E+02  0.87581280100E+02  0.42649879177E+03  0.46960870532E+03  0.17300000000E+03 0. -1.
<mgrwt>
<rscale>  2 0.19654800E+03</rscale>
<asrwt>0</asrwt>
<pdfrwt beam="1">  1       21 0.17935402E+00 0.19654800E+03</pdfrwt>
<pdfrwt beam="2">  1       21 0.53862522E-02 0.19654800E+03</pdfrwt>
<totfact> 0.43466057E+04</totfact>
</mgrwt>
</event>
<event>
 4    2  0.4039581E+000  0.1779214E+03  0.7546771E-02  0.1169830E+00
         21   -1    0    0  501  502  0.00000000000E+00  0.00000000000E+00  0.23782669409E+04  0.23782669409E+04  0.00000000000E+00 0.  1.
         21   -1    0    0  502  503 -0.00000000000E+00 -0.00000000000E+00 -0.19142840695E+02  0.19142840695E+02  0.00000000000E+00 0.  1.
          6    1    1    2  501    0  0.32268478811E+02  0.26186930178E+02  0.18412133209E+04  0.18497898537E+04  0.17300000000E+03 0.  1.
         -6    1    1    2    0  503 -0.32268478811E+02 -0.26186930178E+02  0.51791077934E+03  0.54761992786E+03  0.17300000000E+03 0.  1.
<mgrwt>
<rscale>  2 0.17792136E+03</rscale>
<asrwt>0</asrwt>
<pdfrwt beam="1">  1       21 0.36588699E+00 0.17792136E+03</pdfrwt>
<pdfrwt beam="2">  1       21 0.29450543E-02 0.17792136E+03</pdfrwt>
<totfact> 0.93546059E+03</totfact>
</mgrwt>
</event>
<event>
 4    2  0.4039581E+000  0.1820475E+03  0.7546771E-02  0.1165836E+00
         21   -1    0    0  501  502  0.00000000000E+00  0.00000000000E+00  0.14891928336E+03  0.14891928336E+03  0.00000000000E+00 0.  1.
         21   -1    0    0  502  503 -0.00000000000E+00 -0.00000000000E+00 -0.31895416207E+03  0.31895416207E+03  0.00000000000E+00 0. -1.
          6    1    1    2  501    0 -0.39276824093E+02 -0.40861138780E+02  0.43597825516E+02  0.18719527762E+03  0.17300000000E+03 0.  1.
         -6    1    1    2    0  503  0.39276824093E+02  0.40861138780E+02 -0.21363270422E+03  0.28067816781E+03  0.17300000000E+03 0. -1.
<mgrwt>
<rscale>  2 0.18204753E+03</rscale>
<asrwt>0</asrwt>
<pdfrwt beam="1">  1       21 0.22910659E-01 0.18204753E+03</pdfrwt>
<pdfrwt beam="2">  1       21 0.49069871E-01 0.18204753E+03</pdfrwt>
<totfact> 0.71163898E+04</totfact>
</mgrwt>
</event>
<event>
 4    2  0.4039581E+000  0.1908665E+03  0.7546771E-02  0.1157682E+00
         21   -1    0    0  503  502  0.00000000000E+00  0.00000000000E+00  0.54022060077E+03  0.54022060077E+03  0.00000000000E+00 0. -1.
         21   -1    0    0  501  503 -0.00000000000E+00 -0.00000000000E+00 -0.23708102512E+03  0.23708102512E+03  0.00000000000E+00 0. -1.
          6    1    1    2  501    0 -0.99484765456E+01  0.80012852578E+02 -0.17719282858E+03  0.26043680090E+03  0.17300000000E+03 0. -1.
         -6    1    1    2    0  502  0.99484765456E+01 -0.80012852578E+02  0.48033240422E+03  0.51686482499E+03  0.17300000000E+03 0. -1.
<mgrwt>
<rscale>  2 0.19086652E+03</rscale>
<asrwt>0</asrwt>
<pdfrwt beam="1">  1       21 0.83110861E-01 0.19086652E+03</pdfrwt>
<pdfrwt beam="2">  1       21 0.36474004E-01 0.19086652E+03</pdfrwt>
<totfact> 0.91554759E+03</totfact>
</mgrwt>
</event>
<event>
 4    2  0.4039581E+000  0.1802036E+03  0.7546771E-02  0.1167606E+00
         21   -1    0    0  503  502  0.00000000000E+00  0.00000000000E+00  0.13207286470E+04  0.13207286470E+04  0.00000000000E+00 0.  1.
         21   -1    0    0  501  503 -0.00000000000E+00 -0.00000000000E+00 -0.44596798971E+02  0.44596798971E+02  0.00000000000E+00 0. -1.
          6    1    1    2  501    0 -0.81350374665E+01 -0.49780979851E+02  0.18079769474E+03  0.25526678439E+03  0.17300000000E+03 0. -1.
         -6    1    1    2    0  502  0.81350374665E+01  0.49780979851E+02  0.10953341532E+04  0.11100586615E+04  0.17300000000E+03 0.  1.
<mgrwt>
<rscale>  2 0.18020356E+03</rscale>
<asrwt>0</asrwt>
<pdfrwt beam="1">  1       21 0.20318899E+00 0.18020356E+03</pdfrwt>
<pdfrwt beam="2">  1       21 0.68610470E-02 0.18020356E+03</pdfrwt>
<totfact> 0.20256680E+04</totfact>
</mgrwt>
</event>
<event>
 4    2  0.4039581E+000  0.2131675E+03  0.7546771E-02  0.1139082E+00
         21   -1    0    0  503  502  0.00000000000E+00  0.00000000000E+00  0.85954977797E+03  0.85954977797E+03  0.00000000000E+00 0. -1.
         21   -1    0    0  501  503 -0.00000000000E+00 -0.00000000000E+00 -0.54067091548E+02  0.54067091548E+02  0.00000000000E+00 0.  1.
          6    1    1    2  501    0 -0.46551959538E+02  0.11551755741E+03  0.33463696869E+03  0.39676478148E+03  0.17300000000E+03 0.  1.
         -6    1    1    2    0  502  0.46551959538E+02 -0.11551755741E+03  0.47084571773E+03  0.51685208804E+03  0.17300000000E+03 0.  1.
<mgrwt>
<rscale>  2 0.21316752E+03</rscale>
<asrwt>0</asrwt>
<pdfrwt beam="1">  1       21 0.13223842E+00 0.21316752E+03</pdfrwt>
<pdfrwt beam="2">  1       21 0.83180147E-02 0.21316752E+03</pdfrwt>
<totfact> 0.45900347E+04</totfact>
</mgrwt>
</event>
<event>
 4    2  0.4039581E+000  0.1867031E+03  0.7546771E-02  0.1161469E+00
         21   -1    0    0  503  502  0.00000000000E+00  0.00000000000E+00  0.18746155651E+03  0.18746155651E+03  0.00000000000E+00 0. -1.
         21   -1    0    0  501  503 -0.00000000000E+00 -0.00000000000E+00 -0.25079737717E+03  0.25079737717E+03  0.00000000000E+00 0.  1.
          6    1    1    2  501    0  0.69540153863E+02  0.96538198542E+01 -0.14309569147E+03  0.23523266388E+03  0.17300000000E+03 0.  1.
         -6    1    1    2    0  502 -0.69540153863E+02 -0.96538198542E+01  0.79759870810E+02  0.20302626980E+03  0.17300000000E+03 0. -1.
<mgrwt>
<rscale>  2 0.18670305E+03</rscale>
<asrwt>0</asrwt>
<pdfrwt beam="1">  1       21 0.28840239E-01 0.18670305E+03</pdfrwt>
<pdfrwt beam="2">  1       21 0.38584212E-01 0.18670305E+03</pdfrwt>
<totfact> 0.74705229E+04</totfact>
</mgrwt>
</event>
<event>
 4    2  0.4039581E+000  0.2449236E+03  0.7546771E-02  0.1116556E+00
         21   -1    0    0  501  502  0.00000000000E+00  0.00000000000E+00  0.84288235729E+03  0.84288235729E+03  0.00000000000E+00 0.  1.
         21   -1    0    0  502  503 -0.00000000000E+00 -0.00000000000E+00 -0.20250680486E+03  0.20250680486E+03  0.00000000000E+00 0.  1.
          6    1    1    2  501    0  0.57998451594E+02  0.16338523587E+03  0.74112967811E+03  0.78055157130E+03  0.17300000000E+03 0.  1.
         -6    1    1    2    0  503 -0.57998451594E+02 -0.16338523587E+03 -0.10075412568E+03  0.26483759085E+03  0.17300000000E+03 0.  1.
<mgrwt>
<rscale>  2 0.24492357E+03</rscale>
<asrwt>0</asrwt>
<pdfrwt beam="1">  1       21 0.12967421E+00 0.24492357E+03</pdfrwt>
<pdfrwt beam="2">  1       21 0.31154893E-01 0.24492357E+03</pdfrwt>
<totfact> 0.41369567E+03</totfact>
</mgrwt>
</event>
<event>
 4    2  0.4039581E+000  0.2228535E+03  0.7546771E-02  0.1131773E+00
         21   -1    0    0  501  502  0.00000000000E+00  0.00000000000E+00  0.61272126704E+03  0.61272126704E+03  0.00000000000E+00 0.  1.
         21   -1    0    0  502  503 -0.00000000000E+00 -0.00000000000E+00 -0.11479654595E+03  0.11479654595E+03  0.00000000000E+00 0. -1.
          6    1    1    2  501    0 -0.13531158603E+03 -0.37755408054E+02  0.44617565568E+03  0.49873481117E+03  0.17300000000E+03 0.  1.
         -6    1    1    2    0  503  0.13531158603E+03  0.37755408054E+02  0.51749065411E+02  0.22878300182E+03  0.17300000000E+03 0. -1.
<mgrwt>
<rscale>  2 0.22285353E+03</rscale>
<asrwt>0</asrwt>
<pdfrwt beam="1">  1       21 0.94264808E-01 0.22285353E+03</pdfrwt>
<pdfrwt beam="2">  1       21 0.17661007E-01 0.22285353E+03</pdfrwt>
<totfact> 0.26970799E+04</totfact>
</mgrwt>
</event>
<event>
 4    2  0.4039581E+000  0.2433118E+03  0.7546771E-02  0.1117606E+00
         21   -1    0    0  501  502  0.00000000000E+00  0.00000000000E+00  0.77909504921E+03  0.77909504921E+03  0.00000000000E+00 0.  1.
         21   -1    0    0  502  503 -0.00000000000E+00 -0.00000000000E+00 -0.29198978546E+03  0.29198978546E+03  0.00000000000E+00 0. -1.
          6    1    1    2  501    0 -0.16722436667E+03 -0.36161344293E+02  0.70417001053E+03  0.74502082880E+03  0.17300000000E+03 0.  1.
         -6    1    1    2    0  503  0.16722436667E+03  0.36161344293E+02 -0.21706474678E+03  0.32606400587E+03  0.17300000000E+03 0. -1.
<mgrwt>
<rscale>  2 0.24331180E+03</rscale>
<asrwt>0</asrwt>
<pdfrwt beam="1">  1       21 0.11986078E+00 0.24331180E+03</pdfrwt>
<pdfrwt beam="2">  1       21 0.44921506E-01 0.24331180E+03</pdfrwt>
<totfact> 0.24162886E+03</totfact>
</mgrwt>
</event>
<event>
 4    2  0.4039581E+000  0.1879641E+03  0.7546771E-02  0.1160311E+00
         21   -1    0    0  501  502  0.00000000000E+00  0.00000000000E+00  0.13885355030E+03  0.13885355030E+03  0.00000000000E+00 0.  1.
         21   -1    0    0  502  503 -0.00000000000E+00 -0.00000000000E+00 -0.65309685517E+03  0.65309685517E+03  0.00000000000E+00 0.  1.
          6    1    1    2  501    0  0.54160391206E+02 -0.49680492680E+02  0.52247103074E+02  0.19509038702E+03  0.17300000000E+03 0.  1.
         -6    1    1    2    0  503 -0.54160391206E+02  0.49680492680E+02 -0.56649040795E+03  0.59686001845E+03  0.17300000000E+03 0.  1.
<mgrwt>
<rscale>  2 0.18796409E+03</rscale>
<asrwt>0</asrwt>
<pdfrwt beam="1">  1       21 0.21362085E-01 0.18796409E+03</pdfrwt>
<pdfrwt beam="2">  1       21 0.10047644E+00 0.18796409E+03</pdfrwt>
<totfact> 0.16611129E+04</totfact>
</mgrwt>
</event>
<event>
 4    2  0.4039581E+000  0.2064098E+03  0.7546771E-02  0.1144441E+00
         21   -1    0    0  503  502  0.00000000000E+00  0.00000000000E+00  0.18585274981E+03  0.18585274981E+03  0.00000000000E+00 0. -1.
         21   -1    0    0  501  503 -0.00000000000E+00 -0.00000000000E+00 -0.24384436939E+03  0.24384436939E+03  0.00000000000E+00 0. -1.
          6    1    1    2  501    0  0.69696032356E+02 -0.88422086711E+02 -0.81574292139E+02  0.22194451442E+03  0.17300000000E+03 0. -1.
         -6    1    1    2    0  502 -0.69696032356E+02  0.88422086711E+02  0.23582672558E+02  0.20775260477E+03  0.17300000000E+03 0. -1.
<mgrwt>
<rscale>  2 0.20640979E+03</rscale>
<asrwt>0</asrwt>
<pdfrwt beam="1">  1       21 0.28592731E-01 0.20640979E+03</pdfrwt>
<pdfrwt beam="2">  1       21 0.37514518E-01 0.20640979E+03</pdfrwt>
<totfact> 0.79702417E+04</totfact>
</mgrwt>
</event>
<event>
 4    2  0.4039581E+000  0.2213580E+03  0.7546771E-02  0.1132875E+00
         21   -1    0    0  501  502  0.00000000000E+00  0.00000000000E+00  0.35990936948E+04  0.35990936948E+04  0.00000000000E+00 0.  1.
         21   -1    0    0  502  503 -0.00000000000E+00 -0.00000000000E+00 -0.15452094164E+02  0.15452094164E+02  0.00000000000E+00 0.  1.
          6    1    1    2  501    0  0.39419378870E+02 -0.13234988180E+03  0.24150828791E+04  0.24252061132E+04  0.17300000000E+03 0.  1.
         -6    1    1    2    0  503 -0.39419378870E+02  0.13234988180E+03  0.11685587216E+04  0.11893396758E+04  0.17300000000E+03 0.  1.
<mgrwt>
<rscale>  2 0.22135803E+03</rscale>
<asrwt>0</asrwt>
<pdfrwt beam="1">  1       21 0.55370605E+00 0.22135803E+03</pdfrwt>
<pdfrwt beam="2">  1       21 0.23772481E-02 0.22135803E+03</pdfrwt>
<totfact> 0.68536902E+02</totfact>
</mgrwt>
</event>
<event>
 4    2  0.4039581E+000  0.2069525E+03  0.7546771E-02  0.1144002E+00
         21   -1    0    0  501  502  0.00000000000E+00  0.00000000000E+00  0.21406428428E+03  0.21406428428E+03  0.00000000000E+00 0.  1.
         21   -1    0    0  502  503 -0.00000000000E+00 -0.00000000000E+00 -0.20452734861E+03  0.20452734861E+03  0.00000000000E+00 0. -1.
          6    1    1    2  501    0 -0.77495010971E+02  0.83035306466E+02  0.35641699246E+02  0.20999921326E+03  0.17300000000E+03 0. -1.
         -6    1    1    2    0  503  0.77495010971E+02 -0.83035306466E+02 -0.26104763585E+02  0.20859241963E+03  0.17300000000E+03 0.  1.
<mgrwt>
<rscale>  2 0.20695250E+03</rscale>
<asrwt>0</asrwt>
<pdfrwt beam="1">  1       21 0.32932967E-01 0.20695250E+03</pdfrwt>
<pdfrwt beam="2">  1       21 0.31465746E-01 0.20695250E+03</pdfrwt>
<totfact> 0.85650510E+04</totfact>
</mgrwt>
</event>
<event>
 4    2  0.4039581E+000  0.1828200E+03  0.7546771E-02  0.1165101E+00
         21   -1    0    0  501  502  0.00000000000E+00  0.00000000000E+00  0.62514015666E+03  0.62514015666E+03  0.00000000000E+00 0. -1.
         21   -1    0    0  502  503 -0.00000000000E+00 -0.00000000000E+00 -0.89000175787E+02  0.89000175787E+02  0.00000000000E+00 0. -1.
          6    1    1    2  501    0  0.44041877355E+02 -0.39426640188E+02  0.42445057808E+02  0.18768252409E+03  0.17300000000E+03 0. -1.
         -6    1    1    2    0  503 -0.44041877355E+02  0.39426640188E+02  0.49369492307E+03  0.52645780836E+03  0.17300000000E+03 0. -1.
<mgrwt>
<rscale>  2 0.18281999E+03</rscale>
<asrwt>0</asrwt>
<pdfrwt beam="1">  1       21 0.96175406E-01 0.18281999E+03</pdfrwt>
<pdfrwt beam="2">  1       21 0.13692335E-01 0.18281999E+03</pdfrwt>
<totfact> 0.41872857E+04</totfact>
</mgrwt>
</event>
<event>
 4    2  0.4039581E+000  0.2471181E+03  0.7546771E-02  0.1115140E+00
         21   -1    0    0  503  502  0.00000000000E+00  0.00000000000E+00  0.95135309131E+03  0.95135309131E+03  0.00000000000E+00 0. -1.
         21   -1    0    0  501  503 -0.00000000000E+00 -0.00000000000E+00 -0.69878385746E+02  0.69878385746E+02  0.00000000000E+00 0.  1.
          6    1    1    2  501    0  0.16796769702E+03  0.54085089081E+02  0.58642331913E+03  0.63636440293E+03  0.17300000000E+03 0. -1.
         -6    1    1    2    0  502 -0.16796769702E+03 -0.54085089081E+02  0.29505138643E+03  0.38486707412E+03  0.17300000000E+03 0.  1.
<mgrwt>
<rscale>  2 0.24711808E+03</rscale>
<asrwt>0</asrwt>
<pdfrwt beam="1">  1       21 0.14636200E+00 0.24711808E+03</pdfrwt>
<pdfrwt beam="2">  1       21 0.10750522E-01 0.24711808E+03</pdfrwt>
<totfact> 0.22024001E+04</totfact>
</mgrwt>
</event>
<event>
 4    2  0.4039581E+000  0.3405448E+03  0.7546771E-02  0.1066564E+00
         21   -1    0    0  503  502  0.00000000000E+00  0.00000000000E+00  0.18163102017E+03  0.18163102017E+03  0.00000000000E+00 0. -1.
         21   -1    0    0  501  503 -0.00000000000E+00 -0.00000000000E+00 -0.82498625686E+03  0.82498625686E+03  0.00000000000E+00 0.  1.
          6    1    1    2  501    0  0.25563126212E+03 -0.14385553958E+03 -0.56097535848E+03  0.65625003715E+03  0.17300000000E+03 0.  1.
         -6    1    1    2    0  502 -0.25563126212E+03  0.14385553958E+03 -0.82379878218E+02  0.35036723987E+03  0.17300000000E+03 0. -1.
<mgrwt>
<rscale>  2 0.34054480E+03</rscale>
<asrwt>0</asrwt>
<pdfrwt beam="1">  1       21 0.27943235E-01 0.34054480E+03</pdfrwt>
<pdfrwt beam="2">  1       21 0.12692096E+00 0.34054480E+03</pdfrwt>
<totfact> 0.51297913E+03</totfact>
</mgrwt>
</event>
<event>
 4    2  0.4039581E+000  0.1813393E+03  0.7546771E-02  0.1166513E+00
         21   -1    0    0  501  502  0.00000000000E+00  0.00000000000E+00  0.57234116661E+02  0.57234116661E+02  0.00000000000E+00 0.  1.
         21   -1    0    0  502  503 -0.00000000000E+00 -0.00000000000E+00 -0.11185974276E+04  0.11185974276E+04  0.00000000000E+00 0.  1.
          6    1    1    2  501    0 -0.53729068793E+02  0.82543306898E+01 -0.12067020041E+03  0.21781929225E+03  0.17300000000E+03 0.  1.
         -6    1    1    2    0  503  0.53729068793E+02 -0.82543306898E+01 -0.94069311048E+03  0.95801225196E+03  0.17300000000E+03 0.  1.
<mgrwt>
<rscale>  2 0.18133931E+03</rscale>
<asrwt>0</asrwt>
<pdfrwt beam="1">  1       21 0.88052488E-02 0.18133931E+03</pdfrwt>
<pdfrwt beam="2">  1       21 0.17209191E+00 0.18133931E+03</pdfrwt>
<totfact> 0.21108241E+04</totfact>
</mgrwt>
</event>
<event>
 4    2  0.4039581E+000  0.2268899E+03  0.7546771E-02  0.1128848E+00
         21   -1    0    0  503  502  0.00000000000E+00  0.00000000000E+00  0.35751354416E+03  0.35751354416E+03  0.00000000000E+00 0.  1.
         21   -1    0    0  501  503 -0.00000000000E+00 -0.00000000000E+00 -0.21000717433E+03  0.21000717433E+03  0.00000000000E+00 0.  1.
          6    1    1    2  501    0  0.89776498441E+01  0.14652457463E+03 -0.85341959349E+02  0.24240936284E+03  0.17300000000E+03 0.  1.
         -6    1    1    2    0  502 -0.89776498441E+01 -0.14652457463E+03  0.23284832918E+03  0.32511135564E+03  0.17300000000E+03 0.  1.
<mgrwt>
<rscale>  2 0.22688995E+03</rscale>
<asrwt>0</asrwt>
<pdfrwt beam="1">  1       21 0.55002084E-01 0.22688995E+03</pdfrwt>
<pdfrwt beam="2">  1       21 0.32308796E-01 0.22688995E+03</pdfrwt>
<totfact> 0.28225112E+04</totfact>
</mgrwt>
</event>
<event>
 4    2  0.4039581E+000  0.1881124E+03  0.7546771E-02  0.1160175E+00
         21   -1    0    0  501  502  0.00000000000E+00  0.00000000000E+00  0.74174388827E+03  0.74174388827E+03  0.00000000000E+00 0.  1.
         21   -1    0    0  502  503 -0.00000000000E+00 -0.00000000000E+00 -0.61388316991E+02  0.61388316991E+02  0.00000000000E+00 0.  1.
          6    1    1    2  501    0  0.65257972961E+02  0.34621881861E+02  0.15060314975E+03  0.24097216946E+03  0.17300000000E+03 0.  1.
         -6    1    1    2    0  503 -0.65257972961E+02 -0.34621881861E+02  0.52975242153E+03  0.56216003580E+03  0.17300000000E+03 0.  1.
<mgrwt>
<rscale>  2 0.18811241E+03</rscale>
<asrwt>0</asrwt>
<pdfrwt beam="1">  1       21 0.11411444E+00 0.18811241E+03</pdfrwt>
<pdfrwt beam="2">  1       21 0.94443570E-02 0.18811241E+03</pdfrwt>
<totfact> 0.53740240E+04</totfact>
</mgrwt>
</event>
<event>
 4    2  0.4039581E+000  0.1774306E+03  0.7546771E-02  0.1170313E+00
         21   -1    0    0  503  502  0.00000000000E+00  0.00000000000E+00  0.10454748563E+03  0.10454748563E+03  0.00000000000E+00 0. -1.
         21   -1    0    0  501  503 -0.00000000000E+00 -0.00000000000E+00 -0.36941381994E+03  0.36941381994E+03  0.00000000000E+00 0. -1.
          6    1    1    2  501    0 -0.53430680915E+01 -0.39039142641E+02 -0.23432490994E+03  0.29392136100E+03  0.17300000000E+03 0.  1.
         -6    1    1    2    0  502  0.53430680915E+01  0.39039142641E+02 -0.30541424368E+02  0.18003994456E+03  0.17300000000E+03 0.  1.
<mgrwt>
<rscale>  2 0.17743056E+03</rscale>
<asrwt>0</asrwt>
<pdfrwt beam="1">  1       21 0.16084228E-01 0.17743056E+03</pdfrwt>
<pdfrwt beam="2">  1       21 0.56832896E-01 0.17743056E+03</pdfrwt>
<totfact> 0.10106962E+05</totfact>
</mgrwt>
</event>
<event>
 4    2  0.4039581E+000  0.2267139E+03  0.7546771E-02  0.1128974E+00
         21   -1    0    0  501  502  0.00000000000E+00  0.00000000000E+00  0.68285829396E+03  0.68285829396E+03  0.00000000000E+00 0. -1.
         21   -1    0    0  502  503 -0.00000000000E+00 -0.00000000000E+00 -0.10306243090E+03  0.10306243090E+03  0.00000000000E+00 0. -1.
          6    1    1    2  501    0 -0.45192225420E+02  0.13938389535E+03  0.49395728954E+03  0.54350070047E+03  0.17300000000E+03 0. -1.
         -6    1    1    2    0  503  0.45192225420E+02 -0.13938389535E+03  0.85838573517E+02  0.24242002439E+03  0.17300000000E+03 0. -1.
<mgrwt>
<rscale>  2 0.22671393E+03</rscale>
<asrwt>0</asrwt>
<pdfrwt beam="1">  1       21 0.10505512E+00 0.22671393E+03</pdfrwt>
<pdfrwt beam="2">  1       21 0.15855759E-01 0.22671393E+03</pdfrwt>
<totfact> 0.25369657E+04</totfact>
</mgrwt>
</event>
<event>
 4    2  0.4039581E+000  0.2158260E+03  0.7546771E-02  0.1137034E+00
         21   -1    0    0  503  502  0.00000000000E+00  0.00000000000E+00  0.14970043540E+03  0.14970043540E+03  0.00000000000E+00 0. -1.
         21   -1    0    0  501  503 -0.00000000000E+00 -0.00000000000E+00 -0.32283239709E+03  0.32283239709E+03  0.00000000000E+00 0.  1.
          6    1    1    2  501    0  0.10197954249E+03  0.79069762295E+02 -0.13149067708E+03  0.25272643818E+03  0.17300000000E+03 0. -1.
         -6    1    1    2    0  502 -0.10197954249E+03 -0.79069762295E+02 -0.41641284615E+02  0.21980639431E+03  0.17300000000E+03 0. -1.
<mgrwt>
<rscale>  2 0.21582598E+03</rscale>
<asrwt>0</asrwt>
<pdfrwt beam="1">  1       21 0.23030836E-01 0.21582598E+03</pdfrwt>
<pdfrwt beam="2">  1       21 0.49666522E-01 0.21582598E+03</pdfrwt>
<totfact> 0.67706526E+04</totfact>
</mgrwt>
</event>
<event>
 4    2  0.4039581E+000  0.3205922E+03  0.7546771E-02  0.1075377E+00
         21   -1    0    0  501  502  0.00000000000E+00  0.00000000000E+00  0.22974758763E+03  0.22974758763E+03  0.00000000000E+00 0. -1.
         21   -1    0    0  502  503 -0.00000000000E+00 -0.00000000000E+00 -0.44768625987E+03  0.44768625987E+03  0.00000000000E+00 0.  1.
          6    1    1    2  501    0  0.26280401007E+03  0.61517330280E+02 -0.99791871891E+02  0.33576442237E+03  0.17300000000E+03 0. -1.
         -6    1    1    2    0  503 -0.26280401007E+03 -0.61517330280E+02 -0.11814680035E+03  0.34166942513E+03  0.17300000000E+03 0.  1.
<mgrwt>
<rscale>  2 0.32059215E+03</rscale>
<asrwt>0</asrwt>
<pdfrwt beam="1">  1       21 0.35345783E-01 0.32059215E+03</pdfrwt>
<pdfrwt beam="2">  1       21 0.68874809E-01 0.32059215E+03</pdfrwt>
<totfact> 0.13879733E+04</totfact>
</mgrwt>
</event>
<event>
 4    2  0.4039581E+000  0.3679862E+03  0.7546771E-02  0.1055466E+00
         21   -1    0    0  501  502  0.00000000000E+00  0.00000000000E+00  0.94474086850E+03  0.94474086850E+03  0.00000000000E+00 0.  1.
         21   -1    0    0  502  503 -0.00000000000E+00 -0.00000000000E+00 -0.15248768073E+03  0.15248768073E+03  0.00000000000E+00 0. -1.
          6    1    1    2  501    0 -0.69607995921E+02 -0.31723735771E+03  0.53053901491E+03  0.64566667915E+03  0.17300000000E+03 0.  1.
         -6    1    1    2    0  503  0.69607995921E+02  0.31723735771E+03  0.26171417286E+03  0.45156187007E+03  0.17300000000E+03 0. -1.
<mgrwt>
<rscale>  2 0.36798616E+03</rscale>
<asrwt>0</asrwt>
<pdfrwt beam="1">  1       21 0.14534475E+00 0.36798616E+03</pdfrwt>
<pdfrwt beam="2">  1       21 0.23459644E-01 0.36798616E+03</pdfrwt>
<totfact> 0.49947308E+03</totfact>
</mgrwt>
</event>
<event>
 4    2  0.4039581E+000  0.2727008E+03  0.7546771E-02  0.1099744E+00
         21   -1    0    0  503  502  0.00000000000E+00  0.00000000000E+00  0.97368224081E+03  0.97368224081E+03  0.00000000000E+00 0. -1.
         21   -1    0    0  501  503 -0.00000000000E+00 -0.00000000000E+00 -0.79502354080E+02  0.79502354080E+02  0.00000000000E+00 0.  1.
          6    1    1    2  501    0 -0.20808109946E+03  0.33748783160E+02  0.34266120478E+03  0.43792970392E+03  0.17300000000E+03 0. -1.
         -6    1    1    2    0  502  0.20808109946E+03 -0.33748783160E+02  0.55151868196E+03  0.61525489097E+03  0.17300000000E+03 0.  1.
<mgrwt>
<rscale>  2 0.27270080E+03</rscale>
<asrwt>0</asrwt>
<pdfrwt beam="1">  1       21 0.14979726E+00 0.27270080E+03</pdfrwt>
<pdfrwt beam="2">  1       21 0.12231132E-01 0.27270080E+03</pdfrwt>
<totfact> 0.16208923E+04</totfact>
</mgrwt>
</event>
<event>
 4    2  0.4039581E+000  0.2098834E+03  0.7546771E-02  0.1141658E+00
         21   -1    0    0  501  502  0.00000000000E+00  0.00000000000E+00  0.11096736017E+04  0.11096736017E+04  0.00000000000E+00 0.  1.
         21   -1    0    0  502  503 -0.00000000000E+00 -0.00000000000E+00 -0.17333749162E+03  0.17333749162E+03  0.00000000000E+00 0.  1.
          6    1    1    2  501    0  0.11675016354E+03 -0.22168566469E+02  0.10314459478E+04  0.10525833882E+04  0.17300000000E+03 0.  1.
         -6    1    1    2    0  503 -0.11675016354E+03  0.22168566469E+02 -0.95109837713E+02  0.23042770505E+03  0.17300000000E+03 0.  1.
<mgrwt>
<rscale>  2 0.20988341E+03</rscale>
<asrwt>0</asrwt>
<pdfrwt beam="1">  1       21 0.17071901E+00 0.20988341E+03</pdfrwt>
<pdfrwt beam="2">  1       21 0.26667307E-01 0.20988341E+03</pdfrwt>
<totfact> 0.27783473E+03</totfact>
</mgrwt>
</event>
<event>
 4    2  0.4039581E+000  0.2628022E+03  0.7546771E-02  0.1105471E+00
         21   -1    0    0  501  502  0.00000000000E+00  0.00000000000E+00  0.13111268647E+04  0.13111268647E+04  0.00000000000E+00 0. -1.
         21   -1    0    0  502  503 -0.00000000000E+00 -0.00000000000E+00 -0.14201967348E+03  0.14201967348E+03  0.00000000000E+00 0. -1.
          6    1    1    2  501    0 -0.15749666998E+03 -0.11971134878E+03  0.11608380414E+04  0.11902142523E+04  0.17300000000E+03 0. -1.
         -6    1    1    2    0  503  0.15749666998E+03  0.11971134878E+03  0.82691497729E+01  0.26293228581E+03  0.17300000000E+03 0. -1.
<mgrwt>
<rscale>  2 0.26280222E+03</rscale>
<asrwt>0</asrwt>
<pdfrwt beam="1">  1       21 0.20171182E+00 0.26280222E+03</pdfrwt>
<pdfrwt beam="2">  1       21 0.21849181E-01 0.26280222E+03</pdfrwt>
<totfact> 0.24063183E+03</totfact>
</mgrwt>
</event>
<event>
 4    2  0.4039581E+000  0.3228445E+03  0.7546771E-02  0.1074348E+00
         21   -1    0    0  501  502  0.00000000000E+00  0.00000000000E+00  0.41442018323E+02  0.41442018323E+02  0.00000000000E+00 0.  1.
         21   -1    0    0  502  503 -0.00000000000E+00 -0.00000000000E+00 -0.26488673901E+04  0.26488673901E+04  0.00000000000E+00 0. -1.
          6    1    1    2  501    0  0.18305239619E+03 -0.20196885427E+03 -0.16060587299E+04  0.16381859607E+04  0.17300000000E+03 0.  1.
         -6    1    1    2    0  503 -0.18305239619E+03  0.20196885427E+03 -0.10013666419E+04  0.10521234477E+04  0.17300000000E+03 0. -1.
<mgrwt>
<rscale>  2 0.32284454E+03</rscale>
<asrwt>0</asrwt>
<pdfrwt beam="1">  1       21 0.63756952E-02 0.32284454E+03</pdfrwt>
<pdfrwt beam="2">  1       21 0.40751805E+00 0.32284454E+03</pdfrwt>
<totfact> 0.11962167E+03</totfact>
</mgrwt>
</event>
<event>
 4    2  0.4039581E+000  0.2029978E+03  0.7546771E-02  0.1147234E+00
         21   -1    0    0  503  502  0.00000000000E+00  0.00000000000E+00  0.18931319212E+03  0.18931319212E+03  0.00000000000E+00 0. -1.
         21   -1    0    0  501  503 -0.00000000000E+00 -0.00000000000E+00 -0.34431833065E+03  0.34431833065E+03  0.00000000000E+00 0.  1.
          6    1    1    2  501    0  0.43724370736E+02  0.96784720464E+02 -0.23932116381E+03  0.31381956943E+03  0.17300000000E+03 0.  1.
         -6    1    1    2    0  502 -0.43724370736E+02 -0.96784720464E+02  0.84316025278E+02  0.21981195334E+03  0.17300000000E+03 0. -1.
<mgrwt>
<rscale>  2 0.20299779E+03</rscale>
<asrwt>0</asrwt>
<pdfrwt beam="1">  1       21 0.29125106E-01 0.20299779E+03</pdfrwt>
<pdfrwt beam="2">  1       21 0.52972051E-01 0.20299779E+03</pdfrwt>
<totfact> 0.37907056E+04</totfact>
</mgrwt>
</event>
<event>
 4    2  0.4039581E+000  0.1889027E+03  0.7546771E-02  0.1159455E+00
         21   -1    0    0  501  502  0.00000000000E+00  0.00000000000E+00  0.60532932698E+03  0.60532932698E+03  0.00000000000E+00 0.  1.
         21   -1    0    0  502  503 -0.00000000000E+00 -0.00000000000E+00 -0.59124791590E+02  0.59124791590E+02  0.00000000000E+00 0.  1.
          6    1    1    2  501    0  0.70375207980E+02  0.28329749834E+02  0.25504531043E+03  0.31738360858E+03  0.17300000000E+03 0.  1.
         -6    1    1    2    0  503 -0.70375207980E+02 -0.28329749834E+02  0.29115922496E+03  0.34707050999E+03  0.17300000000E+03 0.  1.
<mgrwt>
<rscale>  2 0.18890274E+03</rscale>
<asrwt>0</asrwt>
<pdfrwt beam="1">  1       21 0.93127584E-01 0.18890274E+03</pdfrwt>
<pdfrwt beam="2">  1       21 0.90961222E-02 0.18890274E+03</pdfrwt>
<totfact> 0.93189353E+04</totfact>
</mgrwt>
</event>
<event>
 4    2  0.4039581E+000  0.1730918E+03  0.7546771E-02  0.1174661E+00
         21   -1    0    0  501  502  0.00000000000E+00  0.00000000000E+00  0.43787218511E+02  0.43787218511E+02  0.00000000000E+00 0. -1.
         21   -1    0    0  502  503 -0.00000000000E+00 -0.00000000000E+00 -0.13345269652E+04  0.13345269652E+04  0.00000000000E+00 0. -1.
          6    1    1    2  501    0 -0.68376593515E+00  0.55939873188E+01 -0.16429945814E+03  0.23865261820E+03  0.17300000000E+03 0. -1.
         -6    1    1    2    0  503  0.68376593515E+00 -0.55939873188E+01 -0.11264402885E+04  0.11396615655E+04  0.17300000000E+03 0. -1.
<mgrwt>
<rscale>  2 0.17309177E+03</rscale>
<asrwt>0</asrwt>
<pdfrwt beam="1">  1       21 0.67364952E-02 0.17309177E+03</pdfrwt>
<pdfrwt beam="2">  1       21 0.20531184E+00 0.17309177E+03</pdfrwt>
<totfact> 0.20386845E+04</totfact>
</mgrwt>
</event>
<event>
 4    2  0.4039581E+000  0.2311911E+03  0.7546771E-02  0.1125804E+00
         21   -1    0    0  503  502  0.00000000000E+00  0.00000000000E+00  0.10358947750E+03  0.10358947750E+03  0.00000000000E+00 0. -1.
         21   -1    0    0  501  503 -0.00000000000E+00 -0.00000000000E+00 -0.68548632737E+03  0.68548632737E+03  0.00000000000E+00 0. -1.
          6    1    1    2  501    0  0.10742520276E+03  0.10945396801E+03 -0.48714508307E+03  0.53922136202E+03  0.17300000000E+03 0. -1.
         -6    1    1    2    0  502 -0.10742520276E+03 -0.10945396801E+03 -0.94751766804E+02  0.24985444285E+03  0.17300000000E+03 0. -1.
<mgrwt>
<rscale>  2 0.23119114E+03</rscale>
<asrwt>0</asrwt>
<pdfrwt beam="1">  1       21 0.15936842E-01 0.23119114E+03</pdfrwt>
<pdfrwt beam="2">  1       21 0.10545944E+00 0.23119114E+03</pdfrwt>
<totfact> 0.24841974E+04</totfact>
</mgrwt>
</event>
<event>
 4    2  0.4039581E+000  0.2367118E+03  0.7546771E-02  0.1122003E+00
         21   -1    0    0  501  502  0.00000000000E+00  0.00000000000E+00  0.12375969625E+03  0.12375969625E+03  0.00000000000E+00 0. -1.
         21   -1    0    0  502  503 -0.00000000000E+00 -0.00000000000E+00 -0.52383361867E+03  0.52383361867E+03  0.00000000000E+00 0.  1.
          6    1    1    2  501    0  0.57357613140E+02  0.15104165379E+03 -0.80760796412E+02  0.25010954241E+03  0.17300000000E+03 0. -1.
         -6    1    1    2    0  503 -0.57357613140E+02 -0.15104165379E+03 -0.31931312601E+03  0.39748377251E+03  0.17300000000E+03 0. -1.
<mgrwt>
<rscale>  2 0.23671180E+03</rscale>
<asrwt>0</asrwt>
<pdfrwt beam="1">  1       21 0.19039954E-01 0.23671180E+03</pdfrwt>
<pdfrwt beam="2">  1       21 0.80589786E-01 0.23671180E+03</pdfrwt>
<totfact> 0.33457704E+04</totfact>
</mgrwt>
</event>
<event>
 4    2  0.4039581E+000  0.2371488E+03  0.7546771E-02  0.1121707E+00
         21   -1    0    0  503  502  0.00000000000E+00  0.00000000000E+00  0.64200714027E+03  0.64200714027E+03  0.00000000000E+00 0. -1.
         21   -1    0    0  501  503 -0.00000000000E+00 -0.00000000000E+00 -0.17673135820E+03  0.17673135820E+03  0.00000000000E+00 0.  1.
          6    1    1    2  501    0  0.15581671771E+03  0.45074297052E+02 -0.58082000391E+02  0.24415785988E+03  0.17300000000E+03 0.  1.
         -6    1    1    2    0  502 -0.15581671771E+03 -0.45074297052E+02  0.52335778246E+03  0.57458063858E+03  0.17300000000E+03 0. -1.
<mgrwt>
<rscale>  2 0.23714878E+03</rscale>
<asrwt>0</asrwt>
<pdfrwt beam="1">  1       21 0.98770328E-01 0.23714878E+03</pdfrwt>
<pdfrwt beam="2">  1       21 0.27189440E-01 0.23714878E+03</pdfrwt>
<totfact> 0.10589510E+04</totfact>
</mgrwt>
</event>
<event>
 4    2  0.4039581E+000  0.2660859E+03  0.7546771E-02  0.1103541E+00
         21   -1    0    0  503  502  0.00000000000E+00  0.00000000000E+00  0.18047753350E+03  0.18047753350E+03  0.00000000000E+00 0.  1.
         21   -1    0    0  501  503 -0.00000000000E+00 -0.00000000000E+00 -0.42201694067E+03  0.42201694067E+03  0.00000000000E+00 0. -1.
          6    1    1    2  501    0  0.30727154665E+02 -0.19982128086E+03 -0.40833160581E+02  0.26920076025E+03  0.17300000000E+03 0.  1.
         -6    1    1    2    0  502 -0.30727154665E+02  0.19982128086E+03 -0.20070624659E+03  0.33329371392E+03  0.17300000000E+03 0.  1.
<mgrwt>
<rscale>  2 0.26608589E+03</rscale>
<asrwt>0</asrwt>
<pdfrwt beam="1">  1       21 0.27765774E-01 0.26608589E+03</pdfrwt>
<pdfrwt beam="2">  1       21 0.64925683E-01 0.26608589E+03</pdfrwt>
<totfact> 0.26077542E+04</totfact>
</mgrwt>
</event>
<event>
 4    2  0.4039581E+000  0.2255359E+03  0.7546771E-02  0.1129822E+00
         21   -1    0    0  503  502  0.00000000000E+00  0.00000000000E+00  0.15107011205E+03  0.15107011205E+03  0.00000000000E+00 0. -1.
         21   -1    0    0  501  503 -0.00000000000E+00 -0.00000000000E+00 -0.33671042869E+03  0.33671042869E+03  0.00000000000E+00 0. -1.
          6    1    1    2  501    0  0.72098980762E+01 -0.14451805067E+03 -0.93531398151E+02  0.24416095519E+03  0.17300000000E+03 0. -1.
         -6    1    1    2    0  502 -0.72098980762E+01  0.14451805067E+03 -0.92108918481E+02  0.24361958555E+03  0.17300000000E+03 0. -1.
<mgrwt>
<rscale>  2 0.22553592E+03</rscale>
<asrwt>0</asrwt>
<pdfrwt beam="1">  1       21 0.23241556E-01 0.22553592E+03</pdfrwt>
<pdfrwt beam="2">  1       21 0.51801604E-01 0.22553592E+03</pdfrwt>
<totfact> 0.60675320E+04</totfact>
</mgrwt>
</event>
<event>
 4    2  0.4039581E+000  0.2759642E+03  0.7546771E-02  0.1097914E+00
         21   -1    0    0  501  502  0.00000000000E+00  0.00000000000E+00  0.57246441735E+02  0.57246441735E+02  0.00000000000E+00 0. -1.
         21   -1    0    0  502  503 -0.00000000000E+00 -0.00000000000E+00 -0.29066819671E+04  0.29066819671E+04  0.00000000000E+00 0.  1.
          6    1    1    2  501    0 -0.16197498520E+03 -0.14139075431E+03 -0.33336146974E+03  0.43276565338E+03  0.17300000000E+03 0. -1.
         -6    1    1    2    0  503  0.16197498520E+03  0.14139075431E+03 -0.25160740556E+04  0.25311627555E+04  0.17300000000E+03 0.  1.
<mgrwt>
<rscale>  2 0.27596420E+03</rscale>
<asrwt>0</asrwt>
<pdfrwt beam="1">  1       21 0.88071446E-02 0.27596420E+03</pdfrwt>
<pdfrwt beam="2">  1       21 0.44718186E+00 0.27596420E+03</pdfrwt>
<totfact> 0.39212462E+02</totfact>
</mgrwt>
</event>
<event>
 4    2  0.4039581E+000  0.2726639E+03  0.7546771E-02  0.1099765E+00
         21   -1    0    0  503  502  0.00000000000E+00  0.00000000000E+00  0.16085693145E+03  0.16085693145E+03  0.00000000000E+00 0.  1.
         21   -1    0    0  501  503 -0.00000000000E+00 -0.00000000000E+00 -0.12938960587E+04  0.12938960587E+04  0.00000000000E+00 0. -1.
          6    1    1    2  501    0 -0.20049121809E+03 -0.64960700702E+02 -0.11496904980E+04  0.11815810858E+04  0.17300000000E+03 0. -1.
         -6    1    1    2    0  502  0.20049121809E+03  0.64960700702E+02  0.16651370766E+02  0.27317190433E+03  0.17300000000E+03 0.  1.
<mgrwt>
<rscale>  2 0.27266393E+03</rscale>
<asrwt>0</asrwt>
<pdfrwt beam="1">  1       21 0.24747219E-01 0.27266393E+03</pdfrwt>
<pdfrwt beam="2">  1       21 0.19906094E+00 0.27266393E+03</pdfrwt>
<totfact> 0.19592106E+03</totfact>
</mgrwt>
</event>
<event>
 4    2  0.4039581E+000  0.1731208E+03  0.7546771E-02  0.1174632E+00
         21   -1    0    0  503  502  0.00000000000E+00  0.00000000000E+00  0.52042369924E+03  0.52042369924E+03  0.00000000000E+00 0. -1.
         21   -1    0    0  501  503 -0.00000000000E+00 -0.00000000000E+00 -0.69501441002E+02  0.69501441002E+02  0.00000000000E+00 0. -1.
          6    1    1    2  501    0 -0.60665138971E+01  0.22410631655E+01  0.10334716693E+03  0.20162207684E+03  0.17300000000E+03 0.  1.
         -6    1    1    2    0  502  0.60665138971E+01 -0.22410631655E+01  0.34757509131E+03  0.38830306341E+03  0.17300000000E+03 0.  1.
<mgrwt>
<rscale>  2 0.17312084E+03</rscale>
<asrwt>0</asrwt>
<pdfrwt beam="1">  1       21 0.80065182E-01 0.17312084E+03</pdfrwt>
<pdfrwt beam="2">  1       21 0.10692530E-01 0.17312084E+03</pdfrwt>
<totfact> 0.99719867E+04</totfact>
</mgrwt>
</event>
<event>
 4    2  0.4039581E+000  0.1781269E+03  0.7546771E-02  0.1169628E+00
         21   -1    0    0  501  502  0.00000000000E+00  0.00000000000E+00  0.25240564461E+03  0.25240564461E+03  0.00000000000E+00 0.  1.
         21   -1    0    0  502  503 -0.00000000000E+00 -0.00000000000E+00 -0.35387401746E+03  0.35387401746E+03  0.00000000000E+00 0.  1.
          6    1    1    2  501    0  0.41540992435E+02  0.86334355979E+01  0.19267948721E+03  0.26240155307E+03  0.17300000000E+03 0.  1.
         -6    1    1    2    0  503 -0.41540992435E+02 -0.86334355979E+01 -0.29414786006E+03  0.34387810899E+03  0.17300000000E+03 0.  1.
<mgrwt>
<rscale>  2 0.17812689E+03</rscale>
<asrwt>0</asrwt>
<pdfrwt beam="1">  1       21 0.38831638E-01 0.17812689E+03</pdfrwt>
<pdfrwt beam="2">  1       21 0.54442156E-01 0.17812689E+03</pdfrwt>
<totfact> 0.20556896E+04</totfact>
</mgrwt>
</event>
<event>
 4    2  0.4039581E+000  0.2075855E+03  0.7546771E-02  0.1143492E+00
         21   -1    0    0  501  502  0.00000000000E+00  0.00000000000E+00  0.17226648991E+04  0.17226648991E+04  0.00000000000E+00 0. -1.
         21   -1    0    0  502  503 -0.00000000000E+00 -0.00000000000E+00 -0.26461066682E+02  0.26461066682E+02  0.00000000000E+00 0. -1.
          6    1    1    2  501    0 -0.26696819175E+02  0.11157963484E+03  0.64362467628E+03  0.67627247392E+03  0.17300000000E+03 0. -1.
         -6    1    1    2    0  503  0.26696819175E+02 -0.11157963484E+03  0.10525791561E+04  0.10728534919E+04  0.17300000000E+03 0. -1.
<mgrwt>
<rscale>  2 0.20758549E+03</rscale>
<asrwt>0</asrwt>
<pdfrwt beam="1">  1       21 0.26502528E+00 0.20758549E+03</pdfrwt>
<pdfrwt beam="2">  1       21 0.40709347E-02 0.20758549E+03</pdfrwt>
<totfact> 0.20397606E+04</totfact>
</mgrwt>
</event>
<event>
 4    2  0.4039581E+000  0.2179220E+03  0.7546771E-02  0.1135442E+00
         21   -1    0    0  501  502  0.00000000000E+00  0.00000000000E+00  0.15590985645E+04  0.15590985645E+04  0.00000000000E+00 0. -1.
         21   -1    0    0  502  503 -0.00000000000E+00 -0.00000000000E+00 -0.40216577331E+02  0.40216577331E+02  0.00000000000E+00 0. -1.
          6    1    1    2  501    0 -0.11358420982E+03 -0.68261547400E+02  0.11533102755E+04  0.11737182810E+04  0.17300000000E+03 0. -1.
         -6    1    1    2    0  503  0.11358420982E+03  0.68261547400E+02  0.36557171163E+03  0.42559686079E+03  0.17300000000E+03 0. -1.
<mgrwt>
<rscale>  2 0.21792203E+03</rscale>
<asrwt>0</asrwt>
<pdfrwt beam="1">  1       21 0.23986127E+00 0.21792203E+03</pdfrwt>
<pdfrwt beam="2">  1       21 0.61871670E-02 0.21792203E+03</pdfrwt>
<totfact> 0.13973962E+04</totfact>
</mgrwt>
</event>
<event>
 4    2  0.4039581E+000  0.2039701E+03  0.7546771E-02  0.1146432E+00
         21   -1    0    0  501  502  0.00000000000E+00  0.00000000000E+00  0.12859895414E+04  0.12859895414E+04  0.00000000000E+00 0.  1.
         21   -1    0    0  502  503 -0.00000000000E+00 -0.00000000000E+00 -0.34769841683E+02  0.34769841683E+02  0.00000000000E+00 0.  1.
          6    1    1    2  501    0 -0.18277621838E+02 -0.10649291682E+03  0.79976753940E+03  0.82536775432E+03  0.17300000000E+03 0.  1.
         -6    1    1    2    0  503  0.18277621838E+02  0.10649291682E+03  0.45145216029E+03  0.49539162874E+03  0.17300000000E+03 0.  1.
<mgrwt>
<rscale>  2 0.20397013E+03</rscale>
<asrwt>0</asrwt>
<pdfrwt beam="1">  1       21 0.19784451E+00 0.20397013E+03</pdfrwt>
<pdfrwt beam="2">  1       21 0.53492074E-02 0.20397013E+03</pdfrwt>
<totfact> 0.32989759E+04</totfact>
</mgrwt>
</event>
<event>
 4    2  0.4039581E+000  0.1878120E+03  0.7546771E-02  0.1160450E+00
         21   -1    0    0  503  502  0.00000000000E+00  0.00000000000E+00  0.30393136597E+03  0.30393136597E+03  0.00000000000E+00 0.  1.
         21   -1    0    0  501  503 -0.00000000000E+00 -0.00000000000E+00 -0.16966013272E+03  0.16966013272E+03  0.00000000000E+00 0.  1.
          6    1    1    2  501    0  0.55295955706E+02  0.47819578500E+02 -0.65964731085E+02  0.19905954022E+03  0.17300000000E+03 0.  1.
         -6    1    1    2    0  502 -0.55295955706E+02 -0.47819578500E+02  0.20023596434E+03  0.27453195847E+03  0.17300000000E+03 0.  1.
<mgrwt>
<rscale>  2 0.18781202E+03</rscale>
<asrwt>0</asrwt>
<pdfrwt beam="1">  1       21 0.46758672E-01 0.18781202E+03</pdfrwt>
<pdfrwt beam="2">  1       21 0.26101559E-01 0.18781202E+03</pdfrwt>
<totfact> 0.61205147E+04</totfact>
</mgrwt>
</event>
<event>
 4    2  0.4039581E+000  0.1850518E+03  0.7546771E-02  0.1163002E+00
         21   -1    0    0  501  502  0.00000000000E+00  0.00000000000E+00  0.10540395347E+04  0.10540395347E+04  0.00000000000E+00 0.  1.
         21   -1    0    0  502  503 -0.00000000000E+00 -0.00000000000E+00 -0.33398240941E+02  0.33398240941E+02  0.00000000000E+00 0.  1.
          6    1    1    2  501    0  0.65065517992E+02 -0.90363357501E+01  0.60005700077E+03  0.62794313530E+03  0.17300000000E+03 0.  1.
         -6    1    1    2    0  503 -0.65065517992E+02  0.90363357501E+01  0.42058429300E+03  0.45949464036E+03  0.17300000000E+03 0.  1.
<mgrwt>
<rscale>  2 0.18505182E+03</rscale>
<asrwt>0</asrwt>
<pdfrwt beam="1">  1       21 0.16215990E+00 0.18505182E+03</pdfrwt>
<pdfrwt beam="2">  1       21 0.51381917E-02 0.18505182E+03</pdfrwt>
<totfact> 0.62603797E+04</totfact>
</mgrwt>
</event>
<event>
 4    2  0.4039581E+000  0.2084243E+03  0.7546771E-02  0.1142820E+00
         21   -1    0    0  503  502  0.00000000000E+00  0.00000000000E+00  0.33044184576E+03  0.33044184576E+03  0.00000000000E+00 0. -1.
         21   -1    0    0  501  503 -0.00000000000E+00 -0.00000000000E+00 -0.15229753507E+03  0.15229753507E+03  0.00000000000E+00 0.  1.
          6    1    1    2  501    0 -0.93714559781E+02  0.68769695702E+02  0.17834802484E+03  0.27431497904E+03  0.17300000000E+03 0. -1.
         -6    1    1    2    0  502  0.93714559781E+02 -0.68769695702E+02 -0.20371414342E+00  0.20842440179E+03  0.17300000000E+03 0.  1.
<mgrwt>
<rscale>  2 0.20842430E+03</rscale>
<asrwt>0</asrwt>
<pdfrwt beam="1">  1       21 0.50837207E-01 0.20842430E+03</pdfrwt>
<pdfrwt beam="2">  1       21 0.23430390E-01 0.20842430E+03</pdfrwt>
<totfact> 0.62615146E+04</totfact>
</mgrwt>
</event>
<event>
 4    2  0.4039581E+000  0.2051276E+03  0.7546771E-02  0.1145484E+00
         21   -1    0    0  503  502  0.00000000000E+00  0.00000000000E+00  0.36680380148E+02  0.36680380148E+02  0.00000000000E+00 0. -1.
         21   -1    0    0  501  503 -0.00000000000E+00 -0.00000000000E+00 -0.12434050698E+04  0.12434050698E+04  0.00000000000E+00 0. -1.
          6    1    1    2  501    0  0.54835015197E+02  0.95610845854E+02 -0.42526786715E+03  0.47215471147E+03  0.17300000000E+03 0. -1.
         -6    1    1    2    0  502 -0.54835015197E+02 -0.95610845854E+02 -0.78145682253E+03  0.80793073850E+03  0.17300000000E+03 0. -1.
<mgrwt>
<rscale>  2 0.20512755E+03</rscale>
<asrwt>0</asrwt>
<pdfrwt beam="1">  1       21 0.56431361E-02 0.20512755E+03</pdfrwt>
<pdfrwt beam="2">  1       21 0.19129307E+00 0.20512755E+03</pdfrwt>
<totfact> 0.33206132E+04</totfact>
</mgrwt>
</event>
<event>
 4    2  0.4039581E+000  0.2007173E+03  0.7546771E-02  0.1149135E+00
         21   -1    0    0  503  502  0.00000000000E+00  0.00000000000E+00  0.16078962242E+03  0.16078962242E+03  0.00000000000E+00 0.  1.
         21   -1    0    0  501  503 -0.00000000000E+00 -0.00000000000E+00 -0.26434754517E+03  0.26434754517E+03  0.00000000000E+00 0.  1.
          6    1    1    2  501    0 -0.30479213250E+02  0.97105411328E+02 -0.32327494128E+01  0.20074335361E+03  0.17300000000E+03 0.  1.
         -6    1    1    2    0  502  0.30479213250E+02 -0.97105411328E+02 -0.10032517334E+03  0.22439381399E+03  0.17300000000E+03 0.  1.
<mgrwt>
<rscale>  2 0.20071732E+03</rscale>
<asrwt>0</asrwt>
<pdfrwt beam="1">  1       21 0.24736865E-01 0.20071732E+03</pdfrwt>
<pdfrwt beam="2">  1       21 0.40668853E-01 0.20071732E+03</pdfrwt>
<totfact> 0.89724580E+04</totfact>
</mgrwt>
</event>
<event>
 4    2  0.4039581E+000  0.2332839E+03  0.7546771E-02  0.1124349E+00
         21   -1    0    0  501  502  0.00000000000E+00  0.00000000000E+00  0.16357085716E+03  0.16357085716E+03  0.00000000000E+00 0.  1.
         21   -1    0    0  502  503 -0.00000000000E+00 -0.00000000000E+00 -0.84388235868E+03  0.84388235868E+03  0.00000000000E+00 0.  1.
          6    1    1    2  501    0  0.15039689902E+03 -0.43280169638E+02  0.51891391663E+02  0.23898559966E+03  0.17300000000E+03 0.  1.
         -6    1    1    2    0  503 -0.15039689902E+03  0.43280169638E+02 -0.73220289319E+03  0.76846761618E+03  0.17300000000E+03 0.  1.
<mgrwt>
<rscale>  2 0.23328395E+03</rscale>
<asrwt>0</asrwt>
<pdfrwt beam="1">  1       21 0.25164748E-01 0.23328395E+03</pdfrwt>
<pdfrwt beam="2">  1       21 0.12982805E+00 0.23328395E+03</pdfrwt>
<totfact> 0.62950180E+03</totfact>
</mgrwt>
</event>
<event>
 4    2  0.4039581E+000  0.1811930E+03  0.7546771E-02  0.1166653E+00
         21   -1    0    0  501  502  0.00000000000E+00  0.00000000000E+00  0.33608841682E+02  0.33608841682E+02  0.00000000000E+00 0. -1.
         21   -1    0    0  502  503 -0.00000000000E+00 -0.00000000000E+00 -0.23012236585E+04  0.23012236585E+04  0.00000000000E+00 0. -1.
          6    1    1    2  501    0 -0.15941607741E+02  0.51456608780E+02 -0.24818010205E+03  0.30728534052E+03  0.17300000000E+03 0. -1.
         -6    1    1    2    0  503  0.15941607741E+02 -0.51456608780E+02 -0.20194347148E+04  0.20275471597E+04  0.17300000000E+03 0. -1.
<mgrwt>
<rscale>  2 0.18119304E+03</rscale>
<asrwt>0</asrwt>
<pdfrwt beam="1">  1       21 0.51705910E-02 0.18119304E+03</pdfrwt>
<pdfrwt beam="2">  1       21 0.35403441E+00 0.18119304E+03</pdfrwt>
<totfact> 0.42715094E+03</totfact>
</mgrwt>
</event>
<event>
 4    2  0.4039581E+000  0.2120064E+03  0.7546771E-02  0.1139987E+00
         21   -1    0    0  501  502  0.00000000000E+00  0.00000000000E+00  0.51328946159E+03  0.51328946159E+03  0.00000000000E+00 0.  1.
         21   -1    0    0  502  503 -0.00000000000E+00 -0.00000000000E+00 -0.44400180435E+03  0.44400180435E+03  0.00000000000E+00 0.  1.
          6    1    1    2  501    0  0.29909591988E+02 -0.11884083893E+03  0.46350069380E+03  0.50968580699E+03  0.17300000000E+03 0.  1.
         -6    1    1    2    0  503 -0.29909591988E+02  0.11884083893E+03 -0.39421303656E+03  0.44760545895E+03  0.17300000000E+03 0.  1.
<mgrwt>
<rscale>  2 0.21200644E+03</rscale>
<asrwt>0</asrwt>
<pdfrwt beam="1">  1       21 0.78967609E-01 0.21200644E+03</pdfrwt>
<pdfrwt beam="2">  1       21 0.68307970E-01 0.21200644E+03</pdfrwt>
<totfact> 0.27245406E+03</totfact>
</mgrwt>
</event>
<event>
 4    2  0.4039581E+000  0.2050579E+03  0.7546771E-02  0.1145540E+00
         21   -1    0    0  501  502  0.00000000000E+00  0.00000000000E+00  0.38387173244E+03  0.38387173244E+03  0.00000000000E+00 0. -1.
         21   -1    0    0  502  503 -0.00000000000E+00 -0.00000000000E+00 -0.20163278936E+03  0.20163278936E+03  0.00000000000E+00 0.  1.
          6    1    1    2  501    0  0.10837633537E+03 -0.19346848934E+02  0.28896946874E+03  0.35433329578E+03  0.17300000000E+03 0. -1.
         -6    1    1    2    0  503 -0.10837633537E+03  0.19346848934E+02 -0.10673052567E+03  0.23117122602E+03  0.17300000000E+03 0.  1.
<mgrwt>
<rscale>  2 0.20505787E+03</rscale>
<asrwt>0</asrwt>
<pdfrwt beam="1">  1       21 0.59057189E-01 0.20505787E+03</pdfrwt>
<pdfrwt beam="2">  1       21 0.31020429E-01 0.20505787E+03</pdfrwt>
<totfact> 0.26572813E+04</totfact>
</mgrwt>
</event>
<event>
 4    2  0.4039581E+000  0.2451822E+03  0.7546771E-02  0.1116388E+00
         21   -1    0    0  503  502  0.00000000000E+00  0.00000000000E+00  0.10953367164E+04  0.10953367164E+04  0.00000000000E+00 0.  1.
         21   -1    0    0  501  503 -0.00000000000E+00 -0.00000000000E+00 -0.20578350481E+03  0.20578350481E+03  0.00000000000E+00 0. -1.
          6    1    1    2  501    0 -0.11589890059E+03 -0.12943236677E+03 -0.11231793930E+03  0.26968428247E+03  0.17300000000E+03 0. -1.
         -6    1    1    2    0  502  0.11589890059E+03  0.12943236677E+03  0.10018711509E+04  0.10314359387E+04  0.17300000000E+03 0.  1.
<mgrwt>
<rscale>  2 0.24518216E+03</rscale>
<asrwt>0</asrwt>
<pdfrwt beam="1">  1       21 0.16851334E+00 0.24518216E+03</pdfrwt>
<pdfrwt beam="2">  1       21 0.31659001E-01 0.24518216E+03</pdfrwt>
<totfact> 0.20010337E+03</totfact>
</mgrwt>
</event>
<event>
 4    2  0.4039581E+000  0.2383912E+03  0.7546771E-02  0.1120869E+00
         21   -1    0    0  503  502  0.00000000000E+00  0.00000000000E+00  0.15250550067E+04  0.15250550067E+04  0.00000000000E+00 0. -1.
         21   -1    0    0  501  503 -0.00000000000E+00 -0.00000000000E+00 -0.38362797681E+02  0.38362797681E+02  0.00000000000E+00 0. -1.
          6    1    1    2  501    0 -0.99991377881E+02  0.13001194841E+03  0.87561381425E+03  0.90748550076E+03  0.17300000000E+03 0. -1.
         -6    1    1    2    0  502  0.99991377881E+02 -0.13001194841E+03  0.61107839474E+03  0.65593230359E+03  0.17300000000E+03 0. -1.
<mgrwt>
<rscale>  2 0.23839124E+03</rscale>
<asrwt>0</asrwt>
<pdfrwt beam="1">  1       21 0.23462380E+00 0.23839124E+03</pdfrwt>
<pdfrwt beam="2">  1       21 0.59019700E-02 0.23839124E+03</pdfrwt>
<totfact> 0.16042641E+04</totfact>
</mgrwt>
</event>
<event>
 4    2  0.4039581E+000  0.4138308E+03  0.7546771E-02  0.1039093E+00
         21   -1    0    0  503  502  0.00000000000E+00  0.00000000000E+00  0.33841481619E+03  0.33841481619E+03  0.00000000000E+00 0.  1.
         21   -1    0    0  501  503 -0.00000000000E+00 -0.00000000000E+00 -0.51023436310E+03  0.51023436310E+03  0.00000000000E+00 0.  1.
          6    1    1    2  501    0 -0.33848425954E+02  0.37440781055E+03 -0.12432100548E+03  0.43210141975E+03  0.17300000000E+03 0.  1.
         -6    1    1    2    0  502  0.33848425954E+02 -0.37440781055E+03 -0.47498541425E+02  0.41654775954E+03  0.17300000000E+03 0.  1.
<mgrwt>
<rscale>  2 0.41383079E+03</rscale>
<asrwt>0</asrwt>
<pdfrwt beam="1">  1       21 0.52063818E-01 0.41383079E+03</pdfrwt>
<pdfrwt beam="2">  1       21 0.78497594E-01 0.41383079E+03</pdfrwt>
<totfact> 0.44665679E+03</totfact>
</mgrwt>
</event>
<event>
 4    2  0.4039581E+000  0.1853513E+03  0.7546771E-02  0.1162722E+00
         21   -1    0    0  503  502  0.00000000000E+00  0.00000000000E+00  0.28892413822E+03  0.28892413822E+03  0.00000000000E+00 0. -1.
         21   -1    0    0  501  503 -0.00000000000E+00 -0.00000000000E+00 -0.62773645680E+03  0.62773645680E+03  0.00000000000E+00 0. -1.
          6    1    1    2  501    0  0.41627683355E+01  0.66398622181E+02 -0.58205060988E+03  0.61085024198E+03  0.17300000000E+03 0. -1.
         -6    1    1    2    0  502 -0.41627683355E+01 -0.66398622181E+02  0.24323829130E+03  0.30581035304E+03  0.17300000000E+03 0. -1.
<mgrwt>
<rscale>  2 0.18535130E+03</rscale>
<asrwt>0</asrwt>
<pdfrwt beam="1">  1       21 0.44449867E-01 0.18535130E+03</pdfrwt>
<pdfrwt beam="2">  1       21 0.96574840E-01 0.18535130E+03</pdfrwt>
<totfact> 0.43574075E+03</totfact>
</mgrwt>
</event>
<event>
 4    2  0.4039581E+000  0.1800813E+03  0.7546771E-02  0.1167724E+00
         21   -1    0    0  503  502  0.00000000000E+00  0.00000000000E+00  0.15195249087E+03  0.15195249087E+03  0.00000000000E+00 0.  1.
         21   -1    0    0  501  503 -0.00000000000E+00 -0.00000000000E+00 -0.21644708319E+03  0.21644708319E+03  0.00000000000E+00 0.  1.
          6    1    1    2  501    0 -0.16148364592E+02  0.47323552336E+02 -0.10454146820E+02  0.18038452669E+03  0.17300000000E+03 0.  1.
         -6    1    1    2    0  502  0.16148364592E+02 -0.47323552336E+02 -0.54040445498E+02  0.18801504736E+03  0.17300000000E+03 0.  1.
<mgrwt>
<rscale>  2 0.18008134E+03</rscale>
<asrwt>0</asrwt>
<pdfrwt beam="1">  1       21 0.23377306E-01 0.18008134E+03</pdfrwt>
<pdfrwt beam="2">  1       21 0.33299551E-01 0.18008134E+03</pdfrwt>
<totfact> 0.15006058E+05</totfact>
</mgrwt>
</event>
<event>
 4    2  0.4039581E+000  0.1922567E+03  0.7546771E-02  0.1156442E+00
         21   -1    0    0  503  502  0.00000000000E+00  0.00000000000E+00  0.33614816294E+02  0.33614816294E+02  0.00000000000E+00 0.  1.
         21   -1    0    0  501  503 -0.00000000000E+00 -0.00000000000E+00 -0.11243580878E+04  0.11243580878E+04  0.00000000000E+00 0. -1.
          6    1    1    2  501    0 -0.66803380416E+02  0.50704469216E+02 -0.63129895877E+03  0.65992500345E+03  0.17300000000E+03 0.  1.
         -6    1    1    2    0  502  0.66803380416E+02 -0.50704469216E+02 -0.45944431277E+03  0.49804790068E+03  0.17300000000E+03 0. -1.
<mgrwt>
<rscale>  2 0.19225669E+03</rscale>
<asrwt>0</asrwt>
<pdfrwt beam="1">  1       21 0.51715103E-02 0.19225669E+03</pdfrwt>
<pdfrwt beam="2">  1       21 0.17297816E+00 0.19225669E+03</pdfrwt>
<totfact> 0.51681380E+04</totfact>
</mgrwt>
</event>
<event>
 4    2  0.4039581E+000  0.2211497E+03  0.7546771E-02  0.1133029E+00
         21   -1    0    0  501  502  0.00000000000E+00  0.00000000000E+00  0.28860459664E+03  0.28860459664E+03  0.00000000000E+00 0.  1.
         21   -1    0    0  502  503 -0.00000000000E+00 -0.00000000000E+00 -0.23736778020E+03  0.23736778020E+03  0.00000000000E+00 0.  1.
          6    1    1    2  501    0  0.10193371396E+03  0.92669800271E+02 -0.11504436511E+03  0.24928373366E+03  0.17300000000E+03 0.  1.
         -6    1    1    2    0  503 -0.10193371396E+03 -0.92669800271E+02  0.16628118155E+03  0.27668864317E+03  0.17300000000E+03 0.  1.
<mgrwt>
<rscale>  2 0.22114966E+03</rscale>
<asrwt>0</asrwt>
<pdfrwt beam="1">  1       21 0.44400707E-01 0.22114966E+03</pdfrwt>
<pdfrwt beam="2">  1       21 0.36518120E-01 0.22114966E+03</pdfrwt>
<totfact> 0.34711063E+04</totfact>
</mgrwt>
</event>
<event>
 4    2  0.4039581E+000  0.1809536E+03  0.7546771E-02  0.1166883E+00
         21   -1    0    0  501  502  0.00000000000E+00  0.00000000000E+00  0.17986529116E+03  0.17986529116E+03  0.00000000000E+00 0. -1.
         21   -1    0    0  502  503 -0.00000000000E+00 -0.00000000000E+00 -0.18352421965E+03  0.18352421965E+03  0.00000000000E+00 0. -1.
          6    1    1    2  501    0  0.42788717387E+02 -0.31374156053E+02  0.14463236873E+02  0.18153070601E+03  0.17300000000E+03 0. -1.
         -6    1    1    2    0  503 -0.42788717387E+02  0.31374156053E+02 -0.18122165367E+02  0.18185880479E+03  0.17300000000E+03 0. -1.
<mgrwt>
<rscale>  2 0.18095362E+03</rscale>
<asrwt>0</asrwt>
<pdfrwt beam="1">  1       21 0.27671583E-01 0.18095362E+03</pdfrwt>
<pdfrwt beam="2">  1       21 0.28234495E-01 0.18095362E+03</pdfrwt>
<totfact> 0.14999130E+05</totfact>
</mgrwt>
</event>
<event>
 4    2  0.4039581E+000  0.1741295E+03  0.7546771E-02  0.1173609E+00
         21   -1    0    0  503  502  0.00000000000E+00  0.00000000000E+00  0.93764202068E+02  0.93764202068E+02  0.00000000000E+00 0.  1.
         21   -1    0    0  501  503 -0.00000000000E+00 -0.00000000000E+00 -0.32547218978E+03  0.32547218978E+03  0.00000000000E+00 0.  1.
          6    1    1    2  501    0  0.18054052943E+02  0.81328403532E+01 -0.13267639929E+03  0.21891578026E+03  0.17300000000E+03 0.  1.
         -6    1    1    2    0  502 -0.18054052943E+02 -0.81328403532E+01 -0.99031588422E+02  0.20032061158E+03  0.17300000000E+03 0.  1.
<mgrwt>
<rscale>  2 0.17412953E+03</rscale>
<asrwt>0</asrwt>
<pdfrwt beam="1">  1       21 0.14425262E-01 0.17412953E+03</pdfrwt>
<pdfrwt beam="2">  1       21 0.50072644E-01 0.17412953E+03</pdfrwt>
<totfact> 0.16094590E+05</totfact>
</mgrwt>
</event>
<event>
 4    2  0.4039581E+000  0.2199478E+03  0.7546771E-02  0.1133922E+00
         21   -1    0    0  503  502  0.00000000000E+00  0.00000000000E+00  0.45544394699E+03  0.45544394699E+03  0.00000000000E+00 0. -1.
         21   -1    0    0  501  503 -0.00000000000E+00 -0.00000000000E+00 -0.11517232488E+03  0.11517232488E+03  0.00000000000E+00 0.  1.
          6    1    1    2  501    0 -0.12272802794E+03 -0.58188228986E+02  0.24968203613E+03  0.33274338160E+03  0.17300000000E+03 0. -1.
         -6    1    1    2    0  502  0.12272802794E+03  0.58188228986E+02  0.90589585978E+02  0.23787289026E+03  0.17300000000E+03 0. -1.
<mgrwt>
<rscale>  2 0.21994781E+03</rscale>
<asrwt>0</asrwt>
<pdfrwt beam="1">  1       21 0.70068299E-01 0.21994781E+03</pdfrwt>
<pdfrwt beam="2">  1       21 0.17718819E-01 0.21994781E+03</pdfrwt>
<totfact> 0.52754421E+04</totfact>
</mgrwt>
</event>
<event>
 4    2  0.4039581E+000  0.4394001E+03  0.7546771E-02  0.1030931E+00
         21   -1    0    0  501  502  0.00000000000E+00  0.00000000000E+00  0.12403303329E+04  0.12403303329E+04  0.00000000000E+00 0.  1.
         21   -1    0    0  502  503 -0.00000000000E+00 -0.00000000000E+00 -0.15676562514E+03  0.15676562514E+03  0.00000000000E+00 0. -1.
          6    1    1    2  501    0  0.20872060852E+03  0.34580215559E+03  0.60039105667E+03  0.74400392752E+03  0.17300000000E+03 0.  1.
         -6    1    1    2    0  503 -0.20872060852E+03 -0.34580215559E+03  0.48317365110E+03  0.65309203054E+03  0.17300000000E+03 0. -1.
<mgrwt>
<rscale>  2 0.43940007E+03</rscale>
<asrwt>0</asrwt>
<pdfrwt beam="1">  1       21 0.19082004E+00 0.43940007E+03</pdfrwt>
<pdfrwt beam="2">  1       21 0.24117789E-01 0.43940007E+03</pdfrwt>
<totfact> 0.21300633E+03</totfact>
</mgrwt>
</event>
<event>
 4    2  0.4039581E+000  0.2070444E+03  0.7546771E-02  0.1143928E+00
         21   -1    0    0  503  502  0.00000000000E+00  0.00000000000E+00  0.14338482328E+03  0.14338482328E+03  0.00000000000E+00 0.  1.
         21   -1    0    0  501  503 -0.00000000000E+00 -0.00000000000E+00 -0.47226087250E+03  0.47226087250E+03  0.00000000000E+00 0.  1.
          6    1    1    2  501    0  0.10954926792E+03  0.30616329860E+02 -0.35090453769E+03  0.40743268932E+03  0.17300000000E+03 0.  1.
         -6    1    1    2    0  502 -0.10954926792E+03 -0.30616329860E+02  0.22028488467E+02  0.20821300646E+03  0.17300000000E+03 0.  1.
<mgrwt>
<rscale>  2 0.20704444E+03</rscale>
<asrwt>0</asrwt>
<pdfrwt beam="1">  1       21 0.22059203E-01 0.20704444E+03</pdfrwt>
<pdfrwt beam="2">  1       21 0.72655521E-01 0.20704444E+03</pdfrwt>
<totfact> 0.32516540E+04</totfact>
</mgrwt>
</event>
<event>
 4    2  0.4039581E+000  0.1816561E+03  0.7546771E-02  0.1166210E+00
         21   -1    0    0  501  502  0.00000000000E+00  0.00000000000E+00  0.20901094929E+03  0.20901094929E+03  0.00000000000E+00 0.  1.
         21   -1    0    0  502  503 -0.00000000000E+00 -0.00000000000E+00 -0.22648040106E+03  0.22648040106E+03  0.00000000000E+00 0.  1.
          6    1    1    2  501    0 -0.53793807389E+02 -0.13272367746E+02  0.11110292857E+03  0.21293846575E+03  0.17300000000E+03 0.  1.
         -6    1    1    2    0  503  0.53793807389E+02  0.13272367746E+02 -0.12857238033E+03  0.22255288460E+03  0.17300000000E+03 0.  1.
<mgrwt>
<rscale>  2 0.18165607E+03</rscale>
<asrwt>0</asrwt>
<pdfrwt beam="1">  1       21 0.32155531E-01 0.18165607E+03</pdfrwt>
<pdfrwt beam="2">  1       21 0.34843138E-01 0.18165607E+03</pdfrwt>
<totfact> 0.74204039E+04</totfact>
</mgrwt>
</event>
<event>
 4    2  0.4039581E+000  0.1736732E+03  0.7546771E-02  0.1174070E+00
         21   -1    0    0  501  502  0.00000000000E+00  0.00000000000E+00  0.28314049936E+04  0.28314049936E+04  0.00000000000E+00 0. -1.
         21   -1    0    0  502  503 -0.00000000000E+00 -0.00000000000E+00 -0.46309137984E+02  0.46309137984E+02  0.00000000000E+00 0. -1.
          6    1    1    2  501    0  0.13274340542E+02 -0.75623411148E+01  0.26551097746E+04  0.26607837778E+04  0.17300000000E+03 0. -1.
         -6    1    1    2    0  503 -0.13274340542E+02  0.75623411148E+01  0.12998608097E+03  0.21693035372E+03  0.17300000000E+03 0. -1.
<mgrwt>
<rscale>  2 0.17367325E+03</rscale>
<asrwt>0</asrwt>
<pdfrwt beam="1">  1       21 0.43560063E+00 0.17367325E+03</pdfrwt>
<pdfrwt beam="2">  1       21 0.71244850E-02 0.17367325E+03</pdfrwt>
<totfact> 0.78414972E+02</totfact>
</mgrwt>
</event>
<event>
 4    2  0.4039581E+000  0.1924223E+03  0.7546771E-02  0.1156295E+00
         21   -1    0    0  503  502  0.00000000000E+00  0.00000000000E+00  0.85229332694E+02  0.85229332694E+02  0.00000000000E+00 0. -1.
         21   -1    0    0  501  503 -0.00000000000E+00 -0.00000000000E+00 -0.72871944136E+03  0.72871944136E+03  0.00000000000E+00 0. -1.
          6    1    1    2  501    0 -0.79486902647E+02 -0.27913841581E+02 -0.58037139646E+03  0.61143871980E+03  0.17300000000E+03 0. -1.
         -6    1    1    2    0  502  0.79486902647E+02  0.27913841581E+02 -0.63118712213E+02  0.20251005426E+03  0.17300000000E+03 0. -1.
<mgrwt>
<rscale>  2 0.19242232E+03</rscale>
<asrwt>0</asrwt>
<pdfrwt beam="1">  1       21 0.13112205E-01 0.19242232E+03</pdfrwt>
<pdfrwt beam="2">  1       21 0.11211068E+00 0.19242232E+03</pdfrwt>
<totfact> 0.31221936E+04</totfact>
</mgrwt>
</event>
<event>
 4    2  0.4039581E+000  0.2557392E+03  0.7546771E-02  0.1109731E+00
         21   -1    0    0  501  502  0.00000000000E+00  0.00000000000E+00  0.11006467105E+03  0.11006467105E+03  0.00000000000E+00 0.  1.
         21   -1    0    0  502  503 -0.00000000000E+00 -0.00000000000E+00 -0.62978589678E+03  0.62978589678E+03  0.00000000000E+00 0.  1.
          6    1    1    2  501    0 -0.14848272589E+03 -0.11587237363E+03 -0.17195024680E+03  0.30817107949E+03  0.17300000000E+03 0.  1.
         -6    1    1    2    0  503  0.14848272589E+03  0.11587237363E+03 -0.34777097893E+03  0.43167948833E+03  0.17300000000E+03 0.  1.
<mgrwt>
<rscale>  2 0.25573918E+03</rscale>
<asrwt>0</asrwt>
<pdfrwt beam="1">  1       21 0.16933026E-01 0.25573918E+03</pdfrwt>
<pdfrwt beam="2">  1       21 0.96890139E-01 0.25573918E+03</pdfrwt>
<totfact> 0.26891212E+04</totfact>
</mgrwt>
</event>
<event>
 4    2  0.4039581E+000  0.2590021E+03  0.7546771E-02  0.1107744E+00
         21   -1    0    0  501  502  0.00000000000E+00  0.00000000000E+00  0.21562831026E+03  0.21562831026E+03  0.00000000000E+00 0. -1.
         21   -1    0    0  502  503 -0.00000000000E+00 -0.00000000000E+00 -0.44573067694E+03  0.44573067694E+03  0.00000000000E+00 0. -1.
          6    1    1    2  501    0  0.78367142263E+02 -0.17610132519E+03 -0.29678767105E+03  0.39390989757E+03  0.17300000000E+03 0. -1.
         -6    1    1    2    0  503 -0.78367142263E+02  0.17610132519E+03  0.66685304373E+02  0.26744908962E+03  0.17300000000E+03 0. -1.
<mgrwt>
<rscale>  2 0.25900210E+03</rscale>
<asrwt>0</asrwt>
<pdfrwt beam="1">  1       21 0.33173587E-01 0.25900210E+03</pdfrwt>
<pdfrwt beam="2">  1       21 0.68573949E-01 0.25900210E+03</pdfrwt>
<totfact> 0.16345418E+04</totfact>
</mgrwt>
</event>
<event>
 4    2  0.4039581E+000  0.1930156E+03  0.7546771E-02  0.1155769E+00
         21   -1    0    0  503  502  0.00000000000E+00  0.00000000000E+00  0.53764493971E+03  0.53764493971E+03  0.00000000000E+00 0. -1.
         21   -1    0    0  501  503 -0.00000000000E+00 -0.00000000000E+00 -0.18737674128E+03  0.18737674128E+03  0.00000000000E+00 0. -1.
          6    1    1    2  501    0 -0.93755576927E+01 -0.85077242389E+02 -0.11264429449E+03  0.22348104021E+03  0.17300000000E+03 0. -1.
         -6    1    1    2    0  502  0.93755576927E+01  0.85077242389E+02  0.46291249292E+03  0.50154064078E+03  0.17300000000E+03 0. -1.
<mgrwt>
<rscale>  2 0.19301564E+03</rscale>
<asrwt>0</asrwt>
<pdfrwt beam="1">  1       21 0.82714606E-01 0.19301564E+03</pdfrwt>
<pdfrwt beam="2">  1       21 0.28827191E-01 0.19301564E+03</pdfrwt>
<totfact> 0.14681254E+04</totfact>
</mgrwt>
</event>
<event>
 4    2  0.4039581E+000  0.2047254E+03  0.7546771E-02  0.1145812E+00
         21   -1    0    0  503  502  0.00000000000E+00  0.00000000000E+00  0.11765485139E+03  0.11765485139E+03  0.00000000000E+00 0.  1.
         21   -1    0    0  501  503 -0.00000000000E+00 -0.00000000000E+00 -0.38967722082E+03  0.38967722082E+03  0.00000000000E+00 0. -1.
          6    1    1    2  501    0  0.89757209794E+02  0.62666869435E+02 -0.21032558408E+03  0.29351208587E+03  0.17300000000E+03 0. -1.
         -6    1    1    2    0  502 -0.89757209794E+02 -0.62666869435E+02 -0.61696785363E+02  0.21381998634E+03  0.17300000000E+03 0.  1.
<mgrwt>
<rscale>  2 0.20472541E+03</rscale>
<asrwt>0</asrwt>
<pdfrwt beam="1">  1       21 0.18100746E-01 0.20472541E+03</pdfrwt>
<pdfrwt beam="2">  1       21 0.59950342E-01 0.20472541E+03</pdfrwt>
<totfact> 0.71742234E+04</totfact>
</mgrwt>
</event>
<event>
 4    2  0.4039581E+000  0.2062999E+03  0.7546771E-02  0.1144530E+00
         21   -1    0    0  501  502  0.00000000000E+00  0.00000000000E+00  0.16466299297E+03  0.16466299297E+03  0.00000000000E+00 0. -1.
         21   -1    0    0  502  503 -0.00000000000E+00 -0.00000000000E+00 -0.13001986540E+04  0.13001986540E+04  0.00000000000E+00 0.  1.
          6    1    1    2  501    0  0.89670491812E+02 -0.67748480420E+02  0.87833855788E+02  0.22421962431E+03  0.17300000000E+03 0. -1.
         -6    1    1    2    0  503 -0.89670491812E+02  0.67748480420E+02 -0.12233695168E+04  0.12406420226E+04  0.17300000000E+03 0.  1.
<mgrwt>
<rscale>  2 0.20629991E+03</rscale>
<asrwt>0</asrwt>
<pdfrwt beam="1">  1       21 0.25332768E-01 0.20629991E+03</pdfrwt>
<pdfrwt beam="2">  1       21 0.20003056E+00 0.20629991E+03</pdfrwt>
<totfact> 0.19546275E+03</totfact>
</mgrwt>
</event>
<event>
 4    2  0.4039581E+000  0.2086015E+03  0.7546771E-02  0.1142678E+00
         21   -1    0    0  501  502  0.00000000000E+00  0.00000000000E+00  0.29613495205E+03  0.29613495205E+03  0.00000000000E+00 0.  1.
         21   -1    0    0  502  503 -0.00000000000E+00 -0.00000000000E+00 -0.14890756737E+03  0.14890756737E+03  0.00000000000E+00 0.  1.
          6    1    1    2  501    0  0.94143348841E+02  0.68721174647E+02  0.99181380823E+02  0.23097947155E+03  0.17300000000E+03 0.  1.
         -6    1    1    2    0  503 -0.94143348841E+02 -0.68721174647E+02  0.48046003865E+02  0.21406304787E+03  0.17300000000E+03 0.  1.
<mgrwt>
<rscale>  2 0.20860146E+03</rscale>
<asrwt>0</asrwt>
<pdfrwt beam="1">  1       21 0.45559223E-01 0.20860146E+03</pdfrwt>
<pdfrwt beam="2">  1       21 0.22908857E-01 0.20860146E+03</pdfrwt>
<totfact> 0.82055674E+04</totfact>
</mgrwt>
</event>
<event>
 4    2  0.4039581E+000  0.1752313E+03  0.7546771E-02  0.1172500E+00
         21   -1    0    0  503  502  0.00000000000E+00  0.00000000000E+00  0.11855156554E+04  0.11855156554E+04  0.00000000000E+00 0.  1.
         21   -1    0    0  501  503 -0.00000000000E+00 -0.00000000000E+00 -0.29902033508E+02  0.29902033508E+02  0.00000000000E+00 0.  1.
          6    1    1    2  501    0 -0.25005502561E+02 -0.12318583369E+02  0.35551056488E+03  0.39635058269E+03  0.17300000000E+03 0.  1.
         -6    1    1    2    0  502  0.25005502561E+02  0.12318583369E+02  0.80010305705E+03  0.81906710626E+03  0.17300000000E+03 0.  1.
<mgrwt>
<rscale>  2 0.17523134E+03</rscale>
<asrwt>0</asrwt>
<pdfrwt beam="1">  1       21 0.18238699E+00 0.17523134E+03</pdfrwt>
<pdfrwt beam="2">  1       21 0.46003138E-02 0.17523134E+03</pdfrwt>
<totfact> 0.54880022E+04</totfact>
</mgrwt>
</event>
<event>
 4    2  0.4039581E+000  0.2021592E+03  0.7546771E-02  0.1147930E+00
         21   -1    0    0  503  502  0.00000000000E+00  0.00000000000E+00  0.37740618416E+03  0.37740618416E+03  0.00000000000E+00 0.  1.
         21   -1    0    0  501  503 -0.00000000000E+00 -0.00000000000E+00 -0.17721358396E+03  0.17721358396E+03  0.00000000000E+00 0.  1.
          6    1    1    2  501    0  0.38595215200E+02  0.97209821214E+02 -0.72849060389E+02  0.21488444703E+03  0.17300000000E+03 0.  1.
         -6    1    1    2    0  502 -0.38595215200E+02 -0.97209821214E+02  0.27304166059E+03  0.33973532109E+03  0.17300000000E+03 0.  1.
<mgrwt>
<rscale>  2 0.20215919E+03</rscale>
<asrwt>0</asrwt>
<pdfrwt beam="1">  1       21 0.58062490E-01 0.20215919E+03</pdfrwt>
<pdfrwt beam="2">  1       21 0.27263628E-01 0.20215919E+03</pdfrwt>
<totfact> 0.35477550E+04</totfact>
</mgrwt>
</event>
<event>
 4    2  0.4039581E+000  0.1832666E+03  0.7546771E-02  0.1164679E+00
         21   -1    0    0  501  502  0.00000000000E+00  0.00000000000E+00  0.14695796888E+02  0.14695796888E+02  0.00000000000E+00 0.  1.
         21   -1    0    0  502  503 -0.00000000000E+00 -0.00000000000E+00 -0.23358935735E+04  0.23358935735E+04  0.00000000000E+00 0. -1.
          6    1    1    2  501    0 -0.89086256479E+01 -0.59818640415E+02 -0.13332966622E+04  0.13458330591E+04  0.17300000000E+03 0.  1.
         -6    1    1    2    0  503  0.89086256479E+01  0.59818640415E+02 -0.98790111440E+03  0.10047563113E+04  0.17300000000E+03 0.  1.
<mgrwt>
<rscale>  2 0.18326656E+03</rscale>
<asrwt>0</asrwt>
<pdfrwt beam="1">  1       21 0.22608914E-02 0.18326656E+03</pdfrwt>
<pdfrwt beam="2">  1       21 0.35936831E+00 0.18326656E+03</pdfrwt>
<totfact> 0.15681962E+04</totfact>
</mgrwt>
</event>
<event>
 4    2  0.4039581E+000  0.1843441E+03  0.7546771E-02  0.1163664E+00
         21   -1    0    0  503  502  0.00000000000E+00  0.00000000000E+00  0.31450312360E+03  0.31450312360E+03  0.00000000000E+00 0.  1.
         21   -1    0    0  501  503 -0.00000000000E+00 -0.00000000000E+00 -0.10986807451E+03  0.10986807451E+03  0.00000000000E+00 0.  1.
          6    1    1    2  501    0  0.60577981938E+02 -0.19597215572E+02  0.75038584111E+02  0.19903148459E+03  0.17300000000E+03 0.  1.
         -6    1    1    2    0  502 -0.60577981938E+02  0.19597215572E+02  0.12959646497E+03  0.22533971352E+03  0.17300000000E+03 0.  1.
<mgrwt>
<rscale>  2 0.18434409E+03</rscale>
<asrwt>0</asrwt>
<pdfrwt beam="1">  1       21 0.48385095E-01 0.18434409E+03</pdfrwt>
<pdfrwt beam="2">  1       21 0.16902781E-01 0.18434409E+03</pdfrwt>
<totfact> 0.12899277E+05</totfact>
</mgrwt>
</event>
<event>
 4    2  0.4039581E+000  0.2911608E+03  0.7546771E-02  0.1089745E+00
         21   -1    0    0  503  502  0.00000000000E+00  0.00000000000E+00  0.86289077356E+03  0.86289077356E+03  0.00000000000E+00 0.  1.
         21   -1    0    0  501  503 -0.00000000000E+00 -0.00000000000E+00 -0.99572166807E+02  0.99572166807E+02  0.00000000000E+00 0. -1.
          6    1    1    2  501    0  0.22464159755E+01  0.23418068097E+03  0.43721906487E+03  0.52529529639E+03  0.17300000000E+03 0. -1.
         -6    1    1    2    0  502 -0.22464159755E+01 -0.23418068097E+03  0.32609954189E+03  0.43716764398E+03  0.17300000000E+03 0.  1.
<mgrwt>
<rscale>  2 0.29116085E+03</rscale>
<asrwt>0</asrwt>
<pdfrwt beam="1">  1       21 0.13275242E+00 0.29116085E+03</pdfrwt>
<pdfrwt beam="2">  1       21 0.15318796E-01 0.29116085E+03</pdfrwt>
<totfact> 0.14625949E+04</totfact>
</mgrwt>
</event>
<event>
 4    2  0.4039581E+000  0.2735966E+03  0.7546771E-02  0.1099239E+00
         21   -1    0    0  503  502  0.00000000000E+00  0.00000000000E+00  0.17321321089E+03  0.17321321089E+03  0.00000000000E+00 0.  1.
         21   -1    0    0  501  503 -0.00000000000E+00 -0.00000000000E+00 -0.43254173280E+03  0.43254173280E+03  0.00000000000E+00 0. -1.
          6    1    1    2  501    0 -0.15583815727E+03  0.14366822311E+03 -0.12061689341E+03  0.29900422165E+03  0.17300000000E+03 0. -1.
         -6    1    1    2    0  502  0.15583815727E+03 -0.14366822311E+03 -0.13871162850E+03  0.30675072204E+03  0.17300000000E+03 0. -1.
<mgrwt>
<rscale>  2 0.27359658E+03</rscale>
<asrwt>0</asrwt>
<pdfrwt beam="1">  1       21 0.26648186E-01 0.27359658E+03</pdfrwt>
<pdfrwt beam="2">  1       21 0.66544882E-01 0.27359658E+03</pdfrwt>
<totfact> 0.26669150E+04</totfact>
</mgrwt>
</event>
<event>
 4    2  0.4039581E+000  0.1937012E+03  0.7546771E-02  0.1155165E+00
         21   -1    0    0  503  502  0.00000000000E+00  0.00000000000E+00  0.16775909160E+04  0.16775909160E+04  0.00000000000E+00 0.  1.
         21   -1    0    0  501  503 -0.00000000000E+00 -0.00000000000E+00 -0.29917692458E+02  0.29917692458E+02  0.00000000000E+00 0. -1.
          6    1    1    2  501    0  0.16942517116E+02  0.85464013981E+02  0.39488766310E+03  0.43983680274E+03  0.17300000000E+03 0. -1.
         -6    1    1    2    0  502 -0.16942517116E+02 -0.85464013981E+02  0.12527855605E+04  0.12676718057E+04  0.17300000000E+03 0.  1.
<mgrwt>
<rscale>  2 0.19370118E+03</rscale>
<asrwt>0</asrwt>
<pdfrwt beam="1">  1       21 0.25809084E+00 0.19370118E+03</pdfrwt>
<pdfrwt beam="2">  1       21 0.46027232E-02 0.19370118E+03</pdfrwt>
<totfact> 0.18430210E+04</totfact>
</mgrwt>
</event>
<event>
 4    2  0.4039581E+000  0.1802335E+03  0.7546771E-02  0.1167577E+00
         21   -1    0    0  501  502  0.00000000000E+00  0.00000000000E+00  0.11661943412E+03  0.11661943412E+03  0.00000000000E+00 0. -1.
         21   -1    0    0  502  503 -0.00000000000E+00 -0.00000000000E+00 -0.30325622151E+03  0.30325622151E+03  0.00000000000E+00 0. -1.
          6    1    1    2  501    0 -0.32916399613E+02  0.38361635387E+02 -0.33393535856E+02  0.18330093472E+03  0.17300000000E+03 0. -1.
         -6    1    1    2    0  503  0.32916399613E+02 -0.38361635387E+02 -0.15324325153E+03  0.23657472091E+03  0.17300000000E+03 0. -1.
<mgrwt>
<rscale>  2 0.18023347E+03</rscale>
<asrwt>0</asrwt>
<pdfrwt beam="1">  1       21 0.17941452E-01 0.18023347E+03</pdfrwt>
<pdfrwt beam="2">  1       21 0.46654803E-01 0.18023347E+03</pdfrwt>
<totfact> 0.12479263E+05</totfact>
</mgrwt>
</event>
<event>
 4    2  0.4039581E+000  0.1794190E+03  0.7546771E-02  0.1168367E+00
         21   -1    0    0  503  502  0.00000000000E+00  0.00000000000E+00  0.10452369164E+03  0.10452369164E+03  0.00000000000E+00 0.  1.
         21   -1    0    0  501  503 -0.00000000000E+00 -0.00000000000E+00 -0.52596435176E+03  0.52596435176E+03  0.00000000000E+00 0.  1.
          6    1    1    2  501    0  0.14984883981E+02 -0.45139928510E+02 -0.41366694329E+03  0.45090076499E+03  0.17300000000E+03 0.  1.
         -6    1    1    2    0  502 -0.14984883981E+02  0.45139928510E+02 -0.77737168351E+01  0.17958727841E+03  0.17300000000E+03 0.  1.
<mgrwt>
<rscale>  2 0.17941895E+03</rscale>
<asrwt>0</asrwt>
<pdfrwt beam="1">  1       21 0.16080568E-01 0.17941895E+03</pdfrwt>
<pdfrwt beam="2">  1       21 0.80917594E-01 0.17941895E+03</pdfrwt>
<totfact> 0.46610556E+04</totfact>
</mgrwt>
</event>
<event>
 4    2  0.4039581E+000  0.1787054E+03  0.7546771E-02  0.1169062E+00
         21   -1    0    0  503  502  0.00000000000E+00  0.00000000000E+00  0.25977013923E+03  0.25977013923E+03  0.00000000000E+00 0. -1.
         21   -1    0    0  501  503 -0.00000000000E+00 -0.00000000000E+00 -0.29248426384E+03  0.29248426384E+03  0.00000000000E+00 0. -1.
          6    1    1    2  501    0  0.18797017550E+02  0.40660497156E+02 -0.22659066709E+03  0.28858089734E+03  0.17300000000E+03 0. -1.
         -6    1    1    2    0  502 -0.18797017550E+02 -0.40660497156E+02  0.19387654248E+03  0.26367350572E+03  0.17300000000E+03 0. -1.
<mgrwt>
<rscale>  2 0.17870535E+03</rscale>
<asrwt>0</asrwt>
<pdfrwt beam="1">  1       21 0.39964637E-01 0.17870535E+03</pdfrwt>
<pdfrwt beam="2">  1       21 0.44997579E-01 0.17870535E+03</pdfrwt>
<totfact> 0.28816548E+04</totfact>
</mgrwt>
</event>
<event>
 4    2  0.4039581E+000  0.3037514E+03  0.7546771E-02  0.1083380E+00
         21   -1    0    0  501  502  0.00000000000E+00  0.00000000000E+00  0.37994266251E+03  0.37994266251E+03  0.00000000000E+00 0. -1.
         21   -1    0    0  502  503 -0.00000000000E+00 -0.00000000000E+00 -0.25040185915E+03  0.25040185915E+03  0.00000000000E+00 0. -1.
          6    1    1    2  501    0 -0.21289577456E+03 -0.13042741288E+03  0.11954388454E+03  0.32642864639E+03  0.17300000000E+03 0. -1.
         -6    1    1    2    0  503  0.21289577456E+03  0.13042741288E+03  0.99969188188E+01  0.30391587527E+03  0.17300000000E+03 0. -1.
<mgrwt>
<rscale>  2 0.30375141E+03</rscale>
<asrwt>0</asrwt>
<pdfrwt beam="1">  1       21 0.58452717E-01 0.30375141E+03</pdfrwt>
<pdfrwt beam="2">  1       21 0.38523363E-01 0.30375141E+03</pdfrwt>
<totfact> 0.16831481E+04</totfact>
</mgrwt>
</event>
<event>
 4    2  0.4039581E+000  0.2185943E+03  0.7546771E-02  0.1134935E+00
         21   -1    0    0  501  502  0.00000000000E+00  0.00000000000E+00  0.20908127909E+03  0.20908127909E+03  0.00000000000E+00 0.  1.
         21   -1    0    0  502  503 -0.00000000000E+00 -0.00000000000E+00 -0.38447892286E+03  0.38447892286E+03  0.00000000000E+00 0. -1.
          6    1    1    2  501    0  0.10912814980E+03 -0.77107069805E+02 -0.27670485038E+03  0.35263157476E+03  0.17300000000E+03 0. -1.
         -6    1    1    2    0  503 -0.10912814980E+03  0.77107069805E+02  0.10130720661E+03  0.24092862720E+03  0.17300000000E+03 0.  1.
<mgrwt>
<rscale>  2 0.21859427E+03</rscale>
<asrwt>0</asrwt>
<pdfrwt beam="1">  1       21 0.32166351E-01 0.21859427E+03</pdfrwt>
<pdfrwt beam="2">  1       21 0.59150603E-01 0.21859427E+03</pdfrwt>
<totfact> 0.24479579E+04</totfact>
</mgrwt>
</event>
<event>
 4    2  0.4039581E+000  0.1818107E+03  0.7546771E-02  0.1166062E+00
         21   -1    0    0  501  502  0.00000000000E+00  0.00000000000E+00  0.10221897652E+03  0.10221897652E+03  0.00000000000E+00 0.  1.
         21   -1    0    0  502  503 -0.00000000000E+00 -0.00000000000E+00 -0.54380784762E+03  0.54380784762E+03  0.00000000000E+00 0.  1.
          6    1    1    2  501    0 -0.55805522326E+02 -0.34467714044E+01 -0.15141339264E+02  0.18244011815E+03  0.17300000000E+03 0.  1.
         -6    1    1    2    0  503  0.55805522326E+02  0.34467714044E+01 -0.42644753184E+03  0.46358670598E+03  0.17300000000E+03 0.  1.
<mgrwt>
<rscale>  2 0.18181072E+03</rscale>
<asrwt>0</asrwt>
<pdfrwt beam="1">  1       21 0.15725996E-01 0.18181072E+03</pdfrwt>
<pdfrwt beam="2">  1       21 0.83662746E-01 0.18181072E+03</pdfrwt>
<totfact> 0.44955036E+04</totfact>
</mgrwt>
</event>
<event>
 4    2  0.4039581E+000  0.1799078E+03  0.7546771E-02  0.1167892E+00
         21   -1    0    0  503  502  0.00000000000E+00  0.00000000000E+00  0.70314573156E+02  0.70314573156E+02  0.00000000000E+00 0. -1.
         21   -1    0    0  501  503 -0.00000000000E+00 -0.00000000000E+00 -0.46262812930E+03  0.46262812930E+03  0.00000000000E+00 0. -1.
          6    1    1    2  501    0 -0.49226779582E+02  0.38126206772E+01 -0.21500146716E+03  0.28034343721E+03  0.17300000000E+03 0.  1.
         -6    1    1    2    0  502  0.49226779582E+02 -0.38126206772E+01 -0.17731208898E+03  0.25259926525E+03  0.17300000000E+03 0.  1.
<mgrwt>
<rscale>  2 0.17990779E+03</rscale>
<asrwt>0</asrwt>
<pdfrwt beam="1">  1       21 0.10817627E-01 0.17990779E+03</pdfrwt>
<pdfrwt beam="2">  1       21 0.71173556E-01 0.17990779E+03</pdfrwt>
<totfact> 0.12667689E+05</totfact>
</mgrwt>
</event>
<event>
 4    2  0.4039581E+000  0.1936623E+03  0.7546771E-02  0.1155199E+00
         21   -1    0    0  501  502  0.00000000000E+00  0.00000000000E+00  0.11047689774E+03  0.11047689774E+03  0.00000000000E+00 0.  1.
         21   -1    0    0  502  503 -0.00000000000E+00 -0.00000000000E+00 -0.37331864850E+03  0.37331864850E+03  0.00000000000E+00 0.  1.
          6    1    1    2  501    0  0.84155287887E+02 -0.22225752070E+02 -0.58596739821E+02  0.20233307800E+03  0.17300000000E+03 0.  1.
         -6    1    1    2    0  503 -0.84155287887E+02  0.22225752070E+02 -0.20424501094E+03  0.28146246824E+03  0.17300000000E+03 0.  1.
<mgrwt>
<rscale>  2 0.19366233E+03</rscale>
<asrwt>0</asrwt>
<pdfrwt beam="1">  1       21 0.16996446E-01 0.19366233E+03</pdfrwt>
<pdfrwt beam="2">  1       21 0.57433638E-01 0.19366233E+03</pdfrwt>
<totfact> 0.88765761E+04</totfact>
</mgrwt>
</event>
<event>
 4    2  0.4039581E+000  0.2136424E+03  0.7546771E-02  0.1138714E+00
         21   -1    0    0  503  502  0.00000000000E+00  0.00000000000E+00  0.24898384420E+03  0.24898384420E+03  0.00000000000E+00 0. -1.
         21   -1    0    0  501  503 -0.00000000000E+00 -0.00000000000E+00 -0.20884883411E+03  0.20884883411E+03  0.00000000000E+00 0.  1.
          6    1    1    2  501    0  0.64586861386E+02  0.10743647310E+03 -0.59970968593E+02  0.22189992224E+03  0.17300000000E+03 0.  1.
         -6    1    1    2    0  502 -0.64586861386E+02 -0.10743647310E+03  0.10010597869E+03  0.23593275607E+03  0.17300000000E+03 0. -1.
<mgrwt>
<rscale>  2 0.21364236E+03</rscale>
<asrwt>0</asrwt>
<pdfrwt beam="1">  1       21 0.38305207E-01 0.21364236E+03</pdfrwt>
<pdfrwt beam="2">  1       21 0.32130590E-01 0.21364236E+03</pdfrwt>
<totfact> 0.60653204E+04</totfact>
</mgrwt>
</event>
<event>
 4    2  0.4039581E+000  0.1887508E+03  0.7546771E-02  0.1159593E+00
         21   -1    0    0  503  502  0.00000000000E+00  0.00000000000E+00  0.70050967809E+03  0.70050967809E+03  0.00000000000E+00 0.  1.
         21   -1    0    0  501  503 -0.00000000000E+00 -0.00000000000E+00 -0.65866456315E+02  0.65866456315E+02  0.00000000000E+00 0.  1.
          6    1    1    2  501    0 -0.72843567886E+02  0.19791124821E+02  0.13441030390E+03  0.23171750861E+03  0.17300000000E+03 0.  1.
         -6    1    1    2    0  502  0.72843567886E+02 -0.19791124821E+02  0.50023291788E+03  0.53465862579E+03  0.17300000000E+03 0.  1.
<mgrwt>
<rscale>  2 0.18875083E+03</rscale>
<asrwt>0</asrwt>
<pdfrwt beam="1">  1       21 0.10777071E+00 0.18875083E+03</pdfrwt>
<pdfrwt beam="2">  1       21 0.10133301E-01 0.18875083E+03</pdfrwt>
<totfact> 0.54500757E+04</totfact>
</mgrwt>
</event>
<event>
 4    2  0.4039581E+000  0.3260641E+03  0.7546771E-02  0.1072892E+00
         21   -1    0    0  501  502  0.00000000000E+00  0.00000000000E+00  0.26095816059E+03  0.26095816059E+03  0.00000000000E+00 0.  1.
         21   -1    0    0  502  503 -0.00000000000E+00 -0.00000000000E+00 -0.78817946834E+03  0.78817946834E+03  0.00000000000E+00 0. -1.
          6    1    1    2  501    0  0.27599757877E+03  0.14633324375E+02  0.10099143031E+03  0.34134596330E+03  0.17300000000E+03 0.  1.
         -6    1    1    2    0  503 -0.27599757877E+03 -0.14633324375E+02 -0.62821273806E+03  0.70779166563E+03  0.17300000000E+03 0. -1.
<mgrwt>
<rscale>  2 0.32606410E+03</rscale>
<asrwt>0</asrwt>
<pdfrwt beam="1">  1       21 0.40147410E-01 0.32606410E+03</pdfrwt>
<pdfrwt beam="2">  1       21 0.12125838E+00 0.32606410E+03</pdfrwt>
<totfact> 0.28103131E+03</totfact>
</mgrwt>
</event>
<event>
 4    2  0.4039581E+000  0.2506363E+03  0.7546771E-02  0.1112903E+00
         21   -1    0    0  501  502  0.00000000000E+00  0.00000000000E+00  0.17882137911E+04  0.17882137911E+04  0.00000000000E+00 0. -1.
         21   -1    0    0  502  503 -0.00000000000E+00 -0.00000000000E+00 -0.38006352461E+02  0.38006352461E+02  0.00000000000E+00 0.  1.
          6    1    1    2  501    0  0.14274705429E+03  0.11186084738E+03  0.11263353587E+04  0.11538847044E+04  0.17300000000E+03 0. -1.
         -6    1    1    2    0  503 -0.14274705429E+03 -0.11186084738E+03  0.62387207993E+03  0.67233543919E+03  0.17300000000E+03 0.  1.
<mgrwt>
<rscale>  2 0.25063633E+03</rscale>
<asrwt>0</asrwt>
<pdfrwt beam="1">  1       21 0.27510975E+00 0.25063633E+03</pdfrwt>
<pdfrwt beam="2">  1       21 0.58471325E-02 0.25063633E+03</pdfrwt>
<totfact> 0.92844004E+03</totfact>
</mgrwt>
</event>
<event>
 4    2  0.4039581E+000  0.1979709E+03  0.7546771E-02  0.1151462E+00
         21   -1    0    0  501  502  0.00000000000E+00  0.00000000000E+00  0.28620638251E+03  0.28620638251E+03  0.00000000000E+00 0. -1.
         21   -1    0    0  502  503 -0.00000000000E+00 -0.00000000000E+00 -0.13925572405E+03  0.13925572405E+03  0.00000000000E+00 0. -1.
          6    1    1    2  501    0  0.28981729021E+02  0.91779819092E+02  0.46029722460E+02  0.20325159571E+03  0.17300000000E+03 0. -1.
         -6    1    1    2    0  503 -0.28981729021E+02 -0.91779819092E+02  0.10092093600E+03  0.22221051085E+03  0.17300000000E+03 0. -1.
<mgrwt>
<rscale>  2 0.19797090E+03</rscale>
<asrwt>0</asrwt>
<pdfrwt beam="1">  1       21 0.44031751E-01 0.19797090E+03</pdfrwt>
<pdfrwt beam="2">  1       21 0.21423958E-01 0.19797090E+03</pdfrwt>
<totfact> 0.10032726E+05</totfact>
</mgrwt>
</event>
<event>
 4    2  0.4039581E+000  0.1905802E+03  0.7546771E-02  0.1157939E+00
         21   -1    0    0  503  502  0.00000000000E+00  0.00000000000E+00  0.45903169766E+03  0.45903169766E+03  0.00000000000E+00 0.  1.
         21   -1    0    0  501  503 -0.00000000000E+00 -0.00000000000E+00 -0.95171422461E+02  0.95171422461E+02  0.00000000000E+00 0.  1.
          6    1    1    2  501    0  0.66706660267E+02  0.44068476558E+02  0.68147242199E+02  0.20239776622E+03  0.17300000000E+03 0.  1.
         -6    1    1    2    0  502 -0.66706660267E+02 -0.44068476558E+02  0.29571303300E+03  0.35180535391E+03  0.17300000000E+03 0.  1.
<mgrwt>
<rscale>  2 0.19058019E+03</rscale>
<asrwt>0</asrwt>
<pdfrwt beam="1">  1       21 0.70620260E-01 0.19058019E+03</pdfrwt>
<pdfrwt beam="2">  1       21 0.14641758E-01 0.19058019E+03</pdfrwt>
<totfact> 0.74557755E+04</totfact>
</mgrwt>
</event>
<event>
 4    2  0.4039581E+000  0.1734717E+03  0.7546771E-02  0.1174275E+00
         21   -1    0    0  501  502  0.00000000000E+00  0.00000000000E+00  0.23093779958E+03  0.23093779958E+03  0.00000000000E+00 0.  1.
         21   -1    0    0  502  503 -0.00000000000E+00 -0.00000000000E+00 -0.13037486678E+03  0.13037486678E+03  0.00000000000E+00 0.  1.
          6    1    1    2  501    0  0.25703431589E+01 -0.12522930000E+02  0.46109834514E+02  0.17949525698E+03  0.17300000000E+03 0. -1.
         -6    1    1    2    0  503 -0.25703431589E+01  0.12522930000E+02  0.54453098287E+02  0.18181740938E+03  0.17300000000E+03 0. -1.
<mgrwt>
<rscale>  2 0.17347170E+03</rscale>
<asrwt>0</asrwt>
<pdfrwt beam="1">  1       21 0.35528892E-01 0.17347170E+03</pdfrwt>
<pdfrwt beam="2">  1       21 0.20057672E-01 0.17347170E+03</pdfrwt>
<totfact> 0.17639479E+05</totfact>
</mgrwt>
</event>
<event>
 4    2  0.4039581E+000  0.2516093E+03  0.7546771E-02  0.1112292E+00
         21   -1    0    0  503  502  0.00000000000E+00  0.00000000000E+00  0.13454062675E+03  0.13454062675E+03  0.00000000000E+00 0.  1.
         21   -1    0    0  501  503 -0.00000000000E+00 -0.00000000000E+00 -0.75798192146E+03  0.75798192146E+03  0.00000000000E+00 0.  1.
          6    1    1    2  501    0  0.14534226245E+03  0.11069722594E+03 -0.58653031633E+03  0.63822022928E+03  0.17300000000E+03 0.  1.
         -6    1    1    2    0  502 -0.14534226245E+03 -0.11069722594E+03 -0.36910978379E+02  0.25430231892E+03  0.17300000000E+03 0.  1.
<mgrwt>
<rscale>  2 0.25160932E+03</rscale>
<asrwt>0</asrwt>
<pdfrwt beam="1">  1       21 0.20698558E-01 0.25160932E+03</pdfrwt>
<pdfrwt beam="2">  1       21 0.11661260E+00 0.25160932E+03</pdfrwt>
<totfact> 0.11819663E+04</totfact>
</mgrwt>
</event>
<event>
 4    2  0.4039581E+000  0.1874733E+03  0.7546771E-02  0.1160760E+00
         21   -1    0    0  501  502  0.00000000000E+00  0.00000000000E+00  0.67985397902E+02  0.67985397902E+02  0.00000000000E+00 0.  1.
         21   -1    0    0  502  503 -0.00000000000E+00 -0.00000000000E+00 -0.77043685425E+03  0.77043685425E+03  0.00000000000E+00 0.  1.
          6    1    1    2  501    0 -0.63536329025E+02  0.34356507813E+02 -0.11077445199E+03  0.21775494013E+03  0.17300000000E+03 0.  1.
         -6    1    1    2    0  503  0.63536329025E+02 -0.34356507813E+02 -0.59167700436E+03  0.62066731203E+03  0.17300000000E+03 0.  1.
<mgrwt>
<rscale>  2 0.18747329E+03</rscale>
<asrwt>0</asrwt>
<pdfrwt beam="1">  1       21 0.10459293E-01 0.18747329E+03</pdfrwt>
<pdfrwt beam="2">  1       21 0.11852874E+00 0.18747329E+03</pdfrwt>
<totfact> 0.40922088E+04</totfact>
</mgrwt>
</event>
<event>
 4    2  0.4039581E+000  0.1950788E+03  0.7546771E-02  0.1153959E+00
         21   -1    0    0  503  502  0.00000000000E+00  0.00000000000E+00  0.24614005834E+03  0.24614005834E+03  0.00000000000E+00 0. -1.
         21   -1    0    0  501  503 -0.00000000000E+00 -0.00000000000E+00 -0.15647499011E+03  0.15647499011E+03  0.00000000000E+00 0.  1.
          6    1    1    2  501    0 -0.14164350998E+02  0.89028746565E+02  0.22855928858E+02  0.19641318703E+03  0.17300000000E+03 0.  1.
         -6    1    1    2    0  502  0.14164350998E+02 -0.89028746565E+02  0.66809139369E+02  0.20620186143E+03  0.17300000000E+03 0. -1.
<mgrwt>
<rscale>  2 0.19507882E+03</rscale>
<asrwt>0</asrwt>
<pdfrwt beam="1">  1       21 0.37867701E-01 0.19507882E+03</pdfrwt>
<pdfrwt beam="2">  1       21 0.24073075E-01 0.19507882E+03</pdfrwt>
<totfact> 0.10937443E+05</totfact>
</mgrwt>
</event>
<event>
 4    2  0.4039581E+000  0.2159238E+03  0.7546771E-02  0.1136959E+00
         21   -1    0    0  503  502  0.00000000000E+00  0.00000000000E+00  0.53602718570E+03  0.53602718570E+03  0.00000000000E+00 0. -1.
         21   -1    0    0  501  503 -0.00000000000E+00 -0.00000000000E+00 -0.10686057938E+03  0.10686057938E+03  0.00000000000E+00 0. -1.
          6    1    1    2  501    0 -0.12668013327E+03 -0.25421370047E+02  0.35323397337E+03  0.41400162097E+03  0.17300000000E+03 0.  1.
         -6    1    1    2    0  502  0.12668013327E+03  0.25421370047E+02  0.75932632949E+02  0.22888614411E+03  0.17300000000E+03 0.  1.
<mgrwt>
<rscale>  2 0.21592383E+03</rscale>
<asrwt>0</asrwt>
<pdfrwt beam="1">  1       21 0.82465719E-01 0.21592383E+03</pdfrwt>
<pdfrwt beam="2">  1       21 0.16440089E-01 0.21592383E+03</pdfrwt>
<totfact> 0.42092666E+04</totfact>
</mgrwt>
</event>
<event>
 4    2  0.4039581E+000  0.1741656E+03  0.7546771E-02  0.1173572E+00
         21   -1    0    0  501  502  0.00000000000E+00  0.00000000000E+00  0.19050188395E+03  0.19050188395E+03  0.00000000000E+00 0. -1.
         21   -1    0    0  502  503 -0.00000000000E+00 -0.00000000000E+00 -0.16816051217E+03  0.16816051217E+03  0.00000000000E+00 0. -1.
          6    1    1    2  501    0 -0.19981584129E+02 -0.23195089206E+01  0.52497158759E+02  0.18190545760E+03  0.17300000000E+03 0. -1.
         -6    1    1    2    0  503  0.19981584129E+02  0.23195089206E+01 -0.30155786976E+02  0.17675693852E+03  0.17300000000E+03 0. -1.
<mgrwt>
<rscale>  2 0.17416556E+03</rscale>
<asrwt>0</asrwt>
<pdfrwt beam="1">  1       21 0.29307982E-01 0.17416556E+03</pdfrwt>
<pdfrwt beam="2">  1       21 0.25870848E-01 0.17416556E+03</pdfrwt>
<totfact> 0.15912790E+05</totfact>
</mgrwt>
</event>
<event>
 4    2  0.4039581E+000  0.1787530E+03  0.7546771E-02  0.1169015E+00
         21   -1    0    0  501  502  0.00000000000E+00  0.00000000000E+00  0.93362944927E+02  0.93362944927E+02  0.00000000000E+00 0. -1.
         21   -1    0    0  502  503 -0.00000000000E+00 -0.00000000000E+00 -0.36066065546E+03  0.36066065546E+03  0.00000000000E+00 0. -1.
          6    1    1    2  501    0 -0.41797258291E+02  0.16632247675E+02 -0.82346426307E+02  0.19680847642E+03  0.17300000000E+03 0. -1.
         -6    1    1    2    0  503  0.41797258291E+02 -0.16632247675E+02 -0.18495128423E+03  0.25721512397E+03  0.17300000000E+03 0. -1.
<mgrwt>
<rscale>  2 0.17875302E+03</rscale>
<asrwt>0</asrwt>
<pdfrwt beam="1">  1       21 0.14363530E-01 0.17875302E+03</pdfrwt>
<pdfrwt beam="2">  1       21 0.55486256E-01 0.17875302E+03</pdfrwt>
<totfact> 0.13057735E+05</totfact>
</mgrwt>
</event>
<event>
 4    2  0.4039581E+000  0.2838029E+03  0.7546771E-02  0.1093630E+00
         21   -1    0    0  503  502  0.00000000000E+00  0.00000000000E+00  0.16689292219E+04  0.16689292219E+04  0.00000000000E+00 0.  1.
         21   -1    0    0  501  503 -0.00000000000E+00 -0.00000000000E+00 -0.21968406175E+03  0.21968406175E+03  0.00000000000E+00 0.  1.
          6    1    1    2  501    0  0.22212358894E+03 -0.35723879664E+02 -0.10953572087E+03  0.30420742675E+03  0.17300000000E+03 0.  1.
         -6    1    1    2    0  502 -0.22212358894E+03  0.35723879664E+02  0.15587808810E+04  0.15844058569E+04  0.17300000000E+03 0.  1.
<mgrwt>
<rscale>  2 0.28380290E+03</rscale>
<asrwt>0</asrwt>
<pdfrwt beam="1">  1       21 0.25675833E+00 0.28380290E+03</pdfrwt>
<pdfrwt beam="2">  1       21 0.33797549E-01 0.28380290E+03</pdfrwt>
<totfact> 0.46284944E+02</totfact>
</mgrwt>
</event>
<event>
 4    2  0.4039581E+000  0.1908308E+03  0.7546771E-02  0.1157714E+00
         21   -1    0    0  501  502  0.00000000000E+00  0.00000000000E+00  0.17534405323E+03  0.17534405323E+03  0.00000000000E+00 0. -1.
         21   -1    0    0  502  503 -0.00000000000E+00 -0.00000000000E+00 -0.21051515645E+03  0.21051515645E+03  0.00000000000E+00 0. -1.
          6    1    1    2  501    0 -0.79980871175E+02  0.95104972502E+01 -0.39954023897E+02  0.19496849319E+03  0.17300000000E+03 0. -1.
         -6    1    1    2    0  503  0.79980871175E+02 -0.95104972502E+01  0.47829206745E+01  0.19089071649E+03  0.17300000000E+03 0. -1.
<mgrwt>
<rscale>  2 0.19083079E+03</rscale>
<asrwt>0</asrwt>
<pdfrwt beam="1">  1       21 0.26976008E-01 0.19083079E+03</pdfrwt>
<pdfrwt beam="2">  1       21 0.32386947E-01 0.19083079E+03</pdfrwt>
<totfact> 0.12017150E+05</totfact>
</mgrwt>
</event>
<event>
 4    2  0.4039581E+000  0.1963058E+03  0.7546771E-02  0.1152894E+00
         21   -1    0    0  503  502  0.00000000000E+00  0.00000000000E+00  0.80081582972E+03  0.80081582972E+03  0.00000000000E+00 0.  1.
         21   -1    0    0  501  503 -0.00000000000E+00 -0.00000000000E+00 -0.72647382020E+02  0.72647382020E+02  0.00000000000E+00 0.  1.
          6    1    1    2  501    0  0.82997486329E+02 -0.41453524615E+02  0.11032474175E+03  0.22518331662E+03  0.17300000000E+03 0. -1.
         -6    1    1    2    0  502 -0.82997486329E+02  0.41453524615E+02  0.61784370595E+03  0.64827989513E+03  0.17300000000E+03 0. -1.
<mgrwt>
<rscale>  2 0.19630583E+03</rscale>
<asrwt>0</asrwt>
<pdfrwt beam="1">  1       21 0.12320243E+00 0.19630583E+03</pdfrwt>
<pdfrwt beam="2">  1       21 0.11176521E-01 0.19630583E+03</pdfrwt>
<totfact> 0.32880747E+04</totfact>
</mgrwt>
</event>
<event>
 4    2  0.4039581E+000  0.1732618E+03  0.7546771E-02  0.1174488E+00
         21   -1    0    0  501  502  0.00000000000E+00  0.00000000000E+00  0.15078127772E+03  0.15078127772E+03  0.00000000000E+00 0. -1.
         21   -1    0    0  502  503 -0.00000000000E+00 -0.00000000000E+00 -0.20187625706E+03  0.20187625706E+03  0.00000000000E+00 0. -1.
          6    1    1    2  501    0  0.46984034647E+01  0.82811971330E+01 -0.46247774529E+02  0.17932793946E+03  0.17300000000E+03 0. -1.
         -6    1    1    2    0  503 -0.46984034647E+01 -0.82811971330E+01 -0.48472048135E+01  0.17332959533E+03  0.17300000000E+03 0. -1.
<mgrwt>
<rscale>  2 0.17326181E+03</rscale>
<asrwt>0</asrwt>
<pdfrwt beam="1">  1       21 0.23197120E-01 0.17326181E+03</pdfrwt>
<pdfrwt beam="2">  1       21 0.31057886E-01 0.17326181E+03</pdfrwt>
<totfact> 0.17494919E+05</totfact>
</mgrwt>
</event>
<event>
 4    2  0.4039581E+000  0.2501894E+03  0.7546771E-02  0.1113185E+00
         21   -1    0    0  501  502  0.00000000000E+00  0.00000000000E+00  0.12051076381E+03  0.12051076381E+03  0.00000000000E+00 0.  1.
         21   -1    0    0  502  503 -0.00000000000E+00 -0.00000000000E+00 -0.52138925181E+03  0.52138925181E+03  0.00000000000E+00 0. -1.
          6    1    1    2  501    0  0.34255420030E+02  0.17746074557E+03 -0.18067522128E+03  0.30860700835E+03  0.17300000000E+03 0.  1.
         -6    1    1    2    0  503 -0.34255420030E+02 -0.17746074557E+03 -0.22020326672E+03  0.33329300727E+03  0.17300000000E+03 0. -1.
<mgrwt>
<rscale>  2 0.25018943E+03</rscale>
<asrwt>0</asrwt>
<pdfrwt beam="1">  1       21 0.18540118E-01 0.25018943E+03</pdfrwt>
<pdfrwt beam="2">  1       21 0.80213731E-01 0.25018943E+03</pdfrwt>
<totfact> 0.35323775E+04</totfact>
</mgrwt>
</event>
<event>
 4    2  0.4039581E+000  0.2025181E+03  0.7546771E-02  0.1147632E+00
         21   -1    0    0  501  502  0.00000000000E+00  0.00000000000E+00  0.22151590968E+03  0.22151590968E+03  0.00000000000E+00 0. -1.
         21   -1    0    0  502  503 -0.00000000000E+00 -0.00000000000E+00 -0.21028160056E+03  0.21028160056E+03  0.00000000000E+00 0. -1.
          6    1    1    2  501    0  0.10526615406E+03  0.19012232212E+01 -0.69021395907E+02  0.21395684363E+03  0.17300000000E+03 0. -1.
         -6    1    1    2    0  503 -0.10526615406E+03 -0.19012232212E+01  0.80255705035E+02  0.21784066662E+03  0.17300000000E+03 0. -1.
<mgrwt>
<rscale>  2 0.20251809E+03</rscale>
<asrwt>0</asrwt>
<pdfrwt beam="1">  1       21 0.34079371E-01 0.20251809E+03</pdfrwt>
<pdfrwt beam="2">  1       21 0.32351016E-01 0.20251809E+03</pdfrwt>
<totfact> 0.75940564E+04</totfact>
</mgrwt>
</event>
<event>
 4    2  0.4039581E+000  0.1966171E+03  0.7546771E-02  0.1152625E+00
         21   -1    0    0  501  502  0.00000000000E+00  0.00000000000E+00  0.11659552671E+03  0.11659552671E+03  0.00000000000E+00 0. -1.
         21   -1    0    0  502  503 -0.00000000000E+00 -0.00000000000E+00 -0.69648671114E+03  0.69648671114E+03  0.00000000000E+00 0.  1.
          6    1    1    2  501    0  0.51328330517E+02  0.78068539985E+02 -0.58421932052E+03  0.61641747941E+03  0.17300000000E+03 0.  1.
         -6    1    1    2    0  503 -0.51328330517E+02 -0.78068539985E+02  0.43281360900E+01  0.19666475844E+03  0.17300000000E+03 0. -1.
<mgrwt>
<rscale>  2 0.19661713E+03</rscale>
<asrwt>0</asrwt>
<pdfrwt beam="1">  1       21 0.17937773E-01 0.19661713E+03</pdfrwt>
<pdfrwt beam="2">  1       21 0.10715181E+00 0.19661713E+03</pdfrwt>
<totfact> 0.19612218E+04</totfact>
</mgrwt>
</event>
<event>
 4    2  0.4039581E+000  0.2102577E+03  0.7546771E-02  0.1141362E+00
         21   -1    0    0  501  502  0.00000000000E+00  0.00000000000E+00  0.22167240352E+03  0.22167240352E+03  0.00000000000E+00 0.  1.
         21   -1    0    0  502  503 -0.00000000000E+00 -0.00000000000E+00 -0.21340113720E+03  0.21340113720E+03  0.00000000000E+00 0.  1.
          6    1    1    2  501    0 -0.11721961300E+03  0.23213368983E+02 -0.51523728207E+02  0.21647861959E+03  0.17300000000E+03 0.  1.
         -6    1    1    2    0  503  0.11721961300E+03 -0.23213368983E+02  0.59794994526E+02  0.21859492113E+03  0.17300000000E+03 0.  1.
<mgrwt>
<rscale>  2 0.21025769E+03</rscale>
<asrwt>0</asrwt>
<pdfrwt beam="1">  1       21 0.34103447E-01 0.21025769E+03</pdfrwt>
<pdfrwt beam="2">  1       21 0.32830944E-01 0.21025769E+03</pdfrwt>
<totfact> 0.73420499E+04</totfact>
</mgrwt>
</event>
<event>
 4    2  0.4039581E+000  0.1760053E+03  0.7546771E-02  0.1171726E+00
         21   -1    0    0  501  502  0.00000000000E+00  0.00000000000E+00  0.14576619608E+04  0.14576619608E+04  0.00000000000E+00 0. -1.
         21   -1    0    0  502  503 -0.00000000000E+00 -0.00000000000E+00 -0.10724452770E+03  0.10724452770E+03  0.00000000000E+00 0. -1.
          6    1    1    2  501    0  0.25551400396E+02 -0.19899270555E+02  0.13758598608E+04  0.13870718120E+04  0.17300000000E+03 0. -1.
         -6    1    1    2    0  503 -0.25551400396E+02  0.19899270555E+02 -0.25442427734E+02  0.17783467648E+03  0.17300000000E+03 0. -1.
<mgrwt>
<rscale>  2 0.17600527E+03</rscale>
<asrwt>0</asrwt>
<pdfrwt beam="1">  1       21 0.22425567E+00 0.17600527E+03</pdfrwt>
<pdfrwt beam="2">  1       21 0.16499159E-01 0.17600527E+03</pdfrwt>
<totfact> 0.31791733E+03</totfact>
</mgrwt>
</event>
<event>
 4    2  0.4039581E+000  0.1856091E+03  0.7546771E-02  0.1162482E+00
         21   -1    0    0  501  502  0.00000000000E+00  0.00000000000E+00  0.46442817458E+02  0.46442817458E+02  0.00000000000E+00 0.  1.
         21   -1    0    0  502  503 -0.00000000000E+00 -0.00000000000E+00 -0.94538847426E+03  0.94538847426E+03  0.00000000000E+00 0.  1.
          6    1    1    2  501    0 -0.10590545706E+02  0.66404582334E+02 -0.21933290191E+03  0.28732847070E+03  0.17300000000E+03 0.  1.
         -6    1    1    2    0  503  0.10590545706E+02 -0.66404582334E+02 -0.67961275490E+03  0.70450282103E+03  0.17300000000E+03 0.  1.
<mgrwt>
<rscale>  2 0.18560907E+03</rscale>
<asrwt>0</asrwt>
<pdfrwt beam="1">  1       21 0.71450487E-02 0.18560907E+03</pdfrwt>
<pdfrwt beam="2">  1       21 0.14544438E+00 0.18560907E+03</pdfrwt>
<totfact> 0.47499532E+04</totfact>
</mgrwt>
</event>
<event>
 4    2  0.4039581E+000  0.1735863E+03  0.7546771E-02  0.1174159E+00
         21   -1    0    0  501  502  0.00000000000E+00  0.00000000000E+00  0.63925369370E+03  0.63925369370E+03  0.00000000000E+00 0. -1.
         21   -1    0    0  502  503 -0.00000000000E+00 -0.00000000000E+00 -0.72338987424E+02  0.72338987424E+02  0.00000000000E+00 0. -1.
          6    1    1    2  501    0 -0.11927619522E+02 -0.78062895145E+01  0.49346573904E+03  0.52310672130E+03  0.17300000000E+03 0. -1.
         -6    1    1    2    0  503  0.11927619522E+02  0.78062895145E+01  0.73448967239E+02  0.18848595983E+03  0.17300000000E+03 0. -1.
<mgrwt>
<rscale>  2 0.17358631E+03</rscale>
<asrwt>0</asrwt>
<pdfrwt beam="1">  1       21 0.98346718E-01 0.17358631E+03</pdfrwt>
<pdfrwt beam="2">  1       21 0.11129075E-01 0.17358631E+03</pdfrwt>
<totfact> 0.57856281E+04</totfact>
</mgrwt>
</event>
<event>
 4    2  0.4039581E+000  0.1767300E+03  0.7546771E-02  0.1171006E+00
         21   -1    0    0  503  502  0.00000000000E+00  0.00000000000E+00  0.16574052797E+03  0.16574052797E+03  0.00000000000E+00 0. -1.
         21   -1    0    0  501  503 -0.00000000000E+00 -0.00000000000E+00 -0.28102310946E+03  0.28102310946E+03  0.00000000000E+00 0. -1.
          6    1    1    2  501    0  0.34807977556E+02  0.96381792155E+01 -0.18585180919E+03  0.25646517264E+03  0.17300000000E+03 0. -1.
         -6    1    1    2    0  502 -0.34807977556E+02 -0.96381792155E+01  0.70569227707E+02  0.19029846478E+03  0.17300000000E+03 0. -1.
<mgrwt>
<rscale>  2 0.17672999E+03</rscale>
<asrwt>0</asrwt>
<pdfrwt beam="1">  1       21 0.25498543E-01 0.17672999E+03</pdfrwt>
<pdfrwt beam="2">  1       21 0.43234324E-01 0.17672999E+03</pdfrwt>
<totfact> 0.75521492E+04</totfact>
</mgrwt>
</event>
<event>
 4    2  0.4039581E+000  0.1942855E+03  0.7546771E-02  0.1154652E+00
         21   -1    0    0  503  502  0.00000000000E+00  0.00000000000E+00  0.10546802110E+04  0.10546802110E+04  0.00000000000E+00 0.  1.
         21   -1    0    0  501  503 -0.00000000000E+00 -0.00000000000E+00 -0.12323022427E+03  0.12323022427E+03  0.00000000000E+00 0.  1.
          6    1    1    2  501    0 -0.53602638813E+02 -0.70317878833E+02 -0.30386921180E+02  0.19664743057E+03  0.17300000000E+03 0.  1.
         -6    1    1    2    0  502  0.53602638813E+02  0.70317878833E+02  0.96183690787E+03  0.98126300466E+03  0.17300000000E+03 0.  1.
<mgrwt>
<rscale>  2 0.19428548E+03</rscale>
<asrwt>0</asrwt>
<pdfrwt beam="1">  1       21 0.16225849E+00 0.19428548E+03</pdfrwt>
<pdfrwt beam="2">  1       21 0.18958497E-01 0.19428548E+03</pdfrwt>
<totfact> 0.61717727E+03</totfact>
</mgrwt>
</event>
<event>
 4    2  0.4039581E+000  0.1887180E+03  0.7546771E-02  0.1159623E+00
         21   -1    0    0  503  502  0.00000000000E+00  0.00000000000E+00  0.48023440882E+02  0.48023440882E+02  0.00000000000E+00 0.  1.
         21   -1    0    0  501  503 -0.00000000000E+00 -0.00000000000E+00 -0.74691783126E+03  0.74691783126E+03  0.00000000000E+00 0.  1.
          6    1    1    2  501    0  0.72786039305E+02 -0.19689663159E+02 -0.38296496094E+03  0.42693869778E+03  0.17300000000E+03 0.  1.
         -6    1    1    2    0  502 -0.72786039305E+02  0.19689663159E+02 -0.31592942944E+03  0.36800257436E+03  0.17300000000E+03 0.  1.
<mgrwt>
<rscale>  2 0.18871802E+03</rscale>
<asrwt>0</asrwt>
<pdfrwt beam="1">  1       21 0.73882223E-02 0.18871802E+03</pdfrwt>
<pdfrwt beam="2">  1       21 0.11491043E+00 0.18871802E+03</pdfrwt>
<totfact> 0.81073708E+04</totfact>
</mgrwt>
</event>
<event>
 4    2  0.4039581E+000  0.2121488E+03  0.7546771E-02  0.1139876E+00
         21   -1    0    0  501  502  0.00000000000E+00  0.00000000000E+00  0.83394553375E+03  0.83394553375E+03  0.00000000000E+00 0.  1.
         21   -1    0    0  502  503 -0.00000000000E+00 -0.00000000000E+00 -0.12507816116E+03  0.12507816116E+03  0.00000000000E+00 0. -1.
          6    1    1    2  501    0 -0.12266956238E+03 -0.55041963348E+01  0.71598646271E+03  0.74675547035E+03  0.17300000000E+03 0.  1.
         -6    1    1    2    0  503  0.12266956238E+03  0.55041963348E+01 -0.71190901164E+01  0.21226822456E+03  0.17300000000E+03 0. -1.
<mgrwt>
<rscale>  2 0.21214881E+03</rscale>
<asrwt>0</asrwt>
<pdfrwt beam="1">  1       21 0.12829931E+00 0.21214881E+03</pdfrwt>
<pdfrwt beam="2">  1       21 0.19242795E-01 0.21214881E+03</pdfrwt>
<totfact> 0.10932271E+04</totfact>
</mgrwt>
</event>
<event>
 4    2  0.4039581E+000  0.1923531E+03  0.7546771E-02  0.1156356E+00
         21   -1    0    0  503  502  0.00000000000E+00  0.00000000000E+00  0.13238716486E+04  0.13238716486E+04  0.00000000000E+00 0. -1.
         21   -1    0    0  501  503 -0.00000000000E+00 -0.00000000000E+00 -0.31432821612E+02  0.31432821612E+02  0.00000000000E+00 0. -1.
          6    1    1    2  501    0  0.58089515604E+02 -0.60797342475E+02  0.87185037618E+03  0.89281733133E+03  0.17300000000E+03 0. -1.
         -6    1    1    2    0  502 -0.58089515604E+02  0.60797342475E+02  0.42058845076E+03  0.46248713884E+03  0.17300000000E+03 0. -1.
<mgrwt>
<rscale>  2 0.19235308E+03</rscale>
<asrwt>0</asrwt>
<pdfrwt beam="1">  1       21 0.20367252E+00 0.19235308E+03</pdfrwt>
<pdfrwt beam="2">  1       21 0.48358197E-02 0.19235308E+03</pdfrwt>
<totfact> 0.36217212E+04</totfact>
</mgrwt>
</event>
<event>
 4    2  0.4039581E+000  0.1799533E+03  0.7546771E-02  0.1167848E+00
         21   -1    0    0  501  502  0.00000000000E+00  0.00000000000E+00  0.86004477585E+02  0.86004477585E+02  0.00000000000E+00 0. -1.
         21   -1    0    0  502  503 -0.00000000000E+00 -0.00000000000E+00 -0.94211342706E+03  0.94211342706E+03  0.00000000000E+00 0. -1.
          6    1    1    2  501    0  0.49473001157E+02 -0.25704881759E+01 -0.29754730219E+02  0.18239662613E+03  0.17300000000E+03 0. -1.
         -6    1    1    2    0  503 -0.49473001157E+02  0.25704881759E+01 -0.82635421925E+03  0.84572127851E+03  0.17300000000E+03 0. -1.
<mgrwt>
<rscale>  2 0.17995329E+03</rscale>
<asrwt>0</asrwt>
<pdfrwt beam="1">  1       21 0.13231458E-01 0.17995329E+03</pdfrwt>
<pdfrwt beam="2">  1       21 0.14494053E+00 0.17995329E+03</pdfrwt>
<totfact> 0.16245536E+04</totfact>
</mgrwt>
</event>
<event>
 4    2  0.4039581E+000  0.1872431E+03  0.7546771E-02  0.1160972E+00
         21   -1    0    0  503  502  0.00000000000E+00  0.00000000000E+00  0.10869048298E+03  0.10869048298E+03  0.00000000000E+00 0. -1.
         21   -1    0    0  501  503 -0.00000000000E+00 -0.00000000000E+00 -0.13543224660E+04  0.13543224660E+04  0.00000000000E+00 0. -1.
          6    1    1    2  501    0 -0.25819997925E+02  0.66815399446E+02 -0.12612933615E+04  0.12751160393E+04  0.17300000000E+03 0. -1.
         -6    1    1    2    0  502  0.25819997925E+02 -0.66815399446E+02  0.15661378480E+02  0.18789690969E+03  0.17300000000E+03 0. -1.
<mgrwt>
<rscale>  2 0.18724308E+03</rscale>
<asrwt>0</asrwt>
<pdfrwt beam="1">  1       21 0.16721615E-01 0.18724308E+03</pdfrwt>
<pdfrwt beam="2">  1       21 0.20835728E+00 0.18724308E+03</pdfrwt>
<totfact> 0.38417673E+03</totfact>
</mgrwt>
</event>
<event>
 4    2  0.4039581E+000  0.1875469E+03  0.7546771E-02  0.1160693E+00
         21   -1    0    0  503  502  0.00000000000E+00  0.00000000000E+00  0.23230722876E+03  0.23230722876E+03  0.00000000000E+00 0. -1.
         21   -1    0    0  501  503 -0.00000000000E+00 -0.00000000000E+00 -0.22853521952E+03  0.22853521952E+03  0.00000000000E+00 0. -1.
          6    1    1    2  501    0  0.43970317430E+02  0.57545177760E+02 -0.13197118651E+03  0.22932559902E+03  0.17300000000E+03 0. -1.
         -6    1    1    2    0  502 -0.43970317430E+02 -0.57545177760E+02  0.13574319575E+03  0.23151684926E+03  0.17300000000E+03 0. -1.
<mgrwt>
<rscale>  2 0.18754689E+03</rscale>
<asrwt>0</asrwt>
<pdfrwt beam="1">  1       21 0.35739574E-01 0.18754689E+03</pdfrwt>
<pdfrwt beam="2">  1       21 0.35159265E-01 0.18754689E+03</pdfrwt>
<totfact> 0.59007465E+04</totfact>
</mgrwt>
</event>
<event>
 4    2  0.4039581E+000  0.2632182E+03  0.7546771E-02  0.1105225E+00
         21   -1    0    0  501  502  0.00000000000E+00  0.00000000000E+00  0.70283904302E+03  0.70283904302E+03  0.00000000000E+00 0.  1.
         21   -1    0    0  502  503 -0.00000000000E+00 -0.00000000000E+00 -0.10263976345E+03  0.10263976345E+03  0.00000000000E+00 0.  1.
          6    1    1    2  501    0 -0.19161512592E+03  0.51365858424E+02  0.38022569421E+03  0.46244500909E+03  0.17300000000E+03 0.  1.
         -6    1    1    2    0  503  0.19161512592E+03 -0.51365858424E+02  0.21997358536E+03  0.34303379739E+03  0.17300000000E+03 0.  1.
<mgrwt>
<rscale>  2 0.26321818E+03</rscale>
<asrwt>0</asrwt>
<pdfrwt beam="1">  1       21 0.10812908E+00 0.26321818E+03</pdfrwt>
<pdfrwt beam="2">  1       21 0.15790733E-01 0.26321818E+03</pdfrwt>
<totfact> 0.23409274E+04</totfact>
</mgrwt>
</event>
<event>
 4    2  0.4039581E+000  0.2263586E+03  0.7546771E-02  0.1129229E+00
         21   -1    0    0  503  502  0.00000000000E+00  0.00000000000E+00  0.91997233481E+02  0.91997233481E+02  0.00000000000E+00 0.  1.
         21   -1    0    0  501  503 -0.00000000000E+00 -0.00000000000E+00 -0.57428165913E+03  0.57428165913E+03  0.00000000000E+00 0.  1.
          6    1    1    2  501    0 -0.43767901310E+02 -0.13926093008E+03 -0.29900939769E+03  0.37502647338E+03  0.17300000000E+03 0.  1.
         -6    1    1    2    0  502  0.43767901310E+02  0.13926093008E+03 -0.18327502797E+03  0.29125241923E+03  0.17300000000E+03 0.  1.
<mgrwt>
<rscale>  2 0.22635864E+03</rscale>
<asrwt>0</asrwt>
<pdfrwt beam="1">  1       21 0.14153421E-01 0.22635864E+03</pdfrwt>
<pdfrwt beam="2">  1       21 0.88351024E-01 0.22635864E+03</pdfrwt>
<totfact> 0.47014490E+04</totfact>
</mgrwt>
</event>
<event>
 4    2  0.4039581E+000  0.2747345E+03  0.7546771E-02  0.1098600E+00
         21   -1    0    0  501  502  0.00000000000E+00  0.00000000000E+00  0.14425080662E+03  0.14425080662E+03  0.00000000000E+00 0. -1.
         21   -1    0    0  502  503 -0.00000000000E+00 -0.00000000000E+00 -0.53024588771E+03  0.53024588771E+03  0.00000000000E+00 0.  1.
          6    1    1    2  501    0  0.43616388078E+02 -0.20892024265E+03 -0.15425654530E+03  0.31507798855E+03  0.17300000000E+03 0. -1.
         -6    1    1    2    0  503 -0.43616388078E+02  0.20892024265E+03 -0.23173853578E+03  0.35941870578E+03  0.17300000000E+03 0. -1.
<mgrwt>
<rscale>  2 0.27473452E+03</rscale>
<asrwt>0</asrwt>
<pdfrwt beam="1">  1       21 0.22192431E-01 0.27473452E+03</pdfrwt>
<pdfrwt beam="2">  1       21 0.81576292E-01 0.27473452E+03</pdfrwt>
<totfact> 0.23967841E+04</totfact>
</mgrwt>
</event>
<event>
 4    2  0.4039581E+000  0.1888876E+03  0.7546771E-02  0.1159469E+00
         21   -1    0    0  501  502  0.00000000000E+00  0.00000000000E+00  0.89231978338E+02  0.89231978338E+02  0.00000000000E+00 0. -1.
         21   -1    0    0  502  503 -0.00000000000E+00 -0.00000000000E+00 -0.42649407113E+03  0.42649407113E+03  0.00000000000E+00 0. -1.
          6    1    1    2  501    0 -0.74407039285E+02  0.14598021139E+02 -0.23309467691E+03  0.30001939624E+03  0.17300000000E+03 0. -1.
         -6    1    1    2    0  503  0.74407039285E+02 -0.14598021139E+02 -0.10416741589E+03  0.21570665323E+03  0.17300000000E+03 0. -1.
<mgrwt>
<rscale>  2 0.18888756E+03</rscale>
<asrwt>0</asrwt>
<pdfrwt beam="1">  1       21 0.13727997E-01 0.18888756E+03</pdfrwt>
<pdfrwt beam="2">  1       21 0.65614472E-01 0.18888756E+03</pdfrwt>
<totfact> 0.98519383E+04</totfact>
</mgrwt>
</event>
<event>
 4    2  0.4039581E+000  0.2110875E+03  0.7546771E-02  0.1140708E+00
         21   -1    0    0  501  502  0.00000000000E+00  0.00000000000E+00  0.10793526663E+03  0.10793526663E+03  0.00000000000E+00 0. -1.
         21   -1    0    0  502  503 -0.00000000000E+00 -0.00000000000E+00 -0.49937260511E+03  0.49937260511E+03  0.00000000000E+00 0. -1.
          6    1    1    2  501    0 -0.76958687369E+02  0.93307604765E+02 -0.32213524685E+03  0.38513512685E+03  0.17300000000E+03 0. -1.
         -6    1    1    2    0  503  0.76958687369E+02 -0.93307604765E+02 -0.69302091633E+02  0.22217274489E+03  0.17300000000E+03 0. -1.
<mgrwt>
<rscale>  2 0.21108754E+03</rscale>
<asrwt>0</asrwt>
<pdfrwt beam="1">  1       21 0.16605426E-01 0.21108754E+03</pdfrwt>
<pdfrwt beam="2">  1       21 0.76826555E-01 0.21108754E+03</pdfrwt>
<totfact> 0.48627588E+04</totfact>
</mgrwt>
</event>
<event>
 4    2  0.4039581E+000  0.2949545E+03  0.7546771E-02  0.1087790E+00
         21   -1    0    0  503  502  0.00000000000E+00  0.00000000000E+00  0.90110178561E+03  0.90110178561E+03  0.00000000000E+00 0.  1.
         21   -1    0    0  501  503 -0.00000000000E+00 -0.00000000000E+00 -0.10380005771E+03  0.10380005771E+03  0.00000000000E+00 0. -1.
          6    1    1    2  501    0  0.18752223744E+02 -0.23815433445E+03  0.53147389784E+03  0.60783438287E+03  0.17300000000E+03 0.  1.
         -6    1    1    2    0  502 -0.18752223744E+02  0.23815433445E+03  0.26582783006E+03  0.39706746044E+03  0.17300000000E+03 0. -1.
<mgrwt>
<rscale>  2 0.29495446E+03</rscale>
<asrwt>0</asrwt>
<pdfrwt beam="1">  1       21 0.13863104E+00 0.29495446E+03</pdfrwt>
<pdfrwt beam="2">  1       21 0.15969240E-01 0.29495446E+03</pdfrwt>
<totfact> 0.12086114E+04</totfact>
</mgrwt>
</event>
<event>
 4    2  0.4039581E+000  0.1861372E+03  0.7546771E-02  0.1161992E+00
         21   -1    0    0  501  502  0.00000000000E+00  0.00000000000E+00  0.15669423021E+04  0.15669423021E+04  0.00000000000E+00 0. -1.
         21   -1    0    0  502  503 -0.00000000000E+00 -0.00000000000E+00 -0.28537621485E+02  0.28537621485E+02  0.00000000000E+00 0. -1.
          6    1    1    2  501    0 -0.16044389440E+02 -0.66788067935E+02  0.11477626176E+04  0.11627579692E+04  0.17300000000E+03 0. -1.
         -6    1    1    2    0  503  0.16044389440E+02  0.66788067935E+02  0.39064206293E+03  0.43272195435E+03  0.17300000000E+03 0. -1.
<mgrwt>
<rscale>  2 0.18613723E+03</rscale>
<asrwt>0</asrwt>
<pdfrwt beam="1">  1       21 0.24106798E+00 0.18613723E+03</pdfrwt>
<pdfrwt beam="2">  1       21 0.43904045E-02 0.18613723E+03</pdfrwt>
<totfact> 0.25296303E+04</totfact>
</mgrwt>
</event>
<event>
 4    2  0.4039581E+000  0.2745958E+03  0.7546771E-02  0.1098678E+00
         21   -1    0    0  501  502  0.00000000000E+00  0.00000000000E+00  0.17715966822E+04  0.17715966822E+04  0.00000000000E+00 0. -1.
         21   -1    0    0  502  503 -0.00000000000E+00 -0.00000000000E+00 -0.64775824011E+02  0.64775824011E+02  0.00000000000E+00 0. -1.
          6    1    1    2  501    0 -0.78796887183E+02 -0.19815373094E+03  0.13911043605E+04  0.14179471755E+04  0.17300000000E+03 0. -1.
         -6    1    1    2    0  503  0.78796887183E+02  0.19815373094E+03  0.31571649763E+03  0.41842533073E+03  0.17300000000E+03 0. -1.
<mgrwt>
<rscale>  2 0.27459579E+03</rscale>
<asrwt>0</asrwt>
<pdfrwt beam="1">  1       21 0.27255330E+00 0.27459579E+03</pdfrwt>
<pdfrwt beam="2">  1       21 0.99655127E-02 0.27459579E+03</pdfrwt>
<totfact> 0.37118525E+03</totfact>
</mgrwt>
</event>
<event>
 4    2  0.4039581E+000  0.1919096E+03  0.7546771E-02  0.1156750E+00
         21   -1    0    0  501  502  0.00000000000E+00  0.00000000000E+00  0.43465240056E+02  0.43465240056E+02  0.00000000000E+00 0.  1.
         21   -1    0    0  502  503 -0.00000000000E+00 -0.00000000000E+00 -0.13258544859E+04  0.13258544859E+04  0.00000000000E+00 0.  1.
          6    1    1    2  501    0  0.59108803800E+02 -0.58364695278E+02 -0.22987426462E+03  0.29945194252E+03  0.17300000000E+03 0.  1.
         -6    1    1    2    0  503 -0.59108803800E+02  0.58364695278E+02 -0.10525149812E+04  0.10698677834E+04  0.17300000000E+03 0.  1.
<mgrwt>
<rscale>  2 0.19190958E+03</rscale>
<asrwt>0</asrwt>
<pdfrwt beam="1">  1       21 0.66869603E-02 0.19190958E+03</pdfrwt>
<pdfrwt beam="2">  1       21 0.20397760E+00 0.19190958E+03</pdfrwt>
<totfact> 0.20741824E+04</totfact>
</mgrwt>
</event>
<event>
 4    2  0.4039581E+000  0.1806563E+03  0.7546771E-02  0.1167169E+00
         21   -1    0    0  503  502  0.00000000000E+00  0.00000000000E+00  0.13244054044E+03  0.13244054044E+03  0.00000000000E+00 0.  1.
         21   -1    0    0  501  503 -0.00000000000E+00 -0.00000000000E+00 -0.24898484839E+03  0.24898484839E+03  0.00000000000E+00 0.  1.
          6    1    1    2  501    0 -0.48646698485E+02  0.18471488096E+02 -0.77608596918E+02  0.19662093343E+03  0.17300000000E+03 0.  1.
         -6    1    1    2    0  502  0.48646698485E+02 -0.18471488096E+02 -0.38935711034E+02  0.18480445541E+03  0.17300000000E+03 0.  1.
<mgrwt>
<rscale>  2 0.18065630E+03</rscale>
<asrwt>0</asrwt>
<pdfrwt beam="1">  1       21 0.20375468E-01 0.18065630E+03</pdfrwt>
<pdfrwt beam="2">  1       21 0.38305361E-01 0.18065630E+03</pdfrwt>
<totfact> 0.14709282E+05</totfact>
</mgrwt>
</event>
<event>
 4    2  0.4039581E+000  0.1982045E+03  0.7546771E-02  0.1151263E+00
         21   -1    0    0  501  502  0.00000000000E+00  0.00000000000E+00  0.13349952651E+04  0.13349952651E+04  0.00000000000E+00 0.  1.
         21   -1    0    0  502  503 -0.00000000000E+00 -0.00000000000E+00 -0.30978879364E+02  0.30978879364E+02  0.00000000000E+00 0.  1.
          6    1    1    2  501    0 -0.73393925845E+02  0.63002957015E+02  0.80486839571E+03  0.82891385279E+03  0.17300000000E+03 0.  1.
         -6    1    1    2    0  503  0.73393925845E+02 -0.63002957015E+02  0.49914799008E+03  0.53706029172E+03  0.17300000000E+03 0.  1.
<mgrwt>
<rscale>  2 0.19820454E+03</rscale>
<asrwt>0</asrwt>
<pdfrwt beam="1">  1       21 0.20538384E+00 0.19820454E+03</pdfrwt>
<pdfrwt beam="2">  1       21 0.47659825E-02 0.19820454E+03</pdfrwt>
<totfact> 0.36053735E+04</totfact>
</mgrwt>
</event>
<event>
 4    2  0.4039581E+000  0.2032773E+03  0.7546771E-02  0.1147003E+00
         21   -1    0    0  503  502  0.00000000000E+00  0.00000000000E+00  0.19147615553E+02  0.19147615553E+02  0.00000000000E+00 0. -1.
         21   -1    0    0  501  503 -0.00000000000E+00 -0.00000000000E+00 -0.21580629489E+04  0.21580629489E+04  0.00000000000E+00 0. -1.
          6    1    1    2  501    0  0.54948341937E+02  0.91506042073E+02 -0.10679086442E+04  0.10870835057E+04  0.17300000000E+03 0.  1.
         -6    1    1    2    0  502 -0.54948341937E+02 -0.91506042073E+02 -0.10710066892E+04  0.10901270588E+04  0.17300000000E+03 0.  1.
<mgrwt>
<rscale>  2 0.20327734E+03</rscale>
<asrwt>0</asrwt>
<pdfrwt beam="1">  1       21 0.29457861E-02 0.20327734E+03</pdfrwt>
<pdfrwt beam="2">  1       21 0.33200979E+00 0.20327734E+03</pdfrwt>
<totfact> 0.14370343E+04</totfact>
</mgrwt>
</event>
<event>
 4    2  0.4039581E+000  0.2273277E+03  0.7546771E-02  0.1128535E+00
         21   -1    0    0  501  502  0.00000000000E+00  0.00000000000E+00  0.64651997570E+03  0.64651997570E+03  0.00000000000E+00 0. -1.
         21   -1    0    0  502  503 -0.00000000000E+00 -0.00000000000E+00 -0.10692532305E+03  0.10692532305E+03  0.00000000000E+00 0. -1.
          6    1    1    2  501    0  0.43934355697E+01  0.14740950952E+03  0.45907820662E+03  0.51227987035E+03  0.17300000000E+03 0. -1.
         -6    1    1    2    0  503 -0.43934355697E+01 -0.14740950952E+03  0.80516446022E+02  0.24116542840E+03  0.17300000000E+03 0. -1.
<mgrwt>
<rscale>  2 0.22732766E+03</rscale>
<asrwt>0</asrwt>
<pdfrwt beam="1">  1       21 0.99464610E-01 0.22732766E+03</pdfrwt>
<pdfrwt beam="2">  1       21 0.16450050E-01 0.22732766E+03</pdfrwt>
<totfact> 0.27025670E+04</totfact>
</mgrwt>
</event>
<event>
 4    2  0.4039581E+000  0.2003046E+03  0.7546771E-02  0.1149482E+00
         21   -1    0    0  501  502  0.00000000000E+00  0.00000000000E+00  0.10948533093E+04  0.10948533093E+04  0.00000000000E+00 0.  1.
         21   -1    0    0  502  503 -0.00000000000E+00 -0.00000000000E+00 -0.15508827676E+03  0.15508827676E+03  0.00000000000E+00 0.  1.
          6    1    1    2  501    0  0.71823245099E+02 -0.70953291199E+02  0.10160472924E+04  0.10356032292E+04  0.17300000000E+03 0.  1.
         -6    1    1    2    0  503 -0.71823245099E+02  0.70953291199E+02 -0.76282259782E+02  0.21433835687E+03  0.17300000000E+03 0.  1.
<mgrwt>
<rscale>  2 0.20030464E+03</rscale>
<asrwt>0</asrwt>
<pdfrwt beam="1">  1       21 0.16843897E+00 0.20030464E+03</pdfrwt>
<pdfrwt beam="2">  1       21 0.23859736E-01 0.20030464E+03</pdfrwt>
<totfact> 0.35981480E+03</totfact>
</mgrwt>
</event>
<event>
 4    2  0.4039581E+000  0.1994213E+03  0.7546771E-02  0.1150228E+00
         21   -1    0    0  501  502  0.00000000000E+00  0.00000000000E+00  0.47065085569E+02  0.47065085569E+02  0.00000000000E+00 0.  1.
         21   -1    0    0  502  503 -0.00000000000E+00 -0.00000000000E+00 -0.14816866436E+04  0.14816866436E+04  0.00000000000E+00 0.  1.
          6    1    1    2  501    0  0.98500785592E+02  0.11723673798E+02 -0.21623896792E+03  0.29415665985E+03  0.17300000000E+03 0.  1.
         -6    1    1    2    0  503 -0.98500785592E+02 -0.11723673798E+02 -0.12183825901E+04  0.12345950693E+04  0.17300000000E+03 0.  1.
<mgrwt>
<rscale>  2 0.19942129E+03</rscale>
<asrwt>0</asrwt>
<pdfrwt beam="1">  1       21 0.72407836E-02 0.19942129E+03</pdfrwt>
<pdfrwt beam="2">  1       21 0.22795175E+00 0.19942129E+03</pdfrwt>
<totfact> 0.12762963E+04</totfact>
</mgrwt>
</event>
<event>
 4    2  0.4039581E+000  0.2644735E+03  0.7546771E-02  0.1104485E+00
         21   -1    0    0  501  502  0.00000000000E+00  0.00000000000E+00  0.45095449022E+03  0.45095449022E+03  0.00000000000E+00 0. -1.
         21   -1    0    0  502  503 -0.00000000000E+00 -0.00000000000E+00 -0.19475143166E+03  0.19475143166E+03  0.00000000000E+00 0. -1.
          6    1    1    2  501    0  0.49921854815E+02  0.19371376243E+03  0.27376657766E+03  0.38064990790E+03  0.17300000000E+03 0. -1.
         -6    1    1    2    0  503 -0.49921854815E+02 -0.19371376243E+03 -0.17563519101E+02  0.26505601398E+03  0.17300000000E+03 0. -1.
<mgrwt>
<rscale>  2 0.26447346E+03</rscale>
<asrwt>0</asrwt>
<pdfrwt beam="1">  1       21 0.69377613E-01 0.26447346E+03</pdfrwt>
<pdfrwt beam="2">  1       21 0.29961759E-01 0.26447346E+03</pdfrwt>
<totfact> 0.19426124E+04</totfact>
</mgrwt>
</event>
<event>
 4    2  0.4039581E+000  0.2211826E+03  0.7546771E-02  0.1133004E+00
         21   -1    0    0  503  502  0.00000000000E+00  0.00000000000E+00  0.72724064665E+02  0.72724064665E+02  0.00000000000E+00 0. -1.
         21   -1    0    0  501  503 -0.00000000000E+00 -0.00000000000E+00 -0.91136195377E+03  0.91136195377E+03  0.00000000000E+00 0. -1.
          6    1    1    2  501    0 -0.18261912482E+02  0.13659883028E+03 -0.67111328649E+03  0.70662209220E+03  0.17300000000E+03 0. -1.
         -6    1    1    2    0  502  0.18261912482E+02 -0.13659883028E+03 -0.16752460262E+03  0.27746392624E+03  0.17300000000E+03 0. -1.
<mgrwt>
<rscale>  2 0.22118259E+03</rscale>
<asrwt>0</asrwt>
<pdfrwt beam="1">  1       21 0.11188318E-01 0.22118259E+03</pdfrwt>
<pdfrwt beam="2">  1       21 0.14020952E+00 0.22118259E+03</pdfrwt>
<totfact> 0.23285020E+04</totfact>
</mgrwt>
</event>
<event>
 4    2  0.4039581E+000  0.2005082E+03  0.7546771E-02  0.1149311E+00
         21   -1    0    0  503  502  0.00000000000E+00  0.00000000000E+00  0.90851494487E+02  0.90851494487E+02  0.00000000000E+00 0.  1.
         21   -1    0    0  501  503 -0.00000000000E+00 -0.00000000000E+00 -0.44477084079E+03  0.44477084079E+03  0.00000000000E+00 0.  1.
          6    1    1    2  501    0 -0.10133142576E+03 -0.25486811557E+01 -0.15790569309E+03  0.25522100527E+03  0.17300000000E+03 0.  1.
         -6    1    1    2    0  502  0.10133142576E+03  0.25486811557E+01 -0.19601365321E+03  0.28040133000E+03  0.17300000000E+03 0.  1.
<mgrwt>
<rscale>  2 0.20050824E+03</rscale>
<asrwt>0</asrwt>
<pdfrwt beam="1">  1       21 0.13977153E-01 0.20050824E+03</pdfrwt>
<pdfrwt beam="2">  1       21 0.68426282E-01 0.20050824E+03</pdfrwt>
<totfact> 0.86579047E+04</totfact>
</mgrwt>
</event>
<event>
 4    2  0.4039581E+000  0.2343938E+03  0.7546771E-02  0.1123585E+00
         21   -1    0    0  501  502  0.00000000000E+00  0.00000000000E+00  0.42692041965E+03  0.42692041965E+03  0.00000000000E+00 0.  1.
         21   -1    0    0  502  503 -0.00000000000E+00 -0.00000000000E+00 -0.28490837709E+03  0.28490837709E+03  0.00000000000E+00 0.  1.
          6    1    1    2  501    0 -0.87948980400E+02  0.13143977546E+03  0.33455349023E+03  0.40849293207E+03  0.17300000000E+03 0.  1.
         -6    1    1    2    0  503  0.87948980400E+02 -0.13143977546E+03 -0.19254144767E+03  0.30333586467E+03  0.17300000000E+03 0.  1.
<mgrwt>
<rscale>  2 0.23439377E+03</rscale>
<asrwt>0</asrwt>
<pdfrwt beam="1">  1       21 0.65680064E-01 0.23439377E+03</pdfrwt>
<pdfrwt beam="2">  1       21 0.43832058E-01 0.23439377E+03</pdfrwt>
<totfact> 0.10373439E+04</totfact>
</mgrwt>
</event>
<event>
 4    2  0.4039581E+000  0.2089622E+03  0.7546771E-02  0.1142390E+00
         21   -1    0    0  501  502  0.00000000000E+00  0.00000000000E+00  0.28488779238E+02  0.28488779238E+02  0.00000000000E+00 0.  1.
         21   -1    0    0  502  503 -0.00000000000E+00 -0.00000000000E+00 -0.16932271075E+04  0.16932271075E+04  0.00000000000E+00 0.  1.
          6    1    1    2  501    0 -0.24184438217E+02 -0.11467912194E+03 -0.56731943427E+03  0.60457962963E+03  0.17300000000E+03 0.  1.
         -6    1    1    2    0  503  0.24184438217E+02  0.11467912194E+03 -0.10974188940E+04  0.11171362571E+04  0.17300000000E+03 0.  1.
<mgrwt>
<rscale>  2 0.20896217E+03</rscale>
<asrwt>0</asrwt>
<pdfrwt beam="1">  1       21 0.43828898E-02 0.20896217E+03</pdfrwt>
<pdfrwt beam="2">  1       21 0.26049644E+00 0.20896217E+03</pdfrwt>
<totfact> 0.19121089E+04</totfact>
</mgrwt>
</event>
<event>
 4    2  0.4039581E+000  0.1821323E+03  0.7546771E-02  0.1165755E+00
         21   -1    0    0  503  502  0.00000000000E+00  0.00000000000E+00  0.12086494739E+03  0.12086494739E+03  0.00000000000E+00 0. -1.
         21   -1    0    0  501  503 -0.00000000000E+00 -0.00000000000E+00 -0.33946068202E+03  0.33946068202E+03  0.00000000000E+00 0. -1.
          6    1    1    2  501    0 -0.32815960025E+02  0.46543587423E+02 -0.21001664626E+03  0.27799133884E+03  0.17300000000E+03 0. -1.
         -6    1    1    2    0  502  0.32815960025E+02 -0.46543587423E+02 -0.85790883710E+01  0.18233429058E+03  0.17300000000E+03 0. -1.
<mgrwt>
<rscale>  2 0.18213235E+03</rscale>
<asrwt>0</asrwt>
<pdfrwt beam="1">  1       21 0.18594608E-01 0.18213235E+03</pdfrwt>
<pdfrwt beam="2">  1       21 0.52224720E-01 0.18213235E+03</pdfrwt>
<totfact> 0.92341496E+04</totfact>
</mgrwt>
</event>
<event>
 4    2  0.4039581E+000  0.1895694E+03  0.7546771E-02  0.1158850E+00
         21   -1    0    0  501  502  0.00000000000E+00  0.00000000000E+00  0.39354277703E+02  0.39354277703E+02  0.00000000000E+00 0. -1.
         21   -1    0    0  502  503 -0.00000000000E+00 -0.00000000000E+00 -0.12865205998E+04  0.12865205998E+04  0.00000000000E+00 0. -1.
          6    1    1    2  501    0  0.75541057514E+02 -0.17352252782E+02 -0.98071730651E+03  0.99887085618E+03  0.17300000000E+03 0. -1.
         -6    1    1    2    0  503 -0.75541057514E+02  0.17352252782E+02 -0.26644901555E+03  0.32700402128E+03  0.17300000000E+03 0. -1.
<mgrwt>
<rscale>  2 0.18956939E+03</rscale>
<asrwt>0</asrwt>
<pdfrwt beam="1">  1       21 0.60545043E-02 0.18956939E+03</pdfrwt>
<pdfrwt beam="2">  1       21 0.19792624E+00 0.18956939E+03</pdfrwt>
<totfact> 0.26941936E+04</totfact>
</mgrwt>
</event>
<event>
 4    2  0.4039581E+000  0.1826289E+03  0.7546771E-02  0.1165283E+00
         21   -1    0    0  503  502  0.00000000000E+00  0.00000000000E+00  0.57033848076E+03  0.57033848076E+03  0.00000000000E+00 0. -1.
         21   -1    0    0  501  503 -0.00000000000E+00 -0.00000000000E+00 -0.11993953442E+03  0.11993953442E+03  0.00000000000E+00 0. -1.
          6    1    1    2  501    0 -0.28227210493E+02  0.51259610868E+02 -0.21863657880E+02  0.18393298414E+03  0.17300000000E+03 0. -1.
         -6    1    1    2    0  502  0.28227210493E+02 -0.51259610868E+02  0.47226260422E+03  0.50634503105E+03  0.17300000000E+03 0. -1.
<mgrwt>
<rscale>  2 0.18262892E+03</rscale>
<asrwt>0</asrwt>
<pdfrwt beam="1">  1       21 0.87744380E-01 0.18262892E+03</pdfrwt>
<pdfrwt beam="2">  1       21 0.18452236E-01 0.18262892E+03</pdfrwt>
<totfact> 0.30038018E+04</totfact>
</mgrwt>
</event>
<event>
 4    2  0.4039581E+000  0.1768268E+03  0.7546771E-02  0.1170910E+00
         21   -1    0    0  503  502  0.00000000000E+00  0.00000000000E+00  0.20892040375E+03  0.20892040375E+03  0.00000000000E+00 0.  1.
         21   -1    0    0  501  503 -0.00000000000E+00 -0.00000000000E+00 -0.23075292350E+03  0.23075292350E+03  0.00000000000E+00 0.  1.
          6    1    1    2  501    0  0.36586675341E+02  0.37831275798E+00 -0.14123564462E+03  0.22630783293E+03  0.17300000000E+03 0.  1.
         -6    1    1    2    0  502 -0.36586675341E+02 -0.37831275798E+00  0.11940312487E+03  0.21336549431E+03  0.17300000000E+03 0.  1.
<mgrwt>
<rscale>  2 0.17682683E+03</rscale>
<asrwt>0</asrwt>
<pdfrwt beam="1">  1       21 0.32141601E-01 0.17682683E+03</pdfrwt>
<pdfrwt beam="2">  1       21 0.35500450E-01 0.17682683E+03</pdfrwt>
<totfact> 0.71714155E+04</totfact>
</mgrwt>
</event>
<event>
 4    2  0.4039581E+000  0.2401849E+03  0.7546771E-02  0.1119670E+00
         21   -1    0    0  503  502  0.00000000000E+00  0.00000000000E+00  0.63700979894E+03  0.63700979894E+03  0.00000000000E+00 0.  1.
         21   -1    0    0  501  503 -0.00000000000E+00 -0.00000000000E+00 -0.18420544202E+03  0.18420544202E+03  0.00000000000E+00 0.  1.
          6    1    1    2  501    0  0.14540870360E+03 -0.81339459273E+02  0.51916421679E+03  0.57203171478E+03  0.17300000000E+03 0.  1.
         -6    1    1    2    0  502 -0.14540870360E+03  0.81339459273E+02 -0.66359859873E+02  0.24918352618E+03  0.17300000000E+03 0.  1.
<mgrwt>
<rscale>  2 0.24018493E+03</rscale>
<asrwt>0</asrwt>
<pdfrwt beam="1">  1       21 0.98001507E-01 0.24018493E+03</pdfrwt>
<pdfrwt beam="2">  1       21 0.28339299E-01 0.24018493E+03</pdfrwt>
<totfact> 0.99364646E+03</totfact>
</mgrwt>
</event>
<event>
 4    2  0.4039581E+000  0.3921844E+03  0.7546771E-02  0.1046520E+00
         21   -1    0    0  503  502  0.00000000000E+00  0.00000000000E+00  0.45421449509E+03  0.45421449509E+03  0.00000000000E+00 0.  1.
         21   -1    0    0  501  503 -0.00000000000E+00 -0.00000000000E+00 -0.85413054082E+03  0.85413054082E+03  0.00000000000E+00 0. -1.
          6    1    1    2  501    0 -0.24194424202E+03  0.25562193519E+03 -0.70817204905E+03  0.80951605361E+03  0.17300000000E+03 0. -1.
         -6    1    1    2    0  502  0.24194424202E+03 -0.25562193519E+03  0.30825600333E+03  0.49882898230E+03  0.17300000000E+03 0.  1.
<mgrwt>
<rscale>  2 0.39218438E+03</rscale>
<asrwt>0</asrwt>
<pdfrwt beam="1">  1       21 0.69879154E-01 0.39218438E+03</pdfrwt>
<pdfrwt beam="2">  1       21 0.13140470E+00 0.39218438E+03</pdfrwt>
<totfact> 0.67568661E+02</totfact>
</mgrwt>
</event>
<event>
 4    2  0.4039581E+000  0.2316023E+03  0.7546771E-02  0.1125517E+00
         21   -1    0    0  501  502  0.00000000000E+00  0.00000000000E+00  0.94359649622E+03  0.94359649622E+03  0.00000000000E+00 0. -1.
         21   -1    0    0  502  503 -0.00000000000E+00 -0.00000000000E+00 -0.57174310392E+02  0.57174310392E+02  0.00000000000E+00 0.  1.
          6    1    1    2  501    0  0.13040700318E+03  0.81881882643E+02  0.40528949762E+03  0.46679675027E+03  0.17300000000E+03 0. -1.
         -6    1    1    2    0  503 -0.13040700318E+03 -0.81881882643E+02  0.48113268821E+03  0.53397405635E+03  0.17300000000E+03 0.  1.
<mgrwt>
<rscale>  2 0.23160231E+03</rscale>
<asrwt>0</asrwt>
<pdfrwt beam="1">  1       21 0.14516868E+00 0.23160231E+03</pdfrwt>
<pdfrwt beam="2">  1       21 0.87960484E-02 0.23160231E+03</pdfrwt>
<totfact> 0.32377440E+04</totfact>
</mgrwt>
</event>
<event>
 4    2  0.4039581E+000  0.2249901E+03  0.7546771E-02  0.1130216E+00
         21   -1    0    0  501  502  0.00000000000E+00  0.00000000000E+00  0.71228586849E+03  0.71228586849E+03  0.00000000000E+00 0. -1.
         21   -1    0    0  502  503 -0.00000000000E+00 -0.00000000000E+00 -0.76322793082E+02  0.76322793082E+02  0.00000000000E+00 0.  1.
          6    1    1    2  501    0  0.11796286578E+03 -0.82318381420E+02  0.42144632840E+03  0.47774214943E+03  0.17300000000E+03 0. -1.
         -6    1    1    2    0  503 -0.11796286578E+03  0.82318381420E+02  0.21451674700E+03  0.31086651213E+03  0.17300000000E+03 0. -1.
<mgrwt>
<rscale>  2 0.22499012E+03</rscale>
<asrwt>0</asrwt>
<pdfrwt beam="1">  1       21 0.10958244E+00 0.22499012E+03</pdfrwt>
<pdfrwt beam="2">  1       21 0.11741969E-01 0.22499012E+03</pdfrwt>
<totfact> 0.39532150E+04</totfact>
</mgrwt>
</event>
<event>
 4    2  0.4039581E+000  0.2236601E+03  0.7546771E-02  0.1131183E+00
         21   -1    0    0  501  502  0.00000000000E+00  0.00000000000E+00  0.29497910961E+02  0.29497910961E+02  0.00000000000E+00 0. -1.
         21   -1    0    0  502  503 -0.00000000000E+00 -0.00000000000E+00 -0.16968593066E+04  0.16968593066E+04  0.00000000000E+00 0.  1.
          6    1    1    2  501    0 -0.91593266805E+02 -0.10819201004E+03 -0.85480123944E+03  0.88357738569E+03  0.17300000000E+03 0.  1.
         -6    1    1    2    0  503  0.91593266805E+02  0.10819201004E+03 -0.81256015619E+03  0.84277983185E+03  0.17300000000E+03 0. -1.
<mgrwt>
<rscale>  2 0.22366009E+03</rscale>
<asrwt>0</asrwt>
<pdfrwt beam="1">  1       21 0.45381366E-02 0.22366009E+03</pdfrwt>
<pdfrwt beam="2">  1       21 0.26105548E+00 0.22366009E+03</pdfrwt>
<totfact> 0.17673621E+04</totfact>
</mgrwt>
</event>
<event>
 4    2  0.4039581E+000  0.2285160E+03  0.7546771E-02  0.1127689E+00
         21   -1    0    0  503  502  0.00000000000E+00  0.00000000000E+00  0.62608981542E+03  0.62608981542E+03  0.00000000000E+00 0.  1.
         21   -1    0    0  501  503 -0.00000000000E+00 -0.00000000000E+00 -0.89426309524E+02  0.89426309524E+02  0.00000000000E+00 0. -1.
          6    1    1    2  501    0  0.10293369505E+03  0.10814441820E+03  0.36115807902E+03  0.42738123357E+03  0.17300000000E+03 0.  1.
         -6    1    1    2    0  502 -0.10293369505E+03 -0.10814441820E+03  0.17550542687E+03  0.28813489137E+03  0.17300000000E+03 0. -1.
<mgrwt>
<rscale>  2 0.22851600E+03</rscale>
<asrwt>0</asrwt>
<pdfrwt beam="1">  1       21 0.96321507E-01 0.22851600E+03</pdfrwt>
<pdfrwt beam="2">  1       21 0.13757894E-01 0.22851600E+03</pdfrwt>
<totfact> 0.40408292E+04</totfact>
</mgrwt>
</event>
<event>
 4    2  0.4039581E+000  0.1857462E+03  0.7546771E-02  0.1162355E+00
         21   -1    0    0  501  502  0.00000000000E+00  0.00000000000E+00  0.66602892747E+03  0.66602892747E+03  0.00000000000E+00 0. -1.
         21   -1    0    0  502  503 -0.00000000000E+00 -0.00000000000E+00 -0.18630287289E+03  0.18630287289E+03  0.00000000000E+00 0.  1.
          6    1    1    2  501    0  0.60409299612E+02  0.30387161369E+02  0.60196541873E+03  0.62997145047E+03  0.17300000000E+03 0. -1.
         -6    1    1    2    0  503 -0.60409299612E+02 -0.30387161369E+02 -0.12223936415E+03  0.22236034989E+03  0.17300000000E+03 0.  1.
<mgrwt>
<rscale>  2 0.18574623E+03</rscale>
<asrwt>0</asrwt>
<pdfrwt beam="1">  1       21 0.10246599E+00 0.18574623E+03</pdfrwt>
<pdfrwt beam="2">  1       21 0.28661981E-01 0.18574623E+03</pdfrwt>
<totfact> 0.90653789E+03</totfact>
</mgrwt>
</event>
<event>
 4    2  0.4039581E+000  0.4409735E+03  0.7546771E-02  0.1030449E+00
         21   -1    0    0  501  502  0.00000000000E+00  0.00000000000E+00  0.10612267763E+03  0.10612267763E+03  0.00000000000E+00 0. -1.
         21   -1    0    0  502  503 -0.00000000000E+00 -0.00000000000E+00 -0.20142340694E+04  0.20142340694E+04  0.00000000000E+00 0.  1.
          6    1    1    2  501    0  0.40502423094E+03  0.21999324185E+02 -0.63550426012E+03  0.77351358265E+03  0.17300000000E+03 0. -1.
         -6    1    1    2    0  503 -0.40502423094E+03 -0.21999324185E+02 -0.12726071317E+04  0.13468431644E+04  0.17300000000E+03 0.  1.
<mgrwt>
<rscale>  2 0.44097347E+03</rscale>
<asrwt>0</asrwt>
<pdfrwt beam="1">  1       21 0.16326567E-01 0.44097347E+03</pdfrwt>
<pdfrwt beam="2">  1       21 0.30988214E+00 0.44097347E+03</pdfrwt>
<totfact> 0.81068655E+02</totfact>
</mgrwt>
</event>
<event>
 4    2  0.4039581E+000  0.2431619E+03  0.7546771E-02  0.1117704E+00
         21   -1    0    0  503  502  0.00000000000E+00  0.00000000000E+00  0.18911413309E+04  0.18911413309E+04  0.00000000000E+00 0. -1.
         21   -1    0    0  501  503 -0.00000000000E+00 -0.00000000000E+00 -0.43324263888E+02  0.43324263888E+02  0.00000000000E+00 0. -1.
          6    1    1    2  501    0  0.16784243938E+03 -0.32056575011E+02  0.14341956831E+04  0.14546631795E+04  0.17300000000E+03 0. -1.
         -6    1    1    2    0  502 -0.16784243938E+03  0.32056575011E+02  0.41362138393E+03  0.47980241527E+03  0.17300000000E+03 0. -1.
<mgrwt>
<rscale>  2 0.24316190E+03</rscale>
<asrwt>0</asrwt>
<pdfrwt beam="1">  1       21 0.29094476E+00 0.24316190E+03</pdfrwt>
<pdfrwt beam="2">  1       21 0.66652728E-02 0.24316190E+03</pdfrwt>
<totfact> 0.60225816E+03</totfact>
</mgrwt>
</event>
<event>
 4    2  0.4039581E+000  0.2920824E+03  0.7546771E-02  0.1089267E+00
         21   -1    0    0  501  502  0.00000000000E+00  0.00000000000E+00  0.26270023189E+03  0.26270023189E+03  0.00000000000E+00 0. -1.
         21   -1    0    0  502  503 -0.00000000000E+00 -0.00000000000E+00 -0.37759486153E+03  0.37759486153E+03  0.00000000000E+00 0.  1.
          6    1    1    2  501    0 -0.22960970671E+03 -0.51599481063E+02  0.62319093489E+02  0.29865664780E+03  0.17300000000E+03 0. -1.
         -6    1    1    2    0  503  0.22960970671E+03  0.51599481063E+02 -0.17721372312E+03  0.34163844562E+03  0.17300000000E+03 0.  1.
<mgrwt>
<rscale>  2 0.29208239E+03</rscale>
<asrwt>0</asrwt>
<pdfrwt beam="1">  1       21 0.40415420E-01 0.29208239E+03</pdfrwt>
<pdfrwt beam="2">  1       21 0.58091517E-01 0.29208239E+03</pdfrwt>
<totfact> 0.15546117E+04</totfact>
</mgrwt>
</event>
<event>
 4    2  0.4039581E+000  0.2048317E+03  0.7546771E-02  0.1145725E+00
         21   -1    0    0  501  502  0.00000000000E+00  0.00000000000E+00  0.63193982337E+02  0.63193982337E+02  0.00000000000E+00 0. -1.
         21   -1    0    0  502  503 -0.00000000000E+00 -0.00000000000E+00 -0.83715649226E+03  0.83715649226E+03  0.00000000000E+00 0.  1.
          6    1    1    2  501    0  0.96153901723E+02 -0.52739544422E+02 -0.18219898982E+03  0.27413957075E+03  0.17300000000E+03 0. -1.
         -6    1    1    2    0  503 -0.96153901723E+02  0.52739544422E+02 -0.59176352010E+03  0.62621090384E+03  0.17300000000E+03 0.  1.
<mgrwt>
<rscale>  2 0.20483172E+03</rscale>
<asrwt>0</asrwt>
<pdfrwt beam="1">  1       21 0.97221516E-02 0.20483172E+03</pdfrwt>
<pdfrwt beam="2">  1       21 0.12879330E+00 0.20483172E+03</pdfrwt>
<totfact> 0.37478043E+04</totfact>
</mgrwt>
</event>
<event>
 4    2  0.4039581E+000  0.1871697E+03  0.7546771E-02  0.1161039E+00
         21   -1    0    0  503  502  0.00000000000E+00  0.00000000000E+00  0.13169977461E+04  0.13169977461E+04  0.00000000000E+00 0.  1.
         21   -1    0    0  501  503 -0.00000000000E+00 -0.00000000000E+00 -0.10986028012E+03  0.10986028012E+03  0.00000000000E+00 0.  1.
          6    1    1    2  501    0  0.54491629410E+02 -0.46197078894E+02 -0.17512807434E+02  0.18798725010E+03  0.17300000000E+03 0.  1.
         -6    1    1    2    0  502 -0.54491629410E+02  0.46197078894E+02  0.12246502734E+04  0.12388707761E+04  0.17300000000E+03 0.  1.
<mgrwt>
<rscale>  2 0.18716973E+03</rscale>
<asrwt>0</asrwt>
<pdfrwt beam="1">  1       21 0.20261503E+00 0.18716973E+03</pdfrwt>
<pdfrwt beam="2">  1       21 0.16901582E-01 0.18716973E+03</pdfrwt>
<totfact> 0.40954796E+03</totfact>
</mgrwt>
</event>
<event>
 4    2  0.4039581E+000  0.2647319E+03  0.7546771E-02  0.1104333E+00
         21   -1    0    0  503  502  0.00000000000E+00  0.00000000000E+00  0.23534102776E+03  0.23534102776E+03  0.00000000000E+00 0.  1.
         21   -1    0    0  501  503 -0.00000000000E+00 -0.00000000000E+00 -0.29858170908E+03  0.29858170908E+03  0.00000000000E+00 0.  1.
          6    1    1    2  501    0 -0.16891456455E+03 -0.10780474136E+03 -0.17902692914E+02  0.26533657643E+03  0.17300000000E+03 0.  1.
         -6    1    1    2    0  502  0.16891456455E+03  0.10780474136E+03 -0.45337988405E+02  0.26858616042E+03  0.17300000000E+03 0.  1.
<mgrwt>
<rscale>  2 0.26473193E+03</rscale>
<asrwt>0</asrwt>
<pdfrwt beam="1">  1       21 0.36206312E-01 0.26473193E+03</pdfrwt>
<pdfrwt beam="2">  1       21 0.45935647E-01 0.26473193E+03</pdfrwt>
<totfact> 0.32285762E+04</totfact>
</mgrwt>
</event>
<event>
 4    2  0.4039581E+000  0.1875164E+03  0.7546771E-02  0.1160721E+00
         21   -1    0    0  503  502  0.00000000000E+00  0.00000000000E+00  0.23345555968E+03  0.23345555968E+03  0.00000000000E+00 0. -1.
         21   -1    0    0  501  503 -0.00000000000E+00 -0.00000000000E+00 -0.16927496604E+03  0.16927496604E+03  0.00000000000E+00 0. -1.
          6    1    1    2  501    0 -0.43666739935E+02 -0.57676844311E+02  0.98943006236E+02  0.21201915251E+03  0.17300000000E+03 0. -1.
         -6    1    1    2    0  502  0.43666739935E+02  0.57676844311E+02 -0.34762412592E+02  0.19071137322E+03  0.17300000000E+03 0. -1.
<mgrwt>
<rscale>  2 0.18751641E+03</rscale>
<asrwt>0</asrwt>
<pdfrwt beam="1">  1       21 0.35916240E-01 0.18751641E+03</pdfrwt>
<pdfrwt beam="2">  1       21 0.26042303E-01 0.18751641E+03</pdfrwt>
<totfact> 0.10491412E+05</totfact>
</mgrwt>
</event>
<event>
 4    2  0.4039581E+000  0.1869027E+03  0.7546771E-02  0.1161285E+00
         21   -1    0    0  501  502  0.00000000000E+00  0.00000000000E+00  0.43999848836E+03  0.43999848836E+03  0.00000000000E+00 0. -1.
         21   -1    0    0  502  503 -0.00000000000E+00 -0.00000000000E+00 -0.14259755480E+03  0.14259755480E+03  0.00000000000E+00 0. -1.
          6    1    1    2  501    0 -0.70488214010E+02  0.59179119525E+01  0.34263590130E+03  0.39029728523E+03  0.17300000000E+03 0. -1.
         -6    1    1    2    0  503  0.70488214010E+02 -0.59179119525E+01 -0.45234967745E+02  0.19229875793E+03  0.17300000000E+03 0. -1.
<mgrwt>
<rscale>  2 0.18690268E+03</rscale>
<asrwt>0</asrwt>
<pdfrwt beam="1">  1       21 0.67692074E-01 0.18690268E+03</pdfrwt>
<pdfrwt beam="2">  1       21 0.21938086E-01 0.18690268E+03</pdfrwt>
<totfact> 0.38820841E+04</totfact>
</mgrwt>
</event>
<event>
 4    2  0.4039581E+000  0.2089135E+03  0.7546771E-02  0.1142429E+00
         21   -1    0    0  501  502  0.00000000000E+00  0.00000000000E+00  0.12231558733E+03  0.12231558733E+03  0.00000000000E+00 0.  1.
         21   -1    0    0  502  503 -0.00000000000E+00 -0.00000000000E+00 -0.45603626179E+03  0.45603626179E+03  0.00000000000E+00 0.  1.
          6    1    1    2  501    0 -0.26361512545E+02 -0.11410917569E+03 -0.31979405932E+02  0.21134690848E+03  0.17300000000E+03 0.  1.
         -6    1    1    2    0  503  0.26361512545E+02  0.11410917569E+03 -0.30174126853E+03  0.36700494064E+03  0.17300000000E+03 0.  1.
<mgrwt>
<rscale>  2 0.20891346E+03</rscale>
<asrwt>0</asrwt>
<pdfrwt beam="1">  1       21 0.18817782E-01 0.20891346E+03</pdfrwt>
<pdfrwt beam="2">  1       21 0.70159426E-01 0.20891346E+03</pdfrwt>
<totfact> 0.47287180E+04</totfact>
</mgrwt>
</event>
<event>
 4    2  0.4039581E+000  0.2135164E+03  0.7546771E-02  0.1138811E+00
         21   -1    0    0  503  502  0.00000000000E+00  0.00000000000E+00  0.16821873191E+04  0.16821873191E+04  0.00000000000E+00 0. -1.
         21   -1    0    0  501  503 -0.00000000000E+00 -0.00000000000E+00 -0.19235459444E+03  0.19235459444E+03  0.00000000000E+00 0. -1.
          6    1    1    2  501    0  0.88823898804E+02 -0.88150729584E+02 -0.12382223687E+03  0.24682216770E+03  0.17300000000E+03 0. -1.
         -6    1    1    2    0  502 -0.88823898804E+02  0.88150729584E+02  0.16136549615E+04  0.16277197459E+04  0.17300000000E+03 0. -1.
<mgrwt>
<rscale>  2 0.21351636E+03</rscale>
<asrwt>0</asrwt>
<pdfrwt beam="1">  1       21 0.25879804E+00 0.21351636E+03</pdfrwt>
<pdfrwt beam="2">  1       21 0.29593016E-01 0.21351636E+03</pdfrwt>
<totfact> 0.62950504E+02</totfact>
</mgrwt>
</event>
<event>
 4    2  0.4039581E+000  0.1854732E+03  0.7546771E-02  0.1162609E+00
         21   -1    0    0  503  502  0.00000000000E+00  0.00000000000E+00  0.82270450418E+03  0.82270450418E+03  0.00000000000E+00 0. -1.
         21   -1    0    0  501  503 -0.00000000000E+00 -0.00000000000E+00 -0.45196094369E+02  0.45196094369E+02  0.00000000000E+00 0.  1.
          6    1    1    2  501    0 -0.32651643540E+02 -0.58353941715E+02  0.27004013198E+03  0.32760034374E+03  0.17300000000E+03 0.  1.
         -6    1    1    2    0  502  0.32651643540E+02  0.58353941715E+02  0.50746827783E+03  0.54030025481E+03  0.17300000000E+03 0. -1.
<mgrwt>
<rscale>  2 0.18547321E+03</rscale>
<asrwt>0</asrwt>
<pdfrwt beam="1">  1       21 0.12656991E+00 0.18547321E+03</pdfrwt>
<pdfrwt beam="2">  1       21 0.69532459E-02 0.18547321E+03</pdfrwt>
<totfact> 0.70994428E+04</totfact>
</mgrwt>
</event>
<event>
 4    2  0.4039581E+000  0.2463666E+03  0.7546771E-02  0.1115623E+00
         21   -1    0    0  503  502  0.00000000000E+00  0.00000000000E+00  0.49909227989E+02  0.49909227989E+02  0.00000000000E+00 0. -1.
         21   -1    0    0  501  503 -0.00000000000E+00 -0.00000000000E+00 -0.13808675560E+04  0.13808675560E+04  0.00000000000E+00 0.  1.
          6    1    1    2  501    0  0.17127252240E+03  0.37858225387E+02 -0.91256695378E+03  0.94523804795E+03  0.17300000000E+03 0.  1.
         -6    1    1    2    0  502 -0.17127252240E+03 -0.37858225387E+02 -0.41839137420E+03  0.48553873600E+03  0.17300000000E+03 0. -1.
<mgrwt>
<rscale>  2 0.24636664E+03</rscale>
<asrwt>0</asrwt>
<pdfrwt beam="1">  1       21 0.76783430E-02 0.24636664E+03</pdfrwt>
<pdfrwt beam="2">  1       21 0.21244116E+00 0.24636664E+03</pdfrwt>
<totfact> 0.13867410E+04</totfact>
</mgrwt>
</event>
<event>
 4    2  0.4039581E+000  0.2542264E+03  0.7546771E-02  0.1110663E+00
         21   -1    0    0  503  502  0.00000000000E+00  0.00000000000E+00  0.39541280717E+03  0.39541280717E+03  0.00000000000E+00 0. -1.
         21   -1    0    0  501  503 -0.00000000000E+00 -0.00000000000E+00 -0.20013529548E+03  0.20013529548E+03  0.00000000000E+00 0.  1.
          6    1    1    2  501    0  0.26380373921E+02 -0.18440749705E+03 -0.29846117049E+02  0.25597234186E+03  0.17300000000E+03 0.  1.
         -6    1    1    2    0  502 -0.26380373921E+02  0.18440749705E+03  0.22512362874E+03  0.33957576079E+03  0.17300000000E+03 0. -1.
<mgrwt>
<rscale>  2 0.25422637E+03</rscale>
<asrwt>0</asrwt>
<pdfrwt beam="1">  1       21 0.60832739E-01 0.25422637E+03</pdfrwt>
<pdfrwt beam="2">  1       21 0.30790046E-01 0.25422637E+03</pdfrwt>
<totfact> 0.24678915E+04</totfact>
</mgrwt>
</event>
<event>
 4    2  0.4039581E+000  0.1875912E+03  0.7546771E-02  0.1160652E+00
         21   -1    0    0  503  502  0.00000000000E+00  0.00000000000E+00  0.22132163089E+03  0.22132163089E+03  0.00000000000E+00 0.  1.
         21   -1    0    0  501  503 -0.00000000000E+00 -0.00000000000E+00 -0.16335096228E+03  0.16335096228E+03  0.00000000000E+00 0.  1.
          6    1    1    2  501    0  0.23792921325E+02  0.68522534258E+02 -0.23998773913E+01  0.18760650367E+03  0.17300000000E+03 0.  1.
         -6    1    1    2    0  502 -0.23792921325E+02 -0.68522534258E+02  0.60370546004E+02  0.19706608950E+03  0.17300000000E+03 0.  1.
<mgrwt>
<rscale>  2 0.18759115E+03</rscale>
<asrwt>0</asrwt>
<pdfrwt beam="1">  1       21 0.34049482E-01 0.18759115E+03</pdfrwt>
<pdfrwt beam="2">  1       21 0.25130917E-01 0.18759115E+03</pdfrwt>
<totfact> 0.12484875E+05</totfact>
</mgrwt>
</event>
<event>
 4    2  0.4039581E+000  0.1852609E+03  0.7546771E-02  0.1162806E+00
         21   -1    0    0  501  502  0.00000000000E+00  0.00000000000E+00  0.20207978278E+03  0.20207978278E+03  0.00000000000E+00 0. -1.
         21   -1    0    0  502  503 -0.00000000000E+00 -0.00000000000E+00 -0.18437568846E+03  0.18437568846E+03  0.00000000000E+00 0.  1.
          6    1    1    2  501    0 -0.47885528501E+02  0.45821259206E+02  0.63102984778E+02  0.19571305098E+03  0.17300000000E+03 0. -1.
         -6    1    1    2    0  503  0.47885528501E+02 -0.45821259206E+02 -0.45398890453E+02  0.19074242027E+03  0.17300000000E+03 0.  1.
<mgrwt>
<rscale>  2 0.18526093E+03</rscale>
<asrwt>0</asrwt>
<pdfrwt beam="1">  1       21 0.31089197E-01 0.18526093E+03</pdfrwt>
<pdfrwt beam="2">  1       21 0.28365490E-01 0.18526093E+03</pdfrwt>
<totfact> 0.11840053E+05</totfact>
</mgrwt>
</event>
<event>
 4    2  0.4039581E+000  0.4036336E+03  0.7546771E-02  0.1042529E+00
         21   -1    0    0  501  502  0.00000000000E+00  0.00000000000E+00  0.92494443943E+03  0.92494443943E+03  0.00000000000E+00 0.  1.
         21   -1    0    0  502  503 -0.00000000000E+00 -0.00000000000E+00 -0.18919776239E+03  0.18919776239E+03  0.00000000000E+00 0. -1.
          6    1    1    2  501    0 -0.31405486714E+03  0.18536620861E+03  0.51421912682E+03  0.65371354679E+03  0.17300000000E+03 0.  1.
         -6    1    1    2    0  503  0.31405486714E+03 -0.18536620861E+03  0.22152755023E+03  0.46042865504E+03  0.17300000000E+03 0. -1.
<mgrwt>
<rscale>  2 0.40363361E+03</rscale>
<asrwt>0</asrwt>
<pdfrwt beam="1">  1       21 0.14229914E+00 0.40363361E+03</pdfrwt>
<pdfrwt beam="2">  1       21 0.29107349E-01 0.40363361E+03</pdfrwt>
<totfact> 0.34184262E+03</totfact>
</mgrwt>
</event>
<event>
 4    2  0.4039581E+000  0.5218178E+03  0.7546771E-02  0.1008236E+00
         21   -1    0    0  503  502  0.00000000000E+00  0.00000000000E+00  0.18787301921E+03  0.18787301921E+03  0.00000000000E+00 0.  1.
         21   -1    0    0  501  503 -0.00000000000E+00 -0.00000000000E+00 -0.14510187741E+04  0.14510187741E+04  0.00000000000E+00 0. -1.
          6    1    1    2  501    0  0.48391658009E+03 -0.90496459296E+02 -0.65935782857E+03  0.84086063752E+03  0.17300000000E+03 0. -1.
         -6    1    1    2    0  502 -0.48391658009E+03  0.90496459296E+02 -0.60378792629E+03  0.79803115576E+03  0.17300000000E+03 0.  1.
<mgrwt>
<rscale>  2 0.52181785E+03</rscale>
<asrwt>0</asrwt>
<pdfrwt beam="1">  1       21 0.28903542E-01 0.52181785E+03</pdfrwt>
<pdfrwt beam="2">  1       21 0.22323365E+00 0.52181785E+03</pdfrwt>
<totfact> 0.88226080E+02</totfact>
</mgrwt>
</event>
<event>
 4    2  0.4039581E+000  0.2387121E+03  0.7546771E-02  0.1120654E+00
         21   -1    0    0  501  502  0.00000000000E+00  0.00000000000E+00  0.16121861663E+03  0.16121861663E+03  0.00000000000E+00 0.  1.
         21   -1    0    0  502  503 -0.00000000000E+00 -0.00000000000E+00 -0.51507237524E+03  0.51507237524E+03  0.00000000000E+00 0.  1.
          6    1    1    2  501    0  0.15208918958E+02  0.16377770808E+03  0.12488023958E+02  0.23903848983E+03  0.17300000000E+03 0.  1.
         -6    1    1    2    0  503 -0.15208918958E+02 -0.16377770808E+03 -0.36634178257E+03  0.43725250203E+03  0.17300000000E+03 0.  1.
<mgrwt>
<rscale>  2 0.23871206E+03</rscale>
<asrwt>0</asrwt>
<pdfrwt beam="1">  1       21 0.24802864E-01 0.23871206E+03</pdfrwt>
<pdfrwt beam="2">  1       21 0.79241905E-01 0.23871206E+03</pdfrwt>
<totfact> 0.21057899E+04</totfact>
</mgrwt>
</event>
<event>
 4    2  0.4039581E+000  0.2636089E+03  0.7546771E-02  0.1104994E+00
         21   -1    0    0  501  502  0.00000000000E+00  0.00000000000E+00  0.21881945818E+03  0.21881945818E+03  0.00000000000E+00 0. -1.
         21   -1    0    0  502  503 -0.00000000000E+00 -0.00000000000E+00 -0.32221260581E+03  0.32221260581E+03  0.00000000000E+00 0. -1.
          6    1    1    2  501    0  0.32192186238E+01  0.19887249339E+03 -0.84181890895E+02  0.27672409138E+03  0.17300000000E+03 0. -1.
         -6    1    1    2    0  503 -0.32192186238E+01 -0.19887249339E+03 -0.19211256736E+02  0.26430797261E+03  0.17300000000E+03 0. -1.
<mgrwt>
<rscale>  2 0.26360886E+03</rscale>
<asrwt>0</asrwt>
<pdfrwt beam="1">  1       21 0.33664532E-01 0.26360886E+03</pdfrwt>
<pdfrwt beam="2">  1       21 0.49571170E-01 0.26360886E+03</pdfrwt>
<totfact> 0.31869552E+04</totfact>
</mgrwt>
</event>
<event>
 4    2  0.4039581E+000  0.1820565E+03  0.7546771E-02  0.1165827E+00
         21   -1    0    0  501  502  0.00000000000E+00  0.00000000000E+00  0.29372311405E+02  0.29372311405E+02  0.00000000000E+00 0. -1.
         21   -1    0    0  502  503 -0.00000000000E+00 -0.00000000000E+00 -0.15613229971E+04  0.15613229971E+04  0.00000000000E+00 0. -1.
          6    1    1    2  501    0 -0.34614625907E+02 -0.44915619692E+02 -0.34718070377E+03  0.39201916571E+03  0.17300000000E+03 0. -1.
         -6    1    1    2    0  503  0.34614625907E+02  0.44915619692E+02 -0.11847699820E+04  0.11986761428E+04  0.17300000000E+03 0. -1.
<mgrwt>
<rscale>  2 0.18205654E+03</rscale>
<asrwt>0</asrwt>
<pdfrwt beam="1">  1       21 0.45188173E-02 0.18205654E+03</pdfrwt>
<pdfrwt beam="2">  1       21 0.24020353E+00 0.18205654E+03</pdfrwt>
<totfact> 0.24468145E+04</totfact>
</mgrwt>
</event>
<event>
 4    2  0.4039581E+000  0.2208018E+03  0.7546771E-02  0.1133287E+00
         21   -1    0    0  503  502  0.00000000000E+00  0.00000000000E+00  0.94491915376E+02  0.94491915376E+02  0.00000000000E+00 0. -1.
         21   -1    0    0  501  503 -0.00000000000E+00 -0.00000000000E+00 -0.52098689296E+03  0.52098689296E+03  0.00000000000E+00 0.  1.
          6    1    1    2  501    0  0.97012054515E+02 -0.97021153156E+02 -0.18299951531E+03  0.28677912317E+03  0.17300000000E+03 0. -1.
         -6    1    1    2    0  502 -0.97012054515E+02  0.97021153156E+02 -0.24349546227E+03  0.32869968516E+03  0.17300000000E+03 0. -1.
<mgrwt>
<rscale>  2 0.22080182E+03</rscale>
<asrwt>0</asrwt>
<pdfrwt beam="1">  1       21 0.14537218E-01 0.22080182E+03</pdfrwt>
<pdfrwt beam="2">  1       21 0.80151831E-01 0.22080182E+03</pdfrwt>
<totfact> 0.56122816E+04</totfact>
</mgrwt>
</event>
<event>
 4    2  0.4039581E+000  0.2059055E+03  0.7546771E-02  0.1144850E+00
         21   -1    0    0  501  502  0.00000000000E+00  0.00000000000E+00  0.31152659160E+03  0.31152659160E+03  0.00000000000E+00 0. -1.
         21   -1    0    0  502  503 -0.00000000000E+00 -0.00000000000E+00 -0.15803861642E+03  0.15803861642E+03  0.00000000000E+00 0.  1.
          6    1    1    2  501    0  0.10932192271E+03  0.22733413641E+02  0.16423072848E+03  0.26337961777E+03  0.17300000000E+03 0. -1.
         -6    1    1    2    0  503 -0.10932192271E+03 -0.22733413641E+02 -0.10742753291E+02  0.20618559025E+03  0.17300000000E+03 0. -1.
<mgrwt>
<rscale>  2 0.20590554E+03</rscale>
<asrwt>0</asrwt>
<pdfrwt beam="1">  1       21 0.47927168E-01 0.20590554E+03</pdfrwt>
<pdfrwt beam="2">  1       21 0.24313633E-01 0.20590554E+03</pdfrwt>
<totfact> 0.66062409E+04</totfact>
</mgrwt>
</event>
<event>
 4    2  0.4039581E+000  0.2264836E+03  0.7546771E-02  0.1129140E+00
         21   -1    0    0  503  502  0.00000000000E+00  0.00000000000E+00  0.12267947408E+04  0.12267947408E+04  0.00000000000E+00 0.  1.
         21   -1    0    0  501  503 -0.00000000000E+00 -0.00000000000E+00 -0.10353481950E+03  0.10353481950E+03  0.00000000000E+00 0.  1.
          6    1    1    2  501    0  0.84982192044E+02  0.11892793842E+03  0.48049298971E+02  0.23152443205E+03  0.17300000000E+03 0.  1.
         -6    1    1    2    0  502 -0.84982192044E+02 -0.11892793842E+03  0.10752106223E+04  0.10988051282E+04  0.17300000000E+03 0.  1.
<mgrwt>
<rscale>  2 0.22648361E+03</rscale>
<asrwt>0</asrwt>
<pdfrwt beam="1">  1       21 0.18873764E+00 0.22648361E+03</pdfrwt>
<pdfrwt beam="2">  1       21 0.15928435E-01 0.22648361E+03</pdfrwt>
<totfact> 0.54314378E+03</totfact>
</mgrwt>
</event>
<event>
 4    2  0.4039581E+000  0.1915255E+03  0.7546771E-02  0.1157093E+00
         21   -1    0    0  503  502  0.00000000000E+00  0.00000000000E+00  0.38709550006E+03  0.38709550006E+03  0.00000000000E+00 0.  1.
         21   -1    0    0  501  503 -0.00000000000E+00 -0.00000000000E+00 -0.24753887393E+03  0.24753887393E+03  0.00000000000E+00 0. -1.
          6    1    1    2  501    0  0.15319113443E+02 -0.80736314217E+02 -0.17950912353E+03  0.26249867257E+03  0.17300000000E+03 0. -1.
         -6    1    1    2    0  502 -0.15319113443E+02  0.80736314217E+02  0.31906574966E+03  0.37213570143E+03  0.17300000000E+03 0.  1.
<mgrwt>
<rscale>  2 0.19152553E+03</rscale>
<asrwt>0</asrwt>
<pdfrwt beam="1">  1       21 0.59553154E-01 0.19152553E+03</pdfrwt>
<pdfrwt beam="2">  1       21 0.38082904E-01 0.19152553E+03</pdfrwt>
<totfact> 0.17521570E+04</totfact>
</mgrwt>
</event>
<event>
 4    2  0.4039581E+000  0.1778584E+03  0.7546771E-02  0.1169892E+00
         21   -1    0    0  501  502  0.00000000000E+00  0.00000000000E+00  0.30733366197E+03  0.30733366197E+03  0.00000000000E+00 0. -1.
         21   -1    0    0  502  503 -0.00000000000E+00 -0.00000000000E+00 -0.17764169665E+03  0.17764169665E+03  0.00000000000E+00 0. -1.
          6    1    1    2  501    0 -0.35937636114E+02 -0.20325043161E+02  0.22210433522E+03  0.28454166091E+03  0.17300000000E+03 0. -1.
         -6    1    1    2    0  503  0.35937636114E+02  0.20325043161E+02 -0.92412369895E+02  0.20043369771E+03  0.17300000000E+03 0. -1.
<mgrwt>
<rscale>  2 0.17785843E+03</rscale>
<asrwt>0</asrwt>
<pdfrwt beam="1">  1       21 0.47282102E-01 0.17785843E+03</pdfrwt>
<pdfrwt beam="2">  1       21 0.27329492E-01 0.17785843E+03</pdfrwt>
<totfact> 0.55009201E+04</totfact>
</mgrwt>
</event>
<event>
 4    2  0.4039581E+000  0.2016279E+03  0.7546771E-02  0.1148373E+00
         21   -1    0    0  503  502  0.00000000000E+00  0.00000000000E+00  0.20820871909E+03  0.20820871909E+03  0.00000000000E+00 0. -1.
         21   -1    0    0  501  503 -0.00000000000E+00 -0.00000000000E+00 -0.69055969301E+03  0.69055969301E+03  0.00000000000E+00 0.  1.
          6    1    1    2  501    0  0.45423671792E+02 -0.93067277574E+02 -0.62176195304E+03  0.65363732633E+03  0.17300000000E+03 0.  1.
         -6    1    1    2    0  502 -0.45423671792E+02  0.93067277574E+02  0.13941097912E+03  0.24513108578E+03  0.17300000000E+03 0. -1.
<mgrwt>
<rscale>  2 0.20162794E+03</rscale>
<asrwt>0</asrwt>
<pdfrwt beam="1">  1       21 0.32032110E-01 0.20162794E+03</pdfrwt>
<pdfrwt beam="2">  1       21 0.10623995E+00 0.20162794E+03</pdfrwt>
<totfact> 0.66127259E+03</totfact>
</mgrwt>
</event>
<event>
 4    2  0.4039581E+000  0.2318901E+03  0.7546771E-02  0.1125316E+00
         21   -1    0    0  501  502  0.00000000000E+00  0.00000000000E+00  0.49906837467E+03  0.49906837467E+03  0.00000000000E+00 0.  1.
         21   -1    0    0  502  503 -0.00000000000E+00 -0.00000000000E+00 -0.10846902394E+03  0.10846902394E+03  0.00000000000E+00 0.  1.
          6    1    1    2  501    0 -0.25955854427E+02 -0.15221799901E+03  0.17051273441E+03  0.28783262185E+03  0.17300000000E+03 0.  1.
         -6    1    1    2    0  503  0.25955854427E+02  0.15221799901E+03  0.22008661632E+03  0.31970477676E+03  0.17300000000E+03 0.  1.
<mgrwt>
<rscale>  2 0.23189012E+03</rscale>
<asrwt>0</asrwt>
<pdfrwt beam="1">  1       21 0.76779749E-01 0.23189012E+03</pdfrwt>
<pdfrwt beam="2">  1       21 0.16687542E-01 0.23189012E+03</pdfrwt>
<totfact> 0.47794653E+04</totfact>
</mgrwt>
</event>
<event>
 4    2  0.4039581E+000  0.2480687E+03  0.7546771E-02  0.1114531E+00
         21   -1    0    0  503  502  0.00000000000E+00  0.00000000000E+00  0.28053513588E+03  0.28053513588E+03  0.00000000000E+00 0. -1.
         21   -1    0    0  501  503 -0.00000000000E+00 -0.00000000000E+00 -0.76902711590E+03  0.76902711590E+03  0.00000000000E+00 0.  1.
          6    1    1    2  501    0 -0.17236013760E+03 -0.43601183797E+02 -0.68791327817E+03  0.73127474901E+03  0.17300000000E+03 0.  1.
         -6    1    1    2    0  502  0.17236013760E+03  0.43601183797E+02  0.19942129815E+03  0.31828750277E+03  0.17300000000E+03 0. -1.
<mgrwt>
<rscale>  2 0.24806870E+03</rscale>
<asrwt>0</asrwt>
<pdfrwt beam="1">  1       21 0.43159252E-01 0.24806870E+03</pdfrwt>
<pdfrwt beam="2">  1       21 0.11831186E+00 0.24806870E+03</pdfrwt>
<totfact> 0.27013008E+03</totfact>
</mgrwt>
</event>
<event>
 4    2  0.4039581E+000  0.1842372E+03  0.7546771E-02  0.1163764E+00
         21   -1    0    0  503  502  0.00000000000E+00  0.00000000000E+00  0.58160585369E+03  0.58160585369E+03  0.00000000000E+00 0. -1.
         21   -1    0    0  501  503 -0.00000000000E+00 -0.00000000000E+00 -0.96597416329E+02  0.96597416329E+02  0.00000000000E+00 0. -1.
          6    1    1    2  501    0 -0.15680064277E+02 -0.61387914410E+02  0.29158779118E+02  0.18653035906E+03  0.17300000000E+03 0. -1.
         -6    1    1    2    0  502  0.15680064277E+02  0.61387914410E+02  0.45584965825E+03  0.49167291096E+03  0.17300000000E+03 0. -1.
<mgrwt>
<rscale>  2 0.18423719E+03</rscale>
<asrwt>0</asrwt>
<pdfrwt beam="1">  1       21 0.89477821E-01 0.18423719E+03</pdfrwt>
<pdfrwt beam="2">  1       21 0.14861141E-01 0.18423719E+03</pdfrwt>
<totfact> 0.42666308E+04</totfact>
</mgrwt>
</event>
<event>
 4    2  0.4039581E+000  0.1804835E+03  0.7546771E-02  0.1167336E+00
         21   -1    0    0  501  502  0.00000000000E+00  0.00000000000E+00  0.33077498938E+02  0.33077498938E+02  0.00000000000E+00 0.  1.
         21   -1    0    0  502  503 -0.00000000000E+00 -0.00000000000E+00 -0.12968077211E+04  0.12968077211E+04  0.00000000000E+00 0.  1.
          6    1    1    2  501    0  0.50989420202E+02 -0.67353183924E+01 -0.30569947508E+03  0.35500204865E+03  0.17300000000E+03 0.  1.
         -6    1    1    2    0  503 -0.50989420202E+02  0.67353183924E+01 -0.95803074710E+03  0.97488317140E+03  0.17300000000E+03 0.  1.
<mgrwt>
<rscale>  2 0.18048348E+03</rscale>
<asrwt>0</asrwt>
<pdfrwt beam="1">  1       21 0.50888462E-02 0.18048348E+03</pdfrwt>
<pdfrwt beam="2">  1       21 0.19950887E+00 0.18048348E+03</pdfrwt>
<totfact> 0.35611259E+04</totfact>
</mgrwt>
</event>
<event>
 4    2  0.4039581E+000  0.1906877E+03  0.7546771E-02  0.1157843E+00
         21   -1    0    0  501  502  0.00000000000E+00  0.00000000000E+00  0.53543038041E+03  0.53543038041E+03  0.00000000000E+00 0. -1.
         21   -1    0    0  502  503 -0.00000000000E+00 -0.00000000000E+00 -0.70337853740E+02  0.70337853740E+02  0.00000000000E+00 0. -1.
          6    1    1    2  501    0  0.24672063092E+02 -0.76315681949E+02  0.17628967101E+03  0.25969182142E+03  0.17300000000E+03 0. -1.
         -6    1    1    2    0  503 -0.24672063092E+02  0.76315681949E+02  0.28880285566E+03  0.34607641272E+03  0.17300000000E+03 0. -1.
<mgrwt>
<rscale>  2 0.19068769E+03</rscale>
<asrwt>0</asrwt>
<pdfrwt beam="1">  1       21 0.82373902E-01 0.19068769E+03</pdfrwt>
<pdfrwt beam="2">  1       21 0.10821209E-01 0.19068769E+03</pdfrwt>
<totfact> 0.90894801E+04</totfact>
</mgrwt>
</event>
<event>
 4    2  0.4039581E+000  0.2199963E+03  0.7546771E-02  0.1133886E+00
         21   -1    0    0  503  502  0.00000000000E+00  0.00000000000E+00  0.82261633439E+02  0.82261633439E+02  0.00000000000E+00 0. -1.
         21   -1    0    0  501  503 -0.00000000000E+00 -0.00000000000E+00 -0.73885307228E+03  0.73885307228E+03  0.00000000000E+00 0.  1.
          6    1    1    2  501    0 -0.13588837150E+03 -0.19340547662E+01 -0.51359414068E+03  0.55872831629E+03  0.17300000000E+03 0.  1.
         -6    1    1    2    0  502  0.13588837150E+03  0.19340547662E+01 -0.14299729816E+03  0.26238638943E+03  0.17300000000E+03 0.  1.
<mgrwt>
<rscale>  2 0.21999634E+03</rscale>
<asrwt>0</asrwt>
<pdfrwt beam="1">  1       21 0.12655636E-01 0.21999634E+03</pdfrwt>
<pdfrwt beam="2">  1       21 0.11366970E+00 0.21999634E+03</pdfrwt>
<totfact> 0.31683108E+04</totfact>
</mgrwt>
</event>
<event>
 4    2  0.4039581E+000  0.1776658E+03  0.7546771E-02  0.1170081E+00
         21   -1    0    0  501  502  0.00000000000E+00  0.00000000000E+00  0.21754045746E+03  0.21754045746E+03  0.00000000000E+00 0.  1.
         21   -1    0    0  502  503 -0.00000000000E+00 -0.00000000000E+00 -0.17092578398E+03  0.17092578398E+03  0.00000000000E+00 0.  1.
          6    1    1    2  501    0  0.18856278854E+02  0.35785317320E+02  0.98807028727E+02  0.20329283586E+03  0.17300000000E+03 0.  1.
         -6    1    1    2    0  503 -0.18856278854E+02 -0.35785317320E+02 -0.52192355241E+02  0.18517340558E+03  0.17300000000E+03 0.  1.
<mgrwt>
<rscale>  2 0.17766583E+03</rscale>
<asrwt>0</asrwt>
<pdfrwt beam="1">  1       21 0.33467763E-01 0.17766583E+03</pdfrwt>
<pdfrwt beam="2">  1       21 0.26296274E-01 0.17766583E+03</pdfrwt>
<totfact> 0.11885602E+05</totfact>
</mgrwt>
</event>
<event>
 4    2  0.4039581E+000  0.2635885E+03  0.7546771E-02  0.1105006E+00
         21   -1    0    0  501  502  0.00000000000E+00  0.00000000000E+00  0.11634027667E+03  0.11634027667E+03  0.00000000000E+00 0.  1.
         21   -1    0    0  502  503 -0.00000000000E+00 -0.00000000000E+00 -0.62443737221E+03  0.62443737221E+03  0.00000000000E+00 0.  1.
          6    1    1    2  501    0  0.14427991706E+03 -0.13686931490E+03 -0.17669817489E+03  0.31733444319E+03  0.17300000000E+03 0.  1.
         -6    1    1    2    0  503 -0.14427991706E+03  0.13686931490E+03 -0.33139892066E+03  0.42344320569E+03  0.17300000000E+03 0.  1.
<mgrwt>
<rscale>  2 0.26358851E+03</rscale>
<asrwt>0</asrwt>
<pdfrwt beam="1">  1       21 0.17898504E-01 0.26358851E+03</pdfrwt>
<pdfrwt beam="2">  1       21 0.96067290E-01 0.26358851E+03</pdfrwt>
<totfact> 0.24667884E+04</totfact>
</mgrwt>
</event>
<event>
 4    2  0.4039581E+000  0.1891195E+03  0.7546771E-02  0.1159258E+00
         21   -1    0    0  501  502  0.00000000000E+00  0.00000000000E+00  0.13464008601E+03  0.13464008601E+03  0.00000000000E+00 0. -1.
         21   -1    0    0  502  503 -0.00000000000E+00 -0.00000000000E+00 -0.32699668611E+03  0.32699668611E+03  0.00000000000E+00 0. -1.
          6    1    1    2  501    0 -0.75386461467E+02  0.12412234182E+02  0.38031494340E+01  0.18915772804E+03  0.17300000000E+03 0. -1.
         -6    1    1    2    0  503  0.75386461467E+02 -0.12412234182E+02 -0.19615974953E+03  0.27247904409E+03  0.17300000000E+03 0. -1.
<mgrwt>
<rscale>  2 0.18911949E+03</rscale>
<asrwt>0</asrwt>
<pdfrwt beam="1">  1       21 0.20713859E-01 0.18911949E+03</pdfrwt>
<pdfrwt beam="2">  1       21 0.50307182E-01 0.18911949E+03</pdfrwt>
<totfact> 0.81442223E+04</totfact>
</mgrwt>
</event>
<event>
 4    2  0.4039581E+000  0.1869331E+03  0.7546771E-02  0.1161257E+00
         21   -1    0    0  503  502  0.00000000000E+00  0.00000000000E+00  0.80095444850E+02  0.80095444850E+02  0.00000000000E+00 0.  1.
         21   -1    0    0  501  503 -0.00000000000E+00 -0.00000000000E+00 -0.44734439915E+03  0.44734439915E+03  0.00000000000E+00 0.  1.
          6    1    1    2  501    0  0.70533500802E+02  0.63243312058E+01 -0.22510103489E+03  0.29259946653E+03  0.17300000000E+03 0.  1.
         -6    1    1    2    0  502 -0.70533500802E+02 -0.63243312058E+01 -0.14214791941E+03  0.23484037747E+03  0.17300000000E+03 0.  1.
<mgrwt>
<rscale>  2 0.18693307E+03</rscale>
<asrwt>0</asrwt>
<pdfrwt beam="1">  1       21 0.12322376E-01 0.18693307E+03</pdfrwt>
<pdfrwt beam="2">  1       21 0.68822215E-01 0.18693307E+03</pdfrwt>
<totfact> 0.10787009E+05</totfact>
</mgrwt>
</event>
<event>
 4    2  0.4039581E+000  0.2164309E+03  0.7546771E-02  0.1136572E+00
         21   -1    0    0  501  502  0.00000000000E+00  0.00000000000E+00  0.11550338440E+04  0.11550338440E+04  0.00000000000E+00 0.  1.
         21   -1    0    0  502  503 -0.00000000000E+00 -0.00000000000E+00 -0.40772547079E+02  0.40772547079E+02  0.00000000000E+00 0.  1.
          6    1    1    2  501    0  0.73036357795E+02 -0.10760580554E+03  0.60081154019E+03  0.63860537562E+03  0.17300000000E+03 0.  1.
         -6    1    1    2    0  503 -0.73036357795E+02  0.10760580554E+03  0.51344975679E+03  0.55720101551E+03  0.17300000000E+03 0.  1.
<mgrwt>
<rscale>  2 0.21643086E+03</rscale>
<asrwt>0</asrwt>
<pdfrwt beam="1">  1       21 0.17769749E+00 0.21643086E+03</pdfrwt>
<pdfrwt beam="2">  1       21 0.62727004E-02 0.21643086E+03</pdfrwt>
<totfact> 0.33951934E+04</totfact>
</mgrwt>
</event>
<event>
 4    2  0.4039581E+000  0.2426885E+03  0.7546771E-02  0.1118015E+00
         21   -1    0    0  503  502  0.00000000000E+00  0.00000000000E+00  0.38943890068E+02  0.38943890068E+02  0.00000000000E+00 0. -1.
         21   -1    0    0  501  503 -0.00000000000E+00 -0.00000000000E+00 -0.16517430727E+04  0.16517430727E+04  0.00000000000E+00 0. -1.
          6    1    1    2  501    0  0.16083194998E+03  0.55693746551E+02 -0.10519529375E+04  0.10795844998E+04  0.17300000000E+03 0. -1.
         -6    1    1    2    0  502 -0.16083194998E+03 -0.55693746551E+02 -0.56084624510E+03  0.61110246291E+03  0.17300000000E+03 0. -1.
<mgrwt>
<rscale>  2 0.24268850E+03</rscale>
<asrwt>0</asrwt>
<pdfrwt beam="1">  1       21 0.59913686E-02 0.24268850E+03</pdfrwt>
<pdfrwt beam="2">  1       21 0.25411428E+00 0.24268850E+03</pdfrwt>
<totfact> 0.11910672E+04</totfact>
</mgrwt>
</event>
<event>
 4    2  0.4039581E+000  0.2640001E+03  0.7546771E-02  0.1104763E+00
         21   -1    0    0  503  502  0.00000000000E+00  0.00000000000E+00  0.24312674976E+03  0.24312674976E+03  0.00000000000E+00 0.  1.
         21   -1    0    0  501  503 -0.00000000000E+00 -0.00000000000E+00 -0.41105183461E+03  0.41105183461E+03  0.00000000000E+00 0.  1.
          6    1    1    2  501    0  0.17364662989E+03  0.98050399126E+02 -0.26389292326E+03  0.37327671744E+03  0.17300000000E+03 0.  1.
         -6    1    1    2    0  502 -0.17364662989E+03 -0.98050399126E+02  0.95967838401E+02  0.28090186693E+03  0.17300000000E+03 0.  1.
<mgrwt>
<rscale>  2 0.26400006E+03</rscale>
<asrwt>0</asrwt>
<pdfrwt beam="1">  1       21 0.37404116E-01 0.26400006E+03</pdfrwt>
<pdfrwt beam="2">  1       21 0.63238743E-01 0.26400006E+03</pdfrwt>
<totfact> 0.15323987E+04</totfact>
</mgrwt>
</event>
<event>
 4    2  0.4039581E+000  0.1798779E+03  0.7546771E-02  0.1167921E+00
         21   -1    0    0  501  502  0.00000000000E+00  0.00000000000E+00  0.12942819684E+03  0.12942819684E+03  0.00000000000E+00 0.  1.
         21   -1    0    0  502  503 -0.00000000000E+00 -0.00000000000E+00 -0.43366082938E+03  0.43366082938E+03  0.00000000000E+00 0.  1.
          6    1    1    2  501    0 -0.34545261063E+02 -0.35123781614E+02  0.31110620737E+02  0.18254842048E+03  0.17300000000E+03 0.  1.
         -6    1    1    2    0  503  0.34545261063E+02  0.35123781614E+02 -0.33534325328E+03  0.38054060574E+03  0.17300000000E+03 0.  1.
<mgrwt>
<rscale>  2 0.17987789E+03</rscale>
<asrwt>0</asrwt>
<pdfrwt beam="1">  1       21 0.19912030E-01 0.17987789E+03</pdfrwt>
<pdfrwt beam="2">  1       21 0.66717051E-01 0.17987789E+03</pdfrwt>
<totfact> 0.48216772E+04</totfact>
</mgrwt>
</event>
<event>
 4    2  0.4039581E+000  0.2353376E+03  0.7546771E-02  0.1122938E+00
         21   -1    0    0  503  502  0.00000000000E+00  0.00000000000E+00  0.22093614360E+03  0.22093614360E+03  0.00000000000E+00 0.  1.
         21   -1    0    0  501  503 -0.00000000000E+00 -0.00000000000E+00 -0.27290708841E+03  0.27290708841E+03  0.00000000000E+00 0. -1.
          6    1    1    2  501    0 -0.63024952334E+02  0.14656954462E+03 -0.96457203892E+02  0.25433790164E+03  0.17300000000E+03 0. -1.
         -6    1    1    2    0  502  0.63024952334E+02 -0.14656954462E+03  0.44486259082E+02  0.23950533037E+03  0.17300000000E+03 0.  1.
<mgrwt>
<rscale>  2 0.23533758E+03</rscale>
<asrwt>0</asrwt>
<pdfrwt beam="1">  1       21 0.33990176E-01 0.23533758E+03</pdfrwt>
<pdfrwt beam="2">  1       21 0.41985706E-01 0.23533758E+03</pdfrwt>
<totfact> 0.44626785E+04</totfact>
</mgrwt>
</event>
<event>
 4    2  0.4039581E+000  0.2054725E+03  0.7546771E-02  0.1145202E+00
         21   -1    0    0  503  502  0.00000000000E+00  0.00000000000E+00  0.37669071190E+02  0.37669071190E+02  0.00000000000E+00 0. -1.
         21   -1    0    0  501  503 -0.00000000000E+00 -0.00000000000E+00 -0.20951653382E+04  0.20951653382E+04  0.00000000000E+00 0.  1.
          6    1    1    2  501    0 -0.57852469906E+02 -0.94567725774E+02 -0.17559953253E+04  0.17679758328E+04  0.17300000000E+03 0.  1.
         -6    1    1    2    0  502  0.57852469906E+02  0.94567725774E+02 -0.30150094173E+03  0.36485857657E+03  0.17300000000E+03 0. -1.
<mgrwt>
<rscale>  2 0.20547254E+03</rscale>
<asrwt>0</asrwt>
<pdfrwt beam="1">  1       21 0.57952403E-02 0.20547254E+03</pdfrwt>
<pdfrwt beam="2">  1       21 0.32233321E+00 0.20547254E+03</pdfrwt>
<totfact> 0.52296425E+03</totfact>
</mgrwt>
</event>
<event>
 4    2  0.4039581E+000  0.2194670E+03  0.7546771E-02  0.1134281E+00
         21   -1    0    0  503  502  0.00000000000E+00  0.00000000000E+00  0.29780334393E+03  0.29780334393E+03  0.00000000000E+00 0.  1.
         21   -1    0    0  501  503 -0.00000000000E+00 -0.00000000000E+00 -0.16226121649E+03  0.16226121649E+03  0.00000000000E+00 0.  1.
          6    1    1    2  501    0 -0.13162000351E+03  0.30214582522E+02  0.80848976533E+02  0.23388523538E+03  0.17300000000E+03 0.  1.
         -6    1    1    2    0  502  0.13162000351E+03 -0.30214582522E+02  0.54693150903E+02  0.22617932504E+03  0.17300000000E+03 0.  1.
<mgrwt>
<rscale>  2 0.21946696E+03</rscale>
<asrwt>0</asrwt>
<pdfrwt beam="1">  1       21 0.45815899E-01 0.21946696E+03</pdfrwt>
<pdfrwt beam="2">  1       21 0.24963264E-01 0.21946696E+03</pdfrwt>
<totfact> 0.68557134E+04</totfact>
</mgrwt>
</event>
<event>
 4    2  0.4039581E+000  0.3030768E+03  0.7546771E-02  0.1083713E+00
         21   -1    0    0  501  502  0.00000000000E+00  0.00000000000E+00  0.14949012140E+04  0.14949012140E+04  0.00000000000E+00 0.  1.
         21   -1    0    0  502  503 -0.00000000000E+00 -0.00000000000E+00 -0.27641330980E+03  0.27641330980E+03  0.00000000000E+00 0. -1.
          6    1    1    2  501    0  0.15405231436E+03  0.19543390234E+03  0.13902826294E+04  0.14229340517E+04  0.17300000000E+03 0.  1.
         -6    1    1    2    0  503 -0.15405231436E+03 -0.19543390234E+03 -0.17179472523E+03  0.34838047213E+03  0.17300000000E+03 0. -1.
<mgrwt>
<rscale>  2 0.30307677E+03</rscale>
<asrwt>0</asrwt>
<pdfrwt beam="1">  1       21 0.22998480E+00 0.30307677E+03</pdfrwt>
<pdfrwt beam="2">  1       21 0.42525126E-01 0.30307677E+03</pdfrwt>
<totfact> 0.41550977E+02</totfact>
</mgrwt>
</event>
<event>
 4    2  0.4039581E+000  0.2140583E+03  0.7546771E-02  0.1138392E+00
         21   -1    0    0  501  502  0.00000000000E+00  0.00000000000E+00  0.44085358707E+03  0.44085358707E+03  0.00000000000E+00 0. -1.
         21   -1    0    0  502  503 -0.00000000000E+00 -0.00000000000E+00 -0.17189157703E+03  0.17189157703E+03  0.00000000000E+00 0. -1.
          6    1    1    2  501    0 -0.34131642990E+02  0.12135476631E+03  0.32711473083E+03  0.39092837642E+03  0.17300000000E+03 0. -1.
         -6    1    1    2    0  503  0.34131642990E+02 -0.12135476631E+03 -0.58152720792E+02  0.22181678768E+03  0.17300000000E+03 0. -1.
<mgrwt>
<rscale>  2 0.21405828E+03</rscale>
<asrwt>0</asrwt>
<pdfrwt beam="1">  1       21 0.67823628E-01 0.21405828E+03</pdfrwt>
<pdfrwt beam="2">  1       21 0.26444858E-01 0.21405828E+03</pdfrwt>
<totfact> 0.26694129E+04</totfact>
</mgrwt>
</event>
<event>
 4    2  0.4039581E+000  0.2038415E+03  0.7546771E-02  0.1146538E+00
         21   -1    0    0  501  502  0.00000000000E+00  0.00000000000E+00  0.16227926647E+03  0.16227926647E+03  0.00000000000E+00 0. -1.
         21   -1    0    0  502  503 -0.00000000000E+00 -0.00000000000E+00 -0.30480463180E+03  0.30480463180E+03  0.00000000000E+00 0. -1.
          6    1    1    2  501    0  0.44420132420E+02 -0.98230415646E+02  0.22142019863E+02  0.20504056127E+03  0.17300000000E+03 0. -1.
         -6    1    1    2    0  503 -0.44420132420E+02  0.98230415646E+02 -0.16466738519E+03  0.26204333700E+03  0.17300000000E+03 0. -1.
<mgrwt>
<rscale>  2 0.20384151E+03</rscale>
<asrwt>0</asrwt>
<pdfrwt beam="1">  1       21 0.24966041E-01 0.20384151E+03</pdfrwt>
<pdfrwt beam="2">  1       21 0.46893020E-01 0.20384151E+03</pdfrwt>
<totfact> 0.65770744E+04</totfact>
</mgrwt>
</event>
<event>
 4    2  0.4039581E+000  0.3906532E+03  0.7546771E-02  0.1047065E+00
         21   -1    0    0  503  502  0.00000000000E+00  0.00000000000E+00  0.13585988466E+04  0.13585988466E+04  0.00000000000E+00 0.  1.
         21   -1    0    0  501  503 -0.00000000000E+00 -0.00000000000E+00 -0.34791409876E+03  0.34791409876E+03  0.00000000000E+00 0. -1.
          6    1    1    2  501    0  0.34539059399E+03  0.58191248566E+02 -0.19678773735E+03  0.43741890380E+03  0.17300000000E+03 0. -1.
         -6    1    1    2    0  502 -0.34539059399E+03 -0.58191248566E+02  0.12074724852E+04  0.12690940416E+04  0.17300000000E+03 0.  1.
<mgrwt>
<rscale>  2 0.39065315E+03</rscale>
<asrwt>0</asrwt>
<pdfrwt beam="1">  1       21 0.20901520E+00 0.39065315E+03</pdfrwt>
<pdfrwt beam="2">  1       21 0.53525247E-01 0.39065315E+03</pdfrwt>
<totfact> 0.32716115E+02</totfact>
</mgrwt>
</event>
<event>
 4    2  0.4039581E+000  0.1752099E+03  0.7546771E-02  0.1172521E+00
         21   -1    0    0  503  502  0.00000000000E+00  0.00000000000E+00  0.15448809141E+03  0.15448809141E+03  0.00000000000E+00 0.  1.
         21   -1    0    0  501  503 -0.00000000000E+00 -0.00000000000E+00 -0.41689903827E+03  0.41689903827E+03  0.00000000000E+00 0.  1.
          6    1    1    2  501    0  0.81714441274E+01 -0.26509373681E+02 -0.33788632712E+03  0.38061225604E+03  0.17300000000E+03 0.  1.
         -6    1    1    2    0  502 -0.81714441274E+01  0.26509373681E+02  0.75475380257E+02  0.19077487365E+03  0.17300000000E+03 0.  1.
<mgrwt>
<rscale>  2 0.17520993E+03</rscale>
<asrwt>0</asrwt>
<pdfrwt beam="1">  1       21 0.23767399E-01 0.17520993E+03</pdfrwt>
<pdfrwt beam="2">  1       21 0.64138313E-01 0.17520993E+03</pdfrwt>
<totfact> 0.37758706E+04</totfact>
</mgrwt>
</event>
<event>
 4    2  0.4039581E+000  0.1835099E+03  0.7546771E-02  0.1164449E+00
         21   -1    0    0  501  502  0.00000000000E+00  0.00000000000E+00  0.14230522520E+04  0.14230522520E+04  0.00000000000E+00 0.  1.
         21   -1    0    0  502  503 -0.00000000000E+00 -0.00000000000E+00 -0.24378589929E+02  0.24378589929E+02  0.00000000000E+00 0.  1.
          6    1    1    2  501    0  0.60939861484E+02  0.57642321519E+01  0.82319491977E+03  0.84340130960E+03  0.17300000000E+03 0.  1.
         -6    1    1    2    0  503 -0.60939861484E+02 -0.57642321519E+01  0.57547874226E+03  0.60402953230E+03  0.17300000000E+03 0.  1.
<mgrwt>
<rscale>  2 0.18350993E+03</rscale>
<asrwt>0</asrwt>
<pdfrwt beam="1">  1       21 0.21893105E+00 0.18350993E+03</pdfrwt>
<pdfrwt beam="2">  1       21 0.37505534E-02 0.18350993E+03</pdfrwt>
<totfact> 0.44866282E+04</totfact>
</mgrwt>
</event>
<event>
 4    2  0.4039581E+000  0.2965211E+03  0.7546771E-02  0.1086993E+00
         21   -1    0    0  503  502  0.00000000000E+00  0.00000000000E+00  0.22735981037E+03  0.22735981037E+03  0.00000000000E+00 0.  1.
         21   -1    0    0  501  503 -0.00000000000E+00 -0.00000000000E+00 -0.45443260472E+03  0.45443260472E+03  0.00000000000E+00 0. -1.
          6    1    1    2  501    0 -0.23460479288E+03  0.54372285878E+02 -0.24512546551E+03  0.38472230005E+03  0.17300000000E+03 0. -1.
         -6    1    1    2    0  502  0.23460479288E+03 -0.54372285878E+02  0.18052671159E+02  0.29707011504E+03  0.17300000000E+03 0.  1.
<mgrwt>
<rscale>  2 0.29652109E+03</rscale>
<asrwt>0</asrwt>
<pdfrwt beam="1">  1       21 0.34978432E-01 0.29652109E+03</pdfrwt>
<pdfrwt beam="2">  1       21 0.69912708E-01 0.29652109E+03</pdfrwt>
<totfact> 0.13847261E+04</totfact>
</mgrwt>
</event>
<event>
 4    2  0.4039581E+000  0.1780018E+03  0.7546771E-02  0.1169751E+00
         21   -1    0    0  501  502  0.00000000000E+00  0.00000000000E+00  0.37781206094E+03  0.37781206094E+03  0.00000000000E+00 0.  1.
         21   -1    0    0  502  503 -0.00000000000E+00 -0.00000000000E+00 -0.84932965389E+02  0.84932965389E+02  0.00000000000E+00 0.  1.
          6    1    1    2  501    0 -0.16205206987E+02 -0.38639654821E+02  0.17240299909E+03  0.24780521736E+03  0.17300000000E+03 0. -1.
         -6    1    1    2    0  503  0.16205206987E+02  0.38639654821E+02  0.12047609646E+03  0.21493980896E+03  0.17300000000E+03 0. -1.
<mgrwt>
<rscale>  2 0.17800177E+03</rscale>
<asrwt>0</asrwt>
<pdfrwt beam="1">  1       21 0.58124931E-01 0.17800177E+03</pdfrwt>
<pdfrwt beam="2">  1       21 0.13066610E-01 0.17800177E+03</pdfrwt>
<totfact> 0.14038429E+05</totfact>
</mgrwt>
</event>
<event>
 4    2  0.4039581E+000  0.2259264E+03  0.7546771E-02  0.1129540E+00
         21   -1    0    0  501  502  0.00000000000E+00  0.00000000000E+00  0.13355741545E+03  0.13355741545E+03  0.00000000000E+00 0.  1.
         21   -1    0    0  502  503 -0.00000000000E+00 -0.00000000000E+00 -0.61542257994E+03  0.61542257994E+03  0.00000000000E+00 0.  1.
          6    1    1    2  501    0 -0.13806742585E+02  0.14464830985E+03 -0.10385879801E+02  0.22616504191E+03  0.17300000000E+03 0.  1.
         -6    1    1    2    0  503  0.13806742585E+02 -0.14464830985E+03 -0.47147928470E+03  0.52281495348E+03  0.17300000000E+03 0.  1.
<mgrwt>
<rscale>  2 0.22592645E+03</rscale>
<asrwt>0</asrwt>
<pdfrwt beam="1">  1       21 0.20547295E-01 0.22592645E+03</pdfrwt>
<pdfrwt beam="2">  1       21 0.94680396E-01 0.22592645E+03</pdfrwt>
<totfact> 0.20092108E+04</totfact>
</mgrwt>
</event>
<event>
 4    2  0.4039581E+000  0.2566227E+03  0.7546771E-02  0.1109190E+00
         21   -1    0    0  503  502  0.00000000000E+00  0.00000000000E+00  0.95319995788E+03  0.95319995788E+03  0.00000000000E+00 0.  1.
         21   -1    0    0  501  503 -0.00000000000E+00 -0.00000000000E+00 -0.69695693462E+02  0.69695693462E+02  0.00000000000E+00 0.  1.
          6    1    1    2  501    0 -0.12387066232E+03 -0.14346521036E+03  0.39401654234E+03  0.47021722980E+03  0.17300000000E+03 0.  1.
         -6    1    1    2    0  502  0.12387066232E+03  0.14346521036E+03  0.48948772208E+03  0.55267842154E+03  0.17300000000E+03 0.  1.
<mgrwt>
<rscale>  2 0.25662269E+03</rscale>
<asrwt>0</asrwt>
<pdfrwt beam="1">  1       21 0.14664614E+00 0.25662269E+03</pdfrwt>
<pdfrwt beam="2">  1       21 0.10722415E-01 0.25662269E+03</pdfrwt>
<totfact> 0.21905205E+04</totfact>
</mgrwt>
</event>
<event>
 4    2  0.4039581E+000  0.2006930E+03  0.7546771E-02  0.1149156E+00
         21   -1    0    0  501  502  0.00000000000E+00  0.00000000000E+00  0.78986890600E+03  0.78986890600E+03  0.00000000000E+00 0.  1.
         21   -1    0    0  502  503 -0.00000000000E+00 -0.00000000000E+00 -0.71814769970E+02  0.71814769970E+02  0.00000000000E+00 0. -1.
          6    1    1    2  501    0  0.20897970077E+02 -0.99558898558E+02  0.12703617504E+03  0.23752029220E+03  0.17300000000E+03 0. -1.
         -6    1    1    2    0  503 -0.20897970077E+02  0.99558898558E+02  0.59101796099E+03  0.62416338378E+03  0.17300000000E+03 0.  1.
<mgrwt>
<rscale>  2 0.20069305E+03</rscale>
<asrwt>0</asrwt>
<pdfrwt beam="1">  1       21 0.12151829E+00 0.20069305E+03</pdfrwt>
<pdfrwt beam="2">  1       21 0.11048427E-01 0.20069305E+03</pdfrwt>
<totfact> 0.34645560E+04</totfact>
</mgrwt>
</event>
<event>
 4    2  0.4039581E+000  0.2020577E+03  0.7546771E-02  0.1148014E+00
         21   -1    0    0  501  502  0.00000000000E+00  0.00000000000E+00  0.42870169961E+03  0.42870169961E+03  0.00000000000E+00 0.  1.
         21   -1    0    0  502  503 -0.00000000000E+00 -0.00000000000E+00 -0.45812499133E+03  0.45812499133E+03  0.00000000000E+00 0.  1.
          6    1    1    2  501    0 -0.95258147033E+02 -0.42710705752E+02  0.37993133722E+03  0.43031981126E+03  0.17300000000E+03 0.  1.
         -6    1    1    2    0  503  0.95258147033E+02  0.42710705752E+02 -0.40935462894E+03  0.45650687968E+03  0.17300000000E+03 0.  1.
<mgrwt>
<rscale>  2 0.20205771E+03</rscale>
<asrwt>0</asrwt>
<pdfrwt beam="1">  1       21 0.65954108E-01 0.20205771E+03</pdfrwt>
<pdfrwt beam="2">  1       21 0.70480768E-01 0.20205771E+03</pdfrwt>
<totfact> 0.38241690E+03</totfact>
</mgrwt>
</event>
<event>
 4    2  0.4039581E+000  0.1736417E+03  0.7546771E-02  0.1174103E+00
         21   -1    0    0  503  502  0.00000000000E+00  0.00000000000E+00  0.21221646288E+04  0.21221646288E+04  0.00000000000E+00 0.  1.
         21   -1    0    0  501  503 -0.00000000000E+00 -0.00000000000E+00 -0.31061552894E+02  0.31061552894E+02  0.00000000000E+00 0.  1.
          6    1    1    2  501    0 -0.14744413035E+02 -0.22418796402E+01  0.25251065450E+03  0.30645236885E+03  0.17300000000E+03 0.  1.
         -6    1    1    2    0  502  0.14744413035E+02  0.22418796402E+01  0.18385924214E+04  0.18467738128E+04  0.17300000000E+03 0.  1.
<mgrwt>
<rscale>  2 0.17364165E+03</rscale>
<asrwt>0</asrwt>
<pdfrwt beam="1">  1       21 0.32648675E+00 0.17364165E+03</pdfrwt>
<pdfrwt beam="2">  1       21 0.47787021E-02 0.17364165E+03</pdfrwt>
<totfact> 0.71369793E+03</totfact>
</mgrwt>
</event>
<event>
 4    2  0.4039581E+000  0.1909199E+03  0.7546771E-02  0.1157634E+00
         21   -1    0    0  503  502  0.00000000000E+00  0.00000000000E+00  0.68651551299E+02  0.68651551299E+02  0.00000000000E+00 0. -1.
         21   -1    0    0  501  503 -0.00000000000E+00 -0.00000000000E+00 -0.90161167537E+03  0.90161167537E+03  0.00000000000E+00 0.  1.
          6    1    1    2  501    0 -0.70506043125E+02  0.39373758879E+02 -0.72753700684E+03  0.75217052012E+03  0.17300000000E+03 0.  1.
         -6    1    1    2    0  502  0.70506043125E+02 -0.39373758879E+02 -0.10542311723E+03  0.21809270655E+03  0.17300000000E+03 0. -1.
<mgrwt>
<rscale>  2 0.19091987E+03</rscale>
<asrwt>0</asrwt>
<pdfrwt beam="1">  1       21 0.10561778E-01 0.19091987E+03</pdfrwt>
<pdfrwt beam="2">  1       21 0.13870948E+00 0.19091987E+03</pdfrwt>
<totfact> 0.27026119E+04</totfact>
</mgrwt>
</event>
<event>
 4    2  0.4039581E+000  0.1904451E+03  0.7546771E-02  0.1158060E+00
         21   -1    0    0  503  502  0.00000000000E+00  0.00000000000E+00  0.12449420871E+03  0.12449420871E+03  0.00000000000E+00 0.  1.
         21   -1    0    0  501  503 -0.00000000000E+00 -0.00000000000E+00 -0.49908796118E+03  0.49908796118E+03  0.00000000000E+00 0.  1.
          6    1    1    2  501    0 -0.70475830436E+02  0.37060752623E+02 -0.38846087218E+03  0.43263285968E+03  0.17300000000E+03 0.  1.
         -6    1    1    2    0  502  0.70475830436E+02 -0.37060752623E+02  0.13867119712E+02  0.19094931021E+03  0.17300000000E+03 0.  1.
<mgrwt>
<rscale>  2 0.19044512E+03</rscale>
<asrwt>0</asrwt>
<pdfrwt beam="1">  1       21 0.19152955E-01 0.19044512E+03</pdfrwt>
<pdfrwt beam="2">  1       21 0.76782762E-01 0.19044512E+03</pdfrwt>
<totfact> 0.37790483E+04</totfact>
</mgrwt>
</event>
<event>
 4    2  0.4039581E+000  0.2052607E+03  0.7546771E-02  0.1145375E+00
         21   -1    0    0  501  502  0.00000000000E+00  0.00000000000E+00  0.19086839254E+03  0.19086839254E+03  0.00000000000E+00 0.  1.
         21   -1    0    0  502  503 -0.00000000000E+00 -0.00000000000E+00 -0.22099844560E+03  0.22099844560E+03  0.00000000000E+00 0. -1.
          6    1    1    2  501    0  0.10884213053E+03 -0.18877324736E+02 -0.22130609668E+02  0.20645030068E+03  0.17300000000E+03 0.  1.
         -6    1    1    2    0  503 -0.10884213053E+03  0.18877324736E+02 -0.79994433901E+01  0.20541653746E+03  0.17300000000E+03 0.  1.
<mgrwt>
<rscale>  2 0.20526072E+03</rscale>
<asrwt>0</asrwt>
<pdfrwt beam="1">  1       21 0.29364368E-01 0.20526072E+03</pdfrwt>
<pdfrwt beam="2">  1       21 0.33999761E-01 0.20526072E+03</pdfrwt>
<totfact> 0.92117634E+04</totfact>
</mgrwt>
</event>
<event>
 4    2  0.4039581E+000  0.2312475E+03  0.7546771E-02  0.1125765E+00
         21   -1    0    0  503  502  0.00000000000E+00  0.00000000000E+00  0.97501382282E+03  0.97501382282E+03  0.00000000000E+00 0.  1.
         21   -1    0    0  501  503 -0.00000000000E+00 -0.00000000000E+00 -0.11125239192E+03  0.11125239192E+03  0.00000000000E+00 0. -1.
          6    1    1    2  501    0 -0.14615886382E+03  0.46733369063E+02  0.45143027820E+02  0.23561263595E+03  0.17300000000E+03 0. -1.
         -6    1    1    2    0  502  0.14615886382E+03 -0.46733369063E+02  0.81861840308E+03  0.85065357879E+03  0.17300000000E+03 0.  1.
<mgrwt>
<rscale>  2 0.23124753E+03</rscale>
<asrwt>0</asrwt>
<pdfrwt beam="1">  1       21 0.15000212E+00 0.23124753E+03</pdfrwt>
<pdfrwt beam="2">  1       21 0.17115753E-01 0.23124753E+03</pdfrwt>
<totfact> 0.89539879E+03</totfact>
</mgrwt>
</event>
<event>
 4    2  0.4039581E+000  0.3802550E+03  0.7546771E-02  0.1050840E+00
         21   -1    0    0  501  502  0.00000000000E+00  0.00000000000E+00  0.10044158075E+04  0.10044158075E+04  0.00000000000E+00 0.  1.
         21   -1    0    0  502  503 -0.00000000000E+00 -0.00000000000E+00 -0.15599058509E+03  0.15599058509E+03  0.00000000000E+00 0.  1.
          6    1    1    2  501    0 -0.31169117778E+03  0.13233837148E+03  0.58535426115E+03  0.69802109274E+03  0.17300000000E+03 0.  1.
         -6    1    1    2    0  503  0.31169117778E+03 -0.13233837148E+03  0.26307096132E+03  0.46238529989E+03  0.17300000000E+03 0.  1.
<mgrwt>
<rscale>  2 0.38025496E+03</rscale>
<asrwt>0</asrwt>
<pdfrwt beam="1">  1       21 0.15452550E+00 0.38025496E+03</pdfrwt>
<pdfrwt beam="2">  1       21 0.23998552E-01 0.38025496E+03</pdfrwt>
<totfact> 0.40309810E+03</totfact>
</mgrwt>
</event>
<event>
 4    2  0.4039581E+000  0.1850903E+03  0.7546771E-02  0.1162966E+00
         21   -1    0    0  501  502  0.00000000000E+00  0.00000000000E+00  0.75462432196E+03  0.75462432196E+03  0.00000000000E+00 0. -1.
         21   -1    0    0  502  503 -0.00000000000E+00 -0.00000000000E+00 -0.68102675216E+02  0.68102675216E+02  0.00000000000E+00 0. -1.
          6    1    1    2  501    0 -0.27550997483E+02  0.59752612737E+02  0.58078146016E+03  0.60956175787E+03  0.17300000000E+03 0. -1.
         -6    1    1    2    0  503  0.27550997483E+02 -0.59752612737E+02  0.10574018659E+03  0.21316523931E+03  0.17300000000E+03 0. -1.
<mgrwt>
<rscale>  2 0.18509034E+03</rscale>
<asrwt>0</asrwt>
<pdfrwt beam="1">  1       21 0.11609604E+00 0.18509034E+03</pdfrwt>
<pdfrwt beam="2">  1       21 0.10477335E-01 0.18509034E+03</pdfrwt>
<totfact> 0.42974700E+04</totfact>
</mgrwt>
</event>
<event>
 4    2  0.4039581E+000  0.2969017E+03  0.7546771E-02  0.1086800E+00
         21   -1    0    0  503  502  0.00000000000E+00  0.00000000000E+00  0.20670330292E+04  0.20670330292E+04  0.00000000000E+00 0.  1.
         21   -1    0    0  501  503 -0.00000000000E+00 -0.00000000000E+00 -0.52532555488E+02  0.52532555488E+02  0.00000000000E+00 0.  1.
          6    1    1    2  501    0  0.20221224964E+03 -0.13165035202E+03  0.54749575727E+03  0.62281796163E+03  0.17300000000E+03 0.  1.
         -6    1    1    2    0  502 -0.20221224964E+03  0.13165035202E+03  0.14670047164E+04  0.14967476230E+04  0.17300000000E+03 0.  1.
<mgrwt>
<rscale>  2 0.29690168E+03</rscale>
<asrwt>0</asrwt>
<pdfrwt beam="1">  1       21 0.31800502E+00 0.29690168E+03</pdfrwt>
<pdfrwt beam="2">  1       21 0.80819332E-02 0.29690168E+03</pdfrwt>
<totfact> 0.28525358E+03</totfact>
</mgrwt>
</event>
<event>
 4    2  0.4039581E+000  0.1998152E+03  0.7546771E-02  0.1149895E+00
         21   -1    0    0  501  502  0.00000000000E+00  0.00000000000E+00  0.12913609648E+03  0.12913609648E+03  0.00000000000E+00 0.  1.
         21   -1    0    0  502  503 -0.00000000000E+00 -0.00000000000E+00 -0.31257382394E+03  0.31257382394E+03  0.00000000000E+00 0.  1.
          6    1    1    2  501    0 -0.98571713154E+02 -0.16755595469E+02 -0.68701393418E+02  0.21129603421E+03  0.17300000000E+03 0.  1.
         -6    1    1    2    0  503  0.98571713154E+02  0.16755595469E+02 -0.11473633404E+03  0.23041388622E+03  0.17300000000E+03 0.  1.
<mgrwt>
<rscale>  2 0.19981525E+03</rscale>
<asrwt>0</asrwt>
<pdfrwt beam="1">  1       21 0.19867092E-01 0.19981525E+03</pdfrwt>
<pdfrwt beam="2">  1       21 0.48088281E-01 0.19981525E+03</pdfrwt>
<totfact> 0.96294937E+04</totfact>
</mgrwt>
</event>
<event>
 4    2  0.4039581E+000  0.1952466E+03  0.7546771E-02  0.1153813E+00
         21   -1    0    0  501  502  0.00000000000E+00  0.00000000000E+00  0.12173834473E+04  0.12173834473E+04  0.00000000000E+00 0. -1.
         21   -1    0    0  502  503 -0.00000000000E+00 -0.00000000000E+00 -0.14979819610E+03  0.14979819610E+03  0.00000000000E+00 0. -1.
          6    1    1    2  501    0  0.58087577228E+02 -0.69412212027E+02  0.11417498578E+04  0.11583237714E+04  0.17300000000E+03 0. -1.
         -6    1    1    2    0  503 -0.58087577228E+02  0.69412212027E+02 -0.74164606572E+02  0.20885787195E+03  0.17300000000E+03 0. -1.
<mgrwt>
<rscale>  2 0.19524657E+03</rscale>
<asrwt>0</asrwt>
<pdfrwt beam="1">  1       21 0.18728975E+00 0.19524657E+03</pdfrwt>
<pdfrwt beam="2">  1       21 0.23045877E-01 0.19524657E+03</pdfrwt>
<totfact> 0.28668488E+03</totfact>
</mgrwt>
</event>
<event>
 4    2  0.4039581E+000  0.1805675E+03  0.7546771E-02  0.1167255E+00
         21   -1    0    0  501  502  0.00000000000E+00  0.00000000000E+00  0.31494746292E+02  0.31494746292E+02  0.00000000000E+00 0. -1.
         21   -1    0    0  502  503 -0.00000000000E+00 -0.00000000000E+00 -0.13212896840E+04  0.13212896840E+04  0.00000000000E+00 0. -1.
          6    1    1    2  501    0  0.33177835823E+02  0.39684270610E+02 -0.33018019521E+03  0.37632907333E+03  0.17300000000E+03 0. -1.
         -6    1    1    2    0  503 -0.33177835823E+02 -0.39684270610E+02 -0.95961474252E+03  0.97645535699E+03  0.17300000000E+03 0. -1.
<mgrwt>
<rscale>  2 0.18056747E+03</rscale>
<asrwt>0</asrwt>
<pdfrwt beam="1">  1       21 0.48453472E-02 0.18056747E+03</pdfrwt>
<pdfrwt beam="2">  1       21 0.20327527E+00 0.18056747E+03</pdfrwt>
<totfact> 0.36609291E+04</totfact>
</mgrwt>
</event>
<event>
 4    2  0.4039581E+000  0.1939741E+03  0.7546771E-02  0.1154925E+00
         21   -1    0    0  501  502  0.00000000000E+00  0.00000000000E+00  0.18124539606E+03  0.18124539606E+03  0.00000000000E+00 0.  1.
         21   -1    0    0  502  503 -0.00000000000E+00 -0.00000000000E+00 -0.29089768349E+03  0.29089768349E+03  0.00000000000E+00 0.  1.
          6    1    1    2  501    0  0.55936421945E+02  0.67587606020E+02 -0.18115374622E+03  0.26541033808E+03  0.17300000000E+03 0.  1.
         -6    1    1    2    0  503 -0.55936421945E+02 -0.67587606020E+02  0.71501458786E+02  0.20673274147E+03  0.17300000000E+03 0.  1.
<mgrwt>
<rscale>  2 0.19397414E+03</rscale>
<asrwt>0</asrwt>
<pdfrwt beam="1">  1       21 0.27883907E-01 0.19397414E+03</pdfrwt>
<pdfrwt beam="2">  1       21 0.44753490E-01 0.19397414E+03</pdfrwt>
<totfact> 0.58826471E+04</totfact>
</mgrwt>
</event>
<event>
 4    2  0.4039581E+000  0.1763991E+03  0.7546771E-02  0.1171334E+00
         21   -1    0    0  501  502  0.00000000000E+00  0.00000000000E+00  0.33836561419E+03  0.33836561419E+03  0.00000000000E+00 0. -1.
         21   -1    0    0  502  503 -0.00000000000E+00 -0.00000000000E+00 -0.20326424779E+03  0.20326424779E+03  0.00000000000E+00 0. -1.
          6    1    1    2  501    0  0.34169044058E+02 -0.44869507567E+01  0.26794932746E+03  0.32080133788E+03  0.17300000000E+03 0. -1.
         -6    1    1    2    0  503 -0.34169044058E+02  0.44869507567E+01 -0.13284796106E+03  0.22082852410E+03  0.17300000000E+03 0. -1.
<mgrwt>
<rscale>  2 0.17639914E+03</rscale>
<asrwt>0</asrwt>
<pdfrwt beam="1">  1       21 0.52056248E-01 0.17639914E+03</pdfrwt>
<pdfrwt beam="2">  1       21 0.31271423E-01 0.17639914E+03</pdfrwt>
<totfact> 0.34710379E+04</totfact>
</mgrwt>
</event>
<event>
 4    2  0.4039581E+000  0.2090256E+03  0.7546771E-02  0.1142340E+00
         21   -1    0    0  503  502  0.00000000000E+00  0.00000000000E+00  0.48571449294E+02  0.48571449294E+02  0.00000000000E+00 0.  1.
         21   -1    0    0  501  503 -0.00000000000E+00 -0.00000000000E+00 -0.95352135426E+03  0.95352135426E+03  0.00000000000E+00 0. -1.
          6    1    1    2  501    0 -0.77328450241E+02  0.88221341249E+02 -0.33325285607E+03  0.39338169803E+03  0.17300000000E+03 0.  1.
         -6    1    1    2    0  502  0.77328450241E+02 -0.88221341249E+02 -0.57169704890E+03  0.60871110553E+03  0.17300000000E+03 0. -1.
<mgrwt>
<rscale>  2 0.20902558E+03</rscale>
<asrwt>0</asrwt>
<pdfrwt beam="1">  1       21 0.74725306E-02 0.20902558E+03</pdfrwt>
<pdfrwt beam="2">  1       21 0.14669559E+00 0.20902558E+03</pdfrwt>
<totfact> 0.42409220E+04</totfact>
</mgrwt>
</event>
<event>
 4    2  0.4039581E+000  0.2256141E+03  0.7546771E-02  0.1129765E+00
         21   -1    0    0  503  502  0.00000000000E+00  0.00000000000E+00  0.42866788904E+03  0.42866788904E+03  0.00000000000E+00 0. -1.
         21   -1    0    0  501  503 -0.00000000000E+00 -0.00000000000E+00 -0.14390365136E+03  0.14390365136E+03  0.00000000000E+00 0.  1.
          6    1    1    2  501    0  0.13036677357E+02  0.14423162435E+03  0.22675921315E+02  0.22675077470E+03  0.17300000000E+03 0.  1.
         -6    1    1    2    0  502 -0.13036677357E+02 -0.14423162435E+03  0.26208831637E+03  0.34582076571E+03  0.17300000000E+03 0. -1.
<mgrwt>
<rscale>  2 0.22561409E+03</rscale>
<asrwt>0</asrwt>
<pdfrwt beam="1">  1       21 0.65948905E-01 0.22561409E+03</pdfrwt>
<pdfrwt beam="2">  1       21 0.22139024E-01 0.22561409E+03</pdfrwt>
<totfact> 0.39623440E+04</totfact>
</mgrwt>
</event>
<event>
 4    2  0.4039581E+000  0.1752989E+03  0.7546771E-02  0.1172432E+00
         21   -1    0    0  503  502  0.00000000000E+00  0.00000000000E+00  0.27785376571E+04  0.27785376571E+04  0.00000000000E+00 0. -1.
         21   -1    0    0  501  503 -0.00000000000E+00 -0.00000000000E+00 -0.30149021450E+02  0.30149021450E+02  0.00000000000E+00 0. -1.
          6    1    1    2  501    0 -0.10203731866E+02 -0.26393076883E+02  0.25673358576E+03  0.31087271464E+03  0.17300000000E+03 0. -1.
         -6    1    1    2    0  502  0.10203731866E+02  0.26393076883E+02  0.24916550499E+04  0.24978139639E+04  0.17300000000E+03 0. -1.
<mgrwt>
<rscale>  2 0.17529892E+03</rscale>
<asrwt>0</asrwt>
<pdfrwt beam="1">  1       21 0.42746713E+00 0.17529892E+03</pdfrwt>
<pdfrwt beam="2">  1       21 0.46383132E-02 0.17529892E+03</pdfrwt>
<totfact> 0.18336484E+03</totfact>
</mgrwt>
</event>
<event>
 4    2  0.4039581E+000  0.1912828E+03  0.7546771E-02  0.1157309E+00
         21   -1    0    0  503  502  0.00000000000E+00  0.00000000000E+00  0.82964900106E+02  0.82964900106E+02  0.00000000000E+00 0.  1.
         21   -1    0    0  501  503 -0.00000000000E+00 -0.00000000000E+00 -0.71018854160E+03  0.71018854160E+03  0.00000000000E+00 0.  1.
          6    1    1    2  501    0 -0.65660479933E+02 -0.48464691343E+02 -0.55775976707E+03  0.58964827032E+03  0.17300000000E+03 0.  1.
         -6    1    1    2    0  502  0.65660479933E+02  0.48464691343E+02 -0.69463874432E+02  0.20350517139E+03  0.17300000000E+03 0.  1.
<mgrwt>
<rscale>  2 0.19128284E+03</rscale>
<asrwt>0</asrwt>
<pdfrwt beam="1">  1       21 0.12763831E-01 0.19128284E+03</pdfrwt>
<pdfrwt beam="2">  1       21 0.10925978E+00 0.19128284E+03</pdfrwt>
<totfact> 0.34903465E+04</totfact>
</mgrwt>
</event>
<event>
 4    2  0.4039581E+000  0.2298437E+03  0.7546771E-02  0.1126750E+00
         21   -1    0    0  501  502  0.00000000000E+00  0.00000000000E+00  0.36438604542E+03  0.36438604542E+03  0.00000000000E+00 0. -1.
         21   -1    0    0  502  503 -0.00000000000E+00 -0.00000000000E+00 -0.14665458537E+03  0.14665458537E+03  0.00000000000E+00 0. -1.
          6    1    1    2  501    0  0.61489723077E+02 -0.13826828190E+03  0.13618312955E+03  0.26715903241E+03  0.17300000000E+03 0. -1.
         -6    1    1    2    0  503 -0.61489723077E+02  0.13826828190E+03  0.81548330507E+02  0.24388159839E+03  0.17300000000E+03 0. -1.
<mgrwt>
<rscale>  2 0.22984365E+03</rscale>
<asrwt>0</asrwt>
<pdfrwt beam="1">  1       21 0.56059391E-01 0.22984365E+03</pdfrwt>
<pdfrwt beam="2">  1       21 0.22562244E-01 0.22984365E+03</pdfrwt>
<totfact> 0.54205984E+04</totfact>
</mgrwt>
</event>
<event>
 4    2  0.4039581E+000  0.1887583E+03  0.7546771E-02  0.1159586E+00
         21   -1    0    0  503  502  0.00000000000E+00  0.00000000000E+00  0.81752235782E+03  0.81752235782E+03  0.00000000000E+00 0. -1.
         21   -1    0    0  501  503 -0.00000000000E+00 -0.00000000000E+00 -0.59128801386E+02  0.59128801386E+02  0.00000000000E+00 0. -1.
          6    1    1    2  501    0 -0.20692339638E+02  0.72612212759E+02  0.60395219469E+03  0.63276216688E+03  0.17300000000E+03 0. -1.
         -6    1    1    2    0  502  0.20692339638E+02 -0.72612212759E+02  0.15444136175E+03  0.24388899233E+03  0.17300000000E+03 0. -1.
<mgrwt>
<rscale>  2 0.18875833E+03</rscale>
<asrwt>0</asrwt>
<pdfrwt beam="1">  1       21 0.12577266E+00 0.18875833E+03</pdfrwt>
<pdfrwt beam="2">  1       21 0.90967393E-02 0.18875833E+03</pdfrwt>
<totfact> 0.45124908E+04</totfact>
</mgrwt>
</event>
<event>
 4    2  0.4039581E+000  0.1791272E+03  0.7546771E-02  0.1168650E+00
         21   -1    0    0  501  502  0.00000000000E+00  0.00000000000E+00  0.87873184371E+02  0.87873184371E+02  0.00000000000E+00 0.  1.
         21   -1    0    0  502  503 -0.00000000000E+00 -0.00000000000E+00 -0.44086533333E+03  0.44086533333E+03  0.00000000000E+00 0.  1.
          6    1    1    2  501    0  0.28633778950E+02 -0.36573831005E+02 -0.28605845988E+03  0.33751441581E+03  0.17300000000E+03 0.  1.
         -6    1    1    2    0  503 -0.28633778950E+02  0.36573831005E+02 -0.66933689086E+02  0.19122410190E+03  0.17300000000E+03 0.  1.
<mgrwt>
<rscale>  2 0.17912716E+03</rscale>
<asrwt>0</asrwt>
<pdfrwt beam="1">  1       21 0.13518951E-01 0.17912716E+03</pdfrwt>
<pdfrwt beam="2">  1       21 0.67825437E-01 0.17912716E+03</pdfrwt>
<totfact> 0.94575383E+04</totfact>
</mgrwt>
</event>
<event>
 4    2  0.4039581E+000  0.1774508E+03  0.7546771E-02  0.1170293E+00
         21   -1    0    0  503  502  0.00000000000E+00  0.00000000000E+00  0.30960705637E+03  0.30960705637E+03  0.00000000000E+00 0. -1.
         21   -1    0    0  501  503 -0.00000000000E+00 -0.00000000000E+00 -0.10223958732E+03  0.10223958732E+03  0.00000000000E+00 0. -1.
          6    1    1    2  501    0 -0.36991686428E+02  0.13834358957E+02  0.11856560874E+03  0.21341644250E+03  0.17300000000E+03 0.  1.
         -6    1    1    2    0  502  0.36991686428E+02 -0.13834358957E+02  0.88801860306E+02  0.19843020119E+03  0.17300000000E+03 0.  1.
<mgrwt>
<rscale>  2 0.17745077E+03</rscale>
<asrwt>0</asrwt>
<pdfrwt beam="1">  1       21 0.47631854E-01 0.17745077E+03</pdfrwt>
<pdfrwt beam="2">  1       21 0.15729167E-01 0.17745077E+03</pdfrwt>
<totfact> 0.15236541E+05</totfact>
</mgrwt>
</event>
<event>
 4    2  0.4039581E+000  0.1822261E+03  0.7546771E-02  0.1165666E+00
         21   -1    0    0  501  502  0.00000000000E+00  0.00000000000E+00  0.42571435519E+02  0.42571435519E+02  0.00000000000E+00 0. -1.
         21   -1    0    0  502  503 -0.00000000000E+00 -0.00000000000E+00 -0.78888330253E+03  0.78888330253E+03  0.00000000000E+00 0. -1.
          6    1    1    2  501    0 -0.50424380798E+02 -0.27105900178E+02 -0.41723459453E+03  0.45529227413E+03  0.17300000000E+03 0. -1.
         -6    1    1    2    0  503  0.50424380798E+02  0.27105900178E+02 -0.32907727248E+03  0.37616246392E+03  0.17300000000E+03 0. -1.
<mgrwt>
<rscale>  2 0.18222609E+03</rscale>
<asrwt>0</asrwt>
<pdfrwt beam="1">  1       21 0.65494521E-02 0.18222609E+03</pdfrwt>
<pdfrwt beam="2">  1       21 0.12136665E+00 0.18222609E+03</pdfrwt>
<totfact> 0.87516033E+04</totfact>
</mgrwt>
</event>
<event>
 4    2  0.4039581E+000  0.2275985E+03  0.7546771E-02  0.1128342E+00
         21   -1    0    0  501  502  0.00000000000E+00  0.00000000000E+00  0.17421751171E+03  0.17421751171E+03  0.00000000000E+00 0. -1.
         21   -1    0    0  502  503 -0.00000000000E+00 -0.00000000000E+00 -0.29771235586E+03  0.29771235586E+03  0.00000000000E+00 0. -1.
          6    1    1    2  501    0 -0.59123108642E+02  0.13556003134E+03 -0.53352952005E+02  0.23376826466E+03  0.17300000000E+03 0. -1.
         -6    1    1    2    0  503  0.59123108642E+02 -0.13556003134E+03 -0.70141892141E+02  0.23816160292E+03  0.17300000000E+03 0. -1.
<mgrwt>
<rscale>  2 0.22759847E+03</rscale>
<asrwt>0</asrwt>
<pdfrwt beam="1">  1       21 0.26802694E-01 0.22759847E+03</pdfrwt>
<pdfrwt beam="2">  1       21 0.45801901E-01 0.22759847E+03</pdfrwt>
<totfact> 0.59633796E+04</totfact>
</mgrwt>
</event>
<event>
 4    2  0.4039581E+000  0.3195374E+03  0.7546771E-02  0.1075862E+00
         21   -1    0    0  503  502  0.00000000000E+00  0.00000000000E+00  0.11922445199E+03  0.11922445199E+03  0.00000000000E+00 0. -1.
         21   -1    0    0  501  503 -0.00000000000E+00 -0.00000000000E+00 -0.10618849570E+04  0.10618849570E+04  0.00000000000E+00 0.  1.
          6    1    1    2  501    0 -0.57624054479E+02 -0.26240167877E+03 -0.73111179812E+03  0.79789011401E+03  0.17300000000E+03 0. -1.
         -6    1    1    2    0  502  0.57624054479E+02  0.26240167877E+03 -0.21154870693E+03  0.38321929503E+03  0.17300000000E+03 0.  1.
<mgrwt>
<rscale>  2 0.31953744E+03</rscale>
<asrwt>0</asrwt>
<pdfrwt beam="1">  1       21 0.18342223E-01 0.31953744E+03</pdfrwt>
<pdfrwt beam="2">  1       21 0.16336692E+00 0.31953744E+03</pdfrwt>
<totfact> 0.59345114E+03</totfact>
</mgrwt>
</event>
<event>
 4    2  0.4039581E+000  0.2043419E+03  0.7546771E-02  0.1146127E+00
         21   -1    0    0  503  502  0.00000000000E+00  0.00000000000E+00  0.22060758573E+03  0.22060758573E+03  0.00000000000E+00 0. -1.
         21   -1    0    0  501  503 -0.00000000000E+00 -0.00000000000E+00 -0.46614259737E+03  0.46614259737E+03  0.00000000000E+00 0. -1.
          6    1    1    2  501    0 -0.92672164189E+02  0.56907657950E+02 -0.38740115438E+03  0.43799002953E+03  0.17300000000E+03 0. -1.
         -6    1    1    2    0  502  0.92672164189E+02 -0.56907657950E+02  0.14186614274E+03  0.24876015357E+03  0.17300000000E+03 0. -1.
<mgrwt>
<rscale>  2 0.20434190E+03</rscale>
<asrwt>0</asrwt>
<pdfrwt beam="1">  1       21 0.33939629E-01 0.20434190E+03</pdfrwt>
<pdfrwt beam="2">  1       21 0.71714246E-01 0.20434190E+03</pdfrwt>
<totfact> 0.14580802E+04</totfact>
</mgrwt>
</event>
<event>
 4    2  0.4039581E+000  0.1758502E+03  0.7546771E-02  0.1171881E+00
         21   -1    0    0  503  502  0.00000000000E+00  0.00000000000E+00  0.79665790016E+03  0.79665790016E+03  0.00000000000E+00 0.  1.
         21   -1    0    0  501  503 -0.00000000000E+00 -0.00000000000E+00 -0.63623093249E+02  0.63623093249E+02  0.00000000000E+00 0.  1.
          6    1    1    2  501    0  0.16658422691E+01 -0.31488239823E+02  0.97928193982E+02  0.20127894936E+03  0.17300000000E+03 0.  1.
         -6    1    1    2    0  502 -0.16658422691E+01  0.31488239823E+02  0.63510661293E+03  0.65900204405E+03  0.17300000000E+03 0.  1.
<mgrwt>
<rscale>  2 0.17585018E+03</rscale>
<asrwt>0</asrwt>
<pdfrwt beam="1">  1       21 0.12256275E+00 0.17585018E+03</pdfrwt>
<pdfrwt beam="2">  1       21 0.97881688E-02 0.17585018E+03</pdfrwt>
<totfact> 0.42616113E+04</totfact>
</mgrwt>
</event>
<event>
 4    2  0.4039581E+000  0.2272305E+03  0.7546771E-02  0.1128604E+00
         21   -1    0    0  501  502  0.00000000000E+00  0.00000000000E+00  0.27922417533E+03  0.27922417533E+03  0.00000000000E+00 0. -1.
         21   -1    0    0  502  503 -0.00000000000E+00 -0.00000000000E+00 -0.20271893854E+03  0.20271893854E+03  0.00000000000E+00 0.  1.
          6    1    1    2  501    0  0.94865722845E+02  0.11271731461E+03  0.10965862206E+03  0.25230678108E+03  0.17300000000E+03 0. -1.
         -6    1    1    2    0  503 -0.94865722845E+02 -0.11271731461E+03 -0.33153385266E+02  0.22963633279E+03  0.17300000000E+03 0.  1.
<mgrwt>
<rscale>  2 0.22723050E+03</rscale>
<asrwt>0</asrwt>
<pdfrwt beam="1">  1       21 0.42957566E-01 0.22723050E+03</pdfrwt>
<pdfrwt beam="2">  1       21 0.31187529E-01 0.22723050E+03</pdfrwt>
<totfact> 0.50656937E+04</totfact>
</mgrwt>
</event>
<event>
 4    2  0.4039581E+000  0.2602272E+03  0.7546771E-02  0.1107007E+00
         21   -1    0    0  503  502  0.00000000000E+00  0.00000000000E+00  0.51251697854E+02  0.51251697854E+02  0.00000000000E+00 0. -1.
         21   -1    0    0  501  503 -0.00000000000E+00 -0.00000000000E+00 -0.18350020653E+04  0.18350020653E+04  0.00000000000E+00 0.  1.
          6    1    1    2  501    0 -0.45523732034E+02  0.18898878611E+03 -0.13908897797E+04  0.14150238693E+04  0.17300000000E+03 0.  1.
         -6    1    1    2    0  502  0.45523732034E+02 -0.18898878611E+03 -0.39286058780E+03  0.47122989389E+03  0.17300000000E+03 0. -1.
<mgrwt>
<rscale>  2 0.26022715E+03</rscale>
<asrwt>0</asrwt>
<pdfrwt beam="1">  1       21 0.78848770E-02 0.26022715E+03</pdfrwt>
<pdfrwt beam="2">  1       21 0.28230800E+00 0.26022715E+03</pdfrwt>
<totfact> 0.49762749E+03</totfact>
</mgrwt>
</event>
<event>
 4    2  0.4039581E+000  0.1759977E+03  0.7546771E-02  0.1171734E+00
         21   -1    0    0  501  502  0.00000000000E+00  0.00000000000E+00  0.32832350317E+02  0.32832350317E+02  0.00000000000E+00 0.  1.
         21   -1    0    0  502  503 -0.00000000000E+00 -0.00000000000E+00 -0.12592475286E+04  0.12592475286E+04  0.00000000000E+00 0.  1.
          6    1    1    2  501    0 -0.32344970495E+02 -0.74237895913E-01 -0.28967488019E+03  0.33894946355E+03  0.17300000000E+03 0.  1.
         -6    1    1    2    0  503  0.32344970495E+02  0.74237895913E-01 -0.93674029805E+03  0.95313041533E+03  0.17300000000E+03 0.  1.
<mgrwt>
<rscale>  2 0.17599773E+03</rscale>
<asrwt>0</asrwt>
<pdfrwt beam="1">  1       21 0.50511300E-02 0.17599773E+03</pdfrwt>
<pdfrwt beam="2">  1       21 0.19373042E+00 0.17599773E+03</pdfrwt>
<totfact> 0.39421604E+04</totfact>
</mgrwt>
</event>
<event>
 4    2  0.4039581E+000  0.1971729E+03  0.7546771E-02  0.1152146E+00
         21   -1    0    0  501  502  0.00000000000E+00  0.00000000000E+00  0.82148657274E+03  0.82148657274E+03  0.00000000000E+00 0.  1.
         21   -1    0    0  502  503 -0.00000000000E+00 -0.00000000000E+00 -0.10552979727E+03  0.10552979727E+03  0.00000000000E+00 0.  1.
          6    1    1    2  501    0  0.38511664033E+02  0.86400203518E+02  0.70220775845E+03  0.72936470950E+03  0.17300000000E+03 0.  1.
         -6    1    1    2    0  503 -0.38511664033E+02 -0.86400203518E+02  0.13749017015E+02  0.19765166051E+03  0.17300000000E+03 0.  1.
<mgrwt>
<rscale>  2 0.19717288E+03</rscale>
<asrwt>0</asrwt>
<pdfrwt beam="1">  1       21 0.12638255E+00 0.19717288E+03</pdfrwt>
<pdfrwt beam="2">  1       21 0.16235354E-01 0.19717288E+03</pdfrwt>
<totfact> 0.15705889E+04</totfact>
</mgrwt>
</event>
<event>
 4    2  0.4039581E+000  0.1833884E+03  0.7546771E-02  0.1164563E+00
         21   -1    0    0  503  502  0.00000000000E+00  0.00000000000E+00  0.12767522055E+04  0.12767522055E+04  0.00000000000E+00 0.  1.
         21   -1    0    0  501  503 -0.00000000000E+00 -0.00000000000E+00 -0.26568217883E+02  0.26568217883E+02  0.00000000000E+00 0.  1.
          6    1    1    2  501    0 -0.54204043839E+02  0.27644753637E+02  0.56486711590E+03  0.59389070492E+03  0.17300000000E+03 0.  1.
         -6    1    1    2    0  502  0.54204043839E+02 -0.27644753637E+02  0.68531687175E+03  0.70942971849E+03  0.17300000000E+03 0.  1.
<mgrwt>
<rscale>  2 0.18338842E+03</rscale>
<asrwt>0</asrwt>
<pdfrwt beam="1">  1       21 0.19642337E+00 0.18338842E+03</pdfrwt>
<pdfrwt beam="2">  1       21 0.40874191E-02 0.18338842E+03</pdfrwt>
<totfact> 0.53826099E+04</totfact>
</mgrwt>
</event>
<event>
 4    2  0.4039581E+000  0.3198620E+03  0.7546771E-02  0.1075713E+00
         21   -1    0    0  501  502  0.00000000000E+00  0.00000000000E+00  0.57866291225E+03  0.57866291225E+03  0.00000000000E+00 0. -1.
         21   -1    0    0  502  503 -0.00000000000E+00 -0.00000000000E+00 -0.28377507291E+03  0.28377507291E+03  0.00000000000E+00 0. -1.
          6    1    1    2  501    0 -0.19327557218E+03  0.18715564645E+03  0.41219500057E+03  0.52174361644E+03  0.17300000000E+03 0. -1.
         -6    1    1    2    0  503  0.19327557218E+03 -0.18715564645E+03 -0.11730716124E+03  0.34069436872E+03  0.17300000000E+03 0. -1.
<mgrwt>
<rscale>  2 0.31986197E+03</rscale>
<asrwt>0</asrwt>
<pdfrwt beam="1">  1       21 0.89025063E-01 0.31986197E+03</pdfrwt>
<pdfrwt beam="2">  1       21 0.43657704E-01 0.31986197E+03</pdfrwt>
<totfact> 0.50238176E+03</totfact>
</mgrwt>
</event>
<event>
 4    2  0.4039581E+000  0.1750550E+03  0.7546771E-02  0.1172676E+00
         21   -1    0    0  501  502  0.00000000000E+00  0.00000000000E+00  0.52895886108E+02  0.52895886108E+02  0.00000000000E+00 0. -1.
         21   -1    0    0  502  503 -0.00000000000E+00 -0.00000000000E+00 -0.58161022086E+03  0.58161022086E+03  0.00000000000E+00 0. -1.
          6    1    1    2  501    0 -0.24672764218E+02  0.10320894931E+02 -0.24450025514E+03  0.30070690203E+03  0.17300000000E+03 0. -1.
         -6    1    1    2    0  503  0.24672764218E+02 -0.10320894931E+02 -0.28421407961E+03  0.33379920494E+03  0.17300000000E+03 0. -1.
<mgrwt>
<rscale>  2 0.17505504E+03</rscale>
<asrwt>0</asrwt>
<pdfrwt beam="1">  1       21 0.81378284E-02 0.17505504E+03</pdfrwt>
<pdfrwt beam="2">  1       21 0.89478499E-01 0.17505504E+03</pdfrwt>
<totfact> 0.12485848E+05</totfact>
</mgrwt>
</event>
<event>
 4    2  0.4039581E+000  0.1851453E+03  0.7546771E-02  0.1162914E+00
         21   -1    0    0  501  502  0.00000000000E+00  0.00000000000E+00  0.22780785661E+02  0.22780785661E+02  0.00000000000E+00 0. -1.
         21   -1    0    0  502  503 -0.00000000000E+00 -0.00000000000E+00 -0.15056873594E+04  0.15056873594E+04  0.00000000000E+00 0. -1.
          6    1    1    2  501    0 -0.59987202462E+02  0.27410123092E+02 -0.76079111158E+03  0.78299546280E+03  0.17300000000E+03 0. -1.
         -6    1    1    2    0  503  0.59987202462E+02 -0.27410123092E+02 -0.72211546218E+03  0.74547268228E+03  0.17300000000E+03 0. -1.
<mgrwt>
<rscale>  2 0.18514529E+03</rscale>
<asrwt>0</asrwt>
<pdfrwt beam="1">  1       21 0.35047351E-02 0.18514529E+03</pdfrwt>
<pdfrwt beam="2">  1       21 0.23164428E+00 0.18514529E+03</pdfrwt>
<totfact> 0.42013148E+04</totfact>
</mgrwt>
</event>
<event>
 4    2  0.4039581E+000  0.1833741E+03  0.7546771E-02  0.1164577E+00
         21   -1    0    0  503  502  0.00000000000E+00  0.00000000000E+00  0.21544702124E+03  0.21544702124E+03  0.00000000000E+00 0. -1.
         21   -1    0    0  501  503 -0.00000000000E+00 -0.00000000000E+00 -0.15885084955E+03  0.15885084955E+03  0.00000000000E+00 0.  1.
          6    1    1    2  501    0 -0.46900891673E+02 -0.38695697412E+02  0.53034321635E+02  0.19088920847E+03  0.17300000000E+03 0.  1.
         -6    1    1    2    0  502  0.46900891673E+02  0.38695697412E+02  0.35618500487E+01  0.18340866232E+03  0.17300000000E+03 0. -1.
<mgrwt>
<rscale>  2 0.18337407E+03</rscale>
<asrwt>0</asrwt>
<pdfrwt beam="1">  1       21 0.33145696E-01 0.18337407E+03</pdfrwt>
<pdfrwt beam="2">  1       21 0.24438592E-01 0.18337407E+03</pdfrwt>
<totfact> 0.13904906E+05</totfact>
</mgrwt>
</event>
<event>
 4    2  0.4039581E+000  0.2151559E+03  0.7546771E-02  0.1137547E+00
         21   -1    0    0  501  502  0.00000000000E+00  0.00000000000E+00  0.10277499463E+04  0.10277499463E+04  0.00000000000E+00 0.  1.
         21   -1    0    0  502  503 -0.00000000000E+00 -0.00000000000E+00 -0.87815773466E+02  0.87815773466E+02  0.00000000000E+00 0.  1.
          6    1    1    2  501    0  0.18676495662E+02 -0.12654745934E+03  0.85925139819E+03  0.88577933835E+03  0.17300000000E+03 0.  1.
         -6    1    1    2    0  503 -0.18676495662E+02  0.12654745934E+03  0.80682774628E+02  0.22978638140E+03  0.17300000000E+03 0.  1.
<mgrwt>
<rscale>  2 0.21515592E+03</rscale>
<asrwt>0</asrwt>
<pdfrwt beam="1">  1       21 0.15811537E+00 0.21515592E+03</pdfrwt>
<pdfrwt beam="2">  1       21 0.13510120E-01 0.21515592E+03</pdfrwt>
<totfact> 0.12122885E+04</totfact>
</mgrwt>
</event>
<event>
 4    2  0.4039581E+000  0.2183998E+03  0.7546771E-02  0.1135082E+00
         21   -1    0    0  501  502  0.00000000000E+00  0.00000000000E+00  0.88004829069E+02  0.88004829069E+02  0.00000000000E+00 0.  1.
         21   -1    0    0  502  503 -0.00000000000E+00 -0.00000000000E+00 -0.75352712148E+03  0.75352712148E+03  0.00000000000E+00 0. -1.
          6    1    1    2  501    0  0.97548464513E+02  0.90850264062E+02 -0.10982736689E+03  0.24445965705E+03  0.17300000000E+03 0.  1.
         -6    1    1    2    0  503 -0.97548464513E+02 -0.90850264062E+02 -0.55569492553E+03  0.59707229350E+03  0.17300000000E+03 0. -1.
<mgrwt>
<rscale>  2 0.21839980E+03</rscale>
<asrwt>0</asrwt>
<pdfrwt beam="1">  1       21 0.13539205E-01 0.21839980E+03</pdfrwt>
<pdfrwt beam="2">  1       21 0.11592725E+00 0.21839980E+03</pdfrwt>
<totfact> 0.26751570E+04</totfact>
</mgrwt>
</event>
<event>
 4    2  0.4039581E+000  0.1778240E+03  0.7546771E-02  0.1169926E+00
         21   -1    0    0  501  502  0.00000000000E+00  0.00000000000E+00  0.16211425152E+03  0.16211425152E+03  0.00000000000E+00 0.  1.
         21   -1    0    0  502  503 -0.00000000000E+00 -0.00000000000E+00 -0.31812232856E+03  0.31812232856E+03  0.00000000000E+00 0. -1.
          6    1    1    2  501    0 -0.29117584892E+02 -0.29060742522E+02  0.71343391808E+02  0.19160177468E+03  0.17300000000E+03 0.  1.
         -6    1    1    2    0  503  0.29117584892E+02  0.29060742522E+02 -0.22735146885E+03  0.28863480541E+03  0.17300000000E+03 0. -1.
<mgrwt>
<rscale>  2 0.17782396E+03</rscale>
<asrwt>0</asrwt>
<pdfrwt beam="1">  1       21 0.24940654E-01 0.17782396E+03</pdfrwt>
<pdfrwt beam="2">  1       21 0.48941897E-01 0.17782396E+03</pdfrwt>
<totfact> 0.61020480E+04</totfact>
</mgrwt>
</event>
<event>
 4    2  0.4039581E+000  0.1941272E+03  0.7546771E-02  0.1154791E+00
         21   -1    0    0  501  502  0.00000000000E+00  0.00000000000E+00  0.60725354600E+02  0.60725354600E+02  0.00000000000E+00 0. -1.
         21   -1    0    0  502  503 -0.00000000000E+00 -0.00000000000E+00 -0.79319347288E+03  0.79319347288E+03  0.00000000000E+00 0. -1.
          6    1    1    2  501    0  0.84968467501E+02 -0.23167185530E+02 -0.16706324207E+03  0.25611615686E+03  0.17300000000E+03 0. -1.
         -6    1    1    2    0  503 -0.84968467501E+02  0.23167185530E+02 -0.56540487622E+03  0.59780267062E+03  0.17300000000E+03 0. -1.
<mgrwt>
<rscale>  2 0.19412717E+03</rscale>
<asrwt>0</asrwt>
<pdfrwt beam="1">  1       21 0.93423623E-02 0.19412717E+03</pdfrwt>
<pdfrwt beam="2">  1       21 0.12202976E+00 0.19412717E+03</pdfrwt>
<totfact> 0.46304226E+04</totfact>
</mgrwt>
</event>
<event>
 4    2  0.4039581E+000  0.2123681E+03  0.7546771E-02  0.1139704E+00
         21   -1    0    0  503  502  0.00000000000E+00  0.00000000000E+00  0.16049759215E+03  0.16049759215E+03  0.00000000000E+00 0. -1.
         21   -1    0    0  501  503 -0.00000000000E+00 -0.00000000000E+00 -0.33879824031E+03  0.33879824031E+03  0.00000000000E+00 0. -1.
          6    1    1    2  501    0  0.50899540306E+02  0.11216251816E+03  0.13960916619E+02  0.21282645718E+03  0.17300000000E+03 0. -1.
         -6    1    1    2    0  502 -0.50899540306E+02 -0.11216251816E+03 -0.19226156477E+03  0.28646937528E+03  0.17300000000E+03 0. -1.
<mgrwt>
<rscale>  2 0.21236806E+03</rscale>
<asrwt>0</asrwt>
<pdfrwt beam="1">  1       21 0.24691938E-01 0.21236806E+03</pdfrwt>
<pdfrwt beam="2">  1       21 0.52122805E-01 0.21236806E+03</pdfrwt>
<totfact> 0.53670900E+04</totfact>
</mgrwt>
</event>
<event>
 4    2  0.4039581E+000  0.3161112E+03  0.7546771E-02  0.1077453E+00
         21   -1    0    0  503  502  0.00000000000E+00  0.00000000000E+00  0.27420487480E+03  0.27420487480E+03  0.00000000000E+00 0. -1.
         21   -1    0    0  501  503 -0.00000000000E+00 -0.00000000000E+00 -0.39545906756E+03  0.39545906756E+03  0.00000000000E+00 0.  1.
          6    1    1    2  501    0  0.23549986802E+03 -0.12056999206E+03 -0.15442992432E+03  0.35181658908E+03  0.17300000000E+03 0.  1.
         -6    1    1    2    0  502 -0.23549986802E+03  0.12056999206E+03  0.33175731555E+02  0.31784735328E+03  0.17300000000E+03 0. -1.
<mgrwt>
<rscale>  2 0.31611123E+03</rscale>
<asrwt>0</asrwt>
<pdfrwt beam="1">  1       21 0.42185365E-01 0.31611123E+03</pdfrwt>
<pdfrwt beam="2">  1       21 0.60839857E-01 0.31611123E+03</pdfrwt>
<totfact> 0.12750478E+04</totfact>
</mgrwt>
</event>
<event>
 4    2  0.4039581E+000  0.2023422E+03  0.7546771E-02  0.1147778E+00
         21   -1    0    0  503  502  0.00000000000E+00  0.00000000000E+00  0.42591339669E+03  0.42591339669E+03  0.00000000000E+00 0.  1.
         21   -1    0    0  501  503 -0.00000000000E+00 -0.00000000000E+00 -0.16903843873E+03  0.16903843873E+03  0.00000000000E+00 0. -1.
          6    1    1    2  501    0 -0.47857759635E+02 -0.93396995169E+02 -0.66930240688E+02  0.21312442606E+03  0.17300000000E+03 0. -1.
         -6    1    1    2    0  502  0.47857759635E+02  0.93396995169E+02  0.32380519865E+03  0.38182740936E+03  0.17300000000E+03 0.  1.
<mgrwt>
<rscale>  2 0.20234219E+03</rscale>
<asrwt>0</asrwt>
<pdfrwt beam="1">  1       21 0.65525138E-01 0.20234219E+03</pdfrwt>
<pdfrwt beam="2">  1       21 0.26005914E-01 0.20234219E+03</pdfrwt>
<totfact> 0.29919380E+04</totfact>
</mgrwt>
</event>
<event>
 4    2  0.4039581E+000  0.1984918E+03  0.7546771E-02  0.1151018E+00
         21   -1    0    0  503  502  0.00000000000E+00  0.00000000000E+00  0.76551358698E+02  0.76551358698E+02  0.00000000000E+00 0.  1.
         21   -1    0    0  501  503 -0.00000000000E+00 -0.00000000000E+00 -0.63936690828E+03  0.63936690828E+03  0.00000000000E+00 0.  1.
          6    1    1    2  501    0 -0.96462385475E+02  0.12845565210E+02 -0.43948856675E+03  0.48223355406E+03  0.17300000000E+03 0.  1.
         -6    1    1    2    0  502  0.96462385475E+02 -0.12845565210E+02 -0.12332698283E+03  0.23368471292E+03  0.17300000000E+03 0.  1.
<mgrwt>
<rscale>  2 0.19849181E+03</rscale>
<asrwt>0</asrwt>
<pdfrwt beam="1">  1       21 0.11777132E-01 0.19849181E+03</pdfrwt>
<pdfrwt beam="2">  1       21 0.98364140E-01 0.19849181E+03</pdfrwt>
<totfact> 0.51645253E+04</totfact>
</mgrwt>
</event>
<event>
 4    2  0.4039581E+000  0.2746094E+03  0.7546771E-02  0.1098670E+00
         21   -1    0    0  503  502  0.00000000000E+00  0.00000000000E+00  0.60089646083E+03  0.60089646083E+03  0.00000000000E+00 0. -1.
         21   -1    0    0  501  503 -0.00000000000E+00 -0.00000000000E+00 -0.12790550537E+03  0.12790550537E+03  0.00000000000E+00 0.  1.
          6    1    1    2  501    0 -0.18146456354E+03 -0.11203532854E+03  0.18648410093E+03  0.33194370390E+03  0.17300000000E+03 0.  1.
         -6    1    1    2    0  502  0.18146456354E+03  0.11203532854E+03  0.28650685453E+03  0.39685826230E+03  0.17300000000E+03 0. -1.
<mgrwt>
<rscale>  2 0.27460936E+03</rscale>
<asrwt>0</asrwt>
<pdfrwt beam="1">  1       21 0.92445608E-01 0.27460936E+03</pdfrwt>
<pdfrwt beam="2">  1       21 0.19677770E-01 0.27460936E+03</pdfrwt>
<totfact> 0.22509797E+04</totfact>
</mgrwt>
</event>
<event>
 4    2  0.4039581E+000  0.2323176E+03  0.7546771E-02  0.1125019E+00
         21   -1    0    0  501  502  0.00000000000E+00  0.00000000000E+00  0.80161502700E+02  0.80161502700E+02  0.00000000000E+00 0.  1.
         21   -1    0    0  502  503 -0.00000000000E+00 -0.00000000000E+00 -0.82628430525E+03  0.82628430525E+03  0.00000000000E+00 0. -1.
          6    1    1    2  501    0 -0.38456451163E+02 -0.15021180656E+03 -0.17803529720E+03  0.29269105301E+03  0.17300000000E+03 0.  1.
         -6    1    1    2    0  503  0.38456451163E+02  0.15021180656E+03 -0.56808750535E+03  0.61375475493E+03  0.17300000000E+03 0. -1.
<mgrwt>
<rscale>  2 0.23231764E+03</rscale>
<asrwt>0</asrwt>
<pdfrwt beam="1">  1       21 0.12332539E-01 0.23231764E+03</pdfrwt>
<pdfrwt beam="2">  1       21 0.12712066E+00 0.23231764E+03</pdfrwt>
<totfact> 0.24967251E+04</totfact>
</mgrwt>
</event>
<event>
 4    2  0.4039581E+000  0.1731387E+03  0.7546771E-02  0.1174614E+00
         21   -1    0    0  503  502  0.00000000000E+00  0.00000000000E+00  0.42567833727E+03  0.42567833727E+03  0.00000000000E+00 0.  1.
         21   -1    0    0  501  503 -0.00000000000E+00 -0.00000000000E+00 -0.12361869537E+03  0.12361869537E+03  0.00000000000E+00 0.  1.
          6    1    1    2  501    0  0.39435462106E+01 -0.56986456159E+01 -0.29138489314E+02  0.17557356771E+03  0.17300000000E+03 0.  1.
         -6    1    1    2    0  502 -0.39435462106E+01  0.56986456159E+01  0.33119813121E+03  0.37372346493E+03  0.17300000000E+03 0.  1.
<mgrwt>
<rscale>  2 0.17313875E+03</rscale>
<asrwt>0</asrwt>
<pdfrwt beam="1">  1       21 0.65488974E-01 0.17313875E+03</pdfrwt>
<pdfrwt beam="2">  1       21 0.19018261E-01 0.17313875E+03</pdfrwt>
<totfact> 0.54864231E+04</totfact>
</mgrwt>
</event>
<event>
 4    2  0.4039581E+000  0.2272113E+03  0.7546771E-02  0.1128618E+00
         21   -1    0    0  503  502  0.00000000000E+00  0.00000000000E+00  0.41622907685E+03  0.41622907685E+03  0.00000000000E+00 0. -1.
         21   -1    0    0  501  503 -0.00000000000E+00 -0.00000000000E+00 -0.22483266571E+03  0.22483266571E+03  0.00000000000E+00 0. -1.
          6    1    1    2  501    0  0.95827987117E+02  0.11186136053E+03 -0.11892455725E+03  0.25645275864E+03  0.17300000000E+03 0. -1.
         -6    1    1    2    0  502 -0.95827987117E+02 -0.11186136053E+03  0.31032096839E+03  0.38460898392E+03  0.17300000000E+03 0. -1.
<mgrwt>
<rscale>  2 0.22721128E+03</rscale>
<asrwt>0</asrwt>
<pdfrwt beam="1">  1       21 0.64035243E-01 0.22721128E+03</pdfrwt>
<pdfrwt beam="2">  1       21 0.34589641E-01 0.22721128E+03</pdfrwt>
<totfact> 0.17771434E+04</totfact>
</mgrwt>
</event>
<event>
 4    2  0.4039581E+000  0.1866087E+03  0.7546771E-02  0.1161556E+00
         21   -1    0    0  503  502  0.00000000000E+00  0.00000000000E+00  0.12837257660E+04  0.12837257660E+04  0.00000000000E+00 0.  1.
         21   -1    0    0  501  503 -0.00000000000E+00 -0.00000000000E+00 -0.51978881100E+02  0.51978881100E+02  0.00000000000E+00 0.  1.
          6    1    1    2  501    0  0.21582829765E+02  0.66543002949E+02  0.15407515015E+03  0.24199574723E+03  0.17300000000E+03 0.  1.
         -6    1    1    2    0  502 -0.21582829765E+02 -0.66543002949E+02  0.10776717347E+04  0.10937088998E+04  0.17300000000E+03 0.  1.
<mgrwt>
<rscale>  2 0.18660865E+03</rscale>
<asrwt>0</asrwt>
<pdfrwt beam="1">  1       21 0.19749625E+00 0.18660865E+03</pdfrwt>
<pdfrwt beam="2">  1       21 0.79967519E-02 0.18660865E+03</pdfrwt>
<totfact> 0.16812985E+04</totfact>
</mgrwt>
</event>
<event>
 4    2  0.4039581E+000  0.2705780E+03  0.7546771E-02  0.1100949E+00
         21   -1    0    0  503  502  0.00000000000E+00  0.00000000000E+00  0.68175696089E+03  0.68175696089E+03  0.00000000000E+00 0. -1.
         21   -1    0    0  501  503 -0.00000000000E+00 -0.00000000000E+00 -0.13111231748E+03  0.13111231748E+03  0.00000000000E+00 0.  1.
          6    1    1    2  501    0  0.34806953023E+02  0.20511439759E+03  0.10243352275E+03  0.28931827916E+03  0.17300000000E+03 0.  1.
         -6    1    1    2    0  502 -0.34806953023E+02 -0.20511439759E+03  0.44821112066E+03  0.52355099920E+03  0.17300000000E+03 0. -1.
<mgrwt>
<rscale>  2 0.27057797E+03</rscale>
<asrwt>0</asrwt>
<pdfrwt beam="1">  1       21 0.10488568E+00 0.27057797E+03</pdfrwt>
<pdfrwt beam="2">  1       21 0.20171126E-01 0.27057797E+03</pdfrwt>
<totfact> 0.15922983E+04</totfact>
</mgrwt>
</event>
<event>
 4    2  0.4039581E+000  0.2037211E+03  0.7546771E-02  0.1146637E+00
         21   -1    0    0  503  502  0.00000000000E+00  0.00000000000E+00  0.41992716578E+03  0.41992716578E+03  0.00000000000E+00 0.  1.
         21   -1    0    0  501  503 -0.00000000000E+00 -0.00000000000E+00 -0.19288318605E+03  0.19288318605E+03  0.00000000000E+00 0. -1.
          6    1    1    2  501    0  0.63247361821E+02  0.87023211980E+02 -0.10043717993E+03  0.22713409104E+03  0.17300000000E+03 0. -1.
         -6    1    1    2    0  502 -0.63247361821E+02 -0.87023211980E+02  0.32748115966E+03  0.38567626079E+03  0.17300000000E+03 0.  1.
<mgrwt>
<rscale>  2 0.20372105E+03</rscale>
<asrwt>0</asrwt>
<pdfrwt beam="1">  1       21 0.64604179E-01 0.20372105E+03</pdfrwt>
<pdfrwt beam="2">  1       21 0.29674336E-01 0.20372105E+03</pdfrwt>
<totfact> 0.23887218E+04</totfact>
</mgrwt>
</event>
<event>
 4    2  0.4039581E+000  0.1768709E+03  0.7546771E-02  0.1170866E+00
         21   -1    0    0  503  502  0.00000000000E+00  0.00000000000E+00  0.18568620546E+03  0.18568620546E+03  0.00000000000E+00 0. -1.
         21   -1    0    0  501  503 -0.00000000000E+00 -0.00000000000E+00 -0.18047020877E+03  0.18047020877E+03  0.00000000000E+00 0. -1.
          6    1    1    2  501    0 -0.25248332655E+02 -0.26773660683E+02 -0.44593412369E+02  0.18240581031E+03  0.17300000000E+03 0. -1.
         -6    1    1    2    0  502  0.25248332655E+02  0.26773660683E+02  0.49809409060E+02  0.18375060391E+03  0.17300000000E+03 0. -1.
<mgrwt>
<rscale>  2 0.17687088E+03</rscale>
<asrwt>0</asrwt>
<pdfrwt beam="1">  1       21 0.28567109E-01 0.17687088E+03</pdfrwt>
<pdfrwt beam="2">  1       21 0.27764647E-01 0.17687088E+03</pdfrwt>
<totfact> 0.14588341E+05</totfact>
</mgrwt>
</event>
<event>
 4    2  0.4039581E+000  0.2128945E+03  0.7546771E-02  0.1139294E+00
         21   -1    0    0  501  502  0.00000000000E+00  0.00000000000E+00  0.69124004924E+03  0.69124004924E+03  0.00000000000E+00 0. -1.
         21   -1    0    0  502  503 -0.00000000000E+00 -0.00000000000E+00 -0.11092831770E+03  0.11092831770E+03  0.00000000000E+00 0. -1.
          6    1    1    2  501    0 -0.12404508706E+03 -0.28103694026E+01  0.54663169962E+03  0.58662619856E+03  0.17300000000E+03 0. -1.
         -6    1    1    2    0  503  0.12404508706E+03  0.28103694026E+01  0.33680031913E+02  0.21554216838E+03  0.17300000000E+03 0. -1.
<mgrwt>
<rscale>  2 0.21289453E+03</rscale>
<asrwt>0</asrwt>
<pdfrwt beam="1">  1       21 0.10634462E+00 0.21289453E+03</pdfrwt>
<pdfrwt beam="2">  1       21 0.17065895E-01 0.21289453E+03</pdfrwt>
<totfact> 0.21681629E+04</totfact>
</mgrwt>
</event>
<event>
 4    2  0.4039581E+000  0.2014861E+03  0.7546771E-02  0.1148491E+00
         21   -1    0    0  503  502  0.00000000000E+00  0.00000000000E+00  0.97450950820E+03  0.97450950820E+03  0.00000000000E+00 0.  1.
         21   -1    0    0  501  503 -0.00000000000E+00 -0.00000000000E+00 -0.11115988444E+03  0.11115988444E+03  0.00000000000E+00 0.  1.
          6    1    1    2  501    0  0.54489548704E+02  0.87741389767E+02  0.24447834897E+01  0.20150096616E+03  0.17300000000E+03 0.  1.
         -6    1    1    2    0  502 -0.54489548704E+02 -0.87741389767E+02  0.86090484027E+03  0.88416842649E+03  0.17300000000E+03 0.  1.
<mgrwt>
<rscale>  2 0.20148613E+03</rscale>
<asrwt>0</asrwt>
<pdfrwt beam="1">  1       21 0.14992453E+00 0.20148613E+03</pdfrwt>
<pdfrwt beam="2">  1       21 0.17101521E-01 0.20148613E+03</pdfrwt>
<totfact> 0.91730886E+03</totfact>
</mgrwt>
</event>
<event>
 4    2  0.4039581E+000  0.1879054E+03  0.7546771E-02  0.1160364E+00
         21   -1    0    0  503  502  0.00000000000E+00  0.00000000000E+00  0.47858457026E+03  0.47858457026E+03  0.00000000000E+00 0. -1.
         21   -1    0    0  501  503 -0.00000000000E+00 -0.00000000000E+00 -0.11918008303E+03  0.11918008303E+03  0.00000000000E+00 0. -1.
          6    1    1    2  501    0  0.31184464733E+02  0.66385047703E+02 -0.47746382432E+01  0.18796606760E+03  0.17300000000E+03 0. -1.
         -6    1    1    2    0  502 -0.31184464733E+02 -0.66385047703E+02  0.36417912547E+03  0.40979858569E+03  0.17300000000E+03 0. -1.
<mgrwt>
<rscale>  2 0.18790542E+03</rscale>
<asrwt>0</asrwt>
<pdfrwt beam="1">  1       21 0.73628394E-01 0.18790542E+03</pdfrwt>
<pdfrwt beam="2">  1       21 0.18335398E-01 0.18790542E+03</pdfrwt>
<totfact> 0.45055947E+04</totfact>
</mgrwt>
</event>
<event>
 4    2  0.4039581E+000  0.1967955E+03  0.7546771E-02  0.1152471E+00
         21   -1    0    0  501  502  0.00000000000E+00  0.00000000000E+00  0.78655318419E+03  0.78655318419E+03  0.00000000000E+00 0.  1.
         21   -1    0    0  502  503 -0.00000000000E+00 -0.00000000000E+00 -0.69890556342E+02  0.69890556342E+02  0.00000000000E+00 0.  1.
          6    1    1    2  501    0  0.90559863859E+02  0.24461624779E+02  0.59111065780E+03  0.62300904471E+03  0.17300000000E+03 0.  1.
         -6    1    1    2    0  503 -0.90559863859E+02 -0.24461624779E+02  0.12555197004E+03  0.23343469582E+03  0.17300000000E+03 0.  1.
<mgrwt>
<rscale>  2 0.19679548E+03</rscale>
<asrwt>0</asrwt>
<pdfrwt beam="1">  1       21 0.12100818E+00 0.19679548E+03</pdfrwt>
<pdfrwt beam="2">  1       21 0.10752394E-01 0.19679548E+03</pdfrwt>
<totfact> 0.36825218E+04</totfact>
</mgrwt>
</event>
<event>
 4    2  0.4039581E+000  0.2108193E+03  0.7546771E-02  0.1140919E+00
         21   -1    0    0  501  502  0.00000000000E+00  0.00000000000E+00  0.10112734395E+03  0.10112734395E+03  0.00000000000E+00 0. -1.
         21   -1    0    0  502  503 -0.00000000000E+00 -0.00000000000E+00 -0.59171098337E+03  0.59171098337E+03  0.00000000000E+00 0. -1.
          6    1    1    2  501    0  0.10588289052E+03 -0.57485413637E+02 -0.69588453344E+02  0.22200745961E+03  0.17300000000E+03 0. -1.
         -6    1    1    2    0  503 -0.10588289052E+03  0.57485413637E+02 -0.42099518607E+03  0.47083086770E+03  0.17300000000E+03 0. -1.
<mgrwt>
<rscale>  2 0.21081926E+03</rscale>
<asrwt>0</asrwt>
<pdfrwt beam="1">  1       21 0.15558053E-01 0.21081926E+03</pdfrwt>
<pdfrwt beam="2">  1       21 0.91032456E-01 0.21081926E+03</pdfrwt>
<totfact> 0.37187808E+04</totfact>
</mgrwt>
</event>
<event>
 4    2  0.4039581E+000  0.1997199E+03  0.7546771E-02  0.1149976E+00
         21   -1    0    0  501  502  0.00000000000E+00  0.00000000000E+00  0.98700172129E+02  0.98700172129E+02  0.00000000000E+00 0.  1.
         21   -1    0    0  502  503 -0.00000000000E+00 -0.00000000000E+00 -0.44381009582E+03  0.44381009582E+03  0.00000000000E+00 0.  1.
          6    1    1    2  501    0  0.59582183940E+02 -0.80056156853E+02 -0.91449939025E+02  0.21966136720E+03  0.17300000000E+03 0.  1.
         -6    1    1    2    0  503 -0.59582183940E+02  0.80056156853E+02 -0.25365998466E+03  0.32284890075E+03  0.17300000000E+03 0.  1.
<mgrwt>
<rscale>  2 0.19971987E+03</rscale>
<asrwt>0</asrwt>
<pdfrwt beam="1">  1       21 0.15184642E-01 0.19971987E+03</pdfrwt>
<pdfrwt beam="2">  1       21 0.68278477E-01 0.19971987E+03</pdfrwt>
<totfact> 0.74850653E+04</totfact>
</mgrwt>
</event>
<event>
 4    2  0.4039581E+000  0.2061720E+03  0.7546771E-02  0.1144634E+00
         21   -1    0    0  501  502  0.00000000000E+00  0.00000000000E+00  0.34184047735E+03  0.34184047735E+03  0.00000000000E+00 0. -1.
         21   -1    0    0  502  503 -0.00000000000E+00 -0.00000000000E+00 -0.15138795750E+03  0.15138795750E+03  0.00000000000E+00 0. -1.
          6    1    1    2  501    0 -0.10606276055E+03 -0.36449845722E+02 -0.90011649503E+01  0.20636841183E+03  0.17300000000E+03 0.  1.
         -6    1    1    2    0  503  0.10606276055E+03  0.36449845722E+02  0.19945368480E+03  0.28686002302E+03  0.17300000000E+03 0.  1.
<mgrwt>
<rscale>  2 0.20617202E+03</rscale>
<asrwt>0</asrwt>
<pdfrwt beam="1">  1       21 0.52590843E-01 0.20617202E+03</pdfrwt>
<pdfrwt beam="2">  1       21 0.23290455E-01 0.20617202E+03</pdfrwt>
<totfact> 0.59039433E+04</totfact>
</mgrwt>
</event>
<event>
 4    2  0.4039581E+000  0.2501670E+03  0.7546771E-02  0.1113199E+00
         21   -1    0    0  501  502  0.00000000000E+00  0.00000000000E+00  0.57636543183E+02  0.57636543183E+02  0.00000000000E+00 0. -1.
         21   -1    0    0  502  503 -0.00000000000E+00 -0.00000000000E+00 -0.14677524084E+04  0.14677524084E+04  0.00000000000E+00 0.  1.
          6    1    1    2  501    0  0.46775198857E+01  0.18064514741E+03 -0.31600278090E+03  0.40304007991E+03  0.17300000000E+03 0. -1.
         -6    1    1    2    0  503 -0.46775198857E+01 -0.18064514741E+03 -0.10941130843E+04  0.11223488716E+04  0.17300000000E+03 0.  1.
<mgrwt>
<rscale>  2 0.25016704E+03</rscale>
<asrwt>0</asrwt>
<pdfrwt beam="1">  1       21 0.88671604E-02 0.25016704E+03</pdfrwt>
<pdfrwt beam="2">  1       21 0.22580806E+00 0.25016704E+03</pdfrwt>
<totfact> 0.88700283E+03</totfact>
</mgrwt>
</event>
<event>
 4    2  0.4039581E+000  0.2160124E+03  0.7546771E-02  0.1136891E+00
         21   -1    0    0  501  502  0.00000000000E+00  0.00000000000E+00  0.35965054541E+03  0.35965054541E+03  0.00000000000E+00 0. -1.
         21   -1    0    0  502  503 -0.00000000000E+00 -0.00000000000E+00 -0.13110710805E+03  0.13110710805E+03  0.00000000000E+00 0.  1.
          6    1    1    2  501    0 -0.59635156389E+02  0.11478681811E+03  0.13932076561E+03  0.25704404529E+03  0.17300000000E+03 0.  1.
         -6    1    1    2    0  503  0.59635156389E+02 -0.11478681811E+03  0.89222671750E+02  0.23371360817E+03  0.17300000000E+03 0. -1.
<mgrwt>
<rscale>  2 0.21601242E+03</rscale>
<asrwt>0</asrwt>
<pdfrwt beam="1">  1       21 0.55330853E-01 0.21601242E+03</pdfrwt>
<pdfrwt beam="2">  1       21 0.20170324E-01 0.21601242E+03</pdfrwt>
<totfact> 0.69256239E+04</totfact>
</mgrwt>
</event>
<event>
 4    2  0.4039581E+000  0.1866841E+03  0.7546771E-02  0.1161487E+00
         21   -1    0    0  503  502  0.00000000000E+00  0.00000000000E+00  0.47045239670E+03  0.47045239670E+03  0.00000000000E+00 0.  1.
         21   -1    0    0  501  503 -0.00000000000E+00 -0.00000000000E+00 -0.16411473788E+03  0.16411473788E+03  0.00000000000E+00 0.  1.
          6    1    1    2  501    0 -0.58125899271E+02 -0.39285215299E+02 -0.81837569350E+02  0.20383408955E+03  0.17300000000E+03 0.  1.
         -6    1    1    2    0  502  0.58125899271E+02  0.39285215299E+02  0.38817522817E+03  0.43073304502E+03  0.17300000000E+03 0.  1.
<mgrwt>
<rscale>  2 0.18668409E+03</rscale>
<asrwt>0</asrwt>
<pdfrwt beam="1">  1       21 0.72377291E-01 0.18668409E+03</pdfrwt>
<pdfrwt beam="2">  1       21 0.25248421E-01 0.18668409E+03</pdfrwt>
<totfact> 0.25665990E+04</totfact>
</mgrwt>
</event>
<event>
 4    2  0.4039581E+000  0.2812560E+03  0.7546771E-02  0.1095005E+00
         21   -1    0    0  501  502  0.00000000000E+00  0.00000000000E+00  0.80271764027E+02  0.80271764027E+02  0.00000000000E+00 0.  1.
         21   -1    0    0  502  503 -0.00000000000E+00 -0.00000000000E+00 -0.11335386917E+04  0.11335386917E+04  0.00000000000E+00 0. -1.
          6    1    1    2  501    0  0.98591230381E+02 -0.19863465281E+03 -0.74598602747E+03  0.79724532560E+03  0.17300000000E+03 0. -1.
         -6    1    1    2    0  503 -0.98591230381E+02  0.19863465281E+03 -0.30728090018E+03  0.41656513011E+03  0.17300000000E+03 0.  1.
<mgrwt>
<rscale>  2 0.28125603E+03</rscale>
<asrwt>0</asrwt>
<pdfrwt beam="1">  1       21 0.12349504E-01 0.28125603E+03</pdfrwt>
<pdfrwt beam="2">  1       21 0.17439054E+00 0.28125603E+03</pdfrwt>
<totfact> 0.10447268E+04</totfact>
</mgrwt>
</event>
<event>
 4    2  0.4039581E+000  0.2942025E+03  0.7546771E-02  0.1088175E+00
         21   -1    0    0  501  502  0.00000000000E+00  0.00000000000E+00  0.11655522216E+04  0.11655522216E+04  0.00000000000E+00 0.  1.
         21   -1    0    0  502  503 -0.00000000000E+00 -0.00000000000E+00 -0.11524795822E+03  0.11524795822E+03  0.00000000000E+00 0. -1.
          6    1    1    2  501    0  0.26159551459E+02 -0.23652014955E+03  0.14324525931E+03  0.32722210743E+03  0.17300000000E+03 0. -1.
         -6    1    1    2    0  503 -0.26159551459E+02  0.23652014955E+03  0.90705900406E+03  0.95357807238E+03  0.17300000000E+03 0.  1.
<mgrwt>
<rscale>  2 0.29420249E+03</rscale>
<asrwt>0</asrwt>
<pdfrwt beam="1">  1       21 0.17931572E+00 0.29420249E+03</pdfrwt>
<pdfrwt beam="2">  1       21 0.17730456E-01 0.29420249E+03</pdfrwt>
<totfact> 0.49316337E+03</totfact>
</mgrwt>
</event>
<event>
 4    2  0.4039581E+000  0.1812841E+03  0.7546771E-02  0.1166566E+00
         21   -1    0    0  501  502  0.00000000000E+00  0.00000000000E+00  0.16833215478E+03  0.16833215478E+03  0.00000000000E+00 0.  1.
         21   -1    0    0  502  503 -0.00000000000E+00 -0.00000000000E+00 -0.24637800923E+03  0.24637800923E+03  0.00000000000E+00 0.  1.
          6    1    1    2  501    0  0.51468134817E+02  0.16910427680E+02 -0.13349791833E+03  0.22513468339E+03  0.17300000000E+03 0.  1.
         -6    1    1    2    0  503 -0.51468134817E+02 -0.16910427680E+02  0.55452063876E+02  0.18957548062E+03  0.17300000000E+03 0.  1.
<mgrwt>
<rscale>  2 0.18128412E+03</rscale>
<asrwt>0</asrwt>
<pdfrwt beam="1">  1       21 0.25897255E-01 0.18128412E+03</pdfrwt>
<pdfrwt beam="2">  1       21 0.37904309E-01 0.18128412E+03</pdfrwt>
<totfact> 0.95453867E+04</totfact>
</mgrwt>
</event>
<event>
 4    2  0.4039581E+000  0.2181357E+03  0.7546771E-02  0.1135281E+00
         21   -1    0    0  501  502  0.00000000000E+00  0.00000000000E+00  0.62086695789E+03  0.62086695789E+03  0.00000000000E+00 0.  1.
         21   -1    0    0  502  503 -0.00000000000E+00 -0.00000000000E+00 -0.12484273516E+03  0.12484273516E+03  0.00000000000E+00 0. -1.
          6    1    1    2  501    0  0.12988353912E+03  0.28007989840E+02  0.47969526123E+03  0.52696368459E+03  0.17300000000E+03 0.  1.
         -6    1    1    2    0  503 -0.12988353912E+03 -0.28007989840E+02  0.16328961498E+02  0.21874600845E+03  0.17300000000E+03 0. -1.
<mgrwt>
<rscale>  2 0.21813569E+03</rscale>
<asrwt>0</asrwt>
<pdfrwt beam="1">  1       21 0.95517991E-01 0.21813569E+03</pdfrwt>
<pdfrwt beam="2">  1       21 0.19206575E-01 0.21813569E+03</pdfrwt>
<totfact> 0.22428524E+04</totfact>
</mgrwt>
</event>
<event>
 4    2  0.4039581E+000  0.1962101E+03  0.7546771E-02  0.1152977E+00
         21   -1    0    0  501  502  0.00000000000E+00  0.00000000000E+00  0.40209910863E+03  0.40209910863E+03  0.00000000000E+00 0.  1.
         21   -1    0    0  502  503 -0.00000000000E+00 -0.00000000000E+00 -0.17032360781E+03  0.17032360781E+03  0.00000000000E+00 0. -1.
          6    1    1    2  501    0  0.44953224487E+02  0.80923429547E+02  0.30527939487E+03  0.36289654556E+03  0.17300000000E+03 0.  1.
         -6    1    1    2    0  503 -0.44953224487E+02 -0.80923429547E+02 -0.73503894056E+02  0.20952617088E+03  0.17300000000E+03 0. -1.
<mgrwt>
<rscale>  2 0.19621008E+03</rscale>
<asrwt>0</asrwt>
<pdfrwt beam="1">  1       21 0.61861401E-01 0.19621008E+03</pdfrwt>
<pdfrwt beam="2">  1       21 0.26203632E-01 0.19621008E+03</pdfrwt>
<totfact> 0.33523622E+04</totfact>
</mgrwt>
</event>
<event>
 4    2  0.4039581E+000  0.1759387E+03  0.7546771E-02  0.1171793E+00
         21   -1    0    0  503  502  0.00000000000E+00  0.00000000000E+00  0.36823835892E+03  0.36823835892E+03  0.00000000000E+00 0. -1.
         21   -1    0    0  501  503 -0.00000000000E+00 -0.00000000000E+00 -0.10711978767E+03  0.10711978767E+03  0.00000000000E+00 0. -1.
          6    1    1    2  501    0  0.32014703781E+02 -0.68795048412E+00  0.20284525144E+02  0.17710414025E+03  0.17300000000E+03 0. -1.
         -6    1    1    2    0  502 -0.32014703781E+02  0.68795048412E+00  0.24083404610E+03  0.29825400634E+03  0.17300000000E+03 0. -1.
<mgrwt>
<rscale>  2 0.17593867E+03</rscale>
<asrwt>0</asrwt>
<pdfrwt beam="1">  1       21 0.56652055E-01 0.17593867E+03</pdfrwt>
<pdfrwt beam="2">  1       21 0.16479968E-01 0.17593867E+03</pdfrwt>
<totfact> 0.97387684E+04</totfact>
</mgrwt>
</event>
<event>
 4    2  0.4039581E+000  0.2543538E+03  0.7546771E-02  0.1110584E+00
         21   -1    0    0  501  502  0.00000000000E+00  0.00000000000E+00  0.41724628167E+03  0.41724628167E+03  0.00000000000E+00 0.  1.
         21   -1    0    0  502  503 -0.00000000000E+00 -0.00000000000E+00 -0.37435101119E+03  0.37435101119E+03  0.00000000000E+00 0.  1.
          6    1    1    2  501    0  0.16917302513E+03 -0.78405062235E+02  0.32438355598E+03  0.41221421326E+03  0.17300000000E+03 0.  1.
         -6    1    1    2    0  503 -0.16917302513E+03  0.78405062235E+02 -0.28148828551E+03  0.37938307961E+03  0.17300000000E+03 0.  1.
<mgrwt>
<rscale>  2 0.25435382E+03</rscale>
<asrwt>0</asrwt>
<pdfrwt beam="1">  1       21 0.64191736E-01 0.25435382E+03</pdfrwt>
<pdfrwt beam="2">  1       21 0.57592463E-01 0.25435382E+03</pdfrwt>
<totfact> 0.60771966E+03</totfact>
</mgrwt>
</event>
<event>
 4    2  0.4039581E+000  0.1768282E+03  0.7546771E-02  0.1170909E+00
         21   -1    0    0  503  502  0.00000000000E+00  0.00000000000E+00  0.21810786744E+03  0.21810786744E+03  0.00000000000E+00 0.  1.
         21   -1    0    0  501  503 -0.00000000000E+00 -0.00000000000E+00 -0.18027155420E+03  0.18027155420E+03  0.00000000000E+00 0.  1.
          6    1    1    2  501    0  0.36595223200E+02 -0.18934681880E-02 -0.71213484267E+02  0.19062940672E+03  0.17300000000E+03 0.  1.
         -6    1    1    2    0  502 -0.36595223200E+02  0.18934681880E-02  0.10904979750E+03  0.20775001492E+03  0.17300000000E+03 0.  1.
<mgrwt>
<rscale>  2 0.17682819E+03</rscale>
<asrwt>0</asrwt>
<pdfrwt beam="1">  1       21 0.33555057E-01 0.17682819E+03</pdfrwt>
<pdfrwt beam="2">  1       21 0.27734085E-01 0.17682819E+03</pdfrwt>
<totfact> 0.10678428E+05</totfact>
</mgrwt>
</event>
<event>
 4    2  0.4039581E+000  0.1943047E+03  0.7546771E-02  0.1154635E+00
         21   -1    0    0  503  502  0.00000000000E+00  0.00000000000E+00  0.13284705497E+03  0.13284705497E+03  0.00000000000E+00 0. -1.
         21   -1    0    0  501  503 -0.00000000000E+00 -0.00000000000E+00 -0.29121804196E+03  0.29121804196E+03  0.00000000000E+00 0. -1.
          6    1    1    2  501    0 -0.21126074054E+02  0.85901089514E+02 -0.11211562025E+03  0.22433060533E+03  0.17300000000E+03 0. -1.
         -6    1    1    2    0  502  0.21126074054E+02 -0.85901089514E+02 -0.46255366743E+02  0.19973449161E+03  0.17300000000E+03 0. -1.
<mgrwt>
<rscale>  2 0.19430468E+03</rscale>
<asrwt>0</asrwt>
<pdfrwt beam="1">  1       21 0.20438008E-01 0.19430468E+03</pdfrwt>
<pdfrwt beam="2">  1       21 0.44802776E-01 0.19430468E+03</pdfrwt>
<totfact> 0.10592885E+05</totfact>
</mgrwt>
</event>
<event>
 4    2  0.4039581E+000  0.2075944E+03  0.7546771E-02  0.1143485E+00
         21   -1    0    0  501  502  0.00000000000E+00  0.00000000000E+00  0.44123168206E+03  0.44123168206E+03  0.00000000000E+00 0. -1.
         21   -1    0    0  502  503 -0.00000000000E+00 -0.00000000000E+00 -0.18942687268E+03  0.18942687268E+03  0.00000000000E+00 0. -1.
          6    1    1    2  501    0  0.92974323736E+02 -0.67247496327E+02  0.34536520335E+03  0.40295480432E+03  0.17300000000E+03 0. -1.
         -6    1    1    2    0  503 -0.92974323736E+02  0.67247496327E+02 -0.93560393979E+02  0.22770375043E+03  0.17300000000E+03 0. -1.
<mgrwt>
<rscale>  2 0.20759444E+03</rscale>
<asrwt>0</asrwt>
<pdfrwt beam="1">  1       21 0.67881797E-01 0.20759444E+03</pdfrwt>
<pdfrwt beam="2">  1       21 0.29142596E-01 0.20759444E+03</pdfrwt>
<totfact> 0.22155727E+04</totfact>
</mgrwt>
</event>
<event>
 4    2  0.4039581E+000  0.1772671E+03  0.7546771E-02  0.1170474E+00
         21   -1    0    0  503  502  0.00000000000E+00  0.00000000000E+00  0.10952528824E+03  0.10952528824E+03  0.00000000000E+00 0. -1.
         21   -1    0    0  501  503 -0.00000000000E+00 -0.00000000000E+00 -0.30656140788E+03  0.30656140788E+03  0.00000000000E+00 0. -1.
          6    1    1    2  501    0  0.97866834259E+01  0.37401359051E+02 -0.15119470635E+03  0.23298815433E+03  0.17300000000E+03 0. -1.
         -6    1    1    2    0  502 -0.97866834259E+01 -0.37401359051E+02 -0.45841413284E+02  0.18309854178E+03  0.17300000000E+03 0. -1.
<mgrwt>
<rscale>  2 0.17726715E+03</rscale>
<asrwt>0</asrwt>
<pdfrwt beam="1">  1       21 0.16850044E-01 0.17726715E+03</pdfrwt>
<pdfrwt beam="2">  1       21 0.47163293E-01 0.17726715E+03</pdfrwt>
<totfact> 0.13711529E+05</totfact>
</mgrwt>
</event>
<event>
 4    2  0.4039581E+000  0.2282052E+03  0.7546771E-02  0.1127909E+00
         21   -1    0    0  501  502  0.00000000000E+00  0.00000000000E+00  0.43929813708E+03  0.43929813708E+03  0.00000000000E+00 0.  1.
         21   -1    0    0  502  503 -0.00000000000E+00 -0.00000000000E+00 -0.11892024263E+03  0.11892024263E+03  0.00000000000E+00 0. -1.
          6    1    1    2  501    0 -0.16155835882E+02 -0.14794456844E+03  0.14455856900E+03  0.27013845753E+03  0.17300000000E+03 0. -1.
         -6    1    1    2    0  503  0.16155835882E+02  0.14794456844E+03  0.17581932545E+03  0.28807992218E+03  0.17300000000E+03 0.  1.
<mgrwt>
<rscale>  2 0.22820518E+03</rscale>
<asrwt>0</asrwt>
<pdfrwt beam="1">  1       21 0.67584328E-01 0.22820518E+03</pdfrwt>
<pdfrwt beam="2">  1       21 0.18295422E-01 0.22820518E+03</pdfrwt>
<totfact> 0.53637496E+04</totfact>
</mgrwt>
</event>
<event>
 4    2  0.4039581E+000  0.1746434E+03  0.7546771E-02  0.1173090E+00
         21   -1    0    0  503  502  0.00000000000E+00  0.00000000000E+00  0.11927861166E+03  0.11927861166E+03  0.00000000000E+00 0.  1.
         21   -1    0    0  501  503 -0.00000000000E+00 -0.00000000000E+00 -0.83916224230E+03  0.83916224230E+03  0.00000000000E+00 0.  1.
          6    1    1    2  501    0  0.18819168512E+02 -0.14736760534E+02 -0.75953333320E+03  0.77935307624E+03  0.17300000000E+03 0.  1.
         -6    1    1    2    0  502 -0.18819168512E+02  0.14736760534E+02  0.39649702556E+02  0.17908777772E+03  0.17300000000E+03 0.  1.
<mgrwt>
<rscale>  2 0.17464345E+03</rscale>
<asrwt>0</asrwt>
<pdfrwt beam="1">  1       21 0.18350555E-01 0.17464345E+03</pdfrwt>
<pdfrwt beam="2">  1       21 0.12910189E+00 0.17464345E+03</pdfrwt>
<totfact> 0.12073083E+04</totfact>
</mgrwt>
</event>
<event>
 4    2  0.4039581E+000  0.1778137E+03  0.7546771E-02  0.1169936E+00
         21   -1    0    0  503  502  0.00000000000E+00  0.00000000000E+00  0.30525700930E+02  0.30525700930E+02  0.00000000000E+00 0.  1.
         21   -1    0    0  501  503 -0.00000000000E+00 -0.00000000000E+00 -0.11294922441E+04  0.11294922441E+04  0.00000000000E+00 0.  1.
          6    1    1    2  501    0 -0.39267953263E+02 -0.12114250709E+02 -0.71655584687E+03  0.73828856751E+03  0.17300000000E+03 0. -1.
         -6    1    1    2    0  502  0.39267953263E+02  0.12114250709E+02 -0.38241069630E+03  0.42172937753E+03  0.17300000000E+03 0. -1.
<mgrwt>
<rscale>  2 0.17781374E+03</rscale>
<asrwt>0</asrwt>
<pdfrwt beam="1">  1       21 0.46962613E-02 0.17781374E+03</pdfrwt>
<pdfrwt beam="2">  1       21 0.17376805E+00 0.17781374E+03</pdfrwt>
<totfact> 0.60592408E+04</totfact>
</mgrwt>
</event>
<event>
 4    2  0.4039581E+000  0.1939397E+03  0.7546771E-02  0.1154955E+00
         21   -1    0    0  503  502  0.00000000000E+00  0.00000000000E+00  0.10531979952E+03  0.10531979952E+03  0.00000000000E+00 0.  1.
         21   -1    0    0  501  503 -0.00000000000E+00 -0.00000000000E+00 -0.56033371046E+03  0.56033371046E+03  0.00000000000E+00 0.  1.
          6    1    1    2  501    0 -0.13245707027E+02  0.86649577412E+02 -0.42793723414E+03  0.46983281535E+03  0.17300000000E+03 0.  1.
         -6    1    1    2    0  502  0.13245707027E+02 -0.86649577412E+02 -0.27076676804E+02  0.19582069463E+03  0.17300000000E+03 0.  1.
<mgrwt>
<rscale>  2 0.19393968E+03</rscale>
<asrwt>0</asrwt>
<pdfrwt beam="1">  1       21 0.16203046E-01 0.19393968E+03</pdfrwt>
<pdfrwt beam="2">  1       21 0.86205185E-01 0.19393968E+03</pdfrwt>
<totfact> 0.39506470E+04</totfact>
</mgrwt>
</event>
<event>
 4    2  0.4039581E+000  0.2057612E+03  0.7546771E-02  0.1144967E+00
         21   -1    0    0  501  502  0.00000000000E+00  0.00000000000E+00  0.49736675285E+02  0.49736675285E+02  0.00000000000E+00 0. -1.
         21   -1    0    0  502  503 -0.00000000000E+00 -0.00000000000E+00 -0.14697976679E+04  0.14697976679E+04  0.00000000000E+00 0. -1.
          6    1    1    2  501    0  0.19202925883E+02  0.10972655653E+03 -0.21714833456E+03  0.29915057876E+03  0.17300000000E+03 0. -1.
         -6    1    1    2    0  503 -0.19202925883E+02 -0.10972655653E+03 -0.12029126581E+04  0.12203837645E+04  0.17300000000E+03 0. -1.
<mgrwt>
<rscale>  2 0.20576120E+03</rscale>
<asrwt>0</asrwt>
<pdfrwt beam="1">  1       21 0.76517963E-02 0.20576120E+03</pdfrwt>
<pdfrwt beam="2">  1       21 0.22612272E+00 0.20576120E+03</pdfrwt>
<totfact> 0.11833095E+04</totfact>
</mgrwt>
</event>
<event>
 4    2  0.4039581E+000  0.3811560E+03  0.7546771E-02  0.1050507E+00
         21   -1    0    0  501  502  0.00000000000E+00  0.00000000000E+00  0.53088086706E+03  0.53088086706E+03  0.00000000000E+00 0.  1.
         21   -1    0    0  502  503 -0.00000000000E+00 -0.00000000000E+00 -0.33386974793E+03  0.33386974793E+03  0.00000000000E+00 0. -1.
          6    1    1    2  501    0 -0.15496618377E+03 -0.30221903190E+03  0.28212240626E+03  0.47420766914E+03  0.17300000000E+03 0.  1.
         -6    1    1    2    0  503  0.15496618377E+03  0.30221903190E+03 -0.85111287126E+02  0.39054294585E+03  0.17300000000E+03 0. -1.
<mgrwt>
<rscale>  2 0.38115595E+03</rscale>
<asrwt>0</asrwt>
<pdfrwt beam="1">  1       21 0.81673979E-01 0.38115595E+03</pdfrwt>
<pdfrwt beam="2">  1       21 0.51364577E-01 0.38115595E+03</pdfrwt>
<totfact> 0.42490115E+03</totfact>
</mgrwt>
</event>
<event>
 4    2  0.4039581E+000  0.2309319E+03  0.7546771E-02  0.1125986E+00
         21   -1    0    0  501  502  0.00000000000E+00  0.00000000000E+00  0.53685040769E+03  0.53685040769E+03  0.00000000000E+00 0.  1.
         21   -1    0    0  502  503 -0.00000000000E+00 -0.00000000000E+00 -0.11648220527E+03  0.11648220527E+03  0.00000000000E+00 0.  1.
          6    1    1    2  501    0  0.39192026785E+02  0.14786666206E+03  0.33550835922E+03  0.40730261946E+03  0.17300000000E+03 0.  1.
         -6    1    1    2    0  503 -0.39192026785E+02 -0.14786666206E+03  0.84859843202E+02  0.24602999350E+03  0.17300000000E+03 0.  1.
<mgrwt>
<rscale>  2 0.23093195E+03</rscale>
<asrwt>0</asrwt>
<pdfrwt beam="1">  1       21 0.82592369E-01 0.23093195E+03</pdfrwt>
<pdfrwt beam="2">  1       21 0.17920340E-01 0.23093195E+03</pdfrwt>
<totfact> 0.35510972E+04</totfact>
</mgrwt>
</event>
<event>
 4    2  0.4039581E+000  0.4694749E+03  0.7546771E-02  0.1022069E+00
         21   -1    0    0  503  502  0.00000000000E+00  0.00000000000E+00  0.25649086616E+04  0.25649086616E+04  0.00000000000E+00 0.  1.
         21   -1    0    0  501  503 -0.00000000000E+00 -0.00000000000E+00 -0.34663617303E+03  0.34663617303E+03  0.00000000000E+00 0. -1.
          6    1    1    2  501    0 -0.26339278410E+03  0.34799706895E+03 -0.15336224189E+03  0.49388935598E+03  0.17300000000E+03 0. -1.
         -6    1    1    2    0  502  0.26339278410E+03 -0.34799706895E+03  0.23716347304E+04  0.24176554786E+04  0.17300000000E+03 0.  1.
<mgrwt>
<rscale>  2 0.46947494E+03</rscale>
<asrwt>0</asrwt>
<pdfrwt beam="1">  1       21 0.39460132E+00 0.46947494E+03</pdfrwt>
<pdfrwt beam="2">  1       21 0.53328644E-01 0.46947494E+03</pdfrwt>
<totfact> 0.22616242E+01</totfact>
</mgrwt>
</event>
<event>
 4    2  0.4039581E+000  0.1962078E+03  0.7546771E-02  0.1152979E+00
         21   -1    0    0  501  502  0.00000000000E+00  0.00000000000E+00  0.62906628076E+03  0.62906628076E+03  0.00000000000E+00 0.  1.
         21   -1    0    0  502  503 -0.00000000000E+00 -0.00000000000E+00 -0.64510908574E+02  0.64510908574E+02  0.00000000000E+00 0.  1.
          6    1    1    2  501    0  0.89507559884E+02  0.23598498635E+02  0.20368828498E+03  0.28281868724E+03  0.17300000000E+03 0.  1.
         -6    1    1    2    0  503 -0.89507559884E+02 -0.23598498635E+02  0.36086708720E+03  0.41075850209E+03  0.17300000000E+03 0.  1.
<mgrwt>
<rscale>  2 0.19620778E+03</rscale>
<asrwt>0</asrwt>
<pdfrwt beam="1">  1       21 0.96779423E-01 0.19620778E+03</pdfrwt>
<pdfrwt beam="2">  1       21 0.99247556E-02 0.19620778E+03</pdfrwt>
<totfact> 0.72813581E+04</totfact>
</mgrwt>
</event>
<event>
 4    2  0.4039581E+000  0.2210572E+03  0.7546771E-02  0.1133097E+00
         21   -1    0    0  503  502  0.00000000000E+00  0.00000000000E+00  0.71129705615E+02  0.71129705615E+02  0.00000000000E+00 0. -1.
         21   -1    0    0  501  503 -0.00000000000E+00 -0.00000000000E+00 -0.10544664392E+04  0.10544664392E+04  0.00000000000E+00 0. -1.
          6    1    1    2  501    0  0.12383718575E+03  0.60013726767E+02 -0.82390192473E+03  0.85304201394E+03  0.17300000000E+03 0. -1.
         -6    1    1    2    0  502 -0.12383718575E+03 -0.60013726767E+02 -0.15943480883E+03  0.27255413084E+03  0.17300000000E+03 0. -1.
<mgrwt>
<rscale>  2 0.22105722E+03</rscale>
<asrwt>0</asrwt>
<pdfrwt beam="1">  1       21 0.10943033E-01 0.22105722E+03</pdfrwt>
<pdfrwt beam="2">  1       21 0.16222559E+00 0.22105722E+03</pdfrwt>
<totfact> 0.16445557E+04</totfact>
</mgrwt>
</event>
<event>
 4    2  0.4039581E+000  0.1818406E+03  0.7546771E-02  0.1166034E+00
         21   -1    0    0  501  502  0.00000000000E+00  0.00000000000E+00  0.65735030765E+03  0.65735030765E+03  0.00000000000E+00 0. -1.
         21   -1    0    0  502  503 -0.00000000000E+00 -0.00000000000E+00 -0.87261321682E+02  0.87261321682E+02  0.00000000000E+00 0. -1.
          6    1    1    2  501    0  0.53739540344E+02  0.15781752932E+02  0.52734326826E+03  0.55781441762E+03  0.17300000000E+03 0. -1.
         -6    1    1    2    0  503 -0.53739540344E+02 -0.15781752932E+02  0.42745717708E+02  0.18679721171E+03  0.17300000000E+03 0. -1.
<mgrwt>
<rscale>  2 0.18184059E+03</rscale>
<asrwt>0</asrwt>
<pdfrwt beam="1">  1       21 0.10113081E+00 0.18184059E+03</pdfrwt>
<pdfrwt beam="2">  1       21 0.13424819E-01 0.18184059E+03</pdfrwt>
<totfact> 0.38561306E+04</totfact>
</mgrwt>
</event>
<event>
 4    2  0.4039581E+000  0.2072880E+03  0.7546771E-02  0.1143732E+00
         21   -1    0    0  503  502  0.00000000000E+00  0.00000000000E+00  0.61120542751E+03  0.61120542751E+03  0.00000000000E+00 0. -1.
         21   -1    0    0  501  503 -0.00000000000E+00 -0.00000000000E+00 -0.23937973827E+03  0.23937973827E+03  0.00000000000E+00 0. -1.
          6    1    1    2  501    0  0.81050259890E+02  0.80437262039E+02 -0.17151528581E+03  0.26904607601E+03  0.17300000000E+03 0. -1.
         -6    1    1    2    0  502 -0.81050259890E+02 -0.80437262039E+02  0.54334097505E+03  0.58153908976E+03  0.17300000000E+03 0. -1.
<mgrwt>
<rscale>  2 0.20728796E+03</rscale>
<asrwt>0</asrwt>
<pdfrwt beam="1">  1       21 0.94031603E-01 0.20728796E+03</pdfrwt>
<pdfrwt beam="2">  1       21 0.36827652E-01 0.20728796E+03</pdfrwt>
<totfact> 0.66737182E+03</totfact>
</mgrwt>
</event>
<event>
 4    2  0.4039581E+000  0.1851483E+03  0.7546771E-02  0.1162912E+00
         21   -1    0    0  503  502  0.00000000000E+00  0.00000000000E+00  0.33928537715E+02  0.33928537715E+02  0.00000000000E+00 0. -1.
         21   -1    0    0  501  503 -0.00000000000E+00 -0.00000000000E+00 -0.12385466662E+04  0.12385466662E+04  0.00000000000E+00 0. -1.
          6    1    1    2  501    0 -0.65808735870E+02  0.44820792163E+01 -0.87540342083E+03  0.89476870081E+03  0.17300000000E+03 0. -1.
         -6    1    1    2    0  502  0.65808735870E+02 -0.44820792163E+01 -0.32921470766E+03  0.37770650311E+03  0.17300000000E+03 0. -1.
<mgrwt>
<rscale>  2 0.18514826E+03</rscale>
<asrwt>0</asrwt>
<pdfrwt beam="1">  1       21 0.52197746E-02 0.18514826E+03</pdfrwt>
<pdfrwt beam="2">  1       21 0.19054566E+00 0.18514826E+03</pdfrwt>
<totfact> 0.38872354E+04</totfact>
</mgrwt>
</event>
<event>
 4    2  0.4039581E+000  0.1817567E+03  0.7546771E-02  0.1166114E+00
         21   -1    0    0  503  502  0.00000000000E+00  0.00000000000E+00  0.13197515074E+03  0.13197515074E+03  0.00000000000E+00 0.  1.
         21   -1    0    0  501  503 -0.00000000000E+00 -0.00000000000E+00 -0.25050362471E+03  0.25050362471E+03  0.00000000000E+00 0.  1.
          6    1    1    2  501    0  0.49446047802E+02 -0.25721673648E+02 -0.64495446166E+02  0.19286051621E+03  0.17300000000E+03 0.  1.
         -6    1    1    2    0  502 -0.49446047802E+02  0.25721673648E+02 -0.54033027806E+02  0.18961825923E+03  0.17300000000E+03 0.  1.
<mgrwt>
<rscale>  2 0.18175675E+03</rscale>
<asrwt>0</asrwt>
<pdfrwt beam="1">  1       21 0.20303869E-01 0.18175675E+03</pdfrwt>
<pdfrwt beam="2">  1       21 0.38539019E-01 0.18175675E+03</pdfrwt>
<totfact> 0.14621581E+05</totfact>
</mgrwt>
</event>
<event>
 4    2  0.4039581E+000  0.3255388E+03  0.7546771E-02  0.1073128E+00
         21   -1    0    0  503  502  0.00000000000E+00  0.00000000000E+00  0.93444690501E+02  0.93444690501E+02  0.00000000000E+00 0. -1.
         21   -1    0    0  501  503 -0.00000000000E+00 -0.00000000000E+00 -0.12119364123E+04  0.12119364123E+04  0.00000000000E+00 0.  1.
          6    1    1    2  501    0  0.14251519966E+03  0.23608453125E+03 -0.72465627838E+03  0.79441941682E+03  0.17300000000E+03 0.  1.
         -6    1    1    2    0  502 -0.14251519966E+03 -0.23608453125E+03 -0.39383544337E+03  0.51096168593E+03  0.17300000000E+03 0. -1.
<mgrwt>
<rscale>  2 0.32553877E+03</rscale>
<asrwt>0</asrwt>
<pdfrwt beam="1">  1       21 0.14376106E-01 0.32553877E+03</pdfrwt>
<pdfrwt beam="2">  1       21 0.18645176E+00 0.32553877E+03</pdfrwt>
<totfact> 0.63810078E+03</totfact>
</mgrwt>
</event>
<event>
 4    2  0.4039581E+000  0.2008825E+03  0.7546771E-02  0.1148997E+00
         21   -1    0    0  503  502  0.00000000000E+00  0.00000000000E+00  0.49885285395E+03  0.49885285395E+03  0.00000000000E+00 0.  1.
         21   -1    0    0  501  503 -0.00000000000E+00 -0.00000000000E+00 -0.84683225841E+02  0.84683225841E+02  0.00000000000E+00 0.  1.
          6    1    1    2  501    0  0.41620600520E+02  0.93233517187E+02  0.14535929278E+03  0.24795783334E+03  0.17300000000E+03 0.  1.
         -6    1    1    2    0  502 -0.41620600520E+02 -0.93233517187E+02  0.26881033533E+03  0.33557824645E+03  0.17300000000E+03 0.  1.
<mgrwt>
<rscale>  2 0.20088246E+03</rscale>
<asrwt>0</asrwt>
<pdfrwt beam="1">  1       21 0.76746591E-01 0.20088246E+03</pdfrwt>
<pdfrwt beam="2">  1       21 0.13028189E-01 0.20088246E+03</pdfrwt>
<totfact> 0.76179190E+04</totfact>
</mgrwt>
</event>
<event>
 4    2  0.4039581E+000  0.1735662E+03  0.7546771E-02  0.1174179E+00
         21   -1    0    0  501  502  0.00000000000E+00  0.00000000000E+00  0.20155057205E+03  0.20155057205E+03  0.00000000000E+00 0. -1.
         21   -1    0    0  502  503 -0.00000000000E+00 -0.00000000000E+00 -0.26293858220E+03  0.26293858220E+03  0.00000000000E+00 0. -1.
          6    1    1    2  501    0  0.14006767996E+02 -0.14366627369E+00  0.12187330746E+03  0.21208091206E+03  0.17300000000E+03 0. -1.
         -6    1    1    2    0  503 -0.14006767996E+02  0.14366627369E+00 -0.18326131761E+03  0.25240824218E+03  0.17300000000E+03 0. -1.
<mgrwt>
<rscale>  2 0.17356616E+03</rscale>
<asrwt>0</asrwt>
<pdfrwt beam="1">  1       21 0.31007780E-01 0.17356616E+03</pdfrwt>
<pdfrwt beam="2">  1       21 0.40452090E-01 0.17356616E+03</pdfrwt>
<totfact> 0.59335681E+04</totfact>
</mgrwt>
</event>
<event>
 4    2  0.4039581E+000  0.1777744E+03  0.7546771E-02  0.1169974E+00
         21   -1    0    0  501  502  0.00000000000E+00  0.00000000000E+00  0.37229234285E+03  0.37229234285E+03  0.00000000000E+00 0.  1.
         21   -1    0    0  502  503 -0.00000000000E+00 -0.00000000000E+00 -0.13903549760E+03  0.13903549760E+03  0.00000000000E+00 0.  1.
          6    1    1    2  501    0 -0.40577427655E+02  0.53127072836E+01  0.27617567419E+03  0.32844597046E+03  0.17300000000E+03 0. -1.
         -6    1    1    2    0  503  0.40577427655E+02 -0.53127072836E+01 -0.42918828935E+02  0.18288186999E+03  0.17300000000E+03 0. -1.
<mgrwt>
<rscale>  2 0.17777444E+03</rscale>
<asrwt>0</asrwt>
<pdfrwt beam="1">  1       21 0.57275745E-01 0.17777444E+03</pdfrwt>
<pdfrwt beam="2">  1       21 0.21390077E-01 0.17777444E+03</pdfrwt>
<totfact> 0.58642698E+04</totfact>
</mgrwt>
</event>
<event>
 4    2  0.4039581E+000  0.1994216E+03  0.7546771E-02  0.1150228E+00
         21   -1    0    0  501  502  0.00000000000E+00  0.00000000000E+00  0.31521394869E+03  0.31521394869E+03  0.00000000000E+00 0. -1.
         21   -1    0    0  502  503 -0.00000000000E+00 -0.00000000000E+00 -0.28297304115E+03  0.28297304115E+03  0.00000000000E+00 0.  1.
          6    1    1    2  501    0 -0.53593288193E+02 -0.83472980465E+02  0.23876832757E+03  0.31109370494E+03  0.17300000000E+03 0. -1.
         -6    1    1    2    0  503  0.53593288193E+02  0.83472980465E+02 -0.20652742003E+03  0.28709328490E+03  0.17300000000E+03 0.  1.
<mgrwt>
<rscale>  2 0.19942161E+03</rscale>
<asrwt>0</asrwt>
<pdfrwt beam="1">  1       21 0.48494454E-01 0.19942161E+03</pdfrwt>
<pdfrwt beam="2">  1       21 0.43534314E-01 0.19942161E+03</pdfrwt>
<totfact> 0.20509532E+04</totfact>
</mgrwt>
</event>
<event>
 4    2  0.4039581E+000  0.2214239E+03  0.7546771E-02  0.1132826E+00
         21   -1    0    0  501  502  0.00000000000E+00  0.00000000000E+00  0.27161564144E+03  0.27161564144E+03  0.00000000000E+00 0.  1.
         21   -1    0    0  502  503 -0.00000000000E+00 -0.00000000000E+00 -0.27094420208E+03  0.27094420208E+03  0.00000000000E+00 0.  1.
          6    1    1    2  501    0 -0.13248220341E+03  0.39344536760E+02  0.15706540438E+03  0.27147388097E+03  0.17300000000E+03 0.  1.
         -6    1    1    2    0  503  0.13248220341E+03 -0.39344536760E+02 -0.15639396502E+03  0.27108596255E+03  0.17300000000E+03 0.  1.
<mgrwt>
<rscale>  2 0.22142386E+03</rscale>
<asrwt>0</asrwt>
<pdfrwt beam="1">  1       21 0.41787022E-01 0.22142386E+03</pdfrwt>
<pdfrwt beam="2">  1       21 0.41683724E-01 0.22142386E+03</pdfrwt>
<totfact> 0.30081953E+04</totfact>
</mgrwt>
</event>
<event>
 4    2  0.4039581E+000  0.1744187E+03  0.7546771E-02  0.1173317E+00
         21   -1    0    0  501  502  0.00000000000E+00  0.00000000000E+00  0.26861591377E+03  0.26861591377E+03  0.00000000000E+00 0. -1.
         21   -1    0    0  502  503 -0.00000000000E+00 -0.00000000000E+00 -0.17135497775E+03  0.17135497775E+03  0.00000000000E+00 0. -1.
          6    1    1    2  501    0 -0.12086538240E+02  0.18622927401E+02 -0.79465752819E+02  0.19166821255E+03  0.17300000000E+03 0. -1.
         -6    1    1    2    0  503  0.12086538240E+02 -0.18622927401E+02  0.17672668884E+03  0.24830267897E+03  0.17300000000E+03 0. -1.
<mgrwt>
<rscale>  2 0.17441874E+03</rscale>
<asrwt>0</asrwt>
<pdfrwt beam="1">  1       21 0.41325525E-01 0.17441874E+03</pdfrwt>
<pdfrwt beam="2">  1       21 0.26362304E-01 0.17441874E+03</pdfrwt>
<totfact> 0.77744394E+04</totfact>
</mgrwt>
</event>
<event>
 4    2  0.4039581E+000  0.2052653E+03  0.7546771E-02  0.1145371E+00
         21   -1    0    0  503  502  0.00000000000E+00  0.00000000000E+00  0.14077500129E+03  0.14077500129E+03  0.00000000000E+00 0. -1.
         21   -1    0    0  501  503 -0.00000000000E+00 -0.00000000000E+00 -0.30843943966E+03  0.30843943966E+03  0.00000000000E+00 0. -1.
          6    1    1    2  501    0 -0.10637282882E+03 -0.29826944719E+02 -0.12249747741E+03  0.23903861051E+03  0.17300000000E+03 0. -1.
         -6    1    1    2    0  502  0.10637282882E+03  0.29826944719E+02 -0.45166960964E+02  0.21017583045E+03  0.17300000000E+03 0. -1.
<mgrwt>
<rscale>  2 0.20526526E+03</rscale>
<asrwt>0</asrwt>
<pdfrwt beam="1">  1       21 0.21657693E-01 0.20526526E+03</pdfrwt>
<pdfrwt beam="2">  1       21 0.47452221E-01 0.20526526E+03</pdfrwt>
<totfact> 0.84000024E+04</totfact>
</mgrwt>
</event>
<event>
 4    2  0.4039581E+000  0.2171820E+03  0.7546771E-02  0.1136002E+00
         21   -1    0    0  503  502  0.00000000000E+00  0.00000000000E+00  0.20207185673E+03  0.20207185673E+03  0.00000000000E+00 0. -1.
         21   -1    0    0  501  503 -0.00000000000E+00 -0.00000000000E+00 -0.49183327222E+03  0.49183327222E+03  0.00000000000E+00 0. -1.
          6    1    1    2  501    0 -0.82862609472E+02 -0.10184690198E+03 -0.39636851390E+03  0.45196902804E+03  0.17300000000E+03 0. -1.
         -6    1    1    2    0  502  0.82862609472E+02  0.10184690198E+03  0.10660709841E+03  0.24193610091E+03  0.17300000000E+03 0. -1.
<mgrwt>
<rscale>  2 0.21718196E+03</rscale>
<asrwt>0</asrwt>
<pdfrwt beam="1">  1       21 0.31087978E-01 0.21718196E+03</pdfrwt>
<pdfrwt beam="2">  1       21 0.75666657E-01 0.21718196E+03</pdfrwt>
<totfact> 0.15259119E+04</totfact>
</mgrwt>
</event>
<event>
 4    2  0.4039581E+000  0.2414846E+03  0.7546771E-02  0.1118808E+00
         21   -1    0    0  501  502  0.00000000000E+00  0.00000000000E+00  0.33591498943E+03  0.33591498943E+03  0.00000000000E+00 0. -1.
         21   -1    0    0  502  503 -0.00000000000E+00 -0.00000000000E+00 -0.23727632576E+03  0.23727632576E+03  0.00000000000E+00 0. -1.
          6    1    1    2  501    0  0.11067719422E+03  0.12702894253E+03  0.19778700181E+03  0.31214498498E+03  0.17300000000E+03 0. -1.
         -6    1    1    2    0  503 -0.11067719422E+03 -0.12702894253E+03 -0.99148338140E+02  0.26104633021E+03  0.17300000000E+03 0. -1.
<mgrwt>
<rscale>  2 0.24148456E+03</rscale>
<asrwt>0</asrwt>
<pdfrwt beam="1">  1       21 0.51679229E-01 0.24148456E+03</pdfrwt>
<pdfrwt beam="2">  1       21 0.36504050E-01 0.24148456E+03</pdfrwt>
<totfact> 0.25079703E+04</totfact>
</mgrwt>
</event>
<event>
 4    2  0.4039581E+000  0.1743670E+03  0.7546771E-02  0.1173369E+00
         21   -1    0    0  503  502  0.00000000000E+00  0.00000000000E+00  0.34897061381E+03  0.34897061381E+03  0.00000000000E+00 0. -1.
         21   -1    0    0  501  503 -0.00000000000E+00 -0.00000000000E+00 -0.89971987285E+02  0.89971987285E+02  0.00000000000E+00 0. -1.
          6    1    1    2  501    0 -0.31875717557E+01 -0.21556623994E+02  0.16854419088E+03  0.24250977904E+03  0.17300000000E+03 0. -1.
         -6    1    1    2    0  502  0.31875717557E+01  0.21556623994E+02  0.90454435643E+02  0.19643282205E+03  0.17300000000E+03 0. -1.
<mgrwt>
<rscale>  2 0.17436699E+03</rscale>
<asrwt>0</asrwt>
<pdfrwt beam="1">  1       21 0.53687786E-01 0.17436699E+03</pdfrwt>
<pdfrwt beam="2">  1       21 0.13841844E-01 0.17436699E+03</pdfrwt>
<totfact> 0.14988332E+05</totfact>
</mgrwt>
</event>
<event>
 4    2  0.4039581E+000  0.2285718E+03  0.7546771E-02  0.1127649E+00
         21   -1    0    0  503  502  0.00000000000E+00  0.00000000000E+00  0.31435225766E+03  0.31435225766E+03  0.00000000000E+00 0. -1.
         21   -1    0    0  501  503 -0.00000000000E+00 -0.00000000000E+00 -0.18020229249E+03  0.18020229249E+03  0.00000000000E+00 0. -1.
          6    1    1    2  501    0  0.14401794285E+03 -0.39684726135E+02 -0.18566264436E+01  0.22857929131E+03  0.17300000000E+03 0. -1.
         -6    1    1    2    0  502 -0.14401794285E+03  0.39684726135E+02  0.13600659162E+03  0.26597525884E+03  0.17300000000E+03 0. -1.
<mgrwt>
<rscale>  2 0.22857175E+03</rscale>
<asrwt>0</asrwt>
<pdfrwt beam="1">  1       21 0.48361886E-01 0.22857175E+03</pdfrwt>
<pdfrwt beam="2">  1       21 0.27723430E-01 0.22857175E+03</pdfrwt>
<totfact> 0.49877041E+04</totfact>
</mgrwt>
</event>
<event>
 4    2  0.4039581E+000  0.3528526E+03  0.7546771E-02  0.1061450E+00
         21   -1    0    0  501  502  0.00000000000E+00  0.00000000000E+00  0.12776911095E+03  0.12776911095E+03  0.00000000000E+00 0. -1.
         21   -1    0    0  502  503 -0.00000000000E+00 -0.00000000000E+00 -0.12127896274E+04  0.12127896274E+04  0.00000000000E+00 0.  1.
          6    1    1    2  501    0 -0.15171149657E+03  0.26750621458E+03 -0.24537184594E+03  0.42978168389E+03  0.17300000000E+03 0. -1.
         -6    1    1    2    0  503  0.15171149657E+03 -0.26750621458E+03 -0.83964867054E+03  0.91077705448E+03  0.17300000000E+03 0.  1.
<mgrwt>
<rscale>  2 0.35285259E+03</rscale>
<asrwt>0</asrwt>
<pdfrwt beam="1">  1       21 0.19656785E-01 0.35285259E+03</pdfrwt>
<pdfrwt beam="2">  1       21 0.18658303E+00 0.35285259E+03</pdfrwt>
<totfact> 0.35064020E+03</totfact>
</mgrwt>
</event>
<event>
 4    2  0.4039581E+000  0.2640835E+03  0.7546771E-02  0.1104714E+00
         21   -1    0    0  501  502  0.00000000000E+00  0.00000000000E+00  0.84514070777E+03  0.84514070777E+03  0.00000000000E+00 0.  1.
         21   -1    0    0  502  503 -0.00000000000E+00 -0.00000000000E+00 -0.84473342582E+02  0.84473342582E+02  0.00000000000E+00 0. -1.
          6    1    1    2  501    0  0.15504977175E+03  0.12558139570E+03  0.30963368116E+03  0.40695593763E+03  0.17300000000E+03 0. -1.
         -6    1    1    2    0  503 -0.15504977175E+03 -0.12558139570E+03  0.45103368403E+03  0.52265811273E+03  0.17300000000E+03 0. -1.
<mgrwt>
<rscale>  2 0.26408354E+03</rscale>
<asrwt>0</asrwt>
<pdfrwt beam="1">  1       21 0.13002164E+00 0.26408354E+03</pdfrwt>
<pdfrwt beam="2">  1       21 0.12995899E-01 0.26408354E+03</pdfrwt>
<totfact> 0.21104225E+04</totfact>
</mgrwt>
</event>
<event>
 4    2  0.4039581E+000  0.2053602E+03  0.7546771E-02  0.1145294E+00
         21   -1    0    0  501  502  0.00000000000E+00  0.00000000000E+00  0.14280823053E+04  0.14280823053E+04  0.00000000000E+00 0. -1.
         21   -1    0    0  502  503 -0.00000000000E+00 -0.00000000000E+00 -0.10556997247E+03  0.10556997247E+03  0.00000000000E+00 0. -1.
          6    1    1    2  501    0  0.10424079457E+03  0.37116874619E+02  0.13120517691E+04  0.13280258470E+04  0.17300000000E+03 0. -1.
         -6    1    1    2    0  503 -0.10424079457E+03 -0.37116874619E+02  0.10460563779E+02  0.20562643076E+03  0.17300000000E+03 0. -1.
<mgrwt>
<rscale>  2 0.20536019E+03</rscale>
<asrwt>0</asrwt>
<pdfrwt beam="1">  1       21 0.21970496E+00 0.20536019E+03</pdfrwt>
<pdfrwt beam="2">  1       21 0.16241535E-01 0.20536019E+03</pdfrwt>
<totfact> 0.33837998E+03</totfact>
</mgrwt>
</event>
<event>
 4    2  0.4039581E+000  0.2035212E+03  0.7546771E-02  0.1146802E+00
         21   -1    0    0  501  502  0.00000000000E+00  0.00000000000E+00  0.40997482819E+03  0.40997482819E+03  0.00000000000E+00 0.  1.
         21   -1    0    0  502  503 -0.00000000000E+00 -0.00000000000E+00 -0.17680451937E+03  0.17680451937E+03  0.00000000000E+00 0.  1.
          6    1    1    2  501    0 -0.73402163918E+02 -0.78128143353E+02  0.30865175805E+03  0.36971176908E+03  0.17300000000E+03 0.  1.
         -6    1    1    2    0  503  0.73402163918E+02  0.78128143353E+02 -0.75481449227E+02  0.21706757848E+03  0.17300000000E+03 0.  1.
<mgrwt>
<rscale>  2 0.20352121E+03</rscale>
<asrwt>0</asrwt>
<pdfrwt beam="1">  1       21 0.63073050E-01 0.20352121E+03</pdfrwt>
<pdfrwt beam="2">  1       21 0.27200695E-01 0.20352121E+03</pdfrwt>
<totfact> 0.29796728E+04</totfact>
</mgrwt>
</event>
<event>
 4    2  0.4039581E+000  0.1731130E+03  0.7546771E-02  0.1174640E+00
         21   -1    0    0  501  502  0.00000000000E+00  0.00000000000E+00  0.15889405047E+03  0.15889405047E+03  0.00000000000E+00 0. -1.
         21   -1    0    0  502  503 -0.00000000000E+00 -0.00000000000E+00 -0.22079363100E+03  0.22079363100E+03  0.00000000000E+00 0. -1.
          6    1    1    2  501    0 -0.40645598070E+00 -0.62414544796E+01  0.41536917570E+02  0.17802650500E+03  0.17300000000E+03 0.  1.
         -6    1    1    2    0  503  0.40645598070E+00  0.62414544796E+01 -0.10343649810E+03  0.20166117648E+03  0.17300000000E+03 0.  1.
<mgrwt>
<rscale>  2 0.17311303E+03</rscale>
<asrwt>0</asrwt>
<pdfrwt beam="1">  1       21 0.24445239E-01 0.17311303E+03</pdfrwt>
<pdfrwt beam="2">  1       21 0.33968251E-01 0.17311303E+03</pdfrwt>
<totfact> 0.13289011E+05</totfact>
</mgrwt>
</event>
<event>
 4    2  0.4039581E+000  0.2385072E+03  0.7546771E-02  0.1120791E+00
         21   -1    0    0  501  502  0.00000000000E+00  0.00000000000E+00  0.24561066927E+03  0.24561066927E+03  0.00000000000E+00 0.  1.
         21   -1    0    0  502  503 -0.00000000000E+00 -0.00000000000E+00 -0.34999030242E+03  0.34999030242E+03  0.00000000000E+00 0.  1.
          6    1    1    2  501    0 -0.32275140999E+02  0.16098132927E+03  0.12100652625E+03  0.26744766309E+03  0.17300000000E+03 0.  1.
         -6    1    1    2    0  503  0.32275140999E+02 -0.16098132927E+03 -0.22538615940E+03  0.32815330860E+03  0.17300000000E+03 0.  1.
<mgrwt>
<rscale>  2 0.23850718E+03</rscale>
<asrwt>0</asrwt>
<pdfrwt beam="1">  1       21 0.37786257E-01 0.23850718E+03</pdfrwt>
<pdfrwt beam="2">  1       21 0.53844662E-01 0.23850718E+03</pdfrwt>
<totfact> 0.21484750E+04</totfact>
</mgrwt>
</event>
<event>
 4    2  0.4039581E+000  0.1780084E+03  0.7546771E-02  0.1169745E+00
         21   -1    0    0  503  502  0.00000000000E+00  0.00000000000E+00  0.23432748068E+03  0.23432748068E+03  0.00000000000E+00 0.  1.
         21   -1    0    0  501  503 -0.00000000000E+00 -0.00000000000E+00 -0.24156377331E+03  0.24156377331E+03  0.00000000000E+00 0.  1.
          6    1    1    2  501    0  0.34389047463E+02  0.23987119786E+02  0.15425460210E+03  0.23554505040E+03  0.17300000000E+03 0.  1.
         -6    1    1    2    0  502 -0.34389047463E+02 -0.23987119786E+02 -0.16149089473E+03  0.24034620359E+03  0.17300000000E+03 0.  1.
<mgrwt>
<rscale>  2 0.17800839E+03</rscale>
<asrwt>0</asrwt>
<pdfrwt beam="1">  1       21 0.36050382E-01 0.17800839E+03</pdfrwt>
<pdfrwt beam="2">  1       21 0.37163657E-01 0.17800839E+03</pdfrwt>
<totfact> 0.52168406E+04</totfact>
</mgrwt>
</event>
<event>
 4    2  0.4039581E+000  0.5568278E+03  0.7546771E-02  0.9999258E-01
         21   -1    0    0  501  502  0.00000000000E+00  0.00000000000E+00  0.14432594827E+03  0.14432594827E+03  0.00000000000E+00 0. -1.
         21   -1    0    0  502  503 -0.00000000000E+00 -0.00000000000E+00 -0.22072453754E+04  0.22072453754E+04  0.00000000000E+00 0.  1.
          6    1    1    2  501    0  0.24689135132E+03  0.46815904694E+03 -0.83933562308E+03  0.10072445189E+04  0.17300000000E+03 0.  1.
         -6    1    1    2    0  503 -0.24689135132E+03 -0.46815904694E+03 -0.12235838040E+04  0.13443268048E+04  0.17300000000E+03 0. -1.
<mgrwt>
<rscale>  2 0.55682783E+03</rscale>
<asrwt>0</asrwt>
<pdfrwt beam="1">  1       21 0.22203994E-01 0.55682783E+03</pdfrwt>
<pdfrwt beam="2">  1       21 0.33957618E+00 0.55682783E+03</pdfrwt>
<totfact> 0.28076933E+02</totfact>
</mgrwt>
</event>
<event>
 4    2  0.4039581E+000  0.2068548E+03  0.7546771E-02  0.1144081E+00
         21   -1    0    0  501  502  0.00000000000E+00  0.00000000000E+00  0.19377659377E+03  0.19377659377E+03  0.00000000000E+00 0.  1.
         21   -1    0    0  502  503 -0.00000000000E+00 -0.00000000000E+00 -0.25848230541E+03  0.25848230541E+03  0.00000000000E+00 0. -1.
          6    1    1    2  501    0  0.10031642455E+03  0.52881996709E+02  0.53968978291E+02  0.21377918801E+03  0.17300000000E+03 0.  1.
         -6    1    1    2    0  503 -0.10031642455E+03 -0.52881996709E+02 -0.11867468993E+03  0.23847971117E+03  0.17300000000E+03 0. -1.
<mgrwt>
<rscale>  2 0.20685476E+03</rscale>
<asrwt>0</asrwt>
<pdfrwt beam="1">  1       21 0.29811784E-01 0.20685476E+03</pdfrwt>
<pdfrwt beam="2">  1       21 0.39766508E-01 0.20685476E+03</pdfrwt>
<totfact> 0.65331335E+04</totfact>
</mgrwt>
</event>
<event>
 4    2  0.4039581E+000  0.2701035E+03  0.7546771E-02  0.1101220E+00
         21   -1    0    0  501  502  0.00000000000E+00  0.00000000000E+00  0.18779635250E+03  0.18779635250E+03  0.00000000000E+00 0.  1.
         21   -1    0    0  502  503 -0.00000000000E+00 -0.00000000000E+00 -0.38940640349E+03  0.38940640349E+03  0.00000000000E+00 0.  1.
          6    1    1    2  501    0 -0.16939438693E+03  0.11971826677E+03 -0.11484941180E+03  0.29350691493E+03  0.17300000000E+03 0.  1.
         -6    1    1    2    0  503  0.16939438693E+03 -0.11971826677E+03 -0.86760639198E+02  0.28369584106E+03  0.17300000000E+03 0.  1.
<mgrwt>
<rscale>  2 0.27010354E+03</rscale>
<asrwt>0</asrwt>
<pdfrwt beam="1">  1       21 0.28891747E-01 0.27010354E+03</pdfrwt>
<pdfrwt beam="2">  1       21 0.59908677E-01 0.27010354E+03</pdfrwt>
<totfact> 0.28705024E+04</totfact>
</mgrwt>
</event>
<event>
 4    2  0.4039581E+000  0.2000402E+03  0.7546771E-02  0.1149705E+00
         21   -1    0    0  501  502  0.00000000000E+00  0.00000000000E+00  0.17339952306E+03  0.17339952306E+03  0.00000000000E+00 0.  1.
         21   -1    0    0  502  503 -0.00000000000E+00 -0.00000000000E+00 -0.23236098248E+03  0.23236098248E+03  0.00000000000E+00 0. -1.
          6    1    1    2  501    0  0.58696374743E+02  0.81497427407E+02 -0.46247496902E+02  0.20531664826E+03  0.17300000000E+03 0. -1.
         -6    1    1    2    0  503 -0.58696374743E+02 -0.81497427407E+02 -0.12713962519E+02  0.20044385729E+03  0.17300000000E+03 0. -1.
<mgrwt>
<rscale>  2 0.20004023E+03</rscale>
<asrwt>0</asrwt>
<pdfrwt beam="1">  1       21 0.26676850E-01 0.20004023E+03</pdfrwt>
<pdfrwt beam="2">  1       21 0.35747843E-01 0.20004023E+03</pdfrwt>
<totfact> 0.10062692E+05</totfact>
</mgrwt>
</event>
<event>
 4    2  0.4039581E+000  0.1746806E+03  0.7546771E-02  0.1173053E+00
         21   -1    0    0  503  502  0.00000000000E+00  0.00000000000E+00  0.16028348393E+03  0.16028348393E+03  0.00000000000E+00 0.  1.
         21   -1    0    0  501  503 -0.00000000000E+00 -0.00000000000E+00 -0.26562153181E+03  0.26562153181E+03  0.00000000000E+00 0.  1.
          6    1    1    2  501    0  0.75849669489E+01  0.22951939930E+02 -0.16601496604E+03  0.24098608304E+03  0.17300000000E+03 0.  1.
         -6    1    1    2    0  502 -0.75849669489E+01 -0.22951939930E+02  0.60676918160E+02  0.18491893269E+03  0.17300000000E+03 0.  1.
<mgrwt>
<rscale>  2 0.17468063E+03</rscale>
<asrwt>0</asrwt>
<pdfrwt beam="1">  1       21 0.24658998E-01 0.17468063E+03</pdfrwt>
<pdfrwt beam="2">  1       21 0.40864850E-01 0.17468063E+03</pdfrwt>
<totfact> 0.90329008E+04</totfact>
</mgrwt>
</event>
<event>
 4    2  0.4039581E+000  0.2986512E+03  0.7546771E-02  0.1085917E+00
         21   -1    0    0  503  502  0.00000000000E+00  0.00000000000E+00  0.16195524568E+03  0.16195524568E+03  0.00000000000E+00 0. -1.
         21   -1    0    0  501  503 -0.00000000000E+00 -0.00000000000E+00 -0.84166154516E+03  0.84166154516E+03  0.00000000000E+00 0.  1.
          6    1    1    2  501    0 -0.17974083103E+03  0.16418514239E+03 -0.63488546543E+03  0.70162103841E+03  0.17300000000E+03 0.  1.
         -6    1    1    2    0  502  0.17974083103E+03 -0.16418514239E+03 -0.44820834046E+02  0.30199575243E+03  0.17300000000E+03 0. -1.
<mgrwt>
<rscale>  2 0.29865118E+03</rscale>
<asrwt>0</asrwt>
<pdfrwt beam="1">  1       21 0.24916192E-01 0.29865118E+03</pdfrwt>
<pdfrwt beam="2">  1       21 0.12948639E+00 0.29865118E+03</pdfrwt>
<totfact> 0.62162948E+03</totfact>
</mgrwt>
</event>
<event>
 4    2  0.4039581E+000  0.1828223E+03  0.7546771E-02  0.1165099E+00
         21   -1    0    0  503  502  0.00000000000E+00  0.00000000000E+00  0.36632143713E+02  0.36632143713E+02  0.00000000000E+00 0. -1.
         21   -1    0    0  501  503 -0.00000000000E+00 -0.00000000000E+00 -0.94620634132E+03  0.94620634132E+03  0.00000000000E+00 0. -1.
          6    1    1    2  501    0  0.59048657267E+02  0.28698227083E+01 -0.36192982900E+03  0.40548388492E+03  0.17300000000E+03 0. -1.
         -6    1    1    2    0  502 -0.59048657267E+02 -0.28698227083E+01 -0.54764436861E+03  0.57735460012E+03  0.17300000000E+03 0. -1.
<mgrwt>
<rscale>  2 0.18282226E+03</rscale>
<asrwt>0</asrwt>
<pdfrwt beam="1">  1       21 0.56357142E-02 0.18282226E+03</pdfrwt>
<pdfrwt beam="2">  1       21 0.14557021E+00 0.18282226E+03</pdfrwt>
<totfact> 0.71313234E+04</totfact>
</mgrwt>
</event>
<event>
 4    2  0.4039581E+000  0.1912143E+03  0.7546771E-02  0.1157371E+00
         21   -1    0    0  503  502  0.00000000000E+00  0.00000000000E+00  0.18051634978E+03  0.18051634978E+03  0.00000000000E+00 0.  1.
         21   -1    0    0  501  503 -0.00000000000E+00 -0.00000000000E+00 -0.54770487864E+03  0.54770487864E+03  0.00000000000E+00 0.  1.
          6    1    1    2  501    0  0.54895409276E+02  0.60169827204E+02 -0.47264187713E+03  0.50985611508E+03  0.17300000000E+03 0.  1.
         -6    1    1    2    0  502 -0.54895409276E+02 -0.60169827204E+02  0.10545334827E+03  0.21836511334E+03  0.17300000000E+03 0.  1.
<mgrwt>
<rscale>  2 0.19121431E+03</rscale>
<asrwt>0</asrwt>
<pdfrwt beam="1">  1       21 0.27771747E-01 0.19121431E+03</pdfrwt>
<pdfrwt beam="2">  1       21 0.84262287E-01 0.19121431E+03</pdfrwt>
<totfact> 0.15144741E+04</totfact>
</mgrwt>
</event>
<event>
 4    2  0.4039581E+000  0.1853889E+03  0.7546771E-02  0.1162687E+00
         21   -1    0    0  503  502  0.00000000000E+00  0.00000000000E+00  0.41140884846E+03  0.41140884846E+03  0.00000000000E+00 0.  1.
         21   -1    0    0  501  503 -0.00000000000E+00 -0.00000000000E+00 -0.91583893930E+02  0.91583893930E+02  0.00000000000E+00 0.  1.
          6    1    1    2  501    0  0.64388345110E+02 -0.17151379780E+02  0.23444738090E+03  0.29888894798E+03  0.17300000000E+03 0.  1.
         -6    1    1    2    0  502 -0.64388345110E+02  0.17151379780E+02  0.85377573635E+02  0.20410379441E+03  0.17300000000E+03 0.  1.
<mgrwt>
<rscale>  2 0.18538886E+03</rscale>
<asrwt>0</asrwt>
<pdfrwt beam="1">  1       21 0.63293668E-01 0.18538886E+03</pdfrwt>
<pdfrwt beam="2">  1       21 0.14089830E-01 0.18538886E+03</pdfrwt>
<totfact> 0.10177023E+05</totfact>
</mgrwt>
</event>
<event>
 4    2  0.4039581E+000  0.2539623E+03  0.7546771E-02  0.1110826E+00
         21   -1    0    0  503  502  0.00000000000E+00  0.00000000000E+00  0.34319378878E+03  0.34319378878E+03  0.00000000000E+00 0. -1.
         21   -1    0    0  501  503 -0.00000000000E+00 -0.00000000000E+00 -0.38408773455E+03  0.38408773455E+03  0.00000000000E+00 0. -1.
          6    1    1    2  501    0  0.25593463935E+02  0.18415429859E+03 -0.28031849827E+03  0.37825294653E+03  0.17300000000E+03 0. -1.
         -6    1    1    2    0  502 -0.25593463935E+02 -0.18415429859E+03  0.23942455250E+03  0.34902857680E+03  0.17300000000E+03 0. -1.
<mgrwt>
<rscale>  2 0.25396226E+03</rscale>
<asrwt>0</asrwt>
<pdfrwt beam="1">  1       21 0.52799045E-01 0.25396226E+03</pdfrwt>
<pdfrwt beam="2">  1       21 0.59090420E-01 0.25396226E+03</pdfrwt>
<totfact> 0.87567785E+03</totfact>
</mgrwt>
</event>
<event>
 4    2  0.4039581E+000  0.1793852E+03  0.7546771E-02  0.1168399E+00
         21   -1    0    0  503  502  0.00000000000E+00  0.00000000000E+00  0.36722243878E+02  0.36722243878E+02  0.00000000000E+00 0. -1.
         21   -1    0    0  501  503 -0.00000000000E+00 -0.00000000000E+00 -0.92738432482E+03  0.92738432482E+03  0.00000000000E+00 0. -1.
          6    1    1    2  501    0  0.46716910975E+02 -0.82201889543E+01 -0.33217297780E+03  0.37751546784E+03  0.17300000000E+03 0. -1.
         -6    1    1    2    0  502 -0.46716910975E+02  0.82201889543E+01 -0.55848910314E+03  0.58659110085E+03  0.17300000000E+03 0. -1.
<mgrwt>
<rscale>  2 0.17938518E+03</rscale>
<asrwt>0</asrwt>
<pdfrwt beam="1">  1       21 0.56495763E-02 0.17938518E+03</pdfrwt>
<pdfrwt beam="2">  1       21 0.14267450E+00 0.17938518E+03</pdfrwt>
<totfact> 0.74953060E+04</totfact>
</mgrwt>
</event>
<event>
 4    2  0.4039581E+000  0.2289701E+03  0.7546771E-02  0.1127367E+00
         21   -1    0    0  501  502  0.00000000000E+00  0.00000000000E+00  0.24789997421E+03  0.24789997421E+03  0.00000000000E+00 0. -1.
         21   -1    0    0  502  503 -0.00000000000E+00 -0.00000000000E+00 -0.29702004522E+03  0.29702004522E+03  0.00000000000E+00 0.  1.
          6    1    1    2  501    0  0.14171801167E+03 -0.49135416915E+02  0.12165105445E+03  0.25928027899E+03  0.17300000000E+03 0. -1.
         -6    1    1    2    0  503 -0.14171801167E+03  0.49135416915E+02 -0.17077112546E+03  0.28563974044E+03  0.17300000000E+03 0.  1.
<mgrwt>
<rscale>  2 0.22897005E+03</rscale>
<asrwt>0</asrwt>
<pdfrwt beam="1">  1       21 0.38138457E-01 0.22897005E+03</pdfrwt>
<pdfrwt beam="2">  1       21 0.45695392E-01 0.22897005E+03</pdfrwt>
<totfact> 0.29868337E+04</totfact>
</mgrwt>
</event>
<event>
 4    2  0.4039581E+000  0.2323335E+03  0.7546771E-02  0.1125008E+00
         21   -1    0    0  501  502  0.00000000000E+00  0.00000000000E+00  0.50571425616E+03  0.50571425616E+03  0.00000000000E+00 0.  1.
         21   -1    0    0  502  503 -0.00000000000E+00 -0.00000000000E+00 -0.10692889705E+03  0.10692889705E+03  0.00000000000E+00 0.  1.
          6    1    1    2  501    0 -0.13710317887E+03 -0.72474530865E+02  0.21234148587E+03  0.31475029134E+03  0.17300000000E+03 0.  1.
         -6    1    1    2    0  503  0.13710317887E+03  0.72474530865E+02  0.18644387324E+03  0.29789286186E+03  0.17300000000E+03 0.  1.
<mgrwt>
<rscale>  2 0.23233347E+03</rscale>
<asrwt>0</asrwt>
<pdfrwt beam="1">  1       21 0.77802192E-01 0.23233347E+03</pdfrwt>
<pdfrwt beam="2">  1       21 0.16450600E-01 0.23233347E+03</pdfrwt>
<totfact> 0.47619084E+04</totfact>
</mgrwt>
</event>
<event>
 4    2  0.4039581E+000  0.1794562E+03  0.7546771E-02  0.1168330E+00
         21   -1    0    0  501  502  0.00000000000E+00  0.00000000000E+00  0.49761004175E+03  0.49761004175E+03  0.00000000000E+00 0. -1.
         21   -1    0    0  502  503 -0.00000000000E+00 -0.00000000000E+00 -0.79650462228E+02  0.79650462228E+02  0.00000000000E+00 0. -1.
          6    1    1    2  501    0  0.11043160931E+02  0.46406648346E+02  0.33395029204E+03  0.37911386940E+03  0.17300000000E+03 0. -1.
         -6    1    1    2    0  503 -0.11043160931E+02 -0.46406648346E+02  0.84009287486E+02  0.19814663459E+03  0.17300000000E+03 0. -1.
<mgrwt>
<rscale>  2 0.17945620E+03</rscale>
<asrwt>0</asrwt>
<pdfrwt beam="1">  1       21 0.76555389E-01 0.17945620E+03</pdfrwt>
<pdfrwt beam="2">  1       21 0.12253918E-01 0.17945620E+03</pdfrwt>
<totfact> 0.86300827E+04</totfact>
</mgrwt>
</event>
<event>
 4    2  0.4039581E+000  0.1776036E+03  0.7546771E-02  0.1170143E+00
         21   -1    0    0  501  502  0.00000000000E+00  0.00000000000E+00  0.52618746106E+02  0.52618746106E+02  0.00000000000E+00 0. -1.
         21   -1    0    0  502  503 -0.00000000000E+00 -0.00000000000E+00 -0.82670601021E+03  0.82670601021E+03  0.00000000000E+00 0. -1.
          6    1    1    2  501    0  0.40138595994E+02  0.17136327141E+01 -0.61755273422E+03  0.64258417578E+03  0.17300000000E+03 0. -1.
         -6    1    1    2    0  503 -0.40138595994E+02 -0.17136327141E+01 -0.15653452989E+03  0.23674058054E+03  0.17300000000E+03 0. -1.
<mgrwt>
<rscale>  2 0.17760361E+03</rscale>
<asrwt>0</asrwt>
<pdfrwt beam="1">  1       21 0.80951916E-02 0.17760361E+03</pdfrwt>
<pdfrwt beam="2">  1       21 0.12718554E+00 0.17760361E+03</pdfrwt>
<totfact> 0.54115053E+04</totfact>
</mgrwt>
</event>
<event>
 4    2  0.4039581E+000  0.4018647E+03  0.7546771E-02  0.1043136E+00
         21   -1    0    0  501  502  0.00000000000E+00  0.00000000000E+00  0.14755121925E+03  0.14755121925E+03  0.00000000000E+00 0.  1.
         21   -1    0    0  502  503 -0.00000000000E+00 -0.00000000000E+00 -0.12317082634E+04  0.12317082634E+04  0.00000000000E+00 0. -1.
          6    1    1    2  501    0  0.34264840655E+03 -0.11898864444E+03 -0.31190906157E+03  0.50870668436E+03  0.17300000000E+03 0.  1.
         -6    1    1    2    0  503 -0.34264840655E+03  0.11898864444E+03 -0.77224798258E+03  0.87055279830E+03  0.17300000000E+03 0. -1.
<mgrwt>
<rscale>  2 0.40186469E+03</rscale>
<asrwt>0</asrwt>
<pdfrwt beam="1">  1       21 0.22700187E-01 0.40186469E+03</pdfrwt>
<pdfrwt beam="2">  1       21 0.18949358E+00 0.40186469E+03</pdfrwt>
<totfact> 0.24856231E+03</totfact>
</mgrwt>
</event>
<event>
 4    2  0.4039581E+000  0.1731109E+03  0.7546771E-02  0.1174642E+00
         21   -1    0    0  501  502  0.00000000000E+00  0.00000000000E+00  0.17197462610E+04  0.17197462610E+04  0.00000000000E+00 0.  1.
         21   -1    0    0  502  503 -0.00000000000E+00 -0.00000000000E+00 -0.18937998151E+02  0.18937998151E+02  0.00000000000E+00 0.  1.
          6    1    1    2  501    0  0.58414218301E+01  0.20633722733E+01  0.10960876499E+04  0.11096736078E+04  0.17300000000E+03 0. -1.
         -6    1    1    2    0  503 -0.58414218301E+01 -0.20633722733E+01  0.60472061295E+03  0.62901065129E+03  0.17300000000E+03 0. -1.
<mgrwt>
<rscale>  2 0.17311089E+03</rscale>
<asrwt>0</asrwt>
<pdfrwt beam="1">  1       21 0.26457622E+00 0.17311089E+03</pdfrwt>
<pdfrwt beam="2">  1       21 0.29135395E-02 0.17311089E+03</pdfrwt>
<totfact> 0.36920468E+04</totfact>
</mgrwt>
</event>
<event>
 4    2  0.4039581E+000  0.6107290E+03  0.7546771E-02  0.9883394E-01
         21   -1    0    0  503  502  0.00000000000E+00  0.00000000000E+00  0.32086702261E+03  0.32086702261E+03  0.00000000000E+00 0.  1.
         21   -1    0    0  501  503 -0.00000000000E+00 -0.00000000000E+00 -0.13093260973E+04  0.13093260973E+04  0.00000000000E+00 0. -1.
          6    1    1    2  501    0  0.55601646711E+03 -0.18413735245E+03 -0.76723409565E+03  0.98063144646E+03  0.17300000000E+03 0.  1.
         -6    1    1    2    0  502 -0.55601646711E+03  0.18413735245E+03 -0.22122497903E+03  0.64956167345E+03  0.17300000000E+03 0. -1.
<mgrwt>
<rscale>  2 0.61072897E+03</rscale>
<asrwt>0</asrwt>
<pdfrwt beam="1">  1       21 0.49364156E-01 0.61072897E+03</pdfrwt>
<pdfrwt beam="2">  1       21 0.20143479E+00 0.61072897E+03</pdfrwt>
<totfact> 0.39414213E+02</totfact>
</mgrwt>
</event>
<event>
 4    2  0.4039581E+000  0.2108616E+03  0.7546771E-02  0.1140885E+00
         21   -1    0    0  501  502  0.00000000000E+00  0.00000000000E+00  0.27387447508E+02  0.27387447508E+02  0.00000000000E+00 0.  1.
         21   -1    0    0  502  503 -0.00000000000E+00 -0.00000000000E+00 -0.23713276960E+04  0.23713276960E+04  0.00000000000E+00 0. -1.
          6    1    1    2  501    0  0.11827000672E+03  0.23363204613E+02 -0.49843061929E+03  0.54119840730E+03  0.17300000000E+03 0.  1.
         -6    1    1    2    0  503 -0.11827000672E+03 -0.23363204613E+02 -0.18455096292E+04  0.18575167362E+04  0.17300000000E+03 0. -1.
<mgrwt>
<rscale>  2 0.21086165E+03</rscale>
<asrwt>0</asrwt>
<pdfrwt beam="1">  1       21 0.42134533E-02 0.21086165E+03</pdfrwt>
<pdfrwt beam="2">  1       21 0.36481966E+00 0.21086165E+03</pdfrwt>
<totfact> 0.50122977E+03</totfact>
</mgrwt>
</event>
<event>
 4    2  0.4039581E+000  0.1855116E+03  0.7546771E-02  0.1162573E+00
         21   -1    0    0  503  502  0.00000000000E+00  0.00000000000E+00  0.25520046455E+03  0.25520046455E+03  0.00000000000E+00 0.  1.
         21   -1    0    0  501  503 -0.00000000000E+00 -0.00000000000E+00 -0.24664125767E+03  0.24664125767E+03  0.00000000000E+00 0.  1.
          6    1    1    2  501    0  0.21973076512E+02 -0.63267317161E+02 -0.16464847342E+03  0.24803969301E+03  0.17300000000E+03 0.  1.
         -6    1    1    2    0  502 -0.21973076512E+02  0.63267317161E+02  0.17320768031E+03  0.25380202921E+03  0.17300000000E+03 0.  1.
<mgrwt>
<rscale>  2 0.18551164E+03</rscale>
<asrwt>0</asrwt>
<pdfrwt beam="1">  1       21 0.39261610E-01 0.18551164E+03</pdfrwt>
<pdfrwt beam="2">  1       21 0.37944809E-01 0.18551164E+03</pdfrwt>
<totfact> 0.42038660E+04</totfact>
</mgrwt>
</event>
<event>
 4    2  0.4039581E+000  0.1734065E+03  0.7546771E-02  0.1174341E+00
         21   -1    0    0  503  502  0.00000000000E+00  0.00000000000E+00  0.41835251915E+03  0.41835251915E+03  0.00000000000E+00 0.  1.
         21   -1    0    0  501  503 -0.00000000000E+00 -0.00000000000E+00 -0.16314045047E+03  0.16314045047E+03  0.00000000000E+00 0.  1.
          6    1    1    2  501    0  0.11702729319E+02  0.19677719690E+01 -0.89855598081E+02  0.19530451737E+03  0.17300000000E+03 0.  1.
         -6    1    1    2    0  502 -0.11702729319E+02 -0.19677719690E+01  0.34506766677E+03  0.38618845225E+03  0.17300000000E+03 0.  1.
<mgrwt>
<rscale>  2 0.17340653E+03</rscale>
<asrwt>0</asrwt>
<pdfrwt beam="1">  1       21 0.64361926E-01 0.17340653E+03</pdfrwt>
<pdfrwt beam="2">  1       21 0.25098531E-01 0.17340653E+03</pdfrwt>
<totfact> 0.33822842E+04</totfact>
</mgrwt>
</event>
<event>
 4    2  0.4039581E+000  0.2085127E+03  0.7546771E-02  0.1142749E+00
         21   -1    0    0  501  502  0.00000000000E+00  0.00000000000E+00  0.83314829112E+02  0.83314829112E+02  0.00000000000E+00 0. -1.
         21   -1    0    0  502  503 -0.00000000000E+00 -0.00000000000E+00 -0.66231687697E+03  0.66231687697E+03  0.00000000000E+00 0.  1.
          6    1    1    2  501    0 -0.96148650812E+02 -0.65604854334E+02 -0.11780759027E+03  0.23949152029E+03  0.17300000000E+03 0. -1.
         -6    1    1    2    0  503  0.96148650812E+02  0.65604854334E+02 -0.46119445758E+03  0.50614018579E+03  0.17300000000E+03 0.  1.
<mgrwt>
<rscale>  2 0.20851273E+03</rscale>
<asrwt>0</asrwt>
<pdfrwt beam="1">  1       21 0.12817666E-01 0.20851273E+03</pdfrwt>
<pdfrwt beam="2">  1       21 0.10189490E+00 0.20851273E+03</pdfrwt>
<totfact> 0.40586490E+04</totfact>
</mgrwt>
</event>
<event>
 4    2  0.4039581E+000  0.1815343E+03  0.7546771E-02  0.1166326E+00
         21   -1    0    0  503  502  0.00000000000E+00  0.00000000000E+00  0.15281576751E+02  0.15281576751E+02  0.00000000000E+00 0. -1.
         21   -1    0    0  501  503 -0.00000000000E+00 -0.00000000000E+00 -0.22083523564E+04  0.22083523564E+04  0.00000000000E+00 0. -1.
          6    1    1    2  501    0  0.15696708870E+01 -0.54984023647E+02 -0.12669030159E+04  0.12798429428E+04  0.17300000000E+03 0. -1.
         -6    1    1    2    0  502 -0.15696708870E+01  0.54984023647E+02 -0.92616776377E+03  0.94379099030E+03  0.17300000000E+03 0. -1.
<mgrwt>
<rscale>  2 0.18153431E+03</rscale>
<asrwt>0</asrwt>
<pdfrwt beam="1">  1       21 0.23510123E-02 0.18153431E+03</pdfrwt>
<pdfrwt beam="2">  1       21 0.33974644E+00 0.18153431E+03</pdfrwt>
<totfact> 0.19230261E+04</totfact>
</mgrwt>
</event>
<event>
 4    2  0.4039581E+000  0.4451937E+03  0.7546771E-02  0.1029165E+00
         21   -1    0    0  503  502  0.00000000000E+00  0.00000000000E+00  0.18280777107E+04  0.18280777107E+04  0.00000000000E+00 0. -1.
         21   -1    0    0  501  503 -0.00000000000E+00 -0.00000000000E+00 -0.15587589993E+03  0.15587589993E+03  0.00000000000E+00 0.  1.
          6    1    1    2  501    0 -0.90403540592E+02  0.40011954759E+03  0.28875234802E+03  0.53063675994E+03  0.17300000000E+03 0.  1.
         -6    1    1    2    0  502  0.90403540592E+02 -0.40011954759E+03  0.13834494627E+04  0.14533168507E+04  0.17300000000E+03 0. -1.
<mgrwt>
<rscale>  2 0.44519372E+03</rscale>
<asrwt>0</asrwt>
<pdfrwt beam="1">  1       21 0.28124271E+00 0.44519372E+03</pdfrwt>
<pdfrwt beam="2">  1       21 0.23980909E-01 0.44519372E+03</pdfrwt>
<totfact> 0.57885090E+02</totfact>
</mgrwt>
</event>
<event>
 4    2  0.4039581E+000  0.2475837E+03  0.7546771E-02  0.1114841E+00
         21   -1    0    0  503  502  0.00000000000E+00  0.00000000000E+00  0.34066887865E+03  0.34066887865E+03  0.00000000000E+00 0.  1.
         21   -1    0    0  501  503 -0.00000000000E+00 -0.00000000000E+00 -0.18010450218E+03  0.18010450218E+03  0.00000000000E+00 0. -1.
          6    1    1    2  501    0 -0.34872010945E+02  0.17364516804E+03  0.88308469250E+02  0.26286134610E+03  0.17300000000E+03 0.  1.
         -6    1    1    2    0  502  0.34872010945E+02 -0.17364516804E+03  0.72255907221E+02  0.25791203473E+03  0.17300000000E+03 0. -1.
<mgrwt>
<rscale>  2 0.24758373E+03</rscale>
<asrwt>0</asrwt>
<pdfrwt beam="1">  1       21 0.52410597E-01 0.24758373E+03</pdfrwt>
<pdfrwt beam="2">  1       21 0.27708385E-01 0.24758373E+03</pdfrwt>
<totfact> 0.41841126E+04</totfact>
</mgrwt>
</event>
<event>
 4    2  0.4039581E+000  0.2180739E+03  0.7546771E-02  0.1135327E+00
         21   -1    0    0  501  502  0.00000000000E+00  0.00000000000E+00  0.18979651341E+03  0.18979651341E+03  0.00000000000E+00 0. -1.
         21   -1    0    0  502  503 -0.00000000000E+00 -0.00000000000E+00 -0.29010606458E+03  0.29010606458E+03  0.00000000000E+00 0.  1.
          6    1    1    2  501    0 -0.12836596025E+03 -0.33902932141E+02  0.38432789200E+02  0.22143465818E+03  0.17300000000E+03 0. -1.
         -6    1    1    2    0  503  0.12836596025E+03  0.33902932141E+02 -0.13874234036E+03  0.25846791981E+03  0.17300000000E+03 0.  1.
<mgrwt>
<rscale>  2 0.21807391E+03</rscale>
<asrwt>0</asrwt>
<pdfrwt beam="1">  1       21 0.29199464E-01 0.21807391E+03</pdfrwt>
<pdfrwt beam="2">  1       21 0.44631702E-01 0.21807391E+03</pdfrwt>
<totfact> 0.53490816E+04</totfact>
</mgrwt>
</event>
<event>
 4    2  0.4039581E+000  0.1787764E+03  0.7546771E-02  0.1168993E+00
         21   -1    0    0  503  502  0.00000000000E+00  0.00000000000E+00  0.31746190128E+03  0.31746190128E+03  0.00000000000E+00 0. -1.
         21   -1    0    0  501  503 -0.00000000000E+00 -0.00000000000E+00 -0.10696549554E+03  0.10696549554E+03  0.00000000000E+00 0. -1.
          6    1    1    2  501    0 -0.67745205277E+00 -0.45072700229E+02  0.53792168230E+02  0.18669387941E+03  0.17300000000E+03 0. -1.
         -6    1    1    2    0  502  0.67745205277E+00  0.45072700229E+02  0.15670423751E+03  0.23773351741E+03  0.17300000000E+03 0. -1.
<mgrwt>
<rscale>  2 0.17877642E+03</rscale>
<asrwt>0</asrwt>
<pdfrwt beam="1">  1       21 0.48840292E-01 0.17877642E+03</pdfrwt>
<pdfrwt beam="2">  1       21 0.16456230E-01 0.17877642E+03</pdfrwt>
<totfact> 0.13313673E+05</totfact>
</mgrwt>
</event>
<event>
 4    2  0.4039581E+000  0.1911722E+03  0.7546771E-02  0.1157408E+00
         21   -1    0    0  503  502  0.00000000000E+00  0.00000000000E+00  0.69637854428E+02  0.69637854428E+02  0.00000000000E+00 0. -1.
         21   -1    0    0  501  503 -0.00000000000E+00 -0.00000000000E+00 -0.85060763985E+03  0.85060763985E+03  0.00000000000E+00 0. -1.
          6    1    1    2  501    0 -0.17038527117E+02  0.79545567224E+02 -0.67524650282E+03  0.70178675411E+03  0.17300000000E+03 0. -1.
         -6    1    1    2    0  502  0.17038527117E+02 -0.79545567224E+02 -0.10572328260E+03  0.21845874017E+03  0.17300000000E+03 0. -1.
<mgrwt>
<rscale>  2 0.19117220E+03</rscale>
<asrwt>0</asrwt>
<pdfrwt beam="1">  1       21 0.10713515E-01 0.19117220E+03</pdfrwt>
<pdfrwt beam="2">  1       21 0.13086272E+00 0.19117220E+03</pdfrwt>
<totfact> 0.30558907E+04</totfact>
</mgrwt>
</event>
<event>
 4    2  0.4039581E+000  0.2197125E+03  0.7546771E-02  0.1134098E+00
         21   -1    0    0  501  502  0.00000000000E+00  0.00000000000E+00  0.13822005560E+04  0.13822005560E+04  0.00000000000E+00 0.  1.
         21   -1    0    0  502  503 -0.00000000000E+00 -0.00000000000E+00 -0.34961976777E+02  0.34961976777E+02  0.00000000000E+00 0.  1.
          6    1    1    2  501    0 -0.71999119324E+02 -0.11472012312E+03  0.69661232813E+03  0.73043980966E+03  0.17300000000E+03 0.  1.
         -6    1    1    2    0  503  0.71999119324E+02  0.11472012312E+03  0.65062625104E+03  0.68672272307E+03  0.17300000000E+03 0.  1.
<mgrwt>
<rscale>  2 0.21971249E+03</rscale>
<asrwt>0</asrwt>
<pdfrwt beam="1">  1       21 0.21264620E+00 0.21971249E+03</pdfrwt>
<pdfrwt beam="2">  1       21 0.53787667E-02 0.21971249E+03</pdfrwt>
<totfact> 0.26023478E+04</totfact>
</mgrwt>
</event>
<event>
 4    2  0.4039581E+000  0.1903395E+03  0.7546771E-02  0.1158155E+00
         21   -1    0    0  501  502  0.00000000000E+00  0.00000000000E+00  0.14439312588E+03  0.14439312588E+03  0.00000000000E+00 0. -1.
         21   -1    0    0  502  503 -0.00000000000E+00 -0.00000000000E+00 -0.25341826457E+03  0.25341826457E+03  0.00000000000E+00 0. -1.
          6    1    1    2  501    0 -0.77321535052E+02 -0.17930859245E+02 -0.34709127239E+02  0.19347831664E+03  0.17300000000E+03 0. -1.
         -6    1    1    2    0  503  0.77321535052E+02  0.17930859245E+02 -0.74316011450E+02  0.20433307381E+03  0.17300000000E+03 0. -1.
<mgrwt>
<rscale>  2 0.19033953E+03</rscale>
<asrwt>0</asrwt>
<pdfrwt beam="1">  1       21 0.22214327E-01 0.19033953E+03</pdfrwt>
<pdfrwt beam="2">  1       21 0.38987425E-01 0.19033953E+03</pdfrwt>
<totfact> 0.12032580E+05</totfact>
</mgrwt>
</event>
<event>
 4    2  0.4039581E+000  0.3178993E+03  0.7546771E-02  0.1076620E+00
         21   -1    0    0  503  502  0.00000000000E+00  0.00000000000E+00  0.38222891063E+03  0.38222891063E+03  0.00000000000E+00 0. -1.
         21   -1    0    0  501  503 -0.00000000000E+00 -0.00000000000E+00 -0.28786174820E+03  0.28786174820E+03  0.00000000000E+00 0.  1.
          6    1    1    2  501    0 -0.14603295507E+03 -0.22317108181E+03  0.14284237541E+03  0.34851671399E+03  0.17300000000E+03 0. -1.
         -6    1    1    2    0  502  0.14603295507E+03  0.22317108181E+03 -0.48475212979E+02  0.32157394483E+03  0.17300000000E+03 0.  1.
<mgrwt>
<rscale>  2 0.31789929E+03</rscale>
<asrwt>0</asrwt>
<pdfrwt beam="1">  1       21 0.58804448E-01 0.31789929E+03</pdfrwt>
<pdfrwt beam="2">  1       21 0.44286423E-01 0.31789929E+03</pdfrwt>
<totfact> 0.12407778E+04</totfact>
</mgrwt>
</event>
<event>
 4    2  0.4039581E+000  0.1854683E+03  0.7546771E-02  0.1162613E+00
         21   -1    0    0  503  502  0.00000000000E+00  0.00000000000E+00  0.34138803715E+03  0.34138803715E+03  0.00000000000E+00 0.  1.
         21   -1    0    0  501  503 -0.00000000000E+00 -0.00000000000E+00 -0.22644533564E+03  0.22644533564E+03  0.00000000000E+00 0.  1.
          6    1    1    2  501    0 -0.25660811632E+02  0.61733486151E+02 -0.15404809906E+03  0.24110022271E+03  0.17300000000E+03 0.  1.
         -6    1    1    2    0  502  0.25660811632E+02 -0.61733486151E+02  0.26899080058E+03  0.32673315008E+03  0.17300000000E+03 0.  1.
<mgrwt>
<rscale>  2 0.18546833E+03</rscale>
<asrwt>0</asrwt>
<pdfrwt beam="1">  1       21 0.52521237E-01 0.18546833E+03</pdfrwt>
<pdfrwt beam="2">  1       21 0.34837744E-01 0.18546833E+03</pdfrwt>
<totfact> 0.27410631E+04</totfact>
</mgrwt>
</event>
<event>
 4    2  0.4039581E+000  0.2168177E+03  0.7546771E-02  0.1136278E+00
         21   -1    0    0  503  502  0.00000000000E+00  0.00000000000E+00  0.85839809820E+02  0.85839809820E+02  0.00000000000E+00 0.  1.
         21   -1    0    0  501  503 -0.00000000000E+00 -0.00000000000E+00 -0.80745476718E+03  0.80745476718E+03  0.00000000000E+00 0. -1.
          6    1    1    2  501    0  0.94029432949E+02  0.90771104916E+02 -0.61416367774E+03  0.65131171554E+03  0.17300000000E+03 0. -1.
         -6    1    1    2    0  502 -0.94029432949E+02 -0.90771104916E+02 -0.10745127962E+03  0.24198286146E+03  0.17300000000E+03 0.  1.
<mgrwt>
<rscale>  2 0.21681773E+03</rscale>
<asrwt>0</asrwt>
<pdfrwt beam="1">  1       21 0.13206125E-01 0.21681773E+03</pdfrwt>
<pdfrwt beam="2">  1       21 0.12422381E+00 0.21681773E+03</pdfrwt>
<totfact> 0.23590902E+04</totfact>
</mgrwt>
</event>
<event>
 4    2  0.4039581E+000  0.1825561E+03  0.7546771E-02  0.1165352E+00
         21   -1    0    0  501  502  0.00000000000E+00  0.00000000000E+00  0.13424290025E+04  0.13424290025E+04  0.00000000000E+00 0. -1.
         21   -1    0    0  502  503 -0.00000000000E+00 -0.00000000000E+00 -0.29783089308E+02  0.29783089308E+02  0.00000000000E+00 0. -1.
          6    1    1    2  501    0  0.57311351377E+02  0.10637097864E+02  0.93624230251E+03  0.95387440885E+03  0.17300000000E+03 0.  1.
         -6    1    1    2    0  503 -0.57311351377E+02 -0.10637097864E+02  0.37640361066E+03  0.41833768294E+03  0.17300000000E+03 0.  1.
<mgrwt>
<rscale>  2 0.18255613E+03</rscale>
<asrwt>0</asrwt>
<pdfrwt beam="1">  1       21 0.20652749E+00 0.18255613E+03</pdfrwt>
<pdfrwt beam="2">  1       21 0.45820148E-02 0.18255613E+03</pdfrwt>
<totfact> 0.38317259E+04</totfact>
</mgrwt>
</event>
<event>
 4    2  0.4039581E+000  0.1949570E+03  0.7546771E-02  0.1154065E+00
         21   -1    0    0  503  502  0.00000000000E+00  0.00000000000E+00  0.86265355373E+03  0.86265355373E+03  0.00000000000E+00 0. -1.
         21   -1    0    0  501  503 -0.00000000000E+00 -0.00000000000E+00 -0.69815270364E+02  0.69815270364E+02  0.00000000000E+00 0. -1.
          6    1    1    2  501    0  0.61677834588E+02  0.65384103371E+02  0.67960065576E+03  0.70701151869E+03  0.17300000000E+03 0. -1.
         -6    1    1    2    0  502 -0.61677834588E+02 -0.65384103371E+02  0.11323762760E+03  0.22545730540E+03  0.17300000000E+03 0. -1.
<mgrwt>
<rscale>  2 0.19495701E+03</rscale>
<asrwt>0</asrwt>
<pdfrwt beam="1">  1       21 0.13271592E+00 0.19495701E+03</pdfrwt>
<pdfrwt beam="2">  1       21 0.10740811E-01 0.19495701E+03</pdfrwt>
<totfact> 0.29290957E+04</totfact>
</mgrwt>
</event>
<event>
 4    2  0.4039581E+000  0.1815477E+03  0.7546771E-02  0.1166314E+00
         21   -1    0    0  501  502  0.00000000000E+00  0.00000000000E+00  0.76843273063E+02  0.76843273063E+02  0.00000000000E+00 0. -1.
         21   -1    0    0  502  503 -0.00000000000E+00 -0.00000000000E+00 -0.96484741133E+03  0.96484741133E+03  0.00000000000E+00 0. -1.
          6    1    1    2  501    0 -0.37503884821E+02 -0.40299062167E+02 -0.55822411062E+02  0.18993603493E+03  0.17300000000E+03 0. -1.
         -6    1    1    2    0  503  0.37503884821E+02  0.40299062167E+02 -0.83218172721E+03  0.85175464946E+03  0.17300000000E+03 0. -1.
<mgrwt>
<rscale>  2 0.18154767E+03</rscale>
<asrwt>0</asrwt>
<pdfrwt beam="1">  1       21 0.11822042E-01 0.18154767E+03</pdfrwt>
<pdfrwt beam="2">  1       21 0.14843807E+00 0.18154767E+03</pdfrwt>
<totfact> 0.18658446E+04</totfact>
</mgrwt>
</event>
<event>
 4    2  0.4039581E+000  0.1835680E+03  0.7546771E-02  0.1164394E+00
         21   -1    0    0  503  502  0.00000000000E+00  0.00000000000E+00  0.95755680434E+02  0.95755680434E+02  0.00000000000E+00 0. -1.
         21   -1    0    0  501  503 -0.00000000000E+00 -0.00000000000E+00 -0.35777352947E+03  0.35777352947E+03  0.00000000000E+00 0. -1.
          6    1    1    2  501    0 -0.53888486671E+02  0.29397969258E+02 -0.16004361474E+03  0.24353884333E+03  0.17300000000E+03 0. -1.
         -6    1    1    2    0  502  0.53888486671E+02 -0.29397969258E+02 -0.10197423429E+03  0.20999036657E+03  0.17300000000E+03 0. -1.
<mgrwt>
<rscale>  2 0.18356800E+03</rscale>
<asrwt>0</asrwt>
<pdfrwt beam="1">  1       21 0.14731643E-01 0.18356800E+03</pdfrwt>
<pdfrwt beam="2">  1       21 0.55042081E-01 0.18356800E+03</pdfrwt>
<totfact> 0.12664188E+05</totfact>
</mgrwt>
</event>
<event>
 4    2  0.4039581E+000  0.1979052E+03  0.7546771E-02  0.1151519E+00
         21   -1    0    0  503  502  0.00000000000E+00  0.00000000000E+00  0.37831861136E+03  0.37831861136E+03  0.00000000000E+00 0. -1.
         21   -1    0    0  501  503 -0.00000000000E+00 -0.00000000000E+00 -0.17181609204E+03  0.17181609204E+03  0.00000000000E+00 0.  1.
          6    1    1    2  501    0 -0.59664054362E+02 -0.75350285188E+02 -0.70161278215E+02  0.20997397415E+03  0.17300000000E+03 0.  1.
         -6    1    1    2    0  502  0.59664054362E+02  0.75350285188E+02  0.27666379753E+03  0.34016072925E+03  0.17300000000E+03 0. -1.
<mgrwt>
<rscale>  2 0.19790519E+03</rscale>
<asrwt>0</asrwt>
<pdfrwt beam="1">  1       21 0.58202863E-01 0.19790519E+03</pdfrwt>
<pdfrwt beam="2">  1       21 0.26433245E-01 0.19790519E+03</pdfrwt>
<totfact> 0.37545500E+04</totfact>
</mgrwt>
</event>
<event>
 4    2  0.4039581E+000  0.2095154E+03  0.7546771E-02  0.1141950E+00
         21   -1    0    0  501  502  0.00000000000E+00  0.00000000000E+00  0.15764887988E+03  0.15764887988E+03  0.00000000000E+00 0. -1.
         21   -1    0    0  502  503 -0.00000000000E+00 -0.00000000000E+00 -0.27880158587E+03  0.27880158587E+03  0.00000000000E+00 0.  1.
          6    1    1    2  501    0 -0.84484736140E+02  0.82644081565E+02 -0.68368767594E+02  0.22038830105E+03  0.17300000000E+03 0. -1.
         -6    1    1    2    0  503  0.84484736140E+02 -0.82644081565E+02 -0.52783938395E+02  0.21606216469E+03  0.17300000000E+03 0.  1.
<mgrwt>
<rscale>  2 0.20951543E+03</rscale>
<asrwt>0</asrwt>
<pdfrwt beam="1">  1       21 0.24253674E-01 0.20951543E+03</pdfrwt>
<pdfrwt beam="2">  1       21 0.42892552E-01 0.20951543E+03</pdfrwt>
<totfact> 0.83292593E+04</totfact>
</mgrwt>
</event>
<event>
 4    2  0.4039581E+000  0.1896694E+03  0.7546771E-02  0.1158760E+00
         21   -1    0    0  501  502  0.00000000000E+00  0.00000000000E+00  0.16362013060E+03  0.16362013060E+03  0.00000000000E+00 0. -1.
         21   -1    0    0  502  503 -0.00000000000E+00 -0.00000000000E+00 -0.27242036382E+03  0.27242036382E+03  0.00000000000E+00 0. -1.
          6    1    1    2  501    0  0.60805844480E+02  0.48457594984E+02  0.41359367726E+02  0.19412647046E+03  0.17300000000E+03 0. -1.
         -6    1    1    2    0  503 -0.60805844480E+02 -0.48457594984E+02 -0.15015960095E+03  0.24191402397E+03  0.17300000000E+03 0. -1.
<mgrwt>
<rscale>  2 0.18966942E+03</rscale>
<asrwt>0</asrwt>
<pdfrwt beam="1">  1       21 0.25172328E-01 0.18966942E+03</pdfrwt>
<pdfrwt beam="2">  1       21 0.41910824E-01 0.18966942E+03</pdfrwt>
<totfact> 0.82020536E+04</totfact>
</mgrwt>
</event>
<event>
 4    2  0.4039581E+000  0.1819727E+03  0.7546771E-02  0.1165907E+00
         21   -1    0    0  503  502  0.00000000000E+00  0.00000000000E+00  0.47355973084E+02  0.47355973084E+02  0.00000000000E+00 0. -1.
         21   -1    0    0  501  503 -0.00000000000E+00 -0.00000000000E+00 -0.70021548670E+03  0.70021548670E+03  0.00000000000E+00 0. -1.
          6    1    1    2  501    0  0.10933585359E+02 -0.55367276790E+02 -0.31261310937E+03  0.36171955266E+03  0.17300000000E+03 0. -1.
         -6    1    1    2    0  502 -0.10933585359E+02  0.55367276790E+02 -0.34024640425E+03  0.38585190712E+03  0.17300000000E+03 0. -1.
<mgrwt>
<rscale>  2 0.18197274E+03</rscale>
<asrwt>0</asrwt>
<pdfrwt beam="1">  1       21 0.72855349E-02 0.18197274E+03</pdfrwt>
<pdfrwt beam="2">  1       21 0.10772545E+00 0.18197274E+03</pdfrwt>
<totfact> 0.97404196E+04</totfact>
</mgrwt>
</event>
<event>
 4    2  0.4039581E+000  0.1824244E+03  0.7546771E-02  0.1165477E+00
         21   -1    0    0  501  502  0.00000000000E+00  0.00000000000E+00  0.68903634992E+03  0.68903634992E+03  0.00000000000E+00 0.  1.
         21   -1    0    0  502  503 -0.00000000000E+00 -0.00000000000E+00 -0.76706075024E+02  0.76706075024E+02  0.00000000000E+00 0.  1.
          6    1    1    2  501    0  0.38982851013E+02  0.42778543154E+02  0.53916909519E+03  0.56919414934E+03  0.17300000000E+03 0.  1.
         -6    1    1    2    0  503 -0.38982851013E+02 -0.42778543154E+02  0.73161179699E+02  0.19654827560E+03  0.17300000000E+03 0.  1.
<mgrwt>
<rscale>  2 0.18242441E+03</rscale>
<asrwt>0</asrwt>
<pdfrwt beam="1">  1       21 0.10600559E+00 0.18242441E+03</pdfrwt>
<pdfrwt beam="2">  1       21 0.11800935E-01 0.18242441E+03</pdfrwt>
<totfact> 0.43405989E+04</totfact>
</mgrwt>
</event>
<event>
 4    2  0.4039581E+000  0.2182771E+03  0.7546771E-02  0.1135174E+00
         21   -1    0    0  501  502  0.00000000000E+00  0.00000000000E+00  0.18701597962E+03  0.18701597962E+03  0.00000000000E+00 0.  1.
         21   -1    0    0  502  503 -0.00000000000E+00 -0.00000000000E+00 -0.31702518800E+03  0.31702518800E+03  0.00000000000E+00 0.  1.
          6    1    1    2  501    0 -0.11784084166E+03  0.61882486950E+02 -0.17669052871E+03  0.28082814868E+03  0.17300000000E+03 0.  1.
         -6    1    1    2    0  503  0.11784084166E+03 -0.61882486950E+02  0.46681320331E+02  0.22321301894E+03  0.17300000000E+03 0.  1.
<mgrwt>
<rscale>  2 0.21827713E+03</rscale>
<asrwt>0</asrwt>
<pdfrwt beam="1">  1       21 0.28771689E-01 0.21827713E+03</pdfrwt>
<pdfrwt beam="2">  1       21 0.48773105E-01 0.21827713E+03</pdfrwt>
<totfact> 0.45806103E+04</totfact>
</mgrwt>
</event>
<event>
 4    2  0.4039581E+000  0.2009099E+03  0.7546771E-02  0.1148974E+00
         21   -1    0    0  501  502  0.00000000000E+00  0.00000000000E+00  0.37661610436E+03  0.37661610436E+03  0.00000000000E+00 0.  1.
         21   -1    0    0  502  503 -0.00000000000E+00 -0.00000000000E+00 -0.12654296776E+03  0.12654296776E+03  0.00000000000E+00 0. -1.
          6    1    1    2  501    0  0.83049818965E+02 -0.59485399515E+02  0.22345352309E+03  0.30049336460E+03  0.17300000000E+03 0.  1.
         -6    1    1    2    0  503 -0.83049818965E+02  0.59485399515E+02  0.26619613512E+02  0.20266570753E+03  0.17300000000E+03 0. -1.
<mgrwt>
<rscale>  2 0.20090989E+03</rscale>
<asrwt>0</asrwt>
<pdfrwt beam="1">  1       21 0.57940939E-01 0.20090989E+03</pdfrwt>
<pdfrwt beam="2">  1       21 0.19468149E-01 0.20090989E+03</pdfrwt>
<totfact> 0.67526094E+04</totfact>
</mgrwt>
</event>
<event>
 4    2  0.4039581E+000  0.1783411E+03  0.7546771E-02  0.1169418E+00
         21   -1    0    0  501  502  0.00000000000E+00  0.00000000000E+00  0.17462239062E+03  0.17462239062E+03  0.00000000000E+00 0. -1.
         21   -1    0    0  502  503 -0.00000000000E+00 -0.00000000000E+00 -0.22208575541E+03  0.22208575541E+03  0.00000000000E+00 0. -1.
          6    1    1    2  501    0  0.42297492468E+02 -0.93529201906E+01 -0.10785595002E+03  0.20841895533E+03  0.17300000000E+03 0. -1.
         -6    1    1    2    0  503 -0.42297492468E+02  0.93529201906E+01  0.60392585225E+02  0.18828919070E+03  0.17300000000E+03 0. -1.
<mgrwt>
<rscale>  2 0.17834112E+03</rscale>
<asrwt>0</asrwt>
<pdfrwt beam="1">  1       21 0.26864983E-01 0.17834112E+03</pdfrwt>
<pdfrwt beam="2">  1       21 0.34167039E-01 0.17834112E+03</pdfrwt>
<totfact> 0.10949089E+05</totfact>
</mgrwt>
</event>
<event>
 4    2  0.4039581E+000  0.1855302E+03  0.7546771E-02  0.1162556E+00
         21   -1    0    0  503  502  0.00000000000E+00  0.00000000000E+00  0.91279599072E+02  0.91279599072E+02  0.00000000000E+00 0.  1.
         21   -1    0    0  501  503 -0.00000000000E+00 -0.00000000000E+00 -0.39265385040E+03  0.39265385040E+03  0.00000000000E+00 0.  1.
          6    1    1    2  501    0  0.45496759395E+02 -0.49218913455E+02 -0.19884662335E+03  0.27195851922E+03  0.17300000000E+03 0.  1.
         -6    1    1    2    0  502 -0.45496759395E+02  0.49218913455E+02 -0.10252762797E+03  0.21197493025E+03  0.17300000000E+03 0.  1.
<mgrwt>
<rscale>  2 0.18553020E+03</rscale>
<asrwt>0</asrwt>
<pdfrwt beam="1">  1       21 0.14043015E-01 0.18553020E+03</pdfrwt>
<pdfrwt beam="2">  1       21 0.60408285E-01 0.18553020E+03</pdfrwt>
<totfact> 0.11321396E+05</totfact>
</mgrwt>
</event>
<event>
 4    2  0.4039581E+000  0.2020209E+03  0.7546771E-02  0.1148045E+00
         21   -1    0    0  501  502  0.00000000000E+00  0.00000000000E+00  0.10572331736E+04  0.10572331736E+04  0.00000000000E+00 0. -1.
         21   -1    0    0  502  503 -0.00000000000E+00 -0.00000000000E+00 -0.74048712944E+02  0.74048712944E+02  0.00000000000E+00 0.  1.
          6    1    1    2  501    0 -0.89957128960E+02 -0.52831534431E+02  0.88294053127E+03  0.90575738354E+03  0.17300000000E+03 0. -1.
         -6    1    1    2    0  503  0.89957128960E+02  0.52831534431E+02  0.10024392941E+03  0.22552450302E+03  0.17300000000E+03 0.  1.
<mgrwt>
<rscale>  2 0.20202093E+03</rscale>
<asrwt>0</asrwt>
<pdfrwt beam="1">  1       21 0.16265125E+00 0.20202093E+03</pdfrwt>
<pdfrwt beam="2">  1       21 0.11392110E-01 0.20202093E+03</pdfrwt>
<totfact> 0.15397466E+04</totfact>
</mgrwt>
</event>
<event>
 4    2  0.4039581E+000  0.1940652E+03  0.7546771E-02  0.1154845E+00
         21   -1    0    0  501  502  0.00000000000E+00  0.00000000000E+00  0.96035635081E+03  0.96035635081E+03  0.00000000000E+00 0.  1.
         21   -1    0    0  502  503 -0.00000000000E+00 -0.00000000000E+00 -0.39871169357E+02  0.39871169357E+02  0.00000000000E+00 0. -1.
          6    1    1    2  501    0 -0.17868864618E+02  0.86098714785E+02  0.52435369211E+03  0.55911365520E+03  0.17300000000E+03 0. -1.
         -6    1    1    2    0  503  0.17868864618E+02 -0.86098714785E+02  0.39613148935E+03  0.44111386496E+03  0.17300000000E+03 0. -1.
<mgrwt>
<rscale>  2 0.19406516E+03</rscale>
<asrwt>0</asrwt>
<pdfrwt beam="1">  1       21 0.14774711E+00 0.19406516E+03</pdfrwt>
<pdfrwt beam="2">  1       21 0.61340268E-02 0.19406516E+03</pdfrwt>
<totfact> 0.59006749E+04</totfact>
</mgrwt>
</event>
<event>
 4    2  0.4039581E+000  0.3263748E+03  0.7546771E-02  0.1072752E+00
         21   -1    0    0  503  502  0.00000000000E+00  0.00000000000E+00  0.22647612911E+04  0.22647612911E+04  0.00000000000E+00 0. -1.
         21   -1    0    0  501  503 -0.00000000000E+00 -0.00000000000E+00 -0.50105438494E+02  0.50105438494E+02  0.00000000000E+00 0.  1.
          6    1    1    2  501    0 -0.13053774652E+03 -0.24403153858E+03  0.82075612777E+03  0.88326729610E+03  0.17300000000E+03 0. -1.
         -6    1    1    2    0  502  0.13053774652E+03  0.24403153858E+03  0.13938997248E+04  0.14315994335E+04  0.17300000000E+03 0.  1.
<mgrwt>
<rscale>  2 0.32637478E+03</rscale>
<asrwt>0</asrwt>
<pdfrwt beam="1">  1       21 0.34842474E+00 0.32637478E+03</pdfrwt>
<pdfrwt beam="2">  1       21 0.77085307E-02 0.32637478E+03</pdfrwt>
<totfact> 0.19925390E+03</totfact>
</mgrwt>
</event>
<event>
 4    2  0.4039581E+000  0.1829816E+03  0.7546771E-02  0.1164948E+00
         21   -1    0    0  501  502  0.00000000000E+00  0.00000000000E+00  0.74617515942E+02  0.74617515942E+02  0.00000000000E+00 0.  1.
         21   -1    0    0  502  503 -0.00000000000E+00 -0.00000000000E+00 -0.55870196303E+03  0.55870196303E+03  0.00000000000E+00 0.  1.
          6    1    1    2  501    0 -0.58939161374E+02 -0.89121967822E+01 -0.10154535202E+03  0.20926946866E+03  0.17300000000E+03 0.  1.
         -6    1    1    2    0  503  0.58939161374E+02  0.89121967822E+01 -0.38253909507E+03  0.42405001032E+03  0.17300000000E+03 0.  1.
<mgrwt>
<rscale>  2 0.18298156E+03</rscale>
<asrwt>0</asrwt>
<pdfrwt beam="1">  1       21 0.11479618E-01 0.18298156E+03</pdfrwt>
<pdfrwt beam="2">  1       21 0.85954147E-01 0.18298156E+03</pdfrwt>
<totfact> 0.74501903E+04</totfact>
</mgrwt>
</event>
<event>
 4    2  0.4039581E+000  0.1949605E+03  0.7546771E-02  0.1154062E+00
         21   -1    0    0  503  502  0.00000000000E+00  0.00000000000E+00  0.15901843115E+04  0.15901843115E+04  0.00000000000E+00 0.  1.
         21   -1    0    0  501  503 -0.00000000000E+00 -0.00000000000E+00 -0.61864392383E+02  0.61864392383E+02  0.00000000000E+00 0.  1.
          6    1    1    2  501    0 -0.89765953476E+02 -0.47605210279E+01  0.11709832274E+03  0.22742384693E+03  0.17300000000E+03 0.  1.
         -6    1    1    2    0  502  0.89765953476E+02  0.47605210279E+01  0.14112215964E+04  0.14246248570E+04  0.17300000000E+03 0.  1.
<mgrwt>
<rscale>  2 0.19496048E+03</rscale>
<asrwt>0</asrwt>
<pdfrwt beam="1">  1       21 0.24464371E+00 0.19496048E+03</pdfrwt>
<pdfrwt beam="2">  1       21 0.95176000E-02 0.19496048E+03</pdfrwt>
<totfact> 0.63168163E+03</totfact>
</mgrwt>
</event>
<event>
 4    2  0.4039581E+000  0.2308789E+03  0.7546771E-02  0.1126023E+00
         21   -1    0    0  501  502  0.00000000000E+00  0.00000000000E+00  0.16177438152E+04  0.16177438152E+04  0.00000000000E+00 0.  1.
         21   -1    0    0  502  503 -0.00000000000E+00 -0.00000000000E+00 -0.70679885288E+02  0.70679885288E+02  0.00000000000E+00 0. -1.
          6    1    1    2  501    0 -0.75308734230E+02 -0.13305893223E+03  0.13903325149E+04  0.14093720541E+04  0.17300000000E+03 0.  1.
         -6    1    1    2    0  503  0.75308734230E+02  0.13305893223E+03  0.15673141501E+03  0.27905164639E+03  0.17300000000E+03 0. -1.
<mgrwt>
<rscale>  2 0.23087894E+03</rscale>
<asrwt>0</asrwt>
<pdfrwt beam="1">  1       21 0.24888364E+00 0.23087894E+03</pdfrwt>
<pdfrwt beam="2">  1       21 0.10873830E-01 0.23087894E+03</pdfrwt>
<totfact> 0.45495388E+03</totfact>
</mgrwt>
</event>
<event>
 4    2  0.4039581E+000  0.2904156E+03  0.7546771E-02  0.1090132E+00
         21   -1    0    0  503  502  0.00000000000E+00  0.00000000000E+00  0.10344740068E+04  0.10344740068E+04  0.00000000000E+00 0.  1.
         21   -1    0    0  501  503 -0.00000000000E+00 -0.00000000000E+00 -0.30483129953E+03  0.30483129953E+03  0.00000000000E+00 0. -1.
          6    1    1    2  501    0  0.69494937455E+02  0.22267167842E+03 -0.20832418579E+03  0.35740759517E+03  0.17300000000E+03 0. -1.
         -6    1    1    2    0  502 -0.69494937455E+02 -0.22267167842E+03  0.93796689306E+03  0.98189771116E+03  0.17300000000E+03 0.  1.
<mgrwt>
<rscale>  2 0.29041560E+03</rscale>
<asrwt>0</asrwt>
<pdfrwt beam="1">  1       21 0.15914984E+00 0.29041560E+03</pdfrwt>
<pdfrwt beam="2">  1       21 0.46897124E-01 0.29041560E+03</pdfrwt>
<totfact> 0.10212942E+03</totfact>
</mgrwt>
</event>
<event>
 4    2  0.4039581E+000  0.2049508E+03  0.7546771E-02  0.1145628E+00
         21   -1    0    0  503  502  0.00000000000E+00  0.00000000000E+00  0.39857140478E+03  0.39857140478E+03  0.00000000000E+00 0. -1.
         21   -1    0    0  501  503 -0.00000000000E+00 -0.00000000000E+00 -0.20581486845E+03  0.20581486845E+03  0.00000000000E+00 0. -1.
          6    1    1    2  501    0  0.90048030083E+02 -0.62985491907E+02 -0.11471297872E+03  0.23486993720E+03  0.17300000000E+03 0. -1.
         -6    1    1    2    0  502 -0.90048030083E+02  0.62985491907E+02  0.30746951505E+03  0.36951633604E+03  0.17300000000E+03 0. -1.
<mgrwt>
<rscale>  2 0.20495077E+03</rscale>
<asrwt>0</asrwt>
<pdfrwt beam="1">  1       21 0.61318678E-01 0.20495077E+03</pdfrwt>
<pdfrwt beam="2">  1       21 0.31663826E-01 0.20495077E+03</pdfrwt>
<totfact> 0.23542747E+04</totfact>
</mgrwt>
</event>
<event>
 4    2  0.4039581E+000  0.1789215E+03  0.7546771E-02  0.1168851E+00
         21   -1    0    0  501  502  0.00000000000E+00  0.00000000000E+00  0.12105660908E+03  0.12105660908E+03  0.00000000000E+00 0. -1.
         21   -1    0    0  502  503 -0.00000000000E+00 -0.00000000000E+00 -0.36708831306E+03  0.36708831306E+03  0.00000000000E+00 0. -1.
          6    1    1    2  501    0 -0.37683045991E+02  0.25766282101E+02  0.60457688126E+01  0.17902364249E+03  0.17300000000E+03 0. -1.
         -6    1    1    2    0  503  0.37683045991E+02 -0.25766282101E+02 -0.25207747279E+03  0.30912127965E+03  0.17300000000E+03 0. -1.
<mgrwt>
<rscale>  2 0.17892153E+03</rscale>
<asrwt>0</asrwt>
<pdfrwt beam="1">  1       21 0.18624094E-01 0.17892153E+03</pdfrwt>
<pdfrwt beam="2">  1       21 0.56475125E-01 0.17892153E+03</pdfrwt>
<totfact> 0.78174323E+04</totfact>
</mgrwt>
</event>
<event>
 4    2  0.4039581E+000  0.1844851E+03  0.7546771E-02  0.1163532E+00
         21   -1    0    0  501  502  0.00000000000E+00  0.00000000000E+00  0.67825146198E+03  0.67825146198E+03  0.00000000000E+00 0.  1.
         21   -1    0    0  502  503 -0.00000000000E+00 -0.00000000000E+00 -0.13510545010E+03  0.13510545010E+03  0.00000000000E+00 0. -1.
          6    1    1    2  501    0  0.34303106127E+02  0.54120814393E+02  0.59400138206E+03  0.62199068122E+03  0.17300000000E+03 0.  1.
         -6    1    1    2    0  503 -0.34303106127E+02 -0.54120814393E+02 -0.50855370173E+02  0.19136623087E+03  0.17300000000E+03 0. -1.
<mgrwt>
<rscale>  2 0.18448514E+03</rscale>
<asrwt>0</asrwt>
<pdfrwt beam="1">  1       21 0.10434638E+00 0.18448514E+03</pdfrwt>
<pdfrwt beam="2">  1       21 0.20785454E-01 0.18448514E+03</pdfrwt>
<totfact> 0.16013274E+04</totfact>
</mgrwt>
</event>
<event>
 4    2  0.4039581E+000  0.2029107E+03  0.7546771E-02  0.1147306E+00
         21   -1    0    0  503  502  0.00000000000E+00  0.00000000000E+00  0.37262466721E+03  0.37262466721E+03  0.00000000000E+00 0. -1.
         21   -1    0    0  501  503 -0.00000000000E+00 -0.00000000000E+00 -0.10323555720E+04  0.10323555720E+04  0.00000000000E+00 0. -1.
          6    1    1    2  501    0  0.89306866062E+02 -0.57166889504E+02 -0.99369783804E+03  0.10142032158E+04  0.17300000000E+03 0. -1.
         -6    1    1    2    0  502 -0.89306866062E+02  0.57166889504E+02  0.33396693322E+03  0.39077702346E+03  0.17300000000E+03 0. -1.
<mgrwt>
<rscale>  2 0.20291074E+03</rscale>
<asrwt>0</asrwt>
<pdfrwt beam="1">  1       21 0.57326872E-01 0.20291074E+03</pdfrwt>
<pdfrwt beam="2">  1       21 0.15882393E+00 0.20291074E+03</pdfrwt>
<totfact> 0.72527428E+02</totfact>
</mgrwt>
</event>
<event>
 4    2  0.4039581E+000  0.1982443E+03  0.7546771E-02  0.1151229E+00
         21   -1    0    0  501  502  0.00000000000E+00  0.00000000000E+00  0.28184031150E+03  0.28184031150E+03  0.00000000000E+00 0.  1.
         21   -1    0    0  502  503 -0.00000000000E+00 -0.00000000000E+00 -0.20918804086E+03  0.20918804086E+03  0.00000000000E+00 0.  1.
          6    1    1    2  501    0 -0.95434246559E+02 -0.16250800806E+02  0.17808930949E+03  0.26648937333E+03  0.17300000000E+03 0.  1.
         -6    1    1    2    0  503  0.95434246559E+02  0.16250800806E+02 -0.10543703885E+03  0.22453897903E+03  0.17300000000E+03 0.  1.
<mgrwt>
<rscale>  2 0.19824425E+03</rscale>
<asrwt>0</asrwt>
<pdfrwt beam="1">  1       21 0.43360048E-01 0.19824425E+03</pdfrwt>
<pdfrwt beam="2">  1       21 0.32182776E-01 0.19824425E+03</pdfrwt>
<totfact> 0.47358073E+04</totfact>
</mgrwt>
</event>
<event>
 4    2  0.4039581E+000  0.2258708E+03  0.7546771E-02  0.1129580E+00
         21   -1    0    0  503  502  0.00000000000E+00  0.00000000000E+00  0.11540588333E+03  0.11540588333E+03  0.00000000000E+00 0. -1.
         21   -1    0    0  501  503 -0.00000000000E+00 -0.00000000000E+00 -0.17471540447E+04  0.17471540447E+04  0.00000000000E+00 0. -1.
          6    1    1    2  501    0  0.55314505395E+02  0.13427183247E+03 -0.16207588285E+04  0.16364219504E+04  0.17300000000E+03 0. -1.
         -6    1    1    2    0  502 -0.55314505395E+02 -0.13427183247E+03 -0.10989332870E+02  0.22613797766E+03  0.17300000000E+03 0. -1.
<mgrwt>
<rscale>  2 0.22587080E+03</rscale>
<asrwt>0</asrwt>
<pdfrwt beam="1">  1       21 0.17754750E-01 0.22587080E+03</pdfrwt>
<pdfrwt beam="2">  1       21 0.26879294E+00 0.22587080E+03</pdfrwt>
<totfact> 0.14316130E+03</totfact>
</mgrwt>
</event>
<event>
 4    2  0.4039581E+000  0.1914395E+03  0.7546771E-02  0.1157169E+00
         21   -1    0    0  501  502  0.00000000000E+00  0.00000000000E+00  0.25373690004E+03  0.25373690004E+03  0.00000000000E+00 0.  1.
         21   -1    0    0  502  503 -0.00000000000E+00 -0.00000000000E+00 -0.23971006892E+03  0.23971006892E+03  0.00000000000E+00 0.  1.
          6    1    1    2  501    0 -0.14878162384E+02 -0.80614605688E+02  0.16255686672E+03  0.25114499653E+03  0.17300000000E+03 0.  1.
         -6    1    1    2    0  503  0.14878162384E+02  0.80614605688E+02 -0.14853003560E+03  0.24230197243E+03  0.17300000000E+03 0.  1.
<mgrwt>
<rscale>  2 0.19143948E+03</rscale>
<asrwt>0</asrwt>
<pdfrwt beam="1">  1       21 0.39036446E-01 0.19143948E+03</pdfrwt>
<pdfrwt beam="2">  1       21 0.36878472E-01 0.19143948E+03</pdfrwt>
<totfact> 0.44896088E+04</totfact>
</mgrwt>
</event>
<event>
 4    2  0.4039581E+000  0.1760114E+03  0.7546771E-02  0.1171720E+00
         21   -1    0    0  501  502  0.00000000000E+00  0.00000000000E+00  0.74865997049E+03  0.74865997049E+03  0.00000000000E+00 0. -1.
         21   -1    0    0  502  503 -0.00000000000E+00 -0.00000000000E+00 -0.10227091356E+03  0.10227091356E+03  0.00000000000E+00 0. -1.
          6    1    1    2  501    0 -0.11001613059E+02 -0.30495812897E+02  0.65148794912E+03  0.67484559563E+03  0.17300000000E+03 0. -1.
         -6    1    1    2    0  503  0.11001613059E+02  0.30495812897E+02 -0.50988921919E+01  0.17608528841E+03  0.17300000000E+03 0. -1.
<mgrwt>
<rscale>  2 0.17601145E+03</rscale>
<asrwt>0</asrwt>
<pdfrwt beam="1">  1       21 0.11517845E+00 0.17601145E+03</pdfrwt>
<pdfrwt beam="2">  1       21 0.15733987E-01 0.17601145E+03</pdfrwt>
<totfact> 0.21220487E+04</totfact>
</mgrwt>
</event>
<event>
 4    2  0.4039581E+000  0.1775351E+03  0.7546771E-02  0.1170210E+00
         21   -1    0    0  503  502  0.00000000000E+00  0.00000000000E+00  0.16533667137E+03  0.16533667137E+03  0.00000000000E+00 0.  1.
         21   -1    0    0  501  503 -0.00000000000E+00 -0.00000000000E+00 -0.34751384468E+03  0.34751384468E+03  0.00000000000E+00 0.  1.
          6    1    1    2  501    0  0.27108079540E+02  0.29238182631E+02 -0.26337813054E+03  0.31762676043E+03  0.17300000000E+03 0. -1.
         -6    1    1    2    0  502 -0.27108079540E+02 -0.29238182631E+02  0.81200957229E+02  0.19522375561E+03  0.17300000000E+03 0. -1.
<mgrwt>
<rscale>  2 0.17753512E+03</rscale>
<asrwt>0</asrwt>
<pdfrwt beam="1">  1       21 0.25436411E-01 0.17753512E+03</pdfrwt>
<pdfrwt beam="2">  1       21 0.53463668E-01 0.17753512E+03</pdfrwt>
<totfact> 0.48877316E+04</totfact>
</mgrwt>
</event>
<event>
 4    2  0.4039581E+000  0.2468914E+03  0.7546771E-02  0.1115285E+00
         21   -1    0    0  503  502  0.00000000000E+00  0.00000000000E+00  0.97725686621E+02  0.97725686621E+02  0.00000000000E+00 0.  1.
         21   -1    0    0  501  503 -0.00000000000E+00 -0.00000000000E+00 -0.63060002639E+03  0.63060002639E+03  0.00000000000E+00 0.  1.
          6    1    1    2  501    0 -0.17074540312E+03  0.43270650542E+02 -0.30442170141E+03  0.39195396946E+03  0.17300000000E+03 0.  1.
         -6    1    1    2    0  502  0.17074540312E+03 -0.43270650542E+02 -0.22845263836E+03  0.33637174355E+03  0.17300000000E+03 0.  1.
<mgrwt>
<rscale>  2 0.24689136E+03</rscale>
<asrwt>0</asrwt>
<pdfrwt beam="1">  1       21 0.15034722E-01 0.24689136E+03</pdfrwt>
<pdfrwt beam="2">  1       21 0.97015384E-01 0.24689136E+03</pdfrwt>
<totfact> 0.33505760E+04</totfact>
</mgrwt>
</event>
<event>
 4    2  0.4039581E+000  0.1775419E+03  0.7546771E-02  0.1170203E+00
         21   -1    0    0  503  502  0.00000000000E+00  0.00000000000E+00  0.44943389902E+02  0.44943389902E+02  0.00000000000E+00 0.  1.
         21   -1    0    0  501  503 -0.00000000000E+00 -0.00000000000E+00 -0.75824813535E+03  0.75824813535E+03  0.00000000000E+00 0.  1.
          6    1    1    2  501    0  0.30861553702E+02  0.25292397031E+02 -0.46666041918E+03  0.49929258724E+03  0.17300000000E+03 0.  1.
         -6    1    1    2    0  502 -0.30861553702E+02 -0.25292397031E+02 -0.24664432628E+03  0.30389893802E+03  0.17300000000E+03 0.  1.
<mgrwt>
<rscale>  2 0.17754194E+03</rscale>
<asrwt>0</asrwt>
<pdfrwt beam="1">  1       21 0.69143676E-02 0.17754194E+03</pdfrwt>
<pdfrwt beam="2">  1       21 0.11665356E+00 0.17754194E+03</pdfrwt>
<totfact> 0.88076007E+04</totfact>
</mgrwt>
</event>
<event>
 4    2  0.4039581E+000  0.1930732E+03  0.7546771E-02  0.1155718E+00
         21   -1    0    0  501  502  0.00000000000E+00  0.00000000000E+00  0.60613280695E+02  0.60613280695E+02  0.00000000000E+00 0. -1.
         21   -1    0    0  502  503 -0.00000000000E+00 -0.00000000000E+00 -0.71713107350E+03  0.71713107350E+03  0.00000000000E+00 0. -1.
          6    1    1    2  501    0 -0.45021826887E+02 -0.72947260045E+02 -0.18150723015E+03  0.26499460795E+03  0.17300000000E+03 0. -1.
         -6    1    1    2    0  503  0.45021826887E+02  0.72947260045E+02 -0.47501056265E+03  0.51274974625E+03  0.17300000000E+03 0. -1.
<mgrwt>
<rscale>  2 0.19307322E+03</rscale>
<asrwt>0</asrwt>
<pdfrwt beam="1">  1       21 0.93251207E-02 0.19307322E+03</pdfrwt>
<pdfrwt beam="2">  1       21 0.11032785E+00 0.19307322E+03</pdfrwt>
<totfact> 0.59502917E+04</totfact>
</mgrwt>
</event>
<event>
 4    2  0.4039581E+000  0.1897951E+03  0.7546771E-02  0.1158646E+00
         21   -1    0    0  501  502  0.00000000000E+00  0.00000000000E+00  0.13897100727E+04  0.13897100727E+04  0.00000000000E+00 0. -1.
         21   -1    0    0  502  503 -0.00000000000E+00 -0.00000000000E+00 -0.26566193919E+02  0.26566193919E+02  0.00000000000E+00 0. -1.
          6    1    1    2  501    0  0.76166622943E+02  0.17083295858E+02  0.57118568760E+03  0.60189308284E+03  0.17300000000E+03 0. -1.
         -6    1    1    2    0  503 -0.76166622943E+02 -0.17083295858E+02  0.79195819115E+03  0.81438318375E+03  0.17300000000E+03 0. -1.
<mgrwt>
<rscale>  2 0.18979514E+03</rscale>
<asrwt>0</asrwt>
<pdfrwt beam="1">  1       21 0.21380149E+00 0.18979514E+03</pdfrwt>
<pdfrwt beam="2">  1       21 0.40871078E-02 0.18979514E+03</pdfrwt>
<totfact> 0.41608364E+04</totfact>
</mgrwt>
</event>
<event>
 4    2  0.4039581E+000  0.2413567E+03  0.7546771E-02  0.1118892E+00
         21   -1    0    0  501  502  0.00000000000E+00  0.00000000000E+00  0.81663632597E+03  0.81663632597E+03  0.00000000000E+00 0.  1.
         21   -1    0    0  502  503 -0.00000000000E+00 -0.00000000000E+00 -0.92414632196E+02  0.92414632196E+02  0.00000000000E+00 0.  1.
          6    1    1    2  501    0  0.15819515022E+03  0.57431441657E+02  0.14502049535E+03  0.28157418226E+03  0.17300000000E+03 0.  1.
         -6    1    1    2    0  503 -0.15819515022E+03 -0.57431441657E+02  0.57920119842E+03  0.62747677590E+03  0.17300000000E+03 0.  1.
<mgrwt>
<rscale>  2 0.24135674E+03</rscale>
<asrwt>0</asrwt>
<pdfrwt beam="1">  1       21 0.12563635E+00 0.24135674E+03</pdfrwt>
<pdfrwt beam="2">  1       21 0.14217636E-01 0.24135674E+03</pdfrwt>
<totfact> 0.19781528E+04</totfact>
</mgrwt>
</event>
<event>
 4    2  0.4039581E+000  0.2379345E+03  0.7546771E-02  0.1121176E+00
         21   -1    0    0  503  502  0.00000000000E+00  0.00000000000E+00  0.14905999096E+04  0.14905999096E+04  0.00000000000E+00 0. -1.
         21   -1    0    0  501  503 -0.00000000000E+00 -0.00000000000E+00 -0.40924596469E+02  0.40924596469E+02  0.00000000000E+00 0. -1.
          6    1    1    2  501    0  0.13321180489E+03  0.94543324449E+02  0.93024810539E+03  0.96019496080E+03  0.17300000000E+03 0. -1.
         -6    1    1    2    0  502 -0.13321180489E+03 -0.94543324449E+02  0.51942720775E+03  0.57132954528E+03  0.17300000000E+03 0. -1.
<mgrwt>
<rscale>  2 0.23793450E+03</rscale>
<asrwt>0</asrwt>
<pdfrwt beam="1">  1       21 0.22932302E+00 0.23793450E+03</pdfrwt>
<pdfrwt beam="2">  1       21 0.62960929E-02 0.23793450E+03</pdfrwt>
<totfact> 0.15465022E+04</totfact>
</mgrwt>
</event>
<event>
 4    2  0.4039581E+000  0.1824762E+03  0.7546771E-02  0.1165428E+00
         21   -1    0    0  501  502  0.00000000000E+00  0.00000000000E+00  0.36163074233E+03  0.36163074233E+03  0.00000000000E+00 0.  1.
         21   -1    0    0  502  503 -0.00000000000E+00 -0.00000000000E+00 -0.12731607080E+03  0.12731607080E+03  0.00000000000E+00 0.  1.
          6    1    1    2  501    0  0.33392396766E+02 -0.47471056610E+02 -0.11462424457E+02  0.18283582951E+03  0.17300000000E+03 0.  1.
         -6    1    1    2    0  503 -0.33392396766E+02  0.47471056610E+02  0.24577709599E+03  0.30611098362E+03  0.17300000000E+03 0.  1.
<mgrwt>
<rscale>  2 0.18247617E+03</rscale>
<asrwt>0</asrwt>
<pdfrwt beam="1">  1       21 0.55635498E-01 0.18247617E+03</pdfrwt>
<pdfrwt beam="2">  1       21 0.19587088E-01 0.18247617E+03</pdfrwt>
<totfact> 0.73372465E+04</totfact>
</mgrwt>
</event>
<event>
 4    2  0.4039581E+000  0.2185208E+03  0.7546771E-02  0.1134991E+00
         21   -1    0    0  503  502  0.00000000000E+00  0.00000000000E+00  0.23580613019E+04  0.23580613019E+04  0.00000000000E+00 0. -1.
         21   -1    0    0  501  503 -0.00000000000E+00 -0.00000000000E+00 -0.27541631400E+02  0.27541631400E+02  0.00000000000E+00 0.  1.
          6    1    1    2  501    0 -0.74367237475E+02  0.11086870655E+03  0.55152902925E+03  0.59324162548E+03  0.17300000000E+03 0.  1.
         -6    1    1    2    0  502  0.74367237475E+02 -0.11086870655E+03  0.17789906412E+04  0.17923613078E+04  0.17300000000E+03 0. -1.
<mgrwt>
<rscale>  2 0.21852084E+03</rscale>
<asrwt>0</asrwt>
<pdfrwt beam="1">  1       21 0.36277850E+00 0.21852084E+03</pdfrwt>
<pdfrwt beam="2">  1       21 0.42371759E-02 0.21852084E+03</pdfrwt>
<totfact> 0.50610955E+03</totfact>
</mgrwt>
</event>
<event>
 4    2  0.4039581E+000  0.2231213E+03  0.7546771E-02  0.1131577E+00
         21   -1    0    0  503  502  0.00000000000E+00  0.00000000000E+00  0.93241037820E+03  0.93241037820E+03  0.00000000000E+00 0. -1.
         21   -1    0    0  501  503 -0.00000000000E+00 -0.00000000000E+00 -0.79575345066E+02  0.79575345066E+02  0.00000000000E+00 0. -1.
          6    1    1    2  501    0 -0.14051984426E+03 -0.10405677257E+02  0.13616965749E+03  0.26139104876E+03  0.17300000000E+03 0. -1.
         -6    1    1    2    0  502  0.14051984426E+03  0.10405677257E+02  0.71666537565E+03  0.75059467451E+03  0.17300000000E+03 0. -1.
<mgrwt>
<rscale>  2 0.22312128E+03</rscale>
<asrwt>0</asrwt>
<pdfrwt beam="1">  1       21 0.14344774E+00 0.22312128E+03</pdfrwt>
<pdfrwt beam="2">  1       21 0.12242361E-01 0.22312128E+03</pdfrwt>
<totfact> 0.18649230E+04</totfact>
</mgrwt>
</event>
<event>
 4    2  0.4039581E+000  0.2010867E+03  0.7546771E-02  0.1148825E+00
         21   -1    0    0  503  502  0.00000000000E+00  0.00000000000E+00  0.11240536396E+03  0.11240536396E+03  0.00000000000E+00 0.  1.
         21   -1    0    0  501  503 -0.00000000000E+00 -0.00000000000E+00 -0.68330975036E+03  0.68330975036E+03  0.00000000000E+00 0. -1.
          6    1    1    2  501    0  0.47066810526E+02  0.91058082691E+02 -0.55923603537E+03  0.59429016678E+03  0.17300000000E+03 0. -1.
         -6    1    1    2    0  502 -0.47066810526E+02 -0.91058082691E+02 -0.11668351025E+02  0.20142494754E+03  0.17300000000E+03 0.  1.
<mgrwt>
<rscale>  2 0.20108670E+03</rscale>
<asrwt>0</asrwt>
<pdfrwt beam="1">  1       21 0.17293133E-01 0.20108670E+03</pdfrwt>
<pdfrwt beam="2">  1       21 0.10512458E+00 0.20108670E+03</pdfrwt>
<totfact> 0.21909758E+04</totfact>
</mgrwt>
</event>
<event>
 4    2  0.4039581E+000  0.1736230E+03  0.7546771E-02  0.1174121E+00
         21   -1    0    0  503  502  0.00000000000E+00  0.00000000000E+00  0.67009256570E+03  0.67009256570E+03  0.00000000000E+00 0.  1.
         21   -1    0    0  501  503 -0.00000000000E+00 -0.00000000000E+00 -0.14394383900E+03  0.14394383900E+03  0.00000000000E+00 0.  1.
          6    1    1    2  501    0 -0.13532226625E+02  0.57280015146E+01 -0.74400873840E+02  0.18889261814E+03  0.17300000000E+03 0.  1.
         -6    1    1    2    0  502  0.13532226625E+02 -0.57280015146E+01  0.60054960055E+03  0.62514378656E+03  0.17300000000E+03 0.  1.
<mgrwt>
<rscale>  2 0.17362296E+03</rscale>
<asrwt>0</asrwt>
<pdfrwt beam="1">  1       21 0.10309116E+00 0.17362296E+03</pdfrwt>
<pdfrwt beam="2">  1       21 0.22145206E-01 0.17362296E+03</pdfrwt>
<totfact> 0.14742867E+04</totfact>
</mgrwt>
</event>
<event>
 4    2  0.4039581E+000  0.1738506E+03  0.7546771E-02  0.1173891E+00
         21   -1    0    0  503  502  0.00000000000E+00  0.00000000000E+00  0.91840246371E+02  0.91840246371E+02  0.00000000000E+00 0.  1.
         21   -1    0    0  501  503 -0.00000000000E+00 -0.00000000000E+00 -0.33227746728E+03  0.33227746728E+03  0.00000000000E+00 0.  1.
          6    1    1    2  501    0 -0.23369040176E+01 -0.17016878683E+02 -0.14097658382E+03  0.22382679122E+03  0.17300000000E+03 0. -1.
         -6    1    1    2    0  502  0.23369040176E+01  0.17016878683E+02 -0.99460637093E+02  0.20029092244E+03  0.17300000000E+03 0. -1.
<mgrwt>
<rscale>  2 0.17385061E+03</rscale>
<asrwt>0</asrwt>
<pdfrwt beam="1">  1       21 0.14129269E-01 0.17385061E+03</pdfrwt>
<pdfrwt beam="2">  1       21 0.51119610E-01 0.17385061E+03</pdfrwt>
<totfact> 0.16006217E+05</totfact>
</mgrwt>
</event>
<event>
 4    2  0.4039581E+000  0.1906460E+03  0.7546771E-02  0.1157880E+00
         21   -1    0    0  501  502  0.00000000000E+00  0.00000000000E+00  0.50453877413E+02  0.50453877413E+02  0.00000000000E+00 0.  1.
         21   -1    0    0  502  503 -0.00000000000E+00 -0.00000000000E+00 -0.78250342156E+03  0.78250342156E+03  0.00000000000E+00 0.  1.
          6    1    1    2  501    0 -0.56575007412E+02 -0.56711145185E+02 -0.48337468179E+03  0.51961232515E+03  0.17300000000E+03 0.  1.
         -6    1    1    2    0  503  0.56575007412E+02  0.56711145185E+02 -0.24867486235E+03  0.31334497382E+03  0.17300000000E+03 0.  1.
<mgrwt>
<rscale>  2 0.19064597E+03</rscale>
<asrwt>0</asrwt>
<pdfrwt beam="1">  1       21 0.77621353E-02 0.19064597E+03</pdfrwt>
<pdfrwt beam="2">  1       21 0.12038514E+00 0.19064597E+03</pdfrwt>
<totfact> 0.66325569E+04</totfact>
</mgrwt>
</event>
<event>
 4    2  0.4039581E+000  0.2453168E+03  0.7546771E-02  0.1116301E+00
         21   -1    0    0  503  502  0.00000000000E+00  0.00000000000E+00  0.22997811400E+03  0.22997811400E+03  0.00000000000E+00 0. -1.
         21   -1    0    0  501  503 -0.00000000000E+00 -0.00000000000E+00 -0.30284287382E+03  0.30284287382E+03  0.00000000000E+00 0. -1.
          6    1    1    2  501    0  0.12870216506E+03 -0.11699172350E+03  0.61788495524E+02  0.25297851457E+03  0.17300000000E+03 0. -1.
         -6    1    1    2    0  502 -0.12870216506E+03  0.11699172350E+03 -0.13465325534E+03  0.27984247324E+03  0.17300000000E+03 0. -1.
<mgrwt>
<rscale>  2 0.24531676E+03</rscale>
<asrwt>0</asrwt>
<pdfrwt beam="1">  1       21 0.35381249E-01 0.24531676E+03</pdfrwt>
<pdfrwt beam="2">  1       21 0.46591211E-01 0.24531676E+03</pdfrwt>
<totfact> 0.33103856E+04</totfact>
</mgrwt>
</event>
<event>
 4    2  0.4039581E+000  0.2439319E+03  0.7546771E-02  0.1117201E+00
         21   -1    0    0  503  502  0.00000000000E+00  0.00000000000E+00  0.12774145087E+03  0.12774145087E+03  0.00000000000E+00 0. -1.
         21   -1    0    0  501  503 -0.00000000000E+00 -0.00000000000E+00 -0.53143130081E+03  0.53143130081E+03  0.00000000000E+00 0. -1.
          6    1    1    2  501    0  0.16730512971E+03 -0.39784278979E+02 -0.31766391108E+03  0.40051611164E+03  0.17300000000E+03 0. -1.
         -6    1    1    2    0  502 -0.16730512971E+03  0.39784278979E+02 -0.86025938867E+02  0.25865664005E+03  0.17300000000E+03 0. -1.
<mgrwt>
<rscale>  2 0.24393195E+03</rscale>
<asrwt>0</asrwt>
<pdfrwt beam="1">  1       21 0.19652531E-01 0.24393195E+03</pdfrwt>
<pdfrwt beam="2">  1       21 0.81758661E-01 0.24393195E+03</pdfrwt>
<totfact> 0.30412178E+04</totfact>
</mgrwt>
</event>
<event>
 4    2  0.4039581E+000  0.1774511E+03  0.7546771E-02  0.1170293E+00
         21   -1    0    0  501  502  0.00000000000E+00  0.00000000000E+00  0.65566034685E+03  0.65566034685E+03  0.00000000000E+00 0. -1.
         21   -1    0    0  502  503 -0.00000000000E+00 -0.00000000000E+00 -0.13685733884E+03  0.13685733884E+03  0.00000000000E+00 0. -1.
          6    1    1    2  501    0  0.38403951636E+02 -0.92215043793E+01  0.57864895942E+03  0.60524665872E+03  0.17300000000E+03 0. -1.
         -6    1    1    2    0  503 -0.38403951636E+02  0.92215043793E+01 -0.59845951411E+02  0.18727102698E+03  0.17300000000E+03 0. -1.
<mgrwt>
<rscale>  2 0.17745112E+03</rscale>
<asrwt>0</asrwt>
<pdfrwt beam="1">  1       21 0.10087082E+00 0.17745112E+03</pdfrwt>
<pdfrwt beam="2">  1       21 0.21054976E-01 0.17745112E+03</pdfrwt>
<totfact> 0.17026098E+04</totfact>
</mgrwt>
</event>
<event>
 4    2  0.4039581E+000  0.1802643E+03  0.7546771E-02  0.1167547E+00
         21   -1    0    0  503  502  0.00000000000E+00  0.00000000000E+00  0.87477073361E+03  0.87477073361E+03  0.00000000000E+00 0.  1.
         21   -1    0    0  501  503 -0.00000000000E+00 -0.00000000000E+00 -0.50303034098E+02  0.50303034098E+02  0.00000000000E+00 0.  1.
          6    1    1    2  501    0 -0.49114025504E+02  0.12411464370E+02  0.17569120705E+03  0.25171935202E+03  0.17300000000E+03 0.  1.
         -6    1    1    2    0  502  0.49114025504E+02 -0.12411464370E+02  0.64877649246E+03  0.67335441568E+03  0.17300000000E+03 0.  1.
<mgrwt>
<rscale>  2 0.18026434E+03</rscale>
<asrwt>0</asrwt>
<pdfrwt beam="1">  1       21 0.13458010E+00 0.18026434E+03</pdfrwt>
<pdfrwt beam="2">  1       21 0.77389289E-02 0.18026434E+03</pdfrwt>
<totfact> 0.50674315E+04</totfact>
</mgrwt>
</event>
<event>
 4    2  0.4039581E+000  0.4120961E+03  0.7546771E-02  0.1039670E+00
         21   -1    0    0  503  502  0.00000000000E+00  0.00000000000E+00  0.60887927940E+03  0.60887927940E+03  0.00000000000E+00 0.  1.
         21   -1    0    0  501  503 -0.00000000000E+00 -0.00000000000E+00 -0.37950961811E+03  0.37950961811E+03  0.00000000000E+00 0. -1.
          6    1    1    2  501    0  0.37365917269E+03 -0.16524029181E+02 -0.13975327294E+03  0.43514847831E+03  0.17300000000E+03 0. -1.
         -6    1    1    2    0  502 -0.37365917269E+03  0.16524029181E+02  0.36912293422E+03  0.55324041921E+03  0.17300000000E+03 0.  1.
<mgrwt>
<rscale>  2 0.41209613E+03</rscale>
<asrwt>0</asrwt>
<pdfrwt beam="1">  1       21 0.93673735E-01 0.41209613E+03</pdfrwt>
<pdfrwt beam="2">  1       21 0.58386095E-01 0.41209613E+03</pdfrwt>
<totfact> 0.23086954E+03</totfact>
</mgrwt>
</event>
<event>
 4    2  0.4039581E+000  0.2248847E+03  0.7546771E-02  0.1130293E+00
         21   -1    0    0  501  502  0.00000000000E+00  0.00000000000E+00  0.61367786429E+02  0.61367786429E+02  0.00000000000E+00 0. -1.
         21   -1    0    0  502  503 -0.00000000000E+00 -0.00000000000E+00 -0.87473476895E+03  0.87473476895E+03  0.00000000000E+00 0.  1.
          6    1    1    2  501    0 -0.58049485184E+02 -0.13143198823E+03 -0.29407129605E+03  0.37020404836E+03  0.17300000000E+03 0. -1.
         -6    1    1    2    0  503  0.58049485184E+02  0.13143198823E+03 -0.51929568647E+03  0.56589850702E+03  0.17300000000E+03 0.  1.
<mgrwt>
<rscale>  2 0.22488466E+03</rscale>
<asrwt>0</asrwt>
<pdfrwt beam="1">  1       21 0.94411982E-02 0.22488466E+03</pdfrwt>
<pdfrwt beam="2">  1       21 0.13457458E+00 0.22488466E+03</pdfrwt>
<totfact> 0.34919475E+04</totfact>
</mgrwt>
</event>
<event>
 4    2  0.4039581E+000  0.2413294E+03  0.7546771E-02  0.1118910E+00
         21   -1    0    0  503  502  0.00000000000E+00  0.00000000000E+00  0.91384328761E+02  0.91384328761E+02  0.00000000000E+00 0.  1.
         21   -1    0    0  501  503 -0.00000000000E+00 -0.00000000000E+00 -0.88083445667E+03  0.88083445667E+03  0.00000000000E+00 0.  1.
          6    1    1    2  501    0  0.65590564618E+02 -0.15494759250E+03 -0.65032501800E+03  0.69365878329E+03  0.17300000000E+03 0.  1.
         -6    1    1    2    0  502 -0.65590564618E+02  0.15494759250E+03 -0.13912510991E+03  0.27856000215E+03  0.17300000000E+03 0.  1.
<mgrwt>
<rscale>  2 0.24132940E+03</rscale>
<asrwt>0</asrwt>
<pdfrwt beam="1">  1       21 0.14059127E-01 0.24132940E+03</pdfrwt>
<pdfrwt beam="2">  1       21 0.13551300E+00 0.24132940E+03</pdfrwt>
<totfact> 0.16652843E+04</totfact>
</mgrwt>
</event>
<event>
 4    2  0.4039581E+000  0.1968330E+03  0.7546771E-02  0.1152439E+00
         21   -1    0    0  503  502  0.00000000000E+00  0.00000000000E+00  0.79826466141E+02  0.79826466141E+02  0.00000000000E+00 0.  1.
         21   -1    0    0  501  503 -0.00000000000E+00 -0.00000000000E+00 -0.14351286978E+04  0.14351286978E+04  0.00000000000E+00 0.  1.
          6    1    1    2  501    0  0.82229335858E+02 -0.45305324030E+02 -0.12938729986E+04  0.13087591729E+04  0.17300000000E+03 0.  1.
         -6    1    1    2    0  502 -0.82229335858E+02  0.45305324030E+02 -0.61429233063E+02  0.20619599108E+03  0.17300000000E+03 0.  1.
<mgrwt>
<rscale>  2 0.19683302E+03</rscale>
<asrwt>0</asrwt>
<pdfrwt beam="1">  1       21 0.12280995E-01 0.19683302E+03</pdfrwt>
<pdfrwt beam="2">  1       21 0.22078904E+00 0.19683302E+03</pdfrwt>
<totfact> 0.55785650E+03</totfact>
</mgrwt>
</event>
<event>
 4    2  0.4039581E+000  0.2090759E+03  0.7546771E-02  0.1142300E+00
         21   -1    0    0  503  502  0.00000000000E+00  0.00000000000E+00  0.57984728335E+03  0.57984728335E+03  0.00000000000E+00 0. -1.
         21   -1    0    0  501  503 -0.00000000000E+00 -0.00000000000E+00 -0.75718325509E+02  0.75718325509E+02  0.00000000000E+00 0. -1.
          6    1    1    2  501    0  0.80650839847E+02 -0.85318120110E+02  0.27375887577E+03  0.34446576267E+03  0.17300000000E+03 0. -1.
         -6    1    1    2    0  502 -0.80650839847E+02  0.85318120110E+02  0.23037008207E+03  0.31109984619E+03  0.17300000000E+03 0. -1.
<mgrwt>
<rscale>  2 0.20907592E+03</rscale>
<asrwt>0</asrwt>
<pdfrwt beam="1">  1       21 0.89207271E-01 0.20907592E+03</pdfrwt>
<pdfrwt beam="2">  1       21 0.11648974E-01 0.20907592E+03</pdfrwt>
<totfact> 0.65843760E+04</totfact>
</mgrwt>
</event>
<event>
 4    2  0.4039581E+000  0.2025861E+03  0.7546771E-02  0.1147575E+00
         21   -1    0    0  503  502  0.00000000000E+00  0.00000000000E+00  0.86868479075E+02  0.86868479075E+02  0.00000000000E+00 0.  1.
         21   -1    0    0  501  503 -0.00000000000E+00 -0.00000000000E+00 -0.12673401271E+04  0.12673401271E+04  0.00000000000E+00 0. -1.
          6    1    1    2  501    0  0.38855409063E+02  0.97991770377E+02 -0.11264794766E+04  0.11445510653E+04  0.17300000000E+03 0. -1.
         -6    1    1    2    0  502 -0.38855409063E+02 -0.97991770377E+02 -0.53992171437E+02  0.20965754089E+03  0.17300000000E+03 0.  1.
<mgrwt>
<rscale>  2 0.20258610E+03</rscale>
<asrwt>0</asrwt>
<pdfrwt beam="1">  1       21 0.13364383E-01 0.20258610E+03</pdfrwt>
<pdfrwt beam="2">  1       21 0.19497539E+00 0.20258610E+03</pdfrwt>
<totfact> 0.69372467E+03</totfact>
</mgrwt>
</event>
<event>
 4    2  0.4039581E+000  0.1998777E+03  0.7546771E-02  0.1149842E+00
         21   -1    0    0  501  502  0.00000000000E+00  0.00000000000E+00  0.64016048367E+02  0.64016048367E+02  0.00000000000E+00 0. -1.
         21   -1    0    0  502  503 -0.00000000000E+00 -0.00000000000E+00 -0.74103070002E+03  0.74103070002E+03  0.00000000000E+00 0.  1.
          6    1    1    2  501    0  0.98694436770E+02  0.16777536886E+02 -0.17859715193E+03  0.26804481019E+03  0.17300000000E+03 0. -1.
         -6    1    1    2    0  503 -0.98694436770E+02 -0.16777536886E+02 -0.49841749972E+03  0.53700193819E+03  0.17300000000E+03 0.  1.
<mgrwt>
<rscale>  2 0.19987766E+03</rscale>
<asrwt>0</asrwt>
<pdfrwt beam="1">  1       21 0.98486226E-02 0.19987766E+03</pdfrwt>
<pdfrwt beam="2">  1       21 0.11400473E+00 0.19987766E+03</pdfrwt>
<totfact> 0.49727030E+04</totfact>
</mgrwt>
</event>
<event>
 4    2  0.4039581E+000  0.1835570E+03  0.7546771E-02  0.1164404E+00
         21   -1    0    0  503  502  0.00000000000E+00  0.00000000000E+00  0.27705448876E+02  0.27705448876E+02  0.00000000000E+00 0.  1.
         21   -1    0    0  501  503 -0.00000000000E+00 -0.00000000000E+00 -0.13730741555E+04  0.13730741555E+04  0.00000000000E+00 0.  1.
          6    1    1    2  501    0  0.41336266902E+02  0.45337650524E+02 -0.90948194321E+03  0.92782034605E+03  0.17300000000E+03 0.  1.
         -6    1    1    2    0  502 -0.41336266902E+02 -0.45337650524E+02 -0.43588676338E+03  0.47295925829E+03  0.17300000000E+03 0.  1.
<mgrwt>
<rscale>  2 0.18355705E+03</rscale>
<asrwt>0</asrwt>
<pdfrwt beam="1">  1       21 0.42623771E-02 0.18355705E+03</pdfrwt>
<pdfrwt beam="2">  1       21 0.21124216E+00 0.18355705E+03</pdfrwt>
<totfact> 0.40403865E+04</totfact>
</mgrwt>
</event>
<event>
 4    2  0.4039581E+000  0.1761850E+03  0.7546771E-02  0.1171547E+00
         21   -1    0    0  501  502  0.00000000000E+00  0.00000000000E+00  0.53067531872E+03  0.53067531872E+03  0.00000000000E+00 0. -1.
         21   -1    0    0  502  503 -0.00000000000E+00 -0.00000000000E+00 -0.59882176550E+02  0.59882176550E+02  0.00000000000E+00 0. -1.
          6    1    1    2  501    0 -0.28782870005E+02  0.16843651249E+02  0.28035932275E+03  0.33112310708E+03  0.17300000000E+03 0. -1.
         -6    1    1    2    0  503  0.28782870005E+02 -0.16843651249E+02  0.19043381942E+03  0.25943438818E+03  0.17300000000E+03 0. -1.
<mgrwt>
<rscale>  2 0.17618502E+03</rscale>
<asrwt>0</asrwt>
<pdfrwt beam="1">  1       21 0.81642353E-01 0.17618502E+03</pdfrwt>
<pdfrwt beam="2">  1       21 0.92126429E-02 0.17618502E+03</pdfrwt>
<totfact> 0.12390506E+05</totfact>
</mgrwt>
</event>
<event>
 4    2  0.4039581E+000  0.1926471E+03  0.7546771E-02  0.1156095E+00
         21   -1    0    0  503  502  0.00000000000E+00  0.00000000000E+00  0.30590859392E+03  0.30590859392E+03  0.00000000000E+00 0. -1.
         21   -1    0    0  501  503 -0.00000000000E+00 -0.00000000000E+00 -0.12464136292E+03  0.12464136292E+03  0.00000000000E+00 0. -1.
          6    1    1    2  501    0  0.82991999791E+02 -0.17211790938E+02  0.55493596080E+02  0.20048056510E+03  0.17300000000E+03 0. -1.
         -6    1    1    2    0  502 -0.82991999791E+02  0.17211790938E+02  0.12577363491E+03  0.23006939174E+03  0.17300000000E+03 0. -1.
<mgrwt>
<rscale>  2 0.19264713E+03</rscale>
<asrwt>0</asrwt>
<pdfrwt beam="1">  1       21 0.47062860E-01 0.19264713E+03</pdfrwt>
<pdfrwt beam="2">  1       21 0.19175594E-01 0.19264713E+03</pdfrwt>
<totfact> 0.10788345E+05</totfact>
</mgrwt>
</event>
<event>
 4    2  0.4039581E+000  0.2008330E+03  0.7546771E-02  0.1149038E+00
         21   -1    0    0  501  502  0.00000000000E+00  0.00000000000E+00  0.11409645012E+03  0.11409645012E+03  0.00000000000E+00 0.  1.
         21   -1    0    0  502  503 -0.00000000000E+00 -0.00000000000E+00 -0.36835872359E+03  0.36835872359E+03  0.00000000000E+00 0. -1.
          6    1    1    2  501    0  0.10088547180E+03 -0.15066603549E+02 -0.78693653914E+02  0.21570019038E+03  0.17300000000E+03 0.  1.
         -6    1    1    2    0  503 -0.10088547180E+03  0.15066603549E+02 -0.17556861955E+03  0.26675498333E+03  0.17300000000E+03 0. -1.
<mgrwt>
<rscale>  2 0.20083297E+03</rscale>
<asrwt>0</asrwt>
<pdfrwt beam="1">  1       21 0.17553299E-01 0.20083297E+03</pdfrwt>
<pdfrwt beam="2">  1       21 0.56670575E-01 0.20083297E+03</pdfrwt>
<totfact> 0.85794093E+04</totfact>
</mgrwt>
</event>
<event>
 4    2  0.4039581E+000  0.1768101E+03  0.7546771E-02  0.1170926E+00
         21   -1    0    0  501  502  0.00000000000E+00  0.00000000000E+00  0.34494818006E+02  0.34494818006E+02  0.00000000000E+00 0.  1.
         21   -1    0    0  502  503 -0.00000000000E+00 -0.00000000000E+00 -0.11031012198E+04  0.11031012198E+04  0.00000000000E+00 0.  1.
          6    1    1    2  501    0 -0.22477988536E+02 -0.28767343971E+02 -0.29403796033E+03  0.34310369011E+03  0.17300000000E+03 0.  1.
         -6    1    1    2    0  503  0.22477988536E+02  0.28767343971E+02 -0.77456844149E+03  0.79449234773E+03  0.17300000000E+03 0.  1.
<mgrwt>
<rscale>  2 0.17681012E+03</rscale>
<asrwt>0</asrwt>
<pdfrwt beam="1">  1       21 0.53068960E-02 0.17681012E+03</pdfrwt>
<pdfrwt beam="2">  1       21 0.16970785E+00 0.17681012E+03</pdfrwt>
<totfact> 0.52614712E+04</totfact>
</mgrwt>
</event>
<event>
 4    2  0.4039581E+000  0.2430481E+03  0.7546771E-02  0.1117779E+00
         21   -1    0    0  503  502  0.00000000000E+00  0.00000000000E+00  0.13900051851E+03  0.13900051851E+03  0.00000000000E+00 0. -1.
         21   -1    0    0  501  503 -0.00000000000E+00 -0.00000000000E+00 -0.52301796177E+03  0.52301796177E+03  0.00000000000E+00 0. -1.
          6    1    1    2  501    0 -0.16888931383E+03  0.24895073473E+02 -0.48697514955E+02  0.24787862548E+03  0.17300000000E+03 0. -1.
         -6    1    1    2    0  502  0.16888931383E+03 -0.24895073473E+02 -0.33531992831E+03  0.41413985479E+03  0.17300000000E+03 0. -1.
<mgrwt>
<rscale>  2 0.24304807E+03</rscale>
<asrwt>0</asrwt>
<pdfrwt beam="1">  1       21 0.21384695E-01 0.24304807E+03</pdfrwt>
<pdfrwt beam="2">  1       21 0.80464304E-01 0.24304807E+03</pdfrwt>
<totfact> 0.26913435E+04</totfact>
</mgrwt>
</event>
<event>
 4    2  0.4039581E+000  0.2062712E+03  0.7546771E-02  0.1144553E+00
         21   -1    0    0  503  502  0.00000000000E+00  0.00000000000E+00  0.45024980845E+03  0.45024980845E+03  0.00000000000E+00 0.  1.
         21   -1    0    0  501  503 -0.00000000000E+00 -0.00000000000E+00 -0.11115237822E+03  0.11115237822E+03  0.00000000000E+00 0. -1.
          6    1    1    2  501    0 -0.84127626934E+02 -0.74440114567E+02  0.60894503412E+02  0.21507191545E+03  0.17300000000E+03 0. -1.
         -6    1    1    2    0  502  0.84127626934E+02  0.74440114567E+02  0.27820292682E+03  0.34633027122E+03  0.17300000000E+03 0.  1.
<mgrwt>
<rscale>  2 0.20627115E+03</rscale>
<asrwt>0</asrwt>
<pdfrwt beam="1">  1       21 0.69269200E-01 0.20627115E+03</pdfrwt>
<pdfrwt beam="2">  1       21 0.17100366E-01 0.20627115E+03</pdfrwt>
<totfact> 0.58142414E+04</totfact>
</mgrwt>
</event>
<event>
 4    2  0.4039581E+000  0.3247550E+03  0.7546771E-02  0.1073481E+00
         21   -1    0    0  503  502  0.00000000000E+00  0.00000000000E+00  0.39689543006E+03  0.39689543006E+03  0.00000000000E+00 0.  1.
         21   -1    0    0  501  503 -0.00000000000E+00 -0.00000000000E+00 -0.30859417384E+03  0.30859417384E+03  0.00000000000E+00 0.  1.
          6    1    1    2  501    0  0.30181459865E+02  0.27317743228E+03  0.17562139978E+03  0.36920008950E+03  0.17300000000E+03 0.  1.
         -6    1    1    2    0  502 -0.30181459865E+02 -0.27317743228E+03 -0.87320143562E+02  0.33628951440E+03  0.17300000000E+03 0.  1.
<mgrwt>
<rscale>  2 0.32475503E+03</rscale>
<asrwt>0</asrwt>
<pdfrwt beam="1">  1       21 0.61060836E-01 0.32475503E+03</pdfrwt>
<pdfrwt beam="2">  1       21 0.47476027E-01 0.32475503E+03</pdfrwt>
<totfact> 0.98614066E+03</totfact>
</mgrwt>
</event>
<event>
 4    2  0.4039581E+000  0.1735466E+03  0.7546771E-02  0.1174199E+00
         21   -1    0    0  501  502  0.00000000000E+00  0.00000000000E+00  0.12364003386E+03  0.12364003386E+03  0.00000000000E+00 0.  1.
         21   -1    0    0  502  503 -0.00000000000E+00 -0.00000000000E+00 -0.28681544234E+03  0.28681544234E+03  0.00000000000E+00 0.  1.
          6    1    1    2  501    0  0.12700498010E+02 -0.53020460295E+01 -0.19229205248E+01  0.17355722965E+03  0.17300000000E+03 0. -1.
         -6    1    1    2    0  503 -0.12700498010E+02  0.53020460295E+01 -0.16125248796E+03  0.23689824654E+03  0.17300000000E+03 0. -1.
<mgrwt>
<rscale>  2 0.17354658E+03</rscale>
<asrwt>0</asrwt>
<pdfrwt beam="1">  1       21 0.19021544E-01 0.17354658E+03</pdfrwt>
<pdfrwt beam="2">  1       21 0.44125453E-01 0.17354658E+03</pdfrwt>
<totfact> 0.12587445E+05</totfact>
</mgrwt>
</event>
<event>
 4    2  0.4039581E+000  0.1978013E+03  0.7546771E-02  0.1151607E+00
         21   -1    0    0  501  502  0.00000000000E+00  0.00000000000E+00  0.94124758479E+02  0.94124758479E+02  0.00000000000E+00 0. -1.
         21   -1    0    0  502  503 -0.00000000000E+00 -0.00000000000E+00 -0.41932238333E+03  0.41932238333E+03  0.00000000000E+00 0. -1.
          6    1    1    2  501    0  0.93628137843E+02  0.20739068176E+02 -0.13865658170E+03  0.24155948500E+03  0.17300000000E+03 0. -1.
         -6    1    1    2    0  503 -0.93628137843E+02 -0.20739068176E+02 -0.18654104315E+03  0.27188765681E+03  0.17300000000E+03 0. -1.
<mgrwt>
<rscale>  2 0.19780126E+03</rscale>
<asrwt>0</asrwt>
<pdfrwt beam="1">  1       21 0.14480732E-01 0.19780126E+03</pdfrwt>
<pdfrwt beam="2">  1       21 0.64511136E-01 0.19780126E+03</pdfrwt>
<totfact> 0.92464630E+04</totfact>
</mgrwt>
</event>
<event>
 4    2  0.4039581E+000  0.1854839E+03  0.7546771E-02  0.1162599E+00
         21   -1    0    0  503  502  0.00000000000E+00  0.00000000000E+00  0.49207234575E+02  0.49207234575E+02  0.00000000000E+00 0. -1.
         21   -1    0    0  501  503 -0.00000000000E+00 -0.00000000000E+00 -0.70367863958E+03  0.70367863958E+03  0.00000000000E+00 0. -1.
          6    1    1    2  501    0  0.65627255030E+02 -0.12975244622E+02 -0.29710808040E+03  0.35025348680E+03  0.17300000000E+03 0. -1.
         -6    1    1    2    0  502 -0.65627255030E+02  0.12975244622E+02 -0.35736332460E+03  0.40263238735E+03  0.17300000000E+03 0. -1.
<mgrwt>
<rscale>  2 0.18548394E+03</rscale>
<asrwt>0</asrwt>
<pdfrwt beam="1">  1       21 0.75703443E-02 0.18548394E+03</pdfrwt>
<pdfrwt beam="2">  1       21 0.10825825E+00 0.18548394E+03</pdfrwt>
<totfact> 0.89935503E+04</totfact>
</mgrwt>
</event>
<event>
 4    2  0.4039581E+000  0.1796121E+03  0.7546771E-02  0.1168179E+00
         21   -1    0    0  501  502  0.00000000000E+00  0.00000000000E+00  0.52412665636E+02  0.52412665636E+02  0.00000000000E+00 0. -1.
         21   -1    0    0  502  503 -0.00000000000E+00 -0.00000000000E+00 -0.76233474330E+03  0.76233474330E+03  0.00000000000E+00 0.  1.
          6    1    1    2  501    0  0.33205136235E+02  0.35056154440E+02 -0.17618064238E+03  0.25159517838E+03  0.17300000000E+03 0. -1.
         -6    1    1    2    0  503 -0.33205136235E+02 -0.35056154440E+02 -0.53374143529E+03  0.56315223055E+03  0.17300000000E+03 0. -1.
<mgrwt>
<rscale>  2 0.17961212E+03</rscale>
<asrwt>0</asrwt>
<pdfrwt beam="1">  1       21 0.80634873E-02 0.17961212E+03</pdfrwt>
<pdfrwt beam="2">  1       21 0.11728226E+00 0.17961212E+03</pdfrwt>
<totfact> 0.66555079E+04</totfact>
</mgrwt>
</event>
<event>
 4    2  0.4039581E+000  0.2006746E+03  0.7546771E-02  0.1149171E+00
         21   -1    0    0  501  502  0.00000000000E+00  0.00000000000E+00  0.27920583374E+03  0.27920583374E+03  0.00000000000E+00 0.  1.
         21   -1    0    0  502  503 -0.00000000000E+00 -0.00000000000E+00 -0.14964926811E+03  0.14964926811E+03  0.00000000000E+00 0. -1.
          6    1    1    2  501    0  0.97885916374E+02 -0.27561373868E+02  0.10557757873E+03  0.22675296489E+03  0.17300000000E+03 0.  1.
         -6    1    1    2    0  503 -0.97885916374E+02  0.27561373868E+02  0.23978986892E+02  0.20210213697E+03  0.17300000000E+03 0. -1.
<mgrwt>
<rscale>  2 0.20067457E+03</rscale>
<asrwt>0</asrwt>
<pdfrwt beam="1">  1       21 0.42954744E-01 0.20067457E+03</pdfrwt>
<pdfrwt beam="2">  1       21 0.23022964E-01 0.20067457E+03</pdfrwt>
<totfact> 0.92024788E+04</totfact>
</mgrwt>
</event>
<event>
 4    2  0.4039581E+000  0.4947386E+03  0.7546771E-02  0.1015161E+00
         21   -1    0    0  501  502  0.00000000000E+00  0.00000000000E+00  0.13280496765E+04  0.13280496765E+04  0.00000000000E+00 0. -1.
         21   -1    0    0  502  503 -0.00000000000E+00 -0.00000000000E+00 -0.27697744438E+03  0.27697744438E+03  0.00000000000E+00 0. -1.
          6    1    1    2  501    0 -0.12569507624E+03  0.44613681892E+03  0.98973626889E+03  0.11065008791E+04  0.17300000000E+03 0. -1.
         -6    1    1    2    0  503  0.12569507624E+03 -0.44613681892E+03  0.61335963205E+02  0.49852624181E+03  0.17300000000E+03 0. -1.
<mgrwt>
<rscale>  2 0.49473863E+03</rscale>
<asrwt>0</asrwt>
<pdfrwt beam="1">  1       21 0.20431533E+00 0.49473863E+03</pdfrwt>
<pdfrwt beam="2">  1       21 0.42611915E-01 0.49473863E+03</pdfrwt>
<totfact> 0.53858647E+02</totfact>
</mgrwt>
</event>
<event>
 4    2  0.4039581E+000  0.2072813E+03  0.7546771E-02  0.1143737E+00
         21   -1    0    0  501  502  0.00000000000E+00  0.00000000000E+00  0.21999142723E+03  0.21999142723E+03  0.00000000000E+00 0. -1.
         21   -1    0    0  502  503 -0.00000000000E+00 -0.00000000000E+00 -0.34294224779E+03  0.34294224779E+03  0.00000000000E+00 0.  1.
          6    1    1    2  501    0  0.82822073033E+02 -0.78594142866E+02  0.12320208575E+03  0.24113126924E+03  0.17300000000E+03 0. -1.
         -6    1    1    2    0  503 -0.82822073033E+02  0.78594142866E+02 -0.24615290631E+03  0.32180240577E+03  0.17300000000E+03 0.  1.
<mgrwt>
<rscale>  2 0.20728129E+03</rscale>
<asrwt>0</asrwt>
<pdfrwt beam="1">  1       21 0.33844835E-01 0.20728129E+03</pdfrwt>
<pdfrwt beam="2">  1       21 0.52760345E-01 0.20728129E+03</pdfrwt>
<totfact> 0.28405494E+04</totfact>
</mgrwt>
</event>
<event>
 4    2  0.4039581E+000  0.2059280E+03  0.7546771E-02  0.1144832E+00
         21   -1    0    0  503  502  0.00000000000E+00  0.00000000000E+00  0.47657351200E+03  0.47657351200E+03  0.00000000000E+00 0.  1.
         21   -1    0    0  501  503 -0.00000000000E+00 -0.00000000000E+00 -0.12502330060E+03  0.12502330060E+03  0.00000000000E+00 0.  1.
          6    1    1    2  501    0  0.11809023584E+02  0.11107610045E+03  0.14271700729E+02  0.20642198180E+03  0.17300000000E+03 0.  1.
         -6    1    1    2    0  502 -0.11809023584E+02 -0.11107610045E+03  0.33727851067E+03  0.39517483079E+03  0.17300000000E+03 0.  1.
<mgrwt>
<rscale>  2 0.20592803E+03</rscale>
<asrwt>0</asrwt>
<pdfrwt beam="1">  1       21 0.73319001E-01 0.20592803E+03</pdfrwt>
<pdfrwt beam="2">  1       21 0.19234354E-01 0.20592803E+03</pdfrwt>
<totfact> 0.41231397E+04</totfact>
</mgrwt>
</event>
<event>
 4    2  0.4039581E+000  0.2043958E+03  0.7546771E-02  0.1146082E+00
         21   -1    0    0  501  502  0.00000000000E+00  0.00000000000E+00  0.31943664334E+03  0.31943664334E+03  0.00000000000E+00 0. -1.
         21   -1    0    0  502  503 -0.00000000000E+00 -0.00000000000E+00 -0.56258462561E+03  0.56258462561E+03  0.00000000000E+00 0.  1.
          6    1    1    2  501    0  0.10359496941E+03 -0.33417206876E+02  0.26478951294E+03  0.33450129082E+03  0.17300000000E+03 0. -1.
         -6    1    1    2    0  503 -0.10359496941E+03  0.33417206876E+02 -0.50793749521E+03  0.54751997812E+03  0.17300000000E+03 0.  1.
<mgrwt>
<rscale>  2 0.20439576E+03</rscale>
<asrwt>0</asrwt>
<pdfrwt beam="1">  1       21 0.49144098E-01 0.20439576E+03</pdfrwt>
<pdfrwt beam="2">  1       21 0.86551482E-01 0.20439576E+03</pdfrwt>
<totfact> 0.44986713E+03</totfact>
</mgrwt>
</event>
<event>
 4    2  0.4039581E+000  0.1986607E+03  0.7546771E-02  0.1150874E+00
         21   -1    0    0  501  502  0.00000000000E+00  0.00000000000E+00  0.24437177889E+03  0.24437177889E+03  0.00000000000E+00 0. -1.
         21   -1    0    0  502  503 -0.00000000000E+00 -0.00000000000E+00 -0.23896621509E+03  0.23896621509E+03  0.00000000000E+00 0. -1.
          6    1    1    2  501    0  0.93577871832E+02 -0.27933185509E+02  0.14029960676E+03  0.24320785474E+03  0.17300000000E+03 0. -1.
         -6    1    1    2    0  503 -0.93577871832E+02  0.27933185509E+02 -0.13489404295E+03  0.24013013924E+03  0.17300000000E+03 0. -1.
<mgrwt>
<rscale>  2 0.19866072E+03</rscale>
<asrwt>0</asrwt>
<pdfrwt beam="1">  1       21 0.37595659E-01 0.19866072E+03</pdfrwt>
<pdfrwt beam="2">  1       21 0.36764033E-01 0.19866072E+03</pdfrwt>
<totfact> 0.48544719E+04</totfact>
</mgrwt>
</event>
<event>
 4    2  0.4039581E+000  0.1844460E+03  0.7546771E-02  0.1163568E+00
         21   -1    0    0  501  502  0.00000000000E+00  0.00000000000E+00  0.19593771616E+03  0.19593771616E+03  0.00000000000E+00 0.  1.
         21   -1    0    0  502  503 -0.00000000000E+00 -0.00000000000E+00 -0.19128297698E+03  0.19128297698E+03  0.00000000000E+00 0.  1.
          6    1    1    2  501    0  0.28062527634E+02 -0.57478785365E+02  0.61146867752E+02  0.19431740957E+03  0.17300000000E+03 0.  1.
         -6    1    1    2    0  503 -0.28062527634E+02  0.57478785365E+02 -0.56492128572E+02  0.19290328358E+03  0.17300000000E+03 0.  1.
<mgrwt>
<rscale>  2 0.18444597E+03</rscale>
<asrwt>0</asrwt>
<pdfrwt beam="1">  1       21 0.30144264E-01 0.18444597E+03</pdfrwt>
<pdfrwt beam="2">  1       21 0.29428150E-01 0.18444597E+03</pdfrwt>
<totfact> 0.11713082E+05</totfact>
</mgrwt>
</event>
<event>
 4    2  0.4039581E+000  0.1800339E+03  0.7546771E-02  0.1167770E+00
         21   -1    0    0  501  502  0.00000000000E+00  0.00000000000E+00  0.90198577597E+02  0.90198577597E+02  0.00000000000E+00 0.  1.
         21   -1    0    0  502  503 -0.00000000000E+00 -0.00000000000E+00 -0.36768943551E+03  0.36768943551E+03  0.00000000000E+00 0.  1.
          6    1    1    2  501    0  0.45548212737E+02 -0.20212679402E+02 -0.10425096282E+03  0.20803955235E+03  0.17300000000E+03 0.  1.
         -6    1    1    2    0  503 -0.45548212737E+02  0.20212679402E+02 -0.17323989510E+03  0.24984846076E+03  0.17300000000E+03 0.  1.
<mgrwt>
<rscale>  2 0.18003386E+03</rscale>
<asrwt>0</asrwt>
<pdfrwt beam="1">  1       21 0.13876704E-01 0.18003386E+03</pdfrwt>
<pdfrwt beam="2">  1       21 0.56567606E-01 0.18003386E+03</pdfrwt>
<totfact> 0.13335517E+05</totfact>
</mgrwt>
</event>
<event>
 4    2  0.4039581E+000  0.1992736E+03  0.7546771E-02  0.1150353E+00
         21   -1    0    0  503  502  0.00000000000E+00  0.00000000000E+00  0.10327899202E+03  0.10327899202E+03  0.00000000000E+00 0. -1.
         21   -1    0    0  501  503 -0.00000000000E+00 -0.00000000000E+00 -0.40663015462E+03  0.40663015462E+03  0.00000000000E+00 0. -1.
          6    1    1    2  501    0  0.52148480806E+02  0.84032640062E+02 -0.92187016489E+02  0.21956410147E+03  0.17300000000E+03 0. -1.
         -6    1    1    2    0  502 -0.52148480806E+02 -0.84032640062E+02 -0.21116414612E+03  0.29034504517E+03  0.17300000000E+03 0. -1.
<mgrwt>
<rscale>  2 0.19927355E+03</rscale>
<asrwt>0</asrwt>
<pdfrwt beam="1">  1       21 0.15889076E-01 0.19927355E+03</pdfrwt>
<pdfrwt beam="2">  1       21 0.62558485E-01 0.19927355E+03</pdfrwt>
<totfact> 0.83395917E+04</totfact>
</mgrwt>
</event>
<event>
 4    2  0.4039581E+000  0.2558017E+03  0.7546771E-02  0.1109692E+00
         21   -1    0    0  501  502  0.00000000000E+00  0.00000000000E+00  0.40748169030E+03  0.40748169030E+03  0.00000000000E+00 0. -1.
         21   -1    0    0  502  503 -0.00000000000E+00 -0.00000000000E+00 -0.29987816840E+03  0.29987816840E+03  0.00000000000E+00 0.  1.
          6    1    1    2  501    0 -0.33735834809E+02 -0.18538452078E+03 -0.18724784123E+03  0.31701148424E+03  0.17300000000E+03 0.  1.
         -6    1    1    2    0  503  0.33735834809E+02  0.18538452078E+03  0.29485136313E+03  0.39034837445E+03  0.17300000000E+03 0. -1.
<mgrwt>
<rscale>  2 0.25580173E+03</rscale>
<asrwt>0</asrwt>
<pdfrwt beam="1">  1       21 0.62689491E-01 0.25580173E+03</pdfrwt>
<pdfrwt beam="2">  1       21 0.46135103E-01 0.25580173E+03</pdfrwt>
<totfact> 0.10210481E+04</totfact>
</mgrwt>
</event>
<event>
 4    2  0.4039581E+000  0.1932058E+03  0.7546771E-02  0.1155601E+00
         21   -1    0    0  503  502  0.00000000000E+00  0.00000000000E+00  0.44169224403E+03  0.44169224403E+03  0.00000000000E+00 0. -1.
         21   -1    0    0  501  503 -0.00000000000E+00 -0.00000000000E+00 -0.91632402460E+02  0.91632402460E+02  0.00000000000E+00 0. -1.
          6    1    1    2  501    0  0.27490006401E+02 -0.81509486215E+02  0.24936185850E+03  0.31545179231E+03  0.17300000000E+03 0. -1.
         -6    1    1    2    0  502 -0.27490006401E+02  0.81509486215E+02  0.10069798307E+03  0.21787285418E+03  0.17300000000E+03 0. -1.
<mgrwt>
<rscale>  2 0.19320584E+03</rscale>
<asrwt>0</asrwt>
<pdfrwt beam="1">  1       21 0.67952652E-01 0.19320584E+03</pdfrwt>
<pdfrwt beam="2">  1       21 0.14097293E-01 0.19320584E+03</pdfrwt>
<totfact> 0.86835066E+04</totfact>
</mgrwt>
</event>
<event>
 4    2  0.4039581E+000  0.1946354E+03  0.7546771E-02  0.1154346E+00
         21   -1    0    0  501  502  0.00000000000E+00  0.00000000000E+00  0.65398566001E+02  0.65398566001E+02  0.00000000000E+00 0. -1.
         21   -1    0    0  502  503 -0.00000000000E+00 -0.00000000000E+00 -0.10564389546E+04  0.10564389546E+04  0.00000000000E+00 0.  1.
          6    1    1    2  501    0  0.74396157474E+02  0.49184802440E+02 -0.11854107839E+03  0.22789234367E+03  0.17300000000E+03 0. -1.
         -6    1    1    2    0  503 -0.74396157474E+02 -0.49184802440E+02 -0.87249931024E+03  0.89394517696E+03  0.17300000000E+03 0.  1.
<mgrwt>
<rscale>  2 0.19463538E+03</rscale>
<asrwt>0</asrwt>
<pdfrwt beam="1">  1       21 0.10061318E-01 0.19463538E+03</pdfrwt>
<pdfrwt beam="2">  1       21 0.16252906E+00 0.19463538E+03</pdfrwt>
<totfact> 0.19339148E+04</totfact>
</mgrwt>
</event>
<event>
 4    2  0.4039581E+000  0.1819634E+03  0.7546771E-02  0.1165916E+00
         21   -1    0    0  501  502  0.00000000000E+00  0.00000000000E+00  0.28596542313E+03  0.28596542313E+03  0.00000000000E+00 0.  1.
         21   -1    0    0  502  503 -0.00000000000E+00 -0.00000000000E+00 -0.12054911244E+04  0.12054911244E+04  0.00000000000E+00 0. -1.
          6    1    1    2  501    0  0.56403652885E+02  0.53745717757E+00  0.24924850190E+03  0.30860245725E+03  0.17300000000E+03 0.  1.
         -6    1    1    2    0  503 -0.56403652885E+02 -0.53745717757E+00 -0.11687742032E+04  0.11828540903E+04  0.17300000000E+03 0. -1.
<mgrwt>
<rscale>  2 0.18196335E+03</rscale>
<asrwt>0</asrwt>
<pdfrwt beam="1">  1       21 0.43994680E-01 0.18196335E+03</pdfrwt>
<pdfrwt beam="2">  1       21 0.18546017E+00 0.18196335E+03</pdfrwt>
<totfact> 0.84003763E+02</totfact>
</mgrwt>
</event>
<event>
 4    2  0.4039581E+000  0.2411919E+03  0.7546771E-02  0.1119001E+00
         21   -1    0    0  501  502  0.00000000000E+00  0.00000000000E+00  0.71171513587E+03  0.71171513587E+03  0.00000000000E+00 0.  1.
         21   -1    0    0  502  503 -0.00000000000E+00 -0.00000000000E+00 -0.13385337628E+03  0.13385337628E+03  0.00000000000E+00 0.  1.
          6    1    1    2  501    0 -0.14115318193E+03  0.91215835935E+02  0.55274055743E+03  0.60307186415E+03  0.17300000000E+03 0.  1.
         -6    1    1    2    0  503  0.14115318193E+03 -0.91215835935E+02  0.25121202161E+02  0.24249664800E+03  0.17300000000E+03 0.  1.
<mgrwt>
<rscale>  2 0.24119193E+03</rscale>
<asrwt>0</asrwt>
<pdfrwt beam="1">  1       21 0.10949463E+00 0.24119193E+03</pdfrwt>
<pdfrwt beam="2">  1       21 0.20592827E-01 0.24119193E+03</pdfrwt>
<totfact> 0.14005517E+04</totfact>
</mgrwt>
</event>
<event>
 4    2  0.4039581E+000  0.1792887E+03  0.7546771E-02  0.1168493E+00
         21   -1    0    0  503  502  0.00000000000E+00  0.00000000000E+00  0.27942237767E+02  0.27942237767E+02  0.00000000000E+00 0. -1.
         21   -1    0    0  501  503 -0.00000000000E+00 -0.00000000000E+00 -0.13168155583E+04  0.13168155583E+04  0.00000000000E+00 0.  1.
          6    1    1    2  501    0  0.44966900070E+02 -0.13907581988E+02 -0.88347244280E+03  0.90148100376E+03  0.17300000000E+03 0.  1.
         -6    1    1    2    0  502 -0.44966900070E+02  0.13907581988E+02 -0.40540087773E+03  0.44327679231E+03  0.17300000000E+03 0.  1.
<mgrwt>
<rscale>  2 0.17928871E+03</rscale>
<asrwt>0</asrwt>
<pdfrwt beam="1">  1       21 0.42988047E-02 0.17928871E+03</pdfrwt>
<pdfrwt beam="2">  1       21 0.20258706E+00 0.17928871E+03</pdfrwt>
<totfact> 0.45283678E+04</totfact>
</mgrwt>
</event>
<event>
 4    2  0.4039581E+000  0.2095643E+03  0.7546771E-02  0.1141911E+00
         21   -1    0    0  503  502  0.00000000000E+00  0.00000000000E+00  0.69520086623E+03  0.69520086623E+03  0.00000000000E+00 0.  1.
         21   -1    0    0  501  503 -0.00000000000E+00 -0.00000000000E+00 -0.13984004490E+03  0.13984004490E+03  0.00000000000E+00 0.  1.
          6    1    1    2  501    0  0.10998146505E+03 -0.43500343427E+02 -0.31469612181E+02  0.21191398968E+03  0.17300000000E+03 0.  1.
         -6    1    1    2    0  502 -0.10998146505E+03  0.43500343427E+02  0.58683043351E+03  0.62312692145E+03  0.17300000000E+03 0.  1.
<mgrwt>
<rscale>  2 0.20956432E+03</rscale>
<asrwt>0</asrwt>
<pdfrwt beam="1">  1       21 0.10695398E+00 0.20956432E+03</pdfrwt>
<pdfrwt beam="2">  1       21 0.21513853E-01 0.20956432E+03</pdfrwt>
<totfact> 0.13914214E+04</totfact>
</mgrwt>
</event>
<event>
 4    2  0.4039581E+000  0.1768330E+03  0.7546771E-02  0.1170904E+00
         21   -1    0    0  501  502  0.00000000000E+00  0.00000000000E+00  0.74212927911E+02  0.74212927911E+02  0.00000000000E+00 0. -1.
         21   -1    0    0  502  503 -0.00000000000E+00 -0.00000000000E+00 -0.14090709928E+04  0.14090709928E+04  0.00000000000E+00 0. -1.
          6    1    1    2  501    0  0.26137956161E+02 -0.25645935323E+02 -0.46496892019E+02  0.18284383424E+03  0.17300000000E+03 0. -1.
         -6    1    1    2    0  503 -0.26137956161E+02  0.25645935323E+02 -0.12883611729E+04  0.13004400865E+04  0.17300000000E+03 0. -1.
<mgrwt>
<rscale>  2 0.17683299E+03</rscale>
<asrwt>0</asrwt>
<pdfrwt beam="1">  1       21 0.11417375E-01 0.17683299E+03</pdfrwt>
<pdfrwt beam="2">  1       21 0.21678012E+00 0.17683299E+03</pdfrwt>
<totfact> 0.68559124E+03</totfact>
</mgrwt>
</event>
<event>
 4    2  0.4039581E+000  0.1905404E+03  0.7546771E-02  0.1157975E+00
         21   -1    0    0  501  502  0.00000000000E+00  0.00000000000E+00  0.57522642227E+02  0.57522642227E+02  0.00000000000E+00 0.  1.
         21   -1    0    0  502  503 -0.00000000000E+00 -0.00000000000E+00 -0.23634479676E+04  0.23634479676E+04  0.00000000000E+00 0. -1.
          6    1    1    2  501    0  0.69513904328E+01 -0.79550758297E+02 -0.11663450840E+03  0.22340379031E+03  0.17300000000E+03 0.  1.
         -6    1    1    2    0  503 -0.69513904328E+01  0.79550758297E+02 -0.21892908170E+04  0.21975668196E+04  0.17300000000E+03 0. -1.
<mgrwt>
<rscale>  2 0.19054040E+03</rscale>
<asrwt>0</asrwt>
<pdfrwt beam="1">  1       21 0.88496391E-02 0.19054040E+03</pdfrwt>
<pdfrwt beam="2">  1       21 0.36360730E+00 0.19054040E+03</pdfrwt>
<totfact> 0.14651389E+03</totfact>
</mgrwt>
</event>
<event>
 4    2  0.4039581E+000  0.1966262E+03  0.7546771E-02  0.1152617E+00
         21   -1    0    0  503  502  0.00000000000E+00  0.00000000000E+00  0.94933647823E+02  0.94933647823E+02  0.00000000000E+00 0. -1.
         21   -1    0    0  501  503 -0.00000000000E+00 -0.00000000000E+00 -0.83764248196E+03  0.83764248196E+03  0.00000000000E+00 0. -1.
          6    1    1    2  501    0 -0.12415770792E+01  0.93441449148E+02 -0.70559306346E+03  0.73247758814E+03  0.17300000000E+03 0. -1.
         -6    1    1    2    0  502  0.12415770792E+01 -0.93441449148E+02 -0.37115770677E+02  0.20009854164E+03  0.17300000000E+03 0. -1.
<mgrwt>
<rscale>  2 0.19662616E+03</rscale>
<asrwt>0</asrwt>
<pdfrwt beam="1">  1       21 0.14605177E-01 0.19662616E+03</pdfrwt>
<pdfrwt beam="2">  1       21 0.12886807E+00 0.19662616E+03</pdfrwt>
<totfact> 0.18148784E+04</totfact>
</mgrwt>
</event>
<event>
 4    2  0.4039581E+000  0.1822039E+03  0.7546771E-02  0.1165687E+00
         21   -1    0    0  503  502  0.00000000000E+00  0.00000000000E+00  0.42105868752E+03  0.42105868752E+03  0.00000000000E+00 0. -1.
         21   -1    0    0  501  503 -0.00000000000E+00 -0.00000000000E+00 -0.90963465687E+02  0.90963465687E+02  0.00000000000E+00 0. -1.
          6    1    1    2  501    0  0.15264921210E+02 -0.55102257649E+02  0.71603240179E+02  0.19576848731E+03  0.17300000000E+03 0. -1.
         -6    1    1    2    0  502 -0.15264921210E+02  0.55102257649E+02  0.25849198166E+03  0.31625366591E+03  0.17300000000E+03 0. -1.
<mgrwt>
<rscale>  2 0.18220394E+03</rscale>
<asrwt>0</asrwt>
<pdfrwt beam="1">  1       21 0.64778258E-01 0.18220394E+03</pdfrwt>
<pdfrwt beam="2">  1       21 0.13994380E-01 0.18220394E+03</pdfrwt>
<totfact> 0.98098773E+04</totfact>
</mgrwt>
</event>
<event>
 4    2  0.4039581E+000  0.1911251E+03  0.7546771E-02  0.1157450E+00
         21   -1    0    0  503  502  0.00000000000E+00  0.00000000000E+00  0.33554541918E+03  0.33554541918E+03  0.00000000000E+00 0. -1.
         21   -1    0    0  501  503 -0.00000000000E+00 -0.00000000000E+00 -0.43840880519E+03  0.43840880519E+03  0.00000000000E+00 0.  1.
          6    1    1    2  501    0  0.78537475667E+02 -0.20776749165E+02 -0.38693970546E+03  0.43156823800E+03  0.17300000000E+03 0.  1.
         -6    1    1    2    0  502 -0.78537475667E+02  0.20776749165E+02  0.28407631945E+03  0.34238598637E+03  0.17300000000E+03 0. -1.
<mgrwt>
<rscale>  2 0.19112511E+03</rscale>
<asrwt>0</asrwt>
<pdfrwt beam="1">  1       21 0.51622372E-01 0.19112511E+03</pdfrwt>
<pdfrwt beam="2">  1       21 0.67447509E-01 0.19112511E+03</pdfrwt>
<totfact> 0.71745835E+03</totfact>
</mgrwt>
</event>
<event>
 4    2  0.4039581E+000  0.5951767E+03  0.7546771E-02  0.9915464E-01
         21   -1    0    0  503  502  0.00000000000E+00  0.00000000000E+00  0.38549621762E+03  0.38549621762E+03  0.00000000000E+00 0. -1.
         21   -1    0    0  501  503 -0.00000000000E+00 -0.00000000000E+00 -0.10055483361E+04  0.10055483361E+04  0.00000000000E+00 0. -1.
          6    1    1    2  501    0  0.34738762271E+03 -0.45125177316E+03 -0.51418629642E+03  0.78652582324E+03  0.17300000000E+03 0. -1.
         -6    1    1    2    0  502 -0.34738762271E+03  0.45125177316E+03 -0.10586582204E+03  0.60451873046E+03  0.17300000000E+03 0. -1.
<mgrwt>
<rscale>  2 0.59517672E+03</rscale>
<asrwt>0</asrwt>
<pdfrwt beam="1">  1       21 0.59307112E-01 0.59517672E+03</pdfrwt>
<pdfrwt beam="2">  1       21 0.15469974E+00 0.59517672E+03</pdfrwt>
<totfact> 0.57772016E+02</totfact>
</mgrwt>
</event>
<event>
 4    2  0.4039581E+000  0.1840603E+03  0.7546771E-02  0.1163930E+00
         21   -1    0    0  503  502  0.00000000000E+00  0.00000000000E+00  0.15785950660E+03  0.15785950660E+03  0.00000000000E+00 0.  1.
         21   -1    0    0  501  503 -0.00000000000E+00 -0.00000000000E+00 -0.22976382950E+03  0.22976382950E+03  0.00000000000E+00 0.  1.
          6    1    1    2  501    0 -0.62566515919E+02  0.58844754716E+01 -0.85726243521E+02  0.20304478519E+03  0.17300000000E+03 0.  1.
         -6    1    1    2    0  502  0.62566515919E+02 -0.58844754716E+01  0.13821920622E+02  0.18457855091E+03  0.17300000000E+03 0.  1.
<mgrwt>
<rscale>  2 0.18406031E+03</rscale>
<asrwt>0</asrwt>
<pdfrwt beam="1">  1       21 0.24286078E-01 0.18406031E+03</pdfrwt>
<pdfrwt beam="2">  1       21 0.35348281E-01 0.18406031E+03</pdfrwt>
<totfact> 0.12387818E+05</totfact>
</mgrwt>
</event>
<event>
 4    2  0.4039581E+000  0.2279087E+03  0.7546771E-02  0.1128120E+00
         21   -1    0    0  501  502  0.00000000000E+00  0.00000000000E+00  0.19571560968E+04  0.19571560968E+04  0.00000000000E+00 0.  1.
         21   -1    0    0  502  503 -0.00000000000E+00 -0.00000000000E+00 -0.28864597912E+02  0.28864597912E+02  0.00000000000E+00 0. -1.
          6    1    1    2  501    0 -0.14610037862E+03 -0.25846876697E+02  0.68232642723E+03  0.71938288481E+03  0.17300000000E+03 0. -1.
         -6    1    1    2    0  503  0.14610037862E+03  0.25846876697E+02  0.12459650717E+04  0.12666378099E+04  0.17300000000E+03 0. -1.
<mgrwt>
<rscale>  2 0.22790871E+03</rscale>
<asrwt>0</asrwt>
<pdfrwt beam="1">  1       21 0.30110083E+00 0.22790871E+03</pdfrwt>
<pdfrwt beam="2">  1       21 0.44407089E-02 0.22790871E+03</pdfrwt>
<totfact> 0.10674401E+04</totfact>
</mgrwt>
</event>
<event>
 4    2  0.4039581E+000  0.2854168E+03  0.7546771E-02  0.1092767E+00
         21   -1    0    0  501  502  0.00000000000E+00  0.00000000000E+00  0.38428404781E+03  0.38428404781E+03  0.00000000000E+00 0. -1.
         21   -1    0    0  502  503 -0.00000000000E+00 -0.00000000000E+00 -0.65228382465E+03  0.65228382465E+03  0.00000000000E+00 0.  1.
          6    1    1    2  501    0 -0.14265807512E+03 -0.17658540279E+03  0.29181697003E+03  0.40819097843E+03  0.17300000000E+03 0. -1.
         -6    1    1    2    0  503  0.14265807512E+03  0.17658540279E+03 -0.55981674687E+03  0.62837689403E+03  0.17300000000E+03 0.  1.
<mgrwt>
<rscale>  2 0.28541677E+03</rscale>
<asrwt>0</asrwt>
<pdfrwt beam="1">  1       21 0.59120623E-01 0.28541677E+03</pdfrwt>
<pdfrwt beam="2">  1       21 0.10035136E+00 0.28541677E+03</pdfrwt>
<totfact> 0.20300510E+03</totfact>
</mgrwt>
</event>
<event>
 4    2  0.4039581E+000  0.1849499E+03  0.7546771E-02  0.1163097E+00
         21   -1    0    0  503  502  0.00000000000E+00  0.00000000000E+00  0.21603556330E+03  0.21603556330E+03  0.00000000000E+00 0.  1.
         21   -1    0    0  501  503 -0.00000000000E+00 -0.00000000000E+00 -0.15843896051E+03  0.15843896051E+03  0.00000000000E+00 0.  1.
          6    1    1    2  501    0 -0.54399116156E+02 -0.36307219355E+02  0.24054416676E+02  0.18650762177E+03  0.17300000000E+03 0.  1.
         -6    1    1    2    0  502  0.54399116156E+02  0.36307219355E+02  0.33542186113E+02  0.18796690205E+03  0.17300000000E+03 0.  1.
<mgrwt>
<rscale>  2 0.18494993E+03</rscale>
<asrwt>0</asrwt>
<pdfrwt beam="1">  1       21 0.33236240E-01 0.18494993E+03</pdfrwt>
<pdfrwt beam="2">  1       21 0.24375225E-01 0.18494993E+03</pdfrwt>
<totfact> 0.13891647E+05</totfact>
</mgrwt>
</event>
<event>
 4    2  0.4039581E+000  0.2451329E+03  0.7546771E-02  0.1116420E+00
         21   -1    0    0  503  502  0.00000000000E+00  0.00000000000E+00  0.19288234004E+03  0.19288234004E+03  0.00000000000E+00 0. -1.
         21   -1    0    0  501  503 -0.00000000000E+00 -0.00000000000E+00 -0.33861535834E+03  0.33861535834E+03  0.00000000000E+00 0. -1.
          6    1    1    2  501    0 -0.17304669730E+03 -0.14697052115E+02  0.22822586449E+01  0.24514357322E+03  0.17300000000E+03 0. -1.
         -6    1    1    2    0  502  0.17304669730E+03  0.14697052115E+02 -0.14801527694E+03  0.28635412516E+03  0.17300000000E+03 0. -1.
<mgrwt>
<rscale>  2 0.24513295E+03</rscale>
<asrwt>0</asrwt>
<pdfrwt beam="1">  1       21 0.29674206E-01 0.24513295E+03</pdfrwt>
<pdfrwt beam="2">  1       21 0.52094670E-01 0.24513295E+03</pdfrwt>
<totfact> 0.37113792E+04</totfact>
</mgrwt>
</event>
<event>
 4    2  0.4039581E+000  0.2096071E+03  0.7546771E-02  0.1141878E+00
         21   -1    0    0  501  502  0.00000000000E+00  0.00000000000E+00  0.13543828904E+04  0.13543828904E+04  0.00000000000E+00 0. -1.
         21   -1    0    0  502  503 -0.00000000000E+00 -0.00000000000E+00 -0.23746754923E+03  0.23746754923E+03  0.00000000000E+00 0. -1.
          6    1    1    2  501    0 -0.12154885710E+02 -0.11772165482E+03  0.12980238859E+04  0.13148388257E+04  0.17300000000E+03 0. -1.
         -6    1    1    2    0  503  0.12154885710E+02  0.11772165482E+03 -0.18110854473E+03  0.27701161390E+03  0.17300000000E+03 0. -1.
<mgrwt>
<rscale>  2 0.20960708E+03</rscale>
<asrwt>0</asrwt>
<pdfrwt beam="1">  1       21 0.20836659E+00 0.20960708E+03</pdfrwt>
<pdfrwt beam="2">  1       21 0.36533470E-01 0.20960708E+03</pdfrwt>
<totfact> 0.84216095E+02</totfact>
</mgrwt>
</event>
<event>
 4    2  0.4039581E+000  0.1740587E+03  0.7546771E-02  0.1173680E+00
         21   -1    0    0  501  502  0.00000000000E+00  0.00000000000E+00  0.41657009185E+03  0.41657009185E+03  0.00000000000E+00 0.  1.
         21   -1    0    0  502  503 -0.00000000000E+00 -0.00000000000E+00 -0.17613991104E+03  0.17613991104E+03  0.00000000000E+00 0.  1.
          6    1    1    2  501    0  0.12374152565E+02  0.14639873623E+02  0.34728938386E+03  0.38846668029E+03  0.17300000000E+03 0.  1.
         -6    1    1    2    0  503 -0.12374152565E+02 -0.14639873623E+02 -0.10685920305E+03  0.20424332260E+03  0.17300000000E+03 0.  1.
<mgrwt>
<rscale>  2 0.17405874E+03</rscale>
<asrwt>0</asrwt>
<pdfrwt beam="1">  1       21 0.64087706E-01 0.17405874E+03</pdfrwt>
<pdfrwt beam="2">  1       21 0.27098448E-01 0.17405874E+03</pdfrwt>
<totfact> 0.29470007E+04</totfact>
</mgrwt>
</event>
<event>
 4    2  0.4039581E+000  0.2131389E+03  0.7546771E-02  0.1139104E+00
         21   -1    0    0  501  502  0.00000000000E+00  0.00000000000E+00  0.13771006578E+03  0.13771006578E+03  0.00000000000E+00 0.  1.
         21   -1    0    0  502  503 -0.00000000000E+00 -0.00000000000E+00 -0.36628975269E+03  0.36628975269E+03  0.00000000000E+00 0. -1.
          6    1    1    2  501    0 -0.12121732138E+03 -0.28382254157E+02 -0.34842429864E+02  0.21596802141E+03  0.17300000000E+03 0. -1.
         -6    1    1    2    0  503  0.12121732138E+03  0.28382254157E+02 -0.19373725704E+03  0.28803179706E+03  0.17300000000E+03 0. -1.
<mgrwt>
<rscale>  2 0.21313890E+03</rscale>
<asrwt>0</asrwt>
<pdfrwt beam="1">  1       21 0.21186164E-01 0.21313890E+03</pdfrwt>
<pdfrwt beam="2">  1       21 0.56352270E-01 0.21313890E+03</pdfrwt>
<totfact> 0.60816282E+04</totfact>
</mgrwt>
</event>
<event>
 4    2  0.4039581E+000  0.1897005E+03  0.7546771E-02  0.1158732E+00
         21   -1    0    0  503  502  0.00000000000E+00  0.00000000000E+00  0.54141074610E+03  0.54141074610E+03  0.00000000000E+00 0.  1.
         21   -1    0    0  501  503 -0.00000000000E+00 -0.00000000000E+00 -0.67857033972E+02  0.67857033972E+02  0.00000000000E+00 0.  1.
          6    1    1    2  501    0 -0.25819814340E+02  0.73420694268E+02  0.19318522415E+03  0.27075227051E+03  0.17300000000E+03 0.  1.
         -6    1    1    2    0  502  0.25819814340E+02 -0.73420694268E+02  0.28036848799E+03  0.33851550956E+03  0.17300000000E+03 0.  1.
<mgrwt>
<rscale>  2 0.18970045E+03</rscale>
<asrwt>0</asrwt>
<pdfrwt beam="1">  1       21 0.83293958E-01 0.18970045E+03</pdfrwt>
<pdfrwt beam="2">  1       21 0.10439544E-01 0.18970045E+03</pdfrwt>
<totfact> 0.94490510E+04</totfact>
</mgrwt>
</event>
<event>
 4    2  0.4039581E+000  0.3076057E+03  0.7546771E-02  0.1081499E+00
         21   -1    0    0  501  502  0.00000000000E+00  0.00000000000E+00  0.50833796312E+03  0.50833796312E+03  0.00000000000E+00 0.  1.
         21   -1    0    0  502  503 -0.00000000000E+00 -0.00000000000E+00 -0.88093736974E+03  0.88093736974E+03  0.00000000000E+00 0. -1.
          6    1    1    2  501    0 -0.12350214515E+03 -0.22234993592E+03  0.43060113322E+03  0.52918674378E+03  0.17300000000E+03 0.  1.
         -6    1    1    2    0  503  0.12350214515E+03  0.22234993592E+03 -0.80320053984E+03  0.86008858908E+03  0.17300000000E+03 0. -1.
<mgrwt>
<rscale>  2 0.30760571E+03</rscale>
<asrwt>0</asrwt>
<pdfrwt beam="1">  1       21 0.78205841E-01 0.30760571E+03</pdfrwt>
<pdfrwt beam="2">  1       21 0.13552882E+00 0.30760571E+03</pdfrwt>
<totfact> 0.50859848E+02</totfact>
</mgrwt>
</event>
<event>
 4    2  0.4039581E+000  0.2090095E+03  0.7546771E-02  0.1142353E+00
         21   -1    0    0  503  502  0.00000000000E+00  0.00000000000E+00  0.43830638632E+03  0.43830638632E+03  0.00000000000E+00 0. -1.
         21   -1    0    0  501  503 -0.00000000000E+00 -0.00000000000E+00 -0.12805429281E+03  0.12805429281E+03  0.00000000000E+00 0. -1.
          6    1    1    2  501    0 -0.99123169092E+02 -0.62694124175E+02  0.21797468835E+02  0.21014301203E+03  0.17300000000E+03 0. -1.
         -6    1    1    2    0  502  0.99123169092E+02  0.62694124175E+02  0.28845462467E+03  0.35621766710E+03  0.17300000000E+03 0. -1.
<mgrwt>
<rscale>  2 0.20900946E+03</rscale>
<asrwt>0</asrwt>
<pdfrwt beam="1">  1       21 0.67431751E-01 0.20900946E+03</pdfrwt>
<pdfrwt beam="2">  1       21 0.19700661E-01 0.20900946E+03</pdfrwt>
<totfact> 0.47371998E+04</totfact>
</mgrwt>
</event>
<event>
 4    2  0.4039581E+000  0.2247598E+03  0.7546771E-02  0.1130383E+00
         21   -1    0    0  501  502  0.00000000000E+00  0.00000000000E+00  0.35607616622E+03  0.35607616622E+03  0.00000000000E+00 0. -1.
         21   -1    0    0  502  503 -0.00000000000E+00 -0.00000000000E+00 -0.23086540251E+03  0.23086540251E+03  0.00000000000E+00 0. -1.
          6    1    1    2  501    0 -0.41356022404E+02  0.13739588742E+03  0.24481291178E+03  0.33234065692E+03  0.17300000000E+03 0. -1.
         -6    1    1    2    0  503  0.41356022404E+02 -0.13739588742E+03 -0.11960214807E+03  0.25460091180E+03  0.17300000000E+03 0. -1.
<mgrwt>
<rscale>  2 0.22475976E+03</rscale>
<asrwt>0</asrwt>
<pdfrwt beam="1">  1       21 0.54780949E-01 0.22475976E+03</pdfrwt>
<pdfrwt beam="2">  1       21 0.35517754E-01 0.22475976E+03</pdfrwt>
<totfact> 0.23615804E+04</totfact>
</mgrwt>
</event>
<event>
 4    2  0.4039581E+000  0.2032212E+03  0.7546771E-02  0.1147049E+00
         21   -1    0    0  503  502  0.00000000000E+00  0.00000000000E+00  0.10882059169E+03  0.10882059169E+03  0.00000000000E+00 0. -1.
         21   -1    0    0  501  503 -0.00000000000E+00 -0.00000000000E+00 -0.38019620307E+03  0.38019620307E+03  0.00000000000E+00 0. -1.
          6    1    1    2  501    0 -0.61447374271E+02  0.87143970343E+02 -0.14605115350E+03  0.25025944700E+03  0.17300000000E+03 0. -1.
         -6    1    1    2    0  502  0.61447374271E+02 -0.87143970343E+02 -0.12532445788E+03  0.23875734777E+03  0.17300000000E+03 0. -1.
<mgrwt>
<rscale>  2 0.20322119E+03</rscale>
<asrwt>0</asrwt>
<pdfrwt beam="1">  1       21 0.16741629E-01 0.20322119E+03</pdfrwt>
<pdfrwt beam="2">  1       21 0.58491724E-01 0.20322119E+03</pdfrwt>
<totfact> 0.87415419E+04</totfact>
</mgrwt>
</event>
<event>
 4    2  0.4039581E+000  0.2043478E+03  0.7546771E-02  0.1146122E+00
         21   -1    0    0  503  502  0.00000000000E+00  0.00000000000E+00  0.15691433302E+03  0.15691433302E+03  0.00000000000E+00 0.  1.
         21   -1    0    0  501  503 -0.00000000000E+00 -0.00000000000E+00 -0.31892469773E+03  0.31892469773E+03  0.00000000000E+00 0.  1.
          6    1    1    2  501    0  0.97854109157E+02 -0.47472172029E+02 -0.17781568916E+03  0.27088088362E+03  0.17300000000E+03 0.  1.
         -6    1    1    2    0  502 -0.97854109157E+02  0.47472172029E+02  0.15805324443E+02  0.20495814713E+03  0.17300000000E+03 0.  1.
<mgrwt>
<rscale>  2 0.20434783E+03</rscale>
<asrwt>0</asrwt>
<pdfrwt beam="1">  1       21 0.24140667E-01 0.20434783E+03</pdfrwt>
<pdfrwt beam="2">  1       21 0.49065338E-01 0.20434783E+03</pdfrwt>
<totfact> 0.63822910E+04</totfact>
</mgrwt>
</event>
<event>
 4    2  0.4039581E+000  0.1736211E+03  0.7546771E-02  0.1174123E+00
         21   -1    0    0  503  502  0.00000000000E+00  0.00000000000E+00  0.46917755074E+03  0.46917755074E+03  0.00000000000E+00 0.  1.
         21   -1    0    0  501  503 -0.00000000000E+00 -0.00000000000E+00 -0.73096065378E+02  0.73096065378E+02  0.00000000000E+00 0.  1.
          6    1    1    2  501    0 -0.91337149441E+01  0.11483820650E+02  0.10371394062E+03  0.20223967060E+03  0.17300000000E+03 0.  1.
         -6    1    1    2    0  502  0.91337149441E+01 -0.11483820650E+02  0.29236754475E+03  0.34003394552E+03  0.17300000000E+03 0.  1.
<mgrwt>
<rscale>  2 0.17362115E+03</rscale>
<asrwt>0</asrwt>
<pdfrwt beam="1">  1       21 0.72181160E-01 0.17362115E+03</pdfrwt>
<pdfrwt beam="2">  1       21 0.11245549E-01 0.17362115E+03</pdfrwt>
<totfact> 0.11490530E+05</totfact>
</mgrwt>
</event>
<event>
 4    2  0.4039581E+000  0.1867275E+03  0.7546771E-02  0.1161446E+00
         21   -1    0    0  503  502  0.00000000000E+00  0.00000000000E+00  0.35720954119E+03  0.35720954119E+03  0.00000000000E+00 0.  1.
         21   -1    0    0  501  503 -0.00000000000E+00 -0.00000000000E+00 -0.14958315896E+03  0.14958315896E+03  0.00000000000E+00 0.  1.
          6    1    1    2  501    0  0.70174010392E+02  0.37084514625E+01 -0.45552029782E+02  0.19220336044E+03  0.17300000000E+03 0.  1.
         -6    1    1    2    0  502 -0.70174010392E+02 -0.37084514625E+01  0.25317841202E+03  0.31458933971E+03  0.17300000000E+03 0.  1.
<mgrwt>
<rscale>  2 0.18672746E+03</rscale>
<asrwt>0</asrwt>
<pdfrwt beam="1">  1       21 0.54955314E-01 0.18672746E+03</pdfrwt>
<pdfrwt beam="2">  1       21 0.23012794E-01 0.18672746E+03</pdfrwt>
<totfact> 0.55547500E+04</totfact>
</mgrwt>
</event>
<event>
 4    2  0.4039581E+000  0.1813726E+03  0.7546771E-02  0.1166481E+00
         21   -1    0    0  501  502  0.00000000000E+00  0.00000000000E+00  0.14388629692E+04  0.14388629692E+04  0.00000000000E+00 0. -1.
         21   -1    0    0  502  503 -0.00000000000E+00 -0.00000000000E+00 -0.23124791214E+02  0.23124791214E+02  0.00000000000E+00 0. -1.
          6    1    1    2  501    0 -0.16086060687E+02 -0.52041013052E+02  0.78571808841E+03  0.80638014785E+03  0.17300000000E+03 0. -1.
         -6    1    1    2    0  503  0.16086060687E+02  0.52041013052E+02  0.63002008959E+03  0.65560761258E+03  0.17300000000E+03 0. -1.
<mgrwt>
<rscale>  2 0.18137262E+03</rscale>
<asrwt>0</asrwt>
<pdfrwt beam="1">  1       21 0.22136346E+00 0.18137262E+03</pdfrwt>
<pdfrwt beam="2">  1       21 0.35576613E-02 0.18137262E+03</pdfrwt>
<totfact> 0.47418984E+04</totfact>
</mgrwt>
</event>
<event>
 4    2  0.4039581E+000  0.2336847E+03  0.7546771E-02  0.1124073E+00
         21   -1    0    0  503  502  0.00000000000E+00  0.00000000000E+00  0.17192495936E+03  0.17192495936E+03  0.00000000000E+00 0.  1.
         21   -1    0    0  501  503 -0.00000000000E+00 -0.00000000000E+00 -0.36796691702E+03  0.36796691702E+03  0.00000000000E+00 0.  1.
          6    1    1    2  501    0 -0.10449577018E+03  0.11730384194E+03 -0.19786335345E+03  0.30620003912E+03  0.17300000000E+03 0.  1.
         -6    1    1    2    0  502  0.10449577018E+03 -0.11730384194E+03  0.18213957844E+01  0.23369183726E+03  0.17300000000E+03 0.  1.
<mgrwt>
<rscale>  2 0.23368474E+03</rscale>
<asrwt>0</asrwt>
<pdfrwt beam="1">  1       21 0.26449994E-01 0.23368474E+03</pdfrwt>
<pdfrwt beam="2">  1       21 0.56610295E-01 0.23368474E+03</pdfrwt>
<totfact> 0.39099189E+04</totfact>
</mgrwt>
</event>
<event>
 4    2  0.4039581E+000  0.3040505E+03  0.7546771E-02  0.1083233E+00
         21   -1    0    0  501  502  0.00000000000E+00  0.00000000000E+00  0.13307725242E+04  0.13307725242E+04  0.00000000000E+00 0.  1.
         21   -1    0    0  502  503 -0.00000000000E+00 -0.00000000000E+00 -0.87091000885E+02  0.87091000885E+02  0.00000000000E+00 0.  1.
          6    1    1    2  501    0  0.22056811141E+03 -0.11775992710E+03  0.94073912837E+03  0.98865403446E+03  0.17300000000E+03 0.  1.
         -6    1    1    2    0  503 -0.22056811141E+03  0.11775992710E+03  0.30294239497E+03  0.42920949066E+03  0.17300000000E+03 0.  1.
<mgrwt>
<rscale>  2 0.30405048E+03</rscale>
<asrwt>0</asrwt>
<pdfrwt beam="1">  1       21 0.20473422E+00 0.30405048E+03</pdfrwt>
<pdfrwt beam="2">  1       21 0.13398616E-01 0.30405048E+03</pdfrwt>
<totfact> 0.55530702E+03</totfact>
</mgrwt>
</event>
<event>
 4    2  0.4039581E+000  0.2262464E+03  0.7546771E-02  0.1129310E+00
         21   -1    0    0  501  502  0.00000000000E+00  0.00000000000E+00  0.11275207014E+03  0.11275207014E+03  0.00000000000E+00 0. -1.
         21   -1    0    0  502  503 -0.00000000000E+00 -0.00000000000E+00 -0.68289685666E+03  0.68289685666E+03  0.00000000000E+00 0. -1.
          6    1    1    2  501    0 -0.94589661898E+02  0.11095599661E+03 -0.51540249067E+03  0.56287402206E+03  0.17300000000E+03 0. -1.
         -6    1    1    2    0  503  0.94589661898E+02 -0.11095599661E+03 -0.54742295853E+02  0.23277490474E+03  0.17300000000E+03 0. -1.
<mgrwt>
<rscale>  2 0.22624641E+03</rscale>
<asrwt>0</asrwt>
<pdfrwt beam="1">  1       21 0.17346472E-01 0.22624641E+03</pdfrwt>
<pdfrwt beam="2">  1       21 0.10506105E+00 0.22624641E+03</pdfrwt>
<totfact> 0.21500383E+04</totfact>
</mgrwt>
</event>
<event>
 4    2  0.4039581E+000  0.2343149E+03  0.7546771E-02  0.1123639E+00
         21   -1    0    0  501  502  0.00000000000E+00  0.00000000000E+00  0.46227484409E+03  0.46227484409E+03  0.00000000000E+00 0. -1.
         21   -1    0    0  502  503 -0.00000000000E+00 -0.00000000000E+00 -0.13835886689E+03  0.13835886689E+03  0.00000000000E+00 0. -1.
          6    1    1    2  501    0  0.91046798288E+02 -0.12917028231E+03  0.27496424652E+03  0.36126004232E+03  0.17300000000E+03 0. -1.
         -6    1    1    2    0  503 -0.91046798288E+02  0.12917028231E+03  0.48951730678E+02  0.23937366866E+03  0.17300000000E+03 0. -1.
<mgrwt>
<rscale>  2 0.23431492E+03</rscale>
<asrwt>0</asrwt>
<pdfrwt beam="1">  1       21 0.71119206E-01 0.23431492E+03</pdfrwt>
<pdfrwt beam="2">  1       21 0.21285980E-01 0.23431492E+03</pdfrwt>
<totfact> 0.35985488E+04</totfact>
</mgrwt>
</event>
<event>
 4    2  0.4039581E+000  0.2522649E+03  0.7546771E-02  0.1111882E+00
         21   -1    0    0  503  502  0.00000000000E+00  0.00000000000E+00  0.61947991625E+03  0.61947991625E+03  0.00000000000E+00 0.  1.
         21   -1    0    0  501  503 -0.00000000000E+00 -0.00000000000E+00 -0.10415453297E+03  0.10415453297E+03  0.00000000000E+00 0.  1.
          6    1    1    2  501    0  0.93304974460E+02  0.15812265072E+03  0.30001480189E+03  0.39197764258E+03  0.17300000000E+03 0.  1.
         -6    1    1    2    0  502 -0.93304974460E+02 -0.15812265072E+03  0.21531058139E+03  0.33165680663E+03  0.17300000000E+03 0.  1.
<mgrwt>
<rscale>  2 0.25226492E+03</rscale>
<asrwt>0</asrwt>
<pdfrwt beam="1">  1       21 0.95304600E-01 0.25226492E+03</pdfrwt>
<pdfrwt beam="2">  1       21 0.16023775E-01 0.25226492E+03</pdfrwt>
<totfact> 0.31010833E+04</totfact>
</mgrwt>
</event>
<event>
 4    2  0.4039581E+000  0.1795312E+03  0.7546771E-02  0.1168258E+00
         21   -1    0    0  503  502  0.00000000000E+00  0.00000000000E+00  0.16720926149E+03  0.16720926149E+03  0.00000000000E+00 0.  1.
         21   -1    0    0  501  503 -0.00000000000E+00 -0.00000000000E+00 -0.21674123866E+03  0.21674123866E+03  0.00000000000E+00 0.  1.
          6    1    1    2  501    0  0.26102093324E+02  0.40263369815E+02 -0.88621647136E+02  0.20021302297E+03  0.17300000000E+03 0.  1.
         -6    1    1    2    0  502 -0.26102093324E+02 -0.40263369815E+02  0.39089669962E+02  0.18373747719E+03  0.17300000000E+03 0.  1.
<mgrwt>
<rscale>  2 0.17953122E+03</rscale>
<asrwt>0</asrwt>
<pdfrwt beam="1">  1       21 0.25724502E-01 0.17953122E+03</pdfrwt>
<pdfrwt beam="2">  1       21 0.33344806E-01 0.17953122E+03</pdfrwt>
<totfact> 0.12478084E+05</totfact>
</mgrwt>
</event>
<event>
 4    2  0.4039581E+000  0.1797637E+03  0.7546771E-02  0.1168032E+00
         21   -1    0    0  501  502  0.00000000000E+00  0.00000000000E+00  0.91389334865E+02  0.91389334865E+02  0.00000000000E+00 0.  1.
         21   -1    0    0  502  503 -0.00000000000E+00 -0.00000000000E+00 -0.56651129182E+03  0.56651129182E+03  0.00000000000E+00 0.  1.
          6    1    1    2  501    0  0.25747908554E+02 -0.41509447729E+02 -0.35896926706E+02  0.18331278840E+03  0.17300000000E+03 0.  1.
         -6    1    1    2    0  503 -0.25747908554E+02  0.41509447729E+02 -0.43922503025E+03  0.47458783828E+03  0.17300000000E+03 0.  1.
<mgrwt>
<rscale>  2 0.17976370E+03</rscale>
<asrwt>0</asrwt>
<pdfrwt beam="1">  1       21 0.14059898E-01 0.17976370E+03</pdfrwt>
<pdfrwt beam="2">  1       21 0.87155580E-01 0.17976370E+03</pdfrwt>
<totfact> 0.50233217E+04</totfact>
</mgrwt>
</event>
<event>
 4    2  0.4039581E+000  0.1836397E+03  0.7546771E-02  0.1164326E+00
         21   -1    0    0  503  502  0.00000000000E+00  0.00000000000E+00  0.20519547519E+03  0.20519547519E+03  0.00000000000E+00 0. -1.
         21   -1    0    0  501  503 -0.00000000000E+00 -0.00000000000E+00 -0.55686885893E+03  0.55686885893E+03  0.00000000000E+00 0. -1.
          6    1    1    2  501    0 -0.42269678991E+02 -0.44808650269E+02 -0.49573824080E+03  0.52865862737E+03  0.17300000000E+03 0. -1.
         -6    1    1    2    0  502  0.42269678991E+02  0.44808650269E+02  0.14406485706E+03  0.23340570674E+03  0.17300000000E+03 0. -1.
<mgrwt>
<rscale>  2 0.18363970E+03</rscale>
<asrwt>0</asrwt>
<pdfrwt beam="1">  1       21 0.31568535E-01 0.18363970E+03</pdfrwt>
<pdfrwt beam="2">  1       21 0.85672131E-01 0.18363970E+03</pdfrwt>
<totfact> 0.11421331E+04</totfact>
</mgrwt>
</event>
<event>
 4    2  0.4039581E+000  0.1873767E+03  0.7546771E-02  0.1160849E+00
         21   -1    0    0  501  502  0.00000000000E+00  0.00000000000E+00  0.38457049199E+03  0.38457049199E+03  0.00000000000E+00 0. -1.
         21   -1    0    0  502  503 -0.00000000000E+00 -0.00000000000E+00 -0.10082458366E+03  0.10082458366E+03  0.00000000000E+00 0. -1.
          6    1    1    2  501    0 -0.11485625658E+02  0.71057071075E+02  0.21647998822E+03  0.28631034254E+03  0.17300000000E+03 0. -1.
         -6    1    1    2    0  503  0.11485625658E+02 -0.71057071075E+02  0.67265920106E+02  0.19908473310E+03  0.17300000000E+03 0. -1.
<mgrwt>
<rscale>  2 0.18737670E+03</rscale>
<asrwt>0</asrwt>
<pdfrwt beam="1">  1       21 0.59164691E-01 0.18737670E+03</pdfrwt>
<pdfrwt beam="2">  1       21 0.15511475E-01 0.18737670E+03</pdfrwt>
<totfact> 0.98738619E+04</totfact>
</mgrwt>
</event>
<event>
 4    2  0.4039581E+000  0.2067265E+03  0.7546771E-02  0.1144185E+00
         21   -1    0    0  501  502  0.00000000000E+00  0.00000000000E+00  0.11356931831E+04  0.11356931831E+04  0.00000000000E+00 0. -1.
         21   -1    0    0  502  503 -0.00000000000E+00 -0.00000000000E+00 -0.56762220170E+02  0.56762220170E+02  0.00000000000E+00 0. -1.
          6    1    1    2  501    0  0.29832600009E+02 -0.10916441055E+03  0.88561837446E+03  0.90942605952E+03  0.17300000000E+03 0. -1.
         -6    1    1    2    0  503 -0.29832600009E+02  0.10916441055E+03  0.19331258842E+03  0.28302934370E+03  0.17300000000E+03 0. -1.
<mgrwt>
<rscale>  2 0.20672652E+03</rscale>
<asrwt>0</asrwt>
<pdfrwt beam="1">  1       21 0.17472201E+00 0.20672652E+03</pdfrwt>
<pdfrwt beam="2">  1       21 0.87326501E-02 0.20672652E+03</pdfrwt>
<totfact> 0.20168507E+04</totfact>
</mgrwt>
</event>
<event>
 4    2  0.4039581E+000  0.1832530E+03  0.7546771E-02  0.1164691E+00
         21   -1    0    0  503  502  0.00000000000E+00  0.00000000000E+00  0.43132044724E+03  0.43132044724E+03  0.00000000000E+00 0. -1.
         21   -1    0    0  501  503 -0.00000000000E+00 -0.00000000000E+00 -0.82866069099E+02  0.82866069099E+02  0.00000000000E+00 0.  1.
          6    1    1    2  501    0 -0.58865441087E+02 -0.13693540930E+02  0.11102284315E+03  0.21426088052E+03  0.17300000000E+03 0.  1.
         -6    1    1    2    0  502  0.58865441087E+02  0.13693540930E+02  0.23743153499E+03  0.29992563583E+03  0.17300000000E+03 0.  1.
<mgrwt>
<rscale>  2 0.18325298E+03</rscale>
<asrwt>0</asrwt>
<pdfrwt beam="1">  1       21 0.66356990E-01 0.18325298E+03</pdfrwt>
<pdfrwt beam="2">  1       21 0.12748626E-01 0.18325298E+03</pdfrwt>
<totfact> 0.11007541E+05</totfact>
</mgrwt>
</event>
<event>
 4    2  0.4039581E+000  0.3021121E+03  0.7546771E-02  0.1084190E+00
         21   -1    0    0  503  502  0.00000000000E+00  0.00000000000E+00  0.39064646912E+03  0.39064646912E+03  0.00000000000E+00 0.  1.
         21   -1    0    0  501  503 -0.00000000000E+00 -0.00000000000E+00 -0.30215612634E+03  0.30215612634E+03  0.00000000000E+00 0.  1.
          6    1    1    2  501    0  0.22322553479E+03  0.10729916801E+03 -0.12070440523E+03  0.32533260562E+03  0.17300000000E+03 0.  1.
         -6    1    1    2    0  502 -0.22322553479E+03 -0.10729916801E+03  0.20919474802E+03  0.36746998984E+03  0.17300000000E+03 0.  1.
<mgrwt>
<rscale>  2 0.30211215E+03</rscale>
<asrwt>0</asrwt>
<pdfrwt beam="1">  1       21 0.60099457E-01 0.30211215E+03</pdfrwt>
<pdfrwt beam="2">  1       21 0.46485558E-01 0.30211215E+03</pdfrwt>
<totfact> 0.10772390E+04</totfact>
</mgrwt>
</event>
<event>
 4    2  0.4039581E+000  0.1822325E+03  0.7546771E-02  0.1165660E+00
         21   -1    0    0  501  502  0.00000000000E+00  0.00000000000E+00  0.18192690553E+03  0.18192690553E+03  0.00000000000E+00 0. -1.
         21   -1    0    0  502  503 -0.00000000000E+00 -0.00000000000E+00 -0.25943079532E+03  0.25943079532E+03  0.00000000000E+00 0. -1.
          6    1    1    2  501    0 -0.54664807495E+02  0.17071471168E+02  0.81389037244E+02  0.19958169177E+03  0.17300000000E+03 0. -1.
         -6    1    1    2    0  503  0.54664807495E+02 -0.17071471168E+02 -0.15889292703E+03  0.24177600908E+03  0.17300000000E+03 0. -1.
<mgrwt>
<rscale>  2 0.18223248E+03</rscale>
<asrwt>0</asrwt>
<pdfrwt beam="1">  1       21 0.27988755E-01 0.18223248E+03</pdfrwt>
<pdfrwt beam="2">  1       21 0.39912430E-01 0.18223248E+03</pdfrwt>
<totfact> 0.74090297E+04</totfact>
</mgrwt>
</event>
<event>
 4    2  0.4039581E+000  0.1973398E+03  0.7546771E-02  0.1152003E+00
         21   -1    0    0  501  502  0.00000000000E+00  0.00000000000E+00  0.34537925508E+03  0.34537925508E+03  0.00000000000E+00 0.  1.
         21   -1    0    0  502  503 -0.00000000000E+00 -0.00000000000E+00 -0.11393189163E+03  0.11393189163E+03  0.00000000000E+00 0.  1.
          6    1    1    2  501    0  0.93168029158E+02 -0.18268026795E+02  0.92375755240E+02  0.21789052897E+03  0.17300000000E+03 0.  1.
         -6    1    1    2    0  503 -0.93168029158E+02  0.18268026795E+02  0.13907160821E+03  0.24142061774E+03  0.17300000000E+03 0.  1.
<mgrwt>
<rscale>  2 0.19733981E+03</rscale>
<asrwt>0</asrwt>
<pdfrwt beam="1">  1       21 0.53135269E-01 0.19733981E+03</pdfrwt>
<pdfrwt beam="2">  1       21 0.17527984E-01 0.19733981E+03</pdfrwt>
<totfact> 0.98734467E+04</totfact>
</mgrwt>
</event>
<event>
 4    2  0.4039581E+000  0.2482241E+03  0.7546771E-02  0.1114432E+00
         21   -1    0    0  501  502  0.00000000000E+00  0.00000000000E+00  0.17173799095E+03  0.17173799095E+03  0.00000000000E+00 0.  1.
         21   -1    0    0  502  503 -0.00000000000E+00 -0.00000000000E+00 -0.44399303082E+03  0.44399303082E+03  0.00000000000E+00 0.  1.
          6    1    1    2  501    0 -0.14951168739E+02  0.17737723190E+03 -0.12499089374E+01  0.24822727916E+03  0.17300000000E+03 0.  1.
         -6    1    1    2    0  503  0.14951168739E+02 -0.17737723190E+03 -0.27100513094E+03  0.36750374262E+03  0.17300000000E+03 0.  1.
<mgrwt>
<rscale>  2 0.24822413E+03</rscale>
<asrwt>0</asrwt>
<pdfrwt beam="1">  1       21 0.26421230E-01 0.24822413E+03</pdfrwt>
<pdfrwt beam="2">  1       21 0.68306619E-01 0.24822413E+03</pdfrwt>
<totfact> 0.25881268E+04</totfact>
</mgrwt>
</event>
<event>
 4    2  0.4039581E+000  0.2553539E+03  0.7546771E-02  0.1109967E+00
         21   -1    0    0  501  502  0.00000000000E+00  0.00000000000E+00  0.16060069524E+04  0.16060069524E+04  0.00000000000E+00 0. -1.
         21   -1    0    0  502  503 -0.00000000000E+00 -0.00000000000E+00 -0.48089051208E+02  0.48089051208E+02  0.00000000000E+00 0.  1.
          6    1    1    2  501    0  0.42313099363E+02 -0.18299241364E+03  0.11053134493E+04  0.11344264819E+04  0.17300000000E+03 0. -1.
         -6    1    1    2    0  503 -0.42313099363E+02  0.18299241364E+03  0.45260445189E+03  0.51966952162E+03  0.17300000000E+03 0.  1.
<mgrwt>
<rscale>  2 0.25535391E+03</rscale>
<asrwt>0</asrwt>
<pdfrwt beam="1">  1       21 0.24707795E+00 0.25535391E+03</pdfrwt>
<pdfrwt beam="2">  1       21 0.73983168E-02 0.25535391E+03</pdfrwt>
<totfact> 0.90186744E+03</totfact>
</mgrwt>
</event>
<event>
 4    2  0.4039581E+000  0.2077660E+03  0.7546771E-02  0.1143347E+00
         21   -1    0    0  501  502  0.00000000000E+00  0.00000000000E+00  0.34372463299E+03  0.34372463299E+03  0.00000000000E+00 0.  1.
         21   -1    0    0  502  503 -0.00000000000E+00 -0.00000000000E+00 -0.13403191882E+03  0.13403191882E+03  0.00000000000E+00 0. -1.
          6    1    1    2  501    0 -0.80639985170E+02 -0.82066490885E+02  0.16481405168E+03  0.26519877030E+03  0.17300000000E+03 0.  1.
         -6    1    1    2    0  503  0.80639985170E+02  0.82066490885E+02  0.44878662489E+02  0.21255778151E+03  0.17300000000E+03 0. -1.
<mgrwt>
<rscale>  2 0.20776601E+03</rscale>
<asrwt>0</asrwt>
<pdfrwt beam="1">  1       21 0.52880712E-01 0.20776601E+03</pdfrwt>
<pdfrwt beam="2">  1       21 0.20620295E-01 0.20776601E+03</pdfrwt>
<totfact> 0.73387418E+04</totfact>
</mgrwt>
</event>
<event>
 4    2  0.4039581E+000  0.1889376E+03  0.7546771E-02  0.1159423E+00
         21   -1    0    0  501  502  0.00000000000E+00  0.00000000000E+00  0.19439835192E+03  0.19439835192E+03  0.00000000000E+00 0.  1.
         21   -1    0    0  502  503 -0.00000000000E+00 -0.00000000000E+00 -0.30682852750E+03  0.30682852750E+03  0.00000000000E+00 0.  1.
          6    1    1    2  501    0  0.22715305253E+02  0.72473558397E+02  0.10258800421E+03  0.21499232630E+03  0.17300000000E+03 0.  1.
         -6    1    1    2    0  503 -0.22715305253E+02 -0.72473558397E+02 -0.21501817979E+03  0.28623455312E+03  0.17300000000E+03 0.  1.
<mgrwt>
<rscale>  2 0.18893756E+03</rscale>
<asrwt>0</asrwt>
<pdfrwt beam="1">  1       21 0.29907439E-01 0.18893756E+03</pdfrwt>
<pdfrwt beam="2">  1       21 0.47204389E-01 0.18893756E+03</pdfrwt>
<totfact> 0.46116090E+04</totfact>
</mgrwt>
</event>
<event>
 4    2  0.4039581E+000  0.2250331E+03  0.7546771E-02  0.1130185E+00
         21   -1    0    0  503  502  0.00000000000E+00  0.00000000000E+00  0.70142366439E+03  0.70142366439E+03  0.00000000000E+00 0. -1.
         21   -1    0    0  501  503 -0.00000000000E+00 -0.00000000000E+00 -0.73038040942E+02  0.73038040942E+02  0.00000000000E+00 0. -1.
          6    1    1    2  501    0  0.88364899558E+02  0.11358930073E+03  0.27261150966E+03  0.35349246090E+03  0.17300000000E+03 0. -1.
         -6    1    1    2    0  502 -0.88364899558E+02 -0.11358930073E+03  0.35577411378E+03  0.42096924442E+03  0.17300000000E+03 0. -1.
<mgrwt>
<rscale>  2 0.22503307E+03</rscale>
<asrwt>0</asrwt>
<pdfrwt beam="1">  1       21 0.10791133E+00 0.22503307E+03</pdfrwt>
<pdfrwt beam="2">  1       21 0.11236622E-01 0.22503307E+03</pdfrwt>
<totfact> 0.44395166E+04</totfact>
</mgrwt>
</event>
<event>
 4    2  0.4039581E+000  0.2611891E+03  0.7546771E-02  0.1106431E+00
         21   -1    0    0  503  502  0.00000000000E+00  0.00000000000E+00  0.73111476473E+02  0.73111476473E+02  0.00000000000E+00 0. -1.
         21   -1    0    0  501  503 -0.00000000000E+00 -0.00000000000E+00 -0.12543198382E+04  0.12543198382E+04  0.00000000000E+00 0.  1.
          6    1    1    2  501    0  0.64404569095E+02  0.18477767592E+03 -0.92648442933E+03  0.96259707865E+03  0.17300000000E+03 0.  1.
         -6    1    1    2    0  502 -0.64404569095E+02 -0.18477767592E+03 -0.25472393241E+03  0.36483423603E+03  0.17300000000E+03 0. -1.
<mgrwt>
<rscale>  2 0.26118908E+03</rscale>
<asrwt>0</asrwt>
<pdfrwt beam="1">  1       21 0.11247920E-01 0.26118908E+03</pdfrwt>
<pdfrwt beam="2">  1       21 0.19297227E+00 0.26118908E+03</pdfrwt>
<totfact> 0.93403598E+03</totfact>
</mgrwt>
</event>
<event>
 4    2  0.4039581E+000  0.2052546E+03  0.7546771E-02  0.1145380E+00
         21   -1    0    0  501  502  0.00000000000E+00  0.00000000000E+00  0.20304462130E+03  0.20304462130E+03  0.00000000000E+00 0.  1.
         21   -1    0    0  502  503 -0.00000000000E+00 -0.00000000000E+00 -0.25723592722E+03  0.25723592722E+03  0.00000000000E+00 0.  1.
          6    1    1    2  501    0  0.69255409538E+02 -0.86047289569E+02  0.74111594393E+02  0.21822460039E+03  0.17300000000E+03 0.  1.
         -6    1    1    2    0  503 -0.69255409538E+02  0.86047289569E+02 -0.12830290031E+03  0.24205594812E+03  0.17300000000E+03 0.  1.
<mgrwt>
<rscale>  2 0.20525459E+03</rscale>
<asrwt>0</asrwt>
<pdfrwt beam="1">  1       21 0.31237634E-01 0.20525459E+03</pdfrwt>
<pdfrwt beam="2">  1       21 0.39574758E-01 0.20525459E+03</pdfrwt>
<totfact> 0.60254742E+04</totfact>
</mgrwt>
</event>
<event>
 4    2  0.4039581E+000  0.1801746E+03  0.7546771E-02  0.1167634E+00
         21   -1    0    0  503  502  0.00000000000E+00  0.00000000000E+00  0.35615203496E+02  0.35615203496E+02  0.00000000000E+00 0.  1.
         21   -1    0    0  501  503 -0.00000000000E+00 -0.00000000000E+00 -0.93808555427E+03  0.93808555427E+03  0.00000000000E+00 0.  1.
          6    1    1    2  501    0 -0.19351013860E+02  0.46469547688E+02 -0.36925974998E+03  0.41087180915E+03  0.17300000000E+03 0.  1.
         -6    1    1    2    0  502  0.19351013860E+02 -0.46469547688E+02 -0.53321060079E+03  0.56282894861E+03  0.17300000000E+03 0.  1.
<mgrwt>
<rscale>  2 0.18017458E+03</rscale>
<asrwt>0</asrwt>
<pdfrwt beam="1">  1       21 0.54792617E-02 0.18017458E+03</pdfrwt>
<pdfrwt beam="2">  1       21 0.14432087E+00 0.18017458E+03</pdfrwt>
<totfact> 0.76614983E+04</totfact>
</mgrwt>
</event>
<event>
 4    2  0.4039581E+000  0.1736666E+03  0.7546771E-02  0.1174077E+00
         21   -1    0    0  501  502  0.00000000000E+00  0.00000000000E+00  0.34508954451E+03  0.34508954451E+03  0.00000000000E+00 0. -1.
         21   -1    0    0  502  503 -0.00000000000E+00 -0.00000000000E+00 -0.14538240680E+03  0.14538240680E+03  0.00000000000E+00 0. -1.
          6    1    1    2  501    0  0.23212997717E+01  0.15023396531E+02 -0.55022512845E+02  0.18217455310E+03  0.17300000000E+03 0. -1.
         -6    1    1    2    0  503 -0.23212997717E+01 -0.15023396531E+02  0.25472965055E+03  0.30829739822E+03  0.17300000000E+03 0. -1.
<mgrwt>
<rscale>  2 0.17366661E+03</rscale>
<asrwt>0</asrwt>
<pdfrwt beam="1">  1       21 0.53090699E-01 0.17366661E+03</pdfrwt>
<pdfrwt beam="2">  1       21 0.22366524E-01 0.17366661E+03</pdfrwt>
<totfact> 0.63414105E+04</totfact>
</mgrwt>
</event>
<event>
 4    2  0.4039581E+000  0.1988457E+03  0.7546771E-02  0.1150717E+00
         21   -1    0    0  503  502  0.00000000000E+00  0.00000000000E+00  0.45059236385E+03  0.45059236385E+03  0.00000000000E+00 0.  1.
         21   -1    0    0  501  503 -0.00000000000E+00 -0.00000000000E+00 -0.17925126606E+03  0.17925126606E+03  0.00000000000E+00 0. -1.
          6    1    1    2  501    0  0.78920578280E+02  0.58156411436E+02 -0.89330432711E+02  0.21798979810E+03  0.17300000000E+03 0. -1.
         -6    1    1    2    0  502 -0.78920578280E+02 -0.58156411436E+02  0.36067153050E+03  0.41185383181E+03  0.17300000000E+03 0.  1.
<mgrwt>
<rscale>  2 0.19884573E+03</rscale>
<asrwt>0</asrwt>
<pdfrwt beam="1">  1       21 0.69321902E-01 0.19884573E+03</pdfrwt>
<pdfrwt beam="2">  1       21 0.27577118E-01 0.19884573E+03</pdfrwt>
<totfact> 0.23666661E+04</totfact>
</mgrwt>
</event>
<event>
 4    2  0.4039581E+000  0.2429025E+03  0.7546771E-02  0.1117874E+00
         21   -1    0    0  503  502  0.00000000000E+00  0.00000000000E+00  0.93853522548E+03  0.93853522548E+03  0.00000000000E+00 0.  1.
         21   -1    0    0  501  503 -0.00000000000E+00 -0.00000000000E+00 -0.74795515250E+02  0.74795515250E+02  0.00000000000E+00 0.  1.
          6    1    1    2  501    0  0.10793447036E+03 -0.13199532377E+03  0.22952068051E+03  0.33418760924E+03  0.17300000000E+03 0. -1.
         -6    1    1    2    0  502 -0.10793447036E+03  0.13199532377E+03  0.63421902973E+03  0.67914313149E+03  0.17300000000E+03 0. -1.
<mgrwt>
<rscale>  2 0.24290248E+03</rscale>
<asrwt>0</asrwt>
<pdfrwt beam="1">  1       21 0.14439003E+00 0.24290248E+03</pdfrwt>
<pdfrwt beam="2">  1       21 0.11507003E-01 0.24290248E+03</pdfrwt>
<totfact> 0.20256058E+04</totfact>
</mgrwt>
</event>
<event>
 4    2  0.4039581E+000  0.1893759E+03  0.7546771E-02  0.1159025E+00
         21   -1    0    0  503  502  0.00000000000E+00  0.00000000000E+00  0.82292067212E+03  0.82292067212E+03  0.00000000000E+00 0.  1.
         21   -1    0    0  501  503 -0.00000000000E+00 -0.00000000000E+00 -0.58338280400E+02  0.58338280400E+02  0.00000000000E+00 0.  1.
          6    1    1    2  501    0 -0.59974264362E+02  0.48345755726E+02  0.16067142292E+03  0.24835162699E+03  0.17300000000E+03 0.  1.
         -6    1    1    2    0  502  0.59974264362E+02 -0.48345755726E+02  0.60391096879E+03  0.63290732553E+03  0.17300000000E+03 0.  1.
<mgrwt>
<rscale>  2 0.18937588E+03</rscale>
<asrwt>0</asrwt>
<pdfrwt beam="1">  1       21 0.12660317E+00 0.18937588E+03</pdfrwt>
<pdfrwt beam="2">  1       21 0.89751207E-02 0.18937588E+03</pdfrwt>
<totfact> 0.45432345E+04</totfact>
</mgrwt>
</event>
<event>
 4    2  0.4039581E+000  0.1744357E+03  0.7546771E-02  0.1173300E+00
         21   -1    0    0  503  502  0.00000000000E+00  0.00000000000E+00  0.95079686473E+03  0.95079686473E+03  0.00000000000E+00 0. -1.
         21   -1    0    0  501  503 -0.00000000000E+00 -0.00000000000E+00 -0.23861002226E+03  0.23861002226E+03  0.00000000000E+00 0. -1.
          6    1    1    2  501    0 -0.12236354409E+02 -0.18683608800E+02 -0.19729396515E+03  0.26334903510E+03  0.17300000000E+03 0. -1.
         -6    1    1    2    0  502  0.12236354409E+02  0.18683608800E+02  0.90948080762E+03  0.92605785188E+03  0.17300000000E+03 0. -1.
<mgrwt>
<rscale>  2 0.17443568E+03</rscale>
<asrwt>0</asrwt>
<pdfrwt beam="1">  1       21 0.14627644E+00 0.17443568E+03</pdfrwt>
<pdfrwt beam="2">  1       21 0.36709235E-01 0.17443568E+03</pdfrwt>
<totfact> 0.23257563E+03</totfact>
</mgrwt>
</event>
<event>
 4    2  0.4039581E+000  0.2290960E+03  0.7546771E-02  0.1127278E+00
         21   -1    0    0  501  502  0.00000000000E+00  0.00000000000E+00  0.15344761278E+04  0.15344761278E+04  0.00000000000E+00 0.  1.
         21   -1    0    0  502  503 -0.00000000000E+00 -0.00000000000E+00 -0.38761581584E+02  0.38761581584E+02  0.00000000000E+00 0.  1.
          6    1    1    2  501    0  0.11798832484E+03  0.92923373981E+02  0.10175925600E+04  0.10430626139E+04  0.17300000000E+03 0.  1.
         -6    1    1    2    0  503 -0.11798832484E+03 -0.92923373981E+02  0.47812198621E+03  0.53017509554E+03  0.17300000000E+03 0.  1.
<mgrwt>
<rscale>  2 0.22909605E+03</rscale>
<asrwt>0</asrwt>
<pdfrwt beam="1">  1       21 0.23607320E+00 0.22909605E+03</pdfrwt>
<pdfrwt beam="2">  1       21 0.59633214E-02 0.22909605E+03</pdfrwt>
<totfact> 0.15550544E+04</totfact>
</mgrwt>
</event>
<event>
 4    2  0.4039581E+000  0.1872861E+03  0.7546771E-02  0.1160932E+00
         21   -1    0    0  503  502  0.00000000000E+00  0.00000000000E+00  0.17999993257E+03  0.17999993257E+03  0.00000000000E+00 0.  1.
         21   -1    0    0  501  503 -0.00000000000E+00 -0.00000000000E+00 -0.21927217255E+03  0.21927217255E+03  0.00000000000E+00 0.  1.
          6    1    1    2  501    0 -0.15049514770E+02  0.70146822997E+02 -0.86238120607E+02  0.20618699793E+03  0.17300000000E+03 0.  1.
         -6    1    1    2    0  502  0.15049514770E+02 -0.70146822997E+02  0.46965880630E+02  0.19308510718E+03  0.17300000000E+03 0.  1.
<mgrwt>
<rscale>  2 0.18728605E+03</rscale>
<asrwt>0</asrwt>
<pdfrwt beam="1">  1       21 0.27692297E-01 0.18728605E+03</pdfrwt>
<pdfrwt beam="2">  1       21 0.33734180E-01 0.18728605E+03</pdfrwt>
<totfact> 0.10556708E+05</totfact>
</mgrwt>
</event>
<event>
 4    2  0.4039581E+000  0.3094850E+03  0.7546771E-02  0.1080593E+00
         21   -1    0    0  501  502  0.00000000000E+00  0.00000000000E+00  0.16339237804E+04  0.16339237804E+04  0.00000000000E+00 0.  1.
         21   -1    0    0  502  503 -0.00000000000E+00 -0.00000000000E+00 -0.64058791642E+02  0.64058791642E+02  0.00000000000E+00 0. -1.
          6    1    1    2  501    0  0.19118148180E+03  0.17117709808E+03  0.10323079576E+04  0.10777015715E+04  0.17300000000E+03 0.  1.
         -6    1    1    2    0  503 -0.19118148180E+03 -0.17117709808E+03  0.53755703117E+03  0.62028100056E+03  0.17300000000E+03 0. -1.
<mgrwt>
<rscale>  2 0.30948499E+03</rscale>
<asrwt>0</asrwt>
<pdfrwt beam="1">  1       21 0.25137286E+00 0.30948499E+03</pdfrwt>
<pdfrwt beam="2">  1       21 0.98552000E-02 0.30948499E+03</pdfrwt>
<totfact> 0.49389701E+03</totfact>
</mgrwt>
</event>
<event>
 4    2  0.4039581E+000  0.2789638E+03  0.7546771E-02  0.1096256E+00
         21   -1    0    0  501  502  0.00000000000E+00  0.00000000000E+00  0.26487696203E+03  0.26487696203E+03  0.00000000000E+00 0. -1.
         21   -1    0    0  502  503 -0.00000000000E+00 -0.00000000000E+00 -0.37076690845E+03  0.37076690845E+03  0.00000000000E+00 0.  1.
          6    1    1    2  501    0  0.10692321518E+03  0.19094306124E+03 -0.19775067776E+03  0.34194466970E+03  0.17300000000E+03 0.  1.
         -6    1    1    2    0  503 -0.10692321518E+03 -0.19094306124E+03  0.91860731341E+02  0.29369920079E+03  0.17300000000E+03 0. -1.
<mgrwt>
<rscale>  2 0.27896384E+03</rscale>
<asrwt>0</asrwt>
<pdfrwt beam="1">  1       21 0.40750302E-01 0.27896384E+03</pdfrwt>
<pdfrwt beam="2">  1       21 0.57041063E-01 0.27896384E+03</pdfrwt>
<totfact> 0.15990070E+04</totfact>
</mgrwt>
</event>
<event>
 4    2  0.4039581E+000  0.1986615E+03  0.7546771E-02  0.1150873E+00
         21   -1    0    0  503  502  0.00000000000E+00  0.00000000000E+00  0.37346183654E+03  0.37346183654E+03  0.00000000000E+00 0.  1.
         21   -1    0    0  501  503 -0.00000000000E+00 -0.00000000000E+00 -0.17151384125E+03  0.17151384125E+03  0.00000000000E+00 0.  1.
          6    1    1    2  501    0 -0.72722669099E+02  0.65182877278E+02 -0.67848932500E+02  0.20992825377E+03  0.17300000000E+03 0.  1.
         -6    1    1    2    0  502  0.72722669099E+02 -0.65182877278E+02  0.26979692779E+03  0.33504742401E+03  0.17300000000E+03 0.  1.
<mgrwt>
<rscale>  2 0.19866151E+03</rscale>
<asrwt>0</asrwt>
<pdfrwt beam="1">  1       21 0.57455667E-01 0.19866151E+03</pdfrwt>
<pdfrwt beam="2">  1       21 0.26386745E-01 0.19866151E+03</pdfrwt>
<totfact> 0.38711330E+04</totfact>
</mgrwt>
</event>
<event>
 4    2  0.4039581E+000  0.1819107E+03  0.7546771E-02  0.1165967E+00
         21   -1    0    0  501  502  0.00000000000E+00  0.00000000000E+00  0.15174809754E+03  0.15174809754E+03  0.00000000000E+00 0. -1.
         21   -1    0    0  502  503 -0.00000000000E+00 -0.00000000000E+00 -0.32269584012E+03  0.32269584012E+03  0.00000000000E+00 0. -1.
          6    1    1    2  501    0 -0.55953989746E+02 -0.56258471180E+01  0.49602863365E+02  0.18855222931E+03  0.17300000000E+03 0. -1.
         -6    1    1    2    0  503  0.55953989746E+02  0.56258471180E+01 -0.22055060594E+03  0.28589170836E+03  0.17300000000E+03 0. -1.
<mgrwt>
<rscale>  2 0.18191069E+03</rscale>
<asrwt>0</asrwt>
<pdfrwt beam="1">  1       21 0.23345861E-01 0.18191069E+03</pdfrwt>
<pdfrwt beam="2">  1       21 0.49645514E-01 0.18191069E+03</pdfrwt>
<totfact> 0.67035097E+04</totfact>
</mgrwt>
</event>
<event>
 4    2  0.4039581E+000  0.1823100E+03  0.7546771E-02  0.1165586E+00
         21   -1    0    0  503  502  0.00000000000E+00  0.00000000000E+00  0.25897233993E+03  0.25897233993E+03  0.00000000000E+00 0. -1.
         21   -1    0    0  501  503 -0.00000000000E+00 -0.00000000000E+00 -0.26451702194E+03  0.26451702194E+03  0.00000000000E+00 0. -1.
          6    1    1    2  501    0 -0.56388249075E+02 -0.11327575862E+02 -0.19057436512E+03  0.26373383789E+03  0.17300000000E+03 0. -1.
         -6    1    1    2    0  502  0.56388249075E+02  0.11327575862E+02  0.18502968310E+03  0.25975552398E+03  0.17300000000E+03 0. -1.
<mgrwt>
<rscale>  2 0.18231003E+03</rscale>
<asrwt>0</asrwt>
<pdfrwt beam="1">  1       21 0.39841898E-01 0.18231003E+03</pdfrwt>
<pdfrwt beam="2">  1       21 0.40694926E-01 0.18231003E+03</pdfrwt>
<totfact> 0.35510243E+04</totfact>
</mgrwt>
</event>
<event>
 4    2  0.4039581E+000  0.1746982E+03  0.7546771E-02  0.1173035E+00
         21   -1    0    0  501  502  0.00000000000E+00  0.00000000000E+00  0.14198102778E+03  0.14198102778E+03  0.00000000000E+00 0. -1.
         21   -1    0    0  502  503 -0.00000000000E+00 -0.00000000000E+00 -0.31601055277E+03  0.31601055277E+03  0.00000000000E+00 0. -1.
          6    1    1    2  501    0 -0.23841453674E+02 -0.46957898008E+01  0.42481669589E+02  0.17978920325E+03  0.17300000000E+03 0. -1.
         -6    1    1    2    0  503  0.23841453674E+02  0.46957898008E+01 -0.21651119458E+03  0.27820237730E+03  0.17300000000E+03 0. -1.
<mgrwt>
<rscale>  2 0.17469821E+03</rscale>
<asrwt>0</asrwt>
<pdfrwt beam="1">  1       21 0.21843235E-01 0.17469821E+03</pdfrwt>
<pdfrwt beam="2">  1       21 0.48617007E-01 0.17469821E+03</pdfrwt>
<totfact> 0.79620170E+04</totfact>
</mgrwt>
</event>
<event>
 4    2  0.4039581E+000  0.2433095E+03  0.7546771E-02  0.1117608E+00
         21   -1    0    0  501  502  0.00000000000E+00  0.00000000000E+00  0.22439399981E+03  0.22439399981E+03  0.00000000000E+00 0.  1.
         21   -1    0    0  502  503 -0.00000000000E+00 -0.00000000000E+00 -0.38010232480E+03  0.38010232480E+03  0.00000000000E+00 0. -1.
          6    1    1    2  501    0  0.15496287177E+03 -0.72505409451E+02  0.89320741670E+02  0.25918665266E+03  0.17300000000E+03 0.  1.
         -6    1    1    2    0  503 -0.15496287177E+03  0.72505409451E+02 -0.24502906666E+03  0.34530967194E+03  0.17300000000E+03 0. -1.
<mgrwt>
<rscale>  2 0.24330953E+03</rscale>
<asrwt>0</asrwt>
<pdfrwt beam="1">  1       21 0.34522154E-01 0.24330953E+03</pdfrwt>
<pdfrwt beam="2">  1       21 0.58477280E-01 0.24330953E+03</pdfrwt>
<totfact> 0.21537461E+04</totfact>
</mgrwt>
</event>
<event>
 4    2  0.4039581E+000  0.2020911E+03  0.7546771E-02  0.1147987E+00
         21   -1    0    0  501  502  0.00000000000E+00  0.00000000000E+00  0.24649133764E+03  0.24649133764E+03  0.00000000000E+00 0. -1.
         21   -1    0    0  502  503 -0.00000000000E+00 -0.00000000000E+00 -0.16618669510E+03  0.16618669510E+03  0.00000000000E+00 0. -1.
          6    1    1    2  501    0 -0.71496885764E+02  0.76157907469E+02  0.28857176881E+02  0.20414104977E+03  0.17300000000E+03 0. -1.
         -6    1    1    2    0  503  0.71496885764E+02 -0.76157907469E+02  0.51447465655E+02  0.20853698297E+03  0.17300000000E+03 0. -1.
<mgrwt>
<rscale>  2 0.20209115E+03</rscale>
<asrwt>0</asrwt>
<pdfrwt beam="1">  1       21 0.37921744E-01 0.20209115E+03</pdfrwt>
<pdfrwt beam="2">  1       21 0.25567184E-01 0.20209115E+03</pdfrwt>
<totfact> 0.96941760E+04</totfact>
</mgrwt>
</event>
<event>
 4    2  0.4039581E+000  0.3032977E+03  0.7546771E-02  0.1083604E+00
         21   -1    0    0  501  502  0.00000000000E+00  0.00000000000E+00  0.68442802950E+03  0.68442802950E+03  0.00000000000E+00 0. -1.
         21   -1    0    0  502  503 -0.00000000000E+00 -0.00000000000E+00 -0.14607666194E+03  0.14607666194E+03  0.00000000000E+00 0. -1.
          6    1    1    2  501    0  0.24195629921E+03  0.59309906481E+02  0.15178973355E+03  0.33916019658E+03  0.17300000000E+03 0. -1.
         -6    1    1    2    0  503 -0.24195629921E+03 -0.59309906481E+02  0.38656163401E+03  0.49134449485E+03  0.17300000000E+03 0. -1.
<mgrwt>
<rscale>  2 0.30329773E+03</rscale>
<asrwt>0</asrwt>
<pdfrwt beam="1">  1       21 0.10529662E+00 0.30329773E+03</pdfrwt>
<pdfrwt beam="2">  1       21 0.22473333E-01 0.30329773E+03</pdfrwt>
<totfact> 0.12657335E+04</totfact>
</mgrwt>
</event>
<event>
 4    2  0.4039581E+000  0.1781410E+03  0.7546771E-02  0.1169614E+00
         21   -1    0    0  501  502  0.00000000000E+00  0.00000000000E+00  0.74872767225E+02  0.74872767225E+02  0.00000000000E+00 0. -1.
         21   -1    0    0  502  503 -0.00000000000E+00 -0.00000000000E+00 -0.69683106364E+03  0.69683106364E+03  0.00000000000E+00 0.  1.
          6    1    1    2  501    0  0.41306467049E+02 -0.99492146346E+01 -0.69472180839E+02  0.19120825035E+03  0.17300000000E+03 0. -1.
         -6    1    1    2    0  503 -0.41306467049E+02  0.99492146346E+01 -0.55248611557E+03  0.58049558051E+03  0.17300000000E+03 0.  1.
<mgrwt>
<rscale>  2 0.17814099E+03</rscale>
<asrwt>0</asrwt>
<pdfrwt beam="1">  1       21 0.11518887E-01 0.17814099E+03</pdfrwt>
<pdfrwt beam="2">  1       21 0.10720478E+00 0.17814099E+03</pdfrwt>
<totfact> 0.44211287E+04</totfact>
</mgrwt>
</event>
<event>
 4    2  0.4039581E+000  0.1758589E+03  0.7546771E-02  0.1171872E+00
         21   -1    0    0  503  502  0.00000000000E+00  0.00000000000E+00  0.52467473342E+02  0.52467473342E+02  0.00000000000E+00 0.  1.
         21   -1    0    0  501  503 -0.00000000000E+00 -0.00000000000E+00 -0.68502658126E+03  0.68502658126E+03  0.00000000000E+00 0.  1.
          6    1    1    2  501    0  0.16391302138E+01 -0.31538071326E+02 -0.45402498794E+03  0.48689323918E+03  0.17300000000E+03 0. -1.
         -6    1    1    2    0  502 -0.16391302138E+01  0.31538071326E+02 -0.17853411998E+03  0.25060081542E+03  0.17300000000E+03 0. -1.
<mgrwt>
<rscale>  2 0.17585885E+03</rscale>
<asrwt>0</asrwt>
<pdfrwt beam="1">  1       21 0.80719190E-02 0.17585885E+03</pdfrwt>
<pdfrwt beam="2">  1       21 0.10538870E+00 0.17585885E+03</pdfrwt>
<totfact> 0.86189667E+04</totfact>
</mgrwt>
</event>
<event>
 4    2  0.4039581E+000  0.1910020E+03  0.7546771E-02  0.1157561E+00
         21   -1    0    0  503  502  0.00000000000E+00  0.00000000000E+00  0.25035360801E+03  0.25035360801E+03  0.00000000000E+00 0.  1.
         21   -1    0    0  501  503 -0.00000000000E+00 -0.00000000000E+00 -0.15199854557E+03  0.15199854557E+03  0.00000000000E+00 0.  1.
          6    1    1    2  501    0 -0.23856344528E+02  0.77353924948E+02  0.82934007372E+01  0.19118194312E+03  0.17300000000E+03 0. -1.
         -6    1    1    2    0  502  0.23856344528E+02 -0.77353924948E+02  0.90061661700E+02  0.21117021046E+03  0.17300000000E+03 0. -1.
<mgrwt>
<rscale>  2 0.19100198E+03</rscale>
<asrwt>0</asrwt>
<pdfrwt beam="1">  1       21 0.38515940E-01 0.19100198E+03</pdfrwt>
<pdfrwt beam="2">  1       21 0.23384392E-01 0.19100198E+03</pdfrwt>
<totfact> 0.11187347E+05</totfact>
</mgrwt>
</event>
<event>
 4    2  0.4039581E+000  0.1778777E+03  0.7546771E-02  0.1169873E+00
         21   -1    0    0  503  502  0.00000000000E+00  0.00000000000E+00  0.64702874246E+03  0.64702874246E+03  0.00000000000E+00 0.  1.
         21   -1    0    0  501  503 -0.00000000000E+00 -0.00000000000E+00 -0.19041616461E+03  0.19041616461E+03  0.00000000000E+00 0.  1.
          6    1    1    2  501    0  0.40149741738E+02  0.99731382326E+01 -0.13266741570E+03  0.22190337635E+03  0.17300000000E+03 0.  1.
         -6    1    1    2    0  502 -0.40149741738E+02 -0.99731382326E+01  0.58927999354E+03  0.61554153072E+03  0.17300000000E+03 0.  1.
<mgrwt>
<rscale>  2 0.17787767E+03</rscale>
<asrwt>0</asrwt>
<pdfrwt beam="1">  1       21 0.99542882E-01 0.17787767E+03</pdfrwt>
<pdfrwt beam="2">  1       21 0.29294795E-01 0.17787767E+03</pdfrwt>
<totfact> 0.93624900E+03</totfact>
</mgrwt>
</event>
<event>
 4    2  0.4039581E+000  0.1923815E+03  0.7546771E-02  0.1156331E+00
         21   -1    0    0  501  502  0.00000000000E+00  0.00000000000E+00  0.81709277769E+02  0.81709277769E+02  0.00000000000E+00 0.  1.
         21   -1    0    0  502  503 -0.00000000000E+00 -0.00000000000E+00 -0.45848476944E+03  0.45848476944E+03  0.00000000000E+00 0.  1.
          6    1    1    2  501    0  0.69082830398E+02  0.48054236798E+02 -0.15872573043E+03  0.24940830906E+03  0.17300000000E+03 0.  1.
         -6    1    1    2    0  503 -0.69082830398E+02 -0.48054236798E+02 -0.21804976124E+03  0.29078573814E+03  0.17300000000E+03 0.  1.
<mgrwt>
<rscale>  2 0.19238151E+03</rscale>
<asrwt>0</asrwt>
<pdfrwt beam="1">  1       21 0.12570658E-01 0.19238151E+03</pdfrwt>
<pdfrwt beam="2">  1       21 0.70536118E-01 0.19238151E+03</pdfrwt>
<totfact> 0.98392090E+04</totfact>
</mgrwt>
</event>
<event>
 4    2  0.4039581E+000  0.2280652E+03  0.7546771E-02  0.1128009E+00
         21   -1    0    0  503  502  0.00000000000E+00  0.00000000000E+00  0.85524438761E+02  0.85524438761E+02  0.00000000000E+00 0. -1.
         21   -1    0    0  501  503 -0.00000000000E+00 -0.00000000000E+00 -0.65046881378E+03  0.65046881378E+03  0.00000000000E+00 0. -1.
          6    1    1    2  501    0 -0.58135004979E+01  0.14849565066E+03 -0.18863537362E+03  0.29596800374E+03  0.17300000000E+03 0. -1.
         -6    1    1    2    0  502  0.58135004979E+01 -0.14849565066E+03 -0.37630900140E+03  0.44002524881E+03  0.17300000000E+03 0. -1.
<mgrwt>
<rscale>  2 0.22806524E+03</rscale>
<asrwt>0</asrwt>
<pdfrwt beam="1">  1       21 0.13157606E-01 0.22806524E+03</pdfrwt>
<pdfrwt beam="2">  1       21 0.10007212E+00 0.22806524E+03</pdfrwt>
<totfact> 0.40027828E+04</totfact>
</mgrwt>
</event>
<event>
 4    2  0.4039581E+000  0.2413973E+03  0.7546771E-02  0.1118865E+00
         21   -1    0    0  503  502  0.00000000000E+00  0.00000000000E+00  0.52322663044E+02  0.52322663044E+02  0.00000000000E+00 0.  1.
         21   -1    0    0  501  503 -0.00000000000E+00 -0.00000000000E+00 -0.12231633505E+04  0.12231633505E+04  0.00000000000E+00 0. -1.
          6    1    1    2  501    0 -0.11733136553E+03  0.12073528581E+03 -0.39465328358E+03  0.46262714233E+03  0.17300000000E+03 0.  1.
         -6    1    1    2    0  502  0.11733136553E+03 -0.12073528581E+03 -0.77618740384E+03  0.81285887118E+03  0.17300000000E+03 0. -1.
<mgrwt>
<rscale>  2 0.24139730E+03</rscale>
<asrwt>0</asrwt>
<pdfrwt beam="1">  1       21 0.80496413E-02 0.24139730E+03</pdfrwt>
<pdfrwt beam="2">  1       21 0.18817896E+00 0.24139730E+03</pdfrwt>
<totfact> 0.18408173E+04</totfact>
</mgrwt>
</event>
<event>
 4    2  0.4039581E+000  0.1844376E+03  0.7546771E-02  0.1163576E+00
         21   -1    0    0  501  502  0.00000000000E+00  0.00000000000E+00  0.10835226754E+03  0.10835226754E+03  0.00000000000E+00 0.  1.
         21   -1    0    0  502  503 -0.00000000000E+00 -0.00000000000E+00 -0.54286196022E+03  0.54286196022E+03  0.00000000000E+00 0.  1.
          6    1    1    2  501    0 -0.61313956185E+02  0.18133406224E+02 -0.58167776901E+01  0.18452928371E+03  0.17300000000E+03 0.  1.
         -6    1    1    2    0  503  0.61313956185E+02 -0.18133406224E+02 -0.42869291499E+03  0.46668494405E+03  0.17300000000E+03 0.  1.
<mgrwt>
<rscale>  2 0.18443758E+03</rscale>
<asrwt>0</asrwt>
<pdfrwt beam="1">  1       21 0.16669580E-01 0.18443758E+03</pdfrwt>
<pdfrwt beam="2">  1       21 0.83517224E-01 0.18443758E+03</pdfrwt>
<totfact> 0.40514165E+04</totfact>
</mgrwt>
</event>
<event>
 4    2  0.4039581E+000  0.2232833E+03  0.7546771E-02  0.1131459E+00
         21   -1    0    0  501  502  0.00000000000E+00  0.00000000000E+00  0.78063089046E+02  0.78063089046E+02  0.00000000000E+00 0. -1.
         21   -1    0    0  502  503 -0.00000000000E+00 -0.00000000000E+00 -0.72864603696E+03  0.72864603696E+03  0.00000000000E+00 0. -1.
          6    1    1    2  501    0 -0.48643546835E+02 -0.13251504272E+03 -0.46704268644E+03  0.51767200248E+03  0.17300000000E+03 0. -1.
         -6    1    1    2    0  503  0.48643546835E+02  0.13251504272E+03 -0.18354026148E+03  0.28903712353E+03  0.17300000000E+03 0. -1.
<mgrwt>
<rscale>  2 0.22328330E+03</rscale>
<asrwt>0</asrwt>
<pdfrwt beam="1">  1       21 0.12009705E-01 0.22328330E+03</pdfrwt>
<pdfrwt beam="2">  1       21 0.11209940E+00 0.22328330E+03</pdfrwt>
<totfact> 0.35954026E+04</totfact>
</mgrwt>
</event>
<event>
 4    2  0.4039581E+000  0.3023846E+03  0.7546771E-02  0.1084055E+00
         21   -1    0    0  501  502  0.00000000000E+00  0.00000000000E+00  0.35863254305E+03  0.35863254305E+03  0.00000000000E+00 0. -1.
         21   -1    0    0  502  503 -0.00000000000E+00 -0.00000000000E+00 -0.88219400233E+03  0.88219400233E+03  0.00000000000E+00 0.  1.
          6    1    1    2  501    0  0.24606416723E+03 -0.30981489467E+02  0.26135494151E+03  0.39967841139E+03  0.17300000000E+03 0. -1.
         -6    1    1    2    0  503 -0.24606416723E+03  0.30981489467E+02 -0.78491640079E+03  0.84114813399E+03  0.17300000000E+03 0.  1.
<mgrwt>
<rscale>  2 0.30238457E+03</rscale>
<asrwt>0</asrwt>
<pdfrwt beam="1">  1       21 0.55174238E-01 0.30238457E+03</pdfrwt>
<pdfrwt beam="2">  1       21 0.13572215E+00 0.30238457E+03</pdfrwt>
<totfact> 0.10981932E+03</totfact>
</mgrwt>
</event>
<event>
 4    2  0.4039581E+000  0.1877381E+03  0.7546771E-02  0.1160517E+00
         21   -1    0    0  501  502  0.00000000000E+00  0.00000000000E+00  0.99681513497E+02  0.99681513497E+02  0.00000000000E+00 0. -1.
         21   -1    0    0  502  503 -0.00000000000E+00 -0.00000000000E+00 -0.35875848518E+03  0.35875848518E+03  0.00000000000E+00 0. -1.
          6    1    1    2  501    0 -0.55016807023E+02  0.47851437387E+02 -0.10200505069E+03  0.21366010269E+03  0.17300000000E+03 0. -1.
         -6    1    1    2    0  503  0.55016807023E+02 -0.47851437387E+02 -0.15707192099E+03  0.24477989599E+03  0.17300000000E+03 0. -1.
<mgrwt>
<rscale>  2 0.18773814E+03</rscale>
<asrwt>0</asrwt>
<pdfrwt beam="1">  1       21 0.15335617E-01 0.18773814E+03</pdfrwt>
<pdfrwt beam="2">  1       21 0.55193614E-01 0.18773814E+03</pdfrwt>
<totfact> 0.11686009E+05</totfact>
</mgrwt>
</event>
<event>
 4    2  0.4039581E+000  0.2361396E+03  0.7546771E-02  0.1122392E+00
         21   -1    0    0  503  502  0.00000000000E+00  0.00000000000E+00  0.17977785707E+03  0.17977785707E+03  0.00000000000E+00 0. -1.
         21   -1    0    0  501  503 -0.00000000000E+00 -0.00000000000E+00 -0.33860968986E+03  0.33860968986E+03  0.00000000000E+00 0.  1.
          6    1    1    2  501    0 -0.12852974710E+03  0.96503935840E+02 -0.43006028213E+01  0.23617874736E+03  0.17300000000E+03 0. -1.
         -6    1    1    2    0  502  0.12852974710E+03 -0.96503935840E+02 -0.15453122997E+03  0.28220879957E+03  0.17300000000E+03 0.  1.
<mgrwt>
<rscale>  2 0.23613959E+03</rscale>
<asrwt>0</asrwt>
<pdfrwt beam="1">  1       21 0.27658132E-01 0.23613959E+03</pdfrwt>
<pdfrwt beam="2">  1       21 0.52093798E-01 0.23613959E+03</pdfrwt>
<totfact> 0.42736154E+04</totfact>
</mgrwt>
</event>
<event>
 4    2  0.4039581E+000  0.1768964E+03  0.7546771E-02  0.1170841E+00
         21   -1    0    0  503  502  0.00000000000E+00  0.00000000000E+00  0.29977672492E+03  0.29977672492E+03  0.00000000000E+00 0.  1.
         21   -1    0    0  501  503 -0.00000000000E+00 -0.00000000000E+00 -0.34679635088E+03  0.34679635088E+03  0.00000000000E+00 0.  1.
          6    1    1    2  501    0 -0.24446762770E+02  0.27670892982E+02 -0.29379761771E+03  0.34294221481E+03  0.17300000000E+03 0.  1.
         -6    1    1    2    0  502  0.24446762770E+02 -0.27670892982E+02  0.24677799175E+03  0.30363086099E+03  0.17300000000E+03 0.  1.
<mgrwt>
<rscale>  2 0.17689636E+03</rscale>
<asrwt>0</asrwt>
<pdfrwt beam="1">  1       21 0.46119496E-01 0.17689636E+03</pdfrwt>
<pdfrwt beam="2">  1       21 0.53353285E-01 0.17689636E+03</pdfrwt>
<totfact> 0.15134924E+04</totfact>
</mgrwt>
</event>
<event>
 4    2  0.4039581E+000  0.2140307E+03  0.7546771E-02  0.1138413E+00
         21   -1    0    0  501  502  0.00000000000E+00  0.00000000000E+00  0.36627958411E+03  0.36627958411E+03  0.00000000000E+00 0.  1.
         21   -1    0    0  502  503 -0.00000000000E+00 -0.00000000000E+00 -0.12905901775E+03  0.12905901775E+03  0.00000000000E+00 0. -1.
          6    1    1    2  501    0 -0.11524715716E+03 -0.50973072464E+02  0.16217379149E+03  0.26853212098E+03  0.17300000000E+03 0. -1.
         -6    1    1    2    0  503  0.11524715716E+03  0.50973072464E+02  0.75046774883E+02  0.22680648088E+03  0.17300000000E+03 0.  1.
<mgrwt>
<rscale>  2 0.21403075E+03</rscale>
<asrwt>0</asrwt>
<pdfrwt beam="1">  1       21 0.56350705E-01 0.21403075E+03</pdfrwt>
<pdfrwt beam="2">  1       21 0.19855234E-01 0.21403075E+03</pdfrwt>
<totfact> 0.68669438E+04</totfact>
</mgrwt>
</event>
<event>
 4    2  0.4039581E+000  0.1937075E+03  0.7546771E-02  0.1155159E+00
         21   -1    0    0  501  502  0.00000000000E+00  0.00000000000E+00  0.72253011452E+03  0.72253011452E+03  0.00000000000E+00 0.  1.
         21   -1    0    0  502  503 -0.00000000000E+00 -0.00000000000E+00 -0.90390724805E+02  0.90390724805E+02  0.00000000000E+00 0.  1.
          6    1    1    2  501    0  0.83057123672E+02 -0.26365181327E+02  0.58119574506E+03  0.61262639729E+03  0.17300000000E+03 0.  1.
         -6    1    1    2    0  503 -0.83057123672E+02  0.26365181327E+02  0.50943644652E+02  0.20029444203E+03  0.17300000000E+03 0.  1.
<mgrwt>
<rscale>  2 0.19370753E+03</rscale>
<asrwt>0</asrwt>
<pdfrwt beam="1">  1       21 0.11115848E+00 0.19370753E+03</pdfrwt>
<pdfrwt beam="2">  1       21 0.13906266E-01 0.19370753E+03</pdfrwt>
<totfact> 0.28642333E+04</totfact>
</mgrwt>
</event>
<event>
 4    2  0.4039581E+000  0.2361899E+03  0.7546771E-02  0.1122357E+00
         21   -1    0    0  503  502  0.00000000000E+00  0.00000000000E+00  0.32927104707E+03  0.32927104707E+03  0.00000000000E+00 0. -1.
         21   -1    0    0  501  503 -0.00000000000E+00 -0.00000000000E+00 -0.42700096175E+03  0.42700096175E+03  0.00000000000E+00 0.  1.
          6    1    1    2  501    0  0.14768740108E+03  0.63600956245E+02 -0.34255490252E+03  0.41608834556E+03  0.17300000000E+03 0.  1.
         -6    1    1    2    0  502 -0.14768740108E+03 -0.63600956245E+02  0.24482498784E+03  0.34018366325E+03  0.17300000000E+03 0. -1.
<mgrwt>
<rscale>  2 0.23618986E+03</rscale>
<asrwt>0</asrwt>
<pdfrwt beam="1">  1       21 0.50657084E-01 0.23618986E+03</pdfrwt>
<pdfrwt beam="2">  1       21 0.65692456E-01 0.23618986E+03</pdfrwt>
<totfact> 0.76684407E+03</totfact>
</mgrwt>
</event>
<event>
 4    2  0.4039581E+000  0.2752069E+03  0.7546771E-02  0.1098336E+00
         21   -1    0    0  503  502  0.00000000000E+00  0.00000000000E+00  0.51084735348E+03  0.51084735348E+03  0.00000000000E+00 0. -1.
         21   -1    0    0  501  503 -0.00000000000E+00 -0.00000000000E+00 -0.22335455852E+03  0.22335455852E+03  0.00000000000E+00 0.  1.
          6    1    1    2  501    0 -0.14800306046E+03  0.15461216557E+03 -0.69111098381E+02  0.28375195430E+03  0.17300000000E+03 0.  1.
         -6    1    1    2    0  502  0.14800306046E+03 -0.15461216557E+03  0.35660389334E+03  0.45044995770E+03  0.17300000000E+03 0. -1.
<mgrwt>
<rscale>  2 0.27520688E+03</rscale>
<asrwt>0</asrwt>
<pdfrwt beam="1">  1       21 0.78591900E-01 0.27520688E+03</pdfrwt>
<pdfrwt beam="2">  1       21 0.34362240E-01 0.27520688E+03</pdfrwt>
<totfact> 0.11134107E+04</totfact>
</mgrwt>
</event>
<event>
 4    2  0.4039581E+000  0.1819366E+03  0.7546771E-02  0.1165942E+00
         21   -1    0    0  501  502  0.00000000000E+00  0.00000000000E+00  0.25422162450E+03  0.25422162450E+03  0.00000000000E+00 0. -1.
         21   -1    0    0  502  503 -0.00000000000E+00 -0.00000000000E+00 -0.13581606532E+03  0.13581606532E+03  0.00000000000E+00 0. -1.
          6    1    1    2  501    0 -0.45223844864E+02  0.33566961623E+02  0.19563835174E+02  0.18298546583E+03  0.17300000000E+03 0. -1.
         -6    1    1    2    0  503  0.45223844864E+02 -0.33566961623E+02  0.98841724006E+02  0.20705222400E+03  0.17300000000E+03 0. -1.
<mgrwt>
<rscale>  2 0.18193663E+03</rscale>
<asrwt>0</asrwt>
<pdfrwt beam="1">  1       21 0.39111019E-01 0.18193663E+03</pdfrwt>
<pdfrwt beam="2">  1       21 0.20894779E-01 0.18193663E+03</pdfrwt>
<totfact> 0.13452912E+05</totfact>
</mgrwt>
</event>
<event>
 4    2  0.4039581E+000  0.1833073E+03  0.7546771E-02  0.1164640E+00
         21   -1    0    0  501  502  0.00000000000E+00  0.00000000000E+00  0.53440775356E+03  0.53440775356E+03  0.00000000000E+00 0.  1.
         21   -1    0    0  502  503 -0.00000000000E+00 -0.00000000000E+00 -0.73042551446E+02  0.73042551446E+02  0.00000000000E+00 0.  1.
          6    1    1    2  501    0  0.57593438210E+02 -0.18855965391E+02  0.11737098305E+03  0.21766372968E+03  0.17300000000E+03 0.  1.
         -6    1    1    2    0  503 -0.57593438210E+02  0.18855965391E+02  0.34399421907E+03  0.38978657533E+03  0.17300000000E+03 0.  1.
<mgrwt>
<rscale>  2 0.18330726E+03</rscale>
<asrwt>0</asrwt>
<pdfrwt beam="1">  1       21 0.82216575E-01 0.18330726E+03</pdfrwt>
<pdfrwt beam="2">  1       21 0.11237316E-01 0.18330726E+03</pdfrwt>
<totfact> 0.85625470E+04</totfact>
</mgrwt>
</event>
<event>
 4    2  0.4039581E+000  0.2232333E+03  0.7546771E-02  0.1131495E+00
         21   -1    0    0  501  502  0.00000000000E+00  0.00000000000E+00  0.50902157394E+02  0.50902157394E+02  0.00000000000E+00 0.  1.
         21   -1    0    0  502  503 -0.00000000000E+00 -0.00000000000E+00 -0.98581313631E+03  0.98581313631E+03  0.00000000000E+00 0.  1.
          6    1    1    2  501    0 -0.12994995927E+02 -0.14048220550E+03 -0.42435686471E+03  0.47949126020E+03  0.17300000000E+03 0.  1.
         -6    1    1    2    0  503  0.12994995927E+02  0.14048220550E+03 -0.51055411421E+03  0.55722403351E+03  0.17300000000E+03 0.  1.
<mgrwt>
<rscale>  2 0.22323333E+03</rscale>
<asrwt>0</asrwt>
<pdfrwt beam="1">  1       21 0.78311006E-02 0.22323333E+03</pdfrwt>
<pdfrwt beam="2">  1       21 0.15166357E+00 0.22323333E+03</pdfrwt>
<totfact> 0.35514142E+04</totfact>
</mgrwt>
</event>
<event>
 4    2  0.4039581E+000  0.1925726E+03  0.7546771E-02  0.1156161E+00
         21   -1    0    0  501  502  0.00000000000E+00  0.00000000000E+00  0.74440422073E+02  0.74440422073E+02  0.00000000000E+00 0.  1.
         21   -1    0    0  502  503 -0.00000000000E+00 -0.00000000000E+00 -0.52522432101E+03  0.52522432101E+03  0.00000000000E+00 0.  1.
          6    1    1    2  501    0  0.76998188470E+02  0.35021296209E+02 -0.15734636767E+03  0.24868070217E+03  0.17300000000E+03 0.  1.
         -6    1    1    2    0  503 -0.76998188470E+02 -0.35021296209E+02 -0.29343753127E+03  0.35098404091E+03  0.17300000000E+03 0.  1.
<mgrwt>
<rscale>  2 0.19257262E+03</rscale>
<asrwt>0</asrwt>
<pdfrwt beam="1">  1       21 0.11452372E-01 0.19257262E+03</pdfrwt>
<pdfrwt beam="2">  1       21 0.80803745E-01 0.19257262E+03</pdfrwt>
<totfact> 0.85776510E+04</totfact>
</mgrwt>
</event>
<event>
 4    2  0.4039581E+000  0.2953358E+03  0.7546771E-02  0.1087596E+00
         21   -1    0    0  503  502  0.00000000000E+00  0.00000000000E+00  0.11416479382E+04  0.11416479382E+04  0.00000000000E+00 0. -1.
         21   -1    0    0  501  503 -0.00000000000E+00 -0.00000000000E+00 -0.14038693333E+03  0.14038693333E+03  0.00000000000E+00 0.  1.
          6    1    1    2  501    0  0.23434233116E+03  0.48763865282E+02  0.67869455130E+02  0.30303383585E+03  0.17300000000E+03 0.  1.
         -6    1    1    2    0  502 -0.23434233116E+03 -0.48763865282E+02  0.93339154975E+03  0.97900103568E+03  0.17300000000E+03 0. -1.
<mgrwt>
<rscale>  2 0.29533581E+03</rscale>
<asrwt>0</asrwt>
<pdfrwt beam="1">  1       21 0.17563814E+00 0.29533581E+03</pdfrwt>
<pdfrwt beam="2">  1       21 0.21597991E-01 0.29533581E+03</pdfrwt>
<totfact> 0.36066834E+03</totfact>
</mgrwt>
</event>
<event>
 4    2  0.4039581E+000  0.1959440E+03  0.7546771E-02  0.1153207E+00
         21   -1    0    0  501  502  0.00000000000E+00  0.00000000000E+00  0.16373842146E+03  0.16373842146E+03  0.00000000000E+00 0.  1.
         21   -1    0    0  502  503 -0.00000000000E+00 -0.00000000000E+00 -0.30662203767E+03  0.30662203767E+03  0.00000000000E+00 0.  1.
          6    1    1    2  501    0 -0.32430997148E+02  0.86100526593E+02 -0.18551424872E+03  0.26983255314E+03  0.17300000000E+03 0.  1.
         -6    1    1    2    0  503  0.32430997148E+02 -0.86100526593E+02  0.42630632505E+02  0.20052790600E+03  0.17300000000E+03 0.  1.
<mgrwt>
<rscale>  2 0.19594405E+03</rscale>
<asrwt>0</asrwt>
<pdfrwt beam="1">  1       21 0.25190526E-01 0.19594405E+03</pdfrwt>
<pdfrwt beam="2">  1       21 0.47172621E-01 0.19594405E+03</pdfrwt>
<totfact> 0.64097745E+04</totfact>
</mgrwt>
</event>
<event>
 4    2  0.4039581E+000  0.1953397E+03  0.7546771E-02  0.1153732E+00
         21   -1    0    0  503  502  0.00000000000E+00  0.00000000000E+00  0.11857311107E+04  0.11857311107E+04  0.00000000000E+00 0. -1.
         21   -1    0    0  501  503 -0.00000000000E+00 -0.00000000000E+00 -0.39301915149E+02  0.39301915149E+02  0.00000000000E+00 0.  1.
          6    1    1    2  501    0  0.22071167679E+02 -0.87985503550E+02  0.31248529307E+03  0.36851681598E+03  0.17300000000E+03 0.  1.
         -6    1    1    2    0  502 -0.22071167679E+02  0.87985503550E+02  0.83394390252E+03  0.85651620990E+03  0.17300000000E+03 0.  1.
<mgrwt>
<rscale>  2 0.19533967E+03</rscale>
<asrwt>0</asrwt>
<pdfrwt beam="1">  1       21 0.18242014E+00 0.19533967E+03</pdfrwt>
<pdfrwt beam="2">  1       21 0.60464494E-02 0.19533967E+03</pdfrwt>
<totfact> 0.34035217E+04</totfact>
</mgrwt>
</event>
<event>
 4    2  0.4039581E+000  0.2471898E+03  0.7546771E-02  0.1115094E+00
         21   -1    0    0  503  502  0.00000000000E+00  0.00000000000E+00  0.10892868676E+04  0.10892868676E+04  0.00000000000E+00 0. -1.
         21   -1    0    0  501  503 -0.00000000000E+00 -0.00000000000E+00 -0.84873268380E+02  0.84873268380E+02  0.00000000000E+00 0.  1.
          6    1    1    2  501    0 -0.10346682108E+03 -0.14306780894E+03  0.16034584069E+03  0.29464142555E+03  0.17300000000E+03 0.  1.
         -6    1    1    2    0  502  0.10346682108E+03  0.14306780894E+03  0.84406775852E+03  0.87951871043E+03  0.17300000000E+03 0. -1.
<mgrwt>
<rscale>  2 0.24718977E+03</rscale>
<asrwt>0</asrwt>
<pdfrwt beam="1">  1       21 0.16758258E+00 0.24718977E+03</pdfrwt>
<pdfrwt beam="2">  1       21 0.13057427E-01 0.24718977E+03</pdfrwt>
<totfact> 0.10770978E+04</totfact>
</mgrwt>
</event>
<event>
 4    2  0.4039581E+000  0.2412366E+03  0.7546771E-02  0.1118972E+00
         21   -1    0    0  503  502  0.00000000000E+00  0.00000000000E+00  0.19533673642E+03  0.19533673642E+03  0.00000000000E+00 0. -1.
         21   -1    0    0  501  503 -0.00000000000E+00 -0.00000000000E+00 -0.46517028111E+03  0.46517028111E+03  0.00000000000E+00 0. -1.
          6    1    1    2  501    0  0.70594215152E+02  0.15258627713E+03 -0.33294279515E+03  0.41115206435E+03  0.17300000000E+03 0. -1.
         -6    1    1    2    0  502 -0.70594215152E+02 -0.15258627713E+03  0.63109250454E+02  0.24935495318E+03  0.17300000000E+03 0. -1.
<mgrwt>
<rscale>  2 0.24123664E+03</rscale>
<asrwt>0</asrwt>
<pdfrwt beam="1">  1       21 0.30051806E-01 0.24123664E+03</pdfrwt>
<pdfrwt beam="2">  1       21 0.71564657E-01 0.24123664E+03</pdfrwt>
<totfact> 0.18228381E+04</totfact>
</mgrwt>
</event>
<event>
 4    2  0.4039581E+000  0.1972277E+03  0.7546771E-02  0.1152099E+00
         21   -1    0    0  501  502  0.00000000000E+00  0.00000000000E+00  0.10493383422E+03  0.10493383422E+03  0.00000000000E+00 0.  1.
         21   -1    0    0  502  503 -0.00000000000E+00 -0.00000000000E+00 -0.57485680582E+03  0.57485680582E+03  0.00000000000E+00 0.  1.
          6    1    1    2  501    0 -0.30514587047E+02  0.89658373209E+02 -0.43751948103E+03  0.47991880583E+03  0.17300000000E+03 0.  1.
         -6    1    1    2    0  503  0.30514587047E+02 -0.89658373209E+02 -0.32403490570E+02  0.19987183421E+03  0.17300000000E+03 0.  1.
<mgrwt>
<rscale>  2 0.19722770E+03</rscale>
<asrwt>0</asrwt>
<pdfrwt beam="1">  1       21 0.16143667E-01 0.19722770E+03</pdfrwt>
<pdfrwt beam="2">  1       21 0.88439507E-01 0.19722770E+03</pdfrwt>
<totfact> 0.37431220E+04</totfact>
</mgrwt>
</event>
<event>
 4    2  0.4039581E+000  0.1767613E+03  0.7546771E-02  0.1170975E+00
         21   -1    0    0  503  502  0.00000000000E+00  0.00000000000E+00  0.16005362141E+03  0.16005362141E+03  0.00000000000E+00 0. -1.
         21   -1    0    0  501  503 -0.00000000000E+00 -0.00000000000E+00 -0.23398645724E+03  0.23398645724E+03  0.00000000000E+00 0. -1.
          6    1    1    2  501    0 -0.16431454232E+02 -0.32335140431E+02 -0.11716784201E+03  0.21206804851E+03  0.17300000000E+03 0. -1.
         -6    1    1    2    0  502  0.16431454232E+02  0.32335140431E+02  0.43235006188E+02  0.18197203014E+03  0.17300000000E+03 0. -1.
<mgrwt>
<rscale>  2 0.17676129E+03</rscale>
<asrwt>0</asrwt>
<pdfrwt beam="1">  1       21 0.24623634E-01 0.17676129E+03</pdfrwt>
<pdfrwt beam="2">  1       21 0.35997916E-01 0.17676129E+03</pdfrwt>
<totfact> 0.11668518E+05</totfact>
</mgrwt>
</event>
<event>
 4    2  0.4039581E+000  0.2204119E+03  0.7546771E-02  0.1133576E+00
         21   -1    0    0  501  502  0.00000000000E+00  0.00000000000E+00  0.10112527151E+03  0.10112527151E+03  0.00000000000E+00 0. -1.
         21   -1    0    0  502  503 -0.00000000000E+00 -0.00000000000E+00 -0.51624697792E+03  0.51624697792E+03  0.00000000000E+00 0. -1.
          6    1    1    2  501    0 -0.11042387115E+03 -0.80367789224E+02 -0.28889347114E+03  0.36337425684E+03  0.17300000000E+03 0. -1.
         -6    1    1    2    0  503  0.11042387115E+03  0.80367789224E+02 -0.12622823527E+03  0.25399799260E+03  0.17300000000E+03 0. -1.
<mgrwt>
<rscale>  2 0.22041192E+03</rscale>
<asrwt>0</asrwt>
<pdfrwt beam="1">  1       21 0.15557734E-01 0.22041192E+03</pdfrwt>
<pdfrwt beam="2">  1       21 0.79422612E-01 0.22041192E+03</pdfrwt>
<totfact> 0.50626895E+04</totfact>
</mgrwt>
</event>
<event>
 4    2  0.4039581E+000  0.2271079E+03  0.7546771E-02  0.1128692E+00
         21   -1    0    0  501  502  0.00000000000E+00  0.00000000000E+00  0.10698109541E+03  0.10698109541E+03  0.00000000000E+00 0.  1.
         21   -1    0    0  502  503 -0.00000000000E+00 -0.00000000000E+00 -0.12651474048E+04  0.12651474048E+04  0.00000000000E+00 0.  1.
          6    1    1    2  501    0  0.14195286440E+03  0.38708662988E+02 -0.39346321784E+02  0.23049101791E+03  0.17300000000E+03 0.  1.
         -6    1    1    2    0  503 -0.14195286440E+03 -0.38708662988E+02 -0.11188199876E+04  0.11416374823E+04  0.17300000000E+03 0.  1.
<mgrwt>
<rscale>  2 0.22710785E+03</rscale>
<asrwt>0</asrwt>
<pdfrwt beam="1">  1       21 0.16458630E-01 0.22710785E+03</pdfrwt>
<pdfrwt beam="2">  1       21 0.19463806E+00 0.22710785E+03</pdfrwt>
<totfact> 0.46721983E+03</totfact>
</mgrwt>
</event>
<event>
 4    2  0.4039581E+000  0.1765213E+03  0.7546771E-02  0.1171213E+00
         21   -1    0    0  503  502  0.00000000000E+00  0.00000000000E+00  0.16323994019E+03  0.16323994019E+03  0.00000000000E+00 0. -1.
         21   -1    0    0  501  503 -0.00000000000E+00 -0.00000000000E+00 -0.38854883403E+03  0.38854883403E+03  0.00000000000E+00 0. -1.
          6    1    1    2  501    0  0.25169665581E+02 -0.24439195368E+02 -0.30943649769E+03  0.35624532620E+03  0.17300000000E+03 0. -1.
         -6    1    1    2    0  502 -0.25169665581E+02  0.24439195368E+02  0.84127603843E+02  0.19554344802E+03  0.17300000000E+03 0. -1.
<mgrwt>
<rscale>  2 0.17652135E+03</rscale>
<asrwt>0</asrwt>
<pdfrwt beam="1">  1       21 0.25113837E-01 0.17652135E+03</pdfrwt>
<pdfrwt beam="2">  1       21 0.59776743E-01 0.17652135E+03</pdfrwt>
<totfact> 0.39545411E+04</totfact>
</mgrwt>
</event>
<event>
 4    2  0.4039581E+000  0.2313061E+03  0.7546771E-02  0.1125724E+00
         21   -1    0    0  501  502  0.00000000000E+00  0.00000000000E+00  0.83477110492E+03  0.83477110492E+03  0.00000000000E+00 0.  1.
         21   -1    0    0  502  503 -0.00000000000E+00 -0.00000000000E+00 -0.65570729765E+02  0.65570729765E+02  0.00000000000E+00 0. -1.
          6    1    1    2  501    0 -0.82939975952E+02  0.12920715609E+03  0.45219293937E+03  0.50791828399E+03  0.17300000000E+03 0. -1.
         -6    1    1    2    0  503  0.82939975952E+02 -0.12920715609E+03  0.31700743579E+03  0.39242355070E+03  0.17300000000E+03 0.  1.
<mgrwt>
<rscale>  2 0.23130614E+03</rscale>
<asrwt>0</asrwt>
<pdfrwt beam="1">  1       21 0.12842632E+00 0.23130614E+03</pdfrwt>
<pdfrwt beam="2">  1       21 0.10087805E-01 0.23130614E+03</pdfrwt>
<totfact> 0.34861284E+04</totfact>
</mgrwt>
</event>
<event>
 4    2  0.4039581E+000  0.1970099E+03  0.7546771E-02  0.1152287E+00
         21   -1    0    0  503  502  0.00000000000E+00  0.00000000000E+00  0.49406319779E+03  0.49406319779E+03  0.00000000000E+00 0. -1.
         21   -1    0    0  501  503 -0.00000000000E+00 -0.00000000000E+00 -0.81022125495E+02  0.81022125495E+02  0.00000000000E+00 0. -1.
          6    1    1    2  501    0 -0.94243127606E+02  0.14634667728E+01  0.15638106267E+03  0.25153120203E+03  0.17300000000E+03 0. -1.
         -6    1    1    2    0  502  0.94243127606E+02 -0.14634667728E+01  0.25666000963E+03  0.32355412125E+03  0.17300000000E+03 0. -1.
<mgrwt>
<rscale>  2 0.19700992E+03</rscale>
<asrwt>0</asrwt>
<pdfrwt beam="1">  1       21 0.76009721E-01 0.19700992E+03</pdfrwt>
<pdfrwt beam="2">  1       21 0.12464943E-01 0.19700992E+03</pdfrwt>
<totfact> 0.84431581E+04</totfact>
</mgrwt>
</event>
<event>
 4    2  0.4039581E+000  0.1967915E+03  0.7546771E-02  0.1152475E+00
         21   -1    0    0  501  502  0.00000000000E+00  0.00000000000E+00  0.21688575529E+03  0.21688575529E+03  0.00000000000E+00 0. -1.
         21   -1    0    0  502  503 -0.00000000000E+00 -0.00000000000E+00 -0.18043501140E+03  0.18043501140E+03  0.00000000000E+00 0. -1.
          6    1    1    2  501    0  0.93344891306E+02  0.92000705762E+01  0.38481906812E+02  0.20051874522E+03  0.17300000000E+03 0. -1.
         -6    1    1    2    0  503 -0.93344891306E+02 -0.92000705762E+01 -0.20311629175E+01  0.19680202147E+03  0.17300000000E+03 0. -1.
<mgrwt>
<rscale>  2 0.19679154E+03</rscale>
<asrwt>0</asrwt>
<pdfrwt beam="1">  1       21 0.33367039E-01 0.19679154E+03</pdfrwt>
<pdfrwt beam="2">  1       21 0.27759233E-01 0.19679154E+03</pdfrwt>
<totfact> 0.10698781E+05</totfact>
</mgrwt>
</event>
<event>
 4    2  0.4039581E+000  0.2186062E+03  0.7546771E-02  0.1134926E+00
         21   -1    0    0  501  502  0.00000000000E+00  0.00000000000E+00  0.84961891750E+03  0.84961891750E+03  0.00000000000E+00 0. -1.
         21   -1    0    0  502  503 -0.00000000000E+00 -0.00000000000E+00 -0.56279494513E+02  0.56279494513E+02  0.00000000000E+00 0.  1.
          6    1    1    2  501    0 -0.13020614998E+03  0.30100424756E+02  0.38581788150E+03  0.44344572920E+03  0.17300000000E+03 0.  1.
         -6    1    1    2    0  503  0.13020614998E+03 -0.30100424756E+02  0.40752154149E+03  0.46245268281E+03  0.17300000000E+03 0. -1.
<mgrwt>
<rscale>  2 0.21860621E+03</rscale>
<asrwt>0</asrwt>
<pdfrwt beam="1">  1       21 0.13071059E+00 0.21860621E+03</pdfrwt>
<pdfrwt beam="2">  1       21 0.86583844E-02 0.21860621E+03</pdfrwt>
<totfact> 0.43943117E+04</totfact>
</mgrwt>
</event>
<event>
 4    2  0.4039581E+000  0.2402337E+03  0.7546771E-02  0.1119637E+00
         21   -1    0    0  503  502  0.00000000000E+00  0.00000000000E+00  0.60549770894E+03  0.60549770894E+03  0.00000000000E+00 0. -1.
         21   -1    0    0  501  503 -0.00000000000E+00 -0.00000000000E+00 -0.10630754537E+03  0.10630754537E+03  0.00000000000E+00 0. -1.
          6    1    1    2  501    0 -0.57610744745E+02 -0.15641050596E+03  0.36404708445E+03  0.43616799972E+03  0.17300000000E+03 0. -1.
         -6    1    1    2    0  502  0.57610744745E+02  0.15641050596E+03  0.13514307912E+03  0.27563725459E+03  0.17300000000E+03 0. -1.
<mgrwt>
<rscale>  2 0.24023373E+03</rscale>
<asrwt>0</asrwt>
<pdfrwt beam="1">  1       21 0.93153492E-01 0.24023373E+03</pdfrwt>
<pdfrwt beam="2">  1       21 0.16355007E-01 0.24023373E+03</pdfrwt>
<totfact> 0.31686299E+04</totfact>
</mgrwt>
</event>
<event>
 4    2  0.4039581E+000  0.1949587E+03  0.7546771E-02  0.1154063E+00
         21   -1    0    0  501  502  0.00000000000E+00  0.00000000000E+00  0.39276833459E+03  0.39276833459E+03  0.00000000000E+00 0. -1.
         21   -1    0    0  502  503 -0.00000000000E+00 -0.00000000000E+00 -0.36276285248E+03  0.36276285248E+03  0.00000000000E+00 0. -1.
          6    1    1    2  501    0 -0.63510112328E+02 -0.63610863130E+02  0.33848059771E+03  0.39061232867E+03  0.17300000000E+03 0. -1.
         -6    1    1    2    0  503  0.63510112328E+02  0.63610863130E+02 -0.30847511560E+03  0.36491885841E+03  0.17300000000E+03 0. -1.
<mgrwt>
<rscale>  2 0.19495865E+03</rscale>
<asrwt>0</asrwt>
<pdfrwt beam="1">  1       21 0.60425898E-01 0.19495865E+03</pdfrwt>
<pdfrwt beam="2">  1       21 0.55809670E-01 0.19495865E+03</pdfrwt>
<totfact> 0.77053107E+03</totfact>
</mgrwt>
</event>
<event>
 4    2  0.4039581E+000  0.1811131E+03  0.7546771E-02  0.1166730E+00
         21   -1    0    0  501  502  0.00000000000E+00  0.00000000000E+00  0.11727638307E+03  0.11727638307E+03  0.00000000000E+00 0.  1.
         21   -1    0    0  502  503 -0.00000000000E+00 -0.00000000000E+00 -0.28425352189E+03  0.28425352189E+03  0.00000000000E+00 0. -1.
          6    1    1    2  501    0 -0.17347023963E+02  0.50715142781E+02 -0.58072163369E+02  0.19019548130E+03  0.17300000000E+03 0.  1.
         -6    1    1    2    0  503  0.17347023963E+02 -0.50715142781E+02 -0.10890497545E+03  0.21133442367E+03  0.17300000000E+03 0. -1.
<mgrwt>
<rscale>  2 0.18111307E+03</rscale>
<asrwt>0</asrwt>
<pdfrwt beam="1">  1       21 0.18042520E-01 0.18111307E+03</pdfrwt>
<pdfrwt beam="2">  1       21 0.43731311E-01 0.18111307E+03</pdfrwt>
<totfact> 0.14099515E+05</totfact>
</mgrwt>
</event>
<event>
 4    2  0.4039581E+000  0.2155763E+03  0.7546771E-02  0.1137225E+00
         21   -1    0    0  501  502  0.00000000000E+00  0.00000000000E+00  0.17395185556E+03  0.17395185556E+03  0.00000000000E+00 0. -1.
         21   -1    0    0  502  503 -0.00000000000E+00 -0.00000000000E+00 -0.54365806463E+03  0.54365806463E+03  0.00000000000E+00 0. -1.
          6    1    1    2  501    0  0.11663295021E+03  0.54229974885E+02  0.71029555876E+02  0.22697650332E+03  0.17300000000E+03 0. -1.
         -6    1    1    2    0  503 -0.11663295021E+03 -0.54229974885E+02 -0.44073576494E+03  0.49063341687E+03  0.17300000000E+03 0. -1.
<mgrwt>
<rscale>  2 0.21557629E+03</rscale>
<asrwt>0</asrwt>
<pdfrwt beam="1">  1       21 0.26761824E-01 0.21557629E+03</pdfrwt>
<pdfrwt beam="2">  1       21 0.83639702E-01 0.21557629E+03</pdfrwt>
<totfact> 0.16293630E+04</totfact>
</mgrwt>
</event>
<event>
 4    2  0.4039581E+000  0.3289417E+03  0.7546771E-02  0.1071606E+00
         21   -1    0    0  501  502  0.00000000000E+00  0.00000000000E+00  0.91949220225E+03  0.91949220225E+03  0.00000000000E+00 0. -1.
         21   -1    0    0  502  503 -0.00000000000E+00 -0.00000000000E+00 -0.13804977458E+03  0.13804977458E+03  0.00000000000E+00 0. -1.
          6    1    1    2  501    0  0.22527294857E+03 -0.16590884961E+03  0.18758847982E+03  0.37867147436E+03  0.17300000000E+03 0. -1.
         -6    1    1    2    0  503 -0.22527294857E+03  0.16590884961E+03  0.59385394785E+03  0.67887050246E+03  0.17300000000E+03 0. -1.
<mgrwt>
<rscale>  2 0.32894171E+03</rscale>
<asrwt>0</asrwt>
<pdfrwt beam="1">  1       21 0.14146034E+00 0.32894171E+03</pdfrwt>
<pdfrwt beam="2">  1       21 0.21238427E-01 0.32894171E+03</pdfrwt>
<totfact> 0.66083067E+03</totfact>
</mgrwt>
</event>
<event>
 4    2  0.4039581E+000  0.2139444E+03  0.7546771E-02  0.1138480E+00
         21   -1    0    0  503  502  0.00000000000E+00  0.00000000000E+00  0.14324906889E+03  0.14324906889E+03  0.00000000000E+00 0. -1.
         21   -1    0    0  501  503 -0.00000000000E+00 -0.00000000000E+00 -0.41793557643E+03  0.41793557643E+03  0.00000000000E+00 0.  1.
          6    1    1    2  501    0  0.60839936844E+02 -0.11018934341E+03 -0.27349832699E+03  0.34723698562E+03  0.17300000000E+03 0.  1.
         -6    1    1    2    0  502 -0.60839936844E+02  0.11018934341E+03 -0.11881805473E+01  0.21394765970E+03  0.17300000000E+03 0. -1.
<mgrwt>
<rscale>  2 0.21394436E+03</rscale>
<asrwt>0</asrwt>
<pdfrwt beam="1">  1       21 0.22038318E-01 0.21394436E+03</pdfrwt>
<pdfrwt beam="2">  1       21 0.64297781E-01 0.21394436E+03</pdfrwt>
<totfact> 0.42477756E+04</totfact>
</mgrwt>
</event>
<event>
 4    2  0.4039581E+000  0.2181955E+03  0.7546771E-02  0.1135236E+00
         21   -1    0    0  501  502  0.00000000000E+00  0.00000000000E+00  0.70523214096E+03  0.70523214096E+03  0.00000000000E+00 0.  1.
         21   -1    0    0  502  503 -0.00000000000E+00 -0.00000000000E+00 -0.20520315988E+03  0.20520315988E+03  0.00000000000E+00 0. -1.
          6    1    1    2  501    0 -0.13284900312E+03 -0.56037167325E+01  0.62290850008E+03  0.66001837758E+03  0.17300000000E+03 0.  1.
         -6    1    1    2    0  503  0.13284900312E+03  0.56037167325E+01 -0.12287951899E+03  0.25041692327E+03  0.17300000000E+03 0. -1.
<mgrwt>
<rscale>  2 0.21819546E+03</rscale>
<asrwt>0</asrwt>
<pdfrwt beam="1">  1       21 0.10849725E+00 0.21819546E+03</pdfrwt>
<pdfrwt beam="2">  1       21 0.31569717E-01 0.21819546E+03</pdfrwt>
<totfact> 0.63897039E+03</totfact>
</mgrwt>
</event>
<event>
 4    2  0.4039581E+000  0.3175280E+03  0.7546771E-02  0.1076793E+00
         21   -1    0    0  503  502  0.00000000000E+00  0.00000000000E+00  0.28535445036E+03  0.28535445036E+03  0.00000000000E+00 0.  1.
         21   -1    0    0  501  503 -0.00000000000E+00 -0.00000000000E+00 -0.38133290344E+03  0.38133290344E+03  0.00000000000E+00 0. -1.
          6    1    1    2  501    0 -0.92109399619E+02 -0.24982169358E+03  0.42344284792E+02  0.32033897442E+03  0.17300000000E+03 0.  1.
         -6    1    1    2    0  502  0.92109399619E+02  0.24982169358E+03 -0.13832273788E+03  0.34634837938E+03  0.17300000000E+03 0.  1.
<mgrwt>
<rscale>  2 0.31752798E+03</rscale>
<asrwt>0</asrwt>
<pdfrwt beam="1">  1       21 0.43900685E-01 0.31752798E+03</pdfrwt>
<pdfrwt beam="2">  1       21 0.58666600E-01 0.31752798E+03</pdfrwt>
<totfact> 0.12701138E+04</totfact>
</mgrwt>
</event>
<event>
 4    2  0.4039581E+000  0.1761951E+03  0.7546771E-02  0.1171537E+00
         21   -1    0    0  501  502  0.00000000000E+00  0.00000000000E+00  0.67037778983E+03  0.67037778983E+03  0.00000000000E+00 0. -1.
         21   -1    0    0  502  503 -0.00000000000E+00 -0.00000000000E+00 -0.47460872248E+02  0.47460872248E+02  0.00000000000E+00 0. -1.
          6    1    1    2  501    0 -0.90032021120E+01  0.32166335463E+02  0.25555054430E+03  0.31040427104E+03  0.17300000000E+03 0.  1.
         -6    1    1    2    0  503  0.90032021120E+01 -0.32166335463E+02  0.36736637328E+03  0.40743439104E+03  0.17300000000E+03 0.  1.
<mgrwt>
<rscale>  2 0.17619515E+03</rscale>
<asrwt>0</asrwt>
<pdfrwt beam="1">  1       21 0.10313504E+00 0.17619515E+03</pdfrwt>
<pdfrwt beam="2">  1       21 0.73016731E-02 0.17619515E+03</pdfrwt>
<totfact> 0.10797202E+05</totfact>
</mgrwt>
</event>
<event>
 4    2  0.4039581E+000  0.1811394E+03  0.7546771E-02  0.1166705E+00
         21   -1    0    0  503  502  0.00000000000E+00  0.00000000000E+00  0.98655130396E+02  0.98655130396E+02  0.00000000000E+00 0.  1.
         21   -1    0    0  501  503 -0.00000000000E+00 -0.00000000000E+00 -0.33675185996E+03  0.33675185996E+03  0.00000000000E+00 0.  1.
          6    1    1    2  501    0 -0.15214594058E+02  0.51487947215E+02 -0.94839802878E+02  0.20446535352E+03  0.17300000000E+03 0.  1.
         -6    1    1    2    0  502  0.15214594058E+02 -0.51487947215E+02 -0.14325692669E+03  0.23094163684E+03  0.17300000000E+03 0.  1.
<mgrwt>
<rscale>  2 0.18113943E+03</rscale>
<asrwt>0</asrwt>
<pdfrwt beam="1">  1       21 0.15177712E-01 0.18113943E+03</pdfrwt>
<pdfrwt beam="2">  1       21 0.51807979E-01 0.18113943E+03</pdfrwt>
<totfact> 0.13636215E+05</totfact>
</mgrwt>
</event>
<event>
 4    2  0.4039581E+000  0.2157233E+03  0.7546771E-02  0.1137112E+00
         21   -1    0    0  503  502  0.00000000000E+00  0.00000000000E+00  0.22538443015E+03  0.22538443015E+03  0.00000000000E+00 0. -1.
         21   -1    0    0  501  503 -0.00000000000E+00 -0.00000000000E+00 -0.24039064496E+03  0.24039064496E+03  0.00000000000E+00 0. -1.
          6    1    1    2  501    0  0.22815238407E+02 -0.12683455434E+03 -0.94977169789E+02  0.23570575313E+03  0.17300000000E+03 0. -1.
         -6    1    1    2    0  502 -0.22815238407E+02  0.12683455434E+03  0.79970954977E+02  0.23006932198E+03  0.17300000000E+03 0. -1.
<mgrwt>
<rscale>  2 0.21572329E+03</rscale>
<asrwt>0</asrwt>
<pdfrwt beam="1">  1       21 0.34674528E-01 0.21572329E+03</pdfrwt>
<pdfrwt beam="2">  1       21 0.36983176E-01 0.21572329E+03</pdfrwt>
<totfact> 0.55925618E+04</totfact>
</mgrwt>
</event>
<event>
 4    2  0.4039581E+000  0.1978388E+03  0.7546771E-02  0.1151575E+00
         21   -1    0    0  501  502  0.00000000000E+00  0.00000000000E+00  0.75204084609E+03  0.75204084609E+03  0.00000000000E+00 0.  1.
         21   -1    0    0  502  503 -0.00000000000E+00 -0.00000000000E+00 -0.52082383994E+02  0.52082383994E+02  0.00000000000E+00 0.  1.
          6    1    1    2  501    0 -0.52830299947E+02  0.80125806671E+02  0.36070891272E+03  0.41140139183E+03  0.17300000000E+03 0. -1.
         -6    1    1    2    0  503  0.52830299947E+02 -0.80125806671E+02  0.33924954938E+03  0.39272183825E+03  0.17300000000E+03 0. -1.
<mgrwt>
<rscale>  2 0.19783879E+03</rscale>
<asrwt>0</asrwt>
<pdfrwt beam="1">  1       21 0.11569858E+00 0.19783879E+03</pdfrwt>
<pdfrwt beam="2">  1       21 0.80126750E-02 0.19783879E+03</pdfrwt>
<totfact> 0.68954887E+04</totfact>
</mgrwt>
</event>
<event>
 4    2  0.4039581E+000  0.3681637E+03  0.7546771E-02  0.1055397E+00
         21   -1    0    0  503  502  0.00000000000E+00  0.00000000000E+00  0.17070117682E+03  0.17070117682E+03  0.00000000000E+00 0. -1.
         21   -1    0    0  501  503 -0.00000000000E+00 -0.00000000000E+00 -0.87665670163E+03  0.87665670163E+03  0.00000000000E+00 0. -1.
          6    1    1    2  501    0 -0.10896461632E+03 -0.30617351408E+03 -0.19222083718E+03  0.41532319774E+03  0.17300000000E+03 0. -1.
         -6    1    1    2    0  502  0.10896461632E+03  0.30617351408E+03 -0.51373468763E+03  0.63203468070E+03  0.17300000000E+03 0. -1.
<mgrwt>
<rscale>  2 0.36816370E+03</rscale>
<asrwt>0</asrwt>
<pdfrwt beam="1">  1       21 0.26261720E-01 0.36816370E+03</pdfrwt>
<pdfrwt beam="2">  1       21 0.13487026E+00 0.36816370E+03</pdfrwt>
<totfact> 0.48910808E+03</totfact>
</mgrwt>
</event>
<event>
 4    2  0.4039581E+000  0.1776228E+03  0.7546771E-02  0.1170124E+00
         21   -1    0    0  503  502  0.00000000000E+00  0.00000000000E+00  0.15275625889E+03  0.15275625889E+03  0.00000000000E+00 0. -1.
         21   -1    0    0  501  503 -0.00000000000E+00 -0.00000000000E+00 -0.21326171160E+03  0.21326171160E+03  0.00000000000E+00 0. -1.
          6    1    1    2  501    0 -0.93714405272E+01 -0.39153907748E+02  0.22444655508E+01  0.17763696129E+03  0.17300000000E+03 0. -1.
         -6    1    1    2    0  502  0.93714405272E+01  0.39153907748E+02 -0.62749918262E+02  0.18838100921E+03  0.17300000000E+03 0. -1.
<mgrwt>
<rscale>  2 0.17762278E+03</rscale>
<asrwt>0</asrwt>
<pdfrwt beam="1">  1       21 0.23500963E-01 0.17762278E+03</pdfrwt>
<pdfrwt beam="2">  1       21 0.32809494E-01 0.17762278E+03</pdfrwt>
<totfact> 0.15308985E+05</totfact>
</mgrwt>
</event>
<event>
 4    2  0.4039581E+000  0.2004962E+03  0.7546771E-02  0.1149321E+00
         21   -1    0    0  503  502  0.00000000000E+00  0.00000000000E+00  0.23648301221E+03  0.23648301221E+03  0.00000000000E+00 0.  1.
         21   -1    0    0  501  503 -0.00000000000E+00 -0.00000000000E+00 -0.19199031949E+03  0.19199031949E+03  0.00000000000E+00 0.  1.
          6    1    1    2  501    0  0.38185886992E+02  0.93869888181E+02 -0.50282636687E+02  0.20670525253E+03  0.17300000000E+03 0.  1.
         -6    1    1    2    0  502 -0.38185886992E+02 -0.93869888181E+02  0.94775329409E+02  0.22176807917E+03  0.17300000000E+03 0.  1.
<mgrwt>
<rscale>  2 0.20049618E+03</rscale>
<asrwt>0</asrwt>
<pdfrwt beam="1">  1       21 0.36382002E-01 0.20049618E+03</pdfrwt>
<pdfrwt beam="2">  1       21 0.29536972E-01 0.20049618E+03</pdfrwt>
<totfact> 0.79757150E+04</totfact>
</mgrwt>
</event>
<event>
 4    2  0.4039581E+000  0.1906900E+03  0.7546771E-02  0.1157840E+00
         21   -1    0    0  503  502  0.00000000000E+00  0.00000000000E+00  0.57904970633E+02  0.57904970633E+02  0.00000000000E+00 0. -1.
         21   -1    0    0  501  503 -0.00000000000E+00 -0.00000000000E+00 -0.66362850362E+03  0.66362850362E+03  0.00000000000E+00 0.  1.
          6    1    1    2  501    0 -0.17491162109E+02  0.78279816512E+02 -0.38648683449E+03  0.43096953913E+03  0.17300000000E+03 0. -1.
         -6    1    1    2    0  502  0.17491162109E+02 -0.78279816512E+02 -0.21923669849E+03  0.29056393512E+03  0.17300000000E+03 0.  1.
<mgrwt>
<rscale>  2 0.19068999E+03</rscale>
<asrwt>0</asrwt>
<pdfrwt beam="1">  1       21 0.89084576E-02 0.19068999E+03</pdfrwt>
<pdfrwt beam="2">  1       21 0.10209669E+00 0.19068999E+03</pdfrwt>
<totfact> 0.77775688E+04</totfact>
</mgrwt>
</event>
<event>
 4    2  0.4039581E+000  0.1979968E+03  0.7546771E-02  0.1151440E+00
         21   -1    0    0  501  502  0.00000000000E+00  0.00000000000E+00  0.16257414621E+03  0.16257414621E+03  0.00000000000E+00 0.  1.
         21   -1    0    0  502  503 -0.00000000000E+00 -0.00000000000E+00 -0.24147663985E+03  0.24147663985E+03  0.00000000000E+00 0. -1.
          6    1    1    2  501    0  0.77296468225E+02  0.57436893492E+02 -0.47021121126E+02  0.20350362789E+03  0.17300000000E+03 0.  1.
         -6    1    1    2    0  503 -0.77296468225E+02 -0.57436893492E+02 -0.31881372513E+02  0.20054715816E+03  0.17300000000E+03 0.  1.
<mgrwt>
<rscale>  2 0.19799682E+03</rscale>
<asrwt>0</asrwt>
<pdfrwt beam="1">  1       21 0.25011407E-01 0.19799682E+03</pdfrwt>
<pdfrwt beam="2">  1       21 0.37150252E-01 0.19799682E+03</pdfrwt>
<totfact> 0.10553180E+05</totfact>
</mgrwt>
</event>
<event>
 4    2  0.4039581E+000  0.2206821E+03  0.7546771E-02  0.1133376E+00
         21   -1    0    0  501  502  0.00000000000E+00  0.00000000000E+00  0.14285570984E+04  0.14285570984E+04  0.00000000000E+00 0.  1.
         21   -1    0    0  502  503 -0.00000000000E+00 -0.00000000000E+00 -0.58913777356E+02  0.58913777356E+02  0.00000000000E+00 0. -1.
          6    1    1    2  501    0 -0.81774815002E+02  0.10992948079E+03  0.11675882884E+04  0.11882605027E+04  0.17300000000E+03 0.  1.
         -6    1    1    2    0  503  0.81774815002E+02 -0.10992948079E+03  0.20205503265E+03  0.29921037304E+03  0.17300000000E+03 0. -1.
<mgrwt>
<rscale>  2 0.22068215E+03</rscale>
<asrwt>0</asrwt>
<pdfrwt beam="1">  1       21 0.21977799E+00 0.22068215E+03</pdfrwt>
<pdfrwt beam="2">  1       21 0.90636591E-02 0.22068215E+03</pdfrwt>
<totfact> 0.95065980E+03</totfact>
</mgrwt>
</event>
<event>
 4    2  0.4039581E+000  0.1962642E+03  0.7546771E-02  0.1152930E+00
         21   -1    0    0  501  502  0.00000000000E+00  0.00000000000E+00  0.61795727350E+03  0.61795727350E+03  0.00000000000E+00 0.  1.
         21   -1    0    0  502  503 -0.00000000000E+00 -0.00000000000E+00 -0.78224932764E+02  0.78224932764E+02  0.00000000000E+00 0.  1.
          6    1    1    2  501    0  0.67315684637E+02 -0.63712204378E+02  0.42675689947E+03  0.46972449119E+03  0.17300000000E+03 0.  1.
         -6    1    1    2    0  503 -0.67315684637E+02  0.63712204378E+02  0.11297544127E+03  0.22645771507E+03  0.17300000000E+03 0.  1.
<mgrwt>
<rscale>  2 0.19626423E+03</rscale>
<asrwt>0</asrwt>
<pdfrwt beam="1">  1       21 0.95070346E-01 0.19626423E+03</pdfrwt>
<pdfrwt beam="2">  1       21 0.12034605E-01 0.19626423E+03</pdfrwt>
<totfact> 0.53890548E+04</totfact>
</mgrwt>
</event>
<event>
 4    2  0.4039581E+000  0.2396812E+03  0.7546771E-02  0.1120005E+00
         21   -1    0    0  503  502  0.00000000000E+00  0.00000000000E+00  0.66102040247E+03  0.66102040247E+03  0.00000000000E+00 0. -1.
         21   -1    0    0  501  503 -0.00000000000E+00 -0.00000000000E+00 -0.98036813314E+02  0.98036813314E+02  0.00000000000E+00 0.  1.
          6    1    1    2  501    0 -0.62493765381E+02 -0.15366386890E+03  0.15361224743E+03  0.28468188891E+03  0.17300000000E+03 0.  1.
         -6    1    1    2    0  502  0.62493765381E+02  0.15366386890E+03  0.40937134173E+03  0.47437532687E+03  0.17300000000E+03 0. -1.
<mgrwt>
<rscale>  2 0.23968115E+03</rscale>
<asrwt>0</asrwt>
<pdfrwt beam="1">  1       21 0.10169544E+00 0.23968115E+03</pdfrwt>
<pdfrwt beam="2">  1       21 0.15082587E-01 0.23968115E+03</pdfrwt>
<totfact> 0.29872091E+04</totfact>
</mgrwt>
</event>
<event>
 4    2  0.4039581E+000  0.1790982E+03  0.7546771E-02  0.1168679E+00
         21   -1    0    0  503  502  0.00000000000E+00  0.00000000000E+00  0.15276880594E+03  0.15276880594E+03  0.00000000000E+00 0. -1.
         21   -1    0    0  501  503 -0.00000000000E+00 -0.00000000000E+00 -0.29499879643E+03  0.29499879643E+03  0.00000000000E+00 0. -1.
          6    1    1    2  501    0 -0.46335576564E+02 -0.44187667170E+00 -0.19131570194E+03  0.26206464607E+03  0.17300000000E+03 0. -1.
         -6    1    1    2    0  502  0.46335576564E+02  0.44187667170E+00  0.49085711443E+02  0.18570295630E+03  0.17300000000E+03 0. -1.
<mgrwt>
<rscale>  2 0.17909824E+03</rscale>
<asrwt>0</asrwt>
<pdfrwt beam="1">  1       21 0.23502893E-01 0.17909824E+03</pdfrwt>
<pdfrwt beam="2">  1       21 0.45384430E-01 0.17909824E+03</pdfrwt>
<totfact> 0.79767402E+04</totfact>
</mgrwt>
</event>
<event>
 4    2  0.4039581E+000  0.1825143E+03  0.7546771E-02  0.1165392E+00
         21   -1    0    0  503  502  0.00000000000E+00  0.00000000000E+00  0.44289228078E+02  0.44289228078E+02  0.00000000000E+00 0. -1.
         21   -1    0    0  501  503 -0.00000000000E+00 -0.00000000000E+00 -0.95230759812E+03  0.95230759812E+03  0.00000000000E+00 0. -1.
          6    1    1    2  501    0 -0.37610902313E+02  0.44360730537E+02 -0.68246582469E+03  0.70644961339E+03  0.17300000000E+03 0. -1.
         -6    1    1    2    0  502  0.37610902313E+02 -0.44360730537E+02 -0.22555254536E+03  0.29014721281E+03  0.17300000000E+03 0. -1.
<mgrwt>
<rscale>  2 0.18251426E+03</rscale>
<asrwt>0</asrwt>
<pdfrwt beam="1">  1       21 0.68137271E-02 0.18251426E+03</pdfrwt>
<pdfrwt beam="2">  1       21 0.14650887E+00 0.18251426E+03</pdfrwt>
<totfact> 0.50670105E+04</totfact>
</mgrwt>
</event>
<event>
 4    2  0.4039581E+000  0.2038722E+03  0.7546771E-02  0.1146513E+00
         21   -1    0    0  503  502  0.00000000000E+00  0.00000000000E+00  0.75737115304E+03  0.75737115304E+03  0.00000000000E+00 0. -1.
         21   -1    0    0  501  503 -0.00000000000E+00 -0.00000000000E+00 -0.12929999190E+03  0.12929999190E+03  0.00000000000E+00 0. -1.
          6    1    1    2  501    0 -0.41337160120E+00  0.10786436697E+03 -0.22306023966E+02  0.20508888620E+03  0.17300000000E+03 0. -1.
         -6    1    1    2    0  502  0.41337160120E+00 -0.10786436697E+03  0.65037718510E+03  0.68158225875E+03  0.17300000000E+03 0. -1.
<mgrwt>
<rscale>  2 0.20387225E+03</rscale>
<asrwt>0</asrwt>
<pdfrwt beam="1">  1       21 0.11651864E+00 0.20387225E+03</pdfrwt>
<pdfrwt beam="2">  1       21 0.19892307E-01 0.20387225E+03</pdfrwt>
<totfact> 0.13137759E+04</totfact>
</mgrwt>
</event>
<event>
 4    2  0.4039581E+000  0.2017929E+03  0.7546771E-02  0.1148235E+00
         21   -1    0    0  501  502  0.00000000000E+00  0.00000000000E+00  0.12844091764E+03  0.12844091764E+03  0.00000000000E+00 0.  1.
         21   -1    0    0  502  503 -0.00000000000E+00 -0.00000000000E+00 -0.54673798601E+03  0.54673798601E+03  0.00000000000E+00 0. -1.
          6    1    1    2  501    0  0.81580692313E+02  0.64311498938E+02  0.96688089994E+01  0.20202441467E+03  0.17300000000E+03 0.  1.
         -6    1    1    2    0  503 -0.81580692313E+02 -0.64311498938E+02 -0.42796587737E+03  0.47315448899E+03  0.17300000000E+03 0. -1.
<mgrwt>
<rscale>  2 0.20179291E+03</rscale>
<asrwt>0</asrwt>
<pdfrwt beam="1">  1       21 0.19760141E-01 0.20179291E+03</pdfrwt>
<pdfrwt beam="2">  1       21 0.84113536E-01 0.20179291E+03</pdfrwt>
<totfact> 0.28825352E+04</totfact>
</mgrwt>
</event>
<event>
 4    2  0.4039581E+000  0.1816031E+03  0.7546771E-02  0.1166261E+00
         21   -1    0    0  503  502  0.00000000000E+00  0.00000000000E+00  0.39100302328E+03  0.39100302328E+03  0.00000000000E+00 0.  1.
         21   -1    0    0  501  503 -0.00000000000E+00 -0.00000000000E+00 -0.52180298917E+03  0.52180298917E+03  0.00000000000E+00 0.  1.
          6    1    1    2  501    0  0.13980473651E+02  0.53434358200E+02 -0.48329068942E+03  0.51628439329E+03  0.17300000000E+03 0.  1.
         -6    1    1    2    0  502 -0.13980473651E+02 -0.53434358200E+02  0.35249072353E+03  0.39652161915E+03  0.17300000000E+03 0.  1.
<mgrwt>
<rscale>  2 0.18160310E+03</rscale>
<asrwt>0</asrwt>
<pdfrwt beam="1">  1       21 0.60154311E-01 0.18160310E+03</pdfrwt>
<pdfrwt beam="2">  1       21 0.80277383E-01 0.18160310E+03</pdfrwt>
<totfact> 0.35494292E+03</totfact>
</mgrwt>
</event>
<event>
 4    2  0.4039581E+000  0.1952384E+03  0.7546771E-02  0.1153820E+00
         21   -1    0    0  501  502  0.00000000000E+00  0.00000000000E+00  0.37024585908E+02  0.37024585908E+02  0.00000000000E+00 0.  1.
         21   -1    0    0  502  503 -0.00000000000E+00 -0.00000000000E+00 -0.10529710788E+04  0.10529710788E+04  0.00000000000E+00 0.  1.
          6    1    1    2  501    0  0.27290660596E+01  0.90452119053E+02 -0.42666260281E+03  0.46921105089E+03  0.17300000000E+03 0. -1.
         -6    1    1    2    0  503 -0.27290660596E+01 -0.90452119053E+02 -0.58928389011E+03  0.62078461385E+03  0.17300000000E+03 0. -1.
<mgrwt>
<rscale>  2 0.19523840E+03</rscale>
<asrwt>0</asrwt>
<pdfrwt beam="1">  1       21 0.56960899E-02 0.19523840E+03</pdfrwt>
<pdfrwt beam="2">  1       21 0.16199556E+00 0.19523840E+03</pdfrwt>
<totfact> 0.52375020E+04</totfact>
</mgrwt>
</event>
<event>
 4    2  0.4039581E+000  0.1787250E+03  0.7546771E-02  0.1169043E+00
         21   -1    0    0  503  502  0.00000000000E+00  0.00000000000E+00  0.18210971449E+04  0.18210971449E+04  0.00000000000E+00 0. -1.
         21   -1    0    0  501  503 -0.00000000000E+00 -0.00000000000E+00 -0.80491706442E+02  0.80491706442E+02  0.00000000000E+00 0. -1.
          6    1    1    2  501    0 -0.34963711522E+02  0.28127458625E+02  0.29462007207E+02  0.18113703354E+03  0.17300000000E+03 0. -1.
         -6    1    1    2    0  502  0.34963711522E+02 -0.28127458625E+02  0.17111434312E+04  0.17204518178E+04  0.17300000000E+03 0. -1.
<mgrwt>
<rscale>  2 0.17872497E+03</rscale>
<asrwt>0</asrwt>
<pdfrwt beam="1">  1       21 0.28016876E+00 0.17872497E+03</pdfrwt>
<pdfrwt beam="2">  1       21 0.12383341E-01 0.17872497E+03</pdfrwt>
<totfact> 0.25057366E+03</totfact>
</mgrwt>
</event>
<event>
 4    2  0.4039581E+000  0.2679330E+03  0.7546771E-02  0.1102468E+00
         21   -1    0    0  503  502  0.00000000000E+00  0.00000000000E+00  0.57420459182E+02  0.57420459182E+02  0.00000000000E+00 0. -1.
         21   -1    0    0  501  503 -0.00000000000E+00 -0.00000000000E+00 -0.12691647695E+04  0.12691647695E+04  0.00000000000E+00 0.  1.
          6    1    1    2  501    0 -0.20266662751E+03  0.28023923290E+02 -0.68691443298E+03  0.73731915777E+03  0.17300000000E+03 0.  1.
         -6    1    1    2    0  502  0.20266662751E+03 -0.28023923290E+02 -0.52482987735E+03  0.58926607092E+03  0.17300000000E+03 0.  1.
<mgrwt>
<rscale>  2 0.26793302E+03</rscale>
<asrwt>0</asrwt>
<pdfrwt beam="1">  1       21 0.88339181E-02 0.26793302E+03</pdfrwt>
<pdfrwt beam="2">  1       21 0.19525609E+00 0.26793302E+03</pdfrwt>
<totfact> 0.13806938E+04</totfact>
</mgrwt>
</event>
<event>
 4    2  0.4039581E+000  0.2325398E+03  0.7546771E-02  0.1124865E+00
         21   -1    0    0  503  502  0.00000000000E+00  0.00000000000E+00  0.39041663294E+03  0.39041663294E+03  0.00000000000E+00 0. -1.
         21   -1    0    0  501  503 -0.00000000000E+00 -0.00000000000E+00 -0.14072448865E+03  0.14072448865E+03  0.00000000000E+00 0. -1.
          6    1    1    2  501    0  0.34341914719E+02  0.15154662883E+03  0.15819627512E+03  0.28124866094E+03  0.17300000000E+03 0. -1.
         -6    1    1    2    0  502 -0.34341914719E+02 -0.15154662883E+03  0.91495869163E+02  0.24989246065E+03  0.17300000000E+03 0. -1.
<mgrwt>
<rscale>  2 0.23253978E+03</rscale>
<asrwt>0</asrwt>
<pdfrwt beam="1">  1       21 0.60064097E-01 0.23253978E+03</pdfrwt>
<pdfrwt beam="2">  1       21 0.21649922E-01 0.23253978E+03</pdfrwt>
<totfact> 0.50491944E+04</totfact>
</mgrwt>
</event>
<event>
 4    2  0.4039581E+000  0.1952914E+03  0.7546771E-02  0.1153774E+00
         21   -1    0    0  503  502  0.00000000000E+00  0.00000000000E+00  0.12484477890E+04  0.12484477890E+04  0.00000000000E+00 0. -1.
         21   -1    0    0  501  503 -0.00000000000E+00 -0.00000000000E+00 -0.66079021931E+02  0.66079021931E+02  0.00000000000E+00 0.  1.
          6    1    1    2  501    0 -0.13837231835E+02 -0.89544738546E+02  0.10923005148E+03  0.22376311879E+03  0.17300000000E+03 0.  1.
         -6    1    1    2    0  502  0.13837231835E+02  0.89544738546E+02  0.10731387155E+04  0.10907636921E+04  0.17300000000E+03 0. -1.
<mgrwt>
<rscale>  2 0.19529140E+03</rscale>
<asrwt>0</asrwt>
<pdfrwt beam="1">  1       21 0.19206887E+00 0.19529140E+03</pdfrwt>
<pdfrwt beam="2">  1       21 0.10166004E-01 0.19529140E+03</pdfrwt>
<totfact> 0.11889247E+04</totfact>
</mgrwt>
</event>
<event>
 4    2  0.4039581E+000  0.1907955E+03  0.7546771E-02  0.1157746E+00
         21   -1    0    0  501  502  0.00000000000E+00  0.00000000000E+00  0.27144964411E+03  0.27144964411E+03  0.00000000000E+00 0.  1.
         21   -1    0    0  502  503 -0.00000000000E+00 -0.00000000000E+00 -0.18025926852E+03  0.18025926852E+03  0.00000000000E+00 0.  1.
          6    1    1    2  501    0  0.71812646432E+02  0.36288582108E+02  0.15987854120E+03  0.24892582292E+03  0.17300000000E+03 0.  1.
         -6    1    1    2    0  503 -0.71812646432E+02 -0.36288582108E+02 -0.68688165616E+02  0.20278308972E+03  0.17300000000E+03 0.  1.
<mgrwt>
<rscale>  2 0.19079549E+03</rscale>
<asrwt>0</asrwt>
<pdfrwt beam="1">  1       21 0.41761484E-01 0.19079549E+03</pdfrwt>
<pdfrwt beam="2">  1       21 0.27732195E-01 0.19079549E+03</pdfrwt>
<totfact> 0.68567888E+04</totfact>
</mgrwt>
</event>
<event>
 4    2  0.4039581E+000  0.1966382E+03  0.7546771E-02  0.1152607E+00
         21   -1    0    0  501  502  0.00000000000E+00  0.00000000000E+00  0.57202208284E+03  0.57202208284E+03  0.00000000000E+00 0.  1.
         21   -1    0    0  502  503 -0.00000000000E+00 -0.00000000000E+00 -0.93548782890E+02  0.93548782890E+02  0.00000000000E+00 0.  1.
          6    1    1    2  501    0 -0.92697118712E+02  0.12034381323E+02  0.41451755548E+03  0.45879340225E+03  0.17300000000E+03 0.  1.
         -6    1    1    2    0  503  0.92697118712E+02 -0.12034381323E+02  0.63955744474E+02  0.20677746348E+03  0.17300000000E+03 0.  1.
<mgrwt>
<rscale>  2 0.19663820E+03</rscale>
<asrwt>0</asrwt>
<pdfrwt beam="1">  1       21 0.88003395E-01 0.19663820E+03</pdfrwt>
<pdfrwt beam="2">  1       21 0.14392121E-01 0.19663820E+03</pdfrwt>
<totfact> 0.46699254E+04</totfact>
</mgrwt>
</event>
<event>
 4    2  0.4039581E+000  0.1930083E+03  0.7546771E-02  0.1155776E+00
         21   -1    0    0  501  502  0.00000000000E+00  0.00000000000E+00  0.46910204467E+02  0.46910204467E+02  0.00000000000E+00 0. -1.
         21   -1    0    0  502  503 -0.00000000000E+00 -0.00000000000E+00 -0.79422560781E+03  0.79422560781E+03  0.00000000000E+00 0. -1.
          6    1    1    2  501    0  0.21866021409E+02 -0.82734993359E+02 -0.36874502968E+03  0.41620319429E+03  0.17300000000E+03 0. -1.
         -6    1    1    2    0  503 -0.21866021409E+02  0.82734993359E+02 -0.37857037366E+03  0.42493261799E+03  0.17300000000E+03 0. -1.
<mgrwt>
<rscale>  2 0.19300830E+03</rscale>
<asrwt>0</asrwt>
<pdfrwt beam="1">  1       21 0.72169543E-02 0.19300830E+03</pdfrwt>
<pdfrwt beam="2">  1       21 0.12218856E+00 0.19300830E+03</pdfrwt>
<totfact> 0.72440805E+04</totfact>
</mgrwt>
</event>
<event>
 4    2  0.4039581E+000  0.2399819E+03  0.7546771E-02  0.1119805E+00
         21   -1    0    0  503  502  0.00000000000E+00  0.00000000000E+00  0.29338268971E+03  0.29338268971E+03  0.00000000000E+00 0. -1.
         21   -1    0    0  501  503 -0.00000000000E+00 -0.00000000000E+00 -0.21449645814E+03  0.21449645814E+03  0.00000000000E+00 0. -1.
          6    1    1    2  501    0  0.94387088772E+02  0.13694298939E+03 -0.34517794673E+02  0.24245160964E+03  0.17300000000E+03 0. -1.
         -6    1    1    2    0  502 -0.94387088772E+02 -0.13694298939E+03  0.11340402625E+03  0.26542753821E+03  0.17300000000E+03 0. -1.
<mgrwt>
<rscale>  2 0.23998188E+03</rscale>
<asrwt>0</asrwt>
<pdfrwt beam="1">  1       21 0.45135798E-01 0.23998188E+03</pdfrwt>
<pdfrwt beam="2">  1       21 0.32999455E-01 0.23998188E+03</pdfrwt>
<totfact> 0.40706389E+04</totfact>
</mgrwt>
</event>
<event>
 4    2  0.4039581E+000  0.1785803E+03  0.7546771E-02  0.1169184E+00
         21   -1    0    0  501  502  0.00000000000E+00  0.00000000000E+00  0.38769503386E+03  0.38769503386E+03  0.00000000000E+00 0. -1.
         21   -1    0    0  502  503 -0.00000000000E+00 -0.00000000000E+00 -0.17687902521E+03  0.17687902521E+03  0.00000000000E+00 0. -1.
          6    1    1    2  501    0  0.18764606640E+02 -0.40122450109E+02  0.31187334270E+03  0.35938266980E+03  0.17300000000E+03 0. -1.
         -6    1    1    2    0  503 -0.18764606640E+02  0.40122450109E+02 -0.10105733405E+03  0.20519138927E+03  0.17300000000E+03 0. -1.
<mgrwt>
<rscale>  2 0.17858029E+03</rscale>
<asrwt>0</asrwt>
<pdfrwt beam="1">  1       21 0.59645390E-01 0.17858029E+03</pdfrwt>
<pdfrwt beam="2">  1       21 0.27212158E-01 0.17858029E+03</pdfrwt>
<totfact> 0.34037145E+04</totfact>
</mgrwt>
</event>
<event>
 4    2  0.4039581E+000  0.1868944E+03  0.7546771E-02  0.1161293E+00
         21   -1    0    0  503  502  0.00000000000E+00  0.00000000000E+00  0.21115968939E+03  0.21115968939E+03  0.00000000000E+00 0.  1.
         21   -1    0    0  501  503 -0.00000000000E+00 -0.00000000000E+00 -0.18968534153E+03  0.18968534153E+03  0.00000000000E+00 0.  1.
          6    1    1    2  501    0 -0.67799144277E+02 -0.20094657891E+02 -0.60950537906E+02  0.19658201167E+03  0.17300000000E+03 0.  1.
         -6    1    1    2    0  502  0.67799144277E+02  0.20094657891E+02  0.82424885762E+02  0.20426301925E+03  0.17300000000E+03 0.  1.
<mgrwt>
<rscale>  2 0.18689441E+03</rscale>
<asrwt>0</asrwt>
<pdfrwt beam="1">  1       21 0.32486106E-01 0.18689441E+03</pdfrwt>
<pdfrwt beam="2">  1       21 0.29182360E-01 0.18689441E+03</pdfrwt>
<totfact> 0.10275076E+05</totfact>
</mgrwt>
</event>
<event>
 4    2  0.4039581E+000  0.2467205E+03  0.7546771E-02  0.1115395E+00
         21   -1    0    0  503  502  0.00000000000E+00  0.00000000000E+00  0.95267377227E+02  0.95267377227E+02  0.00000000000E+00 0. -1.
         21   -1    0    0  501  503 -0.00000000000E+00 -0.00000000000E+00 -0.78986785016E+03  0.78986785016E+03  0.00000000000E+00 0.  1.
          6    1    1    2  501    0 -0.17551908964E+03 -0.11622106751E+02 -0.54075245760E+03  0.59437719050E+03  0.17300000000E+03 0.  1.
         -6    1    1    2    0  502  0.17551908964E+03  0.11622106751E+02 -0.15384801534E+03  0.29075803689E+03  0.17300000000E+03 0.  1.
<mgrwt>
<rscale>  2 0.24672054E+03</rscale>
<asrwt>0</asrwt>
<pdfrwt beam="1">  1       21 0.14656520E-01 0.24672054E+03</pdfrwt>
<pdfrwt beam="2">  1       21 0.12151813E+00 0.24672054E+03</pdfrwt>
<totfact> 0.20293704E+04</totfact>
</mgrwt>
</event>
<event>
 4    2  0.4039581E+000  0.2180903E+03  0.7546771E-02  0.1135315E+00
         21   -1    0    0  503  502  0.00000000000E+00  0.00000000000E+00  0.85558454100E+02  0.85558454100E+02  0.00000000000E+00 0. -1.
         21   -1    0    0  501  503 -0.00000000000E+00 -0.00000000000E+00 -0.12101814959E+04  0.12101814959E+04  0.00000000000E+00 0. -1.
          6    1    1    2  501    0  0.64733265610E+02  0.11594818950E+03 -0.10386759854E+04  0.10613252004E+04  0.17300000000E+03 0. -1.
         -6    1    1    2    0  502 -0.64733265610E+02 -0.11594818950E+03 -0.85947056371E+02  0.23441474959E+03  0.17300000000E+03 0. -1.
<mgrwt>
<rscale>  2 0.21809030E+03</rscale>
<asrwt>0</asrwt>
<pdfrwt beam="1">  1       21 0.13162840E-01 0.21809030E+03</pdfrwt>
<pdfrwt beam="2">  1       21 0.18618175E+00 0.21809030E+03</pdfrwt>
<totfact> 0.80492236E+03</totfact>
</mgrwt>
</event>
<event>
 4    2  0.4039581E+000  0.2033424E+03  0.7546771E-02  0.1146949E+00
         21   -1    0    0  503  502  0.00000000000E+00  0.00000000000E+00  0.21747026249E+03  0.21747026249E+03  0.00000000000E+00 0. -1.
         21   -1    0    0  501  503 -0.00000000000E+00 -0.00000000000E+00 -0.19027434876E+03  0.19027434876E+03  0.00000000000E+00 0. -1.
          6    1    1    2  501    0  0.40412952013E+02 -0.98923864894E+02  0.80290430228E+01  0.20350086798E+03  0.17300000000E+03 0. -1.
         -6    1    1    2    0  502 -0.40412952013E+02  0.98923864894E+02  0.19166870706E+02  0.20424374328E+03  0.17300000000E+03 0. -1.
<mgrwt>
<rscale>  2 0.20334241E+03</rscale>
<asrwt>0</asrwt>
<pdfrwt beam="1">  1       21 0.33456964E-01 0.20334241E+03</pdfrwt>
<pdfrwt beam="2">  1       21 0.29272977E-01 0.20334241E+03</pdfrwt>
<totfact> 0.95751749E+04</totfact>
</mgrwt>
</event>
<event>
 4    2  0.4039581E+000  0.1780168E+03  0.7546771E-02  0.1169736E+00
         21   -1    0    0  501  502  0.00000000000E+00  0.00000000000E+00  0.13952057817E+03  0.13952057817E+03  0.00000000000E+00 0.  1.
         21   -1    0    0  502  503 -0.00000000000E+00 -0.00000000000E+00 -0.30052454896E+03  0.30052454896E+03  0.00000000000E+00 0.  1.
          6    1    1    2  501    0  0.25617546264E+02  0.33237481856E+02  0.28226847683E+02  0.18024079396E+03  0.17300000000E+03 0.  1.
         -6    1    1    2    0  503 -0.25617546264E+02 -0.33237481856E+02 -0.18923081847E+03  0.25980433317E+03  0.17300000000E+03 0.  1.
<mgrwt>
<rscale>  2 0.17801682E+03</rscale>
<asrwt>0</asrwt>
<pdfrwt beam="1">  1       21 0.21464704E-01 0.17801682E+03</pdfrwt>
<pdfrwt beam="2">  1       21 0.46234546E-01 0.17801682E+03</pdfrwt>
<totfact> 0.91143611E+04</totfact>
</mgrwt>
</event>
<event>
 4    2  0.4039581E+000  0.2596711E+03  0.7546771E-02  0.1107341E+00
         21   -1    0    0  501  502  0.00000000000E+00  0.00000000000E+00  0.11117641947E+04  0.11117641947E+04  0.00000000000E+00 0. -1.
         21   -1    0    0  502  503 -0.00000000000E+00 -0.00000000000E+00 -0.19870234733E+03  0.19870234733E+03  0.00000000000E+00 0.  1.
          6    1    1    2  501    0 -0.19330104770E+03 -0.11610473601E+02  0.10026853932E+04  0.10357640155E+04  0.17300000000E+03 0. -1.
         -6    1    1    2    0  503  0.19330104770E+03  0.11610473601E+02 -0.89623545774E+02  0.27470252656E+03  0.17300000000E+03 0.  1.
<mgrwt>
<rscale>  2 0.25967113E+03</rscale>
<asrwt>0</asrwt>
<pdfrwt beam="1">  1       21 0.17104064E+00 0.25967113E+03</pdfrwt>
<pdfrwt beam="2">  1       21 0.30569592E-01 0.25967113E+03</pdfrwt>
<totfact> 0.20343962E+03</totfact>
</mgrwt>
</event>
<event>
 4    2  0.4039581E+000  0.1926076E+03  0.7546771E-02  0.1156130E+00
         21   -1    0    0  501  502  0.00000000000E+00  0.00000000000E+00  0.91917297090E+02  0.91917297090E+02  0.00000000000E+00 0.  1.
         21   -1    0    0  502  503 -0.00000000000E+00 -0.00000000000E+00 -0.44519117319E+03  0.44519117319E+03  0.00000000000E+00 0.  1.
          6    1    1    2  501    0  0.27324670095E+02  0.80137623684E+02 -0.94551231229E+02  0.21456377060E+03  0.17300000000E+03 0.  1.
         -6    1    1    2    0  503 -0.27324670095E+02 -0.80137623684E+02 -0.25872264488E+03  0.32254469969E+03  0.17300000000E+03 0.  1.
<mgrwt>
<rscale>  2 0.19260757E+03</rscale>
<asrwt>0</asrwt>
<pdfrwt beam="1">  1       21 0.14141123E-01 0.19260757E+03</pdfrwt>
<pdfrwt beam="2">  1       21 0.68490949E-01 0.19260757E+03</pdfrwt>
<totfact> 0.84885807E+04</totfact>
</mgrwt>
</event>
<event>
 4    2  0.4039581E+000  0.1762793E+03  0.7546771E-02  0.1171453E+00
         21   -1    0    0  501  502  0.00000000000E+00  0.00000000000E+00  0.34468737600E+03  0.34468737600E+03  0.00000000000E+00 0. -1.
         21   -1    0    0  502  503 -0.00000000000E+00 -0.00000000000E+00 -0.14200149893E+03  0.14200149893E+03  0.00000000000E+00 0. -1.
          6    1    1    2  501    0  0.23541602580E+02 -0.24314411338E+02  0.24838633432E+03  0.30458195732E+03  0.17300000000E+03 0. -1.
         -6    1    1    2    0  503 -0.23541602580E+02  0.24314411338E+02 -0.45700457248E+02  0.18210691762E+03  0.17300000000E+03 0. -1.
<mgrwt>
<rscale>  2 0.17627932E+03</rscale>
<asrwt>0</asrwt>
<pdfrwt beam="1">  1       21 0.53028827E-01 0.17627932E+03</pdfrwt>
<pdfrwt beam="2">  1       21 0.21846385E-01 0.17627932E+03</pdfrwt>
<totfact> 0.66367024E+04</totfact>
</mgrwt>
</event>
<event>
 4    2  0.4039581E+000  0.1884717E+03  0.7546771E-02  0.1159847E+00
         21   -1    0    0  503  502  0.00000000000E+00  0.00000000000E+00  0.14382935251E+04  0.14382935251E+04  0.00000000000E+00 0.  1.
         21   -1    0    0  501  503 -0.00000000000E+00 -0.00000000000E+00 -0.26815946635E+02  0.26815946635E+02  0.00000000000E+00 0. -1.
          6    1    1    2  501    0 -0.73257445379E+02 -0.15031175640E+02  0.49981825762E+03  0.53417214472E+03  0.17300000000E+03 0. -1.
         -6    1    1    2    0  502  0.73257445379E+02  0.15031175640E+02  0.91165932083E+03  0.93093732700E+03  0.17300000000E+03 0.  1.
<mgrwt>
<rscale>  2 0.18847172E+03</rscale>
<asrwt>0</asrwt>
<pdfrwt beam="1">  1       21 0.22127587E+00 0.18847172E+03</pdfrwt>
<pdfrwt beam="2">  1       21 0.41255314E-02 0.18847172E+03</pdfrwt>
<totfact> 0.36873403E+04</totfact>
</mgrwt>
</event>
<event>
 4    2  0.4039581E+000  0.1747573E+03  0.7546771E-02  0.1172976E+00
         21   -1    0    0  501  502  0.00000000000E+00  0.00000000000E+00  0.36662437330E+03  0.36662437330E+03  0.00000000000E+00 0. -1.
         21   -1    0    0  502  503 -0.00000000000E+00 -0.00000000000E+00 -0.83426934213E+02  0.83426934213E+02  0.00000000000E+00 0.  1.
          6    1    1    2  501    0  0.15319081088E+02 -0.19401897348E+02  0.13284937970E+03  0.21952008007E+03  0.17300000000E+03 0.  1.
         -6    1    1    2    0  503 -0.15319081088E+02  0.19401897348E+02  0.15034805939E+03  0.23053122745E+03  0.17300000000E+03 0. -1.
<mgrwt>
<rscale>  2 0.17475728E+03</rscale>
<asrwt>0</asrwt>
<pdfrwt beam="1">  1       21 0.56403749E-01 0.17475728E+03</pdfrwt>
<pdfrwt beam="2">  1       21 0.12834913E-01 0.17475728E+03</pdfrwt>
<totfact> 0.15470292E+05</totfact>
</mgrwt>
</event>
<event>
 4    2  0.4039581E+000  0.1962100E+03  0.7546771E-02  0.1152977E+00
         21   -1    0    0  503  502  0.00000000000E+00  0.00000000000E+00  0.10030963425E+04  0.10030963425E+04  0.00000000000E+00 0.  1.
         21   -1    0    0  501  503 -0.00000000000E+00 -0.00000000000E+00 -0.42594392352E+02  0.42594392352E+02  0.00000000000E+00 0.  1.
          6    1    1    2  501    0  0.91784327009E+02 -0.12041109763E+02  0.31577990136E+03  0.37177317966E+03  0.17300000000E+03 0.  1.
         -6    1    1    2    0  502 -0.91784327009E+02  0.12041109763E+02  0.64472204881E+03  0.67391755522E+03  0.17300000000E+03 0.  1.
<mgrwt>
<rscale>  2 0.19620997E+03</rscale>
<asrwt>0</asrwt>
<pdfrwt beam="1">  1       21 0.15432250E+00 0.19620997E+03</pdfrwt>
<pdfrwt beam="2">  1       21 0.65529842E-02 0.19620997E+03</pdfrwt>
<totfact> 0.46900199E+04</totfact>
</mgrwt>
</event>
<event>
 4    2  0.4039581E+000  0.1895860E+03  0.7546771E-02  0.1158835E+00
         21   -1    0    0  503  502  0.00000000000E+00  0.00000000000E+00  0.45087557102E+03  0.45087557102E+03  0.00000000000E+00 0.  1.
         21   -1    0    0  501  503 -0.00000000000E+00 -0.00000000000E+00 -0.84122767177E+02  0.84122767177E+02  0.00000000000E+00 0.  1.
          6    1    1    2  501    0  0.78782844708E+01  0.77147767107E+02  0.12216490734E+03  0.22553738032E+03  0.17300000000E+03 0.  1.
         -6    1    1    2    0  502 -0.78782844708E+01 -0.77147767107E+02  0.24458789650E+03  0.30946095787E+03  0.17300000000E+03 0.  1.
<mgrwt>
<rscale>  2 0.18958598E+03</rscale>
<asrwt>0</asrwt>
<pdfrwt beam="1">  1       21 0.69365471E-01 0.18958598E+03</pdfrwt>
<pdfrwt beam="2">  1       21 0.12941964E-01 0.18958598E+03</pdfrwt>
<totfact> 0.96988935E+04</totfact>
</mgrwt>
</event>
<event>
 4    2  0.4039581E+000  0.2149255E+03  0.7546771E-02  0.1137724E+00
         21   -1    0    0  501  502  0.00000000000E+00  0.00000000000E+00  0.12131187876E+03  0.12131187876E+03  0.00000000000E+00 0. -1.
         21   -1    0    0  502  503 -0.00000000000E+00 -0.00000000000E+00 -0.59250859198E+03  0.59250859198E+03  0.00000000000E+00 0. -1.
          6    1    1    2  501    0  0.49712039452E+02  0.11744221753E+03 -0.22243310947E+02  0.21607342781E+03  0.17300000000E+03 0. -1.
         -6    1    1    2    0  503 -0.49712039452E+02 -0.11744221753E+03 -0.44895340228E+03  0.49774704293E+03  0.17300000000E+03 0. -1.
<mgrwt>
<rscale>  2 0.21492548E+03</rscale>
<asrwt>0</asrwt>
<pdfrwt beam="1">  1       21 0.18663366E-01 0.21492548E+03</pdfrwt>
<pdfrwt beam="2">  1       21 0.91155167E-01 0.21492548E+03</pdfrwt>
<totfact> 0.26442520E+04</totfact>
</mgrwt>
</event>
<event>
 4    2  0.4039581E+000  0.1736393E+03  0.7546771E-02  0.1174105E+00
         21   -1    0    0  503  502  0.00000000000E+00  0.00000000000E+00  0.18868102641E+03  0.18868102641E+03  0.00000000000E+00 0. -1.
         21   -1    0    0  501  503 -0.00000000000E+00 -0.00000000000E+00 -0.34810717739E+03  0.34810717739E+03  0.00000000000E+00 0. -1.
          6    1    1    2  501    0 -0.12698439123E+02 -0.77698156226E+01 -0.27711602129E+03  0.32702279683E+03  0.17300000000E+03 0. -1.
         -6    1    1    2    0  502  0.12698439123E+02  0.77698156226E+01  0.11768987031E+03  0.20976540698E+03  0.17300000000E+03 0. -1.
<mgrwt>
<rscale>  2 0.17363934E+03</rscale>
<asrwt>0</asrwt>
<pdfrwt beam="1">  1       21 0.29027850E-01 0.17363934E+03</pdfrwt>
<pdfrwt beam="2">  1       21 0.53554950E-01 0.17363934E+03</pdfrwt>
<totfact> 0.37857705E+04</totfact>
</mgrwt>
</event>
<event>
 4    2  0.4039581E+000  0.1733234E+03  0.7546771E-02  0.1174426E+00
         21   -1    0    0  501  502  0.00000000000E+00  0.00000000000E+00  0.23495600365E+03  0.23495600365E+03  0.00000000000E+00 0.  1.
         21   -1    0    0  502  503 -0.00000000000E+00 -0.00000000000E+00 -0.17077673288E+03  0.17077673288E+03  0.00000000000E+00 0.  1.
          6    1    1    2  501    0 -0.68710465890E+01 -0.80497639945E+01  0.13378918660E+03  0.21895332021E+03  0.17300000000E+03 0.  1.
         -6    1    1    2    0  503  0.68710465890E+01  0.80497639945E+01 -0.69609915827E+02  0.18677941633E+03  0.17300000000E+03 0.  1.
<mgrwt>
<rscale>  2 0.17332343E+03</rscale>
<asrwt>0</asrwt>
<pdfrwt beam="1">  1       21 0.36147077E-01 0.17332343E+03</pdfrwt>
<pdfrwt beam="2">  1       21 0.26273344E-01 0.17332343E+03</pdfrwt>
<totfact> 0.10239519E+05</totfact>
</mgrwt>
</event>
<event>
 4    2  0.4039581E+000  0.2385494E+03  0.7546771E-02  0.1120763E+00
         21   -1    0    0  503  502  0.00000000000E+00  0.00000000000E+00  0.43940161354E+03  0.43940161354E+03  0.00000000000E+00 0. -1.
         21   -1    0    0  501  503 -0.00000000000E+00 -0.00000000000E+00 -0.13465419248E+03  0.13465419248E+03  0.00000000000E+00 0.  1.
          6    1    1    2  501    0 -0.14194611608E+03  0.82632536844E+02  0.96259189715E+02  0.25723854225E+03  0.17300000000E+03 0.  1.
         -6    1    1    2    0  502  0.14194611608E+03 -0.82632536844E+02  0.20848823134E+03  0.31681726377E+03  0.17300000000E+03 0. -1.
<mgrwt>
<rscale>  2 0.23854944E+03</rscale>
<asrwt>0</asrwt>
<pdfrwt beam="1">  1       21 0.67600247E-01 0.23854944E+03</pdfrwt>
<pdfrwt beam="2">  1       21 0.20716030E-01 0.23854944E+03</pdfrwt>
<totfact> 0.42296837E+04</totfact>
</mgrwt>
</event>
<event>
 4    2  0.4039581E+000  0.1980584E+03  0.7546771E-02  0.1151388E+00
         21   -1    0    0  503  502  0.00000000000E+00  0.00000000000E+00  0.42850991917E+03  0.42850991917E+03  0.00000000000E+00 0. -1.
         21   -1    0    0  501  503 -0.00000000000E+00 -0.00000000000E+00 -0.11604229407E+03  0.11604229407E+03  0.00000000000E+00 0. -1.
          6    1    1    2  501    0  0.52913737166E+02 -0.80611795761E+02  0.31128053451E+02  0.20048960299E+03  0.17300000000E+03 0. -1.
         -6    1    1    2    0  502 -0.52913737166E+02  0.80611795761E+02  0.28133957165E+03  0.34406261025E+03  0.17300000000E+03 0. -1.
<mgrwt>
<rscale>  2 0.19805839E+03</rscale>
<asrwt>0</asrwt>
<pdfrwt beam="1">  1       21 0.65924602E-01 0.19805839E+03</pdfrwt>
<pdfrwt beam="2">  1       21 0.17852661E-01 0.19805839E+03</pdfrwt>
<totfact> 0.60091633E+04</totfact>
</mgrwt>
</event>
<event>
 4    2  0.4039581E+000  0.1952692E+03  0.7546771E-02  0.1153793E+00
         21   -1    0    0  503  502  0.00000000000E+00  0.00000000000E+00  0.18466637076E+03  0.18466637076E+03  0.00000000000E+00 0. -1.
         21   -1    0    0  501  503 -0.00000000000E+00 -0.00000000000E+00 -0.21392341447E+03  0.21392341447E+03  0.00000000000E+00 0. -1.
          6    1    1    2  501    0 -0.74540405703E+02  0.51427664615E+02 -0.51801479344E+02  0.20202343931E+03  0.17300000000E+03 0. -1.
         -6    1    1    2    0  502  0.74540405703E+02 -0.51427664615E+02  0.22544435635E+02  0.19656634592E+03  0.17300000000E+03 0. -1.
<mgrwt>
<rscale>  2 0.19526924E+03</rscale>
<asrwt>0</asrwt>
<pdfrwt beam="1">  1       21 0.28410211E-01 0.19526924E+03</pdfrwt>
<pdfrwt beam="2">  1       21 0.32911295E-01 0.19526924E+03</pdfrwt>
<totfact> 0.10517266E+05</totfact>
</mgrwt>
</event>
<event>
 4    2  0.4039581E+000  0.1788256E+03  0.7546771E-02  0.1168944E+00
         21   -1    0    0  503  502  0.00000000000E+00  0.00000000000E+00  0.61159730680E+03  0.61159730680E+03  0.00000000000E+00 0.  1.
         21   -1    0    0  501  503 -0.00000000000E+00 -0.00000000000E+00 -0.17801224684E+03  0.17801224684E+03  0.00000000000E+00 0.  1.
          6    1    1    2  501    0  0.30169366535E+02  0.33755163231E+02 -0.11500157724E+03  0.21261223975E+03  0.17300000000E+03 0.  1.
         -6    1    1    2    0  502 -0.30169366535E+02 -0.33755163231E+02  0.54858663720E+03  0.57699731389E+03  0.17300000000E+03 0.  1.
<mgrwt>
<rscale>  2 0.17882562E+03</rscale>
<asrwt>0</asrwt>
<pdfrwt beam="1">  1       21 0.94091893E-01 0.17882562E+03</pdfrwt>
<pdfrwt beam="2">  1       21 0.27386500E-01 0.17882562E+03</pdfrwt>
<totfact> 0.12161495E+04</totfact>
</mgrwt>
</event>
<event>
 4    2  0.4039581E+000  0.2341309E+03  0.7546771E-02  0.1123766E+00
         21   -1    0    0  503  502  0.00000000000E+00  0.00000000000E+00  0.66484374461E+02  0.66484374461E+02  0.00000000000E+00 0.  1.
         21   -1    0    0  501  503 -0.00000000000E+00 -0.00000000000E+00 -0.90001197548E+03  0.90001197548E+03  0.00000000000E+00 0. -1.
          6    1    1    2  501    0  0.11267008608E+03  0.11042512570E+03 -0.55672752744E+03  0.60395595576E+03  0.17300000000E+03 0. -1.
         -6    1    1    2    0  502 -0.11267008608E+03 -0.11042512570E+03 -0.27680007357E+03  0.36254039418E+03  0.17300000000E+03 0.  1.
<mgrwt>
<rscale>  2 0.23413085E+03</rscale>
<asrwt>0</asrwt>
<pdfrwt beam="1">  1       21 0.10228365E-01 0.23413085E+03</pdfrwt>
<pdfrwt beam="2">  1       21 0.13846339E+00 0.23413085E+03</pdfrwt>
<totfact> 0.28019077E+04</totfact>
</mgrwt>
</event>
<event>
 4    2  0.4039581E+000  0.1744685E+03  0.7546771E-02  0.1173266E+00
         21   -1    0    0  501  502  0.00000000000E+00  0.00000000000E+00  0.31561351306E+03  0.31561351306E+03  0.00000000000E+00 0.  1.
         21   -1    0    0  502  503 -0.00000000000E+00 -0.00000000000E+00 -0.31136958134E+03  0.31136958134E+03  0.00000000000E+00 0.  1.
          6    1    1    2  501    0  0.65115175827E+01  0.21630328167E+02  0.26257596278E+03  0.31525451176E+03  0.17300000000E+03 0.  1.
         -6    1    1    2    0  503 -0.65115175827E+01 -0.21630328167E+02 -0.25833203106E+03  0.31172858263E+03  0.17300000000E+03 0.  1.
<mgrwt>
<rscale>  2 0.17446854E+03</rscale>
<asrwt>0</asrwt>
<pdfrwt beam="1">  1       21 0.48555925E-01 0.17446854E+03</pdfrwt>
<pdfrwt beam="2">  1       21 0.47903012E-01 0.17446854E+03</pdfrwt>
<totfact> 0.17062763E+04</totfact>
</mgrwt>
</event>
<event>
 4    2  0.4039581E+000  0.1739583E+03  0.7546771E-02  0.1173782E+00
         21   -1    0    0  501  502  0.00000000000E+00  0.00000000000E+00  0.47615955277E+03  0.47615955277E+03  0.00000000000E+00 0. -1.
         21   -1    0    0  502  503 -0.00000000000E+00 -0.00000000000E+00 -0.12652612898E+03  0.12652612898E+03  0.00000000000E+00 0. -1.
          6    1    1    2  501    0  0.16712135284E+02 -0.72927950778E+01  0.38740904152E+03  0.42467310461E+03  0.17300000000E+03 0. -1.
         -6    1    1    2    0  503 -0.16712135284E+02  0.72927950778E+01 -0.37775617736E+02  0.17801257714E+03  0.17300000000E+03 0. -1.
<mgrwt>
<rscale>  2 0.17395827E+03</rscale>
<asrwt>0</asrwt>
<pdfrwt beam="1">  1       21 0.73255315E-01 0.17395827E+03</pdfrwt>
<pdfrwt beam="2">  1       21 0.19465559E-01 0.17395827E+03</pdfrwt>
<totfact> 0.41072579E+04</totfact>
</mgrwt>
</event>
<event>
 4    2  0.4039581E+000  0.2699873E+03  0.7546771E-02  0.1101287E+00
         21   -1    0    0  501  502  0.00000000000E+00  0.00000000000E+00  0.63632342525E+03  0.63632342525E+03  0.00000000000E+00 0.  1.
         21   -1    0    0  502  503 -0.00000000000E+00 -0.00000000000E+00 -0.11628164455E+03  0.11628164455E+03  0.00000000000E+00 0. -1.
          6    1    1    2  501    0 -0.19657975837E+03  0.65730823190E+02  0.30589401877E+03  0.40800035936E+03  0.17300000000E+03 0. -1.
         -6    1    1    2    0  503  0.19657975837E+03 -0.65730823190E+02  0.21414776193E+03  0.34460471044E+03  0.17300000000E+03 0.  1.
<mgrwt>
<rscale>  2 0.26998730E+03</rscale>
<asrwt>0</asrwt>
<pdfrwt beam="1">  1       21 0.97895909E-01 0.26998730E+03</pdfrwt>
<pdfrwt beam="2">  1       21 0.17889484E-01 0.26998730E+03</pdfrwt>
<totfact> 0.23542338E+04</totfact>
</mgrwt>
</event>
<event>
 4    2  0.4039581E+000  0.1781412E+03  0.7546771E-02  0.1169614E+00
         21   -1    0    0  503  502  0.00000000000E+00  0.00000000000E+00  0.86174452203E+02  0.86174452203E+02  0.00000000000E+00 0. -1.
         21   -1    0    0  501  503 -0.00000000000E+00 -0.00000000000E+00 -0.85606843344E+03  0.85606843344E+03  0.00000000000E+00 0. -1.
          6    1    1    2  501    0  0.30456607815E+02  0.29625799991E+02 -0.74058231128E+03  0.76170627722E+03  0.17300000000E+03 0. -1.
         -6    1    1    2    0  502 -0.30456607815E+02 -0.29625799991E+02 -0.29311669963E+02  0.18053660842E+03  0.17300000000E+03 0. -1.
<mgrwt>
<rscale>  2 0.17814122E+03</rscale>
<asrwt>0</asrwt>
<pdfrwt beam="1">  1       21 0.13257608E-01 0.17814122E+03</pdfrwt>
<pdfrwt beam="2">  1       21 0.13170284E+00 0.17814122E+03</pdfrwt>
<totfact> 0.20716930E+04</totfact>
</mgrwt>
</event>
<event>
 4    2  0.4039581E+000  0.1792390E+03  0.7546771E-02  0.1168542E+00
         21   -1    0    0  503  502  0.00000000000E+00  0.00000000000E+00  0.72094128409E+03  0.72094128409E+03  0.00000000000E+00 0. -1.
         21   -1    0    0  501  503 -0.00000000000E+00 -0.00000000000E+00 -0.49955845045E+02  0.49955845045E+02  0.00000000000E+00 0. -1.
          6    1    1    2  501    0 -0.30691562258E+00  0.46877952072E+02  0.20883850147E+03  0.27520929542E+03  0.17300000000E+03 0. -1.
         -6    1    1    2    0  502  0.30691562258E+00 -0.46877952072E+02  0.46214693757E+03  0.49568783372E+03  0.17300000000E+03 0. -1.
<mgrwt>
<rscale>  2 0.17923905E+03</rscale>
<asrwt>0</asrwt>
<pdfrwt beam="1">  1       21 0.11091404E+00 0.17923905E+03</pdfrwt>
<pdfrwt beam="2">  1       21 0.76855151E-02 0.17923905E+03</pdfrwt>
<totfact> 0.82861803E+04</totfact>
</mgrwt>
</event>
<event>
 4    2  0.4039581E+000  0.1963525E+03  0.7546771E-02  0.1152853E+00
         21   -1    0    0  503  502  0.00000000000E+00  0.00000000000E+00  0.19574409803E+02  0.19574409803E+02  0.00000000000E+00 0. -1.
         21   -1    0    0  501  503 -0.00000000000E+00 -0.00000000000E+00 -0.23605048214E+04  0.23605048214E+04  0.00000000000E+00 0. -1.
          6    1    1    2  501    0  0.87178991950E+02 -0.32017527924E+02 -0.16547257970E+04  0.16663348289E+04  0.17300000000E+03 0. -1.
         -6    1    1    2    0  502 -0.87178991950E+02  0.32017527924E+02 -0.68620461460E+03  0.71374440231E+03  0.17300000000E+03 0. -1.
<mgrwt>
<rscale>  2 0.19635249E+03</rscale>
<asrwt>0</asrwt>
<pdfrwt beam="1">  1       21 0.30114478E-02 0.19635249E+03</pdfrwt>
<pdfrwt beam="2">  1       21 0.36315457E+00 0.19635249E+03</pdfrwt>
<totfact> 0.91438641E+03</totfact>
</mgrwt>
</event>
<event>
 4    2  0.4039581E+000  0.1786832E+03  0.7546771E-02  0.1169084E+00
         21   -1    0    0  501  502  0.00000000000E+00  0.00000000000E+00  0.77268032019E+03  0.77268032019E+03  0.00000000000E+00 0.  1.
         21   -1    0    0  502  503 -0.00000000000E+00 -0.00000000000E+00 -0.59355310296E+02  0.59355310296E+02  0.00000000000E+00 0.  1.
          6    1    1    2  501    0 -0.39638335935E+02 -0.20675888516E+02  0.58597913247E+03  0.61261671029E+03  0.17300000000E+03 0.  1.
         -6    1    1    2    0  503  0.39638335935E+02  0.20675888516E+02  0.12734587742E+03  0.21941892019E+03  0.17300000000E+03 0.  1.
<mgrwt>
<rscale>  2 0.17868321E+03</rscale>
<asrwt>0</asrwt>
<pdfrwt beam="1">  1       21 0.11887389E+00 0.17868321E+03</pdfrwt>
<pdfrwt beam="2">  1       21 0.91315868E-02 0.17868321E+03</pdfrwt>
<totfact> 0.51848955E+04</totfact>
</mgrwt>
</event>
<event>
 4    2  0.4039581E+000  0.2030866E+03  0.7546771E-02  0.1147161E+00
         21   -1    0    0  503  502  0.00000000000E+00  0.00000000000E+00  0.37582283896E+03  0.37582283896E+03  0.00000000000E+00 0. -1.
         21   -1    0    0  501  503 -0.00000000000E+00 -0.00000000000E+00 -0.13162426861E+03  0.13162426861E+03  0.00000000000E+00 0.  1.
          6    1    1    2  501    0 -0.85070761296E+02  0.63860313497E+02  0.18651191099E+02  0.20394126850E+03  0.17300000000E+03 0.  1.
         -6    1    1    2    0  502  0.85070761296E+02 -0.63860313497E+02  0.22554737924E+03  0.30350583907E+03  0.17300000000E+03 0. -1.
<mgrwt>
<rscale>  2 0.20308662E+03</rscale>
<asrwt>0</asrwt>
<pdfrwt beam="1">  1       21 0.57818898E-01 0.20308662E+03</pdfrwt>
<pdfrwt beam="2">  1       21 0.20249888E-01 0.20308662E+03</pdfrwt>
<totfact> 0.62956974E+04</totfact>
</mgrwt>
</event>
<event>
 4    2  0.4039581E+000  0.1836518E+03  0.7546771E-02  0.1164315E+00
         21   -1    0    0  501  502  0.00000000000E+00  0.00000000000E+00  0.90297240042E+02  0.90297240042E+02  0.00000000000E+00 0. -1.
         21   -1    0    0  502  503 -0.00000000000E+00 -0.00000000000E+00 -0.49412015226E+03  0.49412015226E+03  0.00000000000E+00 0. -1.
          6    1    1    2  501    0 -0.21387184128E+02  0.57806281609E+02 -0.57551169531E+02  0.19245808622E+03  0.17300000000E+03 0. -1.
         -6    1    1    2    0  503  0.21387184128E+02 -0.57806281609E+02 -0.34627174269E+03  0.39195930608E+03  0.17300000000E+03 0. -1.
<mgrwt>
<rscale>  2 0.18365178E+03</rscale>
<asrwt>0</asrwt>
<pdfrwt beam="1">  1       21 0.13891883E-01 0.18365178E+03</pdfrwt>
<pdfrwt beam="2">  1       21 0.76018484E-01 0.18365178E+03</pdfrwt>
<totfact> 0.69837630E+04</totfact>
</mgrwt>
</event>
<event>
 4    2  0.4039581E+000  0.1909622E+03  0.7546771E-02  0.1157596E+00
         21   -1    0    0  503  502  0.00000000000E+00  0.00000000000E+00  0.70458738533E+03  0.70458738533E+03  0.00000000000E+00 0.  1.
         21   -1    0    0  501  503 -0.00000000000E+00 -0.00000000000E+00 -0.78731209847E+02  0.78731209847E+02  0.00000000000E+00 0.  1.
          6    1    1    2  501    0 -0.15287478503E+01  0.80840671037E+02  0.83673394946E+02  0.20848929993E+03  0.17300000000E+03 0.  1.
         -6    1    1    2    0  502  0.15287478503E+01 -0.80840671037E+02  0.54218278054E+03  0.57482929525E+03  0.17300000000E+03 0.  1.
<mgrwt>
<rscale>  2 0.19096217E+03</rscale>
<asrwt>0</asrwt>
<pdfrwt beam="1">  1       21 0.10839805E+00 0.19096217E+03</pdfrwt>
<pdfrwt beam="2">  1       21 0.12112494E-01 0.19096217E+03</pdfrwt>
<totfact> 0.39087850E+04</totfact>
</mgrwt>
</event>
<event>
 4    2  0.4039581E+000  0.1912449E+03  0.7546771E-02  0.1157343E+00
         21   -1    0    0  501  502  0.00000000000E+00  0.00000000000E+00  0.87852448845E+02  0.87852448845E+02  0.00000000000E+00 0. -1.
         21   -1    0    0  502  503 -0.00000000000E+00 -0.00000000000E+00 -0.63943507974E+03  0.63943507974E+03  0.00000000000E+00 0. -1.
          6    1    1    2  501    0  0.80525983998E+02  0.12695159253E+02 -0.60986594711E+02  0.20073356944E+03  0.17300000000E+03 0. -1.
         -6    1    1    2    0  503 -0.80525983998E+02 -0.12695159253E+02 -0.49059603618E+03  0.52655395914E+03  0.17300000000E+03 0. -1.
<mgrwt>
<rscale>  2 0.19124487E+03</rscale>
<asrwt>0</asrwt>
<pdfrwt beam="1">  1       21 0.13515761E-01 0.19124487E+03</pdfrwt>
<pdfrwt beam="2">  1       21 0.98374627E-01 0.19124487E+03</pdfrwt>
<totfact> 0.40470646E+04</totfact>
</mgrwt>
</event>
<event>
 4    2  0.4039581E+000  0.3002350E+03  0.7546771E-02  0.1085123E+00
         21   -1    0    0  503  502  0.00000000000E+00  0.00000000000E+00  0.19386671791E+03  0.19386671791E+03  0.00000000000E+00 0.  1.
         21   -1    0    0  501  503 -0.00000000000E+00 -0.00000000000E+00 -0.47717171768E+03  0.47717171768E+03  0.00000000000E+00 0.  1.
          6    1    1    2  501    0 -0.15408982735E+03  0.19096701569E+03 -0.87987094390E+02  0.31286227761E+03  0.17300000000E+03 0.  1.
         -6    1    1    2    0  502  0.15408982735E+03 -0.19096701569E+03 -0.19531790538E+03  0.35817615797E+03  0.17300000000E+03 0.  1.
<mgrwt>
<rscale>  2 0.30023503E+03</rscale>
<asrwt>0</asrwt>
<pdfrwt beam="1">  1       21 0.29825649E-01 0.30023503E+03</pdfrwt>
<pdfrwt beam="2">  1       21 0.73411033E-01 0.30023503E+03</pdfrwt>
<totfact> 0.17008902E+04</totfact>
</mgrwt>
</event>
<event>
 4    2  0.4039581E+000  0.2156990E+03  0.7546771E-02  0.1137131E+00
         21   -1    0    0  503  502  0.00000000000E+00  0.00000000000E+00  0.18073236837E+03  0.18073236837E+03  0.00000000000E+00 0.  1.
         21   -1    0    0  501  503 -0.00000000000E+00 -0.00000000000E+00 -0.37895899503E+03  0.37895899503E+03  0.00000000000E+00 0. -1.
          6    1    1    2  501    0  0.76406131393E+02  0.10372639905E+03 -0.25758846489E+03  0.33597303466E+03  0.17300000000E+03 0. -1.
         -6    1    1    2    0  502 -0.76406131393E+02 -0.10372639905E+03  0.59361838227E+02  0.22371832874E+03  0.17300000000E+03 0.  1.
<mgrwt>
<rscale>  2 0.21569901E+03</rscale>
<asrwt>0</asrwt>
<pdfrwt beam="1">  1       21 0.27804980E-01 0.21569901E+03</pdfrwt>
<pdfrwt beam="2">  1       21 0.58301383E-01 0.21569901E+03</pdfrwt>
<totfact> 0.33618969E+04</totfact>
</mgrwt>
</event>
<event>
 4    2  0.4039581E+000  0.2429617E+03  0.7546771E-02  0.1117835E+00
         21   -1    0    0  503  502  0.00000000000E+00  0.00000000000E+00  0.16158309741E+03  0.16158309741E+03  0.00000000000E+00 0. -1.
         21   -1    0    0  501  503 -0.00000000000E+00 -0.00000000000E+00 -0.52197414034E+03  0.52197414034E+03  0.00000000000E+00 0. -1.
          6    1    1    2  501    0  0.95493115243E+02  0.14135929390E+03 -0.36742923957E+03  0.44049362212E+03  0.17300000000E+03 0. -1.
         -6    1    1    2    0  502 -0.95493115243E+02 -0.14135929390E+03  0.70381966452E+01  0.24306361563E+03  0.17300000000E+03 0. -1.
<mgrwt>
<rscale>  2 0.24296169E+03</rscale>
<asrwt>0</asrwt>
<pdfrwt beam="1">  1       21 0.24858938E-01 0.24296169E+03</pdfrwt>
<pdfrwt beam="2">  1       21 0.80303715E-01 0.24296169E+03</pdfrwt>
<totfact> 0.20298903E+04</totfact>
</mgrwt>
</event>
<event>
 4    2  0.4039581E+000  0.1907740E+03  0.7546771E-02  0.1157765E+00
         21   -1    0    0  503  502  0.00000000000E+00  0.00000000000E+00  0.21987326326E+03  0.21987326326E+03  0.00000000000E+00 0. -1.
         21   -1    0    0  501  503 -0.00000000000E+00 -0.00000000000E+00 -0.25656751788E+03  0.25656751788E+03  0.00000000000E+00 0. -1.
          6    1    1    2  501    0 -0.40056084152E+02 -0.69722383577E+02 -0.16025231977E+03  0.24914956681E+03  0.17300000000E+03 0. -1.
         -6    1    1    2    0  502  0.40056084152E+02  0.69722383577E+02  0.12355806515E+03  0.22729121433E+03  0.17300000000E+03 0. -1.
<mgrwt>
<rscale>  2 0.19077395E+03</rscale>
<asrwt>0</asrwt>
<pdfrwt beam="1">  1       21 0.33826656E-01 0.19077395E+03</pdfrwt>
<pdfrwt beam="2">  1       21 0.39471926E-01 0.19077395E+03</pdfrwt>
<totfact> 0.52139728E+04</totfact>
</mgrwt>
</event>
<event>
 4    2  0.4039581E+000  0.2193185E+03  0.7546771E-02  0.1134392E+00
         21   -1    0    0  503  502  0.00000000000E+00  0.00000000000E+00  0.80448981880E+03  0.80448981880E+03  0.00000000000E+00 0. -1.
         21   -1    0    0  501  503 -0.00000000000E+00 -0.00000000000E+00 -0.77291650376E+02  0.77291650376E+02  0.00000000000E+00 0. -1.
          6    1    1    2  501    0 -0.77065630835E+02 -0.11060057878E+03  0.15380085381E+03  0.26787180164E+03  0.17300000000E+03 0. -1.
         -6    1    1    2    0  502  0.77065630835E+02  0.11060057878E+03  0.57339731461E+03  0.61390966753E+03  0.17300000000E+03 0. -1.
<mgrwt>
<rscale>  2 0.21931849E+03</rscale>
<asrwt>0</asrwt>
<pdfrwt beam="1">  1       21 0.12376766E+00 0.21931849E+03</pdfrwt>
<pdfrwt beam="2">  1       21 0.11891024E-01 0.21931849E+03</pdfrwt>
<totfact> 0.28717312E+04</totfact>
</mgrwt>
</event>
<event>
 4    2  0.4039581E+000  0.1745299E+03  0.7546771E-02  0.1173205E+00
         21   -1    0    0  503  502  0.00000000000E+00  0.00000000000E+00  0.71560073762E+02  0.71560073762E+02  0.00000000000E+00 0. -1.
         21   -1    0    0  501  503 -0.00000000000E+00 -0.00000000000E+00 -0.45353357877E+03  0.45353357877E+03  0.00000000000E+00 0. -1.
          6    1    1    2  501    0 -0.21448366649E+02  0.84650589574E+01 -0.25606738193E+03  0.30988900230E+03  0.17300000000E+03 0. -1.
         -6    1    1    2    0  502  0.21448366649E+02 -0.84650589574E+01 -0.12590612308E+03  0.21520465024E+03  0.17300000000E+03 0. -1.
<mgrwt>
<rscale>  2 0.17452991E+03</rscale>
<asrwt>0</asrwt>
<pdfrwt beam="1">  1       21 0.11009242E-01 0.17452991E+03</pdfrwt>
<pdfrwt beam="2">  1       21 0.69774400E-01 0.17452991E+03</pdfrwt>
<totfact> 0.12853595E+05</totfact>
</mgrwt>
</event>
<event>
 4    2  0.4039581E+000  0.2765016E+03  0.7546771E-02  0.1097615E+00
         21   -1    0    0  503  502  0.00000000000E+00  0.00000000000E+00  0.58538413151E+02  0.58538413151E+02  0.00000000000E+00 0.  1.
         21   -1    0    0  501  503 -0.00000000000E+00 -0.00000000000E+00 -0.13101325297E+04  0.13101325297E+04  0.00000000000E+00 0. -1.
          6    1    1    2  501    0  0.69004062956E+00  0.21569348243E+03 -0.58752088399E+03  0.64933346105E+03  0.17300000000E+03 0. -1.
         -6    1    1    2    0  502 -0.69004062956E+00 -0.21569348243E+03 -0.66407323258E+03  0.71933748181E+03  0.17300000000E+03 0.  1.
<mgrwt>
<rscale>  2 0.27650164E+03</rscale>
<asrwt>0</asrwt>
<pdfrwt beam="1">  1       21 0.90059101E-02 0.27650164E+03</pdfrwt>
<pdfrwt beam="2">  1       21 0.20155884E+00 0.27650164E+03</pdfrwt>
<totfact> 0.12072224E+04</totfact>
</mgrwt>
</event>
<event>
 4    2  0.4039581E+000  0.2371882E+03  0.7546771E-02  0.1121680E+00
         21   -1    0    0  501  502  0.00000000000E+00  0.00000000000E+00  0.22885809671E+03  0.22885809671E+03  0.00000000000E+00 0. -1.
         21   -1    0    0  502  503 -0.00000000000E+00 -0.00000000000E+00 -0.41329054803E+03  0.41329054803E+03  0.00000000000E+00 0.  1.
          6    1    1    2  501    0  0.15635282137E+03  0.43393950669E+02  0.11216693884E+03  0.26237313481E+03  0.17300000000E+03 0. -1.
         -6    1    1    2    0  503 -0.15635282137E+03 -0.43393950669E+02 -0.29659939015E+03  0.37977550993E+03  0.17300000000E+03 0. -1.
<mgrwt>
<rscale>  2 0.23718819E+03</rscale>
<asrwt>0</asrwt>
<pdfrwt beam="1">  1       21 0.35208939E-01 0.23718819E+03</pdfrwt>
<pdfrwt beam="2">  1       21 0.63583160E-01 0.23718819E+03</pdfrwt>
<totfact> 0.17328060E+04</totfact>
</mgrwt>
</event>
<event>
 4    2  0.4039581E+000  0.2940537E+03  0.7546771E-02  0.1088251E+00
         21   -1    0    0  501  502  0.00000000000E+00  0.00000000000E+00  0.46745381932E+03  0.46745381932E+03  0.00000000000E+00 0. -1.
         21   -1    0    0  502  503 -0.00000000000E+00 -0.00000000000E+00 -0.36123507104E+03  0.36123507104E+03  0.00000000000E+00 0. -1.
          6    1    1    2  501    0 -0.11026875847E+03 -0.21066420671E+03  0.34253877772E+03  0.45144260025E+03  0.17300000000E+03 0. -1.
         -6    1    1    2    0  503  0.11026875847E+03  0.21066420671E+03 -0.23632002944E+03  0.37724629010E+03  0.17300000000E+03 0. -1.
<mgrwt>
<rscale>  2 0.29405375E+03</rscale>
<asrwt>0</asrwt>
<pdfrwt beam="1">  1       21 0.71915973E-01 0.29405375E+03</pdfrwt>
<pdfrwt beam="2">  1       21 0.55574626E-01 0.29405375E+03</pdfrwt>
<totfact> 0.49909873E+03</totfact>
</mgrwt>
</event>
<event>
 4    2  0.4039581E+000  0.1744241E+03  0.7546771E-02  0.1173311E+00
         21   -1    0    0  501  502  0.00000000000E+00  0.00000000000E+00  0.95248153553E+03  0.95248153553E+03  0.00000000000E+00 0. -1.
         21   -1    0    0  502  503 -0.00000000000E+00 -0.00000000000E+00 -0.94587852850E+02  0.94587852850E+02  0.00000000000E+00 0. -1.
          6    1    1    2  501    0  0.17137251980E+02 -0.14180407461E+02  0.85501137798E+03  0.87262146767E+03  0.17300000000E+03 0. -1.
         -6    1    1    2    0  503 -0.17137251980E+02  0.14180407461E+02  0.28823047037E+01  0.17444792071E+03  0.17300000000E+03 0. -1.
<mgrwt>
<rscale>  2 0.17442411E+03</rscale>
<asrwt>0</asrwt>
<pdfrwt beam="1">  1       21 0.14653561E+00 0.17442411E+03</pdfrwt>
<pdfrwt beam="2">  1       21 0.14551978E-01 0.17442411E+03</pdfrwt>
<totfact> 0.13351114E+04</totfact>
</mgrwt>
</event>
<event>
 4    2  0.4039581E+000  0.2471467E+03  0.7546771E-02  0.1115121E+00
         21   -1    0    0  501  502  0.00000000000E+00  0.00000000000E+00  0.20162135286E+03  0.20162135286E+03  0.00000000000E+00 0.  1.
         21   -1    0    0  502  503 -0.00000000000E+00 -0.00000000000E+00 -0.77079996172E+03  0.77079996172E+03  0.00000000000E+00 0. -1.
          6    1    1    2  501    0 -0.36597185281E+02  0.17266483296E+03  0.94207422758E+02  0.26449298103E+03  0.17300000000E+03 0.  1.
         -6    1    1    2    0  503  0.36597185281E+02 -0.17266483296E+03 -0.66338603162E+03  0.70792833356E+03  0.17300000000E+03 0. -1.
<mgrwt>
<rscale>  2 0.24714671E+03</rscale>
<asrwt>0</asrwt>
<pdfrwt beam="1">  1       21 0.31018670E-01 0.24714671E+03</pdfrwt>
<pdfrwt beam="2">  1       21 0.11858461E+00 0.24714671E+03</pdfrwt>
<totfact> 0.52189744E+03</totfact>
</mgrwt>
</event>
<event>
 4    2  0.4039581E+000  0.2283495E+03  0.7546771E-02  0.1127807E+00
         21   -1    0    0  501  502  0.00000000000E+00  0.00000000000E+00  0.81889616128E+03  0.81889616128E+03  0.00000000000E+00 0.  1.
         21   -1    0    0  502  503 -0.00000000000E+00 -0.00000000000E+00 -0.65543190568E+02  0.65543190568E+02  0.00000000000E+00 0. -1.
          6    1    1    2  501    0  0.64414751923E+02 -0.13440705258E+03  0.45132855475E+03  0.50580725616E+03  0.17300000000E+03 0. -1.
         -6    1    1    2    0  503 -0.64414751923E+02  0.13440705258E+03  0.30202441596E+03  0.37863209569E+03  0.17300000000E+03 0. -1.
<mgrwt>
<rscale>  2 0.22834955E+03</rscale>
<asrwt>0</asrwt>
<pdfrwt beam="1">  1       21 0.12598402E+00 0.22834955E+03</pdfrwt>
<pdfrwt beam="2">  1       21 0.10083568E-01 0.22834955E+03</pdfrwt>
<totfact> 0.36677222E+04</totfact>
</mgrwt>
</event>
<event>
 4    2  0.4039581E+000  0.1792012E+03  0.7546771E-02  0.1168578E+00
         21   -1    0    0  503  502  0.00000000000E+00  0.00000000000E+00  0.26090107748E+03  0.26090107748E+03  0.00000000000E+00 0. -1.
         21   -1    0    0  501  503 -0.00000000000E+00 -0.00000000000E+00 -0.23991030824E+03  0.23991030824E+03  0.00000000000E+00 0. -1.
          6    1    1    2  501    0  0.42003455383E+02  0.20488324982E+02 -0.16424280698E+03  0.24308179975E+03  0.17300000000E+03 0. -1.
         -6    1    1    2    0  502 -0.42003455383E+02 -0.20488324982E+02  0.18523357622E+03  0.25772958597E+03  0.17300000000E+03 0. -1.
<mgrwt>
<rscale>  2 0.17920118E+03</rscale>
<asrwt>0</asrwt>
<pdfrwt beam="1">  1       21 0.40138627E-01 0.17920118E+03</pdfrwt>
<pdfrwt beam="2">  1       21 0.36909278E-01 0.17920118E+03</pdfrwt>
<totfact> 0.42627799E+04</totfact>
</mgrwt>
</event>
<event>
 4    2  0.4039581E+000  0.2227036E+03  0.7546771E-02  0.1131883E+00
         21   -1    0    0  501  502  0.00000000000E+00  0.00000000000E+00  0.90648082878E+02  0.90648082878E+02  0.00000000000E+00 0.  1.
         21   -1    0    0  502  503 -0.00000000000E+00 -0.00000000000E+00 -0.61168889243E+03  0.61168889243E+03  0.00000000000E+00 0.  1.
          6    1    1    2  501    0 -0.13334444708E+03 -0.43441388103E+02 -0.14644142375E+03  0.26653702624E+03  0.17300000000E+03 0.  1.
         -6    1    1    2    0  503  0.13334444708E+03  0.43441388103E+02 -0.37459938580E+03  0.43579994907E+03  0.17300000000E+03 0.  1.
<mgrwt>
<rscale>  2 0.22270361E+03</rscale>
<asrwt>0</asrwt>
<pdfrwt beam="1">  1       21 0.13945859E-01 0.22270361E+03</pdfrwt>
<pdfrwt beam="2">  1       21 0.94105985E-01 0.22270361E+03</pdfrwt>
<totfact> 0.41759640E+04</totfact>
</mgrwt>
</event>
<event>
 4    2  0.4039581E+000  0.2096417E+03  0.7546771E-02  0.1141850E+00
         21   -1    0    0  501  502  0.00000000000E+00  0.00000000000E+00  0.48501551474E+03  0.48501551474E+03  0.00000000000E+00 0. -1.
         21   -1    0    0  502  503 -0.00000000000E+00 -0.00000000000E+00 -0.90631946708E+02  0.90631946708E+02  0.00000000000E+00 0. -1.
          6    1    1    2  501    0 -0.11837701110E+03  0.27402874448E+01  0.20114067457E+03  0.29052916704E+03  0.17300000000E+03 0. -1.
         -6    1    1    2    0  503  0.11837701110E+03 -0.27402874448E+01  0.19324289346E+03  0.28511829441E+03  0.17300000000E+03 0. -1.
<mgrwt>
<rscale>  2 0.20964166E+03</rscale>
<asrwt>0</asrwt>
<pdfrwt beam="1">  1       21 0.74617770E-01 0.20964166E+03</pdfrwt>
<pdfrwt beam="2">  1       21 0.13943377E-01 0.20964166E+03</pdfrwt>
<totfact> 0.71482205E+04</totfact>
</mgrwt>
</event>
<event>
 4    2  0.4039581E+000  0.1920650E+03  0.7546771E-02  0.1156612E+00
         21   -1    0    0  503  502  0.00000000000E+00  0.00000000000E+00  0.30744774389E+03  0.30744774389E+03  0.00000000000E+00 0. -1.
         21   -1    0    0  501  503 -0.00000000000E+00 -0.00000000000E+00 -0.21920130608E+03  0.21920130608E+03  0.00000000000E+00 0. -1.
          6    1    1    2  501    0  0.52614968743E+02 -0.64742901398E+02 -0.13303538918E+03  0.23363945085E+03  0.17300000000E+03 0. -1.
         -6    1    1    2    0  502 -0.52614968743E+02  0.64742901398E+02  0.22128182699E+03  0.29300959912E+03  0.17300000000E+03 0. -1.
<mgrwt>
<rscale>  2 0.19206504E+03</rscale>
<asrwt>0</asrwt>
<pdfrwt beam="1">  1       21 0.47299653E-01 0.19206504E+03</pdfrwt>
<pdfrwt beam="2">  1       21 0.33723278E-01 0.19206504E+03</pdfrwt>
<totfact> 0.36232691E+04</totfact>
</mgrwt>
</event>
<event>
 4    2  0.4039581E+000  0.1916544E+03  0.7546771E-02  0.1156978E+00
         21   -1    0    0  503  502  0.00000000000E+00  0.00000000000E+00  0.80254661213E+02  0.80254661213E+02  0.00000000000E+00 0. -1.
         21   -1    0    0  501  503 -0.00000000000E+00 -0.00000000000E+00 -0.63261421320E+03  0.63261421320E+03  0.00000000000E+00 0.  1.
          6    1    1    2  501    0  0.63923443401E+02 -0.52117062408E+02 -0.46361047905E+03  0.50166330451E+03  0.17300000000E+03 0.  1.
         -6    1    1    2    0  502 -0.63923443401E+02  0.52117062408E+02 -0.88749072942E+02  0.21120556990E+03  0.17300000000E+03 0. -1.
<mgrwt>
<rscale>  2 0.19165436E+03</rscale>
<asrwt>0</asrwt>
<pdfrwt beam="1">  1       21 0.12346871E-01 0.19165436E+03</pdfrwt>
<pdfrwt beam="2">  1       21 0.97325263E-01 0.19165436E+03</pdfrwt>
<totfact> 0.48831218E+04</totfact>
</mgrwt>
</event>
<event>
 4    2  0.4039581E+000  0.1776583E+03  0.7546771E-02  0.1170089E+00
         21   -1    0    0  501  502  0.00000000000E+00  0.00000000000E+00  0.51682166051E+02  0.51682166051E+02  0.00000000000E+00 0.  1.
         21   -1    0    0  502  503 -0.00000000000E+00 -0.00000000000E+00 -0.61724015757E+03  0.61724015757E+03  0.00000000000E+00 0. -1.
          6    1    1    2  501    0  0.28427054954E+02  0.28729096361E+02 -0.31719893835E+03  0.36356240857E+03  0.17300000000E+03 0. -1.
         -6    1    1    2    0  503 -0.28427054954E+02 -0.28729096361E+02 -0.24835905316E+03  0.30535991505E+03  0.17300000000E+03 0.  1.
<mgrwt>
<rscale>  2 0.17765826E+03</rscale>
<asrwt>0</asrwt>
<pdfrwt beam="1">  1       21 0.79511029E-02 0.17765826E+03</pdfrwt>
<pdfrwt beam="2">  1       21 0.94960019E-01 0.17765826E+03</pdfrwt>
<totfact> 0.11313089E+05</totfact>
</mgrwt>
</event>
<event>
 4    2  0.4039581E+000  0.2461534E+03  0.7546771E-02  0.1115760E+00
         21   -1    0    0  501  502  0.00000000000E+00  0.00000000000E+00  0.26530663010E+04  0.26530663010E+04  0.00000000000E+00 0. -1.
         21   -1    0    0  502  503 -0.00000000000E+00 -0.00000000000E+00 -0.25587568009E+02  0.25587568009E+02  0.00000000000E+00 0.  1.
          6    1    1    2  501    0 -0.17010958272E+03  0.41536065881E+02  0.17527559351E+04  0.17699561811E+04  0.17300000000E+03 0. -1.
         -6    1    1    2    0  503  0.17010958272E+03 -0.41536065881E+02  0.87472279789E+03  0.90869768794E+03  0.17300000000E+03 0.  1.
<mgrwt>
<rscale>  2 0.24615344E+03</rscale>
<asrwt>0</asrwt>
<pdfrwt beam="1">  1       21 0.40816383E+00 0.24615344E+03</pdfrwt>
<pdfrwt beam="2">  1       21 0.39365510E-02 0.24615344E+03</pdfrwt>
<totfact> 0.29138109E+03</totfact>
</mgrwt>
</event>
<event>
 4    2  0.4039581E+000  0.1739500E+03  0.7546771E-02  0.1173790E+00
         21   -1    0    0  503  502  0.00000000000E+00  0.00000000000E+00  0.91914519660E+03  0.91914519660E+03  0.00000000000E+00 0.  1.
         21   -1    0    0  501  503 -0.00000000000E+00 -0.00000000000E+00 -0.34190411638E+02  0.34190411638E+02  0.00000000000E+00 0.  1.
          6    1    1    2  501    0  0.12075457485E+02  0.13557331593E+02  0.35060832807E+03  0.39138832076E+03  0.17300000000E+03 0.  1.
         -6    1    1    2    0  502 -0.12075457485E+02 -0.13557331593E+02  0.53434645689E+03  0.56194728748E+03  0.17300000000E+03 0.  1.
<mgrwt>
<rscale>  2 0.17395004E+03</rscale>
<asrwt>0</asrwt>
<pdfrwt beam="1">  1       21 0.14140693E+00 0.17395004E+03</pdfrwt>
<pdfrwt beam="2">  1       21 0.52600640E-02 0.17395004E+03</pdfrwt>
<totfact> 0.86843501E+04</totfact>
</mgrwt>
</event>
<event>
 4    2  0.4039581E+000  0.2234906E+03  0.7546771E-02  0.1131307E+00
         21   -1    0    0  501  502  0.00000000000E+00  0.00000000000E+00  0.77430832436E+02  0.77430832436E+02  0.00000000000E+00 0. -1.
         21   -1    0    0  502  503 -0.00000000000E+00 -0.00000000000E+00 -0.79440338120E+03  0.79440338120E+03  0.00000000000E+00 0. -1.
          6    1    1    2  501    0  0.11193027241E+02  0.14104526050E+03 -0.16948416144E+03  0.28048695219E+03  0.17300000000E+03 0. -1.
         -6    1    1    2    0  503 -0.11193027241E+02 -0.14104526050E+03 -0.54748838732E+03  0.59134726145E+03  0.17300000000E+03 0. -1.
<mgrwt>
<rscale>  2 0.22349060E+03</rscale>
<asrwt>0</asrwt>
<pdfrwt beam="1">  1       21 0.11912435E-01 0.22349060E+03</pdfrwt>
<pdfrwt beam="2">  1       21 0.12221592E+00 0.22349060E+03</pdfrwt>
<totfact> 0.29476912E+04</totfact>
</mgrwt>
</event>
<event>
 4    2  0.4039581E+000  0.3524591E+03  0.7546771E-02  0.1061610E+00
         21   -1    0    0  503  502  0.00000000000E+00  0.00000000000E+00  0.93641108903E+03  0.93641108903E+03  0.00000000000E+00 0. -1.
         21   -1    0    0  501  503 -0.00000000000E+00 -0.00000000000E+00 -0.13295997434E+03  0.13295997434E+03  0.00000000000E+00 0.  1.
          6    1    1    2  501    0  0.27593744910E+02 -0.30583814933E+03  0.42698219454E+03  0.55366161399E+03  0.17300000000E+03 0.  1.
         -6    1    1    2    0  502 -0.27593744910E+02  0.30583814933E+03  0.37646892016E+03  0.51570944939E+03  0.17300000000E+03 0. -1.
<mgrwt>
<rscale>  2 0.35245906E+03</rscale>
<asrwt>0</asrwt>
<pdfrwt beam="1">  1       21 0.14406324E+00 0.35245906E+03</pdfrwt>
<pdfrwt beam="2">  1       21 0.20455381E-01 0.35245906E+03</pdfrwt>
<totfact> 0.66903783E+03</totfact>
</mgrwt>
</event>
<event>
 4    2  0.4039581E+000  0.6125992E+03  0.7546771E-02  0.9879606E-01
         21   -1    0    0  501  502  0.00000000000E+00  0.00000000000E+00  0.18168364379E+03  0.18168364379E+03  0.00000000000E+00 0.  1.
         21   -1    0    0  502  503 -0.00000000000E+00 -0.00000000000E+00 -0.24403701766E+04  0.24403701766E+04  0.00000000000E+00 0. -1.
          6    1    1    2  501    0 -0.24385041111E+03  0.53468280923E+03 -0.61554599763E+03  0.86843226834E+03  0.17300000000E+03 0. -1.
         -6    1    1    2    0  503  0.24385041111E+03 -0.53468280923E+03 -0.16431405352E+04  0.17536215521E+04  0.17300000000E+03 0.  1.
<mgrwt>
<rscale>  2 0.61259916E+03</rscale>
<asrwt>0</asrwt>
<pdfrwt beam="1">  1       21 0.27951332E-01 0.61259916E+03</pdfrwt>
<pdfrwt beam="2">  1       21 0.37544154E+00 0.61259916E+03</pdfrwt>
<totfact> 0.10404766E+02</totfact>
</mgrwt>
</event>
<event>
 4    2  0.4039581E+000  0.2214075E+03  0.7546771E-02  0.1132838E+00
         21   -1    0    0  503  502  0.00000000000E+00  0.00000000000E+00  0.14927964966E+04  0.14927964966E+04  0.00000000000E+00 0.  1.
         21   -1    0    0  501  503 -0.00000000000E+00 -0.00000000000E+00 -0.51402938604E+02  0.51402938604E+02  0.00000000000E+00 0.  1.
          6    1    1    2  501    0 -0.12896075423E+03  0.49612372576E+02  0.25669482030E+03  0.33898892963E+03  0.17300000000E+03 0.  1.
         -6    1    1    2    0  502  0.12896075423E+03 -0.49612372576E+02  0.11846987377E+04  0.12052105056E+04  0.17300000000E+03 0.  1.
<mgrwt>
<rscale>  2 0.22140746E+03</rscale>
<asrwt>0</asrwt>
<pdfrwt beam="1">  1       21 0.22966097E+00 0.22140746E+03</pdfrwt>
<pdfrwt beam="2">  1       21 0.79081455E-02 0.22140746E+03</pdfrwt>
<totfact> 0.10495557E+04</totfact>
</mgrwt>
</event>
<event>
 4    2  0.4039581E+000  0.2160417E+03  0.7546771E-02  0.1136869E+00
         21   -1    0    0  503  502  0.00000000000E+00  0.00000000000E+00  0.92953354796E+03  0.92953354796E+03  0.00000000000E+00 0.  1.
         21   -1    0    0  501  503 -0.00000000000E+00 -0.00000000000E+00 -0.13763261982E+03  0.13763261982E+03  0.00000000000E+00 0. -1.
          6    1    1    2  501    0  0.38307781076E+02 -0.12360238008E+03 -0.29302661418E+02  0.21801990831E+03  0.17300000000E+03 0. -1.
         -6    1    1    2    0  502 -0.38307781076E+02  0.12360238008E+03  0.82120358956E+03  0.84914625947E+03  0.17300000000E+03 0.  1.
<mgrwt>
<rscale>  2 0.21604174E+03</rscale>
<asrwt>0</asrwt>
<pdfrwt beam="1">  1       21 0.14300516E+00 0.21604174E+03</pdfrwt>
<pdfrwt beam="2">  1       21 0.21174250E-01 0.21604174E+03</pdfrwt>
<totfact> 0.68996305E+03</totfact>
</mgrwt>
</event>
<event>
 4    2  0.4039581E+000  0.1842430E+03  0.7546771E-02  0.1163759E+00
         21   -1    0    0  501  502  0.00000000000E+00  0.00000000000E+00  0.44257091097E+03  0.44257091097E+03  0.00000000000E+00 0. -1.
         21   -1    0    0  502  503 -0.00000000000E+00 -0.00000000000E+00 -0.84896451386E+02  0.84896451386E+02  0.00000000000E+00 0. -1.
          6    1    1    2  501    0  0.29029532674E+02 -0.56336234241E+02  0.26078101683E+03  0.31929958314E+03  0.17300000000E+03 0. -1.
         -6    1    1    2    0  503 -0.29029532674E+02  0.56336234241E+02  0.96893442760E+02  0.20816777922E+03  0.17300000000E+03 0. -1.
<mgrwt>
<rscale>  2 0.18424301E+03</rscale>
<asrwt>0</asrwt>
<pdfrwt beam="1">  1       21 0.68087831E-01 0.18424301E+03</pdfrwt>
<pdfrwt beam="2">  1       21 0.13060993E-01 0.18424301E+03</pdfrwt>
<totfact> 0.99583154E+04</totfact>
</mgrwt>
</event>
<event>
 4    2  0.4039581E+000  0.2262241E+03  0.7546771E-02  0.1129326E+00
         21   -1    0    0  503  502  0.00000000000E+00  0.00000000000E+00  0.41171211876E+03  0.41171211876E+03  0.00000000000E+00 0. -1.
         21   -1    0    0  501  503 -0.00000000000E+00 -0.00000000000E+00 -0.13494949362E+03  0.13494949362E+03  0.00000000000E+00 0.  1.
          6    1    1    2  501    0  0.11929717516E+03 -0.83764674937E+02  0.61611210298E+02  0.23446380958E+03  0.17300000000E+03 0.  1.
         -6    1    1    2    0  502 -0.11929717516E+03  0.83764674937E+02  0.21515141484E+03  0.31219780280E+03  0.17300000000E+03 0. -1.
<mgrwt>
<rscale>  2 0.22622409E+03</rscale>
<asrwt>0</asrwt>
<pdfrwt beam="1">  1       21 0.63340325E-01 0.22622409E+03</pdfrwt>
<pdfrwt beam="2">  1       21 0.20761461E-01 0.22622409E+03</pdfrwt>
<totfact> 0.48837980E+04</totfact>
</mgrwt>
</event>
<event>
 4    2  0.4039581E+000  0.2027195E+03  0.7546771E-02  0.1147465E+00
         21   -1    0    0  501  502  0.00000000000E+00  0.00000000000E+00  0.53693521680E+03  0.53693521680E+03  0.00000000000E+00 0.  1.
         21   -1    0    0  502  503 -0.00000000000E+00 -0.00000000000E+00 -0.83545769418E+02  0.83545769418E+02  0.00000000000E+00 0.  1.
          6    1    1    2  501    0  0.96206184067E+02 -0.43709791487E+02  0.13683383814E+03  0.24457856608E+03  0.17300000000E+03 0.  1.
         -6    1    1    2    0  503 -0.96206184067E+02  0.43709791487E+02  0.31655560924E+03  0.37590242014E+03  0.17300000000E+03 0.  1.
<mgrwt>
<rscale>  2 0.20271945E+03</rscale>
<asrwt>0</asrwt>
<pdfrwt beam="1">  1       21 0.82605416E-01 0.20271945E+03</pdfrwt>
<pdfrwt beam="2">  1       21 0.12853196E-01 0.20271945E+03</pdfrwt>
<totfact> 0.66040969E+04</totfact>
</mgrwt>
</event>
<event>
 4    2  0.4039581E+000  0.1857553E+03  0.7546771E-02  0.1162346E+00
         21   -1    0    0  501  502  0.00000000000E+00  0.00000000000E+00  0.10995146065E+04  0.10995146065E+04  0.00000000000E+00 0. -1.
         21   -1    0    0  502  503 -0.00000000000E+00 -0.00000000000E+00 -0.10213639235E+03  0.10213639235E+03  0.00000000000E+00 0. -1.
          6    1    1    2  501    0  0.66797469006E+02 -0.10683172905E+02  0.99876350587E+03  0.10158905319E+04  0.17300000000E+03 0. -1.
         -6    1    1    2    0  503 -0.66797469006E+02  0.10683172905E+02 -0.13852917578E+01  0.18576046695E+03  0.17300000000E+03 0. -1.
<mgrwt>
<rscale>  2 0.18575530E+03</rscale>
<asrwt>0</asrwt>
<pdfrwt beam="1">  1       21 0.16915609E+00 0.18575530E+03</pdfrwt>
<pdfrwt beam="2">  1       21 0.15713292E-01 0.18575530E+03</pdfrwt>
<totfact> 0.78406673E+03</totfact>
</mgrwt>
</event>
<event>
 4    2  0.4039581E+000  0.1876161E+03  0.7546771E-02  0.1160629E+00
         21   -1    0    0  501  502  0.00000000000E+00  0.00000000000E+00  0.52431370055E+03  0.52431370055E+03  0.00000000000E+00 0. -1.
         21   -1    0    0  502  503 -0.00000000000E+00 -0.00000000000E+00 -0.67754000745E+02  0.67754000745E+02  0.00000000000E+00 0. -1.
          6    1    1    2  501    0  0.49219960422E+02  0.53368545140E+02  0.25657523366E+03  0.31785319983E+03  0.17300000000E+03 0. -1.
         -6    1    1    2    0  503 -0.49219960422E+02 -0.53368545140E+02  0.19998446614E+03  0.27421450146E+03  0.17300000000E+03 0. -1.
<mgrwt>
<rscale>  2 0.18761611E+03</rscale>
<asrwt>0</asrwt>
<pdfrwt beam="1">  1       21 0.80663644E-01 0.18761611E+03</pdfrwt>
<pdfrwt beam="2">  1       21 0.10423693E-01 0.18761611E+03</pdfrwt>
<totfact> 0.10198502E+05</totfact>
</mgrwt>
</event>
<event>
 4    2  0.4039581E+000  0.1751200E+03  0.7546771E-02  0.1172611E+00
         21   -1    0    0  501  502  0.00000000000E+00  0.00000000000E+00  0.42183770211E+03  0.42183770211E+03  0.00000000000E+00 0.  1.
         21   -1    0    0  502  503 -0.00000000000E+00 -0.00000000000E+00 -0.15891526787E+03  0.15891526787E+03  0.00000000000E+00 0.  1.
          6    1    1    2  501    0  0.27060376406E+02  0.23982745016E+01  0.34534320748E+03  0.38720659427E+03  0.17300000000E+03 0.  1.
         -6    1    1    2    0  503 -0.27060376406E+02 -0.23982745016E+01 -0.82420773242E+02  0.19354637572E+03  0.17300000000E+03 0.  1.
<mgrwt>
<rscale>  2 0.17512000E+03</rscale>
<asrwt>0</asrwt>
<pdfrwt beam="1">  1       21 0.64898107E-01 0.17512000E+03</pdfrwt>
<pdfrwt beam="2">  1       21 0.24448503E-01 0.17512000E+03</pdfrwt>
<totfact> 0.34887184E+04</totfact>
</mgrwt>
</event>
<event>
 4    2  0.4039581E+000  0.1943896E+03  0.7546771E-02  0.1154561E+00
         21   -1    0    0  501  502  0.00000000000E+00  0.00000000000E+00  0.14416105484E+04  0.14416105484E+04  0.00000000000E+00 0. -1.
         21   -1    0    0  502  503 -0.00000000000E+00 -0.00000000000E+00 -0.39298137390E+02  0.39298137390E+02  0.00000000000E+00 0. -1.
          6    1    1    2  501    0  0.64268016796E+01  0.88413887670E+02  0.11284435888E+04  0.11450643006E+04  0.17300000000E+03 0. -1.
         -6    1    1    2    0  503 -0.64268016796E+01 -0.88413887670E+02  0.27386882221E+03  0.33584438523E+03  0.17300000000E+03 0. -1.
<mgrwt>
<rscale>  2 0.19438961E+03</rscale>
<asrwt>0</asrwt>
<pdfrwt beam="1">  1       21 0.22178620E+00 0.19438961E+03</pdfrwt>
<pdfrwt beam="2">  1       21 0.60458684E-02 0.19438961E+03</pdfrwt>
<totfact> 0.19064829E+04</totfact>
</mgrwt>
</event>
<event>
 4    2  0.4039581E+000  0.2230758E+03  0.7546771E-02  0.1131610E+00
         21   -1    0    0  501  502  0.00000000000E+00  0.00000000000E+00  0.18897138950E+04  0.18897138950E+04  0.00000000000E+00 0.  1.
         21   -1    0    0  502  503 -0.00000000000E+00 -0.00000000000E+00 -0.58205323380E+02  0.58205323380E+02  0.00000000000E+00 0.  1.
          6    1    1    2  501    0  0.45801412512E+02 -0.13317680050E+03  0.16364681439E+04  0.16516024992E+04  0.17300000000E+03 0.  1.
         -6    1    1    2    0  503 -0.45801412512E+02  0.13317680050E+03  0.19504042771E+03  0.29631671911E+03  0.17300000000E+03 0.  1.
<mgrwt>
<rscale>  2 0.22307584E+03</rscale>
<asrwt>0</asrwt>
<pdfrwt beam="1">  1       21 0.29072517E+00 0.22307584E+03</pdfrwt>
<pdfrwt beam="2">  1       21 0.89546666E-02 0.22307584E+03</pdfrwt>
<totfact> 0.36785266E+03</totfact>
</mgrwt>
</event>
<event>
 4    2  0.4039581E+000  0.1972189E+03  0.7546771E-02  0.1152107E+00
         21   -1    0    0  503  502  0.00000000000E+00  0.00000000000E+00  0.63342830908E+02  0.63342830908E+02  0.00000000000E+00 0.  1.
         21   -1    0    0  501  503 -0.00000000000E+00 -0.00000000000E+00 -0.83585348657E+03  0.83585348657E+03  0.00000000000E+00 0. -1.
          6    1    1    2  501    0  0.71512910614E+02 -0.62066072432E+02 -0.15464955922E+03  0.25062278408E+03  0.17300000000E+03 0.  1.
         -6    1    1    2    0  502 -0.71512910614E+02  0.62066072432E+02 -0.61786109644E+03  0.64857353339E+03  0.17300000000E+03 0. -1.
<mgrwt>
<rscale>  2 0.19721890E+03</rscale>
<asrwt>0</asrwt>
<pdfrwt beam="1">  1       21 0.97450507E-02 0.19721890E+03</pdfrwt>
<pdfrwt beam="2">  1       21 0.12859285E+00 0.19721890E+03</pdfrwt>
<totfact> 0.37633373E+04</totfact>
</mgrwt>
</event>
<event>
 4    2  0.4039581E+000  0.2888912E+03  0.7546771E-02  0.1090929E+00
         21   -1    0    0  501  502  0.00000000000E+00  0.00000000000E+00  0.11630531240E+04  0.11630531240E+04  0.00000000000E+00 0.  1.
         21   -1    0    0  502  503 -0.00000000000E+00 -0.00000000000E+00 -0.12812104751E+04  0.12812104751E+04  0.00000000000E+00 0. -1.
          6    1    1    2  501    0  0.17235720144E+03  0.15434413325E+03  0.11283355469E+04  0.11647313951E+04  0.17300000000E+03 0.  1.
         -6    1    1    2    0  503 -0.17235720144E+03 -0.15434413325E+03 -0.12464928980E+04  0.12795322040E+04  0.17300000000E+03 0. -1.
<mgrwt>
<rscale>  2 0.28889118E+03</rscale>
<asrwt>0</asrwt>
<pdfrwt beam="1">  1       21 0.17893125E+00 0.28889118E+03</pdfrwt>
<pdfrwt beam="2">  1       21 0.19710930E+00 0.28889118E+03</pdfrwt>
<totfact> 0.22694805E+01</totfact>
</mgrwt>
</event>
<event>
 4    2  0.4039581E+000  0.1926106E+03  0.7546771E-02  0.1156128E+00
         21   -1    0    0  503  502  0.00000000000E+00  0.00000000000E+00  0.52140427630E+03  0.52140427630E+03  0.00000000000E+00 0. -1.
         21   -1    0    0  501  503 -0.00000000000E+00 -0.00000000000E+00 -0.79867223839E+02  0.79867223839E+02  0.00000000000E+00 0.  1.
          6    1    1    2  501    0  0.54143786085E+02  0.65102301895E+02  0.32008019387E+03  0.37356417091E+03  0.17300000000E+03 0. -1.
         -6    1    1    2    0  502 -0.54143786085E+02 -0.65102301895E+02  0.12145685859E+03  0.22770732922E+03  0.17300000000E+03 0.  1.
<mgrwt>
<rscale>  2 0.19261064E+03</rscale>
<asrwt>0</asrwt>
<pdfrwt beam="1">  1       21 0.80216040E-01 0.19261064E+03</pdfrwt>
<pdfrwt beam="2">  1       21 0.12287266E-01 0.19261064E+03</pdfrwt>
<totfact> 0.76896816E+04</totfact>
</mgrwt>
</event>
<event>
 4    2  0.4039581E+000  0.1961818E+03  0.7546771E-02  0.1153001E+00
         21   -1    0    0  501  502  0.00000000000E+00  0.00000000000E+00  0.60072690835E+02  0.60072690835E+02  0.00000000000E+00 0.  1.
         21   -1    0    0  502  503 -0.00000000000E+00 -0.00000000000E+00 -0.98652043735E+03  0.98652043735E+03  0.00000000000E+00 0. -1.
          6    1    1    2  501    0  0.54423815986E+02  0.74808811419E+02 -0.15338680898E+03  0.24902775585E+03  0.17300000000E+03 0.  1.
         -6    1    1    2    0  503 -0.54423815986E+02 -0.74808811419E+02 -0.77306093753E+03  0.79756537234E+03  0.17300000000E+03 0. -1.
<mgrwt>
<rscale>  2 0.19618183E+03</rscale>
<asrwt>0</asrwt>
<pdfrwt beam="1">  1       21 0.92419527E-02 0.19618183E+03</pdfrwt>
<pdfrwt beam="2">  1       21 0.15177237E+00 0.19618183E+03</pdfrwt>
<totfact> 0.26957791E+04</totfact>
</mgrwt>
</event>
<event>
 4    2  0.4039581E+000  0.2082473E+03  0.7546771E-02  0.1142961E+00
         21   -1    0    0  501  502  0.00000000000E+00  0.00000000000E+00  0.15906805832E+04  0.15906805832E+04  0.00000000000E+00 0. -1.
         21   -1    0    0  502  503 -0.00000000000E+00 -0.00000000000E+00 -0.30056558922E+02  0.30056558922E+02  0.00000000000E+00 0.  1.
          6    1    1    2  501    0  0.10003572210E+03  0.58572966811E+02  0.53326395101E+03  0.57248351905E+03  0.17300000000E+03 0.  1.
         -6    1    1    2    0  503 -0.10003572210E+03 -0.58572966811E+02  0.10273600733E+04  0.10482536231E+04  0.17300000000E+03 0. -1.
<mgrwt>
<rscale>  2 0.20824730E+03</rscale>
<asrwt>0</asrwt>
<pdfrwt beam="1">  1       21 0.24472002E+00 0.20824730E+03</pdfrwt>
<pdfrwt beam="2">  1       21 0.46240872E-02 0.20824730E+03</pdfrwt>
<totfact> 0.21648753E+04</totfact>
</mgrwt>
</event>
<event>
 4    2  0.4039581E+000  0.2476687E+03  0.7546771E-02  0.1114787E+00
         21   -1    0    0  503  502  0.00000000000E+00  0.00000000000E+00  0.27143117660E+03  0.27143117660E+03  0.00000000000E+00 0.  1.
         21   -1    0    0  501  503 -0.00000000000E+00 -0.00000000000E+00 -0.22614521811E+03  0.22614521811E+03  0.00000000000E+00 0. -1.
          6    1    1    2  501    0 -0.12176435135E+03 -0.12877979929E+03  0.29233002200E+02  0.24938797562E+03  0.17300000000E+03 0. -1.
         -6    1    1    2    0  502  0.12176435135E+03  0.12877979929E+03  0.16052956297E+02  0.24818841909E+03  0.17300000000E+03 0.  1.
<mgrwt>
<rscale>  2 0.24766872E+03</rscale>
<asrwt>0</asrwt>
<pdfrwt beam="1">  1       21 0.41758643E-01 0.24766872E+03</pdfrwt>
<pdfrwt beam="2">  1       21 0.34791572E-01 0.24766872E+03</pdfrwt>
<totfact> 0.42855909E+04</totfact>
</mgrwt>
</event>
<event>
 4    2  0.4039581E+000  0.2282109E+03  0.7546771E-02  0.1127905E+00
         21   -1    0    0  501  502  0.00000000000E+00  0.00000000000E+00  0.35561712863E+03  0.35561712863E+03  0.00000000000E+00 0. -1.
         21   -1    0    0  502  503 -0.00000000000E+00 -0.00000000000E+00 -0.14670891580E+03  0.14670891580E+03  0.00000000000E+00 0.  1.
          6    1    1    2  501    0 -0.13273271694E+03 -0.67329267538E+02  0.11500107350E+03  0.25554931289E+03  0.17300000000E+03 0.  1.
         -6    1    1    2    0  503  0.13273271694E+03  0.67329267538E+02  0.93907139338E+02  0.24677673154E+03  0.17300000000E+03 0.  1.
<mgrwt>
<rscale>  2 0.22821088E+03</rscale>
<asrwt>0</asrwt>
<pdfrwt beam="1">  1       21 0.54710327E-01 0.22821088E+03</pdfrwt>
<pdfrwt beam="2">  1       21 0.22570603E-01 0.22821088E+03</pdfrwt>
<totfact> 0.57087976E+04</totfact>
</mgrwt>
</event>
<event>
 4    2  0.4039581E+000  0.1909196E+03  0.7546771E-02  0.1157634E+00
         21   -1    0    0  503  502  0.00000000000E+00  0.00000000000E+00  0.36836099575E+03  0.36836099575E+03  0.00000000000E+00 0. -1.
         21   -1    0    0  501  503 -0.00000000000E+00 -0.00000000000E+00 -0.26318054494E+03  0.26318054494E+03  0.00000000000E+00 0. -1.
          6    1    1    2  501    0  0.52070057735E+02  0.61725313832E+02 -0.19685113586E+03  0.27422741470E+03  0.17300000000E+03 0. -1.
         -6    1    1    2    0  502 -0.52070057735E+02 -0.61725313832E+02  0.30203158668E+03  0.35731412599E+03  0.17300000000E+03 0. -1.
<mgrwt>
<rscale>  2 0.19091963E+03</rscale>
<asrwt>0</asrwt>
<pdfrwt beam="1">  1       21 0.56670923E-01 0.19091963E+03</pdfrwt>
<pdfrwt beam="2">  1       21 0.40489314E-01 0.19091963E+03</pdfrwt>
<totfact> 0.17223673E+04</totfact>
</mgrwt>
</event>
<event>
 4    2  0.4039581E+000  0.2223439E+03  0.7546771E-02  0.1132148E+00
         21   -1    0    0  501  502  0.00000000000E+00  0.00000000000E+00  0.61941848306E+02  0.61941848306E+02  0.00000000000E+00 0. -1.
         21   -1    0    0  502  503 -0.00000000000E+00 -0.00000000000E+00 -0.92747267673E+03  0.92747267673E+03  0.00000000000E+00 0.  1.
          6    1    1    2  501    0 -0.13311020321E+03  0.42302079927E+02 -0.24801227576E+03  0.33308689721E+03  0.17300000000E+03 0.  1.
         -6    1    1    2    0  503  0.13311020321E+03 -0.42302079927E+02 -0.61751855266E+03  0.65632762783E+03  0.17300000000E+03 0. -1.
<mgrwt>
<rscale>  2 0.22234386E+03</rscale>
<asrwt>0</asrwt>
<pdfrwt beam="1">  1       21 0.95295149E-02 0.22234386E+03</pdfrwt>
<pdfrwt beam="2">  1       21 0.14268811E+00 0.22234386E+03</pdfrwt>
<totfact> 0.29563110E+04</totfact>
</mgrwt>
</event>
<event>
 4    2  0.4039581E+000  0.1852775E+03  0.7546771E-02  0.1162791E+00
         21   -1    0    0  503  502  0.00000000000E+00  0.00000000000E+00  0.33559775299E+03  0.33559775299E+03  0.00000000000E+00 0.  1.
         21   -1    0    0  501  503 -0.00000000000E+00 -0.00000000000E+00 -0.10601827256E+03  0.10601827256E+03  0.00000000000E+00 0.  1.
          6    1    1    2  501    0  0.60324859474E+02  0.27561891233E+02  0.15620623274E+03  0.24233888187E+03  0.17300000000E+03 0.  1.
         -6    1    1    2    0  502 -0.60324859474E+02 -0.27561891233E+02  0.73373247684E+02  0.19927714368E+03  0.17300000000E+03 0.  1.
<mgrwt>
<rscale>  2 0.18527749E+03</rscale>
<asrwt>0</asrwt>
<pdfrwt beam="1">  1       21 0.51630423E-01 0.18527749E+03</pdfrwt>
<pdfrwt beam="2">  1       21 0.16310504E-01 0.18527749E+03</pdfrwt>
<totfact> 0.12025865E+05</totfact>
</mgrwt>
</event>
<event>
 4    2  0.4039581E+000  0.1964768E+03  0.7546771E-02  0.1152746E+00
         21   -1    0    0  501  502  0.00000000000E+00  0.00000000000E+00  0.39812317825E+03  0.39812317825E+03  0.00000000000E+00 0. -1.
         21   -1    0    0  502  503 -0.00000000000E+00 -0.00000000000E+00 -0.11215409613E+03  0.11215409613E+03  0.00000000000E+00 0. -1.
          6    1    1    2  501    0  0.23068632913E+02 -0.90232838172E+02  0.23688473269E+03  0.30776208910E+03  0.17300000000E+03 0. -1.
         -6    1    1    2    0  503 -0.23068632913E+02  0.90232838172E+02  0.49084349426E+02  0.20251518528E+03  0.17300000000E+03 0. -1.
<mgrwt>
<rscale>  2 0.19647678E+03</rscale>
<asrwt>0</asrwt>
<pdfrwt beam="1">  1       21 0.61249719E-01 0.19647678E+03</pdfrwt>
<pdfrwt beam="2">  1       21 0.17254477E-01 0.19647678E+03</pdfrwt>
<totfact> 0.75119645E+04</totfact>
</mgrwt>
</event>
<event>
 4    2  0.4039581E+000  0.1747009E+03  0.7546771E-02  0.1173032E+00
         21   -1    0    0  501  502  0.00000000000E+00  0.00000000000E+00  0.91420508515E+02  0.91420508515E+02  0.00000000000E+00 0. -1.
         21   -1    0    0  502  503 -0.00000000000E+00 -0.00000000000E+00 -0.97781755145E+03  0.97781755145E+03  0.00000000000E+00 0. -1.
          6    1    1    2  501    0  0.18531368394E+02 -0.15747777971E+02 -0.93394139410E+01  0.17495036090E+03  0.17300000000E+03 0. -1.
         -6    1    1    2    0  503 -0.18531368394E+02  0.15747777971E+02 -0.87705762899E+03  0.89428769907E+03  0.17300000000E+03 0. -1.
<mgrwt>
<rscale>  2 0.17470090E+03</rscale>
<asrwt>0</asrwt>
<pdfrwt beam="1">  1       21 0.14064695E-01 0.17470090E+03</pdfrwt>
<pdfrwt beam="2">  1       21 0.15043346E+00 0.17470090E+03</pdfrwt>
<totfact> 0.13255178E+04</totfact>
</mgrwt>
</event>
<event>
 4    2  0.4039581E+000  0.2187809E+03  0.7546771E-02  0.1134795E+00
         21   -1    0    0  503  502  0.00000000000E+00  0.00000000000E+00  0.10624681484E+04  0.10624681484E+04  0.00000000000E+00 0. -1.
         21   -1    0    0  501  503 -0.00000000000E+00 -0.00000000000E+00 -0.71450488555E+02  0.71450488555E+02  0.00000000000E+00 0. -1.
          6    1    1    2  501    0 -0.26337568835E+02 -0.13131042214E+03  0.15088264159E+03  0.26576430541E+03  0.17300000000E+03 0. -1.
         -6    1    1    2    0  502  0.26337568835E+02  0.13131042214E+03  0.84013501825E+03  0.86815433155E+03  0.17300000000E+03 0. -1.
<mgrwt>
<rscale>  2 0.21878093E+03</rscale>
<asrwt>0</asrwt>
<pdfrwt beam="1">  1       21 0.16345663E+00 0.21878093E+03</pdfrwt>
<pdfrwt beam="2">  1       21 0.10992384E-01 0.21878093E+03</pdfrwt>
<totfact> 0.16005196E+04</totfact>
</mgrwt>
</event>
<event>
 4    2  0.4039581E+000  0.1858079E+03  0.7546771E-02  0.1162298E+00
         21   -1    0    0  503  502  0.00000000000E+00  0.00000000000E+00  0.61096851500E+02  0.61096851500E+02  0.00000000000E+00 0.  1.
         21   -1    0    0  501  503 -0.00000000000E+00 -0.00000000000E+00 -0.71369821643E+03  0.71369821643E+03  0.00000000000E+00 0.  1.
          6    1    1    2  501    0 -0.44748131583E+02  0.50923161345E+02 -0.50308211533E+03  0.53629859072E+03  0.17300000000E+03 0.  1.
         -6    1    1    2    0  502  0.44748131583E+02 -0.50923161345E+02 -0.14951924960E+03  0.23849647721E+03  0.17300000000E+03 0.  1.
<mgrwt>
<rscale>  2 0.18580787E+03</rscale>
<asrwt>0</asrwt>
<pdfrwt beam="1">  1       21 0.93995159E-02 0.18580787E+03</pdfrwt>
<pdfrwt beam="2">  1       21 0.10979972E+00 0.18580787E+03</pdfrwt>
<totfact> 0.59567805E+04</totfact>
</mgrwt>
</event>
<event>
 4    2  0.4039581E+000  0.1828935E+03  0.7546771E-02  0.1165032E+00
         21   -1    0    0  501  502  0.00000000000E+00  0.00000000000E+00  0.47660776097E+03  0.47660776097E+03  0.00000000000E+00 0. -1.
         21   -1    0    0  502  503 -0.00000000000E+00 -0.00000000000E+00 -0.70300370374E+02  0.70300370374E+02  0.00000000000E+00 0. -1.
          6    1    1    2  501    0  0.59203589690E+02 -0.39965031858E+01  0.21429962563E+03  0.28173456766E+03  0.17300000000E+03 0.  1.
         -6    1    1    2    0  503 -0.59203589690E+02  0.39965031858E+01  0.19200776497E+03  0.26517356369E+03  0.17300000000E+03 0.  1.
<mgrwt>
<rscale>  2 0.18289351E+03</rscale>
<asrwt>0</asrwt>
<pdfrwt beam="1">  1       21 0.73324269E-01 0.18289351E+03</pdfrwt>
<pdfrwt beam="2">  1       21 0.10815442E-01 0.18289351E+03</pdfrwt>
<totfact> 0.11851016E+05</totfact>
</mgrwt>
</event>
<event>
 4    2  0.4039581E+000  0.1764773E+03  0.7546771E-02  0.1171257E+00
         21   -1    0    0  501  502  0.00000000000E+00  0.00000000000E+00  0.16004302298E+03  0.16004302298E+03  0.00000000000E+00 0. -1.
         21   -1    0    0  502  503 -0.00000000000E+00 -0.00000000000E+00 -0.51396160903E+03  0.51396160903E+03  0.00000000000E+00 0. -1.
          6    1    1    2  501    0  0.27665188496E+02 -0.21210381102E+02  0.88690479815E+02  0.19751011146E+03  0.17300000000E+03 0. -1.
         -6    1    1    2    0  503 -0.27665188496E+02  0.21210381102E+02 -0.44260906586E+03  0.47649452054E+03  0.17300000000E+03 0. -1.
<mgrwt>
<rscale>  2 0.17647732E+03</rscale>
<asrwt>0</asrwt>
<pdfrwt beam="1">  1       21 0.24622003E-01 0.17647732E+03</pdfrwt>
<pdfrwt beam="2">  1       21 0.79071017E-01 0.17647732E+03</pdfrwt>
<totfact> 0.22232649E+04</totfact>
</mgrwt>
</event>
<event>
 4    2  0.4039581E+000  0.1965163E+03  0.7546771E-02  0.1152712E+00
         21   -1    0    0  503  502  0.00000000000E+00  0.00000000000E+00  0.26581368614E+03  0.26581368614E+03  0.00000000000E+00 0. -1.
         21   -1    0    0  501  503 -0.00000000000E+00 -0.00000000000E+00 -0.46431279293E+03  0.46431279293E+03  0.00000000000E+00 0. -1.
          6    1    1    2  501    0  0.63011708350E+02  0.68696419147E+02 -0.40185532867E+03  0.44733251455E+03  0.17300000000E+03 0. -1.
         -6    1    1    2    0  502 -0.63011708350E+02 -0.68696419147E+02  0.20335622188E+03  0.28279396452E+03  0.17300000000E+03 0. -1.
<mgrwt>
<rscale>  2 0.19651634E+03</rscale>
<asrwt>0</asrwt>
<pdfrwt beam="1">  1       21 0.40894414E-01 0.19651634E+03</pdfrwt>
<pdfrwt beam="2">  1       21 0.71432737E-01 0.19651634E+03</pdfrwt>
<totfact> 0.10178460E+04</totfact>
</mgrwt>
</event>
<event>
 4    2  0.4039581E+000  0.2832528E+03  0.7546771E-02  0.1093925E+00
         21   -1    0    0  501  502  0.00000000000E+00  0.00000000000E+00  0.14036971505E+03  0.14036971505E+03  0.00000000000E+00 0.  1.
         21   -1    0    0  502  503 -0.00000000000E+00 -0.00000000000E+00 -0.58492823408E+03  0.58492823408E+03  0.00000000000E+00 0.  1.
          6    1    1    2  501    0 -0.14058290685E+03  0.17475585592E+03 -0.27706766394E+03  0.39623055571E+03  0.17300000000E+03 0.  1.
         -6    1    1    2    0  503  0.14058290685E+03 -0.17475585592E+03 -0.16749085510E+03  0.32906739343E+03  0.17300000000E+03 0.  1.
<mgrwt>
<rscale>  2 0.28325283E+03</rscale>
<asrwt>0</asrwt>
<pdfrwt beam="1">  1       21 0.21595341E-01 0.28325283E+03</pdfrwt>
<pdfrwt beam="2">  1       21 0.89988958E-01 0.28325283E+03</pdfrwt>
<totfact> 0.20038381E+04</totfact>
</mgrwt>
</event>
<event>
 4    2  0.4039581E+000  0.1747275E+03  0.7546771E-02  0.1173006E+00
         21   -1    0    0  503  502  0.00000000000E+00  0.00000000000E+00  0.66590109194E+03  0.66590109194E+03  0.00000000000E+00 0.  1.
         21   -1    0    0  501  503 -0.00000000000E+00 -0.00000000000E+00 -0.55220671682E+02  0.55220671682E+02  0.00000000000E+00 0.  1.
          6    1    1    2  501    0 -0.10833592917E+02  0.21985107980E+02  0.15678851493E+03  0.23476019706E+03  0.17300000000E+03 0.  1.
         -6    1    1    2    0  502  0.10833592917E+02 -0.21985107980E+02  0.45389190533E+03  0.48636156657E+03  0.17300000000E+03 0.  1.
<mgrwt>
<rscale>  2 0.17472754E+03</rscale>
<asrwt>0</asrwt>
<pdfrwt beam="1">  1       21 0.10244632E+00 0.17472754E+03</pdfrwt>
<pdfrwt beam="2">  1       21 0.84954884E-02 0.17472754E+03</pdfrwt>
<totfact> 0.84411079E+04</totfact>
</mgrwt>
</event>
<event>
 4    2  0.4039581E+000  0.2402224E+03  0.7546771E-02  0.1119645E+00
         21   -1    0    0  501  502  0.00000000000E+00  0.00000000000E+00  0.19601872831E+03  0.19601872831E+03  0.00000000000E+00 0. -1.
         21   -1    0    0  502  503 -0.00000000000E+00 -0.00000000000E+00 -0.32280288439E+03  0.32280288439E+03  0.00000000000E+00 0. -1.
          6    1    1    2  501    0  0.11414863773E+03  0.12144082742E+03  0.13564288855E+02  0.24060502071E+03  0.17300000000E+03 0. -1.
         -6    1    1    2    0  503 -0.11414863773E+03 -0.12144082742E+03 -0.14034844494E+03  0.27821659199E+03  0.17300000000E+03 0. -1.
<mgrwt>
<rscale>  2 0.24022237E+03</rscale>
<asrwt>0</asrwt>
<pdfrwt beam="1">  1       21 0.30156728E-01 0.24022237E+03</pdfrwt>
<pdfrwt beam="2">  1       21 0.49661982E-01 0.24022237E+03</pdfrwt>
<totfact> 0.39847121E+04</totfact>
</mgrwt>
</event>
<event>
 4    2  0.4039581E+000  0.1979218E+03  0.7546771E-02  0.1151504E+00
         21   -1    0    0  503  502  0.00000000000E+00  0.00000000000E+00  0.31640882845E+03  0.31640882845E+03  0.00000000000E+00 0.  1.
         21   -1    0    0  501  503 -0.00000000000E+00 -0.00000000000E+00 -0.35684591456E+03  0.35684591456E+03  0.00000000000E+00 0.  1.
          6    1    1    2  501    0 -0.87427968054E-01  0.96145863200E+02 -0.29225369891E+03  0.35296637117E+03  0.17300000000E+03 0.  1.
         -6    1    1    2    0  502  0.87427968054E-01 -0.96145863200E+02  0.25181661280E+03  0.32028837184E+03  0.17300000000E+03 0.  1.
<mgrwt>
<rscale>  2 0.19792179E+03</rscale>
<asrwt>0</asrwt>
<pdfrwt beam="1">  1       21 0.48678282E-01 0.19792179E+03</pdfrwt>
<pdfrwt beam="2">  1       21 0.54899371E-01 0.19792179E+03</pdfrwt>
<totfact> 0.12571819E+04</totfact>
</mgrwt>
</event>
<event>
 4    2  0.4039581E+000  0.4079203E+03  0.7546771E-02  0.1041071E+00
         21   -1    0    0  501  502  0.00000000000E+00  0.00000000000E+00  0.57702031184E+03  0.57702031184E+03  0.00000000000E+00 0.  1.
         21   -1    0    0  502  503 -0.00000000000E+00 -0.00000000000E+00 -0.29563886614E+03  0.29563886614E+03  0.00000000000E+00 0.  1.
          6    1    1    2  501    0 -0.36227227332E+03  0.72310312170E+02  0.20907858353E+03  0.45838066643E+03  0.17300000000E+03 0.  1.
         -6    1    1    2    0  503  0.36227227332E+03 -0.72310312170E+02  0.72302862169E+02  0.41427851156E+03  0.17300000000E+03 0.  1.
<mgrwt>
<rscale>  2 0.40792031E+03</rscale>
<asrwt>0</asrwt>
<pdfrwt beam="1">  1       21 0.88772355E-01 0.40792031E+03</pdfrwt>
<pdfrwt beam="2">  1       21 0.45482903E-01 0.40792031E+03</pdfrwt>
<totfact> 0.44747819E+03</totfact>
</mgrwt>
</event>
<event>
 4    2  0.4039581E+000  0.2049652E+03  0.7546771E-02  0.1145616E+00
         21   -1    0    0  503  502  0.00000000000E+00  0.00000000000E+00  0.29727104807E+03  0.29727104807E+03  0.00000000000E+00 0.  1.
         21   -1    0    0  501  503 -0.00000000000E+00 -0.00000000000E+00 -0.24281547450E+03  0.24281547450E+03  0.00000000000E+00 0.  1.
          6    1    1    2  501    0 -0.10987083985E+03 -0.31822784360E+01 -0.14736075620E+03  0.25243993506E+03  0.17300000000E+03 0.  1.
         -6    1    1    2    0  502  0.10987083985E+03  0.31822784360E+01  0.20181632976E+03  0.28764658751E+03  0.17300000000E+03 0.  1.
<mgrwt>
<rscale>  2 0.20496519E+03</rscale>
<asrwt>0</asrwt>
<pdfrwt beam="1">  1       21 0.45734007E-01 0.20496519E+03</pdfrwt>
<pdfrwt beam="2">  1       21 0.37356227E-01 0.20496519E+03</pdfrwt>
<totfact> 0.31466827E+04</totfact>
</mgrwt>
</event>
<event>
 4    2  0.4039581E+000  0.2118342E+03  0.7546771E-02  0.1140122E+00
         21   -1    0    0  503  502  0.00000000000E+00  0.00000000000E+00  0.73405453920E+03  0.73405453920E+03  0.00000000000E+00 0.  1.
         21   -1    0    0  501  503 -0.00000000000E+00 -0.00000000000E+00 -0.45789098728E+03  0.45789098728E+03  0.00000000000E+00 0.  1.
          6    1    1    2  501    0 -0.12063070182E+03  0.19822921140E+02 -0.41668332112E+03  0.46743844998E+03  0.17300000000E+03 0.  1.
         -6    1    1    2    0  502  0.12063070182E+03 -0.19822921140E+02  0.69284687303E+03  0.72450707650E+03  0.17300000000E+03 0.  1.
<mgrwt>
<rscale>  2 0.21183417E+03</rscale>
<asrwt>0</asrwt>
<pdfrwt beam="1">  1       21 0.11293147E+00 0.21183417E+03</pdfrwt>
<pdfrwt beam="2">  1       21 0.70444767E-01 0.21183417E+03</pdfrwt>
<totfact> 0.10988925E+03</totfact>
</mgrwt>
</event>
<event>
 4    2  0.4039581E+000  0.1797393E+03  0.7546771E-02  0.1168056E+00
         21   -1    0    0  501  502  0.00000000000E+00  0.00000000000E+00  0.14024798040E+03  0.14024798040E+03  0.00000000000E+00 0.  1.
         21   -1    0    0  502  503 -0.00000000000E+00 -0.00000000000E+00 -0.31130979640E+03  0.31130979640E+03  0.00000000000E+00 0. -1.
          6    1    1    2  501    0  0.43622724572E+02 -0.21777665611E+02  0.29607437784E+02  0.18216149206E+03  0.17300000000E+03 0.  1.
         -6    1    1    2    0  503 -0.43622724572E+02  0.21777665611E+02 -0.20066925378E+03  0.26939628474E+03  0.17300000000E+03 0. -1.
<mgrwt>
<rscale>  2 0.17973928E+03</rscale>
<asrwt>0</asrwt>
<pdfrwt beam="1">  1       21 0.21576612E-01 0.17973928E+03</pdfrwt>
<pdfrwt beam="2">  1       21 0.47893815E-01 0.17973928E+03</pdfrwt>
<totfact> 0.83867880E+04</totfact>
</mgrwt>
</event>
<event>
 4    2  0.4039581E+000  0.1831512E+03  0.7546771E-02  0.1164788E+00
         21   -1    0    0  503  502  0.00000000000E+00  0.00000000000E+00  0.12832994093E+03  0.12832994093E+03  0.00000000000E+00 0. -1.
         21   -1    0    0  501  503 -0.00000000000E+00 -0.00000000000E+00 -0.36390055804E+03  0.36390055804E+03  0.00000000000E+00 0. -1.
          6    1    1    2  501    0 -0.48026543784E+02  0.36177623573E+02 -0.24841083684E+03  0.30862973482E+03  0.17300000000E+03 0. -1.
         -6    1    1    2    0  502  0.48026543784E+02 -0.36177623573E+02  0.12840219718E+02  0.18360076415E+03  0.17300000000E+03 0. -1.
<mgrwt>
<rscale>  2 0.18315122E+03</rscale>
<asrwt>0</asrwt>
<pdfrwt beam="1">  1       21 0.19743068E-01 0.18315122E+03</pdfrwt>
<pdfrwt beam="2">  1       21 0.55984701E-01 0.18315122E+03</pdfrwt>
<totfact> 0.71324380E+04</totfact>
</mgrwt>
</event>
<event>
 4    2  0.4039581E+000  0.1898293E+03  0.7546771E-02  0.1158615E+00
         21   -1    0    0  503  502  0.00000000000E+00  0.00000000000E+00  0.22696412444E+03  0.22696412444E+03  0.00000000000E+00 0. -1.
         21   -1    0    0  501  503 -0.00000000000E+00 -0.00000000000E+00 -0.24388956615E+03  0.24388956615E+03  0.00000000000E+00 0. -1.
          6    1    1    2  501    0  0.66610639105E+02  0.40855444950E+02 -0.14754554628E+03  0.24042635640E+03  0.17300000000E+03 0. -1.
         -6    1    1    2    0  502 -0.66610639105E+02 -0.40855444950E+02  0.13062010457E+03  0.23042733419E+03  0.17300000000E+03 0. -1.
<mgrwt>
<rscale>  2 0.18982925E+03</rscale>
<asrwt>0</asrwt>
<pdfrwt beam="1">  1       21 0.34917558E-01 0.18982925E+03</pdfrwt>
<pdfrwt beam="2">  1       21 0.37521472E-01 0.18982925E+03</pdfrwt>
<totfact> 0.54232229E+04</totfact>
</mgrwt>
</event>
<event>
 4    2  0.4039581E+000  0.2352497E+03  0.7546771E-02  0.1122998E+00
         21   -1    0    0  503  502  0.00000000000E+00  0.00000000000E+00  0.15695635974E+03  0.15695635974E+03  0.00000000000E+00 0.  1.
         21   -1    0    0  501  503 -0.00000000000E+00 -0.00000000000E+00 -0.69276856446E+03  0.69276856446E+03  0.00000000000E+00 0.  1.
          6    1    1    2  501    0 -0.88723274001E+01  0.15916875265E+03 -0.56562266807E+03  0.61259400311E+03  0.17300000000E+03 0.  1.
         -6    1    1    2    0  502  0.88723274001E+01 -0.15916875265E+03  0.29810463348E+02  0.23713092109E+03  0.17300000000E+03 0.  1.
<mgrwt>
<rscale>  2 0.23524968E+03</rscale>
<asrwt>0</asrwt>
<pdfrwt beam="1">  1       21 0.24147133E-01 0.23524968E+03</pdfrwt>
<pdfrwt beam="2">  1       21 0.10657978E+00 0.23524968E+03</pdfrwt>
<totfact> 0.11093065E+04</totfact>
</mgrwt>
</event>
<event>
 4    2  0.4039581E+000  0.2263467E+03  0.7546771E-02  0.1129238E+00
         21   -1    0    0  501  502  0.00000000000E+00  0.00000000000E+00  0.13262090192E+03  0.13262090192E+03  0.00000000000E+00 0. -1.
         21   -1    0    0  502  503 -0.00000000000E+00 -0.00000000000E+00 -0.56169154531E+03  0.56169154531E+03  0.00000000000E+00 0.  1.
          6    1    1    2  501    0  0.79439697071E+02 -0.12244648712E+03 -0.20550519818E+02  0.22727765298E+03  0.17300000000E+03 0. -1.
         -6    1    1    2    0  503 -0.79439697071E+02  0.12244648712E+03 -0.40852012357E+03  0.46703479425E+03  0.17300000000E+03 0.  1.
<mgrwt>
<rscale>  2 0.22634665E+03</rscale>
<asrwt>0</asrwt>
<pdfrwt beam="1">  1       21 0.20403216E-01 0.22634665E+03</pdfrwt>
<pdfrwt beam="2">  1       21 0.86414084E-01 0.22634665E+03</pdfrwt>
<totfact> 0.25178203E+04</totfact>
</mgrwt>
</event>
<event>
 4    2  0.4039581E+000  0.2549841E+03  0.7546771E-02  0.1110195E+00
         21   -1    0    0  503  502  0.00000000000E+00  0.00000000000E+00  0.41220093171E+02  0.41220093171E+02  0.00000000000E+00 0.  1.
         21   -1    0    0  501  503 -0.00000000000E+00 -0.00000000000E+00 -0.20915753632E+04  0.20915753632E+04  0.00000000000E+00 0. -1.
          6    1    1    2  501    0 -0.11516240033E+03 -0.14773468027E+03 -0.49639694484E+03  0.55805630634E+03  0.17300000000E+03 0.  1.
         -6    1    1    2    0  502  0.11516240033E+03  0.14773468027E+03 -0.15539583252E+04  0.15747391500E+04  0.17300000000E+03 0. -1.
<mgrwt>
<rscale>  2 0.25498415E+03</rscale>
<asrwt>0</asrwt>
<pdfrwt beam="1">  1       21 0.63415543E-02 0.25498415E+03</pdfrwt>
<pdfrwt beam="2">  1       21 0.32178075E+00 0.25498415E+03</pdfrwt>
<totfact> 0.42881898E+03</totfact>
</mgrwt>
</event>
<event>
 4    2  0.4039581E+000  0.1853793E+03  0.7546771E-02  0.1162696E+00
         21   -1    0    0  503  502  0.00000000000E+00  0.00000000000E+00  0.24376923069E+02  0.24376923069E+02  0.00000000000E+00 0. -1.
         21   -1    0    0  501  503 -0.00000000000E+00 -0.00000000000E+00 -0.14584069906E+04  0.14584069906E+04  0.00000000000E+00 0. -1.
          6    1    1    2  501    0 -0.63109890280E+02  0.21298944622E+02 -0.85242674443E+03  0.87235133857E+03  0.17300000000E+03 0. -1.
         -6    1    1    2    0  502  0.63109890280E+02 -0.21298944622E+02 -0.58160332309E+03  0.61043257508E+03  0.17300000000E+03 0. -1.
<mgrwt>
<rscale>  2 0.18537935E+03</rscale>
<asrwt>0</asrwt>
<pdfrwt beam="1">  1       21 0.37502948E-02 0.18537935E+03</pdfrwt>
<pdfrwt beam="2">  1       21 0.22437037E+00 0.18537935E+03</pdfrwt>
<totfact> 0.41512811E+04</totfact>
</mgrwt>
</event>
<event>
 4    2  0.4039581E+000  0.1831635E+03  0.7546771E-02  0.1164776E+00
         21   -1    0    0  501  502  0.00000000000E+00  0.00000000000E+00  0.22491853451E+04  0.22491853451E+04  0.00000000000E+00 0. -1.
         21   -1    0    0  502  503 -0.00000000000E+00 -0.00000000000E+00 -0.22721521955E+02  0.22721521955E+02  0.00000000000E+00 0.  1.
          6    1    1    2  501    0  0.56878744746E+02 -0.19612842463E+02  0.17790302588E+04  0.17884343759E+04  0.17300000000E+03 0. -1.
         -6    1    1    2    0  503 -0.56878744746E+02  0.19612842463E+02  0.44743356432E+03  0.48347249112E+03  0.17300000000E+03 0.  1.
<mgrwt>
<rscale>  2 0.18316347E+03</rscale>
<asrwt>0</asrwt>
<pdfrwt beam="1">  1       21 0.34602834E+00 0.18316347E+03</pdfrwt>
<pdfrwt beam="2">  1       21 0.34956205E-02 0.18316347E+03</pdfrwt>
<totfact> 0.91651984E+03</totfact>
</mgrwt>
</event>
<event>
 4    2  0.4039581E+000  0.1816654E+03  0.7546771E-02  0.1166201E+00
         21   -1    0    0  503  502  0.00000000000E+00  0.00000000000E+00  0.75597768549E+02  0.75597768549E+02  0.00000000000E+00 0. -1.
         21   -1    0    0  501  503 -0.00000000000E+00 -0.00000000000E+00 -0.61103022119E+03  0.61103022119E+03  0.00000000000E+00 0.  1.
          6    1    1    2  501    0  0.11610708093E+02 -0.54207929145E+02 -0.45117208267E+03  0.48637285729E+03  0.17300000000E+03 0. -1.
         -6    1    1    2    0  502 -0.11610708093E+02  0.54207929145E+02 -0.84260369966E+02  0.20025513245E+03  0.17300000000E+03 0. -1.
<mgrwt>
<rscale>  2 0.18166537E+03</rscale>
<asrwt>0</asrwt>
<pdfrwt beam="1">  1       21 0.11630426E-01 0.18166537E+03</pdfrwt>
<pdfrwt beam="2">  1       21 0.94004653E-01 0.18166537E+03</pdfrwt>
<totfact> 0.59224553E+04</totfact>
</mgrwt>
</event>
<event>
 4    2  0.4039581E+000  0.1947900E+03  0.7546771E-02  0.1154211E+00
         21   -1    0    0  503  502  0.00000000000E+00  0.00000000000E+00  0.58804569249E+02  0.58804569249E+02  0.00000000000E+00 0. -1.
         21   -1    0    0  501  503 -0.00000000000E+00 -0.00000000000E+00 -0.64757929664E+03  0.64757929664E+03  0.00000000000E+00 0. -1.
          6    1    1    2  501    0  0.88489249090E+02 -0.13556837959E+02 -0.31560948741E+03  0.37088068648E+03  0.17300000000E+03 0. -1.
         -6    1    1    2    0  502 -0.88489249090E+02  0.13556837959E+02 -0.27316523997E+03  0.33550317940E+03  0.17300000000E+03 0. -1.
<mgrwt>
<rscale>  2 0.19478998E+03</rscale>
<asrwt>0</asrwt>
<pdfrwt beam="1">  1       21 0.90468566E-02 0.19478998E+03</pdfrwt>
<pdfrwt beam="2">  1       21 0.99627587E-01 0.19478998E+03</pdfrwt>
<totfact> 0.80097013E+04</totfact>
</mgrwt>
</event>
<event>
 4    2  0.4039581E+000  0.1862610E+03  0.7546771E-02  0.1161878E+00
         21   -1    0    0  503  502  0.00000000000E+00  0.00000000000E+00  0.10057823271E+03  0.10057823271E+03  0.00000000000E+00 0.  1.
         21   -1    0    0  501  503 -0.00000000000E+00 -0.00000000000E+00 -0.44228767852E+03  0.44228767852E+03  0.00000000000E+00 0.  1.
          6    1    1    2  501    0  0.63315145452E+02 -0.27483602363E+02 -0.29819904866E+03  0.35159042743E+03  0.17300000000E+03 0.  1.
         -6    1    1    2    0  502 -0.63315145452E+02  0.27483602363E+02 -0.43510397151E+02  0.19127548380E+03  0.17300000000E+03 0.  1.
<mgrwt>
<rscale>  2 0.18626099E+03</rscale>
<asrwt>0</asrwt>
<pdfrwt beam="1">  1       21 0.15473574E-01 0.18626099E+03</pdfrwt>
<pdfrwt beam="2">  1       21 0.68044257E-01 0.18626099E+03</pdfrwt>
<totfact> 0.73297403E+04</totfact>
</mgrwt>
</event>
<event>
 4    2  0.4039581E+000  0.1744562E+03  0.7546771E-02  0.1173279E+00
         21   -1    0    0  503  502  0.00000000000E+00  0.00000000000E+00  0.39392408515E+02  0.39392408515E+02  0.00000000000E+00 0.  1.
         21   -1    0    0  501  503 -0.00000000000E+00 -0.00000000000E+00 -0.18196739481E+04  0.18196739481E+04  0.00000000000E+00 0.  1.
          6    1    1    2  501    0  0.12840223758E+02 -0.18468276213E+02 -0.15952474295E+04  0.16047583338E+04  0.17300000000E+03 0.  1.
         -6    1    1    2    0  502 -0.12840223758E+02  0.18468276213E+02 -0.18503411008E+03  0.25430802281E+03  0.17300000000E+03 0.  1.
<mgrwt>
<rscale>  2 0.17445615E+03</rscale>
<asrwt>0</asrwt>
<pdfrwt beam="1">  1       21 0.60603709E-02 0.17445615E+03</pdfrwt>
<pdfrwt beam="2">  1       21 0.27994982E+00 0.17445615E+03</pdfrwt>
<totfact> 0.88039780E+03</totfact>
</mgrwt>
</event>
<event>
 4    2  0.4039581E+000  0.2099808E+03  0.7546771E-02  0.1141581E+00
         21   -1    0    0  501  502  0.00000000000E+00  0.00000000000E+00  0.10059793799E+03  0.10059793799E+03  0.00000000000E+00 0. -1.
         21   -1    0    0  502  503 -0.00000000000E+00 -0.00000000000E+00 -0.96536086101E+03  0.96536086101E+03  0.00000000000E+00 0. -1.
          6    1    1    2  501    0 -0.75035296705E+02  0.92372216168E+02 -0.38562525462E+02  0.21349236624E+03  0.17300000000E+03 0. -1.
         -6    1    1    2    0  503  0.75035296705E+02 -0.92372216168E+02 -0.82620039755E+03  0.85246643276E+03  0.17300000000E+03 0. -1.
<mgrwt>
<rscale>  2 0.20998077E+03</rscale>
<asrwt>0</asrwt>
<pdfrwt beam="1">  1       21 0.15476607E-01 0.20998077E+03</pdfrwt>
<pdfrwt beam="2">  1       21 0.14851705E+00 0.20998077E+03</pdfrwt>
<totfact> 0.11225500E+04</totfact>
</mgrwt>
</event>
<event>
 4    2  0.4039581E+000  0.2213202E+03  0.7546771E-02  0.1132903E+00
         21   -1    0    0  503  502  0.00000000000E+00  0.00000000000E+00  0.35480677929E+04  0.35480677929E+04  0.00000000000E+00 0.  1.
         21   -1    0    0  501  503 -0.00000000000E+00 -0.00000000000E+00 -0.15466917370E+02  0.15466917370E+02  0.00000000000E+00 0.  1.
          6    1    1    2  501    0  0.79085161503E+02  0.11313334253E+03  0.11823216042E+04  0.12028578435E+04  0.17300000000E+03 0.  1.
         -6    1    1    2    0  502 -0.79085161503E+02 -0.11313334253E+03  0.23502792713E+04  0.23606768668E+04  0.17300000000E+03 0.  1.
<mgrwt>
<rscale>  2 0.22132017E+03</rscale>
<asrwt>0</asrwt>
<pdfrwt beam="1">  1       21 0.54585593E+00 0.22132017E+03</pdfrwt>
<pdfrwt beam="2">  1       21 0.23795286E-02 0.22132017E+03</pdfrwt>
<totfact> 0.78308018E+02</totfact>
</mgrwt>
</event>
<event>
 4    2  0.4039581E+000  0.2065699E+03  0.7546771E-02  0.1144311E+00
         21   -1    0    0  503  502  0.00000000000E+00  0.00000000000E+00  0.18070713344E+03  0.18070713344E+03  0.00000000000E+00 0.  1.
         21   -1    0    0  501  503 -0.00000000000E+00 -0.00000000000E+00 -0.70879486781E+03  0.70879486781E+03  0.00000000000E+00 0.  1.
          6    1    1    2  501    0 -0.87359278718E+02 -0.71487497036E+02 -0.62723183860E+03  0.66037177799E+03  0.17300000000E+03 0.  1.
         -6    1    1    2    0  502  0.87359278718E+02  0.71487497036E+02  0.99144104226E+02  0.22913022327E+03  0.17300000000E+03 0.  1.
<mgrwt>
<rscale>  2 0.20656986E+03</rscale>
<asrwt>0</asrwt>
<pdfrwt beam="1">  1       21 0.27801097E-01 0.20656986E+03</pdfrwt>
<pdfrwt beam="2">  1       21 0.10904536E+00 0.20656986E+03</pdfrwt>
<totfact> 0.81558613E+03</totfact>
</mgrwt>
</event>
<event>
 4    2  0.4039581E+000  0.2279425E+03  0.7546771E-02  0.1128096E+00
         21   -1    0    0  501  502  0.00000000000E+00  0.00000000000E+00  0.42949798877E+03  0.42949798877E+03  0.00000000000E+00 0.  1.
         21   -1    0    0  502  503 -0.00000000000E+00 -0.00000000000E+00 -0.22344303422E+03  0.22344303422E+03  0.00000000000E+00 0.  1.
          6    1    1    2  501    0  0.35005252886E+02 -0.14423386706E+03  0.32411203959E+03  0.39624031893E+03  0.17300000000E+03 0.  1.
         -6    1    1    2    0  503 -0.35005252886E+02  0.14423386706E+03 -0.11805708504E+03  0.25670070406E+03  0.17300000000E+03 0.  1.
<mgrwt>
<rscale>  2 0.22794248E+03</rscale>
<asrwt>0</asrwt>
<pdfrwt beam="1">  1       21 0.66076614E-01 0.22794248E+03</pdfrwt>
<pdfrwt beam="2">  1       21 0.34375851E-01 0.22794248E+03</pdfrwt>
<totfact> 0.16792264E+04</totfact>
</mgrwt>
</event>
<event>
 4    2  0.4039581E+000  0.2239481E+03  0.7546771E-02  0.1130973E+00
         21   -1    0    0  503  502  0.00000000000E+00  0.00000000000E+00  0.59095440641E+02  0.59095440641E+02  0.00000000000E+00 0.  1.
         21   -1    0    0  501  503 -0.00000000000E+00 -0.00000000000E+00 -0.85336234198E+03  0.85336234198E+03  0.00000000000E+00 0. -1.
          6    1    1    2  501    0 -0.10911483668E+03 -0.91201387616E+02 -0.43095114168E+03  0.48566616848E+03  0.17300000000E+03 0.  1.
         -6    1    1    2    0  502  0.10911483668E+03  0.91201387616E+02 -0.36331575966E+03  0.42679161414E+03  0.17300000000E+03 0. -1.
<mgrwt>
<rscale>  2 0.22394808E+03</rscale>
<asrwt>0</asrwt>
<pdfrwt beam="1">  1       21 0.90916069E-02 0.22394808E+03</pdfrwt>
<pdfrwt beam="2">  1       21 0.13128650E+00 0.22394808E+03</pdfrwt>
<totfact> 0.39771142E+04</totfact>
</mgrwt>
</event>
<event>
 4    2  0.4039581E+000  0.1814014E+03  0.7546771E-02  0.1166454E+00
         21   -1    0    0  503  502  0.00000000000E+00  0.00000000000E+00  0.10166671252E+03  0.10166671252E+03  0.00000000000E+00 0.  1.
         21   -1    0    0  501  503 -0.00000000000E+00 -0.00000000000E+00 -0.40263727141E+03  0.40263727141E+03  0.00000000000E+00 0.  1.
          6    1    1    2  501    0 -0.48409607660E+02  0.25178726803E+02 -0.26215338708E+03  0.31879594846E+03  0.17300000000E+03 0.  1.
         -6    1    1    2    0  502  0.48409607660E+02 -0.25178726803E+02 -0.38817171818E+02  0.18550803547E+03  0.17300000000E+03 0.  1.
<mgrwt>
<rscale>  2 0.18140137E+03</rscale>
<asrwt>0</asrwt>
<pdfrwt beam="1">  1       21 0.15641033E-01 0.18140137E+03</pdfrwt>
<pdfrwt beam="2">  1       21 0.61944196E-01 0.18140137E+03</pdfrwt>
<totfact> 0.88325225E+04</totfact>
</mgrwt>
</event>
<event>
 4    2  0.4039581E+000  0.2034045E+03  0.7546771E-02  0.1146898E+00
         21   -1    0    0  501  502  0.00000000000E+00  0.00000000000E+00  0.99434978414E+03  0.99434978414E+03  0.00000000000E+00 0.  1.
         21   -1    0    0  502  503 -0.00000000000E+00 -0.00000000000E+00 -0.55416117590E+02  0.55416117590E+02  0.00000000000E+00 0.  1.
          6    1    1    2  501    0 -0.26026977957E+02 -0.10376403725E+03  0.73146857163E+03  0.75922305701E+03  0.17300000000E+03 0.  1.
         -6    1    1    2    0  503  0.26026977957E+02  0.10376403725E+03  0.20746509491E+03  0.29054284472E+03  0.17300000000E+03 0.  1.
<mgrwt>
<rscale>  2 0.20340447E+03</rscale>
<asrwt>0</asrwt>
<pdfrwt beam="1">  1       21 0.15297688E+00 0.20340447E+03</pdfrwt>
<pdfrwt beam="2">  1       21 0.85255573E-02 0.20340447E+03</pdfrwt>
<totfact> 0.30273050E+04</totfact>
</mgrwt>
</event>
<event>
 4    2  0.4039581E+000  0.1878712E+03  0.7546771E-02  0.1160395E+00
         21   -1    0    0  503  502  0.00000000000E+00  0.00000000000E+00  0.13253170680E+03  0.13253170680E+03  0.00000000000E+00 0.  1.
         21   -1    0    0  501  503 -0.00000000000E+00 -0.00000000000E+00 -0.10366180139E+04  0.10366180139E+04  0.00000000000E+00 0.  1.
          6    1    1    2  501    0 -0.31285760894E+02 -0.66240498333E+02 -0.95596207057E+03  0.97424795757E+03  0.17300000000E+03 0.  1.
         -6    1    1    2    0  502  0.31285760894E+02  0.66240498333E+02  0.51875763432E+02  0.19490176317E+03  0.17300000000E+03 0.  1.
<mgrwt>
<rscale>  2 0.18787124E+03</rscale>
<asrwt>0</asrwt>
<pdfrwt beam="1">  1       21 0.20389494E-01 0.18787124E+03</pdfrwt>
<pdfrwt beam="2">  1       21 0.15947969E+00 0.18787124E+03</pdfrwt>
<totfact> 0.56765034E+03</totfact>
</mgrwt>
</event>
<event>
 4    2  0.4039581E+000  0.1901213E+03  0.7546771E-02  0.1158352E+00
         21   -1    0    0  501  502  0.00000000000E+00  0.00000000000E+00  0.44811339907E+03  0.44811339907E+03  0.00000000000E+00 0. -1.
         21   -1    0    0  502  503 -0.00000000000E+00 -0.00000000000E+00 -0.91379787233E+02  0.91379787233E+02  0.00000000000E+00 0. -1.
          6    1    1    2  501    0 -0.13212823768E+02 -0.77733706529E+02  0.85989336296E+02  0.20866306285E+03  0.17300000000E+03 0. -1.
         -6    1    1    2    0  503  0.13212823768E+02  0.77733706529E+02  0.27074427554E+03  0.33083012345E+03  0.17300000000E+03 0. -1.
<mgrwt>
<rscale>  2 0.19012130E+03</rscale>
<asrwt>0</asrwt>
<pdfrwt beam="1">  1       21 0.68940522E-01 0.19012130E+03</pdfrwt>
<pdfrwt beam="2">  1       21 0.14058429E-01 0.19012130E+03</pdfrwt>
<totfact> 0.84650834E+04</totfact>
</mgrwt>
</event>
<event>
 4    2  0.4039581E+000  0.1782597E+03  0.7546771E-02  0.1169498E+00
         21   -1    0    0  503  502  0.00000000000E+00  0.00000000000E+00  0.13388033426E+03  0.13388033426E+03  0.00000000000E+00 0.  1.
         21   -1    0    0  501  503 -0.00000000000E+00 -0.00000000000E+00 -0.23784758642E+03  0.23784758642E+03  0.00000000000E+00 0.  1.
          6    1    1    2  501    0  0.13364822118E+01  0.42961820292E+02 -0.60484385749E+02  0.18824150740E+03  0.17300000000E+03 0.  1.
         -6    1    1    2    0  502 -0.13364822118E+01 -0.42961820292E+02 -0.43482866418E+02  0.18348641328E+03  0.17300000000E+03 0.  1.
<mgrwt>
<rscale>  2 0.17825965E+03</rscale>
<asrwt>0</asrwt>
<pdfrwt beam="1">  1       21 0.20596975E-01 0.17825965E+03</pdfrwt>
<pdfrwt beam="2">  1       21 0.36591936E-01 0.17825965E+03</pdfrwt>
<totfact> 0.15807578E+05</totfact>
</mgrwt>
</event>
<event>
 4    2  0.4039581E+000  0.2014394E+03  0.7546771E-02  0.1148530E+00
         21   -1    0    0  501  502  0.00000000000E+00  0.00000000000E+00  0.76817595819E+02  0.76817595819E+02  0.00000000000E+00 0. -1.
         21   -1    0    0  502  503 -0.00000000000E+00 -0.00000000000E+00 -0.61908403198E+03  0.61908403198E+03  0.00000000000E+00 0. -1.
          6    1    1    2  501    0  0.11797763805E+02 -0.10251649150E+03 -0.13784220852E+03  0.24408665000E+03  0.17300000000E+03 0. -1.
         -6    1    1    2    0  503 -0.11797763805E+02  0.10251649150E+03 -0.40442422763E+03  0.45181497779E+03  0.17300000000E+03 0. -1.
<mgrwt>
<rscale>  2 0.20143937E+03</rscale>
<asrwt>0</asrwt>
<pdfrwt beam="1">  1       21 0.11818091E-01 0.20143937E+03</pdfrwt>
<pdfrwt beam="2">  1       21 0.95243701E-01 0.20143937E+03</pdfrwt>
<totfact> 0.55288222E+04</totfact>
</mgrwt>
</event>
<event>
 4    2  0.4039581E+000  0.2018739E+03  0.7546771E-02  0.1148168E+00
         21   -1    0    0  501  502  0.00000000000E+00  0.00000000000E+00  0.24183426273E+03  0.24183426273E+03  0.00000000000E+00 0.  1.
         21   -1    0    0  502  503 -0.00000000000E+00 -0.00000000000E+00 -0.21565372338E+03  0.21565372338E+03  0.00000000000E+00 0.  1.
          6    1    1    2  501    0  0.51638054265E+02  0.90319381954E+02  0.12003340531E+03  0.23486399851E+03  0.17300000000E+03 0.  1.
         -6    1    1    2    0  503 -0.51638054265E+02 -0.90319381954E+02 -0.93852865959E+02  0.22262398760E+03  0.17300000000E+03 0.  1.
<mgrwt>
<rscale>  2 0.20187392E+03</rscale>
<asrwt>0</asrwt>
<pdfrwt beam="1">  1       21 0.37205271E-01 0.20187392E+03</pdfrwt>
<pdfrwt beam="2">  1       21 0.33177496E-01 0.20187392E+03</pdfrwt>
<totfact> 0.60687651E+04</totfact>
</mgrwt>
</event>
<event>
 4    2  0.4039581E+000  0.2963697E+03  0.7546771E-02  0.1087070E+00
         21   -1    0    0  503  502  0.00000000000E+00  0.00000000000E+00  0.87084102456E+03  0.87084102456E+03  0.00000000000E+00 0. -1.
         21   -1    0    0  501  503 -0.00000000000E+00 -0.00000000000E+00 -0.15895690264E+03  0.15895690264E+03  0.00000000000E+00 0.  1.
          6    1    1    2  501    0  0.18996253405E+03  0.14771667210E+03  0.66722149299E+03  0.73008184491E+03  0.17300000000E+03 0.  1.
         -6    1    1    2    0  502 -0.18996253405E+03 -0.14771667210E+03  0.44662628926E+02  0.29971608229E+03  0.17300000000E+03 0. -1.
<mgrwt>
<rscale>  2 0.29636967E+03</rscale>
<asrwt>0</asrwt>
<pdfrwt beam="1">  1       21 0.13397554E+00 0.29636967E+03</pdfrwt>
<pdfrwt beam="2">  1       21 0.24454909E-01 0.29636967E+03</pdfrwt>
<totfact> 0.59110678E+03</totfact>
</mgrwt>
</event>
<event>
 4    2  0.4039581E+000  0.1871763E+03  0.7546771E-02  0.1161033E+00
         21   -1    0    0  503  502  0.00000000000E+00  0.00000000000E+00  0.23537277404E+03  0.23537277404E+03  0.00000000000E+00 0. -1.
         21   -1    0    0  501  503 -0.00000000000E+00 -0.00000000000E+00 -0.20099323390E+03  0.20099323390E+03  0.00000000000E+00 0. -1.
          6    1    1    2  501    0  0.10334189524E+02  0.70704808433E+02 -0.93940915034E+02  0.20942745982E+03  0.17300000000E+03 0. -1.
         -6    1    1    2    0  502 -0.10334189524E+02 -0.70704808433E+02  0.12832045518E+03  0.22693854813E+03  0.17300000000E+03 0. -1.
<mgrwt>
<rscale>  2 0.18717629E+03</rscale>
<asrwt>0</asrwt>
<pdfrwt beam="1">  1       21 0.36211196E-01 0.18717629E+03</pdfrwt>
<pdfrwt beam="2">  1       21 0.30922036E-01 0.18717629E+03</pdfrwt>
<totfact> 0.74041435E+04</totfact>
</mgrwt>
</event>
<event>
 4    2  0.4039581E+000  0.4088959E+03  0.7546771E-02  0.1040742E+00
         21   -1    0    0  503  502  0.00000000000E+00  0.00000000000E+00  0.28017010275E+03  0.28017010275E+03  0.00000000000E+00 0. -1.
         21   -1    0    0  501  503 -0.00000000000E+00 -0.00000000000E+00 -0.66978038525E+03  0.66978038525E+03  0.00000000000E+00 0.  1.
          6    1    1    2  501    0 -0.36823485699E+03 -0.40864981938E+02 -0.37981905538E+02  0.41065616007E+03  0.17300000000E+03 0.  1.
         -6    1    1    2    0  502  0.36823485699E+03  0.40864981938E+02 -0.35162837696E+03  0.53929432793E+03  0.17300000000E+03 0. -1.
<mgrwt>
<rscale>  2 0.40889590E+03</rscale>
<asrwt>0</asrwt>
<pdfrwt beam="1">  1       21 0.43103092E-01 0.40889590E+03</pdfrwt>
<pdfrwt beam="2">  1       21 0.10304314E+00 0.40889590E+03</pdfrwt>
<totfact> 0.35001933E+03</totfact>
</mgrwt>
</event>
<event>
 4    2  0.4039581E+000  0.1878218E+03  0.7546771E-02  0.1160441E+00
         21   -1    0    0  503  502  0.00000000000E+00  0.00000000000E+00  0.98819417969E+02  0.98819417969E+02  0.00000000000E+00 0. -1.
         21   -1    0    0  501  503 -0.00000000000E+00 -0.00000000000E+00 -0.37151226343E+03  0.37151226343E+03  0.00000000000E+00 0.  1.
          6    1    1    2  501    0 -0.45820314743E+00 -0.73128865700E+02 -0.18284941774E+03  0.26212773702E+03  0.17300000000E+03 0.  1.
         -6    1    1    2    0  502  0.45820314743E+00  0.73128865700E+02 -0.89843427717E+02  0.20820394437E+03  0.17300000000E+03 0.  1.
<mgrwt>
<rscale>  2 0.18782183E+03</rscale>
<asrwt>0</asrwt>
<pdfrwt beam="1">  1       21 0.15202987E-01 0.18782183E+03</pdfrwt>
<pdfrwt beam="2">  1       21 0.57155733E-01 0.18782183E+03</pdfrwt>
<totfact> 0.11024205E+05</totfact>
</mgrwt>
</event>
<event>
 4    2  0.4039581E+000  0.1897309E+03  0.7546771E-02  0.1158704E+00
         21   -1    0    0  501  502  0.00000000000E+00  0.00000000000E+00  0.39163160151E+03  0.39163160151E+03  0.00000000000E+00 0. -1.
         21   -1    0    0  502  503 -0.00000000000E+00 -0.00000000000E+00 -0.10402810332E+03  0.10402810332E+03  0.00000000000E+00 0. -1.
          6    1    1    2  501    0  0.28559378680E+02  0.72478924438E+02  0.22836069711E+03  0.29689466244E+03  0.17300000000E+03 0. -1.
         -6    1    1    2    0  503 -0.28559378680E+02 -0.72478924438E+02  0.59242801082E+02  0.19876504239E+03  0.17300000000E+03 0. -1.
<mgrwt>
<rscale>  2 0.18973095E+03</rscale>
<asrwt>0</asrwt>
<pdfrwt beam="1">  1       21 0.60251015E-01 0.18973095E+03</pdfrwt>
<pdfrwt beam="2">  1       21 0.16004324E-01 0.18973095E+03</pdfrwt>
<totfact> 0.89605150E+04</totfact>
</mgrwt>
</event>
<event>
 4    2  0.4039581E+000  0.3209892E+03  0.7546771E-02  0.1075195E+00
         21   -1    0    0  503  502  0.00000000000E+00  0.00000000000E+00  0.36098738133E+03  0.36098738133E+03  0.00000000000E+00 0. -1.
         21   -1    0    0  501  503 -0.00000000000E+00 -0.00000000000E+00 -0.28553657247E+03  0.28553657247E+03  0.00000000000E+00 0.  1.
          6    1    1    2  501    0 -0.18242762632E+03 -0.19956263388E+03  0.31276977625E+02  0.32250943090E+03  0.17300000000E+03 0. -1.
         -6    1    1    2    0  502  0.18242762632E+03  0.19956263388E+03  0.44173831235E+02  0.32401452290E+03  0.17300000000E+03 0.  1.
<mgrwt>
<rscale>  2 0.32098923E+03</rscale>
<asrwt>0</asrwt>
<pdfrwt beam="1">  1       21 0.55536520E-01 0.32098923E+03</pdfrwt>
<pdfrwt beam="2">  1       21 0.43928703E-01 0.32098923E+03</pdfrwt>
<totfact> 0.14255853E+04</totfact>
</mgrwt>
</event>
<event>
 4    2  0.4039581E+000  0.1748839E+03  0.7546771E-02  0.1172848E+00
         21   -1    0    0  501  502  0.00000000000E+00  0.00000000000E+00  0.21864456583E+02  0.21864456583E+02  0.00000000000E+00 0. -1.
         21   -1    0    0  502  503 -0.00000000000E+00 -0.00000000000E+00 -0.15660480333E+04  0.15660480333E+04  0.00000000000E+00 0. -1.
          6    1    1    2  501    0 -0.76443241740E+01  0.24432478619E+02 -0.51264279917E+03  0.54165212198E+03  0.17300000000E+03 0. -1.
         -6    1    1    2    0  503  0.76443241740E+01 -0.24432478619E+02 -0.10315407775E+04  0.10462603679E+04  0.17300000000E+03 0. -1.
<mgrwt>
<rscale>  2 0.17488391E+03</rscale>
<asrwt>0</asrwt>
<pdfrwt beam="1">  1       21 0.33637632E-02 0.17488391E+03</pdfrwt>
<pdfrwt beam="2">  1       21 0.24093042E+00 0.17488391E+03</pdfrwt>
<totfact> 0.39925859E+04</totfact>
</mgrwt>
</event>
<event>
 4    2  0.4039581E+000  0.2094061E+03  0.7546771E-02  0.1142037E+00
         21   -1    0    0  501  502  0.00000000000E+00  0.00000000000E+00  0.14869347370E+04  0.14869347370E+04  0.00000000000E+00 0. -1.
         21   -1    0    0  502  503 -0.00000000000E+00 -0.00000000000E+00 -0.29615291250E+02  0.29615291250E+02  0.00000000000E+00 0.  1.
          6    1    1    2  501    0  0.77044236634E+02 -0.89365018054E+02  0.77781925704E+03  0.80551456689E+03  0.17300000000E+03 0. -1.
         -6    1    1    2    0  503 -0.77044236634E+02  0.89365018054E+02  0.67950018866E+03  0.71103546131E+03  0.17300000000E+03 0.  1.
<mgrwt>
<rscale>  2 0.20940611E+03</rscale>
<asrwt>0</asrwt>
<pdfrwt beam="1">  1       21 0.22875913E+00 0.20940611E+03</pdfrwt>
<pdfrwt beam="2">  1       21 0.45561998E-02 0.20940611E+03</pdfrwt>
<totfact> 0.27649629E+04</totfact>
</mgrwt>
</event>
<event>
 4    2  0.4039581E+000  0.1871536E+03  0.7546771E-02  0.1161054E+00
         21   -1    0    0  503  502  0.00000000000E+00  0.00000000000E+00  0.10128518392E+04  0.10128518392E+04  0.00000000000E+00 0. -1.
         21   -1    0    0  501  503 -0.00000000000E+00 -0.00000000000E+00 -0.40163724655E+02  0.40163724655E+02  0.00000000000E+00 0. -1.
          6    1    1    2  501    0  0.57272849648E+02  0.42629699879E+02  0.29006637502E+03  0.34520279914E+03  0.17300000000E+03 0. -1.
         -6    1    1    2    0  502 -0.57272849648E+02 -0.42629699879E+02  0.68262173953E+03  0.70781276472E+03  0.17300000000E+03 0. -1.
<mgrwt>
<rscale>  2 0.18715360E+03</rscale>
<asrwt>0</asrwt>
<pdfrwt beam="1">  1       21 0.15582334E+00 0.18715360E+03</pdfrwt>
<pdfrwt beam="2">  1       21 0.61790353E-02 0.18715360E+03</pdfrwt>
<totfact> 0.50823094E+04</totfact>
</mgrwt>
</event>
<event>
 4    2  0.4039581E+000  0.2051256E+03  0.7546771E-02  0.1145485E+00
         21   -1    0    0  501  502  0.00000000000E+00  0.00000000000E+00  0.68475415698E+03  0.68475415698E+03  0.00000000000E+00 0.  1.
         21   -1    0    0  502  503 -0.00000000000E+00 -0.00000000000E+00 -0.37940703911E+03  0.37940703911E+03  0.00000000000E+00 0.  1.
          6    1    1    2  501    0 -0.93628163181E+02 -0.58148693872E+02  0.63976510051E+03  0.67184513645E+03  0.17300000000E+03 0.  1.
         -6    1    1    2    0  503  0.93628163181E+02  0.58148693872E+02 -0.33441798264E+03  0.39231605964E+03  0.17300000000E+03 0.  1.
<mgrwt>
<rscale>  2 0.20512558E+03</rscale>
<asrwt>0</asrwt>
<pdfrwt beam="1">  1       21 0.10534679E+00 0.20512558E+03</pdfrwt>
<pdfrwt beam="2">  1       21 0.58370314E-01 0.20512558E+03</pdfrwt>
<totfact> 0.19699600E+03</totfact>
</mgrwt>
</event>
<event>
 4    2  0.4039581E+000  0.1746170E+03  0.7546771E-02  0.1173117E+00
         21   -1    0    0  503  502  0.00000000000E+00  0.00000000000E+00  0.90494920230E+02  0.90494920230E+02  0.00000000000E+00 0.  1.
         21   -1    0    0  501  503 -0.00000000000E+00 -0.00000000000E+00 -0.47757599534E+03  0.47757599534E+03  0.00000000000E+00 0.  1.
          6    1    1    2  501    0 -0.23165299663E+02  0.50467235462E+01 -0.34767649341E+03  0.38906303422E+03  0.17300000000E+03 0.  1.
         -6    1    1    2    0  502  0.23165299663E+02 -0.50467235462E+01 -0.39404581704E+02  0.17900788135E+03  0.17300000000E+03 0.  1.
<mgrwt>
<rscale>  2 0.17461701E+03</rscale>
<asrwt>0</asrwt>
<pdfrwt beam="1">  1       21 0.13922296E-01 0.17461701E+03</pdfrwt>
<pdfrwt beam="2">  1       21 0.73473229E-01 0.17461701E+03</pdfrwt>
<totfact> 0.75343570E+04</totfact>
</mgrwt>
</event>
<event>
 4    2  0.4039581E+000  0.2383002E+03  0.7546771E-02  0.1120930E+00
         21   -1    0    0  501  502  0.00000000000E+00  0.00000000000E+00  0.96729605926E+02  0.96729605926E+02  0.00000000000E+00 0.  1.
         21   -1    0    0  502  503 -0.00000000000E+00 -0.00000000000E+00 -0.58893986236E+03  0.58893986236E+03  0.00000000000E+00 0.  1.
          6    1    1    2  501    0 -0.92776723565E+02 -0.13509433047E+03 -0.22678475070E+03  0.32896553271E+03  0.17300000000E+03 0.  1.
         -6    1    1    2    0  503  0.92776723565E+02  0.13509433047E+03 -0.26542550573E+03  0.35670393557E+03  0.17300000000E+03 0.  1.
<mgrwt>
<rscale>  2 0.23830023E+03</rscale>
<asrwt>0</asrwt>
<pdfrwt beam="1">  1       21 0.14881477E-01 0.23830023E+03</pdfrwt>
<pdfrwt beam="2">  1       21 0.90606135E-01 0.23830023E+03</pdfrwt>
<totfact> 0.40244262E+04</totfact>
</mgrwt>
</event>
<event>
 4    2  0.4039581E+000  0.2125103E+03  0.7546771E-02  0.1139593E+00
         21   -1    0    0  501  502  0.00000000000E+00  0.00000000000E+00  0.11167996105E+03  0.11167996105E+03  0.00000000000E+00 0.  1.
         21   -1    0    0  502  503 -0.00000000000E+00 -0.00000000000E+00 -0.41754288408E+03  0.41754288408E+03  0.00000000000E+00 0.  1.
          6    1    1    2  501    0  0.12327324517E+03  0.59458425415E+01 -0.10594130189E+03  0.23745358592E+03  0.17300000000E+03 0.  1.
         -6    1    1    2    0  503 -0.12327324517E+03 -0.59458425415E+01 -0.19992162114E+03  0.29176925921E+03  0.17300000000E+03 0.  1.
<mgrwt>
<rscale>  2 0.21251034E+03</rscale>
<asrwt>0</asrwt>
<pdfrwt beam="1">  1       21 0.17181532E-01 0.21251034E+03</pdfrwt>
<pdfrwt beam="2">  1       21 0.64237368E-01 0.21251034E+03</pdfrwt>
<totfact> 0.67801580E+04</totfact>
</mgrwt>
</event>
<event>
 4    2  0.4039581E+000  0.1823480E+03  0.7546771E-02  0.1165550E+00
         21   -1    0    0  503  502  0.00000000000E+00  0.00000000000E+00  0.20535245971E+03  0.20535245971E+03  0.00000000000E+00 0. -1.
         21   -1    0    0  501  503 -0.00000000000E+00 -0.00000000000E+00 -0.19564719007E+03  0.19564719007E+03  0.00000000000E+00 0. -1.
          6    1    1    2  501    0 -0.56341872276E+02 -0.12140280006E+02 -0.78393374537E+02  0.19848504765E+03  0.17300000000E+03 0. -1.
         -6    1    1    2    0  502  0.56341872276E+02  0.12140280006E+02  0.88098644174E+02  0.20251460213E+03  0.17300000000E+03 0. -1.
<mgrwt>
<rscale>  2 0.18234800E+03</rscale>
<asrwt>0</asrwt>
<pdfrwt beam="1">  1       21 0.31592686E-01 0.18234800E+03</pdfrwt>
<pdfrwt beam="2">  1       21 0.30099568E-01 0.18234800E+03</pdfrwt>
<totfact> 0.10236331E+05</totfact>
</mgrwt>
</event>
<event>
 4    2  0.4039581E+000  0.2127513E+03  0.7546771E-02  0.1139406E+00
         21   -1    0    0  501  502  0.00000000000E+00  0.00000000000E+00  0.20386724919E+03  0.20386724919E+03  0.00000000000E+00 0. -1.
         21   -1    0    0  502  503 -0.00000000000E+00 -0.00000000000E+00 -0.22523513976E+03  0.22523513976E+03  0.00000000000E+00 0. -1.
          6    1    1    2  501    0 -0.11534156094E+03 -0.45060217459E+02 -0.36308106940E+02  0.21582719362E+03  0.17300000000E+03 0. -1.
         -6    1    1    2    0  503  0.11534156094E+03  0.45060217459E+02  0.14940216375E+02  0.21327519533E+03  0.17300000000E+03 0. -1.
<mgrwt>
<rscale>  2 0.21275126E+03</rscale>
<asrwt>0</asrwt>
<pdfrwt beam="1">  1       21 0.31364192E-01 0.21275126E+03</pdfrwt>
<pdfrwt beam="2">  1       21 0.34651560E-01 0.21275126E+03</pdfrwt>
<totfact> 0.77749483E+04</totfact>
</mgrwt>
</event>
<event>
 4    2  0.4039581E+000  0.2637167E+03  0.7546771E-02  0.1104931E+00
         21   -1    0    0  503  502  0.00000000000E+00  0.00000000000E+00  0.88211238512E+02  0.88211238512E+02  0.00000000000E+00 0.  1.
         21   -1    0    0  501  503 -0.00000000000E+00 -0.00000000000E+00 -0.88301089580E+03  0.88301089580E+03  0.00000000000E+00 0. -1.
          6    1    1    2  501    0 -0.18690731163E+03  0.68433502169E+02 -0.23845123599E+03  0.35553548249E+03  0.17300000000E+03 0.  1.
         -6    1    1    2    0  502  0.18690731163E+03 -0.68433502169E+02 -0.55634842129E+03  0.61568665183E+03  0.17300000000E+03 0. -1.
<mgrwt>
<rscale>  2 0.26371668E+03</rscale>
<asrwt>0</asrwt>
<pdfrwt beam="1">  1       21 0.13570959E-01 0.26371668E+03</pdfrwt>
<pdfrwt beam="2">  1       21 0.13584784E+00 0.26371668E+03</pdfrwt>
<totfact> 0.17437849E+04</totfact>
</mgrwt>
</event>
<event>
 4    2  0.4039581E+000  0.2353849E+03  0.7546771E-02  0.1122906E+00
         21   -1    0    0  501  502  0.00000000000E+00  0.00000000000E+00  0.52537115184E+03  0.52537115184E+03  0.00000000000E+00 0.  1.
         21   -1    0    0  502  503 -0.00000000000E+00 -0.00000000000E+00 -0.11437026846E+03  0.11437026846E+03  0.00000000000E+00 0.  1.
          6    1    1    2  501    0 -0.62953964465E+02  0.14667604599E+03  0.11622259592E+03  0.26251429659E+03  0.17300000000E+03 0.  1.
         -6    1    1    2    0  503  0.62953964465E+02 -0.14667604599E+03  0.29477828746E+03  0.37722712371E+03  0.17300000000E+03 0.  1.
<mgrwt>
<rscale>  2 0.23538493E+03</rscale>
<asrwt>0</asrwt>
<pdfrwt beam="1">  1       21 0.80826329E-01 0.23538493E+03</pdfrwt>
<pdfrwt beam="2">  1       21 0.17595426E-01 0.23538493E+03</pdfrwt>
<totfact> 0.38514355E+04</totfact>
</mgrwt>
</event>
<event>
 4    2  0.4039581E+000  0.2180478E+03  0.7546771E-02  0.1135347E+00
         21   -1    0    0  503  502  0.00000000000E+00  0.00000000000E+00  0.11308884905E+03  0.11308884905E+03  0.00000000000E+00 0.  1.
         21   -1    0    0  501  503 -0.00000000000E+00 -0.00000000000E+00 -0.56457688193E+03  0.56457688193E+03  0.00000000000E+00 0.  1.
          6    1    1    2  501    0 -0.12741816509E+03  0.37154611949E+02 -0.39695875205E+03  0.45290297506E+03  0.17300000000E+03 0.  1.
         -6    1    1    2    0  502  0.12741816509E+03 -0.37154611949E+02 -0.54529280831E+02  0.22476275593E+03  0.17300000000E+03 0.  1.
<mgrwt>
<rscale>  2 0.21804782E+03</rscale>
<asrwt>0</asrwt>
<pdfrwt beam="1">  1       21 0.17398285E-01 0.21804782E+03</pdfrwt>
<pdfrwt beam="2">  1       21 0.86857981E-01 0.21804782E+03</pdfrwt>
<totfact> 0.33627458E+04</totfact>
</mgrwt>
</event>
<event>
 4    2  0.4039581E+000  0.2679750E+03  0.7546771E-02  0.1102444E+00
         21   -1    0    0  503  502  0.00000000000E+00  0.00000000000E+00  0.45424910167E+02  0.45424910167E+02  0.00000000000E+00 0.  1.
         21   -1    0    0  501  503 -0.00000000000E+00 -0.00000000000E+00 -0.16073887488E+04  0.16073887488E+04  0.00000000000E+00 0. -1.
          6    1    1    2  501    0 -0.20428643425E+03 -0.12192063131E+02 -0.88714198029E+03  0.92673161531E+03  0.17300000000E+03 0.  1.
         -6    1    1    2    0  502  0.20428643425E+03  0.12192063131E+02 -0.67482185832E+03  0.72608204363E+03  0.17300000000E+03 0. -1.
<mgrwt>
<rscale>  2 0.26797499E+03</rscale>
<asrwt>0</asrwt>
<pdfrwt beam="1">  1       21 0.69884473E-02 0.26797499E+03</pdfrwt>
<pdfrwt beam="2">  1       21 0.24729059E+00 0.26797499E+03</pdfrwt>
<totfact> 0.98412479E+03</totfact>
</mgrwt>
</event>
<event>
 4    2  0.4039581E+000  0.2147698E+03  0.7546771E-02  0.1137844E+00
         21   -1    0    0  501  502  0.00000000000E+00  0.00000000000E+00  0.15557393106E+03  0.15557393106E+03  0.00000000000E+00 0.  1.
         21   -1    0    0  502  503 -0.00000000000E+00 -0.00000000000E+00 -0.38479128105E+03  0.38479128105E+03  0.00000000000E+00 0. -1.
          6    1    1    2  501    0 -0.88318456651E+00  0.12726467272E+03  0.14819514436E+02  0.21528050294E+03  0.17300000000E+03 0.  1.
         -6    1    1    2    0  503  0.88318456651E+00 -0.12726467272E+03 -0.24403686442E+03  0.32508470917E+03  0.17300000000E+03 0. -1.
<mgrwt>
<rscale>  2 0.21476982E+03</rscale>
<asrwt>0</asrwt>
<pdfrwt beam="1">  1       21 0.23934451E-01 0.21476982E+03</pdfrwt>
<pdfrwt beam="2">  1       21 0.59198658E-01 0.21476982E+03</pdfrwt>
<totfact> 0.43410245E+04</totfact>
</mgrwt>
</event>
<event>
 4    2  0.4039581E+000  0.3771161E+03  0.7546771E-02  0.1052005E+00
         21   -1    0    0  501  502  0.00000000000E+00  0.00000000000E+00  0.21744455135E+03  0.21744455135E+03  0.00000000000E+00 0. -1.
         21   -1    0    0  502  503 -0.00000000000E+00 -0.00000000000E+00 -0.68155987313E+03  0.68155987313E+03  0.00000000000E+00 0.  1.
          6    1    1    2  501    0 -0.32465999975E+03 -0.82966709653E+02 -0.32238800520E+03  0.49613568330E+03  0.17300000000E+03 0.  1.
         -6    1    1    2    0  503  0.32465999975E+03  0.82966709653E+02 -0.14172731659E+03  0.40286874118E+03  0.17300000000E+03 0. -1.
<mgrwt>
<rscale>  2 0.37711615E+03</rscale>
<asrwt>0</asrwt>
<pdfrwt beam="1">  1       21 0.33453009E-01 0.37711615E+03</pdfrwt>
<pdfrwt beam="2">  1       21 0.10485536E+00 0.37711615E+03</pdfrwt>
<totfact> 0.56961894E+03</totfact>
</mgrwt>
</event>
<event>
 4    2  0.4039581E+000  0.1908135E+03  0.7546771E-02  0.1157730E+00
         21   -1    0    0  503  502  0.00000000000E+00  0.00000000000E+00  0.44397794383E+03  0.44397794383E+03  0.00000000000E+00 0. -1.
         21   -1    0    0  501  503 -0.00000000000E+00 -0.00000000000E+00 -0.19110616132E+03  0.19110616132E+03  0.00000000000E+00 0.  1.
          6    1    1    2  501    0  0.65290474582E+02 -0.47095137389E+02 -0.11348737936E+03  0.22201167382E+03  0.17300000000E+03 0.  1.
         -6    1    1    2    0  502 -0.65290474582E+02  0.47095137389E+02  0.36635916187E+03  0.41307243133E+03  0.17300000000E+03 0. -1.
<mgrwt>
<rscale>  2 0.19081352E+03</rscale>
<asrwt>0</asrwt>
<pdfrwt beam="1">  1       21 0.68304299E-01 0.19081352E+03</pdfrwt>
<pdfrwt beam="2">  1       21 0.29400948E-01 0.19081352E+03</pdfrwt>
<totfact> 0.21698124E+04</totfact>
</mgrwt>
</event>
<event>
 4    2  0.4039581E+000  0.2046618E+03  0.7546771E-02  0.1145864E+00
         21   -1    0    0  501  502  0.00000000000E+00  0.00000000000E+00  0.13877398942E+03  0.13877398942E+03  0.00000000000E+00 0.  1.
         21   -1    0    0  502  503 -0.00000000000E+00 -0.00000000000E+00 -0.35072567996E+03  0.35072567996E+03  0.00000000000E+00 0. -1.
          6    1    1    2  501    0  0.10827702025E+03  0.15281472939E+02 -0.14592973331E+02  0.20518136222E+03  0.17300000000E+03 0.  1.
         -6    1    1    2    0  503 -0.10827702025E+03 -0.15281472939E+02 -0.19735871721E+03  0.28431830716E+03  0.17300000000E+03 0. -1.
<mgrwt>
<rscale>  2 0.20466176E+03</rscale>
<asrwt>0</asrwt>
<pdfrwt beam="1">  1       21 0.21349845E-01 0.20466176E+03</pdfrwt>
<pdfrwt beam="2">  1       21 0.53957796E-01 0.20466176E+03</pdfrwt>
<totfact> 0.65972585E+04</totfact>
</mgrwt>
</event>
<event>
 4    2  0.4039581E+000  0.1934839E+03  0.7546771E-02  0.1155356E+00
         21   -1    0    0  503  502  0.00000000000E+00  0.00000000000E+00  0.58331892904E+02  0.58331892904E+02  0.00000000000E+00 0. -1.
         21   -1    0    0  501  503 -0.00000000000E+00 -0.00000000000E+00 -0.70814126144E+03  0.70814126144E+03  0.00000000000E+00 0. -1.
          6    1    1    2  501    0  0.77743043759E+02  0.38249819618E+02 -0.44222581737E+03  0.48270042791E+03  0.17300000000E+03 0. -1.
         -6    1    1    2    0  502 -0.77743043759E+02 -0.38249819618E+02 -0.20758355116E+03  0.28377272643E+03  0.17300000000E+03 0. -1.
<mgrwt>
<rscale>  2 0.19348393E+03</rscale>
<asrwt>0</asrwt>
<pdfrwt beam="1">  1       21 0.89741378E-02 0.19348393E+03</pdfrwt>
<pdfrwt beam="2">  1       21 0.10894480E+00 0.19348393E+03</pdfrwt>
<totfact> 0.65609160E+04</totfact>
</mgrwt>
</event>
<event>
 4    2  0.4039581E+000  0.2241595E+03  0.7546771E-02  0.1130819E+00
         21   -1    0    0  501  502  0.00000000000E+00  0.00000000000E+00  0.78695418527E+03  0.78695418527E+03  0.00000000000E+00 0. -1.
         21   -1    0    0  502  503 -0.00000000000E+00 -0.00000000000E+00 -0.71320886911E+02  0.71320886911E+02  0.00000000000E+00 0.  1.
          6    1    1    2  501    0 -0.43149963700E+02 -0.13585490793E+03  0.21893093643E+03  0.31333405544E+03  0.17300000000E+03 0.  1.
         -6    1    1    2    0  503  0.43149963700E+02  0.13585490793E+03  0.49670236193E+03  0.54494101674E+03  0.17300000000E+03 0. -1.
<mgrwt>
<rscale>  2 0.22415949E+03</rscale>
<asrwt>0</asrwt>
<pdfrwt beam="1">  1       21 0.12106987E+00 0.22415949E+03</pdfrwt>
<pdfrwt beam="2">  1       21 0.10972445E-01 0.22415949E+03</pdfrwt>
<totfact> 0.34948142E+04</totfact>
</mgrwt>
</event>
<event>
 4    2  0.4039581E+000  0.1997328E+03  0.7546771E-02  0.1149965E+00
         21   -1    0    0  503  502  0.00000000000E+00  0.00000000000E+00  0.67828985723E+02  0.67828985723E+02  0.00000000000E+00 0. -1.
         21   -1    0    0  501  503 -0.00000000000E+00 -0.00000000000E+00 -0.75722909014E+03  0.75722909014E+03  0.00000000000E+00 0. -1.
          6    1    1    2  501    0  0.17214449130E+02 -0.98325346664E+02 -0.53963671834E+03  0.57541376316E+03  0.17300000000E+03 0. -1.
         -6    1    1    2    0  502 -0.17214449130E+02  0.98325346664E+02 -0.14976338608E+03  0.24964431270E+03  0.17300000000E+03 0. -1.
<mgrwt>
<rscale>  2 0.19973285E+03</rscale>
<asrwt>0</asrwt>
<pdfrwt beam="1">  1       21 0.10435229E-01 0.19973285E+03</pdfrwt>
<pdfrwt beam="2">  1       21 0.11649678E+00 0.19973285E+03</pdfrwt>
<totfact> 0.42582194E+04</totfact>
</mgrwt>
</event>
<event>
 4    2  0.4039581E+000  0.2079386E+03  0.7546771E-02  0.1143209E+00
         21   -1    0    0  501  502  0.00000000000E+00  0.00000000000E+00  0.61829705522E+02  0.61829705522E+02  0.00000000000E+00 0.  1.
         21   -1    0    0  502  503 -0.00000000000E+00 -0.00000000000E+00 -0.86257391773E+03  0.86257391773E+03  0.00000000000E+00 0. -1.
          6    1    1    2  501    0  0.10213116772E+03 -0.53653399496E+02 -0.19929090910E+03  0.28801966799E+03  0.17300000000E+03 0.  1.
         -6    1    1    2    0  503 -0.10213116772E+03  0.53653399496E+02 -0.60145330310E+03  0.63638395526E+03  0.17300000000E+03 0. -1.
<mgrwt>
<rscale>  2 0.20793860E+03</rscale>
<asrwt>0</asrwt>
<pdfrwt beam="1">  1       21 0.95122624E-02 0.20793860E+03</pdfrwt>
<pdfrwt beam="2">  1       21 0.13270368E+00 0.20793860E+03</pdfrwt>
<totfact> 0.36045425E+04</totfact>
</mgrwt>
</event>
<event>
 4    2  0.4039581E+000  0.2144282E+03  0.7546771E-02  0.1138107E+00
         21   -1    0    0  501  502  0.00000000000E+00  0.00000000000E+00  0.32848117246E+03  0.32848117246E+03  0.00000000000E+00 0. -1.
         21   -1    0    0  502  503 -0.00000000000E+00 -0.00000000000E+00 -0.34081680636E+03  0.34081680636E+03  0.00000000000E+00 0. -1.
          6    1    1    2  501    0 -0.12375443187E+03 -0.27116596490E+02  0.25072681667E+03  0.32991424009E+03  0.17300000000E+03 0. -1.
         -6    1    1    2    0  503  0.12375443187E+03  0.27116596490E+02 -0.26306245057E+03  0.33938373873E+03  0.17300000000E+03 0. -1.
<mgrwt>
<rscale>  2 0.21442824E+03</rscale>
<asrwt>0</asrwt>
<pdfrwt beam="1">  1       21 0.50535565E-01 0.21442824E+03</pdfrwt>
<pdfrwt beam="2">  1       21 0.52433355E-01 0.21442824E+03</pdfrwt>
<totfact> 0.12676731E+04</totfact>
</mgrwt>
</event>
<event>
 4    2  0.4039581E+000  0.1883085E+03  0.7546771E-02  0.1159996E+00
         21   -1    0    0  503  502  0.00000000000E+00  0.00000000000E+00  0.10750025069E+03  0.10750025069E+03  0.00000000000E+00 0. -1.
         21   -1    0    0  501  503 -0.00000000000E+00 -0.00000000000E+00 -0.19489798616E+04  0.19489798616E+04  0.00000000000E+00 0. -1.
          6    1    1    2  501    0  0.50383090618E+02 -0.54705009903E+02 -0.18579354598E+04  0.18674539530E+04  0.17300000000E+03 0. -1.
         -6    1    1    2    0  502 -0.50383090618E+02  0.54705009903E+02  0.16455848865E+02  0.18902615928E+03  0.17300000000E+03 0. -1.
<mgrwt>
<rscale>  2 0.18830851E+03</rscale>
<asrwt>0</asrwt>
<pdfrwt beam="1">  1       21 0.16538499E-01 0.18830851E+03</pdfrwt>
<pdfrwt beam="2">  1       21 0.29984307E+00 0.18830851E+03</pdfrwt>
<totfact> 0.11291702E+03</totfact>
</mgrwt>
</event>
<event>
 4    2  0.4039581E+000  0.1903942E+03  0.7546771E-02  0.1158106E+00
         21   -1    0    0  503  502  0.00000000000E+00  0.00000000000E+00  0.19115491244E+04  0.19115491244E+04  0.00000000000E+00 0.  1.
         21   -1    0    0  501  503 -0.00000000000E+00 -0.00000000000E+00 -0.23113928642E+02  0.23113928642E+02  0.00000000000E+00 0.  1.
          6    1    1    2  501    0  0.53498034756E+02 -0.58812559642E+02  0.53431859909E+03  0.56722687016E+03  0.17300000000E+03 0.  1.
         -6    1    1    2    0  502 -0.53498034756E+02  0.58812559642E+02  0.13541165967E+04  0.13674361829E+04  0.17300000000E+03 0.  1.
<mgrwt>
<rscale>  2 0.19039421E+03</rscale>
<asrwt>0</asrwt>
<pdfrwt beam="1">  1       21 0.29408436E+00 0.19039421E+03</pdfrwt>
<pdfrwt beam="2">  1       21 0.35559905E-02 0.19039421E+03</pdfrwt>
<totfact> 0.17651761E+04</totfact>
</mgrwt>
</event>
<event>
 4    2  0.4039581E+000  0.1737005E+03  0.7546771E-02  0.1174043E+00
         21   -1    0    0  503  502  0.00000000000E+00  0.00000000000E+00  0.38189499832E+03  0.38189499832E+03  0.00000000000E+00 0. -1.
         21   -1    0    0  501  503 -0.00000000000E+00 -0.00000000000E+00 -0.49291483466E+03  0.49291483466E+03  0.00000000000E+00 0. -1.
          6    1    1    2  501    0  0.30051717864E+00 -0.15581373715E+02 -0.45633070670E+03  0.48827203831E+03  0.17300000000E+03 0. -1.
         -6    1    1    2    0  502 -0.30051717864E+00  0.15581373715E+02  0.34531087036E+03  0.38653779467E+03  0.17300000000E+03 0. -1.
<mgrwt>
<rscale>  2 0.17370052E+03</rscale>
<asrwt>0</asrwt>
<pdfrwt beam="1">  1       21 0.58753076E-01 0.17370052E+03</pdfrwt>
<pdfrwt beam="2">  1       21 0.75833052E-01 0.17370052E+03</pdfrwt>
<totfact> 0.42709876E+03</totfact>
</mgrwt>
</event>
<event>
 4    2  0.4039581E+000  0.3382682E+03  0.7546771E-02  0.1067536E+00
         21   -1    0    0  503  502  0.00000000000E+00  0.00000000000E+00  0.10122143368E+03  0.10122143368E+03  0.00000000000E+00 0. -1.
         21   -1    0    0  501  503 -0.00000000000E+00 -0.00000000000E+00 -0.12956432763E+04  0.12956432763E+04  0.00000000000E+00 0.  1.
          6    1    1    2  501    0 -0.54043495491E+02 -0.28561457431E+03 -0.84660309082E+03  0.91168096276E+03  0.17300000000E+03 0.  1.
         -6    1    1    2    0  502  0.54043495491E+02  0.28561457431E+03 -0.34781875177E+03  0.48518374720E+03  0.17300000000E+03 0.  1.
<mgrwt>
<rscale>  2 0.33826821E+03</rscale>
<asrwt>0</asrwt>
<pdfrwt beam="1">  1       21 0.15572527E-01 0.33826821E+03</pdfrwt>
<pdfrwt beam="2">  1       21 0.19932975E+00 0.33826821E+03</pdfrwt>
<totfact> 0.44832091E+03</totfact>
</mgrwt>
</event>
<event>
 4    2  0.4039581E+000  0.1753036E+03  0.7546771E-02  0.1172427E+00
         21   -1    0    0  501  502  0.00000000000E+00  0.00000000000E+00  0.19817660570E+03  0.19817660570E+03  0.00000000000E+00 0.  1.
         21   -1    0    0  502  503 -0.00000000000E+00 -0.00000000000E+00 -0.26370124451E+03  0.26370124451E+03  0.00000000000E+00 0.  1.
          6    1    1    2  501    0 -0.41680995990E+01 -0.28017784823E+02  0.11546122237E+03  0.20991108401E+03  0.17300000000E+03 0.  1.
         -6    1    1    2    0  503  0.41680995990E+01  0.28017784823E+02 -0.18098586118E+03  0.25196676620E+03  0.17300000000E+03 0.  1.
<mgrwt>
<rscale>  2 0.17530365E+03</rscale>
<asrwt>0</asrwt>
<pdfrwt beam="1">  1       21 0.30488709E-01 0.17530365E+03</pdfrwt>
<pdfrwt beam="2">  1       21 0.40569422E-01 0.17530365E+03</pdfrwt>
<totfact> 0.60913954E+04</totfact>
</mgrwt>
</event>
<event>
 4    2  0.4039581E+000  0.1919844E+03  0.7546771E-02  0.1156684E+00
         21   -1    0    0  501  502  0.00000000000E+00  0.00000000000E+00  0.88107655926E+02  0.88107655926E+02  0.00000000000E+00 0.  1.
         21   -1    0    0  502  503 -0.00000000000E+00 -0.00000000000E+00 -0.47188623470E+03  0.47188623470E+03  0.00000000000E+00 0.  1.
          6    1    1    2  501    0  0.26273505170E+02  0.78985427973E+02 -0.97560692361E+02  0.21535107058E+03  0.17300000000E+03 0.  1.
         -6    1    1    2    0  503 -0.26273505170E+02 -0.78985427973E+02 -0.28621788641E+03  0.34464282004E+03  0.17300000000E+03 0.  1.
<mgrwt>
<rscale>  2 0.19198436E+03</rscale>
<asrwt>0</asrwt>
<pdfrwt beam="1">  1       21 0.13555024E-01 0.19198436E+03</pdfrwt>
<pdfrwt beam="2">  1       21 0.72597885E-01 0.19198436E+03</pdfrwt>
<totfact> 0.80606503E+04</totfact>
</mgrwt>
</event>
<event>
 4    2  0.4039581E+000  0.2053541E+03  0.7546771E-02  0.1145299E+00
         21   -1    0    0  503  502  0.00000000000E+00  0.00000000000E+00  0.66222131431E+02  0.66222131431E+02  0.00000000000E+00 0.  1.
         21   -1    0    0  501  503 -0.00000000000E+00 -0.00000000000E+00 -0.83819135802E+03  0.83819135802E+03  0.00000000000E+00 0. -1.
          6    1    1    2  501    0 -0.46751213320E+02 -0.10027779053E+03 -0.60764338294E+03  0.64140532587E+03  0.17300000000E+03 0. -1.
         -6    1    1    2    0  502  0.46751213320E+02  0.10027779053E+03 -0.16432584365E+03  0.26300816358E+03  0.17300000000E+03 0.  1.
<mgrwt>
<rscale>  2 0.20535411E+03</rscale>
<asrwt>0</asrwt>
<pdfrwt beam="1">  1       21 0.10188020E-01 0.20535411E+03</pdfrwt>
<pdfrwt beam="2">  1       21 0.12895252E+00 0.20535411E+03</pdfrwt>
<totfact> 0.34382942E+04</totfact>
</mgrwt>
</event>
<event>
 4    2  0.4039581E+000  0.1861327E+03  0.7546771E-02  0.1161996E+00
         21   -1    0    0  503  502  0.00000000000E+00  0.00000000000E+00  0.43989695973E+03  0.43989695973E+03  0.00000000000E+00 0.  1.
         21   -1    0    0  501  503 -0.00000000000E+00 -0.00000000000E+00 -0.19067832332E+03  0.19067832332E+03  0.00000000000E+00 0.  1.
          6    1    1    2  501    0 -0.65756715077E+02 -0.19809871228E+02 -0.11694282098E+03  0.21982038112E+03  0.17300000000E+03 0.  1.
         -6    1    1    2    0  502  0.65756715077E+02  0.19809871228E+02  0.36616145739E+03  0.41075490193E+03  0.17300000000E+03 0.  1.
<mgrwt>
<rscale>  2 0.18613269E+03</rscale>
<asrwt>0</asrwt>
<pdfrwt beam="1">  1       21 0.67676455E-01 0.18613269E+03</pdfrwt>
<pdfrwt beam="2">  1       21 0.29335127E-01 0.18613269E+03</pdfrwt>
<totfact> 0.22298451E+04</totfact>
</mgrwt>
</event>
<event>
 4    2  0.4039581E+000  0.2307942E+03  0.7546771E-02  0.1126082E+00
         21   -1    0    0  503  502  0.00000000000E+00  0.00000000000E+00  0.38406493656E+02  0.38406493656E+02  0.00000000000E+00 0. -1.
         21   -1    0    0  501  503 -0.00000000000E+00 -0.00000000000E+00 -0.16362086873E+04  0.16362086873E+04  0.00000000000E+00 0. -1.
          6    1    1    2  501    0  0.59210312856E+02  0.14082294400E+03 -0.11257405409E+04  0.11491552237E+04  0.17300000000E+03 0. -1.
         -6    1    1    2    0  502 -0.59210312856E+02 -0.14082294400E+03 -0.47206165279E+03  0.52545995731E+03  0.17300000000E+03 0. -1.
<mgrwt>
<rscale>  2 0.23079420E+03</rscale>
<asrwt>0</asrwt>
<pdfrwt beam="1">  1       21 0.59086921E-02 0.23079420E+03</pdfrwt>
<pdfrwt beam="2">  1       21 0.25172438E+00 0.23079420E+03</pdfrwt>
<totfact> 0.12719216E+04</totfact>
</mgrwt>
</event>
<event>
 4    2  0.4039581E+000  0.2369233E+03  0.7546771E-02  0.1121860E+00
         21   -1    0    0  503  502  0.00000000000E+00  0.00000000000E+00  0.54632930562E+02  0.54632930562E+02  0.00000000000E+00 0. -1.
         21   -1    0    0  501  503 -0.00000000000E+00 -0.00000000000E+00 -0.13524454094E+04  0.13524454094E+04  0.00000000000E+00 0.  1.
          6    1    1    2  501    0  0.15020597452E+03 -0.60347400220E+02 -0.99378507729E+03  0.10216366396E+04  0.17300000000E+03 0.  1.
         -6    1    1    2    0  502 -0.15020597452E+03  0.60347400220E+02 -0.30402740153E+03  0.38544170036E+03  0.17300000000E+03 0.  1.
<mgrwt>
<rscale>  2 0.23692329E+03</rscale>
<asrwt>0</asrwt>
<pdfrwt beam="1">  1       21 0.84050677E-02 0.23692329E+03</pdfrwt>
<pdfrwt beam="2">  1       21 0.20806849E+00 0.23692329E+03</pdfrwt>
<totfact> 0.12697174E+04</totfact>
</mgrwt>
</event>
<event>
 4    2  0.4039581E+000  0.2134511E+03  0.7546771E-02  0.1138862E+00
         21   -1    0    0  503  502  0.00000000000E+00  0.00000000000E+00  0.61832977645E+03  0.61832977645E+03  0.00000000000E+00 0. -1.
         21   -1    0    0  501  503 -0.00000000000E+00 -0.00000000000E+00 -0.79035417765E+02  0.79035417765E+02  0.00000000000E+00 0. -1.
          6    1    1    2  501    0  0.80319532611E+02  0.95818215284E+02  0.17892132080E+03  0.27852144753E+03  0.17300000000E+03 0.  1.
         -6    1    1    2    0  502 -0.80319532611E+02 -0.95818215284E+02  0.36037303789E+03  0.41884374669E+03  0.17300000000E+03 0.  1.
<mgrwt>
<rscale>  2 0.21345107E+03</rscale>
<asrwt>0</asrwt>
<pdfrwt beam="1">  1       21 0.95127655E-01 0.21345107E+03</pdfrwt>
<pdfrwt beam="2">  1       21 0.12159295E-01 0.21345107E+03</pdfrwt>
<totfact> 0.52381995E+04</totfact>
</mgrwt>
</event>
<event>
 4    2  0.4039581E+000  0.1822203E+03  0.7546771E-02  0.1165671E+00
         21   -1    0    0  503  502  0.00000000000E+00  0.00000000000E+00  0.92410840660E+02  0.92410840660E+02  0.00000000000E+00 0. -1.
         21   -1    0    0  501  503 -0.00000000000E+00 -0.00000000000E+00 -0.58135789308E+03  0.58135789308E+03  0.00000000000E+00 0.  1.
          6    1    1    2  501    0 -0.35640726114E+02  0.44776826393E+02 -0.45267389075E+03  0.48797323380E+03  0.17300000000E+03 0.  1.
         -6    1    1    2    0  502  0.35640726114E+02 -0.44776826393E+02 -0.36273161670E+02  0.18579549994E+03  0.17300000000E+03 0. -1.
<mgrwt>
<rscale>  2 0.18222027E+03</rscale>
<asrwt>0</asrwt>
<pdfrwt beam="1">  1       21 0.14217053E-01 0.18222027E+03</pdfrwt>
<pdfrwt beam="2">  1       21 0.89439675E-01 0.18222027E+03</pdfrwt>
<totfact> 0.46330427E+04</totfact>
</mgrwt>
</event>
<event>
 4    2  0.4039581E+000  0.1751612E+03  0.7546771E-02  0.1172570E+00
         21   -1    0    0  503  502  0.00000000000E+00  0.00000000000E+00  0.17129986585E+03  0.17129986585E+03  0.00000000000E+00 0.  1.
         21   -1    0    0  501  503 -0.00000000000E+00 -0.00000000000E+00 -0.43733465557E+03  0.43733465557E+03  0.00000000000E+00 0.  1.
          6    1    1    2  501    0  0.26970746676E+02  0.50009320074E+01 -0.36685746201E+03  0.40652900011E+03  0.17300000000E+03 0.  1.
         -6    1    1    2    0  502 -0.26970746676E+02 -0.50009320074E+01  0.10082267228E+03  0.20210552131E+03  0.17300000000E+03 0.  1.
<mgrwt>
<rscale>  2 0.17516116E+03</rscale>
<asrwt>0</asrwt>
<pdfrwt beam="1">  1       21 0.26353826E-01 0.17516116E+03</pdfrwt>
<pdfrwt beam="2">  1       21 0.67282254E-01 0.17516116E+03</pdfrwt>
<totfact> 0.27949418E+04</totfact>
</mgrwt>
</event>
<event>
 4    2  0.4039581E+000  0.2337418E+03  0.7546771E-02  0.1124034E+00
         21   -1    0    0  501  502  0.00000000000E+00  0.00000000000E+00  0.14963125115E+03  0.14963125115E+03  0.00000000000E+00 0.  1.
         21   -1    0    0  502  503 -0.00000000000E+00 -0.00000000000E+00 -0.47788043079E+03  0.47788043079E+03  0.00000000000E+00 0.  1.
          6    1    1    2  501    0  0.13356844118E+03  0.82859448373E+02 -0.11723983726E+02  0.23403561365E+03  0.17300000000E+03 0.  1.
         -6    1    1    2    0  503 -0.13356844118E+03 -0.82859448373E+02 -0.31652519592E+03  0.39347606829E+03  0.17300000000E+03 0.  1.
<mgrwt>
<rscale>  2 0.23374177E+03</rscale>
<asrwt>0</asrwt>
<pdfrwt beam="1">  1       21 0.23020192E-01 0.23374177E+03</pdfrwt>
<pdfrwt beam="2">  1       21 0.73520066E-01 0.23374177E+03</pdfrwt>
<totfact> 0.28816947E+04</totfact>
</mgrwt>
</event>
<event>
 4    2  0.4039581E+000  0.3898882E+03  0.7546771E-02  0.1047338E+00
         21   -1    0    0  503  502  0.00000000000E+00  0.00000000000E+00  0.29567678829E+03  0.29567678829E+03  0.00000000000E+00 0.  1.
         21   -1    0    0  501  503 -0.00000000000E+00 -0.00000000000E+00 -0.88129450772E+03  0.88129450772E+03  0.00000000000E+00 0. -1.
          6    1    1    2  501    0 -0.15977485993E+03  0.31073429376E+03 -0.67265934982E+03  0.77748531052E+03  0.17300000000E+03 0. -1.
         -6    1    1    2    0  502  0.15977485993E+03 -0.31073429376E+03  0.87041630393E+02  0.39948598549E+03  0.17300000000E+03 0.  1.
<mgrwt>
<rscale>  2 0.38988820E+03</rscale>
<asrwt>0</asrwt>
<pdfrwt beam="1">  1       21 0.45488737E-01 0.38988820E+03</pdfrwt>
<pdfrwt beam="2">  1       21 0.13558377E+00 0.38988820E+03</pdfrwt>
<totfact> 0.15786517E+03</totfact>
</mgrwt>
</event>
<event>
 4    2  0.4039581E+000  0.3384870E+03  0.7546771E-02  0.1067442E+00
         21   -1    0    0  503  502  0.00000000000E+00  0.00000000000E+00  0.56007973355E+02  0.56007973355E+02  0.00000000000E+00 0.  1.
         21   -1    0    0  501  503 -0.00000000000E+00 -0.00000000000E+00 -0.20634677347E+04  0.20634677347E+04  0.00000000000E+00 0.  1.
          6    1    1    2  501    0 -0.67822915487E+02 -0.28292141664E+03 -0.11021670892E+04  0.11529725792E+04  0.17300000000E+03 0.  1.
         -6    1    1    2    0  502  0.67822915487E+02  0.28292141664E+03 -0.90529267214E+03  0.96650312886E+03  0.17300000000E+03 0.  1.
<mgrwt>
<rscale>  2 0.33848704E+03</rscale>
<asrwt>0</asrwt>
<pdfrwt beam="1">  1       21 0.86166124E-02 0.33848704E+03</pdfrwt>
<pdfrwt beam="2">  1       21 0.31745653E+00 0.33848704E+03</pdfrwt>
<totfact> 0.24871589E+03</totfact>
</mgrwt>
</event>
<event>
 4    2  0.4039581E+000  0.1888626E+03  0.7546771E-02  0.1159491E+00
         21   -1    0    0  501  502  0.00000000000E+00  0.00000000000E+00  0.12155080911E+04  0.12155080911E+04  0.00000000000E+00 0.  1.
         21   -1    0    0  502  503 -0.00000000000E+00 -0.00000000000E+00 -0.29346058984E+02  0.29346058984E+02  0.00000000000E+00 0.  1.
          6    1    1    2  501    0  0.72364757735E+02 -0.22436709570E+02  0.58931185373E+03  0.61883562037E+03  0.17300000000E+03 0. -1.
         -6    1    1    2    0  503 -0.72364757735E+02  0.22436709570E+02  0.59685017836E+03  0.62601852969E+03  0.17300000000E+03 0. -1.
<mgrwt>
<rscale>  2 0.18886255E+03</rscale>
<asrwt>0</asrwt>
<pdfrwt beam="1">  1       21 0.18700121E+00 0.18886255E+03</pdfrwt>
<pdfrwt beam="2">  1       21 0.45147792E-02 0.18886255E+03</pdfrwt>
<totfact> 0.52313697E+04</totfact>
</mgrwt>
</event>
<event>
 4    2  0.4039581E+000  0.1869589E+03  0.7546771E-02  0.1161233E+00
         21   -1    0    0  501  502  0.00000000000E+00  0.00000000000E+00  0.12774177023E+03  0.12774177023E+03  0.00000000000E+00 0.  1.
         21   -1    0    0  502  503 -0.00000000000E+00 -0.00000000000E+00 -0.76371191381E+03  0.76371191381E+03  0.00000000000E+00 0. -1.
          6    1    1    2  501    0 -0.12411267537E+02 -0.69789512938E+02  0.39073619665E+02  0.19099833358E+03  0.17300000000E+03 0.  1.
         -6    1    1    2    0  503  0.12411267537E+02  0.69789512938E+02 -0.67504376324E+03  0.70045535045E+03  0.17300000000E+03 0. -1.
<mgrwt>
<rscale>  2 0.18695886E+03</rscale>
<asrwt>0</asrwt>
<pdfrwt beam="1">  1       21 0.19652580E-01 0.18695886E+03</pdfrwt>
<pdfrwt beam="2">  1       21 0.11749414E+00 0.18695886E+03</pdfrwt>
<totfact> 0.13320232E+04</totfact>
</mgrwt>
</event>
<event>
 4    2  0.4039581E+000  0.1761239E+03  0.7546771E-02  0.1171608E+00
         21   -1    0    0  501  502  0.00000000000E+00  0.00000000000E+00  0.17019099249E+03  0.17019099249E+03  0.00000000000E+00 0.  1.
         21   -1    0    0  502  503 -0.00000000000E+00 -0.00000000000E+00 -0.21360149623E+03  0.21360149623E+03  0.00000000000E+00 0. -1.
          6    1    1    2  501    0 -0.13438764351E+02  0.30166392106E+02 -0.95207345931E+02  0.20021001553E+03  0.17300000000E+03 0. -1.
         -6    1    1    2    0  503  0.13438764351E+02 -0.30166392106E+02  0.51796842194E+02  0.18358247319E+03  0.17300000000E+03 0.  1.
<mgrwt>
<rscale>  2 0.17612385E+03</rscale>
<asrwt>0</asrwt>
<pdfrwt beam="1">  1       21 0.26183229E-01 0.17612385E+03</pdfrwt>
<pdfrwt beam="2">  1       21 0.32861769E-01 0.17612385E+03</pdfrwt>
<totfact> 0.12429711E+05</totfact>
</mgrwt>
</event>
<event>
 4    2  0.4039581E+000  0.1947653E+03  0.7546771E-02  0.1154232E+00
         21   -1    0    0  501  502  0.00000000000E+00  0.00000000000E+00  0.10705488717E+03  0.10705488717E+03  0.00000000000E+00 0.  1.
         21   -1    0    0  502  503 -0.00000000000E+00 -0.00000000000E+00 -0.42630911478E+03  0.42630911478E+03  0.00000000000E+00 0.  1.
          6    1    1    2  501    0 -0.62635376092E+02 -0.63885231915E+02 -0.50051637047E+02  0.20109370842E+03  0.17300000000E+03 0.  1.
         -6    1    1    2    0  503  0.62635376092E+02  0.63885231915E+02 -0.26920259056E+03  0.33227029353E+03  0.17300000000E+03 0.  1.
<mgrwt>
<rscale>  2 0.19476528E+03</rscale>
<asrwt>0</asrwt>
<pdfrwt beam="1">  1       21 0.16469983E-01 0.19476528E+03</pdfrwt>
<pdfrwt beam="2">  1       21 0.65586017E-01 0.19476528E+03</pdfrwt>
<totfact> 0.70608757E+04</totfact>
</mgrwt>
</event>
<event>
 4    2  0.4039581E+000  0.1745861E+03  0.7546771E-02  0.1173148E+00
         21   -1    0    0  501  502  0.00000000000E+00  0.00000000000E+00  0.34622708654E+03  0.34622708654E+03  0.00000000000E+00 0. -1.
         21   -1    0    0  502  503 -0.00000000000E+00 -0.00000000000E+00 -0.88038684595E+02  0.88038684595E+02  0.00000000000E+00 0. -1.
          6    1    1    2  501    0  0.16804283882E+02 -0.16398994323E+02  0.13037844555E+03  0.21789642043E+03  0.17300000000E+03 0.  1.
         -6    1    1    2    0  503 -0.16804283882E+02  0.16398994323E+02  0.12780995639E+03  0.21636935071E+03  0.17300000000E+03 0.  1.
<mgrwt>
<rscale>  2 0.17458611E+03</rscale>
<asrwt>0</asrwt>
<pdfrwt beam="1">  1       21 0.53265705E-01 0.17458611E+03</pdfrwt>
<pdfrwt beam="2">  1       21 0.13544413E-01 0.17458611E+03</pdfrwt>
<totfact> 0.15846618E+05</totfact>
</mgrwt>
</event>
<event>
 4    2  0.4039581E+000  0.2533073E+03  0.7546771E-02  0.1111232E+00
         21   -1    0    0  503  502  0.00000000000E+00  0.00000000000E+00  0.91336069770E+02  0.91336069770E+02  0.00000000000E+00 0. -1.
         21   -1    0    0  501  503 -0.00000000000E+00 -0.00000000000E+00 -0.13308464604E+04  0.13308464604E+04  0.00000000000E+00 0. -1.
          6    1    1    2  501    0  0.41758836295E+02  0.18025476851E+03 -0.11083593959E+04  0.11369367320E+04  0.17300000000E+03 0. -1.
         -6    1    1    2    0  502 -0.41758836295E+02 -0.18025476851E+03 -0.13115099472E+03  0.28524579821E+03  0.17300000000E+03 0. -1.
<mgrwt>
<rscale>  2 0.25330729E+03</rscale>
<asrwt>0</asrwt>
<pdfrwt beam="1">  1       21 0.14051703E-01 0.25330729E+03</pdfrwt>
<pdfrwt beam="2">  1       21 0.20474561E+00 0.25330729E+03</pdfrwt>
<totfact> 0.52611756E+03</totfact>
</mgrwt>
</event>
<event>
 4    2  0.4039581E+000  0.1765470E+03  0.7546771E-02  0.1171187E+00
         21   -1    0    0  501  502  0.00000000000E+00  0.00000000000E+00  0.18061287987E+03  0.18061287987E+03  0.00000000000E+00 0.  1.
         21   -1    0    0  502  503 -0.00000000000E+00 -0.00000000000E+00 -0.17363384057E+03  0.17363384057E+03  0.00000000000E+00 0.  1.
          6    1    1    2  501    0  0.34385364199E+02  0.75832622102E+01 -0.10356897421E+02  0.17685057099E+03  0.17300000000E+03 0.  1.
         -6    1    1    2    0  503 -0.34385364199E+02 -0.75832622102E+01  0.17335936721E+02  0.17739614945E+03  0.17300000000E+03 0.  1.
<mgrwt>
<rscale>  2 0.17654705E+03</rscale>
<asrwt>0</asrwt>
<pdfrwt beam="1">  1       21 0.27786597E-01 0.17654705E+03</pdfrwt>
<pdfrwt beam="2">  1       21 0.26712898E-01 0.17654705E+03</pdfrwt>
<totfact> 0.16578205E+05</totfact>
</mgrwt>
</event>
<event>
 4    2  0.4039581E+000  0.3601334E+03  0.7546771E-02  0.1058531E+00
         21   -1    0    0  501  502  0.00000000000E+00  0.00000000000E+00  0.49282946359E+03  0.49282946359E+03  0.00000000000E+00 0. -1.
         21   -1    0    0  502  503 -0.00000000000E+00 -0.00000000000E+00 -0.31480003788E+03  0.31480003788E+03  0.00000000000E+00 0.  1.
          6    1    1    2  501    0  0.20070944159E+03 -0.24389089095E+03  0.25255775968E+03  0.43986528461E+03  0.17300000000E+03 0.  1.
         -6    1    1    2    0  503 -0.20070944159E+03  0.24389089095E+03 -0.74528333973E+02  0.36776421685E+03  0.17300000000E+03 0. -1.
<mgrwt>
<rscale>  2 0.36013337E+03</rscale>
<asrwt>0</asrwt>
<pdfrwt beam="1">  1       21 0.75819918E-01 0.36013337E+03</pdfrwt>
<pdfrwt beam="2">  1       21 0.48430775E-01 0.36013337E+03</pdfrwt>
<totfact> 0.57557145E+03</totfact>
</mgrwt>
</event>
<event>
 4    2  0.4039581E+000  0.1866993E+03  0.7546771E-02  0.1161472E+00
         21   -1    0    0  503  502  0.00000000000E+00  0.00000000000E+00  0.10276275789E+03  0.10276275789E+03  0.00000000000E+00 0. -1.
         21   -1    0    0  501  503 -0.00000000000E+00 -0.00000000000E+00 -0.97672140362E+03  0.97672140362E+03  0.00000000000E+00 0. -1.
          6    1    1    2  501    0 -0.37792309560E+02 -0.59155620766E+02 -0.87304299427E+03  0.89278256926E+03  0.17300000000E+03 0. -1.
         -6    1    1    2    0  502  0.37792309560E+02  0.59155620766E+02 -0.91565146205E+00  0.18670159225E+03  0.17300000000E+03 0. -1.
<mgrwt>
<rscale>  2 0.18669935E+03</rscale>
<asrwt>0</asrwt>
<pdfrwt beam="1">  1       21 0.15809655E-01 0.18669935E+03</pdfrwt>
<pdfrwt beam="2">  1       21 0.15026483E+00 0.18669935E+03</pdfrwt>
<totfact> 0.10651095E+04</totfact>
</mgrwt>
</event>
<event>
 4    2  0.4039581E+000  0.3073112E+03  0.7546771E-02  0.1081642E+00
         21   -1    0    0  501  502  0.00000000000E+00  0.00000000000E+00  0.19344942978E+03  0.19344942978E+03  0.00000000000E+00 0.  1.
         21   -1    0    0  502  503 -0.00000000000E+00 -0.00000000000E+00 -0.67875964841E+03  0.67875964841E+03  0.00000000000E+00 0.  1.
          6    1    1    2  501    0 -0.22569554492E+03 -0.11650178579E+03 -0.11576861918E+02  0.30752913491E+03  0.17300000000E+03 0.  1.
         -6    1    1    2    0  503  0.22569554492E+03  0.11650178579E+03 -0.47373335670E+03  0.56467994328E+03  0.17300000000E+03 0.  1.
<mgrwt>
<rscale>  2 0.30731115E+03</rscale>
<asrwt>0</asrwt>
<pdfrwt beam="1">  1       21 0.29761451E-01 0.30731115E+03</pdfrwt>
<pdfrwt beam="2">  1       21 0.10442456E+00 0.30731115E+03</pdfrwt>
<totfact> 0.74813984E+03</totfact>
</mgrwt>
</event>
<event>
 4    2  0.4039581E+000  0.1735951E+03  0.7546771E-02  0.1174150E+00
         21   -1    0    0  501  502  0.00000000000E+00  0.00000000000E+00  0.21272733751E+03  0.21272733751E+03  0.00000000000E+00 0. -1.
         21   -1    0    0  502  503 -0.00000000000E+00 -0.00000000000E+00 -0.56839118138E+03  0.56839118138E+03  0.00000000000E+00 0. -1.
          6    1    1    2  501    0  0.10714104022E+00  0.14361216818E+02  0.16057539220E+03  0.23647349240E+03  0.17300000000E+03 0. -1.
         -6    1    1    2    0  503 -0.10714104022E+00 -0.14361216818E+02 -0.51623923606E+03  0.54464502649E+03  0.17300000000E+03 0. -1.
<mgrwt>
<rscale>  2 0.17359509E+03</rscale>
<asrwt>0</asrwt>
<pdfrwt beam="1">  1       21 0.32727283E-01 0.17359509E+03</pdfrwt>
<pdfrwt beam="2">  1       21 0.87444797E-01 0.17359509E+03</pdfrwt>
<totfact> 0.10227274E+04</totfact>
</mgrwt>
</event>
<event>
 4    2  0.4039581E+000  0.1850957E+03  0.7546771E-02  0.1162961E+00
         21   -1    0    0  503  502  0.00000000000E+00  0.00000000000E+00  0.32562427083E+03  0.32562427083E+03  0.00000000000E+00 0. -1.
         21   -1    0    0  501  503 -0.00000000000E+00 -0.00000000000E+00 -0.16132892278E+03  0.16132892278E+03  0.00000000000E+00 0. -1.
          6    1    1    2  501    0 -0.64891837719E+02  0.10974999645E+02 -0.61446982771E+02  0.19502854384E+03  0.17300000000E+03 0. -1.
         -6    1    1    2    0  502  0.64891837719E+02 -0.10974999645E+02  0.22574233082E+03  0.29192464977E+03  0.17300000000E+03 0. -1.
<mgrwt>
<rscale>  2 0.18509565E+03</rscale>
<asrwt>0</asrwt>
<pdfrwt beam="1">  1       21 0.50096041E-01 0.18509565E+03</pdfrwt>
<pdfrwt beam="2">  1       21 0.24819834E-01 0.18509565E+03</pdfrwt>
<totfact> 0.58481516E+04</totfact>
</mgrwt>
</event>
<event>
 4    2  0.4039581E+000  0.2043607E+03  0.7546771E-02  0.1146111E+00
         21   -1    0    0  501  502  0.00000000000E+00  0.00000000000E+00  0.15550971177E+03  0.15550971177E+03  0.00000000000E+00 0. -1.
         21   -1    0    0  502  503 -0.00000000000E+00 -0.00000000000E+00 -0.43422585556E+03  0.43422585556E+03  0.00000000000E+00 0.  1.
          6    1    1    2  501    0  0.10850979946E+03  0.77403495335E+01  0.42775225087E+02  0.20878939023E+03  0.17300000000E+03 0. -1.
         -6    1    1    2    0  503 -0.10850979946E+03 -0.77403495335E+01 -0.32149136888E+03  0.38094617711E+03  0.17300000000E+03 0.  1.
<mgrwt>
<rscale>  2 0.20436069E+03</rscale>
<asrwt>0</asrwt>
<pdfrwt beam="1">  1       21 0.23924571E-01 0.20436069E+03</pdfrwt>
<pdfrwt beam="2">  1       21 0.66803978E-01 0.20436069E+03</pdfrwt>
<totfact> 0.33601887E+04</totfact>
</mgrwt>
</event>
<event>
 4    2  0.4039581E+000  0.1883539E+03  0.7546771E-02  0.1159954E+00
         21   -1    0    0  501  502  0.00000000000E+00  0.00000000000E+00  0.45256087083E+03  0.45256087083E+03  0.00000000000E+00 0. -1.
         21   -1    0    0  502  503 -0.00000000000E+00 -0.00000000000E+00 -0.11484133900E+03  0.11484133900E+03  0.00000000000E+00 0. -1.
          6    1    1    2  501    0 -0.68819845039E+02  0.28495774593E+02  0.32868905117E+03  0.37883198466E+03  0.17300000000E+03 0. -1.
         -6    1    1    2    0  503  0.68819845039E+02 -0.28495774593E+02  0.90304806616E+01  0.18857022517E+03  0.17300000000E+03 0. -1.
<mgrwt>
<rscale>  2 0.18835387E+03</rscale>
<asrwt>0</asrwt>
<pdfrwt beam="1">  1       21 0.69624748E-01 0.18835387E+03</pdfrwt>
<pdfrwt beam="2">  1       21 0.17667899E-01 0.18835387E+03</pdfrwt>
<totfact> 0.54593506E+04</totfact>
</mgrwt>
</event>
<event>
 4    2  0.4039581E+000  0.1966633E+03  0.7546771E-02  0.1152585E+00
         21   -1    0    0  503  502  0.00000000000E+00  0.00000000000E+00  0.76328838746E+03  0.76328838746E+03  0.00000000000E+00 0. -1.
         21   -1    0    0  501  503 -0.00000000000E+00 -0.00000000000E+00 -0.63735359215E+02  0.63735359215E+02  0.00000000000E+00 0. -1.
          6    1    1    2  501    0 -0.52765754069E+02  0.77221822511E+02  0.16255958624E+03  0.25515104106E+03  0.17300000000E+03 0. -1.
         -6    1    1    2    0  502  0.52765754069E+02 -0.77221822511E+02  0.53699344201E+03  0.57187270562E+03  0.17300000000E+03 0. -1.
<mgrwt>
<rscale>  2 0.19666325E+03</rscale>
<asrwt>0</asrwt>
<pdfrwt beam="1">  1       21 0.11742898E+00 0.19666325E+03</pdfrwt>
<pdfrwt beam="2">  1       21 0.98054405E-02 0.19666325E+03</pdfrwt>
<totfact> 0.46699659E+04</totfact>
</mgrwt>
</event>
<event>
 4    2  0.4039581E+000  0.2232294E+03  0.7546771E-02  0.1131498E+00
         21   -1    0    0  501  502  0.00000000000E+00  0.00000000000E+00  0.43584075821E+03  0.43584075821E+03  0.00000000000E+00 0. -1.
         21   -1    0    0  502  503 -0.00000000000E+00 -0.00000000000E+00 -0.21696114529E+03  0.21696114529E+03  0.00000000000E+00 0.  1.
          6    1    1    2  501    0  0.72715545739E+02 -0.12089176191E+03  0.33392711554E+03  0.40166987338E+03  0.17300000000E+03 0. -1.
         -6    1    1    2    0  503 -0.72715545739E+02  0.12089176191E+03 -0.11504750262E+03  0.25113203012E+03  0.17300000000E+03 0.  1.
<mgrwt>
<rscale>  2 0.22322941E+03</rscale>
<asrwt>0</asrwt>
<pdfrwt beam="1">  1       21 0.67052424E-01 0.22322941E+03</pdfrwt>
<pdfrwt beam="2">  1       21 0.33378638E-01 0.22322941E+03</pdfrwt>
<totfact> 0.17284333E+04</totfact>
</mgrwt>
</event>
<event>
 4    2  0.4039581E+000  0.1959256E+03  0.7546771E-02  0.1153223E+00
         21   -1    0    0  501  502  0.00000000000E+00  0.00000000000E+00  0.10138732502E+04  0.10138732502E+04  0.00000000000E+00 0. -1.
         21   -1    0    0  502  503 -0.00000000000E+00 -0.00000000000E+00 -0.40454963209E+02  0.40454963209E+02  0.00000000000E+00 0. -1.
          6    1    1    2  501    0  0.75314340530E+02  0.52778880543E+02  0.62018166803E+03  0.65039385105E+03  0.17300000000E+03 0. -1.
         -6    1    1    2    0  503 -0.75314340530E+02 -0.52778880543E+02  0.35323661897E+03  0.40393436236E+03  0.17300000000E+03 0. -1.
<mgrwt>
<rscale>  2 0.19592565E+03</rscale>
<asrwt>0</asrwt>
<pdfrwt beam="1">  1       21 0.15598048E+00 0.19592565E+03</pdfrwt>
<pdfrwt beam="2">  1       21 0.62238413E-02 0.19592565E+03</pdfrwt>
<totfact> 0.49812934E+04</totfact>
</mgrwt>
</event>
<event>
 4    2  0.4039581E+000  0.2168314E+03  0.7546771E-02  0.1136268E+00
         21   -1    0    0  503  502  0.00000000000E+00  0.00000000000E+00  0.24990937515E+03  0.24990937515E+03  0.00000000000E+00 0. -1.
         21   -1    0    0  501  503 -0.00000000000E+00 -0.00000000000E+00 -0.20122970507E+03  0.20122970507E+03  0.00000000000E+00 0.  1.
          6    1    1    2  501    0  0.12626751053E+03  0.33813694240E+02 -0.33209283330E+02  0.21935976530E+03  0.17300000000E+03 0. -1.
         -6    1    1    2    0  502 -0.12626751053E+03 -0.33813694240E+02  0.81888953410E+02  0.23177931492E+03  0.17300000000E+03 0.  1.
<mgrwt>
<rscale>  2 0.21683139E+03</rscale>
<asrwt>0</asrwt>
<pdfrwt beam="1">  1       21 0.38447596E-01 0.21683139E+03</pdfrwt>
<pdfrwt beam="2">  1       21 0.30958416E-01 0.21683139E+03</pdfrwt>
<totfact> 0.64674835E+04</totfact>
</mgrwt>
</event>
<event>
 4    2  0.4039581E+000  0.1792951E+03  0.7546771E-02  0.1168487E+00
         21   -1    0    0  501  502  0.00000000000E+00  0.00000000000E+00  0.20933221076E+03  0.20933221076E+03  0.00000000000E+00 0.  1.
         21   -1    0    0  502  503 -0.00000000000E+00 -0.00000000000E+00 -0.19148313726E+03  0.19148313726E+03  0.00000000000E+00 0.  1.
          6    1    1    2  501    0 -0.39296935773E+01 -0.46928465061E+02  0.98102089550E+02  0.20437892088E+03  0.17300000000E+03 0.  1.
         -6    1    1    2    0  503  0.39296935773E+01  0.46928465061E+02 -0.80253016055E+02  0.19643642715E+03  0.17300000000E+03 0.  1.
<mgrwt>
<rscale>  2 0.17929507E+03</rscale>
<asrwt>0</asrwt>
<pdfrwt beam="1">  1       21 0.32204955E-01 0.17929507E+03</pdfrwt>
<pdfrwt beam="2">  1       21 0.29458944E-01 0.17929507E+03</pdfrwt>
<totfact> 0.10291361E+05</totfact>
</mgrwt>
</event>
<event>
 4    2  0.4039581E+000  0.3432845E+03  0.7546771E-02  0.1065406E+00
         21   -1    0    0  503  502  0.00000000000E+00  0.00000000000E+00  0.41519063574E+03  0.41519063574E+03  0.00000000000E+00 0.  1.
         21   -1    0    0  501  503 -0.00000000000E+00 -0.00000000000E+00 -0.40736801244E+03  0.40736801244E+03  0.00000000000E+00 0. -1.
          6    1    1    2  501    0  0.75103130052E+02  0.28683581505E+03 -0.22257435772E+03  0.40912542044E+03  0.17300000000E+03 0. -1.
         -6    1    1    2    0  502 -0.75103130052E+02 -0.28683581505E+03  0.23039698103E+03  0.41343322774E+03  0.17300000000E+03 0.  1.
<mgrwt>
<rscale>  2 0.34328452E+03</rscale>
<asrwt>0</asrwt>
<pdfrwt beam="1">  1       21 0.63875483E-01 0.34328452E+03</pdfrwt>
<pdfrwt beam="2">  1       21 0.62672002E-01 0.34328452E+03</pdfrwt>
<totfact> 0.48881694E+03</totfact>
</mgrwt>
</event>
<event>
 4    2  0.4039581E+000  0.2076455E+03  0.7546771E-02  0.1143444E+00
         21   -1    0    0  501  502  0.00000000000E+00  0.00000000000E+00  0.96274323955E+02  0.96274323955E+02  0.00000000000E+00 0.  1.
         21   -1    0    0  502  503 -0.00000000000E+00 -0.00000000000E+00 -0.46241198318E+03  0.46241198318E+03  0.00000000000E+00 0. -1.
          6    1    1    2  501    0  0.50239659878E+02  0.10326491963E+03 -0.23263679121E+03  0.31182774680E+03  0.17300000000E+03 0. -1.
         -6    1    1    2    0  503 -0.50239659878E+02 -0.10326491963E+03 -0.13350086802E+03  0.24685856034E+03  0.17300000000E+03 0.  1.
<mgrwt>
<rscale>  2 0.20764553E+03</rscale>
<asrwt>0</asrwt>
<pdfrwt beam="1">  1       21 0.14811434E-01 0.20764553E+03</pdfrwt>
<pdfrwt beam="2">  1       21 0.71140306E-01 0.20764553E+03</pdfrwt>
<totfact> 0.71288707E+04</totfact>
</mgrwt>
</event>
<event>
 4    2  0.4039581E+000  0.1983481E+03  0.7546771E-02  0.1151140E+00
         21   -1    0    0  503  502  0.00000000000E+00  0.00000000000E+00  0.20392733079E+03  0.20392733079E+03  0.00000000000E+00 0.  1.
         21   -1    0    0  501  503 -0.00000000000E+00 -0.00000000000E+00 -0.67073012525E+03  0.67073012525E+03  0.00000000000E+00 0.  1.
          6    1    1    2  501    0 -0.87146650483E+02  0.42642929593E+02 -0.60251590231E+03  0.63432434186E+03  0.17300000000E+03 0.  1.
         -6    1    1    2    0  502  0.87146650483E+02 -0.42642929593E+02  0.13571310784E+03  0.24033311419E+03  0.17300000000E+03 0.  1.
<mgrwt>
<rscale>  2 0.19834807E+03</rscale>
<asrwt>0</asrwt>
<pdfrwt beam="1">  1       21 0.31373436E-01 0.19834807E+03</pdfrwt>
<pdfrwt beam="2">  1       21 0.10318925E+00 0.19834807E+03</pdfrwt>
<totfact> 0.74057147E+03</totfact>
</mgrwt>
</event>
<event>
 4    2  0.4039581E+000  0.1876262E+03  0.7546771E-02  0.1160620E+00
         21   -1    0    0  501  502  0.00000000000E+00  0.00000000000E+00  0.79640442923E+03  0.79640442923E+03  0.00000000000E+00 0.  1.
         21   -1    0    0  502  503 -0.00000000000E+00 -0.00000000000E+00 -0.15628895330E+03  0.15628895330E+03  0.00000000000E+00 0.  1.
          6    1    1    2  501    0  0.66883927432E+02 -0.28304518518E+02  0.72345622469E+03  0.74739046994E+03  0.17300000000E+03 0.  1.
         -6    1    1    2    0  503 -0.66883927432E+02  0.28304518518E+02 -0.83340748759E+02  0.20530291260E+03  0.17300000000E+03 0.  1.
<mgrwt>
<rscale>  2 0.18762624E+03</rscale>
<asrwt>0</asrwt>
<pdfrwt beam="1">  1       21 0.12252376E+00 0.18762624E+03</pdfrwt>
<pdfrwt beam="2">  1       21 0.24044455E-01 0.18762624E+03</pdfrwt>
<totfact> 0.82119939E+03</totfact>
</mgrwt>
</event>
<event>
 4    2  0.4039581E+000  0.1777506E+03  0.7546771E-02  0.1169998E+00
         21   -1    0    0  501  502  0.00000000000E+00  0.00000000000E+00  0.13200707737E+03  0.13200707737E+03  0.00000000000E+00 0. -1.
         21   -1    0    0  502  503 -0.00000000000E+00 -0.00000000000E+00 -0.32547250646E+03  0.32547250646E+03  0.00000000000E+00 0.  1.
          6    1    1    2  501    0  0.20046466337E+02  0.35558507432E+02  0.20934330904E+02  0.17897908949E+03  0.17300000000E+03 0. -1.
         -6    1    1    2    0  503 -0.20046466337E+02 -0.35558507432E+02 -0.21439975999E+03  0.27850049434E+03  0.17300000000E+03 0. -1.
<mgrwt>
<rscale>  2 0.17775058E+03</rscale>
<asrwt>0</asrwt>
<pdfrwt beam="1">  1       21 0.20308781E-01 0.17775058E+03</pdfrwt>
<pdfrwt beam="2">  1       21 0.50072693E-01 0.17775058E+03</pdfrwt>
<totfact> 0.85725265E+04</totfact>
</mgrwt>
</event>
<event>
 4    2  0.4039581E+000  0.1776243E+03  0.7546771E-02  0.1170122E+00
         21   -1    0    0  503  502  0.00000000000E+00  0.00000000000E+00  0.42964998018E+03  0.42964998018E+03  0.00000000000E+00 0. -1.
         21   -1    0    0  501  503 -0.00000000000E+00 -0.00000000000E+00 -0.73802972326E+02  0.73802972326E+02  0.00000000000E+00 0. -1.
          6    1    1    2  501    0  0.36448384071E+02 -0.17114660180E+02  0.16009559297E+03  0.23912548000E+03  0.17300000000E+03 0. -1.
         -6    1    1    2    0  502 -0.36448384071E+02  0.17114660180E+02  0.19575141488E+03  0.26432747250E+03  0.17300000000E+03 0. -1.
<mgrwt>
<rscale>  2 0.17762431E+03</rscale>
<asrwt>0</asrwt>
<pdfrwt beam="1">  1       21 0.66099995E-01 0.17762431E+03</pdfrwt>
<pdfrwt beam="2">  1       21 0.11354304E-01 0.17762431E+03</pdfrwt>
<totfact> 0.13681311E+05</totfact>
</mgrwt>
</event>
<event>
 4    2  0.4039581E+000  0.2453250E+03  0.7546771E-02  0.1116295E+00
         21   -1    0    0  501  502  0.00000000000E+00  0.00000000000E+00  0.13876489867E+04  0.13876489867E+04  0.00000000000E+00 0.  1.
         21   -1    0    0  502  503 -0.00000000000E+00 -0.00000000000E+00 -0.79274736210E+02  0.79274736210E+02  0.00000000000E+00 0.  1.
          6    1    1    2  501    0 -0.99882083825E+02  0.14240409946E+03  0.11477894454E+04  0.11737141770E+04  0.17300000000E+03 0.  1.
         -6    1    1    2    0  503  0.99882083825E+02 -0.14240409946E+03  0.16058480508E+03  0.29320954595E+03  0.17300000000E+03 0.  1.
<mgrwt>
<rscale>  2 0.24532501E+03</rscale>
<asrwt>0</asrwt>
<pdfrwt beam="1">  1       21 0.21348444E+00 0.24532501E+03</pdfrwt>
<pdfrwt beam="2">  1       21 0.12196114E-01 0.24532501E+03</pdfrwt>
<totfact> 0.60186003E+03</totfact>
</mgrwt>
</event>
<event>
 4    2  0.4039581E+000  0.1739275E+03  0.7546771E-02  0.1173813E+00
         21   -1    0    0  503  502  0.00000000000E+00  0.00000000000E+00  0.52577977498E+03  0.52577977498E+03  0.00000000000E+00 0. -1.
         21   -1    0    0  501  503 -0.00000000000E+00 -0.00000000000E+00 -0.12128598358E+03  0.12128598358E+03  0.00000000000E+00 0. -1.
          6    1    1    2  501    0 -0.71035633682E+01 -0.16472023819E+02 -0.32314341683E+02  0.17690394246E+03  0.17300000000E+03 0. -1.
         -6    1    1    2    0  502  0.71035633682E+01  0.16472023819E+02  0.43680813309E+03  0.47016181609E+03  0.17300000000E+03 0. -1.
<mgrwt>
<rscale>  2 0.17392754E+03</rscale>
<asrwt>0</asrwt>
<pdfrwt beam="1">  1       21 0.80889195E-01 0.17392754E+03</pdfrwt>
<pdfrwt beam="2">  1       21 0.18659382E-01 0.17392754E+03</pdfrwt>
<totfact> 0.35588606E+04</totfact>
</mgrwt>
</event>
<event>
 4    2  0.4039581E+000  0.1770631E+03  0.7546771E-02  0.1170676E+00
         21   -1    0    0  503  502  0.00000000000E+00  0.00000000000E+00  0.23775038628E+03  0.23775038628E+03  0.00000000000E+00 0.  1.
         21   -1    0    0  501  503 -0.00000000000E+00 -0.00000000000E+00 -0.13971182672E+03  0.13971182672E+03  0.00000000000E+00 0.  1.
          6    1    1    2  501    0 -0.78545027726E+01 -0.36887203273E+02  0.42966978292E+01  0.17711527487E+03  0.17300000000E+03 0.  1.
         -6    1    1    2    0  502  0.78545027726E+01  0.36887203273E+02  0.93741861723E+02  0.20034693813E+03  0.17300000000E+03 0.  1.
<mgrwt>
<rscale>  2 0.17706315E+03</rscale>
<asrwt>0</asrwt>
<pdfrwt beam="1">  1       21 0.36576982E-01 0.17706315E+03</pdfrwt>
<pdfrwt beam="2">  1       21 0.21494127E-01 0.17706315E+03</pdfrwt>
<totfact> 0.14611923E+05</totfact>
</mgrwt>
</event>
<event>
 4    2  0.4039581E+000  0.2675603E+03  0.7546771E-02  0.1102684E+00
         21   -1    0    0  503  502  0.00000000000E+00  0.00000000000E+00  0.12754435825E+04  0.12754435825E+04  0.00000000000E+00 0. -1.
         21   -1    0    0  501  503 -0.00000000000E+00 -0.00000000000E+00 -0.79841469864E+02  0.79841469864E+02  0.00000000000E+00 0.  1.
          6    1    1    2  501    0  0.74977537098E+02  0.18983643342E+03  0.22849958693E+03  0.35185304283E+03  0.17300000000E+03 0.  1.
         -6    1    1    2    0  502 -0.74977537098E+02 -0.18983643342E+03  0.96710252566E+03  0.10034320095E+04  0.17300000000E+03 0.  1.
<mgrwt>
<rscale>  2 0.26756028E+03</rscale>
<asrwt>0</asrwt>
<pdfrwt beam="1">  1       21 0.19622208E+00 0.26756028E+03</pdfrwt>
<pdfrwt beam="2">  1       21 0.12283304E-01 0.26756028E+03</pdfrwt>
<totfact> 0.75560416E+03</totfact>
</mgrwt>
</event>
<event>
 4    2  0.4039581E+000  0.2630332E+03  0.7546771E-02  0.1105334E+00
         21   -1    0    0  503  502  0.00000000000E+00  0.00000000000E+00  0.10489383722E+03  0.10489383722E+03  0.00000000000E+00 0. -1.
         21   -1    0    0  501  503 -0.00000000000E+00 -0.00000000000E+00 -0.78662922689E+03  0.78662922689E+03  0.00000000000E+00 0. -1.
          6    1    1    2  501    0 -0.17755912245E+03 -0.87921615298E+02 -0.52000836232E+03  0.58274792946E+03  0.17300000000E+03 0. -1.
         -6    1    1    2    0  502  0.17755912245E+03  0.87921615298E+02 -0.16172702735E+03  0.30877513465E+03  0.17300000000E+03 0. -1.
<mgrwt>
<rscale>  2 0.26303318E+03</rscale>
<asrwt>0</asrwt>
<pdfrwt beam="1">  1       21 0.16137513E-01 0.26303318E+03</pdfrwt>
<pdfrwt beam="2">  1       21 0.12101988E+00 0.26303318E+03</pdfrwt>
<totfact> 0.17039862E+04</totfact>
</mgrwt>
</event>
<event>
 4    2  0.4039581E+000  0.3282384E+03  0.7546771E-02  0.1071919E+00
         21   -1    0    0  503  502  0.00000000000E+00  0.00000000000E+00  0.26146381474E+03  0.26146381474E+03  0.00000000000E+00 0.  1.
         21   -1    0    0  501  503 -0.00000000000E+00 -0.00000000000E+00 -0.71460664205E+03  0.71460664205E+03  0.00000000000E+00 0.  1.
          6    1    1    2  501    0  0.17003389770E+02 -0.27842829720E+03 -0.54411933959E+03  0.63545754198E+03  0.17300000000E+03 0.  1.
         -6    1    1    2    0  502 -0.17003389770E+02  0.27842829720E+03  0.90976512286E+02  0.34061291481E+03  0.17300000000E+03 0.  1.
<mgrwt>
<rscale>  2 0.32823838E+03</rscale>
<asrwt>0</asrwt>
<pdfrwt beam="1">  1       21 0.40225203E-01 0.32823838E+03</pdfrwt>
<pdfrwt beam="2">  1       21 0.10993948E+00 0.32823838E+03</pdfrwt>
<totfact> 0.35675475E+03</totfact>
</mgrwt>
</event>
<event>
 4    2  0.4039581E+000  0.1902548E+03  0.7546771E-02  0.1158232E+00
         21   -1    0    0  501  502  0.00000000000E+00  0.00000000000E+00  0.68864975953E+03  0.68864975953E+03  0.00000000000E+00 0. -1.
         21   -1    0    0  502  503 -0.00000000000E+00 -0.00000000000E+00 -0.53403407118E+02  0.53403407118E+02  0.00000000000E+00 0. -1.
          6    1    1    2  501    0  0.74505274811E+02 -0.26774304572E+02  0.36419139666E+03  0.41089204515E+03  0.17300000000E+03 0. -1.
         -6    1    1    2    0  503 -0.74505274811E+02  0.26774304572E+02  0.27105495575E+03  0.33116112151E+03  0.17300000000E+03 0. -1.
<mgrwt>
<rscale>  2 0.19025483E+03</rscale>
<asrwt>0</asrwt>
<pdfrwt beam="1">  1       21 0.10594611E+00 0.19025483E+03</pdfrwt>
<pdfrwt beam="2">  1       21 0.82159093E-02 0.19025483E+03</pdfrwt>
<totfact> 0.82003783E+04</totfact>
</mgrwt>
</event>
<event>
 4    2  0.4039581E+000  0.1858144E+03  0.7546771E-02  0.1162292E+00
         21   -1    0    0  501  502  0.00000000000E+00  0.00000000000E+00  0.58090967830E+03  0.58090967830E+03  0.00000000000E+00 0.  1.
         21   -1    0    0  502  503 -0.00000000000E+00 -0.00000000000E+00 -0.15807621235E+03  0.15807621235E+03  0.00000000000E+00 0.  1.
          6    1    1    2  501    0  0.37917399050E+01 -0.67702466999E+02  0.50329360680E+03  0.53649926000E+03  0.17300000000E+03 0.  1.
         -6    1    1    2    0  503 -0.37917399050E+01  0.67702466999E+02 -0.80460140850E+02  0.20248663066E+03  0.17300000000E+03 0.  1.
<mgrwt>
<rscale>  2 0.18581443E+03</rscale>
<asrwt>0</asrwt>
<pdfrwt beam="1">  1       21 0.89370719E-01 0.18581443E+03</pdfrwt>
<pdfrwt beam="2">  1       21 0.24319418E-01 0.18581443E+03</pdfrwt>
<totfact> 0.17120297E+04</totfact>
</mgrwt>
</event>
<event>
 4    2  0.4039581E+000  0.2021323E+03  0.7546771E-02  0.1147952E+00
         21   -1    0    0  503  502  0.00000000000E+00  0.00000000000E+00  0.20565828289E+03  0.20565828289E+03  0.00000000000E+00 0.  1.
         21   -1    0    0  501  503 -0.00000000000E+00 -0.00000000000E+00 -0.20862099422E+03  0.20862099422E+03  0.00000000000E+00 0.  1.
          6    1    1    2  501    0  0.51463591396E+02 -0.90994372450E+02  0.43765335850E+02  0.20681605759E+03  0.17300000000E+03 0.  1.
         -6    1    1    2    0  502 -0.51463591396E+02  0.90994372450E+02 -0.46728047175E+02  0.20746321951E+03  0.17300000000E+03 0.  1.
<mgrwt>
<rscale>  2 0.20213233E+03</rscale>
<asrwt>0</asrwt>
<pdfrwt beam="1">  1       21 0.31639736E-01 0.20213233E+03</pdfrwt>
<pdfrwt beam="2">  1       21 0.32095538E-01 0.20213233E+03</pdfrwt>
<totfact> 0.89316943E+04</totfact>
</mgrwt>
</event>
<event>
 4    2  0.4039581E+000  0.2638600E+03  0.7546771E-02  0.1104846E+00
         21   -1    0    0  503  502  0.00000000000E+00  0.00000000000E+00  0.48894959630E+03  0.48894959630E+03  0.00000000000E+00 0.  1.
         21   -1    0    0  501  503 -0.00000000000E+00 -0.00000000000E+00 -0.20083614234E+03  0.20083614234E+03  0.00000000000E+00 0.  1.
          6    1    1    2  501    0 -0.12942208654E+03  0.15146948725E+03 -0.41996425771E+02  0.26718117791E+03  0.17300000000E+03 0.  1.
         -6    1    1    2    0  502  0.12942208654E+03 -0.15146948725E+03  0.33010987973E+03  0.42260456072E+03  0.17300000000E+03 0.  1.
<mgrwt>
<rscale>  2 0.26385997E+03</rscale>
<asrwt>0</asrwt>
<pdfrwt beam="1">  1       21 0.75223015E-01 0.26385997E+03</pdfrwt>
<pdfrwt beam="2">  1       21 0.30897868E-01 0.26385997E+03</pdfrwt>
<totfact> 0.15264483E+04</totfact>
</mgrwt>
</event>
<event>
 4    2  0.4039581E+000  0.1988499E+03  0.7546771E-02  0.1150713E+00
         21   -1    0    0  503  502  0.00000000000E+00  0.00000000000E+00  0.11804935110E+04  0.11804935110E+04  0.00000000000E+00 0.  1.
         21   -1    0    0  501  503 -0.00000000000E+00 -0.00000000000E+00 -0.35927901090E+02  0.35927901090E+02  0.00000000000E+00 0.  1.
          6    1    1    2  501    0 -0.47677922063E+02  0.85668591359E+02  0.73053521487E+03  0.75711491332E+03  0.17300000000E+03 0.  1.
         -6    1    1    2    0  502  0.47677922063E+02 -0.85668591359E+02  0.41403039500E+03  0.45930649874E+03  0.17300000000E+03 0.  1.
<mgrwt>
<rscale>  2 0.19884992E+03</rscale>
<asrwt>0</asrwt>
<pdfrwt beam="1">  1       21 0.18161436E+00 0.19884992E+03</pdfrwt>
<pdfrwt beam="2">  1       21 0.55273703E-02 0.19884992E+03</pdfrwt>
<totfact> 0.40086129E+04</totfact>
</mgrwt>
</event>
<event>
 4    2  0.4039581E+000  0.2042391E+03  0.7546771E-02  0.1146211E+00
         21   -1    0    0  503  502  0.00000000000E+00  0.00000000000E+00  0.33796728984E+03  0.33796728984E+03  0.00000000000E+00 0. -1.
         21   -1    0    0  501  503 -0.00000000000E+00 -0.00000000000E+00 -0.48541583357E+03  0.48541583357E+03  0.00000000000E+00 0. -1.
          6    1    1    2  501    0 -0.83619682070E+02 -0.69226794612E+02 -0.42924408181E+03  0.47535679452E+03  0.17300000000E+03 0. -1.
         -6    1    1    2    0  502  0.83619682070E+02  0.69226794612E+02  0.28179553808E+03  0.34802632889E+03  0.17300000000E+03 0. -1.
<mgrwt>
<rscale>  2 0.20423908E+03</rscale>
<asrwt>0</asrwt>
<pdfrwt beam="1">  1       21 0.51994968E-01 0.20423908E+03</pdfrwt>
<pdfrwt beam="2">  1       21 0.74679359E-01 0.20423908E+03</pdfrwt>
<totfact> 0.55863581E+03</totfact>
</mgrwt>
</event>
<event>
 4    2  0.4039581E+000  0.1902779E+03  0.7546771E-02  0.1158211E+00
         21   -1    0    0  503  502  0.00000000000E+00  0.00000000000E+00  0.31475619597E+03  0.31475619597E+03  0.00000000000E+00 0.  1.
         21   -1    0    0  501  503 -0.00000000000E+00 -0.00000000000E+00 -0.14333306671E+03  0.14333306671E+03  0.00000000000E+00 0.  1.
          6    1    1    2  501    0 -0.62472635240E+02 -0.48722185476E+02 -0.16072855669E+02  0.19095553985E+03  0.17300000000E+03 0.  1.
         -6    1    1    2    0  502  0.62472635240E+02  0.48722185476E+02  0.18749598493E+03  0.26713372283E+03  0.17300000000E+03 0.  1.
<mgrwt>
<rscale>  2 0.19027791E+03</rscale>
<asrwt>0</asrwt>
<pdfrwt beam="1">  1       21 0.48424030E-01 0.19027791E+03</pdfrwt>
<pdfrwt beam="2">  1       21 0.22051241E-01 0.19027791E+03</pdfrwt>
<totfact> 0.78354696E+04</totfact>
</mgrwt>
</event>
<event>
 4    2  0.4039581E+000  0.2350140E+03  0.7546771E-02  0.1123160E+00
         21   -1    0    0  503  502  0.00000000000E+00  0.00000000000E+00  0.13210833235E+03  0.13210833235E+03  0.00000000000E+00 0. -1.
         21   -1    0    0  501  503 -0.00000000000E+00 -0.00000000000E+00 -0.42824115866E+03  0.42824115866E+03  0.00000000000E+00 0. -1.
          6    1    1    2  501    0 -0.37073643286E+02  0.15468719204E+03 -0.19122825201E+03  0.30298486229E+03  0.17300000000E+03 0. -1.
         -6    1    1    2    0  502  0.37073643286E+02 -0.15468719204E+03 -0.10490457430E+03  0.25736462872E+03  0.17300000000E+03 0. -1.
<mgrwt>
<rscale>  2 0.23501400E+03</rscale>
<asrwt>0</asrwt>
<pdfrwt beam="1">  1       21 0.20324359E-01 0.23501400E+03</pdfrwt>
<pdfrwt beam="2">  1       21 0.65883255E-01 0.23501400E+03</pdfrwt>
<totfact> 0.46465140E+04</totfact>
</mgrwt>
</event>
<event>
 4    2  0.4039581E+000  0.1769104E+03  0.7546771E-02  0.1170827E+00
         21   -1    0    0  503  502  0.00000000000E+00  0.00000000000E+00  0.10762715360E+03  0.10762715360E+03  0.00000000000E+00 0.  1.
         21   -1    0    0  501  503 -0.00000000000E+00 -0.00000000000E+00 -0.39152672328E+03  0.39152672328E+03  0.00000000000E+00 0.  1.
          6    1    1    2  501    0 -0.36366007120E+02 -0.67687455194E+01 -0.26854275768E+03  0.32157816327E+03  0.17300000000E+03 0.  1.
         -6    1    1    2    0  502  0.36366007120E+02  0.67687455194E+01 -0.15356812000E+02  0.17757571361E+03  0.17300000000E+03 0.  1.
<mgrwt>
<rscale>  2 0.17691044E+03</rscale>
<asrwt>0</asrwt>
<pdfrwt beam="1">  1       21 0.16558024E-01 0.17691044E+03</pdfrwt>
<pdfrwt beam="2">  1       21 0.60234880E-01 0.17691044E+03</pdfrwt>
<totfact> 0.84679253E+04</totfact>
</mgrwt>
</event>
<event>
 4    2  0.4039581E+000  0.2105936E+03  0.7546771E-02  0.1141097E+00
         21   -1    0    0  501  502  0.00000000000E+00  0.00000000000E+00  0.51366410150E+02  0.51366410150E+02  0.00000000000E+00 0.  1.
         21   -1    0    0  502  503 -0.00000000000E+00 -0.00000000000E+00 -0.11080729147E+04  0.11080729147E+04  0.00000000000E+00 0.  1.
          6    1    1    2  501    0 -0.97721580803E+02  0.69793570316E+02 -0.25593971403E+03  0.33144348995E+03  0.17300000000E+03 0.  1.
         -6    1    1    2    0  503  0.97721580803E+02 -0.69793570316E+02 -0.80076679052E+03  0.82799583490E+03  0.17300000000E+03 0.  1.
<mgrwt>
<rscale>  2 0.21059357E+03</rscale>
<asrwt>0</asrwt>
<pdfrwt beam="1">  1       21 0.79025258E-02 0.21059357E+03</pdfrwt>
<pdfrwt beam="2">  1       21 0.17047273E+00 0.21059357E+03</pdfrwt>
<totfact> 0.25650142E+04</totfact>
</mgrwt>
</event>
<event>
 4    2  0.4039581E+000  0.1750371E+03  0.7546771E-02  0.1172694E+00
         21   -1    0    0  503  502  0.00000000000E+00  0.00000000000E+00  0.61426556457E+03  0.61426556457E+03  0.00000000000E+00 0.  1.
         21   -1    0    0  501  503 -0.00000000000E+00 -0.00000000000E+00 -0.62804018165E+02  0.62804018165E+02  0.00000000000E+00 0.  1.
          6    1    1    2  501    0  0.26591359412E+02  0.13792159762E+01  0.12214494620E+03  0.21344177312E+03  0.17300000000E+03 0.  1.
         -6    1    1    2    0  502 -0.26591359412E+02 -0.13792159762E+01  0.42931660020E+03  0.46362780961E+03  0.17300000000E+03 0.  1.
<mgrwt>
<rscale>  2 0.17503715E+03</rscale>
<asrwt>0</asrwt>
<pdfrwt beam="1">  1       21 0.94502391E-01 0.17503715E+03</pdfrwt>
<pdfrwt beam="2">  1       21 0.96621570E-02 0.17503715E+03</pdfrwt>
<totfact> 0.81479436E+04</totfact>
</mgrwt>
</event>
<event>
 4    2  0.4039581E+000  0.2415293E+03  0.7546771E-02  0.1118778E+00
         21   -1    0    0  501  502  0.00000000000E+00  0.00000000000E+00  0.14677102958E+03  0.14677102958E+03  0.00000000000E+00 0.  1.
         21   -1    0    0  502  503 -0.00000000000E+00 -0.00000000000E+00 -0.44156750756E+03  0.44156750756E+03  0.00000000000E+00 0.  1.
          6    1    1    2  501    0  0.16657124386E+03  0.25718473313E+02 -0.54431418853E+02  0.24758674946E+03  0.17300000000E+03 0.  1.
         -6    1    1    2    0  503 -0.16657124386E+03 -0.25718473313E+02 -0.24036505913E+03  0.34075178767E+03  0.17300000000E+03 0.  1.
<mgrwt>
<rscale>  2 0.24152933E+03</rscale>
<asrwt>0</asrwt>
<pdfrwt beam="1">  1       21 0.22580158E-01 0.24152933E+03</pdfrwt>
<pdfrwt beam="2">  1       21 0.67933463E-01 0.24152933E+03</pdfrwt>
<totfact> 0.35501464E+04</totfact>
</mgrwt>
</event>
<event>
 4    2  0.4039581E+000  0.1938497E+03  0.7546771E-02  0.1155034E+00
         21   -1    0    0  501  502  0.00000000000E+00  0.00000000000E+00  0.45959921135E+03  0.45959921135E+03  0.00000000000E+00 0. -1.
         21   -1    0    0  502  503 -0.00000000000E+00 -0.00000000000E+00 -0.90002121867E+02  0.90002121867E+02  0.00000000000E+00 0. -1.
          6    1    1    2  501    0  0.37490384370E+02 -0.79013730715E+02  0.26794834602E+03  0.33071742424E+03  0.17300000000E+03 0. -1.
         -6    1    1    2    0  503 -0.37490384370E+02  0.79013730715E+02  0.10164874347E+03  0.21888390898E+03  0.17300000000E+03 0. -1.
<mgrwt>
<rscale>  2 0.19384968E+03</rscale>
<asrwt>0</asrwt>
<pdfrwt beam="1">  1       21 0.70707570E-01 0.19384968E+03</pdfrwt>
<pdfrwt beam="2">  1       21 0.13846481E-01 0.19384968E+03</pdfrwt>
<totfact> 0.82166363E+04</totfact>
</mgrwt>
</event>
<event>
 4    2  0.4039581E+000  0.1928178E+03  0.7546771E-02  0.1155944E+00
         21   -1    0    0  503  502  0.00000000000E+00  0.00000000000E+00  0.20931993594E+03  0.20931993594E+03  0.00000000000E+00 0.  1.
         21   -1    0    0  501  503 -0.00000000000E+00 -0.00000000000E+00 -0.30850677434E+03  0.30850677434E+03  0.00000000000E+00 0. -1.
          6    1    1    2  501    0 -0.82969270629E+02  0.19126002635E+02 -0.21823922924E+03  0.29121652602E+03  0.17300000000E+03 0. -1.
         -6    1    1    2    0  502  0.82969270629E+02 -0.19126002635E+02  0.11905239084E+03  0.22661018426E+03  0.17300000000E+03 0. -1.
<mgrwt>
<rscale>  2 0.19281780E+03</rscale>
<asrwt>0</asrwt>
<pdfrwt beam="1">  1       21 0.32203067E-01 0.19281780E+03</pdfrwt>
<pdfrwt beam="2">  1       21 0.47462581E-01 0.19281780E+03</pdfrwt>
<totfact> 0.39384405E+04</totfact>
</mgrwt>
</event>
<event>
 4    2  0.4039581E+000  0.1886424E+03  0.7546771E-02  0.1159692E+00
         21   -1    0    0  501  502  0.00000000000E+00  0.00000000000E+00  0.86489158333E+02  0.86489158333E+02  0.00000000000E+00 0. -1.
         21   -1    0    0  502  503 -0.00000000000E+00 -0.00000000000E+00 -0.57157795552E+03  0.57157795552E+03  0.00000000000E+00 0. -1.
          6    1    1    2  501    0 -0.71186374063E+02  0.24278449296E+02 -0.68389229442E+02  0.20065649667E+03  0.17300000000E+03 0. -1.
         -6    1    1    2    0  503  0.71186374063E+02 -0.24278449296E+02 -0.41669956775E+03  0.45741061718E+03  0.17300000000E+03 0. -1.
<mgrwt>
<rscale>  2 0.18864237E+03</rscale>
<asrwt>0</asrwt>
<pdfrwt beam="1">  1       21 0.13306025E-01 0.18864237E+03</pdfrwt>
<pdfrwt beam="2">  1       21 0.87935068E-01 0.18864237E+03</pdfrwt>
<totfact> 0.54132297E+04</totfact>
</mgrwt>
</event>
<event>
 4    2  0.4039581E+000  0.2268028E+03  0.7546771E-02  0.1128911E+00
         21   -1    0    0  503  502  0.00000000000E+00  0.00000000000E+00  0.34842979801E+03  0.34842979801E+03  0.00000000000E+00 0. -1.
         21   -1    0    0  501  503 -0.00000000000E+00 -0.00000000000E+00 -0.19178296814E+03  0.19178296814E+03  0.00000000000E+00 0.  1.
          6    1    1    2  501    0 -0.14238286700E+03 -0.35179977571E+02  0.20792138500E+03  0.30768622650E+03  0.17300000000E+03 0.  1.
         -6    1    1    2    0  502  0.14238286700E+03  0.35179977571E+02 -0.51274555128E+02  0.23252653965E+03  0.17300000000E+03 0.  1.
<mgrwt>
<rscale>  2 0.22680280E+03</rscale>
<asrwt>0</asrwt>
<pdfrwt beam="1">  1       21 0.53604585E-01 0.22680280E+03</pdfrwt>
<pdfrwt beam="2">  1       21 0.29505072E-01 0.22680280E+03</pdfrwt>
<totfact> 0.35624560E+04</totfact>
</mgrwt>
</event>
<event>
 4    2  0.4039581E+000  0.1752059E+03  0.7546771E-02  0.1172525E+00
         21   -1    0    0  501  502  0.00000000000E+00  0.00000000000E+00  0.23317935678E+03  0.23317935678E+03  0.00000000000E+00 0.  1.
         21   -1    0    0  502  503 -0.00000000000E+00 -0.00000000000E+00 -0.62237658320E+03  0.62237658320E+03  0.00000000000E+00 0.  1.
          6    1    1    2  501    0  0.27251353632E+02 -0.50458184772E+01  0.18525251295E+03  0.25498154857E+03  0.17300000000E+03 0.  1.
         -6    1    1    2    0  503 -0.27251353632E+02  0.50458184772E+01 -0.57444973937E+03  0.60057439141E+03  0.17300000000E+03 0.  1.
<mgrwt>
<rscale>  2 0.17520587E+03</rscale>
<asrwt>0</asrwt>
<pdfrwt beam="1">  1       21 0.35873748E-01 0.17520587E+03</pdfrwt>
<pdfrwt beam="2">  1       21 0.95750241E-01 0.17520587E+03</pdfrwt>
<totfact> 0.69061795E+03</totfact>
</mgrwt>
</event>
<event>
 4    2  0.4039581E+000  0.2261961E+03  0.7546771E-02  0.1129346E+00
         21   -1    0    0  503  502  0.00000000000E+00  0.00000000000E+00  0.26702433056E+03  0.26702433056E+03  0.00000000000E+00 0.  1.
         21   -1    0    0  501  503 -0.00000000000E+00 -0.00000000000E+00 -0.35075419124E+03  0.35075419124E+03  0.00000000000E+00 0.  1.
          6    1    1    2  501    0 -0.10957712309E+03 -0.96065155283E+02 -0.24992853423E+03  0.33708890843E+03  0.17300000000E+03 0.  1.
         -6    1    1    2    0  502  0.10957712309E+03  0.96065155283E+02  0.16619867354E+03  0.28068961337E+03  0.17300000000E+03 0.  1.
<mgrwt>
<rscale>  2 0.22619607E+03</rscale>
<asrwt>0</asrwt>
<pdfrwt beam="1">  1       21 0.41080666E-01 0.22619607E+03</pdfrwt>
<pdfrwt beam="2">  1       21 0.53962183E-01 0.22619607E+03</pdfrwt>
<totfact> 0.18171471E+04</totfact>
</mgrwt>
</event>
<event>
 4    2  0.4039581E+000  0.1914961E+03  0.7546771E-02  0.1157119E+00
         21   -1    0    0  503  502  0.00000000000E+00  0.00000000000E+00  0.50907890119E+02  0.50907890119E+02  0.00000000000E+00 0. -1.
         21   -1    0    0  501  503 -0.00000000000E+00 -0.00000000000E+00 -0.72178672298E+03  0.72178672298E+03  0.00000000000E+00 0. -1.
          6    1    1    2  501    0  0.14551775045E+02  0.80808344466E+02 -0.31811363616E+03  0.37130449526E+03  0.17300000000E+03 0. -1.
         -6    1    1    2    0  502 -0.14551775045E+02 -0.80808344466E+02 -0.35276519671E+03  0.40139011784E+03  0.17300000000E+03 0. -1.
<mgrwt>
<rscale>  2 0.19149606E+03</rscale>
<asrwt>0</asrwt>
<pdfrwt beam="1">  1       21 0.78319836E-02 0.19149606E+03</pdfrwt>
<pdfrwt beam="2">  1       21 0.11104410E+00 0.19149606E+03</pdfrwt>
<totfact> 0.79526695E+04</totfact>
</mgrwt>
</event>
<event>
 4    2  0.4039581E+000  0.2655240E+03  0.7546771E-02  0.1103869E+00
         21   -1    0    0  501  502  0.00000000000E+00  0.00000000000E+00  0.16121955718E+03  0.16121955718E+03  0.00000000000E+00 0. -1.
         21   -1    0    0  502  503 -0.00000000000E+00 -0.00000000000E+00 -0.77004175104E+03  0.77004175104E+03  0.00000000000E+00 0.  1.
          6    1    1    2  501    0 -0.13964909160E+03 -0.14516243490E+03  0.16662860456E+01  0.26552924095E+03  0.17300000000E+03 0. -1.
         -6    1    1    2    0  503  0.13964909160E+03  0.14516243490E+03 -0.61048847991E+03  0.66573206727E+03  0.17300000000E+03 0.  1.
<mgrwt>
<rscale>  2 0.26552401E+03</rscale>
<asrwt>0</asrwt>
<pdfrwt beam="1">  1       21 0.24803009E-01 0.26552401E+03</pdfrwt>
<pdfrwt beam="2">  1       21 0.11846796E+00 0.26552401E+03</pdfrwt>
<totfact> 0.79936749E+03</totfact>
</mgrwt>
</event>
<event>
 4    2  0.4039581E+000  0.2019883E+03  0.7546771E-02  0.1148072E+00
         21   -1    0    0  503  502  0.00000000000E+00  0.00000000000E+00  0.21319007621E+03  0.21319007621E+03  0.00000000000E+00 0.  1.
         21   -1    0    0  501  503 -0.00000000000E+00 -0.00000000000E+00 -0.70221929952E+03  0.70221929952E+03  0.00000000000E+00 0.  1.
          6    1    1    2  501    0  0.72195126322E+02 -0.75220694272E+02 -0.63489966305E+03  0.66625586020E+03  0.17300000000E+03 0.  1.
         -6    1    1    2    0  502 -0.72195126322E+02  0.75220694272E+02  0.14587043973E+03  0.24915351553E+03  0.17300000000E+03 0.  1.
<mgrwt>
<rscale>  2 0.20198834E+03</rscale>
<asrwt>0</asrwt>
<pdfrwt beam="1">  1       21 0.32798473E-01 0.20198834E+03</pdfrwt>
<pdfrwt beam="2">  1       21 0.10803374E+00 0.20198834E+03</pdfrwt>
<totfact> 0.60603857E+03</totfact>
</mgrwt>
</event>
<event>
 4    2  0.4039581E+000  0.1890860E+03  0.7546771E-02  0.1159288E+00
         21   -1    0    0  501  502  0.00000000000E+00  0.00000000000E+00  0.22401910630E+03  0.22401910630E+03  0.00000000000E+00 0.  1.
         21   -1    0    0  502  503 -0.00000000000E+00 -0.00000000000E+00 -0.18277396915E+03  0.18277396915E+03  0.00000000000E+00 0.  1.
          6    1    1    2  501    0 -0.39805447016E+02 -0.65115502250E+02  0.93046881653E+02  0.21073970777E+03  0.17300000000E+03 0.  1.
         -6    1    1    2    0  503  0.39805447016E+02  0.65115502250E+02 -0.51801744496E+02  0.19605336768E+03  0.17300000000E+03 0.  1.
<mgrwt>
<rscale>  2 0.18908597E+03</rscale>
<asrwt>0</asrwt>
<pdfrwt beam="1">  1       21 0.34464478E-01 0.18908597E+03</pdfrwt>
<pdfrwt beam="2">  1       21 0.28119072E-01 0.18908597E+03</pdfrwt>
<totfact> 0.98179110E+04</totfact>
</mgrwt>
</event>
<event>
 4    2  0.4039581E+000  0.3441849E+03  0.7546771E-02  0.1065027E+00
         21   -1    0    0  501  502  0.00000000000E+00  0.00000000000E+00  0.25220253711E+03  0.25220253711E+03  0.00000000000E+00 0.  1.
         21   -1    0    0  502  503 -0.00000000000E+00 -0.00000000000E+00 -0.14459681674E+04  0.14459681674E+04  0.00000000000E+00 0. -1.
          6    1    1    2  501    0  0.62679834956E+02 -0.29087026345E+03  0.10079232534E+03  0.35863960283E+03  0.17300000000E+03 0.  1.
         -6    1    1    2    0  503 -0.62679834956E+02  0.29087026345E+03 -0.12945579557E+04  0.13395311017E+04  0.17300000000E+03 0. -1.
<mgrwt>
<rscale>  2 0.34418494E+03</rscale>
<asrwt>0</asrwt>
<pdfrwt beam="1">  1       21 0.38800391E-01 0.34418494E+03</pdfrwt>
<pdfrwt beam="2">  1       21 0.22245664E+00 0.34418494E+03</pdfrwt>
<totfact> 0.54169821E+02</totfact>
</mgrwt>
</event>
<event>
 4    2  0.4039581E+000  0.1764671E+03  0.7546771E-02  0.1171267E+00
         21   -1    0    0  501  502  0.00000000000E+00  0.00000000000E+00  0.28438593804E+03  0.28438593804E+03  0.00000000000E+00 0. -1.
         21   -1    0    0  502  503 -0.00000000000E+00 -0.00000000000E+00 -0.18720625116E+03  0.18720625116E+03  0.00000000000E+00 0.  1.
          6    1    1    2  501    0  0.34303846599E+02 -0.59074911955E+01  0.20050480918E+03  0.26710078781E+03  0.17300000000E+03 0. -1.
         -6    1    1    2    0  503 -0.34303846599E+02  0.59074911955E+01 -0.10332512230E+03  0.20449140139E+03  0.17300000000E+03 0.  1.
<mgrwt>
<rscale>  2 0.17646714E+03</rscale>
<asrwt>0</asrwt>
<pdfrwt beam="1">  1       21 0.43751683E-01 0.17646714E+03</pdfrwt>
<pdfrwt beam="2">  1       21 0.28800962E-01 0.17646714E+03</pdfrwt>
<totfact> 0.58334323E+04</totfact>
</mgrwt>
</event>
<event>
 4    2  0.4039581E+000  0.1857861E+03  0.7546771E-02  0.1162318E+00
         21   -1    0    0  501  502  0.00000000000E+00  0.00000000000E+00  0.42126915249E+03  0.42126915249E+03  0.00000000000E+00 0. -1.
         21   -1    0    0  502  503 -0.00000000000E+00 -0.00000000000E+00 -0.11705016146E+03  0.11705016146E+03  0.00000000000E+00 0. -1.
          6    1    1    2  501    0 -0.47866651138E+02  0.47919400128E+02  0.29953555905E+03  0.35247416407E+03  0.17300000000E+03 0. -1.
         -6    1    1    2    0  503  0.47866651138E+02 -0.47919400128E+02  0.46834319864E+01  0.18584514988E+03  0.17300000000E+03 0. -1.
<mgrwt>
<rscale>  2 0.18578613E+03</rscale>
<asrwt>0</asrwt>
<pdfrwt beam="1">  1       21 0.64810638E-01 0.18578613E+03</pdfrwt>
<pdfrwt beam="2">  1       21 0.18007717E-01 0.18578613E+03</pdfrwt>
<totfact> 0.61720308E+04</totfact>
</mgrwt>
</event>
<event>
 4    2  0.4039581E+000  0.2318471E+03  0.7546771E-02  0.1125346E+00
         21   -1    0    0  503  502  0.00000000000E+00  0.00000000000E+00  0.62701052421E+03  0.62701052421E+03  0.00000000000E+00 0. -1.
         21   -1    0    0  501  503 -0.00000000000E+00 -0.00000000000E+00 -0.16201193136E+03  0.16201193136E+03  0.00000000000E+00 0. -1.
          6    1    1    2  501    0  0.39065133348E+02  0.14932513496E+03 -0.38207476674E+02  0.23497423656E+03  0.17300000000E+03 0. -1.
         -6    1    1    2    0  502 -0.39065133348E+02 -0.14932513496E+03  0.50320606952E+03  0.55404821900E+03  0.17300000000E+03 0. -1.
<mgrwt>
<rscale>  2 0.23184711E+03</rscale>
<asrwt>0</asrwt>
<pdfrwt beam="1">  1       21 0.96463156E-01 0.23184711E+03</pdfrwt>
<pdfrwt beam="2">  1       21 0.24924913E-01 0.23184711E+03</pdfrwt>
<totfact> 0.13282308E+04</totfact>
</mgrwt>
</event>
<event>
 4    2  0.4039581E+000  0.2277015E+03  0.7546771E-02  0.1128268E+00
         21   -1    0    0  501  502  0.00000000000E+00  0.00000000000E+00  0.23906002966E+04  0.23906002966E+04  0.00000000000E+00 0.  1.
         21   -1    0    0  502  503 -0.00000000000E+00 -0.00000000000E+00 -0.43612575424E+02  0.43612575424E+02  0.00000000000E+00 0.  1.
          6    1    1    2  501    0 -0.14724140263E+03  0.15458289158E+02  0.20364437843E+04  0.20491342747E+04  0.17300000000E+03 0.  1.
         -6    1    1    2    0  503  0.14724140263E+03 -0.15458289158E+02  0.31054393692E+03  0.38507859731E+03  0.17300000000E+03 0.  1.
<mgrwt>
<rscale>  2 0.22770154E+03</rscale>
<asrwt>0</asrwt>
<pdfrwt beam="1">  1       21 0.36778456E+00 0.22770154E+03</pdfrwt>
<pdfrwt beam="2">  1       21 0.67096288E-02 0.22770154E+03</pdfrwt>
<totfact> 0.21307160E+03</totfact>
</mgrwt>
</event>
<event>
 4    2  0.4039581E+000  0.3800858E+03  0.7546771E-02  0.1050902E+00
         21   -1    0    0  501  502  0.00000000000E+00  0.00000000000E+00  0.34365597871E+03  0.34365597871E+03  0.00000000000E+00 0.  1.
         21   -1    0    0  502  503 -0.00000000000E+00 -0.00000000000E+00 -0.46133975686E+03  0.46133975686E+03  0.00000000000E+00 0. -1.
          6    1    1    2  501    0 -0.85709717951E+02 -0.32739897975E+03 -0.17877662434E+03  0.42003134300E+03  0.17300000000E+03 0.  1.
         -6    1    1    2    0  503  0.85709717951E+02  0.32739897975E+03  0.61092846183E+02  0.38496439257E+03  0.17300000000E+03 0.  1.
<mgrwt>
<rscale>  2 0.38008584E+03</rscale>
<asrwt>0</asrwt>
<pdfrwt beam="1">  1       21 0.52870151E-01 0.38008584E+03</pdfrwt>
<pdfrwt beam="2">  1       21 0.70975346E-01 0.38008584E+03</pdfrwt>
<totfact> 0.55039361E+03</totfact>
</mgrwt>
</event>
<event>
 4    2  0.4039581E+000  0.2520598E+03  0.7546771E-02  0.1112010E+00
         21   -1    0    0  503  502  0.00000000000E+00  0.00000000000E+00  0.37595912810E+03  0.37595912810E+03  0.00000000000E+00 0. -1.
         21   -1    0    0  501  503 -0.00000000000E+00 -0.00000000000E+00 -0.27572258796E+03  0.27572258796E+03  0.00000000000E+00 0. -1.
          6    1    1    2  501    0 -0.19323744837E+02 -0.18229580273E+03 -0.15260956181E+03  0.29465886235E+03  0.17300000000E+03 0. -1.
         -6    1    1    2    0  502  0.19323744837E+02  0.18229580273E+03  0.25284610194E+03  0.35702285371E+03  0.17300000000E+03 0. -1.
<mgrwt>
<rscale>  2 0.25205985E+03</rscale>
<asrwt>0</asrwt>
<pdfrwt beam="1">  1       21 0.57839866E-01 0.25205985E+03</pdfrwt>
<pdfrwt beam="2">  1       21 0.42418859E-01 0.25205985E+03</pdfrwt>
<totfact> 0.14480454E+04</totfact>
</mgrwt>
</event>
<event>
 4    2  0.4039581E+000  0.1753765E+03  0.7546771E-02  0.1172354E+00
         21   -1    0    0  501  502  0.00000000000E+00  0.00000000000E+00  0.77110503206E+02  0.77110503206E+02  0.00000000000E+00 0.  1.
         21   -1    0    0  502  503 -0.00000000000E+00 -0.00000000000E+00 -0.40837545170E+03  0.40837545170E+03  0.00000000000E+00 0.  1.
          6    1    1    2  501    0  0.28214326900E+02  0.56449039846E+01 -0.20267056839E+03  0.26801543328E+03  0.17300000000E+03 0.  1.
         -6    1    1    2    0  503 -0.28214326900E+02 -0.56449039846E+01 -0.12859438010E+03  0.21747052163E+03  0.17300000000E+03 0.  1.
<mgrwt>
<rscale>  2 0.17537649E+03</rscale>
<asrwt>0</asrwt>
<pdfrwt beam="1">  1       21 0.11863155E-01 0.17537649E+03</pdfrwt>
<pdfrwt beam="2">  1       21 0.62826991E-01 0.17537649E+03</pdfrwt>
<totfact> 0.14137782E+05</totfact>
</mgrwt>
</event>
<event>
 4    2  0.4039581E+000  0.1841559E+03  0.7546771E-02  0.1163841E+00
         21   -1    0    0  503  502  0.00000000000E+00  0.00000000000E+00  0.77270299254E+03  0.77270299254E+03  0.00000000000E+00 0.  1.
         21   -1    0    0  501  503 -0.00000000000E+00 -0.00000000000E+00 -0.93647441979E+02  0.93647441979E+02  0.00000000000E+00 0.  1.
          6    1    1    2  501    0 -0.86989527775E+01 -0.62519683395E+02  0.23774560276E+02  0.18568417355E+03  0.17300000000E+03 0.  1.
         -6    1    1    2    0  502  0.86989527775E+01  0.62519683395E+02  0.65528099029E+03  0.68066626097E+03  0.17300000000E+03 0.  1.
<mgrwt>
<rscale>  2 0.18415586E+03</rscale>
<asrwt>0</asrwt>
<pdfrwt beam="1">  1       21 0.11887738E+00 0.18415586E+03</pdfrwt>
<pdfrwt beam="2">  1       21 0.14407299E-01 0.18415586E+03</pdfrwt>
<totfact> 0.22936537E+04</totfact>
</mgrwt>
</event>
<event>
 4    2  0.4039581E+000  0.2210692E+03  0.7546771E-02  0.1133088E+00
         21   -1    0    0  503  502  0.00000000000E+00  0.00000000000E+00  0.14120850388E+03  0.14120850388E+03  0.00000000000E+00 0.  1.
         21   -1    0    0  501  503 -0.00000000000E+00 -0.00000000000E+00 -0.35401943758E+03  0.35401943758E+03  0.00000000000E+00 0.  1.
          6    1    1    2  501    0  0.95386866138E+02  0.99216617433E+02 -0.69359650699E+02  0.23169452422E+03  0.17300000000E+03 0.  1.
         -6    1    1    2    0  502 -0.95386866138E+02 -0.99216617433E+02 -0.14345128300E+03  0.26353341724E+03  0.17300000000E+03 0.  1.
<mgrwt>
<rscale>  2 0.22106920E+03</rscale>
<asrwt>0</asrwt>
<pdfrwt beam="1">  1       21 0.21724385E-01 0.22106920E+03</pdfrwt>
<pdfrwt beam="2">  1       21 0.54464529E-01 0.22106920E+03</pdfrwt>
<totfact> 0.62146789E+04</totfact>
</mgrwt>
</event>
<event>
 4    2  0.4039581E+000  0.2599992E+03  0.7546771E-02  0.1107144E+00
         21   -1    0    0  501  502  0.00000000000E+00  0.00000000000E+00  0.24093102362E+03  0.24093102362E+03  0.00000000000E+00 0. -1.
         21   -1    0    0  502  503 -0.00000000000E+00 -0.00000000000E+00 -0.28877713820E+03  0.28877713820E+03  0.00000000000E+00 0. -1.
          6    1    1    2  501    0 -0.53397822061E+01 -0.19401567722E+03  0.20709078459E+02  0.26082266430E+03  0.17300000000E+03 0. -1.
         -6    1    1    2    0  503  0.53397822061E+01  0.19401567722E+03 -0.68555193044E+02  0.26888549752E+03  0.17300000000E+03 0. -1.
<mgrwt>
<rscale>  2 0.25999922E+03</rscale>
<asrwt>0</asrwt>
<pdfrwt beam="1">  1       21 0.37066311E-01 0.25999922E+03</pdfrwt>
<pdfrwt beam="2">  1       21 0.44427252E-01 0.25999922E+03</pdfrwt>
<totfact> 0.33065783E+04</totfact>
</mgrwt>
</event>
<event>
 4    2  0.4039581E+000  0.2121584E+03  0.7546771E-02  0.1139868E+00
         21   -1    0    0  503  502  0.00000000000E+00  0.00000000000E+00  0.22672574887E+03  0.22672574887E+03  0.00000000000E+00 0. -1.
         21   -1    0    0  501  503 -0.00000000000E+00 -0.00000000000E+00 -0.36595617414E+03  0.36595617414E+03  0.00000000000E+00 0. -1.
          6    1    1    2  501    0  0.94637388639E+02  0.78268328224E+02 -0.27005909531E+03  0.34342842266E+03  0.17300000000E+03 0. -1.
         -6    1    1    2    0  502 -0.94637388639E+02 -0.78268328224E+02  0.13082867005E+03  0.24925350035E+03  0.17300000000E+03 0. -1.
<mgrwt>
<rscale>  2 0.21215835E+03</rscale>
<asrwt>0</asrwt>
<pdfrwt beam="1">  1       21 0.34880885E-01 0.21215835E+03</pdfrwt>
<pdfrwt beam="2">  1       21 0.56300949E-01 0.21215835E+03</pdfrwt>
<totfact> 0.23255961E+04</totfact>
</mgrwt>
</event>
<event>
 4    2  0.4039581E+000  0.1780605E+03  0.7546771E-02  0.1169693E+00
         21   -1    0    0  503  502  0.00000000000E+00  0.00000000000E+00  0.15947945972E+03  0.15947945972E+03  0.00000000000E+00 0. -1.
         21   -1    0    0  501  503 -0.00000000000E+00 -0.00000000000E+00 -0.21247324772E+03  0.21247324772E+03  0.00000000000E+00 0.  1.
          6    1    1    2  501    0 -0.39392777064E+01  0.41964683732E+02 -0.73663893624E+02  0.19269644992E+03  0.17300000000E+03 0.  1.
         -6    1    1    2    0  502  0.39392777064E+01 -0.41964683732E+02  0.20670105626E+02  0.17925625751E+03  0.17300000000E+03 0. -1.
<mgrwt>
<rscale>  2 0.17806053E+03</rscale>
<asrwt>0</asrwt>
<pdfrwt beam="1">  1       21 0.24535301E-01 0.17806053E+03</pdfrwt>
<pdfrwt beam="2">  1       21 0.32688192E-01 0.17806053E+03</pdfrwt>
<totfact> 0.14208552E+05</totfact>
</mgrwt>
</event>
<event>
 4    2  0.4039581E+000  0.3784373E+03  0.7546771E-02  0.1051513E+00
         21   -1    0    0  501  502  0.00000000000E+00  0.00000000000E+00  0.21835384812E+03  0.21835384812E+03  0.00000000000E+00 0. -1.
         21   -1    0    0  502  503 -0.00000000000E+00 -0.00000000000E+00 -0.65835060230E+03  0.65835060230E+03  0.00000000000E+00 0.  1.
          6    1    1    2  501    0  0.18311396416E+03 -0.28240942402E+03 -0.19316720800E+03  0.42488631055E+03  0.17300000000E+03 0.  1.
         -6    1    1    2    0  503 -0.18311396416E+03  0.28240942402E+03 -0.24682954619E+03  0.45181813987E+03  0.17300000000E+03 0.  1.
<mgrwt>
<rscale>  2 0.37843732E+03</rscale>
<asrwt>0</asrwt>
<pdfrwt beam="1">  1       21 0.33592899E-01 0.37843732E+03</pdfrwt>
<pdfrwt beam="2">  1       21 0.10128471E+00 0.37843732E+03</pdfrwt>
<totfact> 0.61438859E+03</totfact>
</mgrwt>
</event>
<event>
 4    2  0.4039581E+000  0.2152698E+03  0.7546771E-02  0.1137460E+00
         21   -1    0    0  501  502  0.00000000000E+00  0.00000000000E+00  0.13330870787E+04  0.13330870787E+04  0.00000000000E+00 0.  1.
         21   -1    0    0  502  503 -0.00000000000E+00 -0.00000000000E+00 -0.39394668771E+02  0.39394668771E+02  0.00000000000E+00 0.  1.
          6    1    1    2  501    0  0.63442830645E+00  0.12810810581E+03  0.88216811251E+03  0.90805378035E+03  0.17300000000E+03 0.  1.
         -6    1    1    2    0  503 -0.63442830645E+00 -0.12810810581E+03  0.41152429738E+03  0.46442796708E+03  0.17300000000E+03 0.  1.
<mgrwt>
<rscale>  2 0.21526981E+03</rscale>
<asrwt>0</asrwt>
<pdfrwt beam="1">  1       21 0.20509029E+00 0.21526981E+03</pdfrwt>
<pdfrwt beam="2">  1       21 0.60607193E-02 0.21526981E+03</pdfrwt>
<totfact> 0.23752959E+04</totfact>
</mgrwt>
</event>
<event>
 4    2  0.4039581E+000  0.1790004E+03  0.7546771E-02  0.1168774E+00
         21   -1    0    0  503  502  0.00000000000E+00  0.00000000000E+00  0.94715316002E+03  0.94715316002E+03  0.00000000000E+00 0. -1.
         21   -1    0    0  501  503 -0.00000000000E+00 -0.00000000000E+00 -0.43351175578E+02  0.43351175578E+02  0.00000000000E+00 0. -1.
          6    1    1    2  501    0  0.21530088875E+02 -0.40602797571E+02  0.68401253773E+03  0.70704616799E+03  0.17300000000E+03 0.  1.
         -6    1    1    2    0  502 -0.21530088875E+02  0.40602797571E+02  0.21978944671E+03  0.28345816761E+03  0.17300000000E+03 0.  1.
<mgrwt>
<rscale>  2 0.17900037E+03</rscale>
<asrwt>0</asrwt>
<pdfrwt beam="1">  1       21 0.14571586E+00 0.17900037E+03</pdfrwt>
<pdfrwt beam="2">  1       21 0.66694123E-02 0.17900037E+03</pdfrwt>
<totfact> 0.53425986E+04</totfact>
</mgrwt>
</event>
<event>
 4    2  0.4039581E+000  0.2385065E+03  0.7546771E-02  0.1120792E+00
         21   -1    0    0  503  502  0.00000000000E+00  0.00000000000E+00  0.21286252091E+04  0.21286252091E+04  0.00000000000E+00 0.  1.
         21   -1    0    0  501  503 -0.00000000000E+00 -0.00000000000E+00 -0.31064601777E+02  0.31064601777E+02  0.00000000000E+00 0.  1.
          6    1    1    2  501    0 -0.55063517649E+01 -0.16409146700E+03  0.64513058856E+03  0.68780724462E+03  0.17300000000E+03 0.  1.
         -6    1    1    2    0  502  0.55063517649E+01  0.16409146700E+03  0.14524300187E+04  0.14718825662E+04  0.17300000000E+03 0.  1.
<mgrwt>
<rscale>  2 0.23850646E+03</rscale>
<asrwt>0</asrwt>
<pdfrwt beam="1">  1       21 0.32748069E+00 0.23850646E+03</pdfrwt>
<pdfrwt beam="2">  1       21 0.47791712E-02 0.23850646E+03</pdfrwt>
<totfact> 0.65448623E+03</totfact>
</mgrwt>
</event>
<event>
 4    2  0.4039581E+000  0.1823890E+03  0.7546771E-02  0.1165511E+00
         21   -1    0    0  501  502  0.00000000000E+00  0.00000000000E+00  0.12328531059E+04  0.12328531059E+04  0.00000000000E+00 0.  1.
         21   -1    0    0  502  503 -0.00000000000E+00 -0.00000000000E+00 -0.64995830437E+02  0.64995830437E+02  0.00000000000E+00 0.  1.
          6    1    1    2  501    0 -0.39187101449E+02  0.42439733423E+02  0.10801985746E+04  0.10954883480E+04  0.17300000000E+03 0.  1.
         -6    1    1    2    0  503  0.39187101449E+02 -0.42439733423E+02  0.87658700825E+02  0.20236058836E+03  0.17300000000E+03 0.  1.
<mgrwt>
<rscale>  2 0.18238903E+03</rscale>
<asrwt>0</asrwt>
<pdfrwt beam="1">  1       21 0.18966969E+00 0.18238903E+03</pdfrwt>
<pdfrwt beam="2">  1       21 0.99993594E-02 0.18238903E+03</pdfrwt>
<totfact> 0.12826452E+04</totfact>
</mgrwt>
</event>
<event>
 4    2  0.4039581E+000  0.1811690E+03  0.7546771E-02  0.1166676E+00
         21   -1    0    0  503  502  0.00000000000E+00  0.00000000000E+00  0.35398574902E+03  0.35398574902E+03  0.00000000000E+00 0. -1.
         21   -1    0    0  501  503 -0.00000000000E+00 -0.00000000000E+00 -0.44556488118E+03  0.44556488118E+03  0.00000000000E+00 0. -1.
          6    1    1    2  501    0 -0.20984149768E+02  0.49526552680E+02 -0.40154477620E+03  0.44052289527E+03  0.17300000000E+03 0. -1.
         -6    1    1    2    0  502  0.20984149768E+02 -0.49526552680E+02  0.30996564404E+03  0.35902773493E+03  0.17300000000E+03 0. -1.
<mgrwt>
<rscale>  2 0.18116902E+03</rscale>
<asrwt>0</asrwt>
<pdfrwt beam="1">  1       21 0.54459346E-01 0.18116902E+03</pdfrwt>
<pdfrwt beam="2">  1       21 0.68548443E-01 0.18116902E+03</pdfrwt>
<totfact> 0.62341940E+03</totfact>
</mgrwt>
</event>
<event>
 4    2  0.4039581E+000  0.2238677E+03  0.7546771E-02  0.1131032E+00
         21   -1    0    0  501  502  0.00000000000E+00  0.00000000000E+00  0.48884722096E+03  0.48884722096E+03  0.00000000000E+00 0. -1.
         21   -1    0    0  502  503 -0.00000000000E+00 -0.00000000000E+00 -0.11960790794E+03  0.11960790794E+03  0.00000000000E+00 0. -1.
          6    1    1    2  501    0 -0.13762368574E+03 -0.35319463690E+02  0.29960957819E+03  0.37400888055E+03  0.17300000000E+03 0. -1.
         -6    1    1    2    0  503  0.13762368574E+03  0.35319463690E+02  0.69629734838E+02  0.23444624835E+03  0.17300000000E+03 0. -1.
<mgrwt>
<rscale>  2 0.22386769E+03</rscale>
<asrwt>0</asrwt>
<pdfrwt beam="1">  1       21 0.75207264E-01 0.22386769E+03</pdfrwt>
<pdfrwt beam="2">  1       21 0.18401217E-01 0.22386769E+03</pdfrwt>
<totfact> 0.41932134E+04</totfact>
</mgrwt>
</event>
<event>
 4    2  0.4039581E+000  0.2098490E+03  0.7546771E-02  0.1141686E+00
         21   -1    0    0  503  502  0.00000000000E+00  0.00000000000E+00  0.69399106259E+03  0.69399106259E+03  0.00000000000E+00 0.  1.
         21   -1    0    0  501  503 -0.00000000000E+00 -0.00000000000E+00 -0.72978868782E+02  0.72978868782E+02  0.00000000000E+00 0.  1.
          6    1    1    2  501    0  0.11778412196E+03  0.15314015786E+02  0.17196593856E+03  0.27130960633E+03  0.17300000000E+03 0.  1.
         -6    1    1    2    0  502 -0.11778412196E+03 -0.15314015786E+02  0.44904625525E+03  0.49566032504E+03  0.17300000000E+03 0.  1.
<mgrwt>
<rscale>  2 0.20984904E+03</rscale>
<asrwt>0</asrwt>
<pdfrwt beam="1">  1       21 0.10676785E+00 0.20984904E+03</pdfrwt>
<pdfrwt beam="2">  1       21 0.11227519E-01 0.20984904E+03</pdfrwt>
<totfact> 0.45964357E+04</totfact>
</mgrwt>
</event>
<event>
 4    2  0.4039581E+000  0.1743070E+03  0.7546771E-02  0.1173429E+00
         21   -1    0    0  503  502  0.00000000000E+00  0.00000000000E+00  0.92557177547E+02  0.92557177547E+02  0.00000000000E+00 0. -1.
         21   -1    0    0  501  503 -0.00000000000E+00 -0.00000000000E+00 -0.49540984681E+03  0.49540984681E+03  0.00000000000E+00 0. -1.
          6    1    1    2  501    0  0.17285523236E+02 -0.12455677168E+02 -0.37218865470E+03  0.41098336693E+03  0.17300000000E+03 0. -1.
         -6    1    1    2    0  502 -0.17285523236E+02  0.12455677168E+02 -0.30664014566E+02  0.17698365743E+03  0.17300000000E+03 0. -1.
<mgrwt>
<rscale>  2 0.17430701E+03</rscale>
<asrwt>0</asrwt>
<pdfrwt beam="1">  1       21 0.14239566E-01 0.17430701E+03</pdfrwt>
<pdfrwt beam="2">  1       21 0.76216900E-01 0.17430701E+03</pdfrwt>
<totfact> 0.66678111E+04</totfact>
</mgrwt>
</event>
<event>
 4    2  0.4039581E+000  0.2113150E+03  0.7546771E-02  0.1140529E+00
         21   -1    0    0  503  502  0.00000000000E+00  0.00000000000E+00  0.60652444893E+03  0.60652444893E+03  0.00000000000E+00 0.  1.
         21   -1    0    0  501  503 -0.00000000000E+00 -0.00000000000E+00 -0.10885354367E+03  0.10885354367E+03  0.00000000000E+00 0. -1.
          6    1    1    2  501    0  0.11974236826E+03 -0.19667107838E+02  0.45344463773E+02  0.21612531152E+03  0.17300000000E+03 0.  1.
         -6    1    1    2    0  502 -0.11974236826E+03  0.19667107838E+02  0.45232644150E+03  0.49925268108E+03  0.17300000000E+03 0. -1.
<mgrwt>
<rscale>  2 0.21131500E+03</rscale>
<asrwt>0</asrwt>
<pdfrwt beam="1">  1       21 0.93311452E-01 0.21131500E+03</pdfrwt>
<pdfrwt beam="2">  1       21 0.16746699E-01 0.21131500E+03</pdfrwt>
<totfact> 0.30658182E+04</totfact>
</mgrwt>
</event>
<event>
 4    2  0.4039581E+000  0.2067455E+03  0.7546771E-02  0.1144169E+00
         21   -1    0    0  501  502  0.00000000000E+00  0.00000000000E+00  0.63851489502E+02  0.63851489502E+02  0.00000000000E+00 0. -1.
         21   -1    0    0  502  503 -0.00000000000E+00 -0.00000000000E+00 -0.68624899637E+03  0.68624899637E+03  0.00000000000E+00 0. -1.
          6    1    1    2  501    0  0.11087444005E+03 -0.22837560961E+02 -0.36992481856E+03  0.42377832299E+03  0.17300000000E+03 0. -1.
         -6    1    1    2    0  503 -0.11087444005E+03  0.22837560961E+02 -0.25247268830E+03  0.32632216288E+03  0.17300000000E+03 0. -1.
<mgrwt>
<rscale>  2 0.20674549E+03</rscale>
<asrwt>0</asrwt>
<pdfrwt beam="1">  1       21 0.98233055E-02 0.20674549E+03</pdfrwt>
<pdfrwt beam="2">  1       21 0.10557678E+00 0.20674549E+03</pdfrwt>
<totfact> 0.59961851E+04</totfact>
</mgrwt>
</event>
<event>
 4    2  0.4039581E+000  0.2326421E+03  0.7546771E-02  0.1124794E+00
         21   -1    0    0  501  502  0.00000000000E+00  0.00000000000E+00  0.52881075970E+03  0.52881075970E+03  0.00000000000E+00 0. -1.
         21   -1    0    0  502  503 -0.00000000000E+00 -0.00000000000E+00 -0.13209234279E+03  0.13209234279E+03  0.00000000000E+00 0.  1.
          6    1    1    2  501    0  0.15380283662E+03  0.23195441641E+02  0.35517017931E+03  0.42458002466E+03  0.17300000000E+03 0. -1.
         -6    1    1    2    0  503 -0.15380283662E+03 -0.23195441641E+02  0.41548237596E+02  0.23632307783E+03  0.17300000000E+03 0.  1.
<mgrwt>
<rscale>  2 0.23264209E+03</rscale>
<asrwt>0</asrwt>
<pdfrwt beam="1">  1       21 0.81355500E-01 0.23264209E+03</pdfrwt>
<pdfrwt beam="2">  1       21 0.20321899E-01 0.23264209E+03</pdfrwt>
<totfact> 0.29037226E+04</totfact>
</mgrwt>
</event>
<event>
 4    2  0.4039581E+000  0.2114712E+03  0.7546771E-02  0.1140406E+00
         21   -1    0    0  503  502  0.00000000000E+00  0.00000000000E+00  0.13241804363E+03  0.13241804363E+03  0.00000000000E+00 0.  1.
         21   -1    0    0  501  503 -0.00000000000E+00 -0.00000000000E+00 -0.34904189335E+03  0.34904189335E+03  0.00000000000E+00 0.  1.
          6    1    1    2  501    0 -0.61992487009E+02  0.10463275550E+03 -0.64953734528E+02  0.22122176565E+03  0.17300000000E+03 0.  1.
         -6    1    1    2    0  502  0.61992487009E+02 -0.10463275550E+03 -0.15167011520E+03  0.26023817132E+03  0.17300000000E+03 0.  1.
<mgrwt>
<rscale>  2 0.21147123E+03</rscale>
<asrwt>0</asrwt>
<pdfrwt beam="1">  1       21 0.20372007E-01 0.21147123E+03</pdfrwt>
<pdfrwt beam="2">  1       21 0.53698753E-01 0.21147123E+03</pdfrwt>
<totfact> 0.72566569E+04</totfact>
</mgrwt>
</event>
<event>
 4    2  0.4039581E+000  0.2022792E+03  0.7546771E-02  0.1147830E+00
         21   -1    0    0  503  502  0.00000000000E+00  0.00000000000E+00  0.13497880149E+03  0.13497880149E+03  0.00000000000E+00 0.  1.
         21   -1    0    0  501  503 -0.00000000000E+00 -0.00000000000E+00 -0.36464754139E+03  0.36464754139E+03  0.00000000000E+00 0.  1.
          6    1    1    2  501    0 -0.97092696934E+02 -0.39507864995E+02 -0.21743708284E+03  0.29697768972E+03  0.17300000000E+03 0.  1.
         -6    1    1    2    0  502  0.97092696934E+02  0.39507864995E+02 -0.12231657054E+02  0.20264865316E+03  0.17300000000E+03 0.  1.
<mgrwt>
<rscale>  2 0.20227917E+03</rscale>
<asrwt>0</asrwt>
<pdfrwt beam="1">  1       21 0.20765969E-01 0.20227917E+03</pdfrwt>
<pdfrwt beam="2">  1       21 0.56099623E-01 0.20227917E+03</pdfrwt>
<totfact> 0.64069256E+04</totfact>
</mgrwt>
</event>
<event>
 4    2  0.4039581E+000  0.2369473E+03  0.7546771E-02  0.1121843E+00
         21   -1    0    0  501  502  0.00000000000E+00  0.00000000000E+00  0.43715093079E+02  0.43715093079E+02  0.00000000000E+00 0. -1.
         21   -1    0    0  502  503 -0.00000000000E+00 -0.00000000000E+00 -0.14297625901E+04  0.14297625901E+04  0.00000000000E+00 0. -1.
          6    1    1    2  501    0 -0.10358386945E+02  0.16157883637E+03 -0.45804283568E+03  0.51570074255E+03  0.17300000000E+03 0. -1.
         -6    1    1    2    0  503  0.10358386945E+02 -0.16157883637E+03 -0.92800466133E+03  0.95777694062E+03  0.17300000000E+03 0. -1.
<mgrwt>
<rscale>  2 0.23694729E+03</rscale>
<asrwt>0</asrwt>
<pdfrwt beam="1">  1       21 0.67253980E-02 0.23694729E+03</pdfrwt>
<pdfrwt beam="2">  1       21 0.21996351E+00 0.23694729E+03</pdfrwt>
<totfact> 0.15765712E+04</totfact>
</mgrwt>
</event>
<event>
 4    2  0.4039581E+000  0.1857651E+03  0.7546771E-02  0.1162337E+00
         21   -1    0    0  501  502  0.00000000000E+00  0.00000000000E+00  0.72216406788E+03  0.72216406788E+03  0.00000000000E+00 0. -1.
         21   -1    0    0  502  503 -0.00000000000E+00 -0.00000000000E+00 -0.85399526599E+02  0.85399526599E+02  0.00000000000E+00 0. -1.
          6    1    1    2  501    0  0.18863244862E+02  0.64991165399E+02  0.58635851537E+03  0.61508128092E+03  0.17300000000E+03 0. -1.
         -6    1    1    2    0  503 -0.18863244862E+02 -0.64991165399E+02  0.50406025911E+02  0.19248231356E+03  0.17300000000E+03 0. -1.
<mgrwt>
<rscale>  2 0.18576510E+03</rscale>
<asrwt>0</asrwt>
<pdfrwt beam="1">  1       21 0.11110216E+00 0.18576510E+03</pdfrwt>
<pdfrwt beam="2">  1       21 0.13138389E-01 0.18576510E+03</pdfrwt>
<totfact> 0.31917292E+04</totfact>
</mgrwt>
</event>
<event>
 4    2  0.4039581E+000  0.2237090E+03  0.7546771E-02  0.1131148E+00
         21   -1    0    0  503  502  0.00000000000E+00  0.00000000000E+00  0.17368180793E+04  0.17368180793E+04  0.00000000000E+00 0. -1.
         21   -1    0    0  501  503 -0.00000000000E+00 -0.00000000000E+00 -0.31796762170E+02  0.31796762170E+02  0.00000000000E+00 0.  1.
          6    1    1    2  501    0 -0.13713883593E+03 -0.36189078591E+02  0.58169248496E+03  0.62322697053E+03  0.17300000000E+03 0.  1.
         -6    1    1    2    0  502  0.13713883593E+03  0.36189078591E+02  0.11233288322E+04  0.11453878709E+04  0.17300000000E+03 0. -1.
<mgrwt>
<rscale>  2 0.22370898E+03</rscale>
<asrwt>0</asrwt>
<pdfrwt beam="1">  1       21 0.26720271E+00 0.22370898E+03</pdfrwt>
<pdfrwt beam="2">  1       21 0.48918109E-02 0.22370898E+03</pdfrwt>
<totfact> 0.14322295E+04</totfact>
</mgrwt>
</event>
<event>
 4    2  0.4039581E+000  0.2417391E+03  0.7546771E-02  0.1118640E+00
         21   -1    0    0  501  502  0.00000000000E+00  0.00000000000E+00  0.34795176821E+03  0.34795176821E+03  0.00000000000E+00 0.  1.
         21   -1    0    0  502  503 -0.00000000000E+00 -0.00000000000E+00 -0.17430543499E+03  0.17430543499E+03  0.00000000000E+00 0.  1.
          6    1    1    2  501    0  0.16693921559E+03 -0.25299861572E+02  0.13669344524E+03  0.27771006944E+03  0.17300000000E+03 0.  1.
         -6    1    1    2    0  503 -0.16693921559E+03  0.25299861572E+02  0.36952887987E+02  0.24454713376E+03  0.17300000000E+03 0.  1.
<mgrwt>
<rscale>  2 0.24173908E+03</rscale>
<asrwt>0</asrwt>
<pdfrwt beam="1">  1       21 0.53531041E-01 0.24173908E+03</pdfrwt>
<pdfrwt beam="2">  1       21 0.26816221E-01 0.24173908E+03</pdfrwt>
<totfact> 0.42734846E+04</totfact>
</mgrwt>
</event>
<event>
 4    2  0.4039581E+000  0.1884293E+03  0.7546771E-02  0.1159886E+00
         21   -1    0    0  501  502  0.00000000000E+00  0.00000000000E+00  0.11605793968E+04  0.11605793968E+04  0.00000000000E+00 0.  1.
         21   -1    0    0  502  503 -0.00000000000E+00 -0.00000000000E+00 -0.33300411771E+02  0.33300411771E+02  0.00000000000E+00 0. -1.
          6    1    1    2  501    0 -0.58362520881E+02 -0.46587913048E+02  0.73384834231E+03  0.75765361941E+03  0.17300000000E+03 0.  1.
         -6    1    1    2    0  503  0.58362520881E+02  0.46587913048E+02  0.39343064274E+03  0.43622618918E+03  0.17300000000E+03 0. -1.
<mgrwt>
<rscale>  2 0.18842934E+03</rscale>
<asrwt>0</asrwt>
<pdfrwt beam="1">  1       21 0.17855065E+00 0.18842934E+03</pdfrwt>
<pdfrwt beam="2">  1       21 0.51231412E-02 0.18842934E+03</pdfrwt>
<totfact> 0.48172441E+04</totfact>
</mgrwt>
</event>
<event>
 4    2  0.4039581E+000  0.2027222E+03  0.7546771E-02  0.1147462E+00
         21   -1    0    0  501  502  0.00000000000E+00  0.00000000000E+00  0.43087885617E+03  0.43087885617E+03  0.00000000000E+00 0. -1.
         21   -1    0    0  502  503 -0.00000000000E+00 -0.00000000000E+00 -0.53435677910E+03  0.53435677910E+03  0.00000000000E+00 0. -1.
          6    1    1    2  501    0  0.14760910079E+02 -0.10463948520E+03  0.38569199933E+03  0.43572310551E+03  0.17300000000E+03 0. -1.
         -6    1    1    2    0  503 -0.14760910079E+02  0.10463948520E+03 -0.48916992226E+03  0.52951252976E+03  0.17300000000E+03 0. -1.
<mgrwt>
<rscale>  2 0.20272224E+03</rscale>
<asrwt>0</asrwt>
<pdfrwt beam="1">  1       21 0.66289055E-01 0.20272224E+03</pdfrwt>
<pdfrwt beam="2">  1       21 0.82208735E-01 0.20272224E+03</pdfrwt>
<totfact> 0.26767449E+03</totfact>
</mgrwt>
</event>
<event>
 4    2  0.4039581E+000  0.1933505E+03  0.7546771E-02  0.1155474E+00
         21   -1    0    0  501  502  0.00000000000E+00  0.00000000000E+00  0.11645471612E+04  0.11645471612E+04  0.00000000000E+00 0.  1.
         21   -1    0    0  502  503 -0.00000000000E+00 -0.00000000000E+00 -0.89949864824E+02  0.89949864824E+02  0.00000000000E+00 0.  1.
          6    1    1    2  501    0 -0.83691539389E+02  0.21240345852E+02  0.10403155995E+04  0.10581308863E+04  0.17300000000E+03 0.  1.
         -6    1    1    2    0  503  0.83691539389E+02 -0.21240345852E+02  0.34281696822E+02  0.19636613963E+03  0.17300000000E+03 0.  1.
<mgrwt>
<rscale>  2 0.19335053E+03</rscale>
<asrwt>0</asrwt>
<pdfrwt beam="1">  1       21 0.17916109E+00 0.19335053E+03</pdfrwt>
<pdfrwt beam="2">  1       21 0.13838442E-01 0.19335053E+03</pdfrwt>
<totfact> 0.83674881E+03</totfact>
</mgrwt>
</event>
<event>
 4    2  0.4039581E+000  0.1820038E+03  0.7546771E-02  0.1165878E+00
         21   -1    0    0  501  502  0.00000000000E+00  0.00000000000E+00  0.34781013070E+03  0.34781013070E+03  0.00000000000E+00 0.  1.
         21   -1    0    0  502  503 -0.00000000000E+00 -0.00000000000E+00 -0.96561574597E+02  0.96561574597E+02  0.00000000000E+00 0.  1.
          6    1    1    2  501    0  0.46289659125E+02  0.32459850306E+02  0.15161926249E+03  0.23688346329E+03  0.17300000000E+03 0.  1.
         -6    1    1    2    0  503 -0.46289659125E+02 -0.32459850306E+02  0.99629293613E+02  0.20748824200E+03  0.17300000000E+03 0.  1.
<mgrwt>
<rscale>  2 0.18200378E+03</rscale>
<asrwt>0</asrwt>
<pdfrwt beam="1">  1       21 0.53509250E-01 0.18200378E+03</pdfrwt>
<pdfrwt beam="2">  1       21 0.14855627E-01 0.18200378E+03</pdfrwt>
<totfact> 0.13245308E+05</totfact>
</mgrwt>
</event>
<event>
 4    2  0.4039581E+000  0.2243815E+03  0.7546771E-02  0.1130658E+00
         21   -1    0    0  501  502  0.00000000000E+00  0.00000000000E+00  0.29973310407E+03  0.29973310407E+03  0.00000000000E+00 0. -1.
         21   -1    0    0  502  503 -0.00000000000E+00 -0.00000000000E+00 -0.46613932115E+03  0.46613932115E+03  0.00000000000E+00 0. -1.
          6    1    1    2  501    0  0.17002722058E+02 -0.14187661593E+03  0.22306224252E+03  0.31639189424E+03  0.17300000000E+03 0. -1.
         -6    1    1    2    0  503 -0.17002722058E+02  0.14187661593E+03 -0.38946845960E+03  0.44948053098E+03  0.17300000000E+03 0. -1.
<mgrwt>
<rscale>  2 0.22438152E+03</rscale>
<asrwt>0</asrwt>
<pdfrwt beam="1">  1       21 0.46112785E-01 0.22438152E+03</pdfrwt>
<pdfrwt beam="2">  1       21 0.71713742E-01 0.22438152E+03</pdfrwt>
<totfact> 0.77432916E+03</totfact>
</mgrwt>
</event>
<event>
 4    2  0.4039581E+000  0.2133904E+03  0.7546771E-02  0.1138909E+00
         21   -1    0    0  501  502  0.00000000000E+00  0.00000000000E+00  0.24550783212E+03  0.24550783212E+03  0.00000000000E+00 0. -1.
         21   -1    0    0  502  503 -0.00000000000E+00 -0.00000000000E+00 -0.18607858003E+03  0.18607858003E+03  0.00000000000E+00 0. -1.
          6    1    1    2  501    0 -0.10220289370E+03 -0.71840464242E+02  0.42008145332E+02  0.21748601807E+03  0.17300000000E+03 0. -1.
         -6    1    1    2    0  503  0.10220289370E+03  0.71840464242E+02  0.17421106766E+02  0.21410039408E+03  0.17300000000E+03 0. -1.
<mgrwt>
<rscale>  2 0.21339045E+03</rscale>
<asrwt>0</asrwt>
<pdfrwt beam="1">  1       21 0.37770436E-01 0.21339045E+03</pdfrwt>
<pdfrwt beam="2">  1       21 0.28627474E-01 0.21339045E+03</pdfrwt>
<totfact> 0.78209593E+04</totfact>
</mgrwt>
</event>
<event>
 4    2  0.4039581E+000  0.2099530E+03  0.7546771E-02  0.1141603E+00
         21   -1    0    0  503  502  0.00000000000E+00  0.00000000000E+00  0.29552690159E+03  0.29552690159E+03  0.00000000000E+00 0. -1.
         21   -1    0    0  501  503 -0.00000000000E+00 -0.00000000000E+00 -0.47437700510E+03  0.47437700510E+03  0.00000000000E+00 0. -1.
          6    1    1    2  501    0  0.11889511758E+03  0.39017394697E+01 -0.40816207426E+03  0.45899515402E+03  0.17300000000E+03 0. -1.
         -6    1    1    2    0  502 -0.11889511758E+03 -0.39017394697E+01  0.22931197074E+03  0.31090875266E+03  0.17300000000E+03 0. -1.
<mgrwt>
<rscale>  2 0.20995302E+03</rscale>
<asrwt>0</asrwt>
<pdfrwt beam="1">  1       21 0.45465678E-01 0.20995302E+03</pdfrwt>
<pdfrwt beam="2">  1       21 0.72981077E-01 0.20995302E+03</pdfrwt>
<totfact> 0.77422549E+03</totfact>
</mgrwt>
</event>
<event>
 4    2  0.4039581E+000  0.1901966E+03  0.7546771E-02  0.1158284E+00
         21   -1    0    0  501  502  0.00000000000E+00  0.00000000000E+00  0.15464436373E+04  0.15464436373E+04  0.00000000000E+00 0. -1.
         21   -1    0    0  502  503 -0.00000000000E+00 -0.00000000000E+00 -0.39270254670E+02  0.39270254670E+02  0.00000000000E+00 0.  1.
          6    1    1    2  501    0 -0.74316752377E+02  0.26884193825E+02  0.12577386279E+04  0.12720382053E+04  0.17300000000E+03 0. -1.
         -6    1    1    2    0  503  0.74316752377E+02 -0.26884193825E+02  0.24943475475E+03  0.31367568672E+03  0.17300000000E+03 0.  1.
<mgrwt>
<rscale>  2 0.19019658E+03</rscale>
<asrwt>0</asrwt>
<pdfrwt beam="1">  1       21 0.23791436E+00 0.19019658E+03</pdfrwt>
<pdfrwt beam="2">  1       21 0.60415788E-02 0.19019658E+03</pdfrwt>
<totfact> 0.15309772E+04</totfact>
</mgrwt>
</event>
<event>
 4    2  0.4039581E+000  0.2134615E+03  0.7546771E-02  0.1138854E+00
         21   -1    0    0  503  502  0.00000000000E+00  0.00000000000E+00  0.15102706972E+03  0.15102706972E+03  0.00000000000E+00 0. -1.
         21   -1    0    0  501  503 -0.00000000000E+00 -0.00000000000E+00 -0.30339686691E+03  0.30339686691E+03  0.00000000000E+00 0. -1.
          6    1    1    2  501    0 -0.12488552680E+03  0.63585328318E+01 -0.93145279294E+02  0.23289883812E+03  0.17300000000E+03 0. -1.
         -6    1    1    2    0  502  0.12488552680E+03 -0.63585328318E+01 -0.59224517896E+02  0.22152509850E+03  0.17300000000E+03 0. -1.
<mgrwt>
<rscale>  2 0.21346153E+03</rscale>
<asrwt>0</asrwt>
<pdfrwt beam="1">  1       21 0.23234934E-01 0.21346153E+03</pdfrwt>
<pdfrwt beam="2">  1       21 0.46676440E-01 0.21346153E+03</pdfrwt>
<totfact> 0.75832029E+04</totfact>
</mgrwt>
</event>
<event>
 4    2  0.4039581E+000  0.2074586E+03  0.7546771E-02  0.1143594E+00
         21   -1    0    0  501  502  0.00000000000E+00  0.00000000000E+00  0.64786859755E+03  0.64786859755E+03  0.00000000000E+00 0.  1.
         21   -1    0    0  502  503 -0.00000000000E+00 -0.00000000000E+00 -0.12534411695E+03  0.12534411695E+03  0.00000000000E+00 0.  1.
          6    1    1    2  501    0 -0.62478931322E+02  0.95950302115E+02  0.52630751381E+03  0.56571960937E+03  0.17300000000E+03 0.  1.
         -6    1    1    2    0  503  0.62478931322E+02 -0.95950302115E+02 -0.37830332103E+01  0.20749310513E+03  0.17300000000E+03 0.  1.
<mgrwt>
<rscale>  2 0.20745862E+03</rscale>
<asrwt>0</asrwt>
<pdfrwt beam="1">  1       21 0.99672090E-01 0.20745862E+03</pdfrwt>
<pdfrwt beam="2">  1       21 0.19283711E-01 0.20745862E+03</pdfrwt>
<totfact> 0.20257064E+04</totfact>
</mgrwt>
</event>
<event>
 4    2  0.4039581E+000  0.2268151E+03  0.7546771E-02  0.1128902E+00
         21   -1    0    0  501  502  0.00000000000E+00  0.00000000000E+00  0.84059180894E+03  0.84059180894E+03  0.00000000000E+00 0.  1.
         21   -1    0    0  502  503 -0.00000000000E+00 -0.00000000000E+00 -0.22912363868E+03  0.22912363868E+03  0.00000000000E+00 0. -1.
          6    1    1    2  501    0  0.62724063713E+02 -0.13259637006E+03  0.76362062472E+03  0.79659372582E+03  0.17300000000E+03 0.  1.
         -6    1    1    2    0  503 -0.62724063713E+02  0.13259637006E+03 -0.15215245446E+03  0.27312172180E+03  0.17300000000E+03 0. -1.
<mgrwt>
<rscale>  2 0.22681514E+03</rscale>
<asrwt>0</asrwt>
<pdfrwt beam="1">  1       21 0.12932182E+00 0.22681514E+03</pdfrwt>
<pdfrwt beam="2">  1       21 0.35249791E-01 0.22681514E+03</pdfrwt>
<totfact> 0.33040663E+03</totfact>
</mgrwt>
</event>
<event>
 4    2  0.4039581E+000  0.2524686E+03  0.7546771E-02  0.1111755E+00
         21   -1    0    0  503  502  0.00000000000E+00  0.00000000000E+00  0.97351835063E+03  0.97351835063E+03  0.00000000000E+00 0. -1.
         21   -1    0    0  501  503 -0.00000000000E+00 -0.00000000000E+00 -0.65696399472E+02  0.65696399472E+02  0.00000000000E+00 0.  1.
          6    1    1    2  501    0 -0.16058149238E+03  0.89582297174E+02  0.42369704066E+03  0.49321352975E+03  0.17300000000E+03 0.  1.
         -6    1    1    2    0  502  0.16058149238E+03 -0.89582297174E+02  0.48412491050E+03  0.54600122036E+03  0.17300000000E+03 0. -1.
<mgrwt>
<rscale>  2 0.25246862E+03</rscale>
<asrwt>0</asrwt>
<pdfrwt beam="1">  1       21 0.14977204E+00 0.25246862E+03</pdfrwt>
<pdfrwt beam="2">  1       21 0.10107139E-01 0.25246862E+03</pdfrwt>
<totfact> 0.23064399E+04</totfact>
</mgrwt>
</event>
<event>
 4    2  0.4039581E+000  0.1859886E+03  0.7546771E-02  0.1162130E+00
         21   -1    0    0  503  502  0.00000000000E+00  0.00000000000E+00  0.16577872390E+03  0.16577872390E+03  0.00000000000E+00 0. -1.
         21   -1    0    0  501  503 -0.00000000000E+00 -0.00000000000E+00 -0.25244068813E+03  0.25244068813E+03  0.00000000000E+00 0. -1.
          6    1    1    2  501    0  0.98656630951E+01  0.67568042617E+02 -0.13041216935E+03  0.22715436515E+03  0.17300000000E+03 0. -1.
         -6    1    1    2    0  502 -0.98656630951E+01 -0.67568042617E+02  0.43750205126E+02  0.19106504688E+03  0.17300000000E+03 0. -1.
<mgrwt>
<rscale>  2 0.18598863E+03</rscale>
<asrwt>0</asrwt>
<pdfrwt beam="1">  1       21 0.25504419E-01 0.18598863E+03</pdfrwt>
<pdfrwt beam="2">  1       21 0.38837029E-01 0.18598863E+03</pdfrwt>
<totfact> 0.93439704E+04</totfact>
</mgrwt>
</event>
<event>
 4    2  0.4039581E+000  0.1903437E+03  0.7546771E-02  0.1158152E+00
         21   -1    0    0  503  502  0.00000000000E+00  0.00000000000E+00  0.17143818496E+03  0.17143818496E+03  0.00000000000E+00 0. -1.
         21   -1    0    0  501  503 -0.00000000000E+00 -0.00000000000E+00 -0.21134602469E+03  0.21134602469E+03  0.00000000000E+00 0. -1.
          6    1    1    2  501    0  0.79383319683E+02 -0.42383888628E-01 -0.21399025733E+02  0.19154276688E+03  0.17300000000E+03 0. -1.
         -6    1    1    2    0  502 -0.79383319683E+02  0.42383888628E-01 -0.18508814002E+02  0.19124144278E+03  0.17300000000E+03 0. -1.
<mgrwt>
<rscale>  2 0.19034367E+03</rscale>
<asrwt>0</asrwt>
<pdfrwt beam="1">  1       21 0.26375105E-01 0.19034367E+03</pdfrwt>
<pdfrwt beam="2">  1       21 0.32514773E-01 0.19034367E+03</pdfrwt>
<totfact> 0.12454010E+05</totfact>
</mgrwt>
</event>
<event>
 4    2  0.4039581E+000  0.2108530E+03  0.7546771E-02  0.1140892E+00
         21   -1    0    0  503  502  0.00000000000E+00  0.00000000000E+00  0.73083089378E+03  0.73083089378E+03  0.00000000000E+00 0. -1.
         21   -1    0    0  501  503 -0.00000000000E+00 -0.00000000000E+00 -0.10364092736E+03  0.10364092736E+03  0.00000000000E+00 0.  1.
          6    1    1    2  501    0 -0.11759810564E+03  0.26469940229E+02  0.45446218657E+02  0.21569499525E+03  0.17300000000E+03 0.  1.
         -6    1    1    2    0  502  0.11759810564E+03 -0.26469940229E+02  0.58174374776E+03  0.61877682588E+03  0.17300000000E+03 0. -1.
<mgrwt>
<rscale>  2 0.21085296E+03</rscale>
<asrwt>0</asrwt>
<pdfrwt beam="1">  1       21 0.11243552E+00 0.21085296E+03</pdfrwt>
<pdfrwt beam="2">  1       21 0.15944758E-01 0.21085296E+03</pdfrwt>
<totfact> 0.21490212E+04</totfact>
</mgrwt>
</event>
<event>
 4    2  0.4039581E+000  0.2557351E+03  0.7546771E-02  0.1109733E+00
         21   -1    0    0  501  502  0.00000000000E+00  0.00000000000E+00  0.10242598117E+04  0.10242598117E+04  0.00000000000E+00 0. -1.
         21   -1    0    0  502  503 -0.00000000000E+00 -0.00000000000E+00 -0.75903933334E+02  0.75903933334E+02  0.00000000000E+00 0.  1.
          6    1    1    2  501    0  0.16824886985E+03 -0.84638884290E+02  0.69337481670E+03  0.73903251577E+03  0.17300000000E+03 0.  1.
         -6    1    1    2    0  503 -0.16824886985E+03  0.84638884290E+02  0.25498106168E+03  0.36113122927E+03  0.17300000000E+03 0.  1.
<mgrwt>
<rscale>  2 0.25573506E+03</rscale>
<asrwt>0</asrwt>
<pdfrwt beam="1">  1       21 0.15757842E+00 0.25573506E+03</pdfrwt>
<pdfrwt beam="2">  1       21 0.11677529E-01 0.25573506E+03</pdfrwt>
<totfact> 0.15517970E+04</totfact>
</mgrwt>
</event>
<event>
 4    2  0.4039581E+000  0.3041259E+03  0.7546771E-02  0.1083196E+00
         21   -1    0    0  503  502  0.00000000000E+00  0.00000000000E+00  0.12407279998E+03  0.12407279998E+03  0.00000000000E+00 0.  1.
         21   -1    0    0  501  503 -0.00000000000E+00 -0.00000000000E+00 -0.78765133524E+03  0.78765133524E+03  0.00000000000E+00 0. -1.
          6    1    1    2  501    0  0.24520241726E+03 -0.49389901590E+02 -0.43728260951E+03  0.53264309663E+03  0.17300000000E+03 0. -1.
         -6    1    1    2    0  502 -0.24520241726E+03  0.49389901590E+02 -0.22629592575E+03  0.37908103859E+03  0.17300000000E+03 0.  1.
<mgrwt>
<rscale>  2 0.30412594E+03</rscale>
<asrwt>0</asrwt>
<pdfrwt beam="1">  1       21 0.19088124E-01 0.30412594E+03</pdfrwt>
<pdfrwt beam="2">  1       21 0.12117713E+00 0.30412594E+03</pdfrwt>
<totfact> 0.12184671E+04</totfact>
</mgrwt>
</event>
<event>
 4    2  0.4039581E+000  0.1740718E+03  0.7546771E-02  0.1173667E+00
         21   -1    0    0  503  502  0.00000000000E+00  0.00000000000E+00  0.25809764586E+03  0.25809764586E+03  0.00000000000E+00 0.  1.
         21   -1    0    0  501  503 -0.00000000000E+00 -0.00000000000E+00 -0.16341088428E+03  0.16341088428E+03  0.00000000000E+00 0.  1.
          6    1    1    2  501    0  0.50164109995E+01 -0.18623704558E+02 -0.64487024243E+02  0.18563292555E+03  0.17300000000E+03 0.  1.
         -6    1    1    2    0  502 -0.50164109995E+01  0.18623704558E+02  0.15917378583E+03  0.23587560460E+03  0.17300000000E+03 0.  1.
<mgrwt>
<rscale>  2 0.17407184E+03</rscale>
<asrwt>0</asrwt>
<pdfrwt beam="1">  1       21 0.39707330E-01 0.17407184E+03</pdfrwt>
<pdfrwt beam="2">  1       21 0.25140136E-01 0.17407184E+03</pdfrwt>
<totfact> 0.92285950E+04</totfact>
</mgrwt>
</event>
<event>
 4    2  0.4039581E+000  0.1832563E+03  0.7546771E-02  0.1164688E+00
         21   -1    0    0  503  502  0.00000000000E+00  0.00000000000E+00  0.11541239309E+03  0.11541239309E+03  0.00000000000E+00 0. -1.
         21   -1    0    0  501  503 -0.00000000000E+00 -0.00000000000E+00 -0.29190034558E+03  0.29190034558E+03  0.00000000000E+00 0. -1.
          6    1    1    2  501    0 -0.25595210190E+02 -0.54760810018E+02 -0.76817225322E+02  0.19870517659E+03  0.17300000000E+03 0. -1.
         -6    1    1    2    0  502  0.25595210190E+02  0.54760810018E+02 -0.99670727171E+02  0.20860756207E+03  0.17300000000E+03 0. -1.
<mgrwt>
<rscale>  2 0.18325627E+03</rscale>
<asrwt>0</asrwt>
<pdfrwt beam="1">  1       21 0.17755753E-01 0.18325627E+03</pdfrwt>
<pdfrwt beam="2">  1       21 0.44907745E-01 0.18325627E+03</pdfrwt>
<totfact> 0.13744919E+05</totfact>
</mgrwt>
</event>
<event>
 4    2  0.4039581E+000  0.2986677E+03  0.7546771E-02  0.1085909E+00
         21   -1    0    0  503  502  0.00000000000E+00  0.00000000000E+00  0.39762393786E+03  0.39762393786E+03  0.00000000000E+00 0. -1.
         21   -1    0    0  501  503 -0.00000000000E+00 -0.00000000000E+00 -0.39630052903E+03  0.39630052903E+03  0.00000000000E+00 0.  1.
          6    1    1    2  501    0  0.14044859537E+03 -0.19886577344E+03 -0.26082703939E+03  0.39652635255E+03  0.17300000000E+03 0.  1.
         -6    1    1    2    0  502 -0.14044859537E+03  0.19886577344E+03  0.26215044822E+03  0.39739811435E+03  0.17300000000E+03 0. -1.
<mgrwt>
<rscale>  2 0.29866771E+03</rscale>
<asrwt>0</asrwt>
<pdfrwt beam="1">  1       21 0.61172913E-01 0.29866771E+03</pdfrwt>
<pdfrwt beam="2">  1       21 0.60969312E-01 0.29866771E+03</pdfrwt>
<totfact> 0.58274650E+03</totfact>
</mgrwt>
</event>
<event>
 4    2  0.4039581E+000  0.2227464E+03  0.7546771E-02  0.1131852E+00
         21   -1    0    0  501  502  0.00000000000E+00  0.00000000000E+00  0.10182584160E+03  0.10182584160E+03  0.00000000000E+00 0. -1.
         21   -1    0    0  502  503 -0.00000000000E+00 -0.00000000000E+00 -0.55047003201E+03  0.55047003201E+03  0.00000000000E+00 0. -1.
          6    1    1    2  501    0 -0.42846781371E+02 -0.13360811505E+03 -0.11380482332E+03  0.25013498934E+03  0.17300000000E+03 0. -1.
         -6    1    1    2    0  503  0.42846781371E+02  0.13360811505E+03 -0.33483936709E+03  0.40216088427E+03  0.17300000000E+03 0. -1.
<mgrwt>
<rscale>  2 0.22274644E+03</rscale>
<asrwt>0</asrwt>
<pdfrwt beam="1">  1       21 0.15665514E-01 0.22274644E+03</pdfrwt>
<pdfrwt beam="2">  1       21 0.84687699E-01 0.22274644E+03</pdfrwt>
<totfact> 0.43137520E+04</totfact>
</mgrwt>
</event>
<event>
 4    2  0.4039581E+000  0.2117261E+03  0.7546771E-02  0.1140206E+00
         21   -1    0    0  501  502  0.00000000000E+00  0.00000000000E+00  0.12838775290E+03  0.12838775290E+03  0.00000000000E+00 0. -1.
         21   -1    0    0  502  503 -0.00000000000E+00 -0.00000000000E+00 -0.65947831230E+03  0.65947831230E+03  0.00000000000E+00 0.  1.
          6    1    1    2  501    0  0.21965199984E+02  0.12006859898E+03  0.46796780474E+01  0.21177780303E+03  0.17300000000E+03 0. -1.
         -6    1    1    2    0  503 -0.21965199984E+02 -0.12006859898E+03 -0.53577023745E+03  0.57608826217E+03  0.17300000000E+03 0.  1.
<mgrwt>
<rscale>  2 0.21172609E+03</rscale>
<asrwt>0</asrwt>
<pdfrwt beam="1">  1       21 0.19751962E-01 0.21172609E+03</pdfrwt>
<pdfrwt beam="2">  1       21 0.10145820E+00 0.21172609E+03</pdfrwt>
<totfact> 0.18518590E+04</totfact>
</mgrwt>
</event>
<event>
 4    2  0.4039581E+000  0.2996861E+03  0.7546771E-02  0.1085398E+00
         21   -1    0    0  501  502  0.00000000000E+00  0.00000000000E+00  0.79242327822E+03  0.79242327822E+03  0.00000000000E+00 0. -1.
         21   -1    0    0  502  503 -0.00000000000E+00 -0.00000000000E+00 -0.12549920794E+03  0.12549920794E+03  0.00000000000E+00 0.  1.
          6    1    1    2  501    0  0.20434588762E+03  0.13463104516E+03  0.47633229557E+03  0.56276479626E+03  0.17300000000E+03 0. -1.
         -6    1    1    2    0  503 -0.20434588762E+03 -0.13463104516E+03  0.19059177471E+03  0.35515768990E+03  0.17300000000E+03 0.  1.
<mgrwt>
<rscale>  2 0.29968610E+03</rscale>
<asrwt>0</asrwt>
<pdfrwt beam="1">  1       21 0.12191127E+00 0.29968610E+03</pdfrwt>
<pdfrwt beam="2">  1       21 0.19307571E-01 0.29968610E+03</pdfrwt>
<totfact> 0.11768969E+04</totfact>
</mgrwt>
</event>
<event>
 4    2  0.4039581E+000  0.1890763E+03  0.7546771E-02  0.1159297E+00
         21   -1    0    0  503  502  0.00000000000E+00  0.00000000000E+00  0.17341280329E+03  0.17341280329E+03  0.00000000000E+00 0.  1.
         21   -1    0    0  501  503 -0.00000000000E+00 -0.00000000000E+00 -0.21827403307E+03  0.21827403307E+03  0.00000000000E+00 0.  1.
          6    1    1    2  501    0  0.21870854632E+02  0.73092512310E+02 -0.68578184541E+02  0.20112885679E+03  0.17300000000E+03 0.  1.
         -6    1    1    2    0  502 -0.21870854632E+02 -0.73092512310E+02  0.23716954761E+02  0.19055797958E+03  0.17300000000E+03 0.  1.
<mgrwt>
<rscale>  2 0.18907631E+03</rscale>
<asrwt>0</asrwt>
<pdfrwt beam="1">  1       21 0.26678893E-01 0.18907631E+03</pdfrwt>
<pdfrwt beam="2">  1       21 0.33580621E-01 0.18907631E+03</pdfrwt>
<totfact> 0.11437866E+05</totfact>
</mgrwt>
</event>
<event>
 4    2  0.4039581E+000  0.3562360E+03  0.7546771E-02  0.1060084E+00
         21   -1    0    0  503  502  0.00000000000E+00  0.00000000000E+00  0.86347390005E+03  0.86347390005E+03  0.00000000000E+00 0.  1.
         21   -1    0    0  501  503 -0.00000000000E+00 -0.00000000000E+00 -0.18705250450E+03  0.18705250450E+03  0.00000000000E+00 0. -1.
          6    1    1    2  501    0 -0.30810656931E+03 -0.45226161640E+02  0.95059171002E+02  0.36870084044E+03  0.17300000000E+03 0. -1.
         -6    1    1    2    0  502  0.30810656931E+03  0.45226161640E+02  0.58136222454E+03  0.68182556411E+03  0.17300000000E+03 0.  1.
<mgrwt>
<rscale>  2 0.35623597E+03</rscale>
<asrwt>0</asrwt>
<pdfrwt beam="1">  1       21 0.13284214E+00 0.35623597E+03</pdfrwt>
<pdfrwt beam="2">  1       21 0.28777309E-01 0.35623597E+03</pdfrwt>
<totfact> 0.42754341E+03</totfact>
</mgrwt>
</event>
<event>
 4    2  0.4039581E+000  0.2675111E+03  0.7546771E-02  0.1102713E+00
         21   -1    0    0  503  502  0.00000000000E+00  0.00000000000E+00  0.65027252638E+03  0.65027252638E+03  0.00000000000E+00 0.  1.
         21   -1    0    0  501  503 -0.00000000000E+00 -0.00000000000E+00 -0.11442339883E+03  0.11442339883E+03  0.00000000000E+00 0.  1.
          6    1    1    2  501    0 -0.89254506073E+02 -0.18348526679E+03  0.19317091479E+03  0.32996547139E+03  0.17300000000E+03 0.  1.
         -6    1    1    2    0  502  0.89254506073E+02  0.18348526679E+03  0.34267821276E+03  0.43473045383E+03  0.17300000000E+03 0.  1.
<mgrwt>
<rscale>  2 0.26751114E+03</rscale>
<asrwt>0</asrwt>
<pdfrwt beam="1">  1       21 0.10004193E+00 0.26751114E+03</pdfrwt>
<pdfrwt beam="2">  1       21 0.17603600E-01 0.26751114E+03</pdfrwt>
<totfact> 0.23061465E+04</totfact>
</mgrwt>
</event>
<event>
 4    2  0.4039581E+000  0.1882140E+03  0.7546771E-02  0.1160082E+00
         21   -1    0    0  503  502  0.00000000000E+00  0.00000000000E+00  0.84448674681E+02  0.84448674681E+02  0.00000000000E+00 0. -1.
         21   -1    0    0  501  503 -0.00000000000E+00 -0.00000000000E+00 -0.49491013521E+03  0.49491013521E+03  0.00000000000E+00 0. -1.
          6    1    1    2  501    0 -0.73584088570E+02  0.89931470466E+01 -0.31832174249E+03  0.36980160428E+03  0.17300000000E+03 0. -1.
         -6    1    1    2    0  502  0.73584088570E+02 -0.89931470466E+01 -0.92139718040E+02  0.20955720561E+03  0.17300000000E+03 0. -1.
<mgrwt>
<rscale>  2 0.18821396E+03</rscale>
<asrwt>0</asrwt>
<pdfrwt beam="1">  1       21 0.12992104E-01 0.18821396E+03</pdfrwt>
<pdfrwt beam="2">  1       21 0.76140021E-01 0.18821396E+03</pdfrwt>
<totfact> 0.78369372E+04</totfact>
</mgrwt>
</event>
<event>
 4    2  0.4039581E+000  0.1844980E+03  0.7546771E-02  0.1163520E+00
         21   -1    0    0  503  502  0.00000000000E+00  0.00000000000E+00  0.24314758676E+03  0.24314758676E+03  0.00000000000E+00 0. -1.
         21   -1    0    0  501  503 -0.00000000000E+00 -0.00000000000E+00 -0.15515130680E+03  0.15515130680E+03  0.00000000000E+00 0. -1.
          6    1    1    2  501    0 -0.24260622766E+02 -0.59345813968E+02 -0.18245462162E+02  0.18539795129E+03  0.17300000000E+03 0. -1.
         -6    1    1    2    0  502  0.24260622766E+02  0.59345813968E+02  0.10624174212E+03  0.21290094227E+03  0.17300000000E+03 0. -1.
<mgrwt>
<rscale>  2 0.18449798E+03</rscale>
<asrwt>0</asrwt>
<pdfrwt beam="1">  1       21 0.37407321E-01 0.18449798E+03</pdfrwt>
<pdfrwt beam="2">  1       21 0.23869432E-01 0.18449798E+03</pdfrwt>
<totfact> 0.11434653E+05</totfact>
</mgrwt>
</event>
<event>
 4    2  0.4039581E+000  0.3160319E+03  0.7546771E-02  0.1077490E+00
         21   -1    0    0  501  502  0.00000000000E+00  0.00000000000E+00  0.66976558439E+02  0.66976558439E+02  0.00000000000E+00 0.  1.
         21   -1    0    0  502  503 -0.00000000000E+00 -0.00000000000E+00 -0.15991225549E+04  0.15991225549E+04  0.00000000000E+00 0.  1.
          6    1    1    2  501    0 -0.25324235205E+03  0.76259414285E+02 -0.98247623115E+03  0.10320541323E+04  0.17300000000E+03 0.  1.
         -6    1    1    2    0  503  0.25324235205E+03 -0.76259414285E+02 -0.54966976535E+03  0.63404498112E+03  0.17300000000E+03 0.  1.
<mgrwt>
<rscale>  2 0.31603194E+03</rscale>
<asrwt>0</asrwt>
<pdfrwt beam="1">  1       21 0.10304086E-01 0.31603194E+03</pdfrwt>
<pdfrwt beam="2">  1       21 0.24601886E+00 0.31603194E+03</pdfrwt>
<totfact> 0.48936372E+03</totfact>
</mgrwt>
</event>
<event>
 4    2  0.4039581E+000  0.2008190E+03  0.7546771E-02  0.1149050E+00
         21   -1    0    0  501  502  0.00000000000E+00  0.00000000000E+00  0.71249498519E+03  0.71249498519E+03  0.00000000000E+00 0.  1.
         21   -1    0    0  502  503 -0.00000000000E+00 -0.00000000000E+00 -0.23154260934E+03  0.23154260934E+03  0.00000000000E+00 0.  1.
          6    1    1    2  501    0 -0.53961601910E+01  0.10183404101E+03  0.65076508138E+03  0.68104587334E+03  0.17300000000E+03 0.  1.
         -6    1    1    2    0  503  0.53961601910E+01 -0.10183404101E+03 -0.16981270553E+03  0.26299172119E+03  0.17300000000E+03 0.  1.
<mgrwt>
<rscale>  2 0.20081905E+03</rscale>
<asrwt>0</asrwt>
<pdfrwt beam="1">  1       21 0.10961461E+00 0.20081905E+03</pdfrwt>
<pdfrwt beam="2">  1       21 0.35621940E-01 0.20081905E+03</pdfrwt>
<totfact> 0.49725131E+03</totfact>
</mgrwt>
</event>
<event>
 4    2  0.4039581E+000  0.2220014E+03  0.7546771E-02  0.1132400E+00
         21   -1    0    0  503  502  0.00000000000E+00  0.00000000000E+00  0.33084533588E+03  0.33084533588E+03  0.00000000000E+00 0.  1.
         21   -1    0    0  501  503 -0.00000000000E+00 -0.00000000000E+00 -0.41724999250E+03  0.41724999250E+03  0.00000000000E+00 0.  1.
          6    1    1    2  501    0 -0.77013279356E+02 -0.11586446934E+03 -0.34313679051E+03  0.40868995272E+03  0.17300000000E+03 0.  1.
         -6    1    1    2    0  502  0.77013279356E+02  0.11586446934E+03  0.25673213390E+03  0.33940537566E+03  0.17300000000E+03 0.  1.
<mgrwt>
<rscale>  2 0.22200140E+03</rscale>
<asrwt>0</asrwt>
<pdfrwt beam="1">  1       21 0.50899282E-01 0.22200140E+03</pdfrwt>
<pdfrwt beam="2">  1       21 0.64192307E-01 0.22200140E+03</pdfrwt>
<totfact> 0.80570028E+03</totfact>
</mgrwt>
</event>
<event>
 4    2  0.4039581E+000  0.1913538E+03  0.7546771E-02  0.1157246E+00
         21   -1    0    0  503  502  0.00000000000E+00  0.00000000000E+00  0.66910364948E+03  0.66910364948E+03  0.00000000000E+00 0.  1.
         21   -1    0    0  501  503 -0.00000000000E+00 -0.00000000000E+00 -0.56871127190E+02  0.56871127190E+02  0.00000000000E+00 0.  1.
          6    1    1    2  501    0  0.80539053602E+02  0.14167694849E+02  0.37664060248E+03  0.42246231331E+03  0.17300000000E+03 0.  1.
         -6    1    1    2    0  502 -0.80539053602E+02 -0.14167694849E+02  0.23559191980E+03  0.30351246335E+03  0.17300000000E+03 0.  1.
<mgrwt>
<rscale>  2 0.19135376E+03</rscale>
<asrwt>0</asrwt>
<pdfrwt beam="1">  1       21 0.10293902E+00 0.19135376E+03</pdfrwt>
<pdfrwt beam="2">  1       21 0.87494047E-02 0.19135376E+03</pdfrwt>
<totfact> 0.78685201E+04</totfact>
</mgrwt>
</event>
<event>
 4    2  0.4039581E+000  0.1861918E+03  0.7546771E-02  0.1161942E+00
         21   -1    0    0  501  502  0.00000000000E+00  0.00000000000E+00  0.77886232758E+02  0.77886232758E+02  0.00000000000E+00 0. -1.
         21   -1    0    0  502  503 -0.00000000000E+00 -0.00000000000E+00 -0.50484847999E+03  0.50484847999E+03  0.00000000000E+00 0. -1.
          6    1    1    2  501    0 -0.53158079061E+02  0.43733166905E+02 -0.11324735892E+03  0.21792736304E+03  0.17300000000E+03 0. -1.
         -6    1    1    2    0  503  0.53158079061E+02 -0.43733166905E+02 -0.31371488831E+03  0.36480734971E+03  0.17300000000E+03 0. -1.
<mgrwt>
<rscale>  2 0.18619176E+03</rscale>
<asrwt>0</asrwt>
<pdfrwt beam="1">  1       21 0.11982497E-01 0.18619176E+03</pdfrwt>
<pdfrwt beam="2">  1       21 0.77668997E-01 0.18619176E+03</pdfrwt>
<totfact> 0.86725059E+04</totfact>
</mgrwt>
</event>
<event>
 4    2  0.4039581E+000  0.2189881E+03  0.7546771E-02  0.1134640E+00
         21   -1    0    0  503  502  0.00000000000E+00  0.00000000000E+00  0.98815525726E+03  0.98815525726E+03  0.00000000000E+00 0.  1.
         21   -1    0    0  501  503 -0.00000000000E+00 -0.00000000000E+00 -0.73622590998E+02  0.73622590998E+02  0.00000000000E+00 0. -1.
          6    1    1    2  501    0 -0.12884430018E+03 -0.37761348641E+02  0.14733489716E+03  0.26393814628E+03  0.17300000000E+03 0. -1.
         -6    1    1    2    0  502  0.12884430018E+03  0.37761348641E+02  0.76719776910E+03  0.79783970198E+03  0.17300000000E+03 0.  1.
<mgrwt>
<rscale>  2 0.21898807E+03</rscale>
<asrwt>0</asrwt>
<pdfrwt beam="1">  1       21 0.15202388E+00 0.21898807E+03</pdfrwt>
<pdfrwt beam="2">  1       21 0.11326553E-01 0.21898807E+03</pdfrwt>
<totfact> 0.18443752E+04</totfact>
</mgrwt>
</event>
<event>
 4    2  0.4039581E+000  0.2260027E+03  0.7546771E-02  0.1129485E+00
         21   -1    0    0  503  502  0.00000000000E+00  0.00000000000E+00  0.39815874746E+03  0.39815874746E+03  0.00000000000E+00 0. -1.
         21   -1    0    0  501  503 -0.00000000000E+00 -0.00000000000E+00 -0.12828768354E+03  0.12828768354E+03  0.00000000000E+00 0.  1.
          6    1    1    2  501    0 -0.74179001628E+02 -0.12508270108E+03  0.13643475054E+03  0.26399175659E+03  0.17300000000E+03 0. -1.
         -6    1    1    2    0  502  0.74179001628E+02  0.12508270108E+03  0.13343631338E+03  0.26245467441E+03  0.17300000000E+03 0.  1.
<mgrwt>
<rscale>  2 0.22600267E+03</rscale>
<asrwt>0</asrwt>
<pdfrwt beam="1">  1       21 0.61255191E-01 0.22600267E+03</pdfrwt>
<pdfrwt beam="2">  1       21 0.19736567E-01 0.22600267E+03</pdfrwt>
<totfact> 0.57757989E+04</totfact>
</mgrwt>
</event>
<event>
 4    2  0.4039581E+000  0.2396547E+03  0.7546771E-02  0.1120023E+00
         21   -1    0    0  503  502  0.00000000000E+00  0.00000000000E+00  0.43730649834E+02  0.43730649834E+02  0.00000000000E+00 0.  1.
         21   -1    0    0  501  503 -0.00000000000E+00 -0.00000000000E+00 -0.13227483047E+04  0.13227483047E+04  0.00000000000E+00 0. -1.
          6    1    1    2  501    0 -0.16321827513E+03 -0.29413604549E+02 -0.58196745579E+03  0.62938103329E+03  0.17300000000E+03 0. -1.
         -6    1    1    2    0  502  0.16321827513E+03  0.29413604549E+02 -0.69705019909E+03  0.73709792126E+03  0.17300000000E+03 0.  1.
<mgrwt>
<rscale>  2 0.23965468E+03</rscale>
<asrwt>0</asrwt>
<pdfrwt beam="1">  1       21 0.67277925E-02 0.23965468E+03</pdfrwt>
<pdfrwt beam="2">  1       21 0.20349973E+00 0.23965468E+03</pdfrwt>
<totfact> 0.19979798E+04</totfact>
</mgrwt>
</event>
<event>
 4    2  0.4039581E+000  0.2076658E+03  0.7546771E-02  0.1143428E+00
         21   -1    0    0  503  502  0.00000000000E+00  0.00000000000E+00  0.72597828809E+03  0.72597828809E+03  0.00000000000E+00 0.  1.
         21   -1    0    0  501  503 -0.00000000000E+00 -0.00000000000E+00 -0.93496308715E+02  0.93496308715E+02  0.00000000000E+00 0.  1.
          6    1    1    2  501    0  0.89359088833E+00 -0.11487076187E+03  0.68815420484E+02  0.21877077623E+03  0.17300000000E+03 0.  1.
         -6    1    1    2    0  502 -0.89359088833E+00  0.11487076187E+03  0.56366655889E+03  0.60070382057E+03  0.17300000000E+03 0.  1.
<mgrwt>
<rscale>  2 0.20766581E+03</rscale>
<asrwt>0</asrwt>
<pdfrwt beam="1">  1       21 0.11168896E+00 0.20766581E+03</pdfrwt>
<pdfrwt beam="2">  1       21 0.14384048E-01 0.20766581E+03</pdfrwt>
<totfact> 0.26410554E+04</totfact>
</mgrwt>
</event>
<event>
 4    2  0.4039581E+000  0.1852490E+03  0.7546771E-02  0.1162818E+00
         21   -1    0    0  501  502  0.00000000000E+00  0.00000000000E+00  0.19183961895E+03  0.19183961895E+03  0.00000000000E+00 0. -1.
         21   -1    0    0  502  503 -0.00000000000E+00 -0.00000000000E+00 -0.25829328900E+03  0.25829328900E+03  0.00000000000E+00 0. -1.
          6    1    1    2  501    0  0.57715429037E+02 -0.32513307455E+02  0.91565456128E+02  0.20664321587E+03  0.17300000000E+03 0. -1.
         -6    1    1    2    0  503 -0.57715429037E+02  0.32513307455E+02 -0.15801912617E+03  0.24348969208E+03  0.17300000000E+03 0. -1.
<mgrwt>
<rscale>  2 0.18524898E+03</rscale>
<asrwt>0</asrwt>
<pdfrwt beam="1">  1       21 0.29513787E-01 0.18524898E+03</pdfrwt>
<pdfrwt beam="2">  1       21 0.39737429E-01 0.18524898E+03</pdfrwt>
<totfact> 0.67362779E+04</totfact>
</mgrwt>
</event>
<event>
 4    2  0.4039581E+000  0.2279344E+03  0.7546771E-02  0.1128102E+00
         21   -1    0    0  503  502  0.00000000000E+00  0.00000000000E+00  0.72262030974E+02  0.72262030974E+02  0.00000000000E+00 0. -1.
         21   -1    0    0  501  503 -0.00000000000E+00 -0.00000000000E+00 -0.87730284276E+03  0.87730284276E+03  0.00000000000E+00 0.  1.
          6    1    1    2  501    0 -0.66852365528E+02 -0.13249843484E+03 -0.60422156210E+03  0.64578461589E+03  0.17300000000E+03 0.  1.
         -6    1    1    2    0  502  0.66852365528E+02  0.13249843484E+03 -0.20081924969E+03  0.30378025785E+03  0.17300000000E+03 0. -1.
<mgrwt>
<rscale>  2 0.22793436E+03</rscale>
<asrwt>0</asrwt>
<pdfrwt beam="1">  1       21 0.11117236E-01 0.22793436E+03</pdfrwt>
<pdfrwt beam="2">  1       21 0.13496966E+00 0.22793436E+03</pdfrwt>
<totfact> 0.25884571E+04</totfact>
</mgrwt>
</event>
<event>
 4    2  0.4039581E+000  0.2267079E+03  0.7546771E-02  0.1128979E+00
         21   -1    0    0  503  502  0.00000000000E+00  0.00000000000E+00  0.16824632947E+04  0.16824632947E+04  0.00000000000E+00 0. -1.
         21   -1    0    0  501  503 -0.00000000000E+00 -0.00000000000E+00 -0.38583768358E+02  0.38583768358E+02  0.00000000000E+00 0.  1.
          6    1    1    2  501    0 -0.77803019025E+02  0.12415384084E+03  0.42923647113E+03  0.48542809366E+03  0.17300000000E+03 0.  1.
         -6    1    1    2    0  502  0.77803019025E+02 -0.12415384084E+03  0.12146430552E+04  0.12356189694E+04  0.17300000000E+03 0. -1.
<mgrwt>
<rscale>  2 0.22670793E+03</rscale>
<asrwt>0</asrwt>
<pdfrwt beam="1">  1       21 0.25884045E+00 0.22670793E+03</pdfrwt>
<pdfrwt beam="2">  1       21 0.59359657E-02 0.22670793E+03</pdfrwt>
<totfact> 0.11493718E+04</totfact>
</mgrwt>
</event>
<event>
 4    2  0.4039581E+000  0.2158589E+03  0.7546771E-02  0.1137009E+00
         21   -1    0    0  503  502  0.00000000000E+00  0.00000000000E+00  0.31401679823E+03  0.31401679823E+03  0.00000000000E+00 0.  1.
         21   -1    0    0  501  503 -0.00000000000E+00 -0.00000000000E+00 -0.27127853361E+03  0.27127853361E+03  0.00000000000E+00 0. -1.
          6    1    1    2  501    0 -0.12903860325E+03 -0.38885220533E+01 -0.17560244332E+03  0.27826480164E+03  0.17300000000E+03 0. -1.
         -6    1    1    2    0  502  0.12903860325E+03  0.38885220533E+01  0.21834070794E+03  0.30703053020E+03  0.17300000000E+03 0.  1.
<mgrwt>
<rscale>  2 0.21585894E+03</rscale>
<asrwt>0</asrwt>
<pdfrwt beam="1">  1       21 0.48310277E-01 0.21585894E+03</pdfrwt>
<pdfrwt beam="2">  1       21 0.41735159E-01 0.21585894E+03</pdfrwt>
<totfact> 0.22321297E+04</totfact>
</mgrwt>
</event>
<event>
 4    2  0.4039581E+000  0.1825573E+03  0.7546771E-02  0.1165351E+00
         21   -1    0    0  503  502  0.00000000000E+00  0.00000000000E+00  0.10652567312E+03  0.10652567312E+03  0.00000000000E+00 0.  1.
         21   -1    0    0  501  503 -0.00000000000E+00 -0.00000000000E+00 -0.36113349191E+03  0.36113349191E+03  0.00000000000E+00 0. -1.
          6    1    1    2  501    0 -0.22340055033E+02  0.53843227542E+02 -0.21279856491E+03  0.28037546333E+03  0.17300000000E+03 0. -1.
         -6    1    1    2    0  502  0.22340055033E+02 -0.53843227542E+02 -0.41809253879E+02  0.18728370170E+03  0.17300000000E+03 0.  1.
<mgrwt>
<rscale>  2 0.18255731E+03</rscale>
<asrwt>0</asrwt>
<pdfrwt beam="1">  1       21 0.16388565E-01 0.18255731E+03</pdfrwt>
<pdfrwt beam="2">  1       21 0.55558998E-01 0.18255731E+03</pdfrwt>
<totfact> 0.10226525E+05</totfact>
</mgrwt>
</event>
<event>
 4    2  0.4039581E+000  0.2182156E+03  0.7546771E-02  0.1135220E+00
         21   -1    0    0  501  502  0.00000000000E+00  0.00000000000E+00  0.11340877470E+04  0.11340877470E+04  0.00000000000E+00 0.  1.
         21   -1    0    0  502  503 -0.00000000000E+00 -0.00000000000E+00 -0.90949713803E+02  0.90949713803E+02  0.00000000000E+00 0. -1.
          6    1    1    2  501    0 -0.11820604413E+03 -0.60962089923E+02  0.97098357011E+03  0.99520205923E+03  0.17300000000E+03 0.  1.
         -6    1    1    2    0  503  0.11820604413E+03  0.60962089923E+02  0.72154463100E+02  0.22983540158E+03  0.17300000000E+03 0. -1.
<mgrwt>
<rscale>  2 0.21821559E+03</rscale>
<asrwt>0</asrwt>
<pdfrwt beam="1">  1       21 0.17447503E+00 0.21821559E+03</pdfrwt>
<pdfrwt beam="2">  1       21 0.13992264E-01 0.21821559E+03</pdfrwt>
<totfact> 0.86629436E+03</totfact>
</mgrwt>
</event>
<event>
 4    2  0.4039581E+000  0.1897321E+03  0.7546771E-02  0.1158703E+00
         21   -1    0    0  503  502  0.00000000000E+00  0.00000000000E+00  0.62523413600E+03  0.62523413600E+03  0.00000000000E+00 0.  1.
         21   -1    0    0  501  503 -0.00000000000E+00 -0.00000000000E+00 -0.11484269908E+03  0.11484269908E+03  0.00000000000E+00 0.  1.
          6    1    1    2  501    0 -0.24499063631E+02 -0.73953207833E+02  0.51650052902E+03  0.55024637895E+03  0.17300000000E+03 0.  1.
         -6    1    1    2    0  502  0.24499063631E+02  0.73953207833E+02 -0.61090920997E+01  0.18983045613E+03  0.17300000000E+03 0.  1.
<mgrwt>
<rscale>  2 0.18973213E+03</rscale>
<asrwt>0</asrwt>
<pdfrwt beam="1">  1       21 0.96189865E-01 0.18973213E+03</pdfrwt>
<pdfrwt beam="2">  1       21 0.17668108E-01 0.18973213E+03</pdfrwt>
<totfact> 0.26187956E+04</totfact>
</mgrwt>
</event>
<event>
 4    2  0.4039581E+000  0.3086813E+03  0.7546771E-02  0.1080980E+00
         21   -1    0    0  503  502  0.00000000000E+00  0.00000000000E+00  0.32897302261E+03  0.32897302261E+03  0.00000000000E+00 0. -1.
         21   -1    0    0  501  503 -0.00000000000E+00 -0.00000000000E+00 -0.29634585969E+03  0.29634585969E+03  0.00000000000E+00 0. -1.
          6    1    1    2  501    0  0.23815349366E+03  0.92941101563E+02 -0.30714914403E+02  0.31020564287E+03  0.17300000000E+03 0. -1.
         -6    1    1    2    0  502 -0.23815349366E+03 -0.92941101563E+02  0.63342077327E+02  0.31511323943E+03  0.17300000000E+03 0. -1.
<mgrwt>
<rscale>  2 0.30868128E+03</rscale>
<asrwt>0</asrwt>
<pdfrwt beam="1">  1       21 0.50611234E-01 0.30868128E+03</pdfrwt>
<pdfrwt beam="2">  1       21 0.45591671E-01 0.30868128E+03</pdfrwt>
<totfact> 0.16161622E+04</totfact>
</mgrwt>
</event>
<event>
 4    2  0.4039581E+000  0.2025856E+03  0.7546771E-02  0.1147576E+00
         21   -1    0    0  501  502  0.00000000000E+00  0.00000000000E+00  0.21430916256E+03  0.21430916256E+03  0.00000000000E+00 0.  1.
         21   -1    0    0  502  503 -0.00000000000E+00 -0.00000000000E+00 -0.19482088038E+03  0.19482088038E+03  0.00000000000E+00 0.  1.
          6    1    1    2  501    0 -0.87816363889E+02 -0.58311477519E+02  0.36438229207E+02  0.20583655342E+03  0.17300000000E+03 0.  1.
         -6    1    1    2    0  503  0.87816363889E+02  0.58311477519E+02 -0.16949947025E+02  0.20329348952E+03  0.17300000000E+03 0.  1.
<mgrwt>
<rscale>  2 0.20258564E+03</rscale>
<asrwt>0</asrwt>
<pdfrwt beam="1">  1       21 0.32970640E-01 0.20258564E+03</pdfrwt>
<pdfrwt beam="2">  1       21 0.29972443E-01 0.20258564E+03</pdfrwt>
<totfact> 0.94157541E+04</totfact>
</mgrwt>
</event>
<event>
 4    2  0.4039581E+000  0.3163461E+03  0.7546771E-02  0.1077343E+00
         21   -1    0    0  501  502  0.00000000000E+00  0.00000000000E+00  0.11995493417E+04  0.11995493417E+04  0.00000000000E+00 0. -1.
         21   -1    0    0  502  503 -0.00000000000E+00 -0.00000000000E+00 -0.16064623109E+03  0.16064623109E+03  0.00000000000E+00 0. -1.
          6    1    1    2  501    0  0.25403983344E+03 -0.74897307358E+02  0.99097004969E+03  0.10402386664E+04  0.17300000000E+03 0. -1.
         -6    1    1    2    0  503 -0.25403983344E+03  0.74897307358E+02  0.47933060893E+02  0.31995690639E+03  0.17300000000E+03 0. -1.
<mgrwt>
<rscale>  2 0.31634608E+03</rscale>
<asrwt>0</asrwt>
<pdfrwt beam="1">  1       21 0.18454605E+00 0.31634608E+03</pdfrwt>
<pdfrwt beam="2">  1       21 0.24714806E-01 0.31634608E+03</pdfrwt>
<totfact> 0.23862069E+03</totfact>
</mgrwt>
</event>
<event>
 4    2  0.4039581E+000  0.1747148E+03  0.7546771E-02  0.1173018E+00
         21   -1    0    0  503  502  0.00000000000E+00  0.00000000000E+00  0.88805489300E+02  0.88805489300E+02  0.00000000000E+00 0.  1.
         21   -1    0    0  501  503 -0.00000000000E+00 -0.00000000000E+00 -0.35464241941E+03  0.35464241941E+03  0.00000000000E+00 0.  1.
          6    1    1    2  501    0  0.21008350478E+02  0.12446189868E+02 -0.17180907234E+03  0.24503798842E+03  0.17300000000E+03 0. -1.
         -6    1    1    2    0  502 -0.21008350478E+02 -0.12446189868E+02 -0.94027857774E+02  0.19840992029E+03  0.17300000000E+03 0. -1.
<mgrwt>
<rscale>  2 0.17471479E+03</rscale>
<asrwt>0</asrwt>
<pdfrwt beam="1">  1       21 0.13662383E-01 0.17471479E+03</pdfrwt>
<pdfrwt beam="2">  1       21 0.54560372E-01 0.17471479E+03</pdfrwt>
<totfact> 0.14831613E+05</totfact>
</mgrwt>
</event>
<event>
 4    2  0.4039581E+000  0.1980485E+03  0.7546771E-02  0.1151396E+00
         21   -1    0    0  501  502  0.00000000000E+00  0.00000000000E+00  0.31489955073E+03  0.31489955073E+03  0.00000000000E+00 0.  1.
         21   -1    0    0  502  503 -0.00000000000E+00 -0.00000000000E+00 -0.18329980186E+03  0.18329980186E+03  0.00000000000E+00 0. -1.
          6    1    1    2  501    0 -0.56436192920E+02  0.78161262975E+02 -0.75215402720E+02  0.21185038048E+03  0.17300000000E+03 0.  1.
         -6    1    1    2    0  503  0.56436192920E+02 -0.78161262975E+02  0.20681515159E+03  0.28634897211E+03  0.17300000000E+03 0. -1.
<mgrwt>
<rscale>  2 0.19804855E+03</rscale>
<asrwt>0</asrwt>
<pdfrwt beam="1">  1       21 0.48446084E-01 0.19804855E+03</pdfrwt>
<pdfrwt beam="2">  1       21 0.28199970E-01 0.19804855E+03</pdfrwt>
<totfact> 0.48768826E+04</totfact>
</mgrwt>
</event>
<event>
 4    2  0.4039581E+000  0.2547738E+03  0.7546771E-02  0.1110325E+00
         21   -1    0    0  503  502  0.00000000000E+00  0.00000000000E+00  0.31305804438E+03  0.31305804438E+03  0.00000000000E+00 0. -1.
         21   -1    0    0  501  503 -0.00000000000E+00 -0.00000000000E+00 -0.32053529415E+03  0.32053529415E+03  0.00000000000E+00 0. -1.
          6    1    1    2  501    0  0.17298980642E+03  0.71100009857E+02  0.18452024952E+03  0.31457496247E+03  0.17300000000E+03 0. -1.
         -6    1    1    2    0  502 -0.17298980642E+03 -0.71100009857E+02 -0.19199749929E+03  0.31901837606E+03  0.17300000000E+03 0. -1.
<mgrwt>
<rscale>  2 0.25477379E+03</rscale>
<asrwt>0</asrwt>
<pdfrwt beam="1">  1       21 0.48162776E-01 0.25477379E+03</pdfrwt>
<pdfrwt beam="2">  1       21 0.49313122E-01 0.25477379E+03</pdfrwt>
<totfact> 0.15594831E+04</totfact>
</mgrwt>
</event>
<event>
 4    2  0.4039581E+000  0.2164283E+03  0.7546771E-02  0.1136574E+00
         21   -1    0    0  503  502  0.00000000000E+00  0.00000000000E+00  0.48790572260E+03  0.48790572260E+03  0.00000000000E+00 0. -1.
         21   -1    0    0  501  503 -0.00000000000E+00 -0.00000000000E+00 -0.11486052820E+03  0.11486052820E+03  0.00000000000E+00 0. -1.
          6    1    1    2  501    0  0.10363103921E+03  0.78567360285E+02  0.64411028825E+02  0.22580966105E+03  0.17300000000E+03 0. -1.
         -6    1    1    2    0  502 -0.10363103921E+03 -0.78567360285E+02  0.30863416557E+03  0.37695658974E+03  0.17300000000E+03 0. -1.
<mgrwt>
<rscale>  2 0.21642833E+03</rscale>
<asrwt>0</asrwt>
<pdfrwt beam="1">  1       21 0.75062418E-01 0.21642833E+03</pdfrwt>
<pdfrwt beam="2">  1       21 0.17670851E-01 0.21642833E+03</pdfrwt>
<totfact> 0.45559064E+04</totfact>
</mgrwt>
</event>
<event>
 4    2  0.4039581E+000  0.1843321E+03  0.7546771E-02  0.1163675E+00
         21   -1    0    0  501  502  0.00000000000E+00  0.00000000000E+00  0.17470379430E+02  0.17470379430E+02  0.00000000000E+00 0.  1.
         21   -1    0    0  502  503 -0.00000000000E+00 -0.00000000000E+00 -0.20426949745E+04  0.20426949745E+04  0.00000000000E+00 0.  1.
          6    1    1    2  501    0  0.12690994769E+02 -0.62355970240E+02 -0.12379867945E+04  0.12516347837E+04  0.17300000000E+03 0. -1.
         -6    1    1    2    0  503 -0.12690994769E+02  0.62355970240E+02 -0.78723780054E+03  0.80853057022E+03  0.17300000000E+03 0. -1.
<mgrwt>
<rscale>  2 0.18433211E+03</rscale>
<asrwt>0</asrwt>
<pdfrwt beam="1">  1       21 0.26877508E-02 0.18433211E+03</pdfrwt>
<pdfrwt beam="2">  1       21 0.31426075E+00 0.18433211E+03</pdfrwt>
<totfact> 0.21619089E+04</totfact>
</mgrwt>
</event>
<event>
 4    2  0.4039581E+000  0.2464669E+03  0.7546771E-02  0.1115558E+00
         21   -1    0    0  501  502  0.00000000000E+00  0.00000000000E+00  0.40965605617E+03  0.40965605617E+03  0.00000000000E+00 0.  1.
         21   -1    0    0  502  503 -0.00000000000E+00 -0.00000000000E+00 -0.18283890847E+03  0.18283890847E+03  0.00000000000E+00 0. -1.
          6    1    1    2  501    0 -0.13880541001E+03  0.10747099468E+03  0.24219416823E+03  0.34554879781E+03  0.17300000000E+03 0.  1.
         -6    1    1    2    0  503  0.13880541001E+03 -0.10747099468E+03 -0.15377020528E+02  0.24694616682E+03  0.17300000000E+03 0. -1.
<mgrwt>
<rscale>  2 0.24646695E+03</rscale>
<asrwt>0</asrwt>
<pdfrwt beam="1">  1       21 0.63024008E-01 0.24646695E+03</pdfrwt>
<pdfrwt beam="2">  1       21 0.28129063E-01 0.24646695E+03</pdfrwt>
<totfact> 0.27370888E+04</totfact>
</mgrwt>
</event>
<event>
 4    2  0.4039581E+000  0.1821371E+03  0.7546771E-02  0.1165751E+00
         21   -1    0    0  501  502  0.00000000000E+00  0.00000000000E+00  0.11214711682E+03  0.11214711682E+03  0.00000000000E+00 0.  1.
         21   -1    0    0  502  503 -0.00000000000E+00 -0.00000000000E+00 -0.47547114449E+03  0.47547114449E+03  0.00000000000E+00 0.  1.
          6    1    1    2  501    0 -0.36271369031E+02  0.43923866026E+02 -0.10553628529E+01  0.18214014387E+03  0.17300000000E+03 0.  1.
         -6    1    1    2    0  503  0.36271369031E+02 -0.43923866026E+02 -0.36226866481E+03  0.40547811744E+03  0.17300000000E+03 0.  1.
<mgrwt>
<rscale>  2 0.18213709E+03</rscale>
<asrwt>0</asrwt>
<pdfrwt beam="1">  1       21 0.17253403E-01 0.18213709E+03</pdfrwt>
<pdfrwt beam="2">  1       21 0.73149407E-01 0.18213709E+03</pdfrwt>
<totfact> 0.51286068E+04</totfact>
</mgrwt>
</event>
<event>
 4    2  0.4039581E+000  0.2355965E+03  0.7546771E-02  0.1122762E+00
         21   -1    0    0  501  502  0.00000000000E+00  0.00000000000E+00  0.12400193283E+04  0.12400193283E+04  0.00000000000E+00 0. -1.
         21   -1    0    0  502  503 -0.00000000000E+00 -0.00000000000E+00 -0.60208032791E+02  0.60208032791E+02  0.00000000000E+00 0. -1.
          6    1    1    2  501    0  0.30644911500E+02  0.15696362236E+03  0.91919007753E+03  0.94890257032E+03  0.17300000000E+03 0. -1.
         -6    1    1    2    0  503 -0.30644911500E+02 -0.15696362236E+03  0.26062121798E+03  0.35132479077E+03  0.17300000000E+03 0. -1.
<mgrwt>
<rscale>  2 0.23559645E+03</rscale>
<asrwt>0</asrwt>
<pdfrwt beam="1">  1       21 0.19077218E+00 0.23559645E+03</pdfrwt>
<pdfrwt beam="2">  1       21 0.92627752E-02 0.23559645E+03</pdfrwt>
<totfact> 0.13872699E+04</totfact>
</mgrwt>
</event>
<event>
 4    2  0.4039581E+000  0.2379230E+03  0.7546771E-02  0.1121184E+00
         21   -1    0    0  501  502  0.00000000000E+00  0.00000000000E+00  0.20819343405E+03  0.20819343405E+03  0.00000000000E+00 0.  1.
         21   -1    0    0  502  503 -0.00000000000E+00 -0.00000000000E+00 -0.27627213535E+03  0.27627213535E+03  0.00000000000E+00 0.  1.
          6    1    1    2  501    0 -0.92569492246E+02 -0.13457062467E+03 -0.64519277815E+02  0.24651592470E+03  0.17300000000E+03 0. -1.
         -6    1    1    2    0  503  0.92569492246E+02  0.13457062467E+03 -0.35594234792E+01  0.23794964470E+03  0.17300000000E+03 0. -1.
<mgrwt>
<rscale>  2 0.23792302E+03</rscale>
<asrwt>0</asrwt>
<pdfrwt beam="1">  1       21 0.32029759E-01 0.23792302E+03</pdfrwt>
<pdfrwt beam="2">  1       21 0.42503405E-01 0.23792302E+03</pdfrwt>
<totfact> 0.48902650E+04</totfact>
</mgrwt>
</event>
<event>
 4    2  0.4039581E+000  0.1844902E+03  0.7546771E-02  0.1163527E+00
         21   -1    0    0  501  502  0.00000000000E+00  0.00000000000E+00  0.56445227926E+03  0.56445227926E+03  0.00000000000E+00 0. -1.
         21   -1    0    0  502  503 -0.00000000000E+00 -0.00000000000E+00 -0.60477927218E+02  0.60477927218E+02  0.00000000000E+00 0. -1.
          6    1    1    2  501    0 -0.48630946469E+02  0.41745425722E+02  0.23505389766E+03  0.29880927751E+03  0.17300000000E+03 0. -1.
         -6    1    1    2    0  503  0.48630946469E+02 -0.41745425722E+02  0.26892045438E+03  0.32612092896E+03  0.17300000000E+03 0. -1.
<mgrwt>
<rscale>  2 0.18449024E+03</rscale>
<asrwt>0</asrwt>
<pdfrwt beam="1">  1       21 0.86838809E-01 0.18449024E+03</pdfrwt>
<pdfrwt beam="2">  1       21 0.93042969E-02 0.18449024E+03</pdfrwt>
<totfact> 0.10545775E+05</totfact>
</mgrwt>
</event>
<event>
 4    2  0.4039581E+000  0.2376444E+03  0.7546771E-02  0.1121372E+00
         21   -1    0    0  503  502  0.00000000000E+00  0.00000000000E+00  0.23192982304E+02  0.23192982304E+02  0.00000000000E+00 0. -1.
         21   -1    0    0  501  503 -0.00000000000E+00 -0.00000000000E+00 -0.34921114950E+04  0.34921114950E+04  0.00000000000E+00 0.  1.
          6    1    1    2  501    0 -0.11096138602E+03 -0.11930399229E+03 -0.27015108707E+04  0.27119431882E+04  0.17300000000E+03 0.  1.
         -6    1    1    2    0  502  0.11096138602E+03  0.11930399229E+03 -0.76740764200E+03  0.80336128906E+03  0.17300000000E+03 0. -1.
<mgrwt>
<rscale>  2 0.23764442E+03</rscale>
<asrwt>0</asrwt>
<pdfrwt beam="1">  1       21 0.35681509E-02 0.23764442E+03</pdfrwt>
<pdfrwt beam="2">  1       21 0.53724796E+00 0.23764442E+03</pdfrwt>
<totfact> 0.45265381E+02</totfact>
</mgrwt>
</event>
<event>
 4    2  0.4039581E+000  0.2294739E+03  0.7546771E-02  0.1127011E+00
         21   -1    0    0  501  502  0.00000000000E+00  0.00000000000E+00  0.71622739053E+02  0.71622739053E+02  0.00000000000E+00 0.  1.
         21   -1    0    0  502  503 -0.00000000000E+00 -0.00000000000E+00 -0.80238846707E+03  0.80238846707E+03  0.00000000000E+00 0. -1.
          6    1    1    2  501    0 -0.12589846837E+03  0.82938745236E+02 -0.23894216680E+03  0.33128781878E+03  0.17300000000E+03 0. -1.
         -6    1    1    2    0  503  0.12589846837E+03 -0.82938745236E+02 -0.49182356122E+03  0.54272338734E+03  0.17300000000E+03 0.  1.
<mgrwt>
<rscale>  2 0.22947388E+03</rscale>
<asrwt>0</asrwt>
<pdfrwt beam="1">  1       21 0.11018883E-01 0.22947388E+03</pdfrwt>
<pdfrwt beam="2">  1       21 0.12344437E+00 0.22947388E+03</pdfrwt>
<totfact> 0.32947981E+04</totfact>
</mgrwt>
</event>
<event>
 4    2  0.4039581E+000  0.1792359E+03  0.7546771E-02  0.1168545E+00
         21   -1    0    0  501  502  0.00000000000E+00  0.00000000000E+00  0.26349463584E+02  0.26349463584E+02  0.00000000000E+00 0.  1.
         21   -1    0    0  502  503 -0.00000000000E+00 -0.00000000000E+00 -0.13049731686E+04  0.13049731686E+04  0.00000000000E+00 0.  1.
          6    1    1    2  501    0  0.44659575210E+02  0.14213279965E+02 -0.46866186791E+03  0.50176632153E+03  0.17300000000E+03 0.  1.
         -6    1    1    2    0  503 -0.44659575210E+02 -0.14213279965E+02 -0.80996183712E+03  0.82955631067E+03  0.17300000000E+03 0.  1.
<mgrwt>
<rscale>  2 0.17923586E+03</rscale>
<asrwt>0</asrwt>
<pdfrwt beam="1">  1       21 0.40537637E-02 0.17923586E+03</pdfrwt>
<pdfrwt beam="2">  1       21 0.20076510E+00 0.17923586E+03</pdfrwt>
<totfact> 0.51322788E+04</totfact>
</mgrwt>
</event>
<event>
 4    2  0.4039581E+000  0.2194118E+03  0.7546771E-02  0.1134322E+00
         21   -1    0    0  501  502  0.00000000000E+00  0.00000000000E+00  0.96949557048E+03  0.96949557048E+03  0.00000000000E+00 0. -1.
         21   -1    0    0  502  503 -0.00000000000E+00 -0.00000000000E+00 -0.56216420307E+02  0.56216420307E+02  0.00000000000E+00 0. -1.
          6    1    1    2  501    0 -0.45137648392E+02  0.12718140147E+03  0.63183442689E+03  0.66884696245E+03  0.17300000000E+03 0. -1.
         -6    1    1    2    0  503  0.45137648392E+02 -0.12718140147E+03  0.28144472329E+03  0.35686502834E+03  0.17300000000E+03 0. -1.
<mgrwt>
<rscale>  2 0.21941175E+03</rscale>
<asrwt>0</asrwt>
<pdfrwt beam="1">  1       21 0.14915315E+00 0.21941175E+03</pdfrwt>
<pdfrwt beam="2">  1       21 0.86486807E-02 0.21941175E+03</pdfrwt>
<totfact> 0.31267547E+04</totfact>
</mgrwt>
</event>
<event>
 4    2  0.4039581E+000  0.1772109E+03  0.7546771E-02  0.1170530E+00
         21   -1    0    0  501  502  0.00000000000E+00  0.00000000000E+00  0.37524031717E+03  0.37524031717E+03  0.00000000000E+00 0.  1.
         21   -1    0    0  502  503 -0.00000000000E+00 -0.00000000000E+00 -0.13188566580E+03  0.13188566580E+03  0.00000000000E+00 0.  1.
          6    1    1    2  501    0  0.29347695081E+02  0.24766986473E+02  0.27496001730E+03  0.32711878873E+03  0.17300000000E+03 0.  1.
         -6    1    1    2    0  503 -0.29347695081E+02 -0.24766986473E+02 -0.31605365925E+02  0.18000719425E+03  0.17300000000E+03 0.  1.
<mgrwt>
<rscale>  2 0.17721087E+03</rscale>
<asrwt>0</asrwt>
<pdfrwt beam="1">  1       21 0.57729279E-01 0.17721087E+03</pdfrwt>
<pdfrwt beam="2">  1       21 0.20290103E-01 0.17721087E+03</pdfrwt>
<totfact> 0.63671308E+04</totfact>
</mgrwt>
</event>
<event>
 4    2  0.4039581E+000  0.2113911E+03  0.7546771E-02  0.1140469E+00
         21   -1    0    0  501  502  0.00000000000E+00  0.00000000000E+00  0.67798686463E+02  0.67798686463E+02  0.00000000000E+00 0.  1.
         21   -1    0    0  502  503 -0.00000000000E+00 -0.00000000000E+00 -0.71190039894E+03  0.71190039894E+03  0.00000000000E+00 0.  1.
          6    1    1    2  501    0  0.11866172086E+03 -0.26011350650E+02 -0.42822069391E+03  0.47755539685E+03  0.17300000000E+03 0.  1.
         -6    1    1    2    0  503 -0.11866172086E+03  0.26011350650E+02 -0.21588101856E+03  0.30214368856E+03  0.17300000000E+03 0.  1.
<mgrwt>
<rscale>  2 0.21139109E+03</rscale>
<asrwt>0</asrwt>
<pdfrwt beam="1">  1       21 0.10430567E-01 0.21139109E+03</pdfrwt>
<pdfrwt beam="2">  1       21 0.10952314E+00 0.21139109E+03</pdfrwt>
<totfact> 0.49228315E+04</totfact>
</mgrwt>
</event>
<event>
 4    2  0.4039581E+000  0.3188456E+03  0.7546771E-02  0.1076182E+00
         21   -1    0    0  503  502  0.00000000000E+00  0.00000000000E+00  0.33712151494E+03  0.33712151494E+03  0.00000000000E+00 0. -1.
         21   -1    0    0  501  503 -0.00000000000E+00 -0.00000000000E+00 -0.31486959205E+03  0.31486959205E+03  0.00000000000E+00 0.  1.
          6    1    1    2  501    0  0.22437735301E+03  0.14624754406E+03  0.78148386715E+02  0.32828297402E+03  0.17300000000E+03 0. -1.
         -6    1    1    2    0  502 -0.22437735301E+03 -0.14624754406E+03 -0.55896463818E+02  0.32370813297E+03  0.17300000000E+03 0.  1.
<mgrwt>
<rscale>  2 0.31884564E+03</rscale>
<asrwt>0</asrwt>
<pdfrwt beam="1">  1       21 0.51864849E-01 0.31884564E+03</pdfrwt>
<pdfrwt beam="2">  1       21 0.48441476E-01 0.31884564E+03</pdfrwt>
<totfact> 0.13463233E+04</totfact>
</mgrwt>
</event>
<event>
 4    2  0.4039581E+000  0.1785077E+03  0.7546771E-02  0.1169255E+00
         21   -1    0    0  503  502  0.00000000000E+00  0.00000000000E+00  0.23979446596E+03  0.23979446596E+03  0.00000000000E+00 0.  1.
         21   -1    0    0  501  503 -0.00000000000E+00 -0.00000000000E+00 -0.16319711047E+03  0.16319711047E+03  0.00000000000E+00 0.  1.
          6    1    1    2  501    0 -0.94353893723E+01 -0.42976234654E+02  0.12513890341E+03  0.21800167078E+03  0.17300000000E+03 0.  1.
         -6    1    1    2    0  502  0.94353893723E+01  0.42976234654E+02 -0.48541547914E+02  0.18498990565E+03  0.17300000000E+03 0.  1.
<mgrwt>
<rscale>  2 0.17850766E+03</rscale>
<asrwt>0</asrwt>
<pdfrwt beam="1">  1       21 0.36891456E-01 0.17850766E+03</pdfrwt>
<pdfrwt beam="2">  1       21 0.25107248E-01 0.17850766E+03</pdfrwt>
<totfact> 0.10701636E+05</totfact>
</mgrwt>
</event>
<event>
 4    2  0.4039581E+000  0.1973697E+03  0.7546771E-02  0.1151977E+00
         21   -1    0    0  503  502  0.00000000000E+00  0.00000000000E+00  0.12026255861E+03  0.12026255861E+03  0.00000000000E+00 0. -1.
         21   -1    0    0  501  503 -0.00000000000E+00 -0.00000000000E+00 -0.61444637646E+03  0.61444637646E+03  0.00000000000E+00 0. -1.
          6    1    1    2  501    0 -0.94871039642E+02 -0.50286594991E+01 -0.49969585650E+03  0.53726227355E+03  0.17300000000E+03 0. -1.
         -6    1    1    2    0  502  0.94871039642E+02  0.50286594991E+01  0.55120386456E+01  0.19744666153E+03  0.17300000000E+03 0. -1.
<mgrwt>
<rscale>  2 0.19736971E+03</rscale>
<asrwt>0</asrwt>
<pdfrwt beam="1">  1       21 0.18501932E-01 0.19736971E+03</pdfrwt>
<pdfrwt beam="2">  1       21 0.94530210E-01 0.19736971E+03</pdfrwt>
<totfact> 0.24935740E+04</totfact>
</mgrwt>
</event>
<event>
 4    2  0.4039581E+000  0.2199328E+03  0.7546771E-02  0.1133933E+00
         21   -1    0    0  503  502  0.00000000000E+00  0.00000000000E+00  0.17898957830E+03  0.17898957830E+03  0.00000000000E+00 0. -1.
         21   -1    0    0  501  503 -0.00000000000E+00 -0.00000000000E+00 -0.80952588268E+03  0.80952588268E+03  0.00000000000E+00 0. -1.
          6    1    1    2  501    0 -0.10823737008E+03 -0.82012837152E+02 -0.71867844461E+03  0.75157776743E+03  0.17300000000E+03 0. -1.
         -6    1    1    2    0  502  0.10823737008E+03  0.82012837152E+02  0.88142140230E+02  0.23693769355E+03  0.17300000000E+03 0. -1.
<mgrwt>
<rscale>  2 0.21993279E+03</rscale>
<asrwt>0</asrwt>
<pdfrwt beam="1">  1       21 0.27536858E-01 0.21993279E+03</pdfrwt>
<pdfrwt beam="2">  1       21 0.12454244E+00 0.21993279E+03</pdfrwt>
<totfact> 0.59327702E+03</totfact>
</mgrwt>
</event>
<event>
 4    2  0.4039581E+000  0.2012163E+03  0.7546771E-02  0.1148717E+00
         21   -1    0    0  501  502  0.00000000000E+00  0.00000000000E+00  0.99246105545E+02  0.99246105545E+02  0.00000000000E+00 0. -1.
         21   -1    0    0  502  503 -0.00000000000E+00 -0.00000000000E+00 -0.45172592234E+03  0.45172592234E+03  0.00000000000E+00 0. -1.
          6    1    1    2  501    0 -0.47960465070E+02 -0.90877797801E+02 -0.90486156515E+02  0.22062575748E+03  0.17300000000E+03 0. -1.
         -6    1    1    2    0  503  0.47960465070E+02  0.90877797801E+02 -0.26199366028E+03  0.33034627040E+03  0.17300000000E+03 0. -1.
<mgrwt>
<rscale>  2 0.20121625E+03</rscale>
<asrwt>0</asrwt>
<pdfrwt beam="1">  1       21 0.15268632E-01 0.20121625E+03</pdfrwt>
<pdfrwt beam="2">  1       21 0.69496296E-01 0.20121625E+03</pdfrwt>
<totfact> 0.71224977E+04</totfact>
</mgrwt>
</event>
<event>
 4    2  0.4039581E+000  0.1820430E+03  0.7546771E-02  0.1165840E+00
         21   -1    0    0  503  502  0.00000000000E+00  0.00000000000E+00  0.57648067457E+02  0.57648067457E+02  0.00000000000E+00 0. -1.
         21   -1    0    0  501  503 -0.00000000000E+00 -0.00000000000E+00 -0.58270878912E+03  0.58270878912E+03  0.00000000000E+00 0. -1.
          6    1    1    2  501    0  0.41773137606E+02  0.38284024857E+02 -0.22537489380E+03  0.28971279630E+03  0.17300000000E+03 0. -1.
         -6    1    1    2    0  502 -0.41773137606E+02 -0.38284024857E+02 -0.29968582786E+03  0.35064406028E+03  0.17300000000E+03 0. -1.
<mgrwt>
<rscale>  2 0.18204302E+03</rscale>
<asrwt>0</asrwt>
<pdfrwt beam="1">  1       21 0.88689332E-02 0.18204302E+03</pdfrwt>
<pdfrwt beam="2">  1       21 0.89647508E-01 0.18204302E+03</pdfrwt>
<totfact> 0.10670128E+05</totfact>
</mgrwt>
</event>
<event>
 4    2  0.4039581E+000  0.1873011E+03  0.7546771E-02  0.1160918E+00
         21   -1    0    0  501  502  0.00000000000E+00  0.00000000000E+00  0.71955799570E+03  0.71955799570E+03  0.00000000000E+00 0. -1.
         21   -1    0    0  502  503 -0.00000000000E+00 -0.00000000000E+00 -0.84472586158E+02  0.84472586158E+02  0.00000000000E+00 0. -1.
          6    1    1    2  501    0 -0.66763544499E+02 -0.26369316475E+02  0.57895655046E+03  0.60850012247E+03  0.17300000000E+03 0. -1.
         -6    1    1    2    0  503  0.66763544499E+02  0.26369316475E+02  0.56128859077E+02  0.19553045938E+03  0.17300000000E+03 0. -1.
<mgrwt>
<rscale>  2 0.18730113E+03</rscale>
<asrwt>0</asrwt>
<pdfrwt beam="1">  1       21 0.11070123E+00 0.18730113E+03</pdfrwt>
<pdfrwt beam="2">  1       21 0.12995783E-01 0.18730113E+03</pdfrwt>
<totfact> 0.32808322E+04</totfact>
</mgrwt>
</event>
<event>
 4    2  0.4039581E+000  0.2261313E+03  0.7546771E-02  0.1129393E+00
         21   -1    0    0  501  502  0.00000000000E+00  0.00000000000E+00  0.45890652900E+03  0.45890652900E+03  0.00000000000E+00 0. -1.
         21   -1    0    0  502  503 -0.00000000000E+00 -0.00000000000E+00 -0.11170633659E+03  0.11170633659E+03  0.00000000000E+00 0.  1.
          6    1    1    2  501    0  0.12849866349E+03  0.68515988995E+02  0.15937585152E+03  0.27665142204E+03  0.17300000000E+03 0. -1.
         -6    1    1    2    0  503 -0.12849866349E+03 -0.68515988995E+02  0.18782434089E+03  0.29396144355E+03  0.17300000000E+03 0.  1.
<mgrwt>
<rscale>  2 0.22613126E+03</rscale>
<asrwt>0</asrwt>
<pdfrwt beam="1">  1       21 0.70601003E-01 0.22613126E+03</pdfrwt>
<pdfrwt beam="2">  1       21 0.17185591E-01 0.22613126E+03</pdfrwt>
<totfact> 0.54744322E+04</totfact>
</mgrwt>
</event>
<event>
 4    2  0.4039581E+000  0.2130193E+03  0.7546771E-02  0.1139197E+00
         21   -1    0    0  503  502  0.00000000000E+00  0.00000000000E+00  0.15162558794E+04  0.15162558794E+04  0.00000000000E+00 0.  1.
         21   -1    0    0  501  503 -0.00000000000E+00 -0.00000000000E+00 -0.70163211662E+02  0.70163211662E+02  0.00000000000E+00 0. -1.
          6    1    1    2  501    0  0.49181588726E+02  0.11414628317E+03  0.12236935760E+03  0.24566534617E+03  0.17300000000E+03 0. -1.
         -6    1    1    2    0  502 -0.49181588726E+02 -0.11414628317E+03  0.13237233101E+04  0.13407537449E+04  0.17300000000E+03 0.  1.
<mgrwt>
<rscale>  2 0.21301925E+03</rscale>
<asrwt>0</asrwt>
<pdfrwt beam="1">  1       21 0.23327011E+00 0.21301925E+03</pdfrwt>
<pdfrwt beam="2">  1       21 0.10794341E-01 0.21301925E+03</pdfrwt>
<totfact> 0.58099792E+03</totfact>
</mgrwt>
</event>
<event>
 4    2  0.4039581E+000  0.2685650E+03  0.7546771E-02  0.1102104E+00
         21   -1    0    0  501  502  0.00000000000E+00  0.00000000000E+00  0.53582387911E+02  0.53582387911E+02  0.00000000000E+00 0.  1.
         21   -1    0    0  502  503 -0.00000000000E+00 -0.00000000000E+00 -0.13464114680E+04  0.13464114680E+04  0.00000000000E+00 0. -1.
          6    1    1    2  501    0 -0.15991626072E+03 -0.12893782030E+03 -0.63574224591E+03  0.69014156169E+03  0.17300000000E+03 0.  1.
         -6    1    1    2    0  503  0.15991626072E+03  0.12893782030E+03 -0.65708683416E+03  0.70985229419E+03  0.17300000000E+03 0.  1.
<mgrwt>
<rscale>  2 0.26856502E+03</rscale>
<asrwt>0</asrwt>
<pdfrwt beam="1">  1       21 0.82434446E-02 0.26856502E+03</pdfrwt>
<pdfrwt beam="2">  1       21 0.20714022E+00 0.26856502E+03</pdfrwt>
<totfact> 0.13048420E+04</totfact>
</mgrwt>
</event>
<event>
 4    2  0.4039581E+000  0.1732338E+03  0.7546771E-02  0.1174517E+00
         21   -1    0    0  503  502  0.00000000000E+00  0.00000000000E+00  0.10958084315E+03  0.10958084315E+03  0.00000000000E+00 0.  1.
         21   -1    0    0  501  503 -0.00000000000E+00 -0.00000000000E+00 -0.33912473703E+03  0.33912473703E+03  0.00000000000E+00 0.  1.
          6    1    1    2  501    0  0.82292767956E+01  0.36348408232E+01 -0.21319283753E+03  0.27470187302E+03  0.17300000000E+03 0.  1.
         -6    1    1    2    0  502 -0.82292767956E+01 -0.36348408232E+01 -0.16351056345E+02  0.17400370717E+03  0.17300000000E+03 0.  1.
<mgrwt>
<rscale>  2 0.17323375E+03</rscale>
<asrwt>0</asrwt>
<pdfrwt beam="1">  1       21 0.16858592E-01 0.17323375E+03</pdfrwt>
<pdfrwt beam="2">  1       21 0.52173036E-01 0.17323375E+03</pdfrwt>
<totfact> 0.11123375E+05</totfact>
</mgrwt>
</event>
<event>
 4    2  0.4039581E+000  0.2692366E+03  0.7546771E-02  0.1101717E+00
         21   -1    0    0  503  502  0.00000000000E+00  0.00000000000E+00  0.16677130593E+03  0.16677130593E+03  0.00000000000E+00 0. -1.
         21   -1    0    0  501  503 -0.00000000000E+00 -0.00000000000E+00 -0.66984465094E+03  0.66984465094E+03  0.00000000000E+00 0.  1.
          6    1    1    2  501    0 -0.12282195282E+03 -0.16575322106E+03 -0.49940218204E+03  0.56735430007E+03  0.17300000000E+03 0.  1.
         -6    1    1    2    0  502  0.12282195282E+03  0.16575322106E+03 -0.36711629734E+01  0.26926165680E+03  0.17300000000E+03 0. -1.
<mgrwt>
<rscale>  2 0.26923663E+03</rscale>
<asrwt>0</asrwt>
<pdfrwt beam="1">  1       21 0.25657124E-01 0.26923663E+03</pdfrwt>
<pdfrwt beam="2">  1       21 0.10305302E+00 0.26923663E+03</pdfrwt>
<totfact> 0.10511919E+04</totfact>
</mgrwt>
</event>
<event>
 4    2  0.4039581E+000  0.1902178E+03  0.7546771E-02  0.1158265E+00
         21   -1    0    0  503  502  0.00000000000E+00  0.00000000000E+00  0.10408462961E+03  0.10408462961E+03  0.00000000000E+00 0. -1.
         21   -1    0    0  501  503 -0.00000000000E+00 -0.00000000000E+00 -0.38812290539E+03  0.38812290539E+03  0.00000000000E+00 0. -1.
          6    1    1    2  501    0  0.30140994223E+02 -0.73111727270E+02 -0.62525919442E+02  0.20023060405E+03  0.17300000000E+03 0.  1.
         -6    1    1    2    0  502 -0.30140994223E+02  0.73111727270E+02 -0.22151235633E+03  0.29197693095E+03  0.17300000000E+03 0.  1.
<mgrwt>
<rscale>  2 0.19021778E+03</rscale>
<asrwt>0</asrwt>
<pdfrwt beam="1">  1       21 0.16013020E-01 0.19021778E+03</pdfrwt>
<pdfrwt beam="2">  1       21 0.59711215E-01 0.19021778E+03</pdfrwt>
<totfact> 0.91244989E+04</totfact>
</mgrwt>
</event>
<event>
 4    2  0.4039581E+000  0.2571361E+03  0.7546771E-02  0.1108876E+00
         21   -1    0    0  503  502  0.00000000000E+00  0.00000000000E+00  0.67432611995E+03  0.67432611995E+03  0.00000000000E+00 0.  1.
         21   -1    0    0  501  503 -0.00000000000E+00 -0.00000000000E+00 -0.98897482479E+02  0.98897482479E+02  0.00000000000E+00 0. -1.
          6    1    1    2  501    0  0.56869528370E+02 -0.18153741122E+03  0.25196615371E+03  0.36000821872E+03  0.17300000000E+03 0. -1.
         -6    1    1    2    0  502 -0.56869528370E+02  0.18153741122E+03  0.32346248375E+03  0.41321538370E+03  0.17300000000E+03 0.  1.
<mgrwt>
<rscale>  2 0.25713610E+03</rscale>
<asrwt>0</asrwt>
<pdfrwt beam="1">  1       21 0.10374248E+00 0.25713610E+03</pdfrwt>
<pdfrwt beam="2">  1       21 0.15214998E-01 0.25713610E+03</pdfrwt>
<totfact> 0.27791117E+04</totfact>
</mgrwt>
</event>
<event>
 4    2  0.4039581E+000  0.1979509E+03  0.7546771E-02  0.1151479E+00
         21   -1    0    0  503  502  0.00000000000E+00  0.00000000000E+00  0.73613416177E+02  0.73613416177E+02  0.00000000000E+00 0.  1.
         21   -1    0    0  501  503 -0.00000000000E+00 -0.00000000000E+00 -0.62028601487E+03  0.62028601487E+03  0.00000000000E+00 0. -1.
          6    1    1    2  501    0 -0.90426953284E+02  0.32840847754E+02 -0.14266720492E+03  0.24400509528E+03  0.17300000000E+03 0.  1.
         -6    1    1    2    0  502  0.90426953284E+02 -0.32840847754E+02 -0.40400539377E+03  0.44989433577E+03  0.17300000000E+03 0. -1.
<mgrwt>
<rscale>  2 0.19795089E+03</rscale>
<asrwt>0</asrwt>
<pdfrwt beam="1">  1       21 0.11325141E-01 0.19795089E+03</pdfrwt>
<pdfrwt beam="2">  1       21 0.95428621E-01 0.19795089E+03</pdfrwt>
<totfact> 0.59491588E+04</totfact>
</mgrwt>
</event>
<event>
 4    2  0.4039581E+000  0.2343597E+03  0.7546771E-02  0.1123608E+00
         21   -1    0    0  503  502  0.00000000000E+00  0.00000000000E+00  0.20129020028E+04  0.20129020028E+04  0.00000000000E+00 0.  1.
         21   -1    0    0  501  503 -0.00000000000E+00 -0.00000000000E+00 -0.27293161153E+02  0.27293161153E+02  0.00000000000E+00 0.  1.
          6    1    1    2  501    0  0.11983332433E+03  0.10312822074E+03  0.97651831204E+03  0.10042472152E+04  0.17300000000E+03 0.  1.
         -6    1    1    2    0  502 -0.11983332433E+03 -0.10312822074E+03  0.10090905296E+04  0.10359479488E+04  0.17300000000E+03 0.  1.
<mgrwt>
<rscale>  2 0.23435967E+03</rscale>
<asrwt>0</asrwt>
<pdfrwt beam="1">  1       21 0.30967711E+00 0.23435967E+03</pdfrwt>
<pdfrwt beam="2">  1       21 0.41989495E-02 0.23435967E+03</pdfrwt>
<totfact> 0.10396596E+04</totfact>
</mgrwt>
</event>
<event>
 4    2  0.4039581E+000  0.1906667E+03  0.7546771E-02  0.1157861E+00
         21   -1    0    0  501  502  0.00000000000E+00  0.00000000000E+00  0.40152360822E+03  0.40152360822E+03  0.00000000000E+00 0.  1.
         21   -1    0    0  502  503 -0.00000000000E+00 -0.00000000000E+00 -0.17929917828E+03  0.17929917828E+03  0.00000000000E+00 0.  1.
          6    1    1    2  501    0  0.59340925912E+02  0.53883473141E+02  0.31544224238E+03  0.36858863580E+03  0.17300000000E+03 0.  1.
         -6    1    1    2    0  503 -0.59340925912E+02 -0.53883473141E+02 -0.93217812443E+02  0.21223415070E+03  0.17300000000E+03 0.  1.
<mgrwt>
<rscale>  2 0.19066666E+03</rscale>
<asrwt>0</asrwt>
<pdfrwt beam="1">  1       21 0.61772863E-01 0.19066666E+03</pdfrwt>
<pdfrwt beam="2">  1       21 0.27584489E-01 0.19066666E+03</pdfrwt>
<totfact> 0.30554599E+04</totfact>
</mgrwt>
</event>
<event>
 4    2  0.4039581E+000  0.1957615E+03  0.7546771E-02  0.1153365E+00
         21   -1    0    0  501  502  0.00000000000E+00  0.00000000000E+00  0.11909537441E+04  0.11909537441E+04  0.00000000000E+00 0. -1.
         21   -1    0    0  502  503 -0.00000000000E+00 -0.00000000000E+00 -0.45765783434E+02  0.45765783434E+02  0.00000000000E+00 0.  1.
          6    1    1    2  501    0 -0.86903298325E+02 -0.29006522660E+02  0.90952762662E+03  0.93035641837E+03  0.17300000000E+03 0. -1.
         -6    1    1    2    0  503  0.86903298325E+02  0.29006522660E+02  0.23566033406E+03  0.30636310918E+03  0.17300000000E+03 0.  1.
<mgrwt>
<rscale>  2 0.19576149E+03</rscale>
<asrwt>0</asrwt>
<pdfrwt beam="1">  1       21 0.18322363E+00 0.19576149E+03</pdfrwt>
<pdfrwt beam="2">  1       21 0.70408907E-02 0.19576149E+03</pdfrwt>
<totfact> 0.25857664E+04</totfact>
</mgrwt>
</event>
<event>
 4    2  0.4039581E+000  0.2181749E+03  0.7546771E-02  0.1135251E+00
         21   -1    0    0  503  502  0.00000000000E+00  0.00000000000E+00  0.22433597319E+03  0.22433597319E+03  0.00000000000E+00 0.  1.
         21   -1    0    0  501  503 -0.00000000000E+00 -0.00000000000E+00 -0.31740090296E+03  0.31740090296E+03  0.00000000000E+00 0. -1.
          6    1    1    2  501    0  0.58384336547E+01  0.13280507844E+03 -0.20248742029E+03  0.29765992599E+03  0.17300000000E+03 0. -1.
         -6    1    1    2    0  502 -0.58384336547E+01 -0.13280507844E+03  0.10942249052E+03  0.24407695016E+03  0.17300000000E+03 0.  1.
<mgrwt>
<rscale>  2 0.21817488E+03</rscale>
<asrwt>0</asrwt>
<pdfrwt beam="1">  1       21 0.34513227E-01 0.21817488E+03</pdfrwt>
<pdfrwt beam="2">  1       21 0.48830908E-01 0.21817488E+03</pdfrwt>
<totfact> 0.31952449E+04</totfact>
</mgrwt>
</event>
<event>
 4    2  0.4039581E+000  0.1774428E+03  0.7546771E-02  0.1170301E+00
         21   -1    0    0  503  502  0.00000000000E+00  0.00000000000E+00  0.10327484292E+03  0.10327484292E+03  0.00000000000E+00 0.  1.
         21   -1    0    0  501  503 -0.00000000000E+00 -0.00000000000E+00 -0.10032736068E+04  0.10032736068E+04  0.00000000000E+00 0.  1.
          6    1    1    2  501    0 -0.10974048140E+02  0.37901448111E+02 -0.91161695278E+03  0.92872569583E+03  0.17300000000E+03 0.  1.
         -6    1    1    2    0  502  0.10974048140E+02 -0.37901448111E+02  0.11618188863E+02  0.17782275393E+03  0.17300000000E+03 0.  1.
<mgrwt>
<rscale>  2 0.17744281E+03</rscale>
<asrwt>0</asrwt>
<pdfrwt beam="1">  1       21 0.15888438E-01 0.17744281E+03</pdfrwt>
<pdfrwt beam="2">  1       21 0.15434978E+00 0.17744281E+03</pdfrwt>
<totfact> 0.99052185E+03</totfact>
</mgrwt>
</event>
<event>
 4    2  0.4039581E+000  0.1819842E+03  0.7546771E-02  0.1165896E+00
         21   -1    0    0  501  502  0.00000000000E+00  0.00000000000E+00  0.28918064166E+03  0.28918064166E+03  0.00000000000E+00 0. -1.
         21   -1    0    0  502  503 -0.00000000000E+00 -0.00000000000E+00 -0.36554163358E+03  0.36554163358E+03  0.00000000000E+00 0. -1.
          6    1    1    2  501    0  0.24608019643E+02  0.50830054453E+02  0.23309491988E+03  0.29572198218E+03  0.17300000000E+03 0. -1.
         -6    1    1    2    0  503 -0.24608019643E+02 -0.50830054453E+02 -0.30945591181E+03  0.35900029306E+03  0.17300000000E+03 0. -1.
<mgrwt>
<rscale>  2 0.18198420E+03</rscale>
<asrwt>0</asrwt>
<pdfrwt beam="1">  1       21 0.44489330E-01 0.18198420E+03</pdfrwt>
<pdfrwt beam="2">  1       21 0.56237174E-01 0.18198420E+03</pdfrwt>
<totfact> 0.14532842E+04</totfact>
</mgrwt>
</event>
<event>
 4    2  0.4039581E+000  0.1899213E+03  0.7546771E-02  0.1158532E+00
         21   -1    0    0  503  502  0.00000000000E+00  0.00000000000E+00  0.20408880737E+03  0.20408880737E+03  0.00000000000E+00 0. -1.
         21   -1    0    0  501  503 -0.00000000000E+00 -0.00000000000E+00 -0.43219708244E+03  0.43219708244E+03  0.00000000000E+00 0.  1.
          6    1    1    2  501    0 -0.49390606042E+02 -0.60841485453E+02 -0.35864633226E+03  0.40582916352E+03  0.17300000000E+03 0.  1.
         -6    1    1    2    0  502  0.49390606042E+02  0.60841485453E+02  0.13053805720E+03  0.23045672629E+03  0.17300000000E+03 0. -1.
<mgrwt>
<rscale>  2 0.18992135E+03</rscale>
<asrwt>0</asrwt>
<pdfrwt beam="1">  1       21 0.31398278E-01 0.18992135E+03</pdfrwt>
<pdfrwt beam="2">  1       21 0.66491858E-01 0.18992135E+03</pdfrwt>
<totfact> 0.20254385E+04</totfact>
</mgrwt>
</event>
<event>
 4    2  0.4039581E+000  0.2652606E+03  0.7546771E-02  0.1104023E+00
         21   -1    0    0  501  502  0.00000000000E+00  0.00000000000E+00  0.12633796406E+04  0.12633796406E+04  0.00000000000E+00 0. -1.
         21   -1    0    0  502  503 -0.00000000000E+00 -0.00000000000E+00 -0.11231632840E+03  0.11231632840E+03  0.00000000000E+00 0.  1.
          6    1    1    2  501    0  0.12732119732E+03  0.15563893616E+03  0.10639178341E+04  0.10964872655E+04  0.17300000000E+03 0. -1.
         -6    1    1    2    0  503 -0.12732119732E+03 -0.15563893616E+03  0.87145478081E+02  0.27920870346E+03  0.17300000000E+03 0.  1.
<mgrwt>
<rscale>  2 0.26526056E+03</rscale>
<asrwt>0</asrwt>
<pdfrwt beam="1">  1       21 0.19436609E+00 0.26526056E+03</pdfrwt>
<pdfrwt beam="2">  1       21 0.17279436E-01 0.26526056E+03</pdfrwt>
<totfact> 0.41679361E+03</totfact>
</mgrwt>
</event>
<event>
 4    2  0.4039581E+000  0.2016413E+03  0.7546771E-02  0.1148362E+00
         21   -1    0    0  501  502  0.00000000000E+00  0.00000000000E+00  0.66633393743E+03  0.66633393743E+03  0.00000000000E+00 0.  1.
         21   -1    0    0  502  503 -0.00000000000E+00 -0.00000000000E+00 -0.61632619999E+02  0.61632619999E+02  0.00000000000E+00 0. -1.
          6    1    1    2  501    0 -0.81960678053E+02  0.63345490060E+02  0.26604002753E+03  0.33382106001E+03  0.17300000000E+03 0.  1.
         -6    1    1    2    0  503  0.81960678053E+02 -0.63345490060E+02  0.33866128990E+03  0.39414549742E+03  0.17300000000E+03 0.  1.
<mgrwt>
<rscale>  2 0.20164128E+03</rscale>
<asrwt>0</asrwt>
<pdfrwt beam="1">  1       21 0.10251291E+00 0.20164128E+03</pdfrwt>
<pdfrwt beam="2">  1       21 0.94819420E-02 0.20164128E+03</pdfrwt>
<totfact> 0.68669104E+04</totfact>
</mgrwt>
</event>
<event>
 4    2  0.4039581E+000  0.2147568E+03  0.7546771E-02  0.1137854E+00
         21   -1    0    0  501  502  0.00000000000E+00  0.00000000000E+00  0.13749416503E+04  0.13749416503E+04  0.00000000000E+00 0.  1.
         21   -1    0    0  502  503 -0.00000000000E+00 -0.00000000000E+00 -0.36411570728E+02  0.36411570728E+02  0.00000000000E+00 0.  1.
          6    1    1    2  501    0  0.97941260726E+02  0.81234139493E+02  0.86731478897E+03  0.89350736938E+03  0.17300000000E+03 0.  1.
         -6    1    1    2    0  503 -0.97941260726E+02 -0.81234139493E+02  0.47121529061E+03  0.51784585166E+03  0.17300000000E+03 0.  1.
<mgrwt>
<rscale>  2 0.21475678E+03</rscale>
<asrwt>0</asrwt>
<pdfrwt beam="1">  1       21 0.21152944E+00 0.21475678E+03</pdfrwt>
<pdfrwt beam="2">  1       21 0.56017812E-02 0.21475678E+03</pdfrwt>
<totfact> 0.24760275E+04</totfact>
</mgrwt>
</event>
<event>
 4    2  0.4039581E+000  0.1817271E+03  0.7546771E-02  0.1166142E+00
         21   -1    0    0  501  502  0.00000000000E+00  0.00000000000E+00  0.32065315300E+03  0.32065315300E+03  0.00000000000E+00 0.  1.
         21   -1    0    0  502  503 -0.00000000000E+00 -0.00000000000E+00 -0.11376541016E+03  0.11376541016E+03  0.00000000000E+00 0.  1.
          6    1    1    2  501    0 -0.97598039427E+00 -0.55630774818E+02  0.17028568373E+03  0.24904206418E+03  0.17300000000E+03 0.  1.
         -6    1    1    2    0  503  0.97598039427E+00  0.55630774818E+02  0.36602059100E+02  0.18537649898E+03  0.17300000000E+03 0.  1.
<mgrwt>
<rscale>  2 0.18172709E+03</rscale>
<asrwt>0</asrwt>
<pdfrwt beam="1">  1       21 0.49331254E-01 0.18172709E+03</pdfrwt>
<pdfrwt beam="2">  1       21 0.17502371E-01 0.18172709E+03</pdfrwt>
<totfact> 0.11632338E+05</totfact>
</mgrwt>
</event>
<event>
 4    2  0.4039581E+000  0.2365783E+03  0.7546771E-02  0.1122093E+00
         21   -1    0    0  503  502  0.00000000000E+00  0.00000000000E+00  0.10497966144E+03  0.10497966144E+03  0.00000000000E+00 0. -1.
         21   -1    0    0  501  503 -0.00000000000E+00 -0.00000000000E+00 -0.55072134293E+03  0.55072134293E+03  0.00000000000E+00 0.  1.
          6    1    1    2  501    0  0.16087897584E+03  0.12580322448E+02 -0.16429983834E+03  0.28803427966E+03  0.17300000000E+03 0. -1.
         -6    1    1    2    0  502 -0.16087897584E+03 -0.12580322448E+02 -0.28144184316E+03  0.36766672471E+03  0.17300000000E+03 0.  1.
<mgrwt>
<rscale>  2 0.23657834E+03</rscale>
<asrwt>0</asrwt>
<pdfrwt beam="1">  1       21 0.16150717E-01 0.23657834E+03</pdfrwt>
<pdfrwt beam="2">  1       21 0.84726361E-01 0.23657834E+03</pdfrwt>
<totfact> 0.40484971E+04</totfact>
</mgrwt>
</event>
<event>
 4    2  0.4039581E+000  0.1765776E+03  0.7546771E-02  0.1171157E+00
         21   -1    0    0  501  502  0.00000000000E+00  0.00000000000E+00  0.54085472396E+03  0.54085472396E+03  0.00000000000E+00 0. -1.
         21   -1    0    0  502  503 -0.00000000000E+00 -0.00000000000E+00 -0.17483657715E+03  0.17483657715E+03  0.00000000000E+00 0. -1.
          6    1    1    2  501    0 -0.33802548667E+02  0.10393931939E+02  0.47597740906E+03  0.50767523088E+03  0.17300000000E+03 0. -1.
         -6    1    1    2    0  503  0.33802548667E+02 -0.10393931939E+02 -0.10995926224E+03  0.20801607022E+03  0.17300000000E+03 0. -1.
<mgrwt>
<rscale>  2 0.17657759E+03</rscale>
<asrwt>0</asrwt>
<pdfrwt beam="1">  1       21 0.83208418E-01 0.17657759E+03</pdfrwt>
<pdfrwt beam="2">  1       21 0.26897935E-01 0.17657759E+03</pdfrwt>
<totfact> 0.16731124E+04</totfact>
</mgrwt>
</event>
<event>
 4    2  0.4039581E+000  0.1802013E+03  0.7546771E-02  0.1167608E+00
         21   -1    0    0  501  502  0.00000000000E+00  0.00000000000E+00  0.25096171107E+03  0.25096171107E+03  0.00000000000E+00 0.  1.
         21   -1    0    0  502  503 -0.00000000000E+00 -0.00000000000E+00 -0.28491483336E+03  0.28491483336E+03  0.00000000000E+00 0.  1.
          6    1    1    2  501    0  0.45925991212E+02  0.20840503270E+02  0.18098178939E+03  0.25539563687E+03  0.17300000000E+03 0.  1.
         -6    1    1    2    0  503 -0.45925991212E+02 -0.20840503270E+02 -0.21493491167E+03  0.28048090755E+03  0.17300000000E+03 0.  1.
<mgrwt>
<rscale>  2 0.18020134E+03</rscale>
<asrwt>0</asrwt>
<pdfrwt beam="1">  1       21 0.38609494E-01 0.18020134E+03</pdfrwt>
<pdfrwt beam="2">  1       21 0.43833051E-01 0.18020134E+03</pdfrwt>
<totfact> 0.32562238E+04</totfact>
</mgrwt>
</event>
<event>
 4    2  0.4039581E+000  0.2150581E+03  0.7546771E-02  0.1137622E+00
         21   -1    0    0  501  502  0.00000000000E+00  0.00000000000E+00  0.28822070448E+03  0.28822070448E+03  0.00000000000E+00 0. -1.
         21   -1    0    0  502  503 -0.00000000000E+00 -0.00000000000E+00 -0.33706380283E+03  0.33706380283E+03  0.00000000000E+00 0. -1.
          6    1    1    2  501    0 -0.42635766302E+02  0.12042916415E+03  0.20187747956E+03  0.29496526728E+03  0.17300000000E+03 0. -1.
         -6    1    1    2    0  503  0.42635766302E+02 -0.12042916415E+03 -0.25072057792E+03  0.33031924004E+03  0.17300000000E+03 0. -1.
<mgrwt>
<rscale>  2 0.21505811E+03</rscale>
<asrwt>0</asrwt>
<pdfrwt beam="1">  1       21 0.44341647E-01 0.21505811E+03</pdfrwt>
<pdfrwt beam="2">  1       21 0.51855969E-01 0.21505811E+03</pdfrwt>
<totfact> 0.17011672E+04</totfact>
</mgrwt>
</event>
<event>
 4    2  0.4039581E+000  0.2002277E+03  0.7546771E-02  0.1149547E+00
         21   -1    0    0  501  502  0.00000000000E+00  0.00000000000E+00  0.90924244238E+03  0.90924244238E+03  0.00000000000E+00 0. -1.
         21   -1    0    0  502  503 -0.00000000000E+00 -0.00000000000E+00 -0.44560181258E+02  0.44560181258E+02  0.00000000000E+00 0. -1.
          6    1    1    2  501    0  0.97181731124E+02 -0.26792249931E+02  0.48117889293E+03  0.52117582496E+03  0.17300000000E+03 0. -1.
         -6    1    1    2    0  503 -0.97181731124E+02  0.26792249931E+02  0.38350336819E+03  0.43262679868E+03  0.17300000000E+03 0. -1.
<mgrwt>
<rscale>  2 0.20022765E+03</rscale>
<asrwt>0</asrwt>
<pdfrwt beam="1">  1       21 0.13988344E+00 0.20022765E+03</pdfrwt>
<pdfrwt beam="2">  1       21 0.68554132E-02 0.20022765E+03</pdfrwt>
<totfact> 0.56003281E+04</totfact>
</mgrwt>
</event>
<event>
 4    2  0.4039581E+000  0.1734321E+03  0.7546771E-02  0.1174315E+00
         21   -1    0    0  501  502  0.00000000000E+00  0.00000000000E+00  0.19499393921E+03  0.19499393921E+03  0.00000000000E+00 0. -1.
         21   -1    0    0  502  503 -0.00000000000E+00 -0.00000000000E+00 -0.33279806561E+03  0.33279806561E+03  0.00000000000E+00 0. -1.
          6    1    1    2  501    0 -0.82733596955E+01 -0.90129669694E+01  0.12439024950E+03  0.21342824608E+03  0.17300000000E+03 0. -1.
         -6    1    1    2    0  503  0.82733596955E+01  0.90129669694E+01 -0.26219437590E+03  0.31436375874E+03  0.17300000000E+03 0. -1.
<mgrwt>
<rscale>  2 0.17343207E+03</rscale>
<asrwt>0</asrwt>
<pdfrwt beam="1">  1       21 0.29999068E-01 0.17343207E+03</pdfrwt>
<pdfrwt beam="2">  1       21 0.51199702E-01 0.17343207E+03</pdfrwt>
<totfact> 0.39027484E+04</totfact>
</mgrwt>
</event>
<event>
 4    2  0.4039581E+000  0.2029777E+03  0.7546771E-02  0.1147251E+00
         21   -1    0    0  503  502  0.00000000000E+00  0.00000000000E+00  0.23870559849E+04  0.23870559849E+04  0.00000000000E+00 0. -1.
         21   -1    0    0  501  503 -0.00000000000E+00 -0.00000000000E+00 -0.26458246409E+02  0.26458246409E+02  0.00000000000E+00 0. -1.
          6    1    1    2  501    0 -0.53414191758E+02 -0.91749025400E+02  0.46876093579E+03  0.51081970837E+03  0.17300000000E+03 0. -1.
         -6    1    1    2    0  502  0.53414191758E+02  0.91749025400E+02  0.18918368027E+04  0.19026945229E+04  0.17300000000E+03 0. -1.
<mgrwt>
<rscale>  2 0.20297773E+03</rscale>
<asrwt>0</asrwt>
<pdfrwt beam="1">  1       21 0.36723921E+00 0.20297773E+03</pdfrwt>
<pdfrwt beam="2">  1       21 0.40705013E-02 0.20297773E+03</pdfrwt>
<totfact> 0.51865504E+03</totfact>
</mgrwt>
</event>
<event>
 4    2  0.4039581E+000  0.1858062E+03  0.7546771E-02  0.1162299E+00
         21   -1    0    0  501  502  0.00000000000E+00  0.00000000000E+00  0.26367951077E+02  0.26367951077E+02  0.00000000000E+00 0.  1.
         21   -1    0    0  502  503 -0.00000000000E+00 -0.00000000000E+00 -0.16933319379E+04  0.16933319379E+04  0.00000000000E+00 0. -1.
          6    1    1    2  501    0 -0.66090450667E+02  0.15066693295E+02 -0.12429564622E+04  0.12567675680E+04  0.17300000000E+03 0. -1.
         -6    1    1    2    0  503  0.66090450667E+02 -0.15066693295E+02 -0.42400752460E+03  0.46293232101E+03  0.17300000000E+03 0.  1.
<mgrwt>
<rscale>  2 0.18580622E+03</rscale>
<asrwt>0</asrwt>
<pdfrwt beam="1">  1       21 0.40566059E-02 0.18580622E+03</pdfrwt>
<pdfrwt beam="2">  1       21 0.26051273E+00 0.18580622E+03</pdfrwt>
<totfact> 0.22223736E+04</totfact>
</mgrwt>
</event>
<event>
 4    2  0.4039581E+000  0.2383576E+03  0.7546771E-02  0.1120892E+00
         21   -1    0    0  501  502  0.00000000000E+00  0.00000000000E+00  0.36683059775E+03  0.36683059775E+03  0.00000000000E+00 0. -1.
         21   -1    0    0  502  503 -0.00000000000E+00 -0.00000000000E+00 -0.16033066627E+03  0.16033066627E+03  0.00000000000E+00 0. -1.
          6    1    1    2  501    0  0.29412514053E+02 -0.16130799475E+03  0.15185361182E+03  0.28261968186E+03  0.17300000000E+03 0. -1.
         -6    1    1    2    0  503 -0.29412514053E+02  0.16130799475E+03  0.54646319665E+02  0.24454158216E+03  0.17300000000E+03 0. -1.
<mgrwt>
<rscale>  2 0.23835764E+03</rscale>
<asrwt>0</asrwt>
<pdfrwt beam="1">  1       21 0.56435476E-01 0.23835764E+03</pdfrwt>
<pdfrwt beam="2">  1       21 0.24666256E-01 0.23835764E+03</pdfrwt>
<totfact> 0.44921555E+04</totfact>
</mgrwt>
</event>
<event>
 4    2  0.4039581E+000  0.1731958E+03  0.7546771E-02  0.1174556E+00
         21   -1    0    0  503  502  0.00000000000E+00  0.00000000000E+00  0.34065354821E+03  0.34065354821E+03  0.00000000000E+00 0. -1.
         21   -1    0    0  501  503 -0.00000000000E+00 -0.00000000000E+00 -0.93447359427E+02  0.93447359427E+02  0.00000000000E+00 0. -1.
          6    1    1    2  501    0  0.51405934236E+01  0.64308387984E+01  0.17573499485E+03  0.24673785645E+03  0.17300000000E+03 0. -1.
         -6    1    1    2    0  502 -0.51405934236E+01 -0.64308387984E+01  0.71471193926E+02  0.18736305119E+03  0.17300000000E+03 0. -1.
<mgrwt>
<rscale>  2 0.17319579E+03</rscale>
<asrwt>0</asrwt>
<pdfrwt beam="1">  1       21 0.52408238E-01 0.17319579E+03</pdfrwt>
<pdfrwt beam="2">  1       21 0.14376517E-01 0.17319579E+03</pdfrwt>
<totfact> 0.14728463E+05</totfact>
</mgrwt>
</event>
<event>
 4    2  0.4039581E+000  0.1885799E+03  0.7546771E-02  0.1159748E+00
         21   -1    0    0  503  502  0.00000000000E+00  0.00000000000E+00  0.46623784375E+03  0.46623784375E+03  0.00000000000E+00 0. -1.
         21   -1    0    0  501  503 -0.00000000000E+00 -0.00000000000E+00 -0.80914002473E+02  0.80914002473E+02  0.00000000000E+00 0. -1.
          6    1    1    2  501    0 -0.83051122512E+01 -0.74595030996E+02  0.12715787981E+03  0.22744564172E+03  0.17300000000E+03 0.  1.
         -6    1    1    2    0  502  0.83051122512E+01  0.74595030996E+02  0.25816596147E+03  0.31970620451E+03  0.17300000000E+03 0.  1.
<mgrwt>
<rscale>  2 0.18857994E+03</rscale>
<asrwt>0</asrwt>
<pdfrwt beam="1">  1       21 0.71728898E-01 0.18857994E+03</pdfrwt>
<pdfrwt beam="2">  1       21 0.12448308E-01 0.18857994E+03</pdfrwt>
<totfact> 0.96629022E+04</totfact>
</mgrwt>
</event>
<event>
 4    2  0.4039581E+000  0.2283874E+03  0.7546771E-02  0.1127780E+00
         21   -1    0    0  503  502  0.00000000000E+00  0.00000000000E+00  0.76067784098E+02  0.76067784098E+02  0.00000000000E+00 0. -1.
         21   -1    0    0  501  503 -0.00000000000E+00 -0.00000000000E+00 -0.77148739469E+03  0.77148739469E+03  0.00000000000E+00 0.  1.
          6    1    1    2  501    0 -0.12268739284E+03 -0.84732669875E+02 -0.48901147668E+03  0.53971570853E+03  0.17300000000E+03 0. -1.
         -6    1    1    2    0  502  0.12268739284E+03  0.84732669875E+02 -0.20640813391E+03  0.30783947026E+03  0.17300000000E+03 0. -1.
<mgrwt>
<rscale>  2 0.22838744E+03</rscale>
<asrwt>0</asrwt>
<pdfrwt beam="1">  1       21 0.11702736E-01 0.22838744E+03</pdfrwt>
<pdfrwt beam="2">  1       21 0.11869037E+00 0.22838744E+03</pdfrwt>
<totfact> 0.32652728E+04</totfact>
</mgrwt>
</event>
<event>
 4    2  0.4039581E+000  0.2855682E+03  0.7546771E-02  0.1092686E+00
         21   -1    0    0  503  502  0.00000000000E+00  0.00000000000E+00  0.20310978892E+03  0.20310978892E+03  0.00000000000E+00 0.  1.
         21   -1    0    0  501  503 -0.00000000000E+00 -0.00000000000E+00 -0.40625696515E+03  0.40625696515E+03  0.00000000000E+00 0. -1.
          6    1    1    2  501    0  0.13316060788E+02  0.22681021777E+03 -0.13453271686E+03  0.31567110141E+03  0.17300000000E+03 0. -1.
         -6    1    1    2    0  502 -0.13316060788E+02 -0.22681021777E+03 -0.68614459369E+02  0.29369565266E+03  0.17300000000E+03 0.  1.
<mgrwt>
<rscale>  2 0.28556819E+03</rscale>
<asrwt>0</asrwt>
<pdfrwt beam="1">  1       21 0.31247660E-01 0.28556819E+03</pdfrwt>
<pdfrwt beam="2">  1       21 0.62501071E-01 0.28556819E+03</pdfrwt>
<totfact> 0.22296465E+04</totfact>
</mgrwt>
</event>
<event>
 4    2  0.4039581E+000  0.1752907E+03  0.7546771E-02  0.1172440E+00
         21   -1    0    0  503  502  0.00000000000E+00  0.00000000000E+00  0.15555623558E+03  0.15555623558E+03  0.00000000000E+00 0.  1.
         21   -1    0    0  501  503 -0.00000000000E+00 -0.00000000000E+00 -0.20088062802E+03  0.20088062802E+03  0.00000000000E+00 0.  1.
          6    1    1    2  501    0 -0.22150835317E+02  0.17525780496E+02 -0.45683741547E+02  0.18114584381E+03  0.17300000000E+03 0. -1.
         -6    1    1    2    0  502  0.22150835317E+02 -0.17525780496E+02  0.35934911199E+00  0.17529101979E+03  0.17300000000E+03 0. -1.
<mgrwt>
<rscale>  2 0.17529065E+03</rscale>
<asrwt>0</asrwt>
<pdfrwt beam="1">  1       21 0.23931728E-01 0.17529065E+03</pdfrwt>
<pdfrwt beam="2">  1       21 0.30904712E-01 0.17529065E+03</pdfrwt>
<totfact> 0.16641432E+05</totfact>
</mgrwt>
</event>
<event>
 4    2  0.4039581E+000  0.1859725E+03  0.7546771E-02  0.1162145E+00
         21   -1    0    0  501  502  0.00000000000E+00  0.00000000000E+00  0.93042849103E+02  0.93042849103E+02  0.00000000000E+00 0. -1.
         21   -1    0    0  502  503 -0.00000000000E+00 -0.00000000000E+00 -0.37445936072E+03  0.37445936072E+03  0.00000000000E+00 0. -1.
          6    1    1    2  501    0 -0.22828260376E+02  0.64308933242E+02 -0.12071066276E+03  0.22171340165E+03  0.17300000000E+03 0. -1.
         -6    1    1    2    0  503  0.22828260376E+02 -0.64308933242E+02 -0.16070584885E+03  0.24578880817E+03  0.17300000000E+03 0. -1.
<mgrwt>
<rscale>  2 0.18597249E+03</rscale>
<asrwt>0</asrwt>
<pdfrwt beam="1">  1       21 0.14314284E-01 0.18597249E+03</pdfrwt>
<pdfrwt beam="2">  1       21 0.57609134E-01 0.18597249E+03</pdfrwt>
<totfact> 0.12102088E+05</totfact>
</mgrwt>
</event>
<event>
 4    2  0.4039581E+000  0.2018051E+03  0.7546771E-02  0.1148225E+00
         21   -1    0    0  503  502  0.00000000000E+00  0.00000000000E+00  0.52724928366E+02  0.52724928366E+02  0.00000000000E+00 0. -1.
         21   -1    0    0  501  503 -0.00000000000E+00 -0.00000000000E+00 -0.87970402041E+03  0.87970402041E+03  0.00000000000E+00 0. -1.
          6    1    1    2  501    0  0.32687502935E+02 -0.98629694608E+02 -0.57630820181E+03  0.61061971224E+03  0.17300000000E+03 0. -1.
         -6    1    1    2    0  502 -0.32687502935E+02  0.98629694608E+02 -0.25067089023E+03  0.32180923653E+03  0.17300000000E+03 0. -1.
<mgrwt>
<rscale>  2 0.20180508E+03</rscale>
<asrwt>0</asrwt>
<pdfrwt beam="1">  1       21 0.81115280E-02 0.20180508E+03</pdfrwt>
<pdfrwt beam="2">  1       21 0.13533907E+00 0.20180508E+03</pdfrwt>
<totfact> 0.45491505E+04</totfact>
</mgrwt>
</event>
<event>
 4    2  0.4039581E+000  0.1760013E+03  0.7546771E-02  0.1171730E+00
         21   -1    0    0  503  502  0.00000000000E+00  0.00000000000E+00  0.45321972295E+02  0.45321972295E+02  0.00000000000E+00 0. -1.
         21   -1    0    0  501  503 -0.00000000000E+00 -0.00000000000E+00 -0.68391361150E+03  0.68391361150E+03  0.00000000000E+00 0. -1.
          6    1    1    2  501    0  0.28995310328E+02  0.14377494545E+02 -0.31006333221E+03  0.35653290220E+03  0.17300000000E+03 0. -1.
         -6    1    1    2    0  502 -0.28995310328E+02 -0.14377494545E+02 -0.32852830700E+03  0.37270268160E+03  0.17300000000E+03 0. -1.
<mgrwt>
<rscale>  2 0.17600125E+03</rscale>
<asrwt>0</asrwt>
<pdfrwt beam="1">  1       21 0.69726118E-02 0.17600125E+03</pdfrwt>
<pdfrwt beam="2">  1       21 0.10521747E+00 0.17600125E+03</pdfrwt>
<totfact> 0.11146714E+05</totfact>
</mgrwt>
</event>
<event>
 4    2  0.4039581E+000  0.1856077E+03  0.7546771E-02  0.1162484E+00
         21   -1    0    0  501  502  0.00000000000E+00  0.00000000000E+00  0.51702055274E+02  0.51702055274E+02  0.00000000000E+00 0. -1.
         21   -1    0    0  502  503 -0.00000000000E+00 -0.00000000000E+00 -0.10467677766E+04  0.10467677766E+04  0.00000000000E+00 0. -1.
          6    1    1    2  501    0 -0.62220925480E+02  0.25490779002E+02 -0.16641753867E+03  0.24928903016E+03  0.17300000000E+03 0. -1.
         -6    1    1    2    0  503  0.62220925480E+02 -0.25490779002E+02 -0.82864818269E+03  0.84918080175E+03  0.17300000000E+03 0. -1.
<mgrwt>
<rscale>  2 0.18560771E+03</rscale>
<asrwt>0</asrwt>
<pdfrwt beam="1">  1       21 0.79541618E-02 0.18560771E+03</pdfrwt>
<pdfrwt beam="2">  1       21 0.16104121E+00 0.18560771E+03</pdfrwt>
<totfact> 0.30113037E+04</totfact>
</mgrwt>
</event>
<event>
 4    2  0.4039581E+000  0.1782769E+03  0.7546771E-02  0.1169481E+00
         21   -1    0    0  503  502  0.00000000000E+00  0.00000000000E+00  0.15777681809E+03  0.15777681809E+03  0.00000000000E+00 0.  1.
         21   -1    0    0  501  503 -0.00000000000E+00 -0.00000000000E+00 -0.46529831666E+03  0.46529831666E+03  0.00000000000E+00 0.  1.
          6    1    1    2  501    0  0.32260079153E+02 -0.28512250588E+02 -0.38836158862E+03  0.42732585302E+03  0.17300000000E+03 0.  1.
         -6    1    1    2    0  502 -0.32260079153E+02  0.28512250588E+02  0.80840090052E+02  0.19574928174E+03  0.17300000000E+03 0.  1.
<mgrwt>
<rscale>  2 0.17827692E+03</rscale>
<asrwt>0</asrwt>
<pdfrwt beam="1">  1       21 0.24273357E-01 0.17827692E+03</pdfrwt>
<pdfrwt beam="2">  1       21 0.71584356E-01 0.17827692E+03</pdfrwt>
<totfact> 0.28483333E+04</totfact>
</mgrwt>
</event>
<event>
 4    2  0.4039581E+000  0.1957979E+03  0.7546771E-02  0.1153334E+00
         21   -1    0    0  501  502  0.00000000000E+00  0.00000000000E+00  0.78911599575E+02  0.78911599575E+02  0.00000000000E+00 0. -1.
         21   -1    0    0  502  503 -0.00000000000E+00 -0.00000000000E+00 -0.94638679175E+03  0.94638679175E+03  0.00000000000E+00 0.  1.
          6    1    1    2  501    0  0.74882653858E+02  0.52918973890E+02 -0.76108967440E+02  0.21006999922E+03  0.17300000000E+03 0. -1.
         -6    1    1    2    0  503 -0.74882653858E+02 -0.52918973890E+02 -0.79136622474E+03  0.81522839211E+03  0.17300000000E+03 0.  1.
<mgrwt>
<rscale>  2 0.19579793E+03</rscale>
<asrwt>0</asrwt>
<pdfrwt beam="1">  1       21 0.12140245E-01 0.19579793E+03</pdfrwt>
<pdfrwt beam="2">  1       21 0.14559798E+00 0.19579793E+03</pdfrwt>
<totfact> 0.18535054E+04</totfact>
</mgrwt>
</event>
<event>
 4    2  0.4039581E+000  0.1918808E+03  0.7546771E-02  0.1156776E+00
         21   -1    0    0  501  502  0.00000000000E+00  0.00000000000E+00  0.19382640804E+03  0.19382640804E+03  0.00000000000E+00 0.  1.
         21   -1    0    0  502  503 -0.00000000000E+00 -0.00000000000E+00 -0.24482066941E+03  0.24482066941E+03  0.00000000000E+00 0.  1.
          6    1    1    2  501    0 -0.76606666172E+02  0.31948027728E+02  0.78330349004E+02  0.20725323002E+03  0.17300000000E+03 0.  1.
         -6    1    1    2    0  503  0.76606666172E+02 -0.31948027728E+02 -0.12932461037E+03  0.23139384742E+03  0.17300000000E+03 0.  1.
<mgrwt>
<rscale>  2 0.19188084E+03</rscale>
<asrwt>0</asrwt>
<pdfrwt beam="1">  1       21 0.29819447E-01 0.19188084E+03</pdfrwt>
<pdfrwt beam="2">  1       21 0.37664718E-01 0.19188084E+03</pdfrwt>
<totfact> 0.73328415E+04</totfact>
</mgrwt>
</event>
<event>
 4    2  0.4039581E+000  0.2192460E+03  0.7546771E-02  0.1134446E+00
         21   -1    0    0  503  502  0.00000000000E+00  0.00000000000E+00  0.19174045379E+03  0.19174045379E+03  0.00000000000E+00 0. -1.
         21   -1    0    0  501  503 -0.00000000000E+00 -0.00000000000E+00 -0.26587337262E+03  0.26587337262E+03  0.00000000000E+00 0.  1.
          6    1    1    2  501    0  0.13468303409E+03 -0.55420498857E+00 -0.91731599643E+02  0.23766260368E+03  0.17300000000E+03 0. -1.
         -6    1    1    2    0  502 -0.13468303409E+03  0.55420498857E+00  0.17598680805E+02  0.21995122273E+03  0.17300000000E+03 0.  1.
<mgrwt>
<rscale>  2 0.21924604E+03</rscale>
<asrwt>0</asrwt>
<pdfrwt beam="1">  1       21 0.29498532E-01 0.21924604E+03</pdfrwt>
<pdfrwt beam="2">  1       21 0.40903596E-01 0.21924604E+03</pdfrwt>
<totfact> 0.62648091E+04</totfact>
</mgrwt>
</event>
<event>
 4    2  0.4039581E+000  0.1913437E+03  0.7546771E-02  0.1157255E+00
         21   -1    0    0  503  502  0.00000000000E+00  0.00000000000E+00  0.49710884166E+02  0.49710884166E+02  0.00000000000E+00 0.  1.
         21   -1    0    0  501  503 -0.00000000000E+00 -0.00000000000E+00 -0.80262136556E+03  0.80262136556E+03  0.00000000000E+00 0.  1.
          6    1    1    2  501    0  0.15551446254E+02  0.80259277359E+02 -0.49876820206E+03  0.53421167946E+03  0.17300000000E+03 0.  1.
         -6    1    1    2    0  502 -0.15551446254E+02 -0.80259277359E+02 -0.25414227933E+03  0.31812057026E+03  0.17300000000E+03 0.  1.
<mgrwt>
<rscale>  2 0.19134367E+03</rscale>
<asrwt>0</asrwt>
<pdfrwt beam="1">  1       21 0.76478287E-02 0.19134367E+03</pdfrwt>
<pdfrwt beam="2">  1       21 0.12348020E+00 0.19134367E+03</pdfrwt>
<totfact> 0.63869075E+04</totfact>
</mgrwt>
</event>
<event>
 4    2  0.4039581E+000  0.1919273E+03  0.7546771E-02  0.1156734E+00
         21   -1    0    0  501  502  0.00000000000E+00  0.00000000000E+00  0.21760618521E+03  0.21760618521E+03  0.00000000000E+00 0. -1.
         21   -1    0    0  502  503 -0.00000000000E+00 -0.00000000000E+00 -0.16931546472E+03  0.16931546472E+03  0.00000000000E+00 0. -1.
          6    1    1    2  501    0  0.18015061252E+02  0.81132823978E+02  0.26998715573E+02  0.19381694508E+03  0.17300000000E+03 0. -1.
         -6    1    1    2    0  503 -0.18015061252E+02 -0.81132823978E+02  0.21292004914E+02  0.19310470484E+03  0.17300000000E+03 0. -1.
<mgrwt>
<rscale>  2 0.19192727E+03</rscale>
<asrwt>0</asrwt>
<pdfrwt beam="1">  1       21 0.33477875E-01 0.19192727E+03</pdfrwt>
<pdfrwt beam="2">  1       21 0.26048533E-01 0.19192727E+03</pdfrwt>
<totfact> 0.12035957E+05</totfact>
</mgrwt>
</event>
<event>
 4    2  0.4039581E+000  0.1814177E+03  0.7546771E-02  0.1166438E+00
         21   -1    0    0  501  502  0.00000000000E+00  0.00000000000E+00  0.71598979617E+02  0.71598979617E+02  0.00000000000E+00 0.  1.
         21   -1    0    0  502  503 -0.00000000000E+00 -0.00000000000E+00 -0.50530379692E+03  0.50530379692E+03  0.00000000000E+00 0.  1.
          6    1    1    2  501    0 -0.53865987126E+02  0.90468630213E+01 -0.13017473148E+03  0.22328871672E+03  0.17300000000E+03 0.  1.
         -6    1    1    2    0  503  0.53865987126E+02 -0.90468630213E+01 -0.30353008582E+03  0.35361405981E+03  0.17300000000E+03 0.  1.
<mgrwt>
<rscale>  2 0.18141772E+03</rscale>
<asrwt>0</asrwt>
<pdfrwt beam="1">  1       21 0.11015228E-01 0.18141772E+03</pdfrwt>
<pdfrwt beam="2">  1       21 0.77739044E-01 0.18141772E+03</pdfrwt>
<totfact> 0.10074391E+05</totfact>
</mgrwt>
</event>
<event>
 4    2  0.4039581E+000  0.2001458E+03  0.7546771E-02  0.1149616E+00
         21   -1    0    0  501  502  0.00000000000E+00  0.00000000000E+00  0.24192107013E+03  0.24192107013E+03  0.00000000000E+00 0. -1.
         21   -1    0    0  502  503 -0.00000000000E+00 -0.00000000000E+00 -0.38564523650E+03  0.38564523650E+03  0.00000000000E+00 0. -1.
          6    1    1    2  501    0 -0.24206941487E+02  0.97690191317E+02  0.16516994936E+03  0.25949848105E+03  0.17300000000E+03 0. -1.
         -6    1    1    2    0  503  0.24206941487E+02 -0.97690191317E+02 -0.30889411573E+03  0.36806782558E+03  0.17300000000E+03 0. -1.
<mgrwt>
<rscale>  2 0.20014582E+03</rscale>
<asrwt>0</asrwt>
<pdfrwt beam="1">  1       21 0.37218626E-01 0.20014582E+03</pdfrwt>
<pdfrwt beam="2">  1       21 0.59330036E-01 0.20014582E+03</pdfrwt>
<totfact> 0.18395967E+04</totfact>
</mgrwt>
</event>
<event>
 4    2  0.4039581E+000  0.1738451E+03  0.7546771E-02  0.1173896E+00
         21   -1    0    0  501  502  0.00000000000E+00  0.00000000000E+00  0.21376436737E+03  0.21376436737E+03  0.00000000000E+00 0.  1.
         21   -1    0    0  502  503 -0.00000000000E+00 -0.00000000000E+00 -0.15112148625E+03  0.15112148625E+03  0.00000000000E+00 0.  1.
          6    1    1    2  501    0 -0.14679678487E+02  0.88102360884E+01  0.77641102329E+02  0.19039499466E+03  0.17300000000E+03 0.  1.
         -6    1    1    2    0  503  0.14679678487E+02 -0.88102360884E+01 -0.14998221210E+02  0.17449085896E+03  0.17300000000E+03 0.  1.
<mgrwt>
<rscale>  2 0.17384508E+03</rscale>
<asrwt>0</asrwt>
<pdfrwt beam="1">  1       21 0.32886826E-01 0.17384508E+03</pdfrwt>
<pdfrwt beam="2">  1       21 0.23249459E-01 0.17384508E+03</pdfrwt>
<totfact> 0.15571090E+05</totfact>
</mgrwt>
</event>
<event>
 4    2  0.4039581E+000  0.2198384E+03  0.7546771E-02  0.1134004E+00
         21   -1    0    0  501  502  0.00000000000E+00  0.00000000000E+00  0.20909556160E+03  0.20909556160E+03  0.00000000000E+00 0.  1.
         21   -1    0    0  502  503 -0.00000000000E+00 -0.00000000000E+00 -0.24593980079E+03  0.24593980079E+03  0.00000000000E+00 0. -1.
          6    1    1    2  501    0  0.47102136716E+02  0.12720577045E+03  0.37402903933E+02  0.22299752586E+03  0.17300000000E+03 0.  1.
         -6    1    1    2    0  503 -0.47102136716E+02 -0.12720577045E+03 -0.74247143126E+02  0.23203783653E+03  0.17300000000E+03 0. -1.
<mgrwt>
<rscale>  2 0.21983839E+03</rscale>
<asrwt>0</asrwt>
<pdfrwt beam="1">  1       21 0.32168548E-01 0.21983839E+03</pdfrwt>
<pdfrwt beam="2">  1       21 0.37836892E-01 0.21983839E+03</pdfrwt>
<totfact> 0.61862903E+04</totfact>
</mgrwt>
</event>
<event>
 4    2  0.4039581E+000  0.2025451E+03  0.7546771E-02  0.1147609E+00
         21   -1    0    0  501  502  0.00000000000E+00  0.00000000000E+00  0.12304899951E+03  0.12304899951E+03  0.00000000000E+00 0.  1.
         21   -1    0    0  502  503 -0.00000000000E+00 -0.00000000000E+00 -0.76039007326E+03  0.76039007326E+03  0.00000000000E+00 0.  1.
          6    1    1    2  501    0  0.10447652305E+03  0.13422416960E+02  0.12336637534E+02  0.20292042226E+03  0.17300000000E+03 0.  1.
         -6    1    1    2    0  503 -0.10447652305E+03 -0.13422416960E+02 -0.64967771128E+03  0.68051865051E+03  0.17300000000E+03 0.  1.
<mgrwt>
<rscale>  2 0.20254507E+03</rscale>
<asrwt>0</asrwt>
<pdfrwt beam="1">  1       21 0.18930615E-01 0.20254507E+03</pdfrwt>
<pdfrwt beam="2">  1       21 0.11698309E+00 0.20254507E+03</pdfrwt>
<totfact> 0.14282808E+04</totfact>
</mgrwt>
</event>
<event>
 4    2  0.4039581E+000  0.2284389E+03  0.7546771E-02  0.1127743E+00
         21   -1    0    0  503  502  0.00000000000E+00  0.00000000000E+00  0.35303456132E+03  0.35303456132E+03  0.00000000000E+00 0.  1.
         21   -1    0    0  501  503 -0.00000000000E+00 -0.00000000000E+00 -0.16367004365E+03  0.16367004365E+03  0.00000000000E+00 0.  1.
          6    1    1    2  501    0  0.13977614122E+03 -0.52134070447E+02  0.17508872992E+03  0.28782007279E+03  0.17300000000E+03 0.  1.
         -6    1    1    2    0  502 -0.13977614122E+03  0.52134070447E+02  0.14275787750E+02  0.22888453218E+03  0.17300000000E+03 0.  1.
<mgrwt>
<rscale>  2 0.22843890E+03</rscale>
<asrwt>0</asrwt>
<pdfrwt beam="1">  1       21 0.54313009E-01 0.22843890E+03</pdfrwt>
<pdfrwt beam="2">  1       21 0.25180007E-01 0.22843890E+03</pdfrwt>
<totfact> 0.47052177E+04</totfact>
</mgrwt>
</event>
<event>
 4    2  0.4039581E+000  0.2180983E+03  0.7546771E-02  0.1135309E+00
         21   -1    0    0  503  502  0.00000000000E+00  0.00000000000E+00  0.40861740058E+03  0.40861740058E+03  0.00000000000E+00 0.  1.
         21   -1    0    0  501  503 -0.00000000000E+00 -0.00000000000E+00 -0.16727021351E+03  0.16727021351E+03  0.00000000000E+00 0.  1.
          6    1    1    2  501    0  0.11973046778E+03 -0.57467319870E+02 -0.38104428480E+02  0.22140195401E+03  0.17300000000E+03 0.  1.
         -6    1    1    2    0  502 -0.11973046778E+03  0.57467319870E+02  0.27945161556E+03  0.35448566008E+03  0.17300000000E+03 0.  1.
<mgrwt>
<rscale>  2 0.21809832E+03</rscale>
<asrwt>0</asrwt>
<pdfrwt beam="1">  1       21 0.62864215E-01 0.21809832E+03</pdfrwt>
<pdfrwt beam="2">  1       21 0.25733879E-01 0.21809832E+03</pdfrwt>
<totfact> 0.33136802E+04</totfact>
</mgrwt>
</event>
<event>
 4    2  0.4039581E+000  0.2053189E+03  0.7546771E-02  0.1145327E+00
         21   -1    0    0  503  502  0.00000000000E+00  0.00000000000E+00  0.20248123397E+03  0.20248123397E+03  0.00000000000E+00 0.  1.
         21   -1    0    0  501  503 -0.00000000000E+00 -0.00000000000E+00 -0.26167968522E+03  0.26167968522E+03  0.00000000000E+00 0.  1.
          6    1    1    2  501    0 -0.33428037031E+02 -0.10540121125E+03 -0.13452034371E+03  0.24546195605E+03  0.17300000000E+03 0.  1.
         -6    1    1    2    0  502  0.33428037031E+02  0.10540121125E+03  0.75321892465E+02  0.21869896314E+03  0.17300000000E+03 0.  1.
<mgrwt>
<rscale>  2 0.20531890E+03</rscale>
<asrwt>0</asrwt>
<pdfrwt beam="1">  1       21 0.31150959E-01 0.20531890E+03</pdfrwt>
<pdfrwt beam="2">  1       21 0.40258413E-01 0.20531890E+03</pdfrwt>
<totfact> 0.58518719E+04</totfact>
</mgrwt>
</event>
<event>
 4    2  0.4039581E+000  0.2413836E+03  0.7546771E-02  0.1118875E+00
         21   -1    0    0  503  502  0.00000000000E+00  0.00000000000E+00  0.72755789374E+03  0.72755789374E+03  0.00000000000E+00 0.  1.
         21   -1    0    0  501  503 -0.00000000000E+00 -0.00000000000E+00 -0.94820099652E+02  0.94820099652E+02  0.00000000000E+00 0.  1.
          6    1    1    2  501    0 -0.14759086436E+03 -0.80956529312E+02  0.15427115881E+03  0.28647096419E+03  0.17300000000E+03 0.  1.
         -6    1    1    2    0  502  0.14759086436E+03  0.80956529312E+02  0.47846663528E+03  0.53590702921E+03  0.17300000000E+03 0.  1.
<mgrwt>
<rscale>  2 0.24138356E+03</rscale>
<asrwt>0</asrwt>
<pdfrwt beam="1">  1       21 0.11193198E+00 0.24138356E+03</pdfrwt>
<pdfrwt beam="2">  1       21 0.14587708E-01 0.24138356E+03</pdfrwt>
<totfact> 0.25144166E+04</totfact>
</mgrwt>
</event>
<event>
 4    2  0.4039581E+000  0.1769762E+03  0.7546771E-02  0.1170762E+00
         21   -1    0    0  503  502  0.00000000000E+00  0.00000000000E+00  0.17427570571E+03  0.17427570571E+03  0.00000000000E+00 0. -1.
         21   -1    0    0  501  503 -0.00000000000E+00 -0.00000000000E+00 -0.26131295253E+03  0.26131295253E+03  0.00000000000E+00 0. -1.
          6    1    1    2  501    0 -0.35782911667E+02 -0.10543940744E+02 -0.16522016056E+03  0.24211214945E+03  0.17300000000E+03 0. -1.
         -6    1    1    2    0  502  0.35782911667E+02  0.10543940744E+02  0.78182913748E+02  0.19347650880E+03  0.17300000000E+03 0. -1.
<mgrwt>
<rscale>  2 0.17697625E+03</rscale>
<asrwt>0</asrwt>
<pdfrwt beam="1">  1       21 0.26811647E-01 0.17697625E+03</pdfrwt>
<pdfrwt beam="2">  1       21 0.40201992E-01 0.17697625E+03</pdfrwt>
<totfact> 0.79490674E+04</totfact>
</mgrwt>
</event>
<event>
 4    2  0.4039581E+000  0.1821503E+03  0.7546771E-02  0.1165738E+00
         21   -1    0    0  503  502  0.00000000000E+00  0.00000000000E+00  0.41398245634E+03  0.41398245634E+03  0.00000000000E+00 0. -1.
         21   -1    0    0  501  503 -0.00000000000E+00 -0.00000000000E+00 -0.10474811337E+03  0.10474811337E+03  0.00000000000E+00 0. -1.
          6    1    1    2  501    0  0.28204669446E+02 -0.49540030418E+02  0.28918186355E+02  0.18443150353E+03  0.17300000000E+03 0. -1.
         -6    1    1    2    0  502 -0.28204669446E+02  0.49540030418E+02  0.28031615661E+03  0.33429906618E+03  0.17300000000E+03 0. -1.
<mgrwt>
<rscale>  2 0.18215026E+03</rscale>
<asrwt>0</asrwt>
<pdfrwt beam="1">  1       21 0.63689608E-01 0.18215026E+03</pdfrwt>
<pdfrwt beam="2">  1       21 0.16115095E-01 0.18215026E+03</pdfrwt>
<totfact> 0.78739328E+04</totfact>
</mgrwt>
</event>
<event>
 4    2  0.4039581E+000  0.2908728E+03  0.7546771E-02  0.1089894E+00
         21   -1    0    0  501  502  0.00000000000E+00  0.00000000000E+00  0.32669485707E+03  0.32669485707E+03  0.00000000000E+00 0.  1.
         21   -1    0    0  502  503 -0.00000000000E+00 -0.00000000000E+00 -0.28044098561E+03  0.28044098561E+03  0.00000000000E+00 0. -1.
          6    1    1    2  501    0 -0.16625513671E+03  0.16443000943E+03  0.10710646907E+03  0.30996579521E+03  0.17300000000E+03 0. -1.
         -6    1    1    2    0  503  0.16625513671E+03 -0.16443000943E+03 -0.60852597600E+02  0.29717004747E+03  0.17300000000E+03 0. -1.
<mgrwt>
<rscale>  2 0.29087282E+03</rscale>
<asrwt>0</asrwt>
<pdfrwt beam="1">  1       21 0.50260747E-01 0.29087282E+03</pdfrwt>
<pdfrwt beam="2">  1       21 0.43144767E-01 0.29087282E+03</pdfrwt>
<totfact> 0.18519796E+04</totfact>
</mgrwt>
</event>
<event>
 4    2  0.4039581E+000  0.1750813E+03  0.7546771E-02  0.1172650E+00
         21   -1    0    0  501  502  0.00000000000E+00  0.00000000000E+00  0.15077865729E+03  0.15077865729E+03  0.00000000000E+00 0. -1.
         21   -1    0    0  502  503 -0.00000000000E+00 -0.00000000000E+00 -0.20331262588E+03  0.20331262588E+03  0.00000000000E+00 0. -1.
          6    1    1    2  501    0  0.22926956049E+02  0.14099927614E+02 -0.24928743761E+02  0.17684709649E+03  0.17300000000E+03 0. -1.
         -6    1    1    2    0  503 -0.22926956049E+02 -0.14099927614E+02 -0.27605224828E+02  0.17724418668E+03  0.17300000000E+03 0. -1.
<mgrwt>
<rscale>  2 0.17508128E+03</rscale>
<asrwt>0</asrwt>
<pdfrwt beam="1">  1       21 0.23196717E-01 0.17508128E+03</pdfrwt>
<pdfrwt beam="2">  1       21 0.31278865E-01 0.17508128E+03</pdfrwt>
<totfact> 0.17245037E+05</totfact>
</mgrwt>
</event>
<event>
 4    2  0.4039581E+000  0.2448543E+03  0.7546771E-02  0.1116601E+00
         21   -1    0    0  503  502  0.00000000000E+00  0.00000000000E+00  0.31485212793E+03  0.31485212793E+03  0.00000000000E+00 0.  1.
         21   -1    0    0  501  503 -0.00000000000E+00 -0.00000000000E+00 -0.23223713038E+03  0.23223713038E+03  0.00000000000E+00 0.  1.
          6    1    1    2  501    0 -0.10478664887E+03  0.13800141265E+03 -0.74769961446E+02  0.25601597374E+03  0.17300000000E+03 0.  1.
         -6    1    1    2    0  502  0.10478664887E+03 -0.13800141265E+03  0.15738495900E+03  0.29107328457E+03  0.17300000000E+03 0.  1.
<mgrwt>
<rscale>  2 0.24485431E+03</rscale>
<asrwt>0</asrwt>
<pdfrwt beam="1">  1       21 0.48438789E-01 0.24485431E+03</pdfrwt>
<pdfrwt beam="2">  1       21 0.35728789E-01 0.24485431E+03</pdfrwt>
<totfact> 0.29944285E+04</totfact>
</mgrwt>
</event>
<event>
 4    2  0.4039581E+000  0.2374240E+03  0.7546771E-02  0.1121521E+00
         21   -1    0    0  503  502  0.00000000000E+00  0.00000000000E+00  0.33297095651E+02  0.33297095651E+02  0.00000000000E+00 0.  1.
         21   -1    0    0  501  503 -0.00000000000E+00 -0.00000000000E+00 -0.25156313829E+04  0.25156313829E+04  0.00000000000E+00 0.  1.
          6    1    1    2  501    0 -0.15800002740E+03  0.38433535850E+02 -0.19699889462E+04  0.19842445901E+04  0.17300000000E+03 0.  1.
         -6    1    1    2    0  502  0.15800002740E+03 -0.38433535850E+02 -0.51234534102E+03  0.56468388838E+03  0.17300000000E+03 0.  1.
<mgrwt>
<rscale>  2 0.23742398E+03</rscale>
<asrwt>0</asrwt>
<pdfrwt beam="1">  1       21 0.51226276E-02 0.23742398E+03</pdfrwt>
<pdfrwt beam="2">  1       21 0.38702040E+00 0.23742398E+03</pdfrwt>
<totfact> 0.25537359E+03</totfact>
</mgrwt>
</event>
<event>
 4    2  0.4039581E+000  0.2130210E+03  0.7546771E-02  0.1139196E+00
         21   -1    0    0  501  502  0.00000000000E+00  0.00000000000E+00  0.19758770316E+03  0.19758770316E+03  0.00000000000E+00 0. -1.
         21   -1    0    0  502  503 -0.00000000000E+00 -0.00000000000E+00 -0.29462754903E+03  0.29462754903E+03  0.00000000000E+00 0. -1.
          6    1    1    2  501    0 -0.37744878145E+02 -0.11842407529E+03  0.67048066477E+02  0.22332348881E+03  0.17300000000E+03 0. -1.
         -6    1    1    2    0  503  0.37744878145E+02  0.11842407529E+03 -0.16408791235E+03  0.26889176338E+03  0.17300000000E+03 0. -1.
<mgrwt>
<rscale>  2 0.21302098E+03</rscale>
<asrwt>0</asrwt>
<pdfrwt beam="1">  1       21 0.30398108E-01 0.21302098E+03</pdfrwt>
<pdfrwt beam="2">  1       21 0.45327315E-01 0.21302098E+03</pdfrwt>
<totfact> 0.48009895E+04</totfact>
</mgrwt>
</event>
<event>
 4    2  0.4039581E+000  0.2211746E+03  0.7546771E-02  0.1133010E+00
         21   -1    0    0  501  502  0.00000000000E+00  0.00000000000E+00  0.11295926018E+03  0.11295926018E+03  0.00000000000E+00 0. -1.
         21   -1    0    0  502  503 -0.00000000000E+00 -0.00000000000E+00 -0.43732239766E+03  0.43732239766E+03  0.00000000000E+00 0. -1.
          6    1    1    2  501    0  0.12420198041E+03 -0.59691463971E+02 -0.13502020458E+03  0.25913058186E+03  0.17300000000E+03 0. -1.
         -6    1    1    2    0  503 -0.12420198041E+03  0.59691463971E+02 -0.18934293289E+03  0.29115107598E+03  0.17300000000E+03 0. -1.
<mgrwt>
<rscale>  2 0.22117460E+03</rscale>
<asrwt>0</asrwt>
<pdfrwt beam="1">  1       21 0.17378347E-01 0.22117460E+03</pdfrwt>
<pdfrwt beam="2">  1       21 0.67280370E-01 0.22117460E+03</pdfrwt>
<totfact> 0.59772493E+04</totfact>
</mgrwt>
</event>
<event>
 4    2  0.4039581E+000  0.2284158E+03  0.7546771E-02  0.1127760E+00
         21   -1    0    0  503  502  0.00000000000E+00  0.00000000000E+00  0.62602146492E+03  0.62602146492E+03  0.00000000000E+00 0. -1.
         21   -1    0    0  501  503 -0.00000000000E+00 -0.00000000000E+00 -0.83559102314E+02  0.83559102314E+02  0.00000000000E+00 0. -1.
          6    1    1    2  501    0  0.39386675185E+02  0.14385228838E+03  0.25314067981E+03  0.34096040068E+03  0.17300000000E+03 0. -1.
         -6    1    1    2    0  502 -0.39386675185E+02 -0.14385228838E+03  0.28932168279E+03  0.36862016655E+03  0.17300000000E+03 0. -1.
<mgrwt>
<rscale>  2 0.22841583E+03</rscale>
<asrwt>0</asrwt>
<pdfrwt beam="1">  1       21 0.96310992E-01 0.22841583E+03</pdfrwt>
<pdfrwt beam="2">  1       21 0.12855247E-01 0.22841583E+03</pdfrwt>
<totfact> 0.45705948E+04</totfact>
</mgrwt>
</event>
<event>
 4    2  0.4039581E+000  0.2185959E+03  0.7546771E-02  0.1134934E+00
         21   -1    0    0  501  502  0.00000000000E+00  0.00000000000E+00  0.79607541631E+02  0.79607541631E+02  0.00000000000E+00 0. -1.
         21   -1    0    0  502  503 -0.00000000000E+00 -0.00000000000E+00 -0.73517050790E+03  0.73517050790E+03  0.00000000000E+00 0. -1.
          6    1    1    2  501    0  0.13292824138E+03  0.13610798172E+02 -0.15325576278E+03  0.26696722647E+03  0.17300000000E+03 0. -1.
         -6    1    1    2    0  503 -0.13292824138E+03 -0.13610798172E+02 -0.50230720349E+03  0.54781082306E+03  0.17300000000E+03 0. -1.
<mgrwt>
<rscale>  2 0.21859591E+03</rscale>
<asrwt>0</asrwt>
<pdfrwt beam="1">  1       21 0.12247314E-01 0.21859591E+03</pdfrwt>
<pdfrwt beam="2">  1       21 0.11310316E+00 0.21859591E+03</pdfrwt>
<totfact> 0.34046768E+04</totfact>
</mgrwt>
</event>
<event>
 4    2  0.4039581E+000  0.1823487E+03  0.7546771E-02  0.1165549E+00
         21   -1    0    0  501  502  0.00000000000E+00  0.00000000000E+00  0.33269991908E+03  0.33269991908E+03  0.00000000000E+00 0.  1.
         21   -1    0    0  502  503 -0.00000000000E+00 -0.00000000000E+00 -0.13455682255E+03  0.13455682255E+03  0.00000000000E+00 0.  1.
          6    1    1    2  501    0  0.45343746757E+01 -0.57458579975E+02  0.21756575156E+03  0.28387656687E+03  0.17300000000E+03 0.  1.
         -6    1    1    2    0  503 -0.45343746757E+01  0.57458579975E+02 -0.19422655022E+02  0.18338017476E+03  0.17300000000E+03 0.  1.
<mgrwt>
<rscale>  2 0.18234870E+03</rscale>
<asrwt>0</asrwt>
<pdfrwt beam="1">  1       21 0.51184603E-01 0.18234870E+03</pdfrwt>
<pdfrwt beam="2">  1       21 0.20701050E-01 0.18234870E+03</pdfrwt>
<totfact> 0.78861291E+04</totfact>
</mgrwt>
</event>
<event>
 4    2  0.4039581E+000  0.2047733E+03  0.7546771E-02  0.1145773E+00
         21   -1    0    0  503  502  0.00000000000E+00  0.00000000000E+00  0.23408891397E+03  0.23408891397E+03  0.00000000000E+00 0.  1.
         21   -1    0    0  501  503 -0.00000000000E+00 -0.00000000000E+00 -0.48232561021E+03  0.48232561021E+03  0.00000000000E+00 0.  1.
          6    1    1    2  501    0  0.10927978273E+03 -0.78131524804E+01 -0.40812360970E+03  0.45661471402E+03  0.17300000000E+03 0.  1.
         -6    1    1    2    0  502 -0.10927978273E+03  0.78131524804E+01  0.15988691346E+03  0.25979981016E+03  0.17300000000E+03 0.  1.
<mgrwt>
<rscale>  2 0.20477333E+03</rscale>
<asrwt>0</asrwt>
<pdfrwt beam="1">  1       21 0.36013679E-01 0.20477333E+03</pdfrwt>
<pdfrwt beam="2">  1       21 0.74203940E-01 0.20477333E+03</pdfrwt>
<totfact> 0.12008407E+04</totfact>
</mgrwt>
</event>
<event>
 4    2  0.4039581E+000  0.1922527E+03  0.7546771E-02  0.1156445E+00
         21   -1    0    0  501  502  0.00000000000E+00  0.00000000000E+00  0.10682023009E+03  0.10682023009E+03  0.00000000000E+00 0. -1.
         21   -1    0    0  502  503 -0.00000000000E+00 -0.00000000000E+00 -0.38123267441E+03  0.38123267441E+03  0.00000000000E+00 0.  1.
          6    1    1    2  501    0 -0.63912178724E+02  0.54289239682E+02 -0.63034169784E+02  0.20232250170E+03  0.17300000000E+03 0. -1.
         -6    1    1    2    0  503  0.63912178724E+02 -0.54289239682E+02 -0.21137827454E+03  0.28573040280E+03  0.17300000000E+03 0.  1.
<mgrwt>
<rscale>  2 0.19225267E+03</rscale>
<asrwt>0</asrwt>
<pdfrwt beam="1">  1       21 0.16433882E-01 0.19225267E+03</pdfrwt>
<pdfrwt beam="2">  1       21 0.58651181E-01 0.19225267E+03</pdfrwt>
<totfact> 0.90342528E+04</totfact>
</mgrwt>
</event>
<event>
 4    2  0.4039581E+000  0.1744820E+03  0.7546771E-02  0.1173253E+00
         21   -1    0    0  501  502  0.00000000000E+00  0.00000000000E+00  0.35816141639E+02  0.35816141639E+02  0.00000000000E+00 0. -1.
         21   -1    0    0  502  503 -0.00000000000E+00 -0.00000000000E+00 -0.11487876714E+04  0.11487876714E+04  0.00000000000E+00 0. -1.
          6    1    1    2  501    0 -0.69623264096E+01 -0.21598129303E+02 -0.25442114476E+03  0.30850295312E+03  0.17300000000E+03 0. -1.
         -6    1    1    2    0  503  0.69623264096E+01  0.21598129303E+02 -0.85855038500E+03  0.87610085993E+03  0.17300000000E+03 0. -1.
<mgrwt>
<rscale>  2 0.17448196E+03</rscale>
<asrwt>0</asrwt>
<pdfrwt beam="1">  1       21 0.55101760E-02 0.17448196E+03</pdfrwt>
<pdfrwt beam="2">  1       21 0.17673655E+00 0.17448196E+03</pdfrwt>
<totfact> 0.44189986E+04</totfact>
</mgrwt>
</event>
<event>
 4    2  0.4039581E+000  0.1947385E+03  0.7546771E-02  0.1154256E+00
         21   -1    0    0  503  502  0.00000000000E+00  0.00000000000E+00  0.25061099308E+03  0.25061099308E+03  0.00000000000E+00 0.  1.
         21   -1    0    0  501  503 -0.00000000000E+00 -0.00000000000E+00 -0.19723902866E+03  0.19723902866E+03  0.00000000000E+00 0.  1.
          6    1    1    2  501    0  0.73863805672E+02 -0.50380797801E+02 -0.81355519963E+02  0.21104930041E+03  0.17300000000E+03 0.  1.
         -6    1    1    2    0  502 -0.73863805672E+02  0.50380797801E+02  0.13472748438E+03  0.23680072133E+03  0.17300000000E+03 0.  1.
<mgrwt>
<rscale>  2 0.19473851E+03</rscale>
<asrwt>0</asrwt>
<pdfrwt beam="1">  1       21 0.38555538E-01 0.19473851E+03</pdfrwt>
<pdfrwt beam="2">  1       21 0.30344466E-01 0.19473851E+03</pdfrwt>
<totfact> 0.67542909E+04</totfact>
</mgrwt>
</event>
<event>
 4    2  0.4039581E+000  0.2154267E+03  0.7546771E-02  0.1137339E+00
         21   -1    0    0  503  502  0.00000000000E+00  0.00000000000E+00  0.29228445963E+03  0.29228445963E+03  0.00000000000E+00 0. -1.
         21   -1    0    0  501  503 -0.00000000000E+00 -0.00000000000E+00 -0.53568103877E+03  0.53568103877E+03  0.00000000000E+00 0.  1.
          6    1    1    2  501    0 -0.67934062753E+02  0.10892480304E+03 -0.46894914179E+03  0.51606389835E+03  0.17300000000E+03 0.  1.
         -6    1    1    2    0  502  0.67934062753E+02 -0.10892480304E+03  0.22555256265E+03  0.31190160005E+03  0.17300000000E+03 0. -1.
<mgrwt>
<rscale>  2 0.21542667E+03</rscale>
<asrwt>0</asrwt>
<pdfrwt beam="1">  1       21 0.44966840E-01 0.21542667E+03</pdfrwt>
<pdfrwt beam="2">  1       21 0.82412467E-01 0.21542667E+03</pdfrwt>
<totfact> 0.60000879E+03</totfact>
</mgrwt>
</event>
<event>
 4    2  0.4039581E+000  0.2394562E+03  0.7546771E-02  0.1120156E+00
         21   -1    0    0  501  502  0.00000000000E+00  0.00000000000E+00  0.10385990900E+03  0.10385990900E+03  0.00000000000E+00 0. -1.
         21   -1    0    0  502  503 -0.00000000000E+00 -0.00000000000E+00 -0.56216681859E+03  0.56216681859E+03  0.00000000000E+00 0. -1.
          6    1    1    2  501    0 -0.10559969813E+02  0.16522331668E+03 -0.18455206714E+03  0.30232221689E+03  0.17300000000E+03 0. -1.
         -6    1    1    2    0  503  0.10559969813E+02 -0.16522331668E+03 -0.27375484245E+03  0.36370451070E+03  0.17300000000E+03 0. -1.
<mgrwt>
<rscale>  2 0.23945617E+03</rscale>
<asrwt>0</asrwt>
<pdfrwt beam="1">  1       21 0.15978447E-01 0.23945617E+03</pdfrwt>
<pdfrwt beam="2">  1       21 0.86487204E-01 0.23945617E+03</pdfrwt>
<totfact> 0.39329558E+04</totfact>
</mgrwt>
</event>
<event>
 4    2  0.4039581E+000  0.1748882E+03  0.7546771E-02  0.1172844E+00
         21   -1    0    0  501  502  0.00000000000E+00  0.00000000000E+00  0.70776342527E+03  0.70776342527E+03  0.00000000000E+00 0.  1.
         21   -1    0    0  502  503 -0.00000000000E+00 -0.00000000000E+00 -0.55170996984E+02  0.55170996984E+02  0.00000000000E+00 0.  1.
          6    1    1    2  501    0 -0.60826004474E+01  0.24897389539E+02  0.50387772010E+03  0.53336538587E+03  0.17300000000E+03 0. -1.
         -6    1    1    2    0  503  0.60826004474E+01 -0.24897389539E+02  0.14871470819E+03  0.22956903638E+03  0.17300000000E+03 0. -1.
<mgrwt>
<rscale>  2 0.17488819E+03</rscale>
<asrwt>0</asrwt>
<pdfrwt beam="1">  1       21 0.10888667E+00 0.17488819E+03</pdfrwt>
<pdfrwt beam="2">  1       21 0.84878462E-02 0.17488819E+03</pdfrwt>
<totfact> 0.73047938E+04</totfact>
</mgrwt>
</event>
<event>
 4    2  0.4039581E+000  0.3731020E+03  0.7546771E-02  0.1053513E+00
         21   -1    0    0  501  502  0.00000000000E+00  0.00000000000E+00  0.91434075152E+03  0.91434075152E+03  0.00000000000E+00 0.  1.
         21   -1    0    0  502  503 -0.00000000000E+00 -0.00000000000E+00 -0.17568365387E+03  0.17568365387E+03  0.00000000000E+00 0.  1.
          6    1    1    2  501    0 -0.12740151194E+03  0.30503273759E+03  0.17026413826E+03  0.41011582879E+03  0.17300000000E+03 0.  1.
         -6    1    1    2    0  503  0.12740151194E+03 -0.30503273759E+03  0.56839295940E+03  0.67990857660E+03  0.17300000000E+03 0.  1.
<mgrwt>
<rscale>  2 0.37310202E+03</rscale>
<asrwt>0</asrwt>
<pdfrwt beam="1">  1       21 0.14066780E+00 0.37310202E+03</pdfrwt>
<pdfrwt beam="2">  1       21 0.27028255E-01 0.37310202E+03</pdfrwt>
<totfact> 0.41311505E+03</totfact>
</mgrwt>
</event>
<event>
 4    2  0.4039581E+000  0.1767277E+03  0.7546771E-02  0.1171008E+00
         21   -1    0    0  503  502  0.00000000000E+00  0.00000000000E+00  0.24763308170E+03  0.24763308170E+03  0.00000000000E+00 0. -1.
         21   -1    0    0  501  503 -0.00000000000E+00 -0.00000000000E+00 -0.18344963063E+03  0.18344963063E+03  0.00000000000E+00 0. -1.
          6    1    1    2  501    0 -0.20092792860E+02 -0.29999536863E+02 -0.88396131448E+02  0.19760204602E+03  0.17300000000E+03 0. -1.
         -6    1    1    2    0  502  0.20092792860E+02  0.29999536863E+02  0.15257958252E+03  0.23348066630E+03  0.17300000000E+03 0. -1.
<mgrwt>
<rscale>  2 0.17672774E+03</rscale>
<asrwt>0</asrwt>
<pdfrwt beam="1">  1       21 0.38097397E-01 0.17672774E+03</pdfrwt>
<pdfrwt beam="2">  1       21 0.28223020E-01 0.17672774E+03</pdfrwt>
<totfact> 0.80238689E+04</totfact>
</mgrwt>
</event>
<event>
 4    2  0.4039581E+000  0.1911592E+03  0.7546771E-02  0.1157420E+00
         21   -1    0    0  503  502  0.00000000000E+00  0.00000000000E+00  0.61006797928E+03  0.61006797928E+03  0.00000000000E+00 0.  1.
         21   -1    0    0  501  503 -0.00000000000E+00 -0.00000000000E+00 -0.73863826351E+02  0.73863826351E+02  0.00000000000E+00 0.  1.
          6    1    1    2  501    0  0.38350562655E+02  0.71708270296E+02  0.11940566712E+03  0.22538756626E+03  0.17300000000E+03 0.  1.
         -6    1    1    2    0  502 -0.38350562655E+02 -0.71708270296E+02  0.41679848582E+03  0.45854423938E+03  0.17300000000E+03 0.  1.
<mgrwt>
<rscale>  2 0.19115921E+03</rscale>
<asrwt>0</asrwt>
<pdfrwt beam="1">  1       21 0.93856609E-01 0.19115921E+03</pdfrwt>
<pdfrwt beam="2">  1       21 0.11363666E-01 0.19115921E+03</pdfrwt>
<totfact> 0.61679674E+04</totfact>
</mgrwt>
</event>
<event>
 4    2  0.4039581E+000  0.2036595E+03  0.7546771E-02  0.1146688E+00
         21   -1    0    0  501  502  0.00000000000E+00  0.00000000000E+00  0.12813665043E+03  0.12813665043E+03  0.00000000000E+00 0.  1.
         21   -1    0    0  502  503 -0.00000000000E+00 -0.00000000000E+00 -0.36653933975E+03  0.36653933975E+03  0.00000000000E+00 0.  1.
          6    1    1    2  501    0 -0.56696995045E+02 -0.91288832452E+02 -0.34639006015E+02  0.20658427074E+03  0.17300000000E+03 0.  1.
         -6    1    1    2    0  503  0.56696995045E+02  0.91288832452E+02 -0.20376368330E+03  0.28809171944E+03  0.17300000000E+03 0.  1.
<mgrwt>
<rscale>  2 0.20365952E+03</rscale>
<asrwt>0</asrwt>
<pdfrwt beam="1">  1       21 0.19713331E-01 0.20365952E+03</pdfrwt>
<pdfrwt beam="2">  1       21 0.56390668E-01 0.20365952E+03</pdfrwt>
<totfact> 0.69806978E+04</totfact>
</mgrwt>
</event>
<event>
 4    2  0.4039581E+000  0.2440669E+03  0.7546771E-02  0.1117113E+00
         21   -1    0    0  503  502  0.00000000000E+00  0.00000000000E+00  0.55940838266E+02  0.55940838266E+02  0.00000000000E+00 0. -1.
         21   -1    0    0  501  503 -0.00000000000E+00 -0.00000000000E+00 -0.16772348346E+04  0.16772348346E+04  0.00000000000E+00 0.  1.
          6    1    1    2  501    0  0.98019354606E+01  0.17188248974E+03 -0.13342805226E+04  0.13564192498E+04  0.17300000000E+03 0.  1.
         -6    1    1    2    0  502 -0.98019354606E+01 -0.17188248974E+03 -0.28701347371E+03  0.37675642305E+03  0.17300000000E+03 0. -1.
<mgrwt>
<rscale>  2 0.24406693E+03</rscale>
<asrwt>0</asrwt>
<pdfrwt beam="1">  1       21 0.86062824E-02 0.24406693E+03</pdfrwt>
<pdfrwt beam="2">  1       21 0.25803614E+00 0.24406693E+03</pdfrwt>
<totfact> 0.60078802E+03</totfact>
</mgrwt>
</event>
<event>
 4    2  0.4039581E+000  0.1944232E+03  0.7546771E-02  0.1154531E+00
         21   -1    0    0  503  502  0.00000000000E+00  0.00000000000E+00  0.73906245544E+03  0.73906245544E+03  0.00000000000E+00 0. -1.
         21   -1    0    0  501  503 -0.00000000000E+00 -0.00000000000E+00 -0.29066302741E+03  0.29066302741E+03  0.00000000000E+00 0.  1.
          6    1    1    2  501    0  0.88369259381E+02 -0.78894529015E+01 -0.24317414741E+03  0.31134231232E+03  0.17300000000E+03 0.  1.
         -6    1    1    2    0  502 -0.88369259381E+02  0.78894529015E+01  0.69157357543E+03  0.71838317053E+03  0.17300000000E+03 0. -1.
<mgrwt>
<rscale>  2 0.19442317E+03</rscale>
<asrwt>0</asrwt>
<pdfrwt beam="1">  1       21 0.11370192E+00 0.19442317E+03</pdfrwt>
<pdfrwt beam="2">  1       21 0.44717389E-01 0.19442317E+03</pdfrwt>
<totfact> 0.28887886E+03</totfact>
</mgrwt>
</event>
<event>
 4    2  0.4039581E+000  0.1784975E+03  0.7546771E-02  0.1169265E+00
         21   -1    0    0  503  502  0.00000000000E+00  0.00000000000E+00  0.17375324755E+03  0.17375324755E+03  0.00000000000E+00 0.  1.
         21   -1    0    0  501  503 -0.00000000000E+00 -0.00000000000E+00 -0.21765183897E+03  0.21765183897E+03  0.00000000000E+00 0.  1.
          6    1    1    2  501    0 -0.42985983563E+02  0.91963000935E+01 -0.99616707739E+02  0.20441344178E+03  0.17300000000E+03 0.  1.
         -6    1    1    2    0  502  0.42985983563E+02 -0.91963000935E+01  0.55718116321E+02  0.18699164475E+03  0.17300000000E+03 0.  1.
<mgrwt>
<rscale>  2 0.17849753E+03</rscale>
<asrwt>0</asrwt>
<pdfrwt beam="1">  1       21 0.26731269E-01 0.17849753E+03</pdfrwt>
<pdfrwt beam="2">  1       21 0.33484898E-01 0.17849753E+03</pdfrwt>
<totfact> 0.11502463E+05</totfact>
</mgrwt>
</event>
<event>
 4    2  0.4039581E+000  0.1769871E+03  0.7546771E-02  0.1170751E+00
         21   -1    0    0  501  502  0.00000000000E+00  0.00000000000E+00  0.51544587982E+02  0.51544587982E+02  0.00000000000E+00 0. -1.
         21   -1    0    0  502  503 -0.00000000000E+00 -0.00000000000E+00 -0.76477109027E+03  0.76477109027E+03  0.00000000000E+00 0. -1.
          6    1    1    2  501    0 -0.54431637168E+01  0.36956832330E+02 -0.17164833190E+03  0.24655138477E+03  0.17300000000E+03 0. -1.
         -6    1    1    2    0  503  0.54431637168E+01 -0.36956832330E+02 -0.54157817039E+03  0.56976429349E+03  0.17300000000E+03 0. -1.
<mgrwt>
<rscale>  2 0.17698711E+03</rscale>
<asrwt>0</asrwt>
<pdfrwt beam="1">  1       21 0.79299363E-02 0.17698711E+03</pdfrwt>
<pdfrwt beam="2">  1       21 0.11765709E+00 0.17698711E+03</pdfrwt>
<totfact> 0.68071190E+04</totfact>
</mgrwt>
</event>
<event>
 4    2  0.4039581E+000  0.3293254E+03  0.7546771E-02  0.1071436E+00
         21   -1    0    0  501  502  0.00000000000E+00  0.00000000000E+00  0.21422397533E+03  0.21422397533E+03  0.00000000000E+00 0.  1.
         21   -1    0    0  502  503 -0.00000000000E+00 -0.00000000000E+00 -0.50822334559E+03  0.50822334559E+03  0.00000000000E+00 0. -1.
          6    1    1    2  501    0 -0.20382750520E+03  0.19230333044E+03 -0.12460669580E+03  0.35211085103E+03  0.17300000000E+03 0.  1.
         -6    1    1    2    0  503  0.20382750520E+03 -0.19230333044E+03 -0.16939267446E+03  0.37033646989E+03  0.17300000000E+03 0. -1.
<mgrwt>
<rscale>  2 0.32932541E+03</rscale>
<asrwt>0</asrwt>
<pdfrwt beam="1">  1       21 0.32957535E-01 0.32932541E+03</pdfrwt>
<pdfrwt beam="2">  1       21 0.78188206E-01 0.32932541E+03</pdfrwt>
<totfact> 0.11955248E+04</totfact>
</mgrwt>
</event>
<event>
 4    2  0.4039581E+000  0.1778052E+03  0.7546771E-02  0.1169944E+00
         21   -1    0    0  501  502  0.00000000000E+00  0.00000000000E+00  0.38115813967E+03  0.38115813967E+03  0.00000000000E+00 0. -1.
         21   -1    0    0  502  503 -0.00000000000E+00 -0.00000000000E+00 -0.10668111247E+03  0.10668111247E+03  0.00000000000E+00 0. -1.
          6    1    1    2  501    0  0.32120755072E+02 -0.25572240012E+02  0.25229716580E+03  0.30865602576E+03  0.17300000000E+03 0.  1.
         -6    1    1    2    0  503 -0.32120755072E+02  0.25572240012E+02  0.22179861407E+02  0.17918322638E+03  0.17300000000E+03 0.  1.
<mgrwt>
<rscale>  2 0.17780518E+03</rscale>
<asrwt>0</asrwt>
<pdfrwt beam="1">  1       21 0.58639713E-01 0.17780518E+03</pdfrwt>
<pdfrwt beam="2">  1       21 0.16412479E-01 0.17780518E+03</pdfrwt>
<totfact> 0.91111396E+04</totfact>
</mgrwt>
</event>
<event>
 4    2  0.4039581E+000  0.1876735E+03  0.7546771E-02  0.1160577E+00
         21   -1    0    0  501  502  0.00000000000E+00  0.00000000000E+00  0.16982506427E+03  0.16982506427E+03  0.00000000000E+00 0.  1.
         21   -1    0    0  502  503 -0.00000000000E+00 -0.00000000000E+00 -0.13217882750E+04  0.13217882750E+04  0.00000000000E+00 0.  1.
          6    1    1    2  501    0 -0.33616671514E+02 -0.64515560750E+02  0.10881881539E+03  0.21693979065E+03  0.17300000000E+03 0.  1.
         -6    1    1    2    0  503  0.33616671514E+02  0.64515560750E+02 -0.12607820261E+04  0.12746735486E+04  0.17300000000E+03 0.  1.
<mgrwt>
<rscale>  2 0.18767349E+03</rscale>
<asrwt>0</asrwt>
<pdfrwt beam="1">  1       21 0.26126933E-01 0.18767349E+03</pdfrwt>
<pdfrwt beam="2">  1       21 0.20335204E+00 0.18767349E+03</pdfrwt>
<totfact> 0.17888055E+03</totfact>
</mgrwt>
</event>
<event>
 4    2  0.4039581E+000  0.2192475E+03  0.7546771E-02  0.1134445E+00
         21   -1    0    0  501  502  0.00000000000E+00  0.00000000000E+00  0.25245501377E+03  0.25245501377E+03  0.00000000000E+00 0. -1.
         21   -1    0    0  502  503 -0.00000000000E+00 -0.00000000000E+00 -0.40316544604E+03  0.40316544604E+03  0.00000000000E+00 0. -1.
          6    1    1    2  501    0  0.82966728772E+02  0.10609892954E+03  0.16277977143E+03  0.27306906621E+03  0.17300000000E+03 0. -1.
         -6    1    1    2    0  503 -0.82966728772E+02 -0.10609892954E+03 -0.31349020370E+03  0.38255139361E+03  0.17300000000E+03 0. -1.
<mgrwt>
<rscale>  2 0.21924749E+03</rscale>
<asrwt>0</asrwt>
<pdfrwt beam="1">  1       21 0.38839233E-01 0.21924749E+03</pdfrwt>
<pdfrwt beam="2">  1       21 0.62025453E-01 0.21924749E+03</pdfrwt>
<totfact> 0.15168815E+04</totfact>
</mgrwt>
</event>
<event>
 4    2  0.4039581E+000  0.1818458E+03  0.7546771E-02  0.1166029E+00
         21   -1    0    0  501  502  0.00000000000E+00  0.00000000000E+00  0.13600024679E+03  0.13600024679E+03  0.00000000000E+00 0.  1.
         21   -1    0    0  502  503 -0.00000000000E+00 -0.00000000000E+00 -0.28347069316E+03  0.28347069316E+03  0.00000000000E+00 0.  1.
          6    1    1    2  501    0 -0.90403775668E+01 -0.55291655612E+02  0.53698149441E+01  0.18192506842E+03  0.17300000000E+03 0.  1.
         -6    1    1    2    0  503  0.90403775668E+01  0.55291655612E+02 -0.15284026131E+03  0.23754587154E+03  0.17300000000E+03 0.  1.
<mgrwt>
<rscale>  2 0.18184580E+03</rscale>
<asrwt>0</asrwt>
<pdfrwt beam="1">  1       21 0.20923115E-01 0.18184580E+03</pdfrwt>
<pdfrwt beam="2">  1       21 0.43610875E-01 0.18184580E+03</pdfrwt>
<totfact> 0.10761932E+05</totfact>
</mgrwt>
</event>
<event>
 4    2  0.4039581E+000  0.2053635E+03  0.7546771E-02  0.1145291E+00
         21   -1    0    0  503  502  0.00000000000E+00  0.00000000000E+00  0.28793505411E+02  0.28793505411E+02  0.00000000000E+00 0. -1.
         21   -1    0    0  501  503 -0.00000000000E+00 -0.00000000000E+00 -0.15142967010E+04  0.15142967010E+04  0.00000000000E+00 0. -1.
          6    1    1    2  501    0 -0.60095401810E+02 -0.92917682001E+02 -0.60313541607E+03  0.63713929643E+03  0.17300000000E+03 0. -1.
         -6    1    1    2    0  502  0.60095401810E+02  0.92917682001E+02 -0.88236777947E+03  0.90595090993E+03  0.17300000000E+03 0. -1.
<mgrwt>
<rscale>  2 0.20536347E+03</rscale>
<asrwt>0</asrwt>
<pdfrwt beam="1">  1       21 0.44297710E-02 0.20536347E+03</pdfrwt>
<pdfrwt beam="2">  1       21 0.23296867E+00 0.20536347E+03</pdfrwt>
<totfact> 0.27427764E+04</totfact>
</mgrwt>
</event>
<event>
 4    2  0.4039581E+000  0.2388402E+03  0.7546771E-02  0.1120568E+00
         21   -1    0    0  503  502  0.00000000000E+00  0.00000000000E+00  0.74631030897E+03  0.74631030897E+03  0.00000000000E+00 0.  1.
         21   -1    0    0  501  503 -0.00000000000E+00 -0.00000000000E+00 -0.30713301485E+03  0.30713301485E+03  0.00000000000E+00 0.  1.
          6    1    1    2  501    0  0.56300803292E+02  0.15474451018E+03 -0.23690982983E+03  0.33640884553E+03  0.17300000000E+03 0.  1.
         -6    1    1    2    0  502 -0.56300803292E+02 -0.15474451018E+03  0.67608712395E+03  0.71703447829E+03  0.17300000000E+03 0.  1.
<mgrwt>
<rscale>  2 0.23884021E+03</rscale>
<asrwt>0</asrwt>
<pdfrwt beam="1">  1       21 0.11481697E+00 0.23884021E+03</pdfrwt>
<pdfrwt beam="2">  1       21 0.47251233E-01 0.23884021E+03</pdfrwt>
<totfact> 0.24277483E+03</totfact>
</mgrwt>
</event>
<event>
 4    2  0.4039581E+000  0.2616460E+03  0.7546771E-02  0.1106158E+00
         21   -1    0    0  503  502  0.00000000000E+00  0.00000000000E+00  0.65116599321E+02  0.65116599321E+02  0.00000000000E+00 0.  1.
         21   -1    0    0  501  503 -0.00000000000E+00 -0.00000000000E+00 -0.10719817787E+04  0.10719817787E+04  0.00000000000E+00 0.  1.
          6    1    1    2  501    0 -0.66702524136E+02 -0.18460881457E+03 -0.58235794762E+03  0.63843513398E+03  0.17300000000E+03 0.  1.
         -6    1    1    2    0  502  0.66702524136E+02  0.18460881457E+03 -0.42450723177E+03  0.49866324405E+03  0.17300000000E+03 0.  1.
<mgrwt>
<rscale>  2 0.26164602E+03</rscale>
<asrwt>0</asrwt>
<pdfrwt beam="1">  1       21 0.10017938E-01 0.26164602E+03</pdfrwt>
<pdfrwt beam="2">  1       21 0.16492028E+00 0.26164602E+03</pdfrwt>
<totfact> 0.17961346E+04</totfact>
</mgrwt>
</event>
<event>
 4    2  0.4039581E+000  0.1829410E+03  0.7546771E-02  0.1164987E+00
         21   -1    0    0  503  502  0.00000000000E+00  0.00000000000E+00  0.15014817365E+03  0.15014817365E+03  0.00000000000E+00 0.  1.
         21   -1    0    0  501  503 -0.00000000000E+00 -0.00000000000E+00 -0.83345560141E+03  0.83345560141E+03  0.00000000000E+00 0. -1.
          6    1    1    2  501    0 -0.56341421987E+02 -0.19080210936E+02 -0.76258676691E+03  0.78422317445E+03  0.17300000000E+03 0. -1.
         -6    1    1    2    0  502  0.56341421987E+02  0.19080210936E+02  0.79279339148E+02  0.19938060060E+03  0.17300000000E+03 0.  1.
<mgrwt>
<rscale>  2 0.18294100E+03</rscale>
<asrwt>0</asrwt>
<pdfrwt beam="1">  1       21 0.23099719E-01 0.18294100E+03</pdfrwt>
<pdfrwt beam="2">  1       21 0.12822394E+00 0.18294100E+03</pdfrwt>
<totfact> 0.79363457E+03</totfact>
</mgrwt>
</event>
<event>
 4    2  0.4039581E+000  0.2598316E+03  0.7546771E-02  0.1107244E+00
         21   -1    0    0  501  502  0.00000000000E+00  0.00000000000E+00  0.75434337606E+03  0.75434337606E+03  0.00000000000E+00 0. -1.
         21   -1    0    0  502  503 -0.00000000000E+00 -0.00000000000E+00 -0.10737829108E+03  0.10737829108E+03  0.00000000000E+00 0. -1.
          6    1    1    2  501    0 -0.12944966852E+03  0.14431297790E+03  0.14766492845E+03  0.29886014014E+03  0.17300000000E+03 0. -1.
         -6    1    1    2    0  503  0.12944966852E+03 -0.14431297790E+03  0.49930015653E+03  0.56286152701E+03  0.17300000000E+03 0. -1.
<mgrwt>
<rscale>  2 0.25983158E+03</rscale>
<asrwt>0</asrwt>
<pdfrwt beam="1">  1       21 0.11605282E+00 0.25983158E+03</pdfrwt>
<pdfrwt beam="2">  1       21 0.16519738E-01 0.25983158E+03</pdfrwt>
<totfact> 0.18141430E+04</totfact>
</mgrwt>
</event>
<event>
 4    2  0.4039581E+000  0.1829634E+03  0.7546771E-02  0.1164965E+00
         21   -1    0    0  501  502  0.00000000000E+00  0.00000000000E+00  0.24939540707E+04  0.24939540707E+04  0.00000000000E+00 0. -1.
         21   -1    0    0  502  503 -0.00000000000E+00 -0.00000000000E+00 -0.30381484342E+02  0.30381484342E+02  0.00000000000E+00 0. -1.
          6    1    1    2  501    0  0.55556813046E+02 -0.21449000925E+02  0.21747822730E+04  0.21824650179E+04  0.17300000000E+03 0. -1.
         -6    1    1    2    0  503 -0.55556813046E+02  0.21449000925E+02  0.28879031332E+03  0.34187053717E+03  0.17300000000E+03 0. -1.
<mgrwt>
<rscale>  2 0.18296344E+03</rscale>
<asrwt>0</asrwt>
<pdfrwt beam="1">  1       21 0.38368508E+00 0.18296344E+03</pdfrwt>
<pdfrwt beam="2">  1       21 0.46740765E-02 0.18296344E+03</pdfrwt>
<totfact> 0.33571542E+03</totfact>
</mgrwt>
</event>
<event>
 4    2  0.4039581E+000  0.1979362E+03  0.7546771E-02  0.1151492E+00
         21   -1    0    0  503  502  0.00000000000E+00  0.00000000000E+00  0.79589262901E+03  0.79589262901E+03  0.00000000000E+00 0.  1.
         21   -1    0    0  501  503 -0.00000000000E+00 -0.00000000000E+00 -0.49484085397E+02  0.49484085397E+02  0.00000000000E+00 0.  1.
          6    1    1    2  501    0 -0.86800896259E+02  0.41416694236E+02  0.40372074190E+03  0.44963226707E+03  0.17300000000E+03 0.  1.
         -6    1    1    2    0  502  0.86800896259E+02 -0.41416694236E+02  0.34268780171E+03  0.39574444733E+03  0.17300000000E+03 0.  1.
<mgrwt>
<rscale>  2 0.19793620E+03</rscale>
<asrwt>0</asrwt>
<pdfrwt beam="1">  1       21 0.12244501E+00 0.19793620E+03</pdfrwt>
<pdfrwt beam="2">  1       21 0.76129368E-02 0.19793620E+03</pdfrwt>
<totfact> 0.65525623E+04</totfact>
</mgrwt>
</event>
<event>
 4    2  0.4039581E+000  0.2000291E+03  0.7546771E-02  0.1149714E+00
         21   -1    0    0  501  502  0.00000000000E+00  0.00000000000E+00  0.55504885454E+02  0.55504885454E+02  0.00000000000E+00 0.  1.
         21   -1    0    0  502  503 -0.00000000000E+00 -0.00000000000E+00 -0.79690623261E+03  0.79690623261E+03  0.00000000000E+00 0.  1.
          6    1    1    2  501    0 -0.47378918742E+02  0.88531885031E+02 -0.23904683691E+03  0.31169704337E+03  0.17300000000E+03 0.  1.
         -6    1    1    2    0  503  0.47378918742E+02 -0.88531885031E+02 -0.50235451025E+03  0.54071407469E+03  0.17300000000E+03 0.  1.
<mgrwt>
<rscale>  2 0.20002914E+03</rscale>
<asrwt>0</asrwt>
<pdfrwt beam="1">  1       21 0.85392143E-02 0.20002914E+03</pdfrwt>
<pdfrwt beam="2">  1       21 0.12260094E+00 0.20002914E+03</pdfrwt>
<totfact> 0.53413318E+04</totfact>
</mgrwt>
</event>
<event>
 4    2  0.4039581E+000  0.1862253E+03  0.7546771E-02  0.1161911E+00
         21   -1    0    0  503  502  0.00000000000E+00  0.00000000000E+00  0.26635430249E+02  0.26635430249E+02  0.00000000000E+00 0. -1.
         21   -1    0    0  501  503 -0.00000000000E+00 -0.00000000000E+00 -0.21151790071E+04  0.21151790071E+04  0.00000000000E+00 0.  1.
          6    1    1    2  501    0 -0.55773445864E+02 -0.40498974408E+02 -0.17082689276E+04  0.17183895289E+04  0.17300000000E+03 0.  1.
         -6    1    1    2    0  502  0.55773445864E+02  0.40498974408E+02 -0.38027464924E+03  0.42342490839E+03  0.17300000000E+03 0. -1.
<mgrwt>
<rscale>  2 0.18622525E+03</rscale>
<asrwt>0</asrwt>
<pdfrwt beam="1">  1       21 0.40977573E-02 0.18622525E+03</pdfrwt>
<pdfrwt beam="2">  1       21 0.32541225E+00 0.18622525E+03</pdfrwt>
<totfact> 0.92319030E+03</totfact>
</mgrwt>
</event>
<event>
 4    2  0.4039581E+000  0.2227288E+03  0.7546771E-02  0.1131865E+00
         21   -1    0    0  501  502  0.00000000000E+00  0.00000000000E+00  0.34700766207E+03  0.34700766207E+03  0.00000000000E+00 0. -1.
         21   -1    0    0  502  503 -0.00000000000E+00 -0.00000000000E+00 -0.17961480838E+03  0.17961480838E+03  0.00000000000E+00 0. -1.
          6    1    1    2  501    0  0.12574477618E+03 -0.62188062812E+02  0.20264677037E+03  0.30112093490E+03  0.17300000000E+03 0. -1.
         -6    1    1    2    0  503 -0.12574477618E+03  0.62188062812E+02 -0.35253916677E+02  0.22550153555E+03  0.17300000000E+03 0. -1.
<mgrwt>
<rscale>  2 0.22272877E+03</rscale>
<asrwt>0</asrwt>
<pdfrwt beam="1">  1       21 0.53385794E-01 0.22272877E+03</pdfrwt>
<pdfrwt beam="2">  1       21 0.27633047E-01 0.22272877E+03</pdfrwt>
<totfact> 0.40899387E+04</totfact>
</mgrwt>
</event>
<event>
 4    2  0.4039581E+000  0.2027779E+03  0.7546771E-02  0.1147416E+00
         21   -1    0    0  503  502  0.00000000000E+00  0.00000000000E+00  0.31868228651E+02  0.31868228651E+02  0.00000000000E+00 0. -1.
         21   -1    0    0  501  503 -0.00000000000E+00 -0.00000000000E+00 -0.13064344863E+04  0.13064344863E+04  0.00000000000E+00 0. -1.
          6    1    1    2  501    0 -0.10502604042E+03  0.12625197004E+02 -0.71169770924E+03  0.74002195514E+03  0.17300000000E+03 0. -1.
         -6    1    1    2    0  502  0.10502604042E+03 -0.12625197004E+02 -0.56286854846E+03  0.59828075985E+03  0.17300000000E+03 0. -1.
<mgrwt>
<rscale>  2 0.20277787E+03</rscale>
<asrwt>0</asrwt>
<pdfrwt beam="1">  1       21 0.49028058E-02 0.20277787E+03</pdfrwt>
<pdfrwt beam="2">  1       21 0.20098987E+00 0.20277787E+03</pdfrwt>
<totfact> 0.36540483E+04</totfact>
</mgrwt>
</event>
<event>
 4    2  0.4039581E+000  0.1736762E+03  0.7546771E-02  0.1174068E+00
         21   -1    0    0  503  502  0.00000000000E+00  0.00000000000E+00  0.61027583064E+02  0.61027583064E+02  0.00000000000E+00 0. -1.
         21   -1    0    0  501  503 -0.00000000000E+00 -0.00000000000E+00 -0.63304724571E+03  0.63304724571E+03  0.00000000000E+00 0. -1.
          6    1    1    2  501    0 -0.15290802529E+02 -0.77531709881E+00 -0.44850301775E+03  0.48095568058E+03  0.17300000000E+03 0. -1.
         -6    1    1    2    0  502  0.15290802529E+02  0.77531709881E+00 -0.12351664490E+03  0.21311914819E+03  0.17300000000E+03 0. -1.
<mgrwt>
<rscale>  2 0.17367616E+03</rscale>
<asrwt>0</asrwt>
<pdfrwt beam="1">  1       21 0.93888589E-02 0.17367616E+03</pdfrwt>
<pdfrwt beam="2">  1       21 0.97391885E-01 0.17367616E+03</pdfrwt>
<totfact> 0.79912544E+04</totfact>
</mgrwt>
</event>
<event>
 4    2  0.4039581E+000  0.2520146E+03  0.7546771E-02  0.1112038E+00
         21   -1    0    0  501  502  0.00000000000E+00  0.00000000000E+00  0.64177129764E+03  0.64177129764E+03  0.00000000000E+00 0.  1.
         21   -1    0    0  502  503 -0.00000000000E+00 -0.00000000000E+00 -0.26793389633E+03  0.26793389633E+03  0.00000000000E+00 0. -1.
          6    1    1    2  501    0  0.37364050778E+02 -0.17940539577E+03  0.54813163449E+03  0.60329069034E+03  0.17300000000E+03 0.  1.
         -6    1    1    2    0  503 -0.37364050778E+02  0.17940539577E+03 -0.17429423317E+03  0.30641450364E+03  0.17300000000E+03 0. -1.
<mgrwt>
<rscale>  2 0.25201462E+03</rscale>
<asrwt>0</asrwt>
<pdfrwt beam="1">  1       21 0.98734045E-01 0.25201462E+03</pdfrwt>
<pdfrwt beam="2">  1       21 0.41220600E-01 0.25201462E+03</pdfrwt>
<totfact> 0.45951842E+03</totfact>
</mgrwt>
</event>
<event>
 4    2  0.4039581E+000  0.1763945E+03  0.7546771E-02  0.1171339E+00
         21   -1    0    0  501  502  0.00000000000E+00  0.00000000000E+00  0.17400182581E+04  0.17400182581E+04  0.00000000000E+00 0.  1.
         21   -1    0    0  502  503 -0.00000000000E+00 -0.00000000000E+00 -0.18039034465E+02  0.18039034465E+02  0.00000000000E+00 0. -1.
          6    1    1    2  501    0  0.33594487513E+02  0.75779767203E+01  0.94300339687E+03  0.95935938096E+03  0.17300000000E+03 0.  1.
         -6    1    1    2    0  503 -0.33594487513E+02 -0.75779767203E+01  0.77897582678E+03  0.79869791162E+03  0.17300000000E+03 0.  1.
<mgrwt>
<rscale>  2 0.17639449E+03</rscale>
<asrwt>0</asrwt>
<pdfrwt beam="1">  1       21 0.26769498E+00 0.17639449E+03</pdfrwt>
<pdfrwt beam="2">  1       21 0.27752374E-02 0.17639449E+03</pdfrwt>
<totfact> 0.38262677E+04</totfact>
</mgrwt>
</event>
<event>
 4    2  0.4039581E+000  0.2016407E+03  0.7546771E-02  0.1148362E+00
         21   -1    0    0  501  502  0.00000000000E+00  0.00000000000E+00  0.58385300556E+03  0.58385300556E+03  0.00000000000E+00 0. -1.
         21   -1    0    0  502  503 -0.00000000000E+00 -0.00000000000E+00 -0.88815621617E+02  0.88815621617E+02  0.00000000000E+00 0. -1.
          6    1    1    2  501    0 -0.74687546202E+02  0.71775635053E+02  0.40380176002E+03  0.45134779576E+03  0.17300000000E+03 0. -1.
         -6    1    1    2    0  503  0.74687546202E+02 -0.71775635053E+02  0.91235623921E+02  0.22132083141E+03  0.17300000000E+03 0. -1.
<mgrwt>
<rscale>  2 0.20164070E+03</rscale>
<asrwt>0</asrwt>
<pdfrwt beam="1">  1       21 0.89823537E-01 0.20164070E+03</pdfrwt>
<pdfrwt beam="2">  1       21 0.13663942E-01 0.20164070E+03</pdfrwt>
<totfact> 0.48810885E+04</totfact>
</mgrwt>
</event>
<event>
 4    2  0.4039581E+000  0.1747957E+03  0.7546771E-02  0.1172937E+00
         21   -1    0    0  501  502  0.00000000000E+00  0.00000000000E+00  0.19832232058E+03  0.19832232058E+03  0.00000000000E+00 0.  1.
         21   -1    0    0  502  503 -0.00000000000E+00 -0.00000000000E+00 -0.16311065742E+03  0.16311065742E+03  0.00000000000E+00 0.  1.
          6    1    1    2  501    0  0.16926456335E+02 -0.18385496967E+02  0.60175210495E+02  0.18486369947E+03  0.17300000000E+03 0.  1.
         -6    1    1    2    0  503 -0.16926456335E+02  0.18385496967E+02 -0.24963547336E+02  0.17656927852E+03  0.17300000000E+03 0.  1.
<mgrwt>
<rscale>  2 0.17479568E+03</rscale>
<asrwt>0</asrwt>
<pdfrwt beam="1">  1       21 0.30511126E-01 0.17479568E+03</pdfrwt>
<pdfrwt beam="2">  1       21 0.25093947E-01 0.17479568E+03</pdfrwt>
<totfact> 0.15594369E+05</totfact>
</mgrwt>
</event>
<event>
 4    2  0.4039581E+000  0.2894839E+03  0.7546771E-02  0.1090619E+00
         21   -1    0    0  501  502  0.00000000000E+00  0.00000000000E+00  0.39738296477E+03  0.39738296477E+03  0.00000000000E+00 0. -1.
         21   -1    0    0  502  503 -0.00000000000E+00 -0.00000000000E+00 -0.21408952178E+03  0.21408952178E+03  0.00000000000E+00 0.  1.
          6    1    1    2  501    0  0.10559017869E+02  0.23186301580E+03  0.12906879047E+03  0.31695378784E+03  0.17300000000E+03 0.  1.
         -6    1    1    2    0  503 -0.10559017869E+02 -0.23186301580E+03  0.54224652522E+02  0.29451869872E+03  0.17300000000E+03 0. -1.
<mgrwt>
<rscale>  2 0.28948394E+03</rscale>
<asrwt>0</asrwt>
<pdfrwt beam="1">  1       21 0.61135841E-01 0.28948394E+03</pdfrwt>
<pdfrwt beam="2">  1       21 0.32936849E-01 0.28948394E+03</pdfrwt>
<totfact> 0.21043157E+04</totfact>
</mgrwt>
</event>
<event>
 4    2  0.4039581E+000  0.2115374E+03  0.7546771E-02  0.1140354E+00
         21   -1    0    0  501  502  0.00000000000E+00  0.00000000000E+00  0.29354401833E+03  0.29354401833E+03  0.00000000000E+00 0. -1.
         21   -1    0    0  502  503 -0.00000000000E+00 -0.00000000000E+00 -0.16202680099E+03  0.16202680099E+03  0.00000000000E+00 0. -1.
          6    1    1    2  501    0 -0.11747745582E+03  0.31907803330E+02  0.10353080983E+02  0.21179057303E+03  0.17300000000E+03 0. -1.
         -6    1    1    2    0  503  0.11747745582E+03 -0.31907803330E+02  0.12116413636E+03  0.24378024629E+03  0.17300000000E+03 0. -1.
<mgrwt>
<rscale>  2 0.21153737E+03</rscale>
<asrwt>0</asrwt>
<pdfrwt beam="1">  1       21 0.45160618E-01 0.21153737E+03</pdfrwt>
<pdfrwt beam="2">  1       21 0.24927200E-01 0.21153737E+03</pdfrwt>
<totfact> 0.71056623E+04</totfact>
</mgrwt>
</event>
<event>
 4    2  0.4039581E+000  0.1732974E+03  0.7546771E-02  0.1174452E+00
         21   -1    0    0  503  502  0.00000000000E+00  0.00000000000E+00  0.24398310408E+03  0.24398310408E+03  0.00000000000E+00 0. -1.
         21   -1    0    0  501  503 -0.00000000000E+00 -0.00000000000E+00 -0.14864493056E+03  0.14864493056E+03  0.00000000000E+00 0. -1.
          6    1    1    2  501    0 -0.45998896015E+01 -0.90455022910E+01 -0.33728238754E+02  0.17654907019E+03  0.17300000000E+03 0. -1.
         -6    1    1    2    0  502  0.45998896015E+01  0.90455022910E+01  0.12906641228E+03  0.21607896444E+03  0.17300000000E+03 0. -1.
<mgrwt>
<rscale>  2 0.17329737E+03</rscale>
<asrwt>0</asrwt>
<pdfrwt beam="1">  1       21 0.37535862E-01 0.17329737E+03</pdfrwt>
<pdfrwt beam="2">  1       21 0.22868451E-01 0.17329737E+03</pdfrwt>
<totfact> 0.12365616E+05</totfact>
</mgrwt>
</event>
<event>
 4    2  0.4039581E+000  0.1848064E+03  0.7546771E-02  0.1163231E+00
         21   -1    0    0  501  502  0.00000000000E+00  0.00000000000E+00  0.50953139126E+02  0.50953139126E+02  0.00000000000E+00 0.  1.
         21   -1    0    0  502  503 -0.00000000000E+00 -0.00000000000E+00 -0.77371161327E+03  0.77371161327E+03  0.00000000000E+00 0. -1.
          6    1    1    2  501    0  0.40466747073E+01 -0.64869334108E+02 -0.21062745917E+03  0.28020944424E+03  0.17300000000E+03 0.  1.
         -6    1    1    2    0  503 -0.40466747073E+01  0.64869334108E+02 -0.51213101497E+03  0.54445530816E+03  0.17300000000E+03 0. -1.
<mgrwt>
<rscale>  2 0.18480640E+03</rscale>
<asrwt>0</asrwt>
<pdfrwt beam="1">  1       21 0.78389444E-02 0.18480640E+03</pdfrwt>
<pdfrwt beam="2">  1       21 0.11903256E+00 0.18480640E+03</pdfrwt>
<totfact> 0.67237681E+04</totfact>
</mgrwt>
</event>
<event>
 4    2  0.4039581E+000  0.1851640E+03  0.7546771E-02  0.1162897E+00
         21   -1    0    0  501  502  0.00000000000E+00  0.00000000000E+00  0.51102358252E+03  0.51102358252E+03  0.00000000000E+00 0. -1.
         21   -1    0    0  502  503 -0.00000000000E+00 -0.00000000000E+00 -0.94800558729E+02  0.94800558729E+02  0.00000000000E+00 0. -1.
          6    1    1    2  501    0  0.62571606058E+02 -0.21011560995E+02  0.37187482124E+03  0.41542336748E+03  0.17300000000E+03 0. -1.
         -6    1    1    2    0  503 -0.62571606058E+02  0.21011560995E+02  0.44348202550E+02  0.19040077376E+03  0.17300000000E+03 0. -1.
<mgrwt>
<rscale>  2 0.18516396E+03</rscale>
<asrwt>0</asrwt>
<pdfrwt beam="1">  1       21 0.78619011E-01 0.18516396E+03</pdfrwt>
<pdfrwt beam="2">  1       21 0.14584702E-01 0.18516396E+03</pdfrwt>
<totfact> 0.59257924E+04</totfact>
</mgrwt>
</event>
<event>
 4    2  0.4039581E+000  0.2847818E+03  0.7546771E-02  0.1093105E+00
         21   -1    0    0  503  502  0.00000000000E+00  0.00000000000E+00  0.14029427245E+04  0.14029427245E+04  0.00000000000E+00 0.  1.
         21   -1    0    0  501  503 -0.00000000000E+00 -0.00000000000E+00 -0.79075082139E+02  0.79075082139E+02  0.00000000000E+00 0. -1.
          6    1    1    2  501    0  0.20497649572E+03  0.95688723987E+02  0.27764119859E+03  0.39772519514E+03  0.17300000000E+03 0. -1.
         -6    1    1    2    0  502 -0.20497649572E+03 -0.95688723987E+02  0.10462264437E+04  0.10842926115E+04  0.17300000000E+03 0.  1.
<mgrwt>
<rscale>  2 0.28478184E+03</rscale>
<asrwt>0</asrwt>
<pdfrwt beam="1">  1       21 0.21583732E+00 0.28478184E+03</pdfrwt>
<pdfrwt beam="2">  1       21 0.12165398E-01 0.28478184E+03</pdfrwt>
<totfact> 0.56849768E+03</totfact>
</mgrwt>
</event>
<event>
 4    2  0.4039581E+000  0.3022238E+03  0.7546771E-02  0.1084134E+00
         21   -1    0    0  501  502  0.00000000000E+00  0.00000000000E+00  0.26603215520E+03  0.26603215520E+03  0.00000000000E+00 0. -1.
         21   -1    0    0  502  503 -0.00000000000E+00 -0.00000000000E+00 -0.66481188140E+03  0.66481188140E+03  0.00000000000E+00 0.  1.
          6    1    1    2  501    0 -0.46226827925E+02  0.24346114413E+03  0.12425567462E+03  0.32677013480E+03  0.17300000000E+03 0. -1.
         -6    1    1    2    0  503  0.46226827925E+02 -0.24346114413E+03 -0.52303540082E+03  0.60407390180E+03  0.17300000000E+03 0.  1.
<mgrwt>
<rscale>  2 0.30222384E+03</rscale>
<asrwt>0</asrwt>
<pdfrwt beam="1">  1       21 0.40928024E-01 0.30222384E+03</pdfrwt>
<pdfrwt beam="2">  1       21 0.10227875E+00 0.30222384E+03</pdfrwt>
<totfact> 0.41620317E+03</totfact>
</mgrwt>
</event>
<event>
 4    2  0.4039581E+000  0.1792653E+03  0.7546771E-02  0.1168516E+00
         21   -1    0    0  503  502  0.00000000000E+00  0.00000000000E+00  0.13393321350E+03  0.13393321350E+03  0.00000000000E+00 0. -1.
         21   -1    0    0  501  503 -0.00000000000E+00 -0.00000000000E+00 -0.26009909042E+03  0.26009909042E+03  0.00000000000E+00 0. -1.
          6    1    1    2  501    0  0.20811341317E+02  0.42117980960E+02 -0.11793080749E+03  0.21457798490E+03  0.17300000000E+03 0. -1.
         -6    1    1    2    0  502 -0.20811341317E+02 -0.42117980960E+02 -0.82350694261E+01  0.17945431902E+03  0.17300000000E+03 0. -1.
<mgrwt>
<rscale>  2 0.17926527E+03</rscale>
<asrwt>0</asrwt>
<pdfrwt beam="1">  1       21 0.20605110E-01 0.17926527E+03</pdfrwt>
<pdfrwt beam="2">  1       21 0.40015244E-01 0.17926527E+03</pdfrwt>
<totfact> 0.13199892E+05</totfact>
</mgrwt>
</event>
<event>
 4    2  0.4039581E+000  0.2026965E+03  0.7546771E-02  0.1147484E+00
         21   -1    0    0  503  502  0.00000000000E+00  0.00000000000E+00  0.83258947345E+02  0.83258947345E+02  0.00000000000E+00 0.  1.
         21   -1    0    0  501  503 -0.00000000000E+00 -0.00000000000E+00 -0.61269287011E+03  0.61269287011E+03  0.00000000000E+00 0.  1.
          6    1    1    2  501    0  0.93509465531E+02  0.49120956898E+02 -0.41821592758E+03  0.46474772795E+03  0.17300000000E+03 0. -1.
         -6    1    1    2    0  502 -0.93509465531E+02 -0.49120956898E+02 -0.11121799518E+03  0.23120408950E+03  0.17300000000E+03 0. -1.
<mgrwt>
<rscale>  2 0.20269654E+03</rscale>
<asrwt>0</asrwt>
<pdfrwt beam="1">  1       21 0.12809069E-01 0.20269654E+03</pdfrwt>
<pdfrwt beam="2">  1       21 0.94260443E-01 0.20269654E+03</pdfrwt>
<totfact> 0.48997165E+04</totfact>
</mgrwt>
</event>
<event>
 4    2  0.4039581E+000  0.1736079E+03  0.7546771E-02  0.1174137E+00
         21   -1    0    0  503  502  0.00000000000E+00  0.00000000000E+00  0.36273925611E+02  0.36273925611E+02  0.00000000000E+00 0.  1.
         21   -1    0    0  501  503 -0.00000000000E+00 -0.00000000000E+00 -0.84099158313E+03  0.84099158313E+03  0.00000000000E+00 0.  1.
          6    1    1    2  501    0  0.13853599315E+02 -0.43323331770E+01 -0.35428920167E+03  0.39453837550E+03  0.17300000000E+03 0.  1.
         -6    1    1    2    0  502 -0.13853599315E+02  0.43323331770E+01 -0.45042845585E+03  0.48272713324E+03  0.17300000000E+03 0.  1.
<mgrwt>
<rscale>  2 0.17360787E+03</rscale>
<asrwt>0</asrwt>
<pdfrwt beam="1">  1       21 0.55806039E-02 0.17360787E+03</pdfrwt>
<pdfrwt beam="2">  1       21 0.12938332E+00 0.17360787E+03</pdfrwt>
<totfact> 0.98471268E+04</totfact>
</mgrwt>
</event>
