<event>
 4    1  0.6912310E-008  0.5269989E+03  0.7818608E-02  0.1006963E+00
          2   -1    0    0  501    0  0.00000000000E+00  0.00000000000E+00  0.29823990009E+04  0.29823990009E+04  0.25500000000E-02 0. -1.
         -2   -1    0    0    0  501 -0.00000000000E+00 -0.00000000000E+00 -0.14458261739E+03  0.14458261742E+03  0.25500000000E-02 0.  1.
    8880022    1    1    2    0    0 -0.44287245455E+03 -0.24124714392E+03  0.23516759589E+04  0.24100015901E+04  0.15294330000E+03 0.  0.
    8880022    1    1    2    0    0  0.44287245455E+03  0.24124714392E+03  0.48614042459E+03  0.71698002823E+03  0.15294330000E+03 0.  0.
<mgrwt>
<rscale>  0 0.52699891E+03</rscale>
<asrwt>0</asrwt>
<pdfrwt beam="1">  1        2 0.45883060E+00 0.52699891E+03</pdfrwt>
<pdfrwt beam="2">  1       -2 0.22243480E-01 0.52699891E+03</pdfrwt>
<totfact> 0.34750443E+01</totfact>
</mgrwt>
</event>
<event>
 4    1  0.6912310E-008  0.2033528E+03  0.7818608E-02  0.1146941E+00
          2   -1    0    0  501    0  0.00000000000E+00  0.00000000000E+00  0.13333740085E+04  0.13333740085E+04  0.25500000000E-02 0. -1.
         -2   -1    0    0    0  501 -0.00000000000E+00 -0.00000000000E+00 -0.34692695377E+02  0.34692695470E+02  0.25500000000E-02 0.  1.
    8880022    1    1    2    0    0  0.88154620034E+01 -0.13372735979E+03  0.87210441685E+03  0.89549901509E+03  0.15294330000E+03 0. -1.
    8880022    1    1    2    0    0 -0.88154620034E+01  0.13372735979E+03  0.42657689627E+03  0.47256768888E+03  0.15294330000E+03 0.  1.
<mgrwt>
<rscale>  0 0.20335283E+03</rscale>
<asrwt>0</asrwt>
<pdfrwt beam="1">  1        2 0.20513446E+00 0.20335283E+03</pdfrwt>
<pdfrwt beam="2">  1       -2 0.53373377E-02 0.20335283E+03</pdfrwt>
<totfact> 0.29711344E+03</totfact>
</mgrwt>
</event>
<event>
 4    1  0.6912310E-008  0.7071621E+03  0.7818608E-02  0.9705062E-01
          2   -1    0    0  501    0  0.00000000000E+00  0.00000000000E+00  0.72383187665E+03  0.72383187666E+03  0.25500000000E-02 0. -1.
         -2   -1    0    0    0  501 -0.00000000000E+00 -0.00000000000E+00 -0.27436462510E+04  0.27436462510E+04  0.25500000000E-02 0.  1.
    8880022    1    1    2    0    0 -0.45159617505E+03  0.52225224767E+03  0.48974254880E+03  0.86018947485E+03  0.15294330000E+03 0.  0.
    8880022    1    1    2    0    0  0.45159617505E+03 -0.52225224767E+03 -0.25095569231E+04  0.26072886528E+04  0.15294330000E+03 0.  0.
<mgrwt>
<rscale>  0 0.70716205E+03</rscale>
<asrwt>0</asrwt>
<pdfrwt beam="1">  1        2 0.11135875E+00 0.70716205E+03</pdfrwt>
<pdfrwt beam="2">  1       -2 0.42209942E+00 0.70716205E+03</pdfrwt>
<totfact> 0.22485556E-01</totfact>
</mgrwt>
</event>
<event>
 4    1  0.6912310E-008  0.3042380E+03  0.7818608E-02  0.1083141E+00
          2   -1    0    0  501    0  0.00000000000E+00  0.00000000000E+00  0.36228470656E+04  0.36228470656E+04  0.25500000000E-02 0. -1.
         -2   -1    0    0    0  501 -0.00000000000E+00 -0.00000000000E+00 -0.18580081013E+03  0.18580081015E+03  0.25500000000E-02 0.  1.
    8880022    1    1    2    0    0  0.24429515842E+03 -0.97411495295E+02 -0.50030571991E+02  0.30832423679E+03  0.15294330000E+03 0.  0.
    8880022    1    1    2    0    0 -0.24429515842E+03  0.97411495295E+02  0.34870768274E+04  0.35003236390E+04  0.15294330000E+03 0. -1.
<mgrwt>
<rscale>  0 0.30423803E+03</rscale>
<asrwt>0</asrwt>
<pdfrwt beam="1">  1        2 0.55736114E+00 0.30423803E+03</pdfrwt>
<pdfrwt beam="2">  1       -2 0.28584737E-01 0.30423803E+03</pdfrwt>
<totfact> 0.92954521E+00</totfact>
</mgrwt>
</event>
<event>
 4    1  0.6912310E-008  0.7055728E+03  0.7818608E-02  0.9707749E-01
          2   -1    0    0  501    0  0.00000000000E+00  0.00000000000E+00  0.85421288753E+03  0.85421288754E+03  0.25500000000E-02 0. -1.
         -2   -1    0    0    0  501 -0.00000000000E+00 -0.00000000000E+00 -0.87608663874E+03  0.87608663875E+03  0.25500000000E-02 0.  1.
    8880022    1    1    2    0    0 -0.93625805104E+02 -0.68240426874E+03 -0.51150806021E+03  0.87147778288E+03  0.15294330000E+03 0.  0.
    8880022    1    1    2    0    0  0.93625805104E+02  0.68240426874E+03  0.48963430900E+03  0.85882174340E+03  0.15294330000E+03 0.  0.
<mgrwt>
<rscale>  0 0.70557284E+03</rscale>
<asrwt>0</asrwt>
<pdfrwt beam="1">  1        2 0.13141737E+00 0.70557284E+03</pdfrwt>
<pdfrwt beam="2">  1       -2 0.13478256E+00 0.70557284E+03</pdfrwt>
<totfact> 0.12749334E+01</totfact>
</mgrwt>
</event>
<event>
 4    1  0.6912310E-008  0.3357201E+03  0.7818608E-02  0.1068634E+00
          2   -1    0    0  501    0  0.00000000000E+00  0.00000000000E+00  0.14240207968E+04  0.14240207968E+04  0.25500000000E-02 0. -1.
         -2   -1    0    0    0  501 -0.00000000000E+00 -0.00000000000E+00 -0.28940510108E+03  0.28940510109E+03  0.25500000000E-02 0.  1.
    8880022    1    1    2    0    0  0.13087901324E+03  0.26867640722E+03 -0.16291913882E+03  0.37316300287E+03  0.15294330000E+03 0.  0.
    8880022    1    1    2    0    0 -0.13087901324E+03 -0.26867640722E+03  0.12975348345E+04  0.13402628950E+04  0.15294330000E+03 0. -1.
<mgrwt>
<rscale>  0 0.33572009E+03</rscale>
<asrwt>0</asrwt>
<pdfrwt beam="1">  1        2 0.21908011E+00 0.33572009E+03</pdfrwt>
<pdfrwt beam="2">  1       -2 0.44523863E-01 0.33572009E+03</pdfrwt>
<totfact> 0.72437453E+01</totfact>
</mgrwt>
</event>
<event>
 4    1  0.6912310E-008  0.6627836E+03  0.7818608E-02  0.9783083E-01
         -2   -1    0    0    0  501 -0.00000000000E+00  0.00000000000E+00  0.18800542743E+03  0.18800542745E+03  0.25500000000E-02 0.  1.
          2   -1    0    0  501    0  0.00000000000E+00 -0.00000000000E+00 -0.28945128441E+04  0.28945128441E+04  0.25500000000E-02 0. -1.
    8880022    1    1    2    0    0  0.57766995309E+03  0.28668422278E+03 -0.20299514453E+04  0.21354121245E+04  0.15294330000E+03 0.  0.
    8880022    1    1    2    0    0 -0.57766995309E+03 -0.28668422278E+03 -0.67655597133E+03  0.94710614698E+03  0.15294330000E+03 0.  0.
<mgrwt>
<rscale>  0 0.66278358E+03</rscale>
<asrwt>0</asrwt>
<pdfrwt beam="1">  1        2 0.44530964E+00 0.66278358E+03</pdfrwt>
<pdfrwt beam="2">  1       -2 0.28923914E-01 0.66278358E+03</pdfrwt>
<totfact> 0.23795137E+01</totfact>
</mgrwt>
</event>
<event>
 4    1  0.6912310E-008  0.2586911E+03  0.7818608E-02  0.1107932E+00
         -2   -1    0    0    0  501 -0.00000000000E+00  0.00000000000E+00  0.29610719212E+03  0.29610719213E+03  0.25500000000E-02 0.  1.
          2   -1    0    0  501    0  0.00000000000E+00 -0.00000000000E+00 -0.18471499358E+04  0.18471499358E+04  0.25500000000E-02 0. -1.
    8880022    1    1    2    0    0  0.17264990506E+03  0.11713861575E+03 -0.17794536170E+04  0.17981591345E+04  0.15294330000E+03 0.  0.
    8880022    1    1    2    0    0 -0.17264990506E+03 -0.11713861575E+03  0.22841087329E+03  0.34509799343E+03  0.15294330000E+03 0.  1.
<mgrwt>
<rscale>  0 0.25869112E+03</rscale>
<asrwt>0</asrwt>
<pdfrwt beam="1">  1        2 0.28417691E+00 0.25869112E+03</pdfrwt>
<pdfrwt beam="2">  1       -2 0.45554954E-01 0.25869112E+03</pdfrwt>
<totfact> 0.42112514E+01</totfact>
</mgrwt>
</event>
<event>
 4    1  0.6912310E-008  0.6693292E+03  0.7818608E-02  0.9771170E-01
          2   -1    0    0  501    0  0.00000000000E+00  0.00000000000E+00  0.75960557034E+03  0.75960557035E+03  0.25500000000E-02 0. -1.
         -2   -1    0    0    0  501 -0.00000000000E+00 -0.00000000000E+00 -0.92381639279E+03  0.92381639279E+03  0.25500000000E-02 0.  1.
    8880022    1    1    2    0    0  0.13471887625E+02  0.65148170791E+03 -0.58823982391E+03  0.89108229191E+03  0.15294330000E+03 0.  0.
    8880022    1    1    2    0    0 -0.13471887625E+02 -0.65148170791E+03  0.42402900147E+03  0.79233967123E+03  0.15294330000E+03 0.  0.
<mgrwt>
<rscale>  0 0.66932919E+03</rscale>
<asrwt>0</asrwt>
<pdfrwt beam="1">  1        2 0.11686240E+00 0.66932919E+03</pdfrwt>
<pdfrwt beam="2">  1       -2 0.14212560E+00 0.66932919E+03</pdfrwt>
<totfact> 0.13048632E+01</totfact>
</mgrwt>
</event>
<event>
 4    1  0.6912310E-008  0.8900243E+03  0.7818608E-02  0.9438138E-01
          2   -1    0    0  501    0  0.00000000000E+00  0.00000000000E+00  0.34539395917E+04  0.34539395917E+04  0.25500000000E-02 0. -1.
         -2   -1    0    0    0  501 -0.00000000000E+00 -0.00000000000E+00 -0.25197436393E+03  0.25197436394E+03  0.25500000000E-02 0.  1.
    8880022    1    1    2    0    0 -0.68251682794E+03  0.55038392243E+03  0.10456866032E+04  0.13731728980E+04  0.15294330000E+03 0.  0.
    8880022    1    1    2    0    0  0.68251682794E+03 -0.55038392243E+03  0.21562786245E+04  0.23327410576E+04  0.15294330000E+03 0.  0.
<mgrwt>
<rscale>  0 0.89002435E+03</rscale>
<asrwt>0</asrwt>
<pdfrwt beam="1">  1        2 0.53137527E+00 0.89002435E+03</pdfrwt>
<pdfrwt beam="2">  1       -2 0.38765291E-01 0.89002435E+03</pdfrwt>
<totfact> 0.57994064E+00</totfact>
</mgrwt>
</event>
<event>
 4    1  0.6912310E-008  0.3101322E+03  0.7818608E-02  0.1080283E+00
          2   -1    0    0  501    0  0.00000000000E+00  0.00000000000E+00  0.38182618630E+04  0.38182618630E+04  0.25500000000E-02 0. -1.
         -2   -1    0    0    0  501 -0.00000000000E+00 -0.00000000000E+00 -0.80245385531E+02  0.80245385572E+02  0.25500000000E-02 0.  1.
    8880022    1    1    2    0    0 -0.12916258965E+03  0.23686991910E+03  0.34835833432E+04  0.34973611331E+04  0.15294330000E+03 0.  0.
    8880022    1    1    2    0    0  0.12916258965E+03 -0.23686991910E+03  0.25443313426E+03  0.40114611548E+03  0.15294330000E+03 0.  0.
<mgrwt>
<rscale>  0 0.31013221E+03</rscale>
<asrwt>0</asrwt>
<pdfrwt beam="1">  1        2 0.58742498E+00 0.31013221E+03</pdfrwt>
<pdfrwt beam="2">  1       -2 0.12345442E-01 0.31013221E+03</pdfrwt>
<totfact> 0.28411980E+01</totfact>
</mgrwt>
</event>
<event>
 4    1  0.6912310E-008  0.3834432E+03  0.7818608E-02  0.1049668E+00
          2   -1    0    0  501    0  0.00000000000E+00  0.00000000000E+00  0.17898283191E+04  0.17898283191E+04  0.25500000000E-02 0. -1.
         -2   -1    0    0    0  501 -0.00000000000E+00 -0.00000000000E+00 -0.56438982080E+03  0.56438982080E+03  0.25500000000E-02 0.  1.
    8880022    1    1    2    0    0 -0.34919401159E+03  0.41238022904E+02 -0.47535890625E+03  0.61073298177E+03  0.15294330000E+03 0.  1.
    8880022    1    1    2    0    0  0.34919401159E+03 -0.41238022904E+02  0.17007974045E+04  0.17434851581E+04  0.15294330000E+03 0.  0.
<mgrwt>
<rscale>  0 0.38344320E+03</rscale>
<asrwt>0</asrwt>
<pdfrwt beam="1">  1        2 0.27535820E+00 0.38344320E+03</pdfrwt>
<pdfrwt beam="2">  1       -2 0.86829203E-01 0.38344320E+03</pdfrwt>
<totfact> 0.11130422E+01</totfact>
</mgrwt>
</event>
<event>
 4    1  0.6912310E-008  0.5673163E+03  0.7818608E-02  0.9975635E-01
         -2   -1    0    0    0  501 -0.00000000000E+00  0.00000000000E+00  0.36412564763E+03  0.36412564764E+03  0.25500000000E-02 0.  1.
          2   -1    0    0  501    0  0.00000000000E+00 -0.00000000000E+00 -0.22899730561E+04  0.22899730561E+04  0.25500000000E-02 0. -1.
    8880022    1    1    2    0    0 -0.29703907831E+02  0.54550322173E+03 -0.20027889642E+04  0.20815886662E+04  0.15294330000E+03 0.  0.
    8880022    1    1    2    0    0  0.29703907831E+02 -0.54550322173E+03  0.76941555744E+02  0.57251003753E+03  0.15294330000E+03 0.  0.
<mgrwt>
<rscale>  0 0.56731626E+03</rscale>
<asrwt>0</asrwt>
<pdfrwt beam="1">  1        2 0.35230354E+00 0.56731626E+03</pdfrwt>
<pdfrwt beam="2">  1       -2 0.56019332E-01 0.56731626E+03</pdfrwt>
<totfact> 0.14790596E+01</totfact>
</mgrwt>
</event>
<event>
 4    1  0.6912310E-008  0.7800705E+03  0.7818608E-02  0.9589321E-01
         -2   -1    0    0    0  501 -0.00000000000E+00  0.00000000000E+00  0.15076711971E+04  0.15076711971E+04  0.25500000000E-02 0.  1.
          2   -1    0    0  501    0  0.00000000000E+00 -0.00000000000E+00 -0.62821514685E+03  0.62821514685E+03  0.25500000000E-02 0. -1.
    8880022    1    1    2    0    0  0.23112621215E+03 -0.72917697380E+03  0.10782921571E+04  0.13308734028E+04  0.15294330000E+03 0.  0.
    8880022    1    1    2    0    0 -0.23112621215E+03  0.72917697380E+03 -0.19883610687E+03  0.80501294119E+03  0.15294330000E+03 0.  0.
<mgrwt>
<rscale>  0 0.78007053E+03</rscale>
<asrwt>0</asrwt>
<pdfrwt beam="1">  1        2 0.96648483E-01 0.78007053E+03</pdfrwt>
<pdfrwt beam="2">  1       -2 0.23194942E+00 0.78007053E+03</pdfrwt>
<totfact> 0.39846005E+00</totfact>
</mgrwt>
</event>
<event>
 4    1  0.6912310E-008  0.7834341E+03  0.7818608E-02  0.9584310E-01
         -2   -1    0    0    0  501 -0.00000000000E+00  0.00000000000E+00  0.16920853334E+03  0.16920853336E+03  0.25500000000E-02 0.  1.
          2   -1    0    0  501    0  0.00000000000E+00 -0.00000000000E+00 -0.42505027526E+04  0.42505027526E+04  0.25500000000E-02 0. -1.
    8880022    1    1    2    0    0 -0.12661686772E+03  0.75785590395E+03 -0.28868229340E+04  0.29912398278E+04  0.15294330000E+03 0.  0.
    8880022    1    1    2    0    0  0.12661686772E+03 -0.75785590395E+03 -0.11944712853E+04  0.14284714581E+04  0.15294330000E+03 0.  0.
<mgrwt>
<rscale>  0 0.78343414E+03</rscale>
<asrwt>0</asrwt>
<pdfrwt beam="1">  1        2 0.65392342E+00 0.78343414E+03</pdfrwt>
<pdfrwt beam="2">  1       -2 0.26032085E-01 0.78343414E+03</pdfrwt>
<totfact> 0.31055317E+00</totfact>
</mgrwt>
</event>
<event>
 4    1  0.6912310E-008  0.7568728E+03  0.7818608E-02  0.9624629E-01
         -2   -1    0    0    0  501 -0.00000000000E+00  0.00000000000E+00  0.43757696072E+03  0.43757696072E+03  0.25500000000E-02 0.  1.
          2   -1    0    0  501    0  0.00000000000E+00 -0.00000000000E+00 -0.16915348275E+04  0.16915348275E+04  0.25500000000E-02 0. -1.
    8880022    1    1    2    0    0  0.62542878044E+03  0.39787393624E+03 -0.11331239253E+04  0.13626541423E+04  0.15294330000E+03 0.  0.
    8880022    1    1    2    0    0 -0.62542878044E+03 -0.39787393624E+03 -0.12083394152E+03  0.76645764591E+03  0.15294330000E+03 0.  0.
<mgrwt>
<rscale>  0 0.75687283E+03</rscale>
<asrwt>0</asrwt>
<pdfrwt beam="1">  1        2 0.26023612E+00 0.75687283E+03</pdfrwt>
<pdfrwt beam="2">  1       -2 0.67319533E-01 0.75687283E+03</pdfrwt>
<totfact> 0.20598827E+01</totfact>
</mgrwt>
</event>
<event>
 4    1  0.6912310E-008  0.7558516E+03  0.7818608E-02  0.9626215E-01
          2   -1    0    0  501    0  0.00000000000E+00  0.00000000000E+00  0.33717711688E+04  0.33717711688E+04  0.25500000000E-02 0. -1.
         -2   -1    0    0    0  501 -0.00000000000E+00 -0.00000000000E+00 -0.31014286188E+03  0.31014286189E+03  0.25500000000E-02 0.  1.
    8880022    1    1    2    0    0  0.73884350994E+03 -0.45057769503E+02  0.29083374771E+03  0.80987397575E+03  0.15294330000E+03 0.  0.
    8880022    1    1    2    0    0 -0.73884350994E+03  0.45057769503E+02  0.27707945592E+04  0.28720400549E+04  0.15294330000E+03 0.  0.
<mgrwt>
<rscale>  0 0.75585156E+03</rscale>
<asrwt>0</asrwt>
<pdfrwt beam="1">  1        2 0.51873405E+00 0.75585156E+03</pdfrwt>
<pdfrwt beam="2">  1       -2 0.47714284E-01 0.75585156E+03</pdfrwt>
<totfact> 0.44728274E+00</totfact>
</mgrwt>
</event>
<event>
 4    1  0.6912310E-008  0.3549093E+03  0.7818608E-02  0.1060618E+00
         -2   -1    0    0    0  501 -0.00000000000E+00  0.00000000000E+00  0.50218939545E+03  0.50218939546E+03  0.25500000000E-02 0.  1.
          2   -1    0    0  501    0  0.00000000000E+00 -0.00000000000E+00 -0.89463265224E+03  0.89463265224E+03  0.25500000000E-02 0. -1.
    8880022    1    1    2    0    0 -0.31502396617E+03 -0.57696429597E+02 -0.78869313479E+03  0.86486848198E+03  0.15294330000E+03 0.  0.
    8880022    1    1    2    0    0  0.31502396617E+03  0.57696429597E+02  0.39624987800E+03  0.53195356572E+03  0.15294330000E+03 0.  1.
<mgrwt>
<rscale>  0 0.35490933E+03</rscale>
<asrwt>0</asrwt>
<pdfrwt beam="1">  1        2 0.13763579E+00 0.35490933E+03</pdfrwt>
<pdfrwt beam="2">  1       -2 0.77259907E-01 0.35490933E+03</pdfrwt>
<totfact> 0.47021242E+01</totfact>
</mgrwt>
</event>
<event>
 4    1  0.6912310E-008  0.1786766E+03  0.7818608E-02  0.1169090E+00
          2   -1    0    0  501    0  0.00000000000E+00  0.00000000000E+00  0.11278586217E+04  0.11278586217E+04  0.25500000000E-02 0. -1.
         -2   -1    0    0    0  501 -0.00000000000E+00 -0.00000000000E+00 -0.10222434271E+03  0.10222434274E+03  0.25500000000E-02 0.  1.
    8880022    1    1    2    0    0 -0.43619530053E+02 -0.81431083132E+02  0.10358186084E+04  0.10511163243E+04  0.15294330000E+03 0.  0.
    8880022    1    1    2    0    0  0.43619530053E+02  0.81431083132E+02 -0.10184329411E+02  0.17896664014E+03  0.15294330000E+03 0.  1.
<mgrwt>
<rscale>  0 0.17867663E+03</rscale>
<asrwt>0</asrwt>
<pdfrwt beam="1">  1        2 0.17351671E+00 0.17867663E+03</pdfrwt>
<pdfrwt beam="2">  1       -2 0.15726822E-01 0.17867663E+03</pdfrwt>
<totfact> 0.70364868E+02</totfact>
</mgrwt>
</event>
<event>
 4    1  0.6912310E-008  0.1193163E+04  0.7818608E-02  0.9118862E-01
         -2   -1    0    0    0  501 -0.00000000000E+00  0.00000000000E+00  0.13860857088E+04  0.13860857088E+04  0.25500000000E-02 0.  1.
          2   -1    0    0  501    0  0.00000000000E+00 -0.00000000000E+00 -0.25551881744E+04  0.25551881744E+04  0.25500000000E-02 0. -1.
    8880022    1    1    2    0    0 -0.40871060806E+02  0.11826138767E+04 -0.21085004872E+04  0.24226869345E+04  0.15294330000E+03 0.  0.
    8880022    1    1    2    0    0  0.40871060806E+02 -0.11826138767E+04  0.93939802158E+03  0.15185869488E+04  0.15294330000E+03 0.  0.
<mgrwt>
<rscale>  0 0.11931629E+04</rscale>
<asrwt>0</asrwt>
<pdfrwt beam="1">  1        2 0.39310587E+00 0.11931629E+04</pdfrwt>
<pdfrwt beam="2">  1       -2 0.21324396E+00 0.11931629E+04</pdfrwt>
<totfact> 0.34491897E-01</totfact>
</mgrwt>
</event>
<event>
 4    1  0.6912310E-008  0.2053989E+03  0.7818608E-02  0.1145262E+00
          2   -1    0    0  501    0  0.00000000000E+00  0.00000000000E+00  0.13749035591E+04  0.13749035591E+04  0.25500000000E-02 0. -1.
         -2   -1    0    0    0  501 -0.00000000000E+00 -0.00000000000E+00 -0.14167712968E+03  0.14167712970E+03  0.25500000000E-02 0.  1.
    8880022    1    1    2    0    0 -0.90324884261E+02  0.10314305328E+03 -0.54555974879E+02  0.21252077914E+03  0.15294330000E+03 0.  0.
    8880022    1    1    2    0    0  0.90324884261E+02 -0.10314305328E+03  0.12877824043E+04  0.13040599097E+04  0.15294330000E+03 0.  0.
<mgrwt>
<rscale>  0 0.20539895E+03</rscale>
<asrwt>0</asrwt>
<pdfrwt beam="1">  1        2 0.21152362E+00 0.20539895E+03</pdfrwt>
<pdfrwt beam="2">  1       -2 0.21796482E-01 0.20539895E+03</pdfrwt>
<totfact> 0.29448673E+02</totfact>
</mgrwt>
</event>
<event>
 4    1  0.6912310E-008  0.5040439E+03  0.7818608E-02  0.1012729E+00
          2   -1    0    0  501    0  0.00000000000E+00  0.00000000000E+00  0.15778609313E+04  0.15778609313E+04  0.25500000000E-02 0. -1.
         -2   -1    0    0    0  501 -0.00000000000E+00 -0.00000000000E+00 -0.33957285925E+03  0.33957285926E+03  0.25500000000E-02 0.  1.
    8880022    1    1    2    0    0 -0.39856917964E+03  0.26797611300E+03  0.13143486376E+04  0.14076834098E+04  0.15294330000E+03 0.  0.
    8880022    1    1    2    0    0  0.39856917964E+03 -0.26797611300E+03 -0.76060565478E+02  0.50975038081E+03  0.15294330000E+03 0.  0.
<mgrwt>
<rscale>  0 0.50404389E+03</rscale>
<asrwt>0</asrwt>
<pdfrwt beam="1">  1        2 0.24274783E+00 0.50404389E+03</pdfrwt>
<pdfrwt beam="2">  1       -2 0.52241979E-01 0.50404389E+03</pdfrwt>
<totfact> 0.42001571E+01</totfact>
</mgrwt>
</event>
<event>
 4    1  0.6912310E-008  0.5925518E+03  0.7818608E-02  0.9920980E-01
         -2   -1    0    0    0  501 -0.00000000000E+00  0.00000000000E+00  0.31781746444E+03  0.31781746445E+03  0.25500000000E-02 0.  1.
          2   -1    0    0  501    0  0.00000000000E+00 -0.00000000000E+00 -0.13865782238E+04  0.13865782238E+04  0.25500000000E-02 0. -1.
    8880022    1    1    2    0    0 -0.56473362628E+03 -0.93818791576E+02 -0.91856417690E+03  0.10931046768E+04  0.15294330000E+03 0.  0.
    8880022    1    1    2    0    0  0.56473362628E+03  0.93818791576E+02 -0.15019658244E+03  0.61129101146E+03  0.15294330000E+03 0.  0.
<mgrwt>
<rscale>  0 0.59255184E+03</rscale>
<asrwt>0</asrwt>
<pdfrwt beam="1">  1        2 0.21331972E+00 0.59255184E+03</pdfrwt>
<pdfrwt beam="2">  1       -2 0.48894995E-01 0.59255184E+03</pdfrwt>
<totfact> 0.60506548E+01</totfact>
</mgrwt>
</event>
<event>
 4    1  0.6912310E-008  0.8598799E+03  0.7818608E-02  0.9477172E-01
          2   -1    0    0  501    0  0.00000000000E+00  0.00000000000E+00  0.13426327797E+04  0.13426327797E+04  0.25500000000E-02 0. -1.
         -2   -1    0    0    0  501 -0.00000000000E+00 -0.00000000000E+00 -0.85526766033E+03  0.85526766033E+03  0.25500000000E-02 0.  1.
    8880022    1    1    2    0    0  0.51695450296E+03  0.66989537481E+03 -0.41210917691E+03  0.95353416197E+03  0.15294330000E+03 0.  0.
    8880022    1    1    2    0    0 -0.51695450296E+03 -0.66989537481E+03  0.89947429630E+03  0.12443662781E+04  0.15294330000E+03 0.  0.
<mgrwt>
<rscale>  0 0.85987989E+03</rscale>
<asrwt>0</asrwt>
<pdfrwt beam="1">  1        2 0.20655889E+00 0.85987989E+03</pdfrwt>
<pdfrwt beam="2">  1       -2 0.13157964E+00 0.85987989E+03</pdfrwt>
<totfact> 0.66300536E+00</totfact>
</mgrwt>
</event>
<event>
 4    1  0.6912310E-008  0.8045077E+03  0.7818608E-02  0.9553515E-01
         -2   -1    0    0    0  501 -0.00000000000E+00  0.00000000000E+00  0.50343794413E+03  0.50343794413E+03  0.25500000000E-02 0.  1.
          2   -1    0    0  501    0  0.00000000000E+00 -0.00000000000E+00 -0.13055500722E+04  0.13055500722E+04  0.25500000000E-02 0. -1.
    8880022    1    1    2    0    0 -0.58753034721E+03  0.52787228907E+03 -0.28931772794E+03  0.85494880734E+03  0.15294330000E+03 0.  0.
    8880022    1    1    2    0    0  0.58753034721E+03 -0.52787228907E+03 -0.51279440013E+03  0.95403920899E+03  0.15294330000E+03 0.  0.
<mgrwt>
<rscale>  0 0.80450775E+03</rscale>
<asrwt>0</asrwt>
<pdfrwt beam="1">  1        2 0.20085386E+00 0.80450775E+03</pdfrwt>
<pdfrwt beam="2">  1       -2 0.77451992E-01 0.80450775E+03</pdfrwt>
<totfact> 0.24743323E+01</totfact>
</mgrwt>
</event>
<event>
 4    1  0.6912310E-008  0.4723541E+03  0.7818608E-02  0.1021258E+00
         -2   -1    0    0    0  501 -0.00000000000E+00  0.00000000000E+00  0.39782513979E+03  0.39782513980E+03  0.25500000000E-02 0.  1.
          2   -1    0    0  501    0  0.00000000000E+00 -0.00000000000E+00 -0.11662213698E+04  0.11662213698E+04  0.25500000000E-02 0. -1.
    8880022    1    1    2    0    0  0.30040247744E+03  0.33088534554E+03 -0.94763042341E+03  0.10588304079E+04  0.15294330000E+03 0.  0.
    8880022    1    1    2    0    0 -0.30040247744E+03 -0.33088534554E+03  0.17923419337E+03  0.50521610171E+03  0.15294330000E+03 0.  1.
<mgrwt>
<rscale>  0 0.47235412E+03</rscale>
<asrwt>0</asrwt>
<pdfrwt beam="1">  1        2 0.17941867E+00 0.47235412E+03</pdfrwt>
<pdfrwt beam="2">  1       -2 0.61203868E-01 0.47235412E+03</pdfrwt>
<totfact> 0.51780583E+01</totfact>
</mgrwt>
</event>
<event>
 4    1  0.6912310E-008  0.2369860E+03  0.7818608E-02  0.1121817E+00
          2   -1    0    0  501    0  0.00000000000E+00  0.00000000000E+00  0.76066323750E+03  0.76066323751E+03  0.25500000000E-02 0. -1.
         -2   -1    0    0    0  501 -0.00000000000E+00 -0.00000000000E+00 -0.29682053804E+03  0.29682053805E+03  0.25500000000E-02 0.  1.
    8880022    1    1    2    0    0  0.18054969534E+03 -0.13133762971E+02  0.69020742873E+03  0.72975929998E+03  0.15294330000E+03 0.  0.
    8880022    1    1    2    0    0 -0.18054969534E+03  0.13133762971E+02 -0.22636472927E+03  0.32772447557E+03  0.15294330000E+03 0.  0.
<mgrwt>
<rscale>  0 0.23698595E+03</rscale>
<asrwt>0</asrwt>
<pdfrwt beam="1">  1        2 0.11702511E+00 0.23698595E+03</pdfrwt>
<pdfrwt beam="2">  1       -2 0.45664698E-01 0.23698595E+03</pdfrwt>
<totfact> 0.17675979E+02</totfact>
</mgrwt>
</event>
<event>
 4    1  0.6912310E-008  0.4738024E+03  0.7818608E-02  0.1020852E+00
         -2   -1    0    0    0  501 -0.00000000000E+00  0.00000000000E+00  0.35455654362E+03  0.35455654363E+03  0.25500000000E-02 0.  1.
          2   -1    0    0  501    0  0.00000000000E+00 -0.00000000000E+00 -0.11728285675E+04  0.11728285675E+04  0.25500000000E-02 0. -1.
    8880022    1    1    2    0    0  0.44289007233E+03 -0.70323849692E+02 -0.92718099289E+03  0.10412268276E+04  0.15294330000E+03 0. -1.
    8880022    1    1    2    0    0 -0.44289007233E+03  0.70323849692E+02  0.10890896906E+03  0.48615828344E+03  0.15294330000E+03 0.  0.
<mgrwt>
<rscale>  0 0.47380240E+03</rscale>
<asrwt>0</asrwt>
<pdfrwt beam="1">  1        2 0.18043516E+00 0.47380240E+03</pdfrwt>
<pdfrwt beam="2">  1       -2 0.54547161E-01 0.47380240E+03</pdfrwt>
<totfact> 0.65204265E+01</totfact>
</mgrwt>
</event>
<event>
 4    1  0.6912310E-008  0.9238231E+03  0.7818608E-02  0.9396282E-01
         -2   -1    0    0    0  501 -0.00000000000E+00  0.00000000000E+00  0.11881783835E+04  0.11881783835E+04  0.25500000000E-02 0.  1.
          2   -1    0    0  501    0  0.00000000000E+00 -0.00000000000E+00 -0.12070818680E+04  0.12070818680E+04  0.25500000000E-02 0. -1.
    8880022    1    1    2    0    0 -0.84308524723E+03  0.34534733477E+03 -0.77156432554E+03  0.12036447471E+04  0.15294330000E+03 0.  0.
    8880022    1    1    2    0    0  0.84308524723E+03 -0.34534733477E+03  0.75266084100E+03  0.11916155044E+04  0.15294330000E+03 0.  0.
<mgrwt>
<rscale>  0 0.92382313E+03</rscale>
<asrwt>0</asrwt>
<pdfrwt beam="1">  1        2 0.18570490E+00 0.92382313E+03</pdfrwt>
<pdfrwt beam="2">  1       -2 0.18279667E+00 0.92382313E+03</pdfrwt>
<totfact> 0.32553696E+00</totfact>
</mgrwt>
</event>
<event>
 4    1  0.6912310E-008  0.3784275E+03  0.7818608E-02  0.1051517E+00
          2   -1    0    0  501    0  0.00000000000E+00  0.00000000000E+00  0.92573617090E+03  0.92573617091E+03  0.25500000000E-02 0. -1.
         -2   -1    0    0    0  501 -0.00000000000E+00 -0.00000000000E+00 -0.19110265768E+03  0.19110265770E+03  0.25500000000E-02 0.  1.
    8880022    1    1    2    0    0 -0.11494752055E+03  0.32650079061E+03  0.12358075484E+03  0.39809490668E+03  0.15294330000E+03 0.  0.
    8880022    1    1    2    0    0  0.11494752055E+03 -0.32650079061E+03  0.61105275839E+03  0.71874392192E+03  0.15294330000E+03 0. -1.
<mgrwt>
<rscale>  0 0.37842747E+03</rscale>
<asrwt>0</asrwt>
<pdfrwt beam="1">  1        2 0.14242095E+00 0.37842747E+03</pdfrwt>
<pdfrwt beam="2">  1       -2 0.29400409E-01 0.37842747E+03</pdfrwt>
<totfact> 0.30936723E+02</totfact>
</mgrwt>
</event>
<event>
 4    1  0.6912310E-008  0.3112176E+03  0.7818608E-02  0.1079764E+00
          2   -1    0    0  501    0  0.00000000000E+00  0.00000000000E+00  0.37040370991E+03  0.37040370992E+03  0.25500000000E-02 0. -1.
         -2   -1    0    0    0  501 -0.00000000000E+00 -0.00000000000E+00 -0.52386704696E+03  0.52386704696E+03  0.25500000000E-02 0.  1.
    8880022    1    1    2    0    0  0.10736829326E+03 -0.24887109285E+03  0.23970907803E+03  0.39283185507E+03  0.15294330000E+03 0.  0.
    8880022    1    1    2    0    0 -0.10736829326E+03  0.24887109285E+03 -0.39317241508E+03  0.50143890181E+03  0.15294330000E+03 0.  0.
<mgrwt>
<rscale>  0 0.31121765E+03</rscale>
<asrwt>0</asrwt>
<pdfrwt beam="1">  1        2 0.56985186E-01 0.31121765E+03</pdfrwt>
<pdfrwt beam="2">  1       -2 0.80594931E-01 0.31121765E+03</pdfrwt>
<totfact> 0.12236824E+02</totfact>
</mgrwt>
</event>
<event>
 4    1  0.6912310E-008  0.3798964E+03  0.7818608E-02  0.1050972E+00
          2   -1    0    0  501    0  0.00000000000E+00  0.00000000000E+00  0.32134410328E+03  0.32134410329E+03  0.25500000000E-02 0. -1.
         -2   -1    0    0    0  501 -0.00000000000E+00 -0.00000000000E+00 -0.65162836555E+03  0.65162836556E+03  0.25500000000E-02 0.  1.
    8880022    1    1    2    0    0 -0.25984587957E+03 -0.23110544444E+03 -0.43634528113E+03  0.57854858479E+03  0.15294330000E+03 0.  0.
    8880022    1    1    2    0    0  0.25984587957E+03  0.23110544444E+03  0.10606101886E+03  0.39442388406E+03  0.15294330000E+03 0.  0.
<mgrwt>
<rscale>  0 0.37989638E+03</rscale>
<asrwt>0</asrwt>
<pdfrwt beam="1">  1        2 0.49437554E-01 0.37989638E+03</pdfrwt>
<pdfrwt beam="2">  1       -2 0.10025052E+00 0.37989638E+03</pdfrwt>
<totfact> 0.86362697E+01</totfact>
</mgrwt>
</event>
<event>
 4    1  0.6912310E-008  0.5197785E+03  0.7818608E-02  0.1008742E+00
          2   -1    0    0  501    0  0.00000000000E+00  0.00000000000E+00  0.15357675920E+04  0.15357675920E+04  0.25500000000E-02 0. -1.
         -2   -1    0    0    0  501 -0.00000000000E+00 -0.00000000000E+00 -0.43041925125E+03  0.43041925126E+03  0.25500000000E-02 0.  1.
    8880022    1    1    2    0    0  0.34733696028E+03  0.35515506907E+03  0.13086250673E+04  0.14080729054E+04  0.15294330000E+03 0.  0.
    8880022    1    1    2    0    0 -0.34733696028E+03 -0.35515506907E+03 -0.20327672658E+03  0.55811393787E+03  0.15294330000E+03 0.  0.
<mgrwt>
<rscale>  0 0.51977855E+03</rscale>
<asrwt>0</asrwt>
<pdfrwt beam="1">  1        2 0.23627194E+00 0.51977855E+03</pdfrwt>
<pdfrwt beam="2">  1       -2 0.66218346E-01 0.51977855E+03</pdfrwt>
<totfact> 0.26896936E+01</totfact>
</mgrwt>
</event>
<event>
 4    1  0.6912310E-008  0.7066502E+03  0.7818608E-02  0.9705927E-01
          2   -1    0    0  501    0  0.00000000000E+00  0.00000000000E+00  0.14343188811E+04  0.14343188811E+04  0.25500000000E-02 0. -1.
         -2   -1    0    0    0  501 -0.00000000000E+00 -0.00000000000E+00 -0.51751473514E+03  0.51751473514E+03  0.25500000000E-02 0.  1.
    8880022    1    1    2    0    0 -0.49237799161E+03  0.48324600947E+03 -0.99896110684E+02  0.71367617183E+03  0.15294330000E+03 0.  0.
    8880022    1    1    2    0    0  0.49237799161E+03 -0.48324600947E+03  0.10167002566E+04  0.12381574444E+04  0.15294330000E+03 0.  0.
<mgrwt>
<rscale>  0 0.70665016E+03</rscale>
<asrwt>0</asrwt>
<pdfrwt beam="1">  1        2 0.22066444E+00 0.70665016E+03</pdfrwt>
<pdfrwt beam="2">  1       -2 0.79617653E-01 0.70665016E+03</pdfrwt>
<totfact> 0.19874096E+01</totfact>
</mgrwt>
</event>
<event>
 4    1  0.6912310E-008  0.2455461E+03  0.7818608E-02  0.1116152E+00
         -2   -1    0    0    0  501 -0.00000000000E+00  0.00000000000E+00  0.26376730720E+02  0.26376730843E+02  0.25500000000E-02 0.  1.
          2   -1    0    0  501    0  0.00000000000E+00 -0.00000000000E+00 -0.24188097963E+04  0.24188097963E+04  0.25500000000E-02 0. -1.
    8880022    1    1    2    0    0  0.18651270989E+03  0.45980930040E+02 -0.90955883473E+03  0.94212003679E+03  0.15294330000E+03 0.  1.
    8880022    1    1    2    0    0 -0.18651270989E+03 -0.45980930040E+02 -0.14828742308E+04  0.15030664903E+04  0.15294330000E+03 0. -1.
<mgrwt>
<rscale>  0 0.24554611E+03</rscale>
<asrwt>0</asrwt>
<pdfrwt beam="1">  1        2 0.37212441E+00 0.24554611E+03</pdfrwt>
<pdfrwt beam="2">  1       -2 0.40579605E-02 0.24554611E+03</pdfrwt>
<totfact> 0.11983798E+03</totfact>
</mgrwt>
</event>
<event>
 4    1  0.6912310E-008  0.3922075E+03  0.7818608E-02  0.1046512E+00
          2   -1    0    0  501    0  0.00000000000E+00  0.00000000000E+00  0.27032999766E+04  0.27032999766E+04  0.25500000000E-02 0. -1.
         -2   -1    0    0    0  501 -0.00000000000E+00 -0.00000000000E+00 -0.59636571606E+02  0.59636571660E+02  0.25500000000E-02 0.  1.
    8880022    1    1    2    0    0  0.24546978639E+03 -0.26491444083E+03  0.16175817273E+04  0.16644510730E+04  0.15294330000E+03 0. -1.
    8880022    1    1    2    0    0 -0.24546978639E+03  0.26491444083E+03  0.10260816777E+04  0.10984854752E+04  0.15294330000E+03 0.  1.
<mgrwt>
<rscale>  0 0.39220751E+03</rscale>
<asrwt>0</asrwt>
<pdfrwt beam="1">  1        2 0.41589236E+00 0.39220751E+03</pdfrwt>
<pdfrwt beam="2">  1       -2 0.91748560E-02 0.39220751E+03</pdfrwt>
<totfact> 0.22918970E+02</totfact>
</mgrwt>
</event>
<event>
 4    1  0.6912310E-008  0.2948033E+03  0.7818608E-02  0.1087868E+00
          2   -1    0    0  501    0  0.00000000000E+00  0.00000000000E+00  0.33835673104E+03  0.33835673105E+03  0.25500000000E-02 0. -1.
         -2   -1    0    0    0  501 -0.00000000000E+00 -0.00000000000E+00 -0.16785774905E+04  0.16785774905E+04  0.25500000000E-02 0.  1.
    8880022    1    1    2    0    0 -0.22772516619E+03 -0.10797480816E+03 -0.15982179232E+04  0.16251798342E+04  0.15294330000E+03 0.  0.
    8880022    1    1    2    0    0  0.22772516619E+03  0.10797480816E+03  0.25799716371E+03  0.39175438735E+03  0.15294330000E+03 0.  0.
<mgrwt>
<rscale>  0 0.29480326E+03</rscale>
<asrwt>0</asrwt>
<pdfrwt beam="1">  1        2 0.52054883E-01 0.29480326E+03</pdfrwt>
<pdfrwt beam="2">  1       -2 0.25824269E+00 0.29480326E+03</pdfrwt>
<totfact> 0.61598595E+00</totfact>
</mgrwt>
</event>
<event>
 4    1  0.6912310E-008  0.2404843E+03  0.7818608E-02  0.1119471E+00
         -2   -1    0    0    0  501 -0.00000000000E+00  0.00000000000E+00  0.14518987992E+03  0.14518987994E+03  0.25500000000E-02 0.  1.
          2   -1    0    0  501    0  0.00000000000E+00 -0.00000000000E+00 -0.18894256746E+04  0.18894256746E+04  0.25500000000E-02 0. -1.
    8880022    1    1    2    0    0 -0.13104640181E+03  0.13140730009E+03  0.31616911003E+02  0.24255374667E+03  0.15294330000E+03 0.  0.
    8880022    1    1    2    0    0  0.13104640181E+03 -0.13140730009E+03 -0.17758527057E+04  0.17920618079E+04  0.15294330000E+03 0.  0.
<mgrwt>
<rscale>  0 0.24048428E+03</rscale>
<asrwt>0</asrwt>
<pdfrwt beam="1">  1        2 0.29068086E+00 0.24048428E+03</pdfrwt>
<pdfrwt beam="2">  1       -2 0.22336906E-01 0.24048428E+03</pdfrwt>
<totfact> 0.14974155E+02</totfact>
</mgrwt>
</event>
<event>
 4    1  0.6912310E-008  0.4082162E+03  0.7818608E-02  0.1040971E+00
          2   -1    0    0  501    0  0.00000000000E+00  0.00000000000E+00  0.36681272838E+04  0.36681272838E+04  0.25500000000E-02 0. -1.
         -2   -1    0    0    0  501 -0.00000000000E+00 -0.00000000000E+00 -0.57953400738E+02  0.57953400794E+02  0.25500000000E-02 0.  1.
    8880022    1    1    2    0    0  0.31340900660E+03 -0.21218763016E+03  0.26711631354E+04  0.27021755948E+04  0.15294330000E+03 0.  0.
    8880022    1    1    2    0    0 -0.31340900660E+03  0.21218763016E+03  0.93901074762E+03  0.10239050898E+04  0.15294330000E+03 0.  0.
<mgrwt>
<rscale>  0 0.40821618E+03</rscale>
<asrwt>0</asrwt>
<pdfrwt beam="1">  1        2 0.56432709E+00 0.40821618E+03</pdfrwt>
<pdfrwt beam="2">  1       -2 0.89159107E-02 0.40821618E+03</pdfrwt>
<totfact> 0.59301776E+01</totfact>
</mgrwt>
</event>
<event>
 4    1  0.6912310E-008  0.9946405E+03  0.7818608E-02  0.9314443E-01
          2   -1    0    0  501    0  0.00000000000E+00  0.00000000000E+00  0.58253276384E+03  0.58253276385E+03  0.25500000000E-02 0. -1.
         -2   -1    0    0    0  501 -0.00000000000E+00 -0.00000000000E+00 -0.17328331251E+04  0.17328331251E+04  0.25500000000E-02 0.  1.
    8880022    1    1    2    0    0  0.93983901136E+03  0.28743827886E+03 -0.41169836987E+03  0.10764782080E+04  0.15294330000E+03 0.  0.
    8880022    1    1    2    0    0 -0.93983901136E+03 -0.28743827886E+03 -0.73860199139E+03  0.12388876810E+04  0.15294330000E+03 0.  0.
<mgrwt>
<rscale>  0 0.99464053E+03</rscale>
<asrwt>0</asrwt>
<pdfrwt beam="1">  1        2 0.89620426E-01 0.99464053E+03</pdfrwt>
<pdfrwt beam="2">  1       -2 0.26658971E+00 0.99464053E+03</pdfrwt>
<totfact> 0.26185903E+00</totfact>
</mgrwt>
</event>
<event>
 4    1  0.6912310E-008  0.6405014E+03  0.7818608E-02  0.9824768E-01
          2   -1    0    0  501    0  0.00000000000E+00  0.00000000000E+00  0.14784637272E+04  0.14784637272E+04  0.25500000000E-02 0. -1.
         -2   -1    0    0    0  501 -0.00000000000E+00 -0.00000000000E+00 -0.49530607692E+03  0.49530607693E+03  0.25500000000E-02 0.  1.
    8880022    1    1    2    0    0  0.54447231870E+03 -0.30066644922E+03 -0.16288551616E+03  0.66088861687E+03  0.15294330000E+03 0.  0.
    8880022    1    1    2    0    0 -0.54447231870E+03  0.30066644922E+03  0.11460431664E+04  0.13128811873E+04  0.15294330000E+03 0.  0.
<mgrwt>
<rscale>  0 0.64050142E+03</rscale>
<asrwt>0</asrwt>
<pdfrwt beam="1">  1        2 0.22745595E+00 0.64050142E+03</pdfrwt>
<pdfrwt beam="2">  1       -2 0.76200937E-01 0.64050142E+03</pdfrwt>
<totfact> 0.20894999E+01</totfact>
</mgrwt>
</event>
<event>
 4    1  0.6912310E-008  0.7610039E+03  0.7818608E-02  0.9618243E-01
          2   -1    0    0  501    0  0.00000000000E+00  0.00000000000E+00  0.10614775165E+04  0.10614775165E+04  0.25500000000E-02 0. -1.
         -2   -1    0    0    0  501 -0.00000000000E+00 -0.00000000000E+00 -0.80916753924E+03  0.80916753924E+03  0.25500000000E-02 0.  1.
    8880022    1    1    2    0    0  0.48199001976E+03  0.56870105554E+03  0.65998125000E+03  0.10073242641E+04  0.15294330000E+03 0.  0.
    8880022    1    1    2    0    0 -0.48199001976E+03 -0.56870105554E+03 -0.40767127269E+03  0.86332079166E+03  0.15294330000E+03 0.  0.
<mgrwt>
<rscale>  0 0.76100389E+03</rscale>
<asrwt>0</asrwt>
<pdfrwt beam="1">  1        2 0.16330423E+00 0.76100389E+03</pdfrwt>
<pdfrwt beam="2">  1       -2 0.12448731E+00 0.76100389E+03</pdfrwt>
<totfact> 0.11338699E+01</totfact>
</mgrwt>
</event>
<event>
 4    1  0.6912310E-008  0.6843048E+03  0.7818608E-02  0.9744456E-01
         -2   -1    0    0    0  501 -0.00000000000E+00  0.00000000000E+00  0.38996641784E+03  0.38996641785E+03  0.25500000000E-02 0.  1.
          2   -1    0    0  501    0  0.00000000000E+00 -0.00000000000E+00 -0.37166658291E+04  0.37166658291E+04  0.25500000000E-02 0. -1.
    8880022    1    1    2    0    0  0.32760292324E+03 -0.58099713051E+03 -0.33527108700E+04  0.34218333056E+04  0.15294330000E+03 0.  0.
    8880022    1    1    2    0    0 -0.32760292324E+03  0.58099713051E+03  0.26011458742E+02  0.68479894128E+03  0.15294330000E+03 0.  0.
<mgrwt>
<rscale>  0 0.68430475E+03</rscale>
<asrwt>0</asrwt>
<pdfrwt beam="1">  1        2 0.57179472E+00 0.68430475E+03</pdfrwt>
<pdfrwt beam="2">  1       -2 0.59994836E-01 0.68430475E+03</pdfrwt>
<totfact> 0.16392076E+00</totfact>
</mgrwt>
</event>
<event>
 4    1  0.6912310E-008  0.4288451E+03  0.7818608E-02  0.1034225E+00
         -2   -1    0    0    0  501 -0.00000000000E+00  0.00000000000E+00  0.13804086617E+03  0.13804086620E+03  0.25500000000E-02 0.  1.
          2   -1    0    0  501    0  0.00000000000E+00 -0.00000000000E+00 -0.26894643207E+04  0.26894643207E+04  0.25500000000E-02 0. -1.
    8880022    1    1    2    0    0  0.38394019970E+03  0.11448304927E+03 -0.22800062208E+04  0.23199863072E+04  0.15294330000E+03 0.  0.
    8880022    1    1    2    0    0 -0.38394019970E+03 -0.11448304927E+03 -0.27141723374E+03  0.50751887974E+03  0.15294330000E+03 0.  1.
<mgrwt>
<rscale>  0 0.42884508E+03</rscale>
<asrwt>0</asrwt>
<pdfrwt beam="1">  1        2 0.41376370E+00 0.42884508E+03</pdfrwt>
<pdfrwt beam="2">  1       -2 0.21237058E-01 0.42884508E+03</pdfrwt>
<totfact> 0.57278514E+01</totfact>
</mgrwt>
</event>
<event>
 4    1  0.6912310E-008  0.3887148E+03  0.7818608E-02  0.1047759E+00
          2   -1    0    0  501    0  0.00000000000E+00  0.00000000000E+00  0.18096984667E+04  0.18096984667E+04  0.25500000000E-02 0. -1.
         -2   -1    0    0    0  501 -0.00000000000E+00 -0.00000000000E+00 -0.25456370421E+03  0.25456370422E+03  0.25500000000E-02 0.  1.
    8880022    1    1    2    0    0  0.24454069684E+03  0.26059046717E+03  0.16236699351E+04  0.16695518127E+04  0.15294330000E+03 0. -1.
    8880022    1    1    2    0    0 -0.24454069684E+03 -0.26059046717E+03 -0.68535172641E+02  0.39471035823E+03  0.15294330000E+03 0.  0.
<mgrwt>
<rscale>  0 0.38871480E+03</rscale>
<asrwt>0</asrwt>
<pdfrwt beam="1">  1        2 0.27841515E+00 0.38871480E+03</pdfrwt>
<pdfrwt beam="2">  1       -2 0.39163646E-01 0.38871480E+03</pdfrwt>
<totfact> 0.57008905E+01</totfact>
</mgrwt>
</event>
<event>
 4    1  0.6912310E-008  0.6389554E+03  0.7818608E-02  0.9827727E-01
         -2   -1    0    0    0  501 -0.00000000000E+00  0.00000000000E+00  0.21039153958E+04  0.21039153958E+04  0.25500000000E-02 0.  1.
          2   -1    0    0  501    0  0.00000000000E+00 -0.00000000000E+00 -0.51072935528E+03  0.51072935528E+03  0.25500000000E-02 0. -1.
    8880022    1    1    2    0    0  0.61216196883E+03  0.10064816595E+03 -0.23283840316E+03  0.68005713319E+03  0.15294330000E+03 0.  0.
    8880022    1    1    2    0    0 -0.61216196883E+03 -0.10064816595E+03  0.18260244437E+04  0.19345876179E+04  0.15294330000E+03 0.  0.
<mgrwt>
<rscale>  0 0.63895538E+03</rscale>
<asrwt>0</asrwt>
<pdfrwt beam="1">  1        2 0.78573746E-01 0.63895538E+03</pdfrwt>
<pdfrwt beam="2">  1       -2 0.32367930E+00 0.63895538E+03</pdfrwt>
<totfact> 0.14593335E+00</totfact>
</mgrwt>
</event>
<event>
 4    1  0.6912310E-008  0.3595627E+03  0.7818608E-02  0.1058757E+00
         -2   -1    0    0    0  501 -0.00000000000E+00  0.00000000000E+00  0.28415954335E+03  0.28415954337E+03  0.25500000000E-02 0.  1.
          2   -1    0    0  501    0  0.00000000000E+00 -0.00000000000E+00 -0.17000932162E+04  0.17000932162E+04  0.25500000000E-02 0. -1.
    8880022    1    1    2    0    0 -0.32513861347E+03  0.13363163836E+02  0.14108853025E+03  0.38625292037E+03  0.15294330000E+03 0.  0.
    8880022    1    1    2    0    0  0.32513861347E+03 -0.13363163836E+02 -0.15570222031E+04  0.15979998392E+04  0.15294330000E+03 0.  0.
<mgrwt>
<rscale>  0 0.35956271E+03</rscale>
<asrwt>0</asrwt>
<pdfrwt beam="1">  1        2 0.26155280E+00 0.35956271E+03</pdfrwt>
<pdfrwt beam="2">  1       -2 0.43716854E-01 0.35956271E+03</pdfrwt>
<totfact> 0.53030885E+01</totfact>
</mgrwt>
</event>
<event>
 4    1  0.6912310E-008  0.7067127E+03  0.7818608E-02  0.9705821E-01
          2   -1    0    0  501    0  0.00000000000E+00  0.00000000000E+00  0.12721753635E+04  0.12721753635E+04  0.25500000000E-02 0. -1.
         -2   -1    0    0    0  501 -0.00000000000E+00 -0.00000000000E+00 -0.54135866392E+03  0.54135866392E+03  0.25500000000E-02 0.  1.
    8880022    1    1    2    0    0  0.58052217155E+03  0.37288765874E+03  0.84075391208E+03  0.10983214427E+04  0.15294330000E+03 0.  0.
    8880022    1    1    2    0    0 -0.58052217155E+03 -0.37288765874E+03 -0.10993721249E+03  0.71521258477E+03  0.15294330000E+03 0.  0.
<mgrwt>
<rscale>  0 0.70671271E+03</rscale>
<asrwt>0</asrwt>
<pdfrwt beam="1">  1        2 0.19571929E+00 0.70671271E+03</pdfrwt>
<pdfrwt beam="2">  1       -2 0.83285948E-01 0.70671271E+03</pdfrwt>
<totfact> 0.22207018E+01</totfact>
</mgrwt>
</event>
<event>
 4    1  0.6912310E-008  0.5325799E+03  0.7818608E-02  0.1005608E+00
         -2   -1    0    0    0  501 -0.00000000000E+00  0.00000000000E+00  0.85986479316E+03  0.85986479317E+03  0.25500000000E-02 0.  1.
          2   -1    0    0  501    0  0.00000000000E+00 -0.00000000000E+00 -0.18164612965E+04  0.18164612965E+04  0.25500000000E-02 0. -1.
    8880022    1    1    2    0    0  0.51011414403E+03 -0.57655218958E+01 -0.16888744629E+04  0.17708580648E+04  0.15294330000E+03 0.  0.
    8880022    1    1    2    0    0 -0.51011414403E+03  0.57655218958E+01  0.73227795951E+03  0.90546802493E+03  0.15294330000E+03 0.  0.
<mgrwt>
<rscale>  0 0.53257989E+03</rscale>
<asrwt>0</asrwt>
<pdfrwt beam="1">  1        2 0.27945558E+00 0.53257989E+03</pdfrwt>
<pdfrwt beam="2">  1       -2 0.13228689E+00 0.53257989E+03</pdfrwt>
<totfact> 0.37844583E+00</totfact>
</mgrwt>
</event>
<event>
 4    1  0.6912310E-008  0.9179072E+03  0.7818608E-02  0.9403469E-01
         -2   -1    0    0    0  501 -0.00000000000E+00  0.00000000000E+00  0.69856056372E+03  0.69856056372E+03  0.25500000000E-02 0.  1.
          2   -1    0    0  501    0  0.00000000000E+00 -0.00000000000E+00 -0.27947070416E+04  0.27947070416E+04  0.25500000000E-02 0. -1.
    8880022    1    1    2    0    0  0.64662146922E+03  0.63327923054E+03 -0.23649287021E+04  0.25368171647E+04  0.15294330000E+03 0.  0.
    8880022    1    1    2    0    0 -0.64662146922E+03 -0.63327923054E+03  0.26878222419E+03  0.95645044061E+03  0.15294330000E+03 0.  0.
<mgrwt>
<rscale>  0 0.91790716E+03</rscale>
<asrwt>0</asrwt>
<pdfrwt beam="1">  1        2 0.42995492E+00 0.91790716E+03</pdfrwt>
<pdfrwt beam="2">  1       -2 0.10747086E+00 0.91790716E+03</pdfrwt>
<totfact> 0.16638695E+00</totfact>
</mgrwt>
</event>
<event>
 4    1  0.7559610E-008  0.7736320E+03  0.7818608E-02  0.9598988E-01
         -2   -1    0    0    0  501 -0.00000000000E+00  0.00000000000E+00  0.77843364746E+03  0.77843364747E+03  0.25500000000E-02 0.  1.
          2   -1    0    0  501    0  0.00000000000E+00 -0.00000000000E+00 -0.32871184269E+04  0.32871184269E+04  0.25500000000E-02 0. -1.
    8880022    1    1    2    0    0 -0.66309239656E+03  0.36799903967E+03  0.52488726079E+03  0.93488668251E+03  0.15294330000E+03 0.  0.
    8880022    1    1    2    0    0  0.66309239656E+03 -0.36799903967E+03 -0.30335720402E+04  0.31306653919E+04  0.15294330000E+03 0.  0.
<mgrwt>
<rscale>  0 0.77363200E+03</rscale>
<asrwt>0</asrwt>
<pdfrwt beam="1">  1        2 0.50571052E+00 0.77363200E+03</pdfrwt>
<pdfrwt beam="2">  1       -2 0.11975902E+00 0.77363200E+03</pdfrwt>
<totfact> 0.65107870E-01</totfact>
</mgrwt>
</event>
<event>
 4    1  0.6912310E-008  0.3042425E+03  0.7818608E-02  0.1083139E+00
          2   -1    0    0  501    0  0.00000000000E+00  0.00000000000E+00  0.33383878673E+03  0.33383878674E+03  0.25500000000E-02 0. -1.
         -2   -1    0    0    0  501 -0.00000000000E+00 -0.00000000000E+00 -0.58102650304E+03  0.58102650304E+03  0.25500000000E-02 0.  1.
    8880022    1    1    2    0    0 -0.16505728701E+03 -0.20476315313E+03  0.20715009479E+03  0.36806884093E+03  0.15294330000E+03 0. -1.
    8880022    1    1    2    0    0  0.16505728701E+03  0.20476315313E+03 -0.45433781110E+03  0.54679644886E+03  0.15294330000E+03 0.  0.
<mgrwt>
<rscale>  0 0.30424252E+03</rscale>
<asrwt>0</asrwt>
<pdfrwt beam="1">  1        2 0.51359813E-01 0.30424252E+03</pdfrwt>
<pdfrwt beam="2">  1       -2 0.89388693E-01 0.30424252E+03</pdfrwt>
<totfact> 0.10868278E+02</totfact>
</mgrwt>
</event>
<event>
 4    1  0.6912310E-008  0.5526759E+03  0.7818608E-02  0.1000876E+00
         -2   -1    0    0    0  501 -0.00000000000E+00  0.00000000000E+00  0.57026363142E+03  0.57026363143E+03  0.25500000000E-02 0.  1.
          2   -1    0    0  501    0  0.00000000000E+00 -0.00000000000E+00 -0.59166779355E+03  0.59166779356E+03  0.25500000000E-02 0. -1.
    8880022    1    1    2    0    0  0.44007165504E+03 -0.29731444959E+03  0.16809074791E+03  0.57767213542E+03  0.15294330000E+03 0.  0.
    8880022    1    1    2    0    0 -0.44007165504E+03  0.29731444959E+03 -0.18949491003E+03  0.58425928956E+03  0.15294330000E+03 0.  0.
<mgrwt>
<rscale>  0 0.55267585E+03</rscale>
<asrwt>0</asrwt>
<pdfrwt beam="1">  1        2 0.91025815E-01 0.55267585E+03</pdfrwt>
<pdfrwt beam="2">  1       -2 0.87732866E-01 0.55267585E+03</pdfrwt>
<totfact> 0.58111270E+01</totfact>
</mgrwt>
</event>
<event>
 4    1  0.6912310E-008  0.5409372E+03  0.7818608E-02  0.1003614E+00
         -2   -1    0    0    0  501 -0.00000000000E+00  0.00000000000E+00  0.37227568405E+03  0.37227568406E+03  0.25500000000E-02 0.  1.
          2   -1    0    0  501    0  0.00000000000E+00 -0.00000000000E+00 -0.79407195081E+03  0.79407195081E+03  0.25500000000E-02 0. -1.
    8880022    1    1    2    0    0 -0.40957544072E+03  0.31854257658E+03 -0.26965256077E+03  0.60442168333E+03  0.15294330000E+03 0.  0.
    8880022    1    1    2    0    0  0.40957544072E+03 -0.31854257658E+03 -0.15214370599E+03  0.56192595154E+03  0.15294330000E+03 0.  0.
<mgrwt>
<rscale>  0 0.54093721E+03</rscale>
<asrwt>0</asrwt>
<pdfrwt beam="1">  1        2 0.12216491E+00 0.54093721E+03</pdfrwt>
<pdfrwt beam="2">  1       -2 0.57273182E-01 0.54093721E+03</pdfrwt>
<totfact> 0.10221491E+02</totfact>
</mgrwt>
</event>
<event>
 4    1  0.6912310E-008  0.5394561E+03  0.7818608E-02  0.1003964E+00
         -2   -1    0    0    0  501 -0.00000000000E+00  0.00000000000E+00  0.86645785377E+03  0.86645785377E+03  0.25500000000E-02 0.  1.
          2   -1    0    0  501    0  0.00000000000E+00 -0.00000000000E+00 -0.44346420827E+03  0.44346420827E+03  0.25500000000E-02 0. -1.
    8880022    1    1    2    0    0 -0.16197295882E+03  0.49131050454E+03  0.53411633128E+03  0.75913974972E+03  0.15294330000E+03 0.  1.
    8880022    1    1    2    0    0  0.16197295882E+03 -0.49131050454E+03 -0.11112268578E+03  0.55078231232E+03  0.15294330000E+03 0.  0.
<mgrwt>
<rscale>  0 0.53945612E+03</rscale>
<asrwt>0</asrwt>
<pdfrwt beam="1">  1        2 0.68225263E-01 0.53945612E+03</pdfrwt>
<pdfrwt beam="2">  1       -2 0.13330121E+00 0.53945612E+03</pdfrwt>
<totfact> 0.29721755E+01</totfact>
</mgrwt>
</event>
<event>
 4    1  0.6912310E-008  0.7597324E+03  0.7818608E-02  0.9620204E-01
          2   -1    0    0  501    0  0.00000000000E+00  0.00000000000E+00  0.29682628006E+04  0.29682628006E+04  0.25500000000E-02 0. -1.
         -2   -1    0    0    0  501 -0.00000000000E+00 -0.00000000000E+00 -0.22325313696E+03  0.22325313697E+03  0.25500000000E-02 0.  1.
    8880022    1    1    2    0    0  0.18453980952E+03  0.72093465447E+03  0.19456318360E+04  0.20887021357E+04  0.15294330000E+03 0.  0.
    8880022    1    1    2    0    0 -0.18453980952E+03 -0.72093465447E+03  0.79937782764E+03  0.11028138019E+04  0.15294330000E+03 0.  0.
<mgrwt>
<rscale>  0 0.75973243E+03</rscale>
<asrwt>0</asrwt>
<pdfrwt beam="1">  1        2 0.45665580E+00 0.75973243E+03</pdfrwt>
<pdfrwt beam="2">  1       -2 0.34346638E-01 0.75973243E+03</pdfrwt>
<totfact> 0.15315020E+01</totfact>
</mgrwt>
</event>
<event>
 4    1  0.6912310E-008  0.3508037E+03  0.7818608E-02  0.1062286E+00
         -2   -1    0    0    0  501 -0.00000000000E+00  0.00000000000E+00  0.95077794670E+03  0.95077794670E+03  0.25500000000E-02 0.  1.
          2   -1    0    0  501    0  0.00000000000E+00 -0.00000000000E+00 -0.14994870405E+04  0.14994870405E+04  0.25500000000E-02 0. -1.
    8880022    1    1    2    0    0 -0.30822221219E+03 -0.68342250718E+02  0.89670869180E+03  0.96288614399E+03  0.15294330000E+03 0.  0.
    8880022    1    1    2    0    0  0.30822221219E+03  0.68342250718E+02 -0.14454177856E+04  0.14873788432E+04  0.15294330000E+03 0.  0.
<mgrwt>
<rscale>  0 0.35080372E+03</rscale>
<asrwt>0</asrwt>
<pdfrwt beam="1">  1        2 0.23069031E+00 0.35080372E+03</pdfrwt>
<pdfrwt beam="2">  1       -2 0.14627353E+00 0.35080372E+03</pdfrwt>
<totfact> 0.45669925E+00</totfact>
</mgrwt>
</event>
<event>
 4    1  0.6912310E-008  0.6600937E+03  0.7818608E-02  0.9788021E-01
          2   -1    0    0  501    0  0.00000000000E+00  0.00000000000E+00  0.31539365957E+04  0.31539365957E+04  0.25500000000E-02 0. -1.
         -2   -1    0    0    0  501 -0.00000000000E+00 -0.00000000000E+00 -0.51227787379E+03  0.51227787380E+03  0.25500000000E-02 0.  1.
    8880022    1    1    2    0    0 -0.67646599161E+02  0.63855774841E+03  0.28873775123E+04  0.29618697831E+04  0.15294330000E+03 0.  0.
    8880022    1    1    2    0    0  0.67646599161E+02 -0.63855774841E+03 -0.24571879032E+03  0.70434468648E+03  0.15294330000E+03 0.  0.
<mgrwt>
<rscale>  0 0.66009372E+03</rscale>
<asrwt>0</asrwt>
<pdfrwt beam="1">  1        2 0.48522101E+00 0.66009372E+03</pdfrwt>
<pdfrwt beam="2">  1       -2 0.78811982E-01 0.66009372E+03</pdfrwt>
<totfact> 0.21760661E+00</totfact>
</mgrwt>
</event>
<event>
 4    1  0.6912310E-008  0.1873910E+03  0.7818608E-02  0.1160836E+00
         -2   -1    0    0    0  501 -0.00000000000E+00  0.00000000000E+00  0.78124535008E+02  0.78124535049E+02  0.25500000000E-02 0.  1.
          2   -1    0    0  501    0  0.00000000000E+00 -0.00000000000E+00 -0.12275841462E+04  0.12275841462E+04  0.25500000000E-02 0. -1.
    8880022    1    1    2    0    0  0.96857124259E+02  0.48398696073E+02 -0.54961707133E+02  0.19528486518E+03  0.15294330000E+03 0.  1.
    8880022    1    1    2    0    0 -0.96857124259E+02 -0.48398696073E+02 -0.10944979041E+04  0.11104238161E+04  0.15294330000E+03 0.  0.
<mgrwt>
<rscale>  0 0.18739101E+03</rscale>
<asrwt>0</asrwt>
<pdfrwt beam="1">  1        2 0.18885909E+00 0.18739101E+03</pdfrwt>
<pdfrwt beam="2">  1       -2 0.12019160E-01 0.18739101E+03</pdfrwt>
<totfact> 0.95740602E+02</totfact>
</mgrwt>
</event>
<event>
 4    1  0.6912310E-008  0.6234695E+03  0.7818608E-02  0.9857876E-01
          2   -1    0    0  501    0  0.00000000000E+00  0.00000000000E+00  0.23736822293E+04  0.23736822293E+04  0.25500000000E-02 0. -1.
         -2   -1    0    0    0  501 -0.00000000000E+00 -0.00000000000E+00 -0.24094831368E+03  0.24094831370E+03  0.25500000000E-02 0.  1.
    8880022    1    1    2    0    0 -0.19519573023E+03 -0.57203246151E+03  0.32643086607E+03  0.70375512322E+03  0.15294330000E+03 0.  0.
    8880022    1    1    2    0    0  0.19519573023E+03  0.57203246151E+03  0.18063030496E+04  0.19108754198E+04  0.15294330000E+03 0.  0.
<mgrwt>
<rscale>  0 0.62346946E+03</rscale>
<asrwt>0</asrwt>
<pdfrwt beam="1">  1        2 0.36518187E+00 0.62346946E+03</pdfrwt>
<pdfrwt beam="2">  1       -2 0.37068972E-01 0.62346946E+03</pdfrwt>
<totfact> 0.29960339E+01</totfact>
</mgrwt>
</event>
<event>
 4    1  0.6912310E-008  0.5638647E+03  0.7818608E-02  0.9983348E-01
          2   -1    0    0  501    0  0.00000000000E+00  0.00000000000E+00  0.35095138814E+04  0.35095138814E+04  0.25500000000E-02 0. -1.
         -2   -1    0    0    0  501 -0.00000000000E+00 -0.00000000000E+00 -0.15945597280E+03  0.15945597282E+03  0.25500000000E-02 0.  1.
    8880022    1    1    2    0    0 -0.14605988784E+02 -0.54252963191E+03  0.28805679026E+04  0.29352367589E+04  0.15294330000E+03 0.  0.
    8880022    1    1    2    0    0  0.14605988784E+02  0.54252963191E+03  0.46949000603E+03  0.73373309534E+03  0.15294330000E+03 0.  0.
<mgrwt>
<rscale>  0 0.56386469E+03</rscale>
<asrwt>0</asrwt>
<pdfrwt beam="1">  1        2 0.53992521E+00 0.56386469E+03</pdfrwt>
<pdfrwt beam="2">  1       -2 0.24531688E-01 0.56386469E+03</pdfrwt>
<totfact> 0.13338298E+01</totfact>
</mgrwt>
</event>
<event>
 4    1  0.6912310E-008  0.4000212E+03  0.7818608E-02  0.1043772E+00
         -2   -1    0    0    0  501 -0.00000000000E+00  0.00000000000E+00  0.17110859652E+03  0.17110859654E+03  0.25500000000E-02 0.  1.
          2   -1    0    0  501    0  0.00000000000E+00 -0.00000000000E+00 -0.12468362492E+04  0.12468362492E+04  0.25500000000E-02 0. -1.
    8880022    1    1    2    0    0  0.29132578237E+03  0.22749641822E+03 -0.18340647508E+03  0.44006240454E+03  0.15294330000E+03 0.  0.
    8880022    1    1    2    0    0 -0.29132578237E+03 -0.22749641822E+03 -0.89232117761E+03  0.97788244120E+03  0.15294330000E+03 0.  0.
<mgrwt>
<rscale>  0 0.40002123E+03</rscale>
<asrwt>0</asrwt>
<pdfrwt beam="1">  1        2 0.19182096E+00 0.40002123E+03</pdfrwt>
<pdfrwt beam="2">  1       -2 0.26324400E-01 0.40002123E+03</pdfrwt>
<totfact> 0.24140365E+02</totfact>
</mgrwt>
</event>
<event>
 4    1  0.6912310E-008  0.3601744E+03  0.7818608E-02  0.1058515E+00
         -2   -1    0    0    0  501 -0.00000000000E+00  0.00000000000E+00  0.16228301107E+03  0.16228301109E+03  0.25500000000E-02 0.  1.
          2   -1    0    0  501    0  0.00000000000E+00 -0.00000000000E+00 -0.16252925832E+04  0.16252925832E+04  0.25500000000E-02 0. -1.
    8880022    1    1    2    0    0 -0.32076648905E+03 -0.58675571391E+02 -0.94363170020E+02  0.37233053064E+03  0.15294330000E+03 0.  0.
    8880022    1    1    2    0    0  0.32076648905E+03  0.58675571391E+02 -0.13686464021E+04  0.14152450637E+04  0.15294330000E+03 0.  0.
<mgrwt>
<rscale>  0 0.36017442E+03</rscale>
<asrwt>0</asrwt>
<pdfrwt beam="1">  1        2 0.25004500E+00 0.36017442E+03</pdfrwt>
<pdfrwt beam="2">  1       -2 0.24966618E-01 0.36017442E+03</pdfrwt>
<totfact> 0.16527719E+02</totfact>
</mgrwt>
</event>
<event>
 4    1  0.6912310E-008  0.1169763E+04  0.7818608E-02  0.9139743E-01
         -2   -1    0    0    0  501 -0.00000000000E+00  0.00000000000E+00  0.24003963004E+04  0.24003963004E+04  0.25500000000E-02 0.  1.
          2   -1    0    0  501    0  0.00000000000E+00 -0.00000000000E+00 -0.12346760146E+04  0.12346760146E+04  0.25500000000E-02 0. -1.
    8880022    1    1    2    0    0  0.11202357464E+04  0.30004239344E+03 -0.75064690705E+03  0.13898978371E+04  0.15294330000E+03 0.  0.
    8880022    1    1    2    0    0 -0.11202357464E+04 -0.30004239344E+03  0.19163671928E+04  0.22451744779E+04  0.15294330000E+03 0.  0.
<mgrwt>
<rscale>  0 0.11697629E+04</rscale>
<asrwt>0</asrwt>
<pdfrwt beam="1">  1        2 0.18995016E+00 0.11697629E+04</pdfrwt>
<pdfrwt beam="2">  1       -2 0.36929174E+00 0.11697629E+04</pdfrwt>
<totfact> 0.20910774E-01</totfact>
</mgrwt>
</event>
<event>
 4    1  0.6912310E-008  0.1971214E+03  0.7818608E-02  0.1152191E+00
          2   -1    0    0  501    0  0.00000000000E+00  0.00000000000E+00  0.67492130076E+03  0.67492130077E+03  0.25500000000E-02 0. -1.
         -2   -1    0    0    0  501 -0.00000000000E+00 -0.00000000000E+00 -0.10562768825E+03  0.10562768828E+03  0.25500000000E-02 0.  1.
    8880022    1    1    2    0    0 -0.40485980529E+02 -0.11758440841E+03  0.54788671459E+03  0.58226859160E+03  0.15294330000E+03 0. -1.
    8880022    1    1    2    0    0  0.40485980529E+02  0.11758440841E+03  0.21406897916E+02  0.19828039745E+03  0.15294330000E+03 0.  0.
<mgrwt>
<rscale>  0 0.19712144E+03</rscale>
<asrwt>0</asrwt>
<pdfrwt beam="1">  1        2 0.10383404E+00 0.19712144E+03</pdfrwt>
<pdfrwt beam="2">  1       -2 0.16250414E-01 0.19712144E+03</pdfrwt>
<totfact> 0.13107241E+03</totfact>
</mgrwt>
</event>
<event>
 4    1  0.6912310E-008  0.1363639E+04  0.7818608E-02  0.8980568E-01
         -2   -1    0    0    0  501 -0.00000000000E+00  0.00000000000E+00  0.12952483296E+04  0.12952483296E+04  0.25500000000E-02 0.  1.
          2   -1    0    0  501    0  0.00000000000E+00 -0.00000000000E+00 -0.23719835895E+04  0.23719835895E+04  0.25500000000E-02 0. -1.
    8880022    1    1    2    0    0  0.39585838753E+03 -0.12959224410E+04  0.61367918971E+03  0.14953637140E+04  0.15294330000E+03 0.  0.
    8880022    1    1    2    0    0 -0.39585838753E+03  0.12959224410E+04 -0.16904144495E+04  0.21718682051E+04  0.15294330000E+03 0.  0.
<mgrwt>
<rscale>  0 0.13636387E+04</rscale>
<asrwt>0</asrwt>
<pdfrwt beam="1">  1        2 0.36492055E+00 0.13636387E+04</pdfrwt>
<pdfrwt beam="2">  1       -2 0.19926897E+00 0.13636387E+04</pdfrwt>
<totfact> 0.52931546E-01</totfact>
</mgrwt>
</event>
<event>
 4    1  0.6912310E-008  0.3760952E+03  0.7818608E-02  0.1052386E+00
          2   -1    0    0  501    0  0.00000000000E+00  0.00000000000E+00  0.54036628972E+03  0.54036628973E+03  0.25500000000E-02 0. -1.
         -2   -1    0    0    0  501 -0.00000000000E+00 -0.00000000000E+00 -0.29276124857E+03  0.29276124859E+03  0.25500000000E-02 0.  1.
    8880022    1    1    2    0    0  0.20282457409E+03 -0.27734122216E+03  0.25935173164E+03  0.45684891932E+03  0.15294330000E+03 0.  0.
    8880022    1    1    2    0    0 -0.20282457409E+03  0.27734122216E+03 -0.11746690488E+02  0.37627861900E+03  0.15294330000E+03 0.  0.
<mgrwt>
<rscale>  0 0.37609522E+03</rscale>
<asrwt>0</asrwt>
<pdfrwt beam="1">  1        2 0.83133274E-01 0.37609522E+03</pdfrwt>
<pdfrwt beam="2">  1       -2 0.45040193E-01 0.37609522E+03</pdfrwt>
<totfact> 0.26965115E+02</totfact>
</mgrwt>
</event>
<event>
 4    1  0.6912310E-008  0.1806327E+03  0.7818608E-02  0.1167192E+00
          2   -1    0    0  501    0  0.00000000000E+00  0.00000000000E+00  0.19541698720E+03  0.19541698722E+03  0.25500000000E-02 0. -1.
         -2   -1    0    0    0  501 -0.00000000000E+00 -0.00000000000E+00 -0.15040242779E+04  0.15040242779E+04  0.25500000000E-02 0.  1.
    8880022    1    1    2    0    0  0.73194884138E+02 -0.62281941177E+02 -0.14554719317E+04  0.14666378995E+04  0.15294330000E+03 0.  0.
    8880022    1    1    2    0    0 -0.73194884138E+02  0.62281941177E+02  0.14686464099E+03  0.23280336563E+03  0.15294330000E+03 0. -1.
<mgrwt>
<rscale>  0 0.18063273E+03</rscale>
<asrwt>0</asrwt>
<pdfrwt beam="1">  1        2 0.30064153E-01 0.18063273E+03</pdfrwt>
<pdfrwt beam="2">  1       -2 0.23138834E+00 0.18063273E+03</pdfrwt>
<totfact> 0.16706160E+01</totfact>
</mgrwt>
</event>
<event>
 4    1  0.6912310E-008  0.7832755E+03  0.7818608E-02  0.9584546E-01
         -2   -1    0    0    0  501 -0.00000000000E+00  0.00000000000E+00  0.24852203576E+03  0.24852203577E+03  0.25500000000E-02 0.  1.
          2   -1    0    0  501    0  0.00000000000E+00 -0.00000000000E+00 -0.37839561428E+04  0.37839561428E+04  0.25500000000E-02 0. -1.
    8880022    1    1    2    0    0 -0.68107356391E+03 -0.35534155702E+03 -0.57900119806E+03  0.97404458931E+03  0.15294330000E+03 0.  0.
    8880022    1    1    2    0    0  0.68107356391E+03  0.35534155702E+03 -0.29564329090E+04  0.30584335893E+04  0.15294330000E+03 0.  0.
<mgrwt>
<rscale>  0 0.78327548E+03</rscale>
<asrwt>0</asrwt>
<pdfrwt beam="1">  1        2 0.58214706E+00 0.78327548E+03</pdfrwt>
<pdfrwt beam="2">  1       -2 0.38234162E-01 0.78327548E+03</pdfrwt>
<totfact> 0.35533086E+00</totfact>
</mgrwt>
</event>
<event>
 4    1  0.6912310E-008  0.3943058E+03  0.7818608E-02  0.1045769E+00
         -2   -1    0    0    0  501 -0.00000000000E+00  0.00000000000E+00  0.54953738260E+03  0.54953738261E+03  0.25500000000E-02 0.  1.
          2   -1    0    0  501    0  0.00000000000E+00 -0.00000000000E+00 -0.47916104760E+03  0.47916104761E+03  0.25500000000E-02 0. -1.
    8880022    1    1    2    0    0 -0.35913439293E+03 -0.55748579674E+02  0.36434912937E+03  0.53686810057E+03  0.15294330000E+03 0.  0.
    8880022    1    1    2    0    0  0.35913439293E+03  0.55748579674E+02 -0.29397279437E+03  0.49183032965E+03  0.15294330000E+03 0.  0.
<mgrwt>
<rscale>  0 0.39430581E+03</rscale>
<asrwt>0</asrwt>
<pdfrwt beam="1">  1        2 0.73717085E-01 0.39430581E+03</pdfrwt>
<pdfrwt beam="2">  1       -2 0.84544212E-01 0.39430581E+03</pdfrwt>
<totfact> 0.81957747E+01</totfact>
</mgrwt>
</event>
<event>
 4    1  0.6912310E-008  0.7053493E+03  0.7818608E-02  0.9708128E-01
          2   -1    0    0  501    0  0.00000000000E+00  0.00000000000E+00  0.10419398843E+04  0.10419398843E+04  0.25500000000E-02 0. -1.
         -2   -1    0    0    0  501 -0.00000000000E+00 -0.00000000000E+00 -0.63042563458E+03  0.63042563459E+03  0.25500000000E-02 0.  1.
    8880022    1    1    2    0    0 -0.51044430271E+02 -0.68667343407E+03 -0.20609023126E+03  0.73484064623E+03  0.15294330000E+03 0.  0.
    8880022    1    1    2    0    0  0.51044430271E+02  0.68667343407E+03  0.61760448095E+03  0.93752487264E+03  0.15294330000E+03 0.  0.
<mgrwt>
<rscale>  0 0.70534927E+03</rscale>
<asrwt>0</asrwt>
<pdfrwt beam="1">  1        2 0.16029844E+00 0.70534927E+03</pdfrwt>
<pdfrwt beam="2">  1       -2 0.96988560E-01 0.70534927E+03</pdfrwt>
<totfact> 0.21486859E+01</totfact>
</mgrwt>
</event>
<event>
 4    1  0.6912310E-008  0.5184319E+03  0.7818608E-02  0.1009077E+00
          2   -1    0    0  501    0  0.00000000000E+00  0.00000000000E+00  0.12161589215E+04  0.12161589215E+04  0.25500000000E-02 0. -1.
         -2   -1    0    0    0  501 -0.00000000000E+00 -0.00000000000E+00 -0.39453819795E+03  0.39453819796E+03  0.25500000000E-02 0.  1.
    8880022    1    1    2    0    0 -0.31648791014E+03  0.38107133556E+03  0.94492735332E+03  0.10778030043E+04  0.15294330000E+03 0.  0.
    8880022    1    1    2    0    0  0.31648791014E+03 -0.38107133556E+03 -0.12330662972E+03  0.53289411519E+03  0.15294330000E+03 0.  1.
<mgrwt>
<rscale>  0 0.51843188E+03</rscale>
<asrwt>0</asrwt>
<pdfrwt beam="1">  1        2 0.18710137E+00 0.51843188E+03</pdfrwt>
<pdfrwt beam="2">  1       -2 0.60698185E-01 0.51843188E+03</pdfrwt>
<totfact> 0.48942034E+01</totfact>
</mgrwt>
</event>
<event>
 4    1  0.6912310E-008  0.3977508E+03  0.7818608E-02  0.1044561E+00
          2   -1    0    0  501    0  0.00000000000E+00  0.00000000000E+00  0.26680775291E+04  0.26680775291E+04  0.25500000000E-02 0. -1.
         -2   -1    0    0    0  501 -0.00000000000E+00 -0.00000000000E+00 -0.13945892712E+03  0.13945892714E+03  0.25500000000E-02 0.  1.
    8880022    1    1    2    0    0  0.30347241902E+03 -0.20668460721E+03  0.20002004452E+03  0.44521198006E+03  0.15294330000E+03 0.  0.
    8880022    1    1    2    0    0 -0.30347241902E+03  0.20668460721E+03  0.23285985575E+04  0.23623244762E+04  0.15294330000E+03 0.  0.
<mgrwt>
<rscale>  0 0.39775079E+03</rscale>
<asrwt>0</asrwt>
<pdfrwt beam="1">  1        2 0.41047341E+00 0.39775079E+03</pdfrwt>
<pdfrwt beam="2">  1       -2 0.21455222E-01 0.39775079E+03</pdfrwt>
<totfact> 0.58318101E+01</totfact>
</mgrwt>
</event>
<event>
 4    1  0.6912310E-008  0.4257600E+03  0.7818608E-02  0.1035208E+00
          2   -1    0    0  501    0  0.00000000000E+00  0.00000000000E+00  0.26295653130E+04  0.26295653130E+04  0.25500000000E-02 0. -1.
         -2   -1    0    0    0  501 -0.00000000000E+00 -0.00000000000E+00 -0.12923290460E+03  0.12923290463E+03  0.25500000000E-02 0.  1.
    8880022    1    1    2    0    0  0.21694876524E+03  0.33288614363E+03  0.30794896080E+03  0.52545615120E+03  0.15294330000E+03 0.  0.
    8880022    1    1    2    0    0 -0.21694876524E+03 -0.33288614363E+03  0.21923834476E+04  0.22333420665E+04  0.15294330000E+03 0.  0.
<mgrwt>
<rscale>  0 0.42576003E+03</rscale>
<asrwt>0</asrwt>
<pdfrwt beam="1">  1        2 0.40454846E+00 0.42576003E+03</pdfrwt>
<pdfrwt beam="2">  1       -2 0.19881988E-01 0.42576003E+03</pdfrwt>
<totfact> 0.69528879E+01</totfact>
</mgrwt>
</event>
<event>
 4    1  0.6912310E-008  0.7815493E+03  0.7818608E-02  0.9587114E-01
          2   -1    0    0  501    0  0.00000000000E+00  0.00000000000E+00  0.29165650390E+04  0.29165650390E+04  0.25500000000E-02 0. -1.
         -2   -1    0    0    0  501 -0.00000000000E+00 -0.00000000000E+00 -0.33871314069E+03  0.33871314070E+03  0.25500000000E-02 0.  1.
    8880022    1    1    2    0    0 -0.29268083450E+03  0.70835414416E+03  0.22944934978E+04  0.24239471382E+04  0.15294330000E+03 0.  0.
    8880022    1    1    2    0    0  0.29268083450E+03 -0.70835414416E+03  0.28335840056E+03  0.83133104153E+03  0.15294330000E+03 0.  0.
<mgrwt>
<rscale>  0 0.78154931E+03</rscale>
<asrwt>0</asrwt>
<pdfrwt beam="1">  1        2 0.44870231E+00 0.78154931E+03</pdfrwt>
<pdfrwt beam="2">  1       -2 0.52109715E-01 0.78154931E+03</pdfrwt>
<totfact> 0.72049104E+00</totfact>
</mgrwt>
</event>
<event>
 4    1  0.6912310E-008  0.2454570E+03  0.7818608E-02  0.1116210E+00
         -2   -1    0    0    0  501 -0.00000000000E+00  0.00000000000E+00  0.85943418317E+02  0.85943418355E+02  0.25500000000E-02 0.  1.
          2   -1    0    0  501    0  0.00000000000E+00 -0.00000000000E+00 -0.15351769826E+04  0.15351769826E+04  0.25500000000E-02 0. -1.
    8880022    1    1    2    0    0 -0.19169955633E+03  0.10428857290E+02 -0.13221013290E+04  0.13446936670E+04  0.15294330000E+03 0.  0.
    8880022    1    1    2    0    0  0.19169955633E+03 -0.10428857290E+02 -0.12713223525E+03  0.27642673390E+03  0.15294330000E+03 0.  0.
<mgrwt>
<rscale>  0 0.24545699E+03</rscale>
<asrwt>0</asrwt>
<pdfrwt beam="1">  1        2 0.23618105E+00 0.24545699E+03</pdfrwt>
<pdfrwt beam="2">  1       -2 0.13222065E-01 0.24545699E+03</pdfrwt>
<totfact> 0.55509360E+02</totfact>
</mgrwt>
</event>
<event>
 4    1  0.6912310E-008  0.2842771E+03  0.7818608E-02  0.1093376E+00
         -2   -1    0    0    0  501 -0.00000000000E+00  0.00000000000E+00  0.36410654152E+03  0.36410654153E+03  0.25500000000E-02 0.  1.
          2   -1    0    0  501    0  0.00000000000E+00 -0.00000000000E+00 -0.36199067366E+03  0.36199067367E+03  0.25500000000E-02 0. -1.
    8880022    1    1    2    0    0 -0.97201423669E+02  0.21902897018E+03  0.22686791087E+03  0.36370662427E+03  0.15294330000E+03 0.  0.
    8880022    1    1    2    0    0  0.97201423669E+02 -0.21902897018E+03 -0.22475204301E+03  0.36239059093E+03  0.15294330000E+03 0.  0.
<mgrwt>
<rscale>  0 0.28427708E+03</rscale>
<asrwt>0</asrwt>
<pdfrwt beam="1">  1        2 0.55690873E-01 0.28427708E+03</pdfrwt>
<pdfrwt beam="2">  1       -2 0.56016391E-01 0.28427708E+03</pdfrwt>
<totfact> 0.27330750E+02</totfact>
</mgrwt>
</event>
<event>
 4    1  0.6912310E-008  0.1766261E+03  0.7818608E-02  0.1171109E+00
          2   -1    0    0  501    0  0.00000000000E+00  0.00000000000E+00  0.12548034088E+04  0.12548034088E+04  0.25500000000E-02 0. -1.
         -2   -1    0    0    0  501 -0.00000000000E+00 -0.00000000000E+00 -0.78175535402E+02  0.78175535444E+02  0.25500000000E-02 0.  1.
    8880022    1    1    2    0    0 -0.87995381522E+02  0.78699857034E+01  0.37915647470E+02  0.18064986350E+03  0.15294330000E+03 0.  0.
    8880022    1    1    2    0    0  0.87995381522E+02 -0.78699857034E+01  0.11387122259E+04  0.11523290807E+04  0.15294330000E+03 0. -1.
<mgrwt>
<rscale>  0 0.17662609E+03</rscale>
<asrwt>0</asrwt>
<pdfrwt beam="1">  1        2 0.19304667E+00 0.17662609E+03</pdfrwt>
<pdfrwt beam="2">  1       -2 0.12027006E-01 0.17662609E+03</pdfrwt>
<totfact> 0.92447619E+02</totfact>
</mgrwt>
</event>
<event>
 4    1  0.6912310E-008  0.3063427E+03  0.7818608E-02  0.1082112E+00
          2   -1    0    0  501    0  0.00000000000E+00  0.00000000000E+00  0.13253551834E+04  0.13253551834E+04  0.25500000000E-02 0. -1.
         -2   -1    0    0    0  501 -0.00000000000E+00 -0.00000000000E+00 -0.25214052566E+03  0.25214052568E+03  0.25500000000E-02 0.  1.
    8880022    1    1    2    0    0  0.26520597374E+03 -0.10952982654E+02 -0.13228258517E+03  0.33368325054E+03  0.15294330000E+03 0.  0.
    8880022    1    1    2    0    0 -0.26520597374E+03  0.10952982654E+02  0.12054972429E+04  0.12438124585E+04  0.15294330000E+03 0. -1.
<mgrwt>
<rscale>  0 0.30634267E+03</rscale>
<asrwt>0</asrwt>
<pdfrwt beam="1">  1        2 0.20390079E+00 0.30634267E+03</pdfrwt>
<pdfrwt beam="2">  1       -2 0.38790851E-01 0.30634267E+03</pdfrwt>
<totfact> 0.10787819E+02</totfact>
</mgrwt>
</event>
<event>
 4    1  0.6912310E-008  0.6394361E+03  0.7818608E-02  0.9826806E-01
         -2   -1    0    0    0  501 -0.00000000000E+00  0.00000000000E+00  0.52347980049E+03  0.52347980050E+03  0.25500000000E-02 0.  1.
          2   -1    0    0  501    0  0.00000000000E+00 -0.00000000000E+00 -0.12932998503E+04  0.12932998503E+04  0.25500000000E-02 0. -1.
    8880022    1    1    2    0    0  0.54579248995E+03 -0.29596868900E+03 -0.95658830762E+03  0.11506258081E+04  0.15294330000E+03 0.  0.
    8880022    1    1    2    0    0 -0.54579248995E+03  0.29596868900E+03  0.18676825785E+03  0.66615384267E+03  0.15294330000E+03 0.  0.
<mgrwt>
<rscale>  0 0.63943613E+03</rscale>
<asrwt>0</asrwt>
<pdfrwt beam="1">  1        2 0.19896921E+00 0.63943613E+03</pdfrwt>
<pdfrwt beam="2">  1       -2 0.80535354E-01 0.63943613E+03</pdfrwt>
<totfact> 0.23490791E+01</totfact>
</mgrwt>
</event>
<event>
 4    1  0.6912310E-008  0.6970260E+03  0.7818608E-02  0.9722332E-01
          2   -1    0    0  501    0  0.00000000000E+00  0.00000000000E+00  0.84178763140E+03  0.84178763141E+03  0.25500000000E-02 0. -1.
         -2   -1    0    0    0  501 -0.00000000000E+00 -0.00000000000E+00 -0.12250341861E+04  0.12250341861E+04  0.25500000000E-02 0.  1.
    8880022    1    1    2    0    0  0.55513548800E+03 -0.39278253787E+03 -0.94315040101E+03  0.11727650507E+04  0.15294330000E+03 0.  0.
    8880022    1    1    2    0    0 -0.55513548800E+03  0.39278253787E+03  0.55990384636E+03  0.89405676681E+03  0.15294330000E+03 0.  0.
<mgrwt>
<rscale>  0 0.69702596E+03</rscale>
<asrwt>0</asrwt>
<pdfrwt beam="1">  1        2 0.12950579E+00 0.69702596E+03</pdfrwt>
<pdfrwt beam="2">  1       -2 0.18846680E+00 0.69702596E+03</pdfrwt>
<totfact> 0.52482683E+00</totfact>
</mgrwt>
</event>
<event>
 4    1  0.6912310E-008  0.3031025E+03  0.7818608E-02  0.1083700E+00
          2   -1    0    0  501    0  0.00000000000E+00  0.00000000000E+00  0.20489038226E+04  0.20489038226E+04  0.25500000000E-02 0. -1.
         -2   -1    0    0    0  501 -0.00000000000E+00 -0.00000000000E+00 -0.81487543357E+03  0.81487543357E+03  0.25500000000E-02 0.  1.
    8880022    1    1    2    0    0 -0.13731874114E+03 -0.22276223769E+03 -0.77492263348E+03  0.83209145657E+03  0.15294330000E+03 0.  1.
    8880022    1    1    2    0    0  0.13731874114E+03  0.22276223769E+03  0.20089510225E+04  0.20316877996E+04  0.15294330000E+03 0.  0.
<mgrwt>
<rscale>  0 0.30310246E+03</rscale>
<asrwt>0</asrwt>
<pdfrwt beam="1">  1        2 0.31521597E+00 0.30310246E+03</pdfrwt>
<pdfrwt beam="2">  1       -2 0.12536545E+00 0.30310246E+03</pdfrwt>
<totfact> 0.35061323E+00</totfact>
</mgrwt>
</event>
<event>
 4    1  0.6912310E-008  0.1127347E+04  0.7818608E-02  0.9178940E-01
         -2   -1    0    0    0  501 -0.00000000000E+00  0.00000000000E+00  0.23598628672E+04  0.23598628672E+04  0.25500000000E-02 0.  1.
          2   -1    0    0  501    0  0.00000000000E+00 -0.00000000000E+00 -0.10498446439E+04  0.10498446439E+04  0.25500000000E-02 0. -1.
    8880022    1    1    2    0    0 -0.26860851508E+03 -0.10841444507E+04 -0.53474970707E+03  0.12477454174E+04  0.15294330000E+03 0.  0.
    8880022    1    1    2    0    0  0.26860851508E+03  0.10841444507E+04  0.18447679304E+04  0.21619620936E+04  0.15294330000E+03 0.  0.
<mgrwt>
<rscale>  0 0.11273471E+04</rscale>
<asrwt>0</asrwt>
<pdfrwt beam="1">  1        2 0.16151456E+00 0.11273471E+04</pdfrwt>
<pdfrwt beam="2">  1       -2 0.36305582E+00 0.11273471E+04</pdfrwt>
<totfact> 0.29908515E-01</totfact>
</mgrwt>
</event>
<event>
 4    1  0.6912310E-008  0.2868318E+03  0.7818608E-02  0.1092015E+00
          2   -1    0    0  501    0  0.00000000000E+00  0.00000000000E+00  0.36686334765E+04  0.36686334765E+04  0.25500000000E-02 0. -1.
         -2   -1    0    0    0  501 -0.00000000000E+00 -0.00000000000E+00 -0.38871737417E+02  0.38871737500E+02  0.25500000000E-02 0.  1.
    8880022    1    1    2    0    0 -0.24090573422E+03  0.29073097688E+02  0.30206455751E+04  0.30342333729E+04  0.15294330000E+03 0.  0.
    8880022    1    1    2    0    0  0.24090573422E+03 -0.29073097688E+02  0.60911616397E+03  0.67327184109E+03  0.15294330000E+03 0.  1.
<mgrwt>
<rscale>  0 0.28683178E+03</rscale>
<asrwt>0</asrwt>
<pdfrwt beam="1">  1        2 0.56440518E+00 0.28683178E+03</pdfrwt>
<pdfrwt beam="2">  1       -2 0.59802670E-02 0.28683178E+03</pdfrwt>
<totfact> 0.11536649E+02</totfact>
</mgrwt>
</event>
<event>
 4    1  0.6912310E-008  0.5174078E+03  0.7818608E-02  0.1009333E+00
         -2   -1    0    0    0  501 -0.00000000000E+00  0.00000000000E+00  0.32979771618E+03  0.32979771619E+03  0.25500000000E-02 0.  1.
          2   -1    0    0  501    0  0.00000000000E+00 -0.00000000000E+00 -0.93550032479E+03  0.93550032480E+03  0.25500000000E-02 0. -1.
    8880022    1    1    2    0    0  0.10701787719E+03 -0.48256223223E+03 -0.53295701228E+03  0.74280142970E+03  0.15294330000E+03 0.  0.
    8880022    1    1    2    0    0 -0.10701787719E+03  0.48256223223E+03 -0.72745596340E+02  0.52249661129E+03  0.15294330000E+03 0. -1.
<mgrwt>
<rscale>  0 0.51740776E+03</rscale>
<asrwt>0</asrwt>
<pdfrwt beam="1">  1        2 0.14392313E+00 0.51740776E+03</pdfrwt>
<pdfrwt beam="2">  1       -2 0.50738111E-01 0.51740776E+03</pdfrwt>
<totfact> 0.10528941E+02</totfact>
</mgrwt>
</event>
<event>
 4    1  0.6912310E-008  0.3182086E+03  0.7818608E-02  0.1076477E+00
         -2   -1    0    0    0  501 -0.00000000000E+00  0.00000000000E+00  0.18115222174E+03  0.18115222176E+03  0.25500000000E-02 0.  1.
          2   -1    0    0  501    0  0.00000000000E+00 -0.00000000000E+00 -0.13784367603E+04  0.13784367603E+04  0.25500000000E-02 0. -1.
    8880022    1    1    2    0    0  0.21951249592E+03  0.17227690899E+03  0.26079409982E+01  0.31821930112E+03  0.15294330000E+03 0.  1.
    8880022    1    1    2    0    0 -0.21951249592E+03 -0.17227690899E+03 -0.11998924795E+04  0.12413696809E+04  0.15294330000E+03 0.  0.
<mgrwt>
<rscale>  0 0.31820861E+03</rscale>
<asrwt>0</asrwt>
<pdfrwt beam="1">  1        2 0.21206719E+00 0.31820861E+03</pdfrwt>
<pdfrwt beam="2">  1       -2 0.27869573E-01 0.31820861E+03</pdfrwt>
<totfact> 0.18593062E+02</totfact>
</mgrwt>
</event>
<event>
 4    1  0.6912310E-008  0.1067015E+04  0.7818608E-02  0.9237951E-01
          2   -1    0    0  501    0  0.00000000000E+00  0.00000000000E+00  0.16045452002E+04  0.16045452002E+04  0.25500000000E-02 0. -1.
         -2   -1    0    0    0  501 -0.00000000000E+00 -0.00000000000E+00 -0.13578884423E+04  0.13578884423E+04  0.25500000000E-02 0.  1.
    8880022    1    1    2    0    0  0.71339466284E+03 -0.77858705624E+03  0.11468194592E+04  0.15664342546E+04  0.15294330000E+03 0.  0.
    8880022    1    1    2    0    0 -0.71339466284E+03  0.77858705624E+03 -0.90016270124E+03  0.13959993878E+04  0.15294330000E+03 0.  1.
<mgrwt>
<rscale>  0 0.10670152E+04</rscale>
<asrwt>0</asrwt>
<pdfrwt beam="1">  1        2 0.24685311E+00 0.10670152E+04</pdfrwt>
<pdfrwt beam="2">  1       -2 0.20890592E+00 0.10670152E+04</pdfrwt>
<totfact> 0.12722256E+00</totfact>
</mgrwt>
</event>
<event>
 4    1  0.6912310E-008  0.4811189E+03  0.7818608E-02  0.1018828E+00
          2   -1    0    0  501    0  0.00000000000E+00  0.00000000000E+00  0.31905584540E+03  0.31905584541E+03  0.25500000000E-02 0. -1.
         -2   -1    0    0    0  501 -0.00000000000E+00 -0.00000000000E+00 -0.77193551524E+03  0.77193551525E+03  0.25500000000E-02 0.  1.
    8880022    1    1    2    0    0  0.13838083655E+03  0.43466598257E+03 -0.36022868994E+03  0.60103255686E+03  0.15294330000E+03 0.  1.
    8880022    1    1    2    0    0 -0.13838083655E+03 -0.43466598257E+03 -0.92650979901E+02  0.48995880380E+03  0.15294330000E+03 0.  1.
<mgrwt>
<rscale>  0 0.48111893E+03</rscale>
<asrwt>0</asrwt>
<pdfrwt beam="1">  1        2 0.49085515E-01 0.48111893E+03</pdfrwt>
<pdfrwt beam="2">  1       -2 0.11875931E+00 0.48111893E+03</pdfrwt>
<totfact> 0.57490316E+01</totfact>
</mgrwt>
</event>
<event>
 4    1  0.6912310E-008  0.7181548E+03  0.7818608E-02  0.9686679E-01
          2   -1    0    0  501    0  0.00000000000E+00  0.00000000000E+00  0.80474085376E+03  0.80474085376E+03  0.25500000000E-02 0. -1.
         -2   -1    0    0    0  501 -0.00000000000E+00 -0.00000000000E+00 -0.92490444052E+03  0.92490444052E+03  0.25500000000E-02 0.  1.
    8880022    1    1    2    0    0  0.11870637856E+03  0.69156592188E+03 -0.53932141094E+03  0.89811684425E+03  0.15294330000E+03 0.  1.
    8880022    1    1    2    0    0 -0.11870637856E+03 -0.69156592188E+03  0.41915782418E+03  0.83152845003E+03  0.15294330000E+03 0.  0.
<mgrwt>
<rscale>  0 0.71815478E+03</rscale>
<asrwt>0</asrwt>
<pdfrwt beam="1">  1        2 0.12380629E+00 0.71815478E+03</pdfrwt>
<pdfrwt beam="2">  1       -2 0.14229299E+00 0.71815478E+03</pdfrwt>
<totfact> 0.11992711E+01</totfact>
</mgrwt>
</event>
<event>
 4    1  0.6912310E-008  0.1281107E+04  0.7818608E-02  0.9044683E-01
          2   -1    0    0  501    0  0.00000000000E+00  0.00000000000E+00  0.28149866378E+04  0.28149866378E+04  0.25500000000E-02 0. -1.
         -2   -1    0    0    0  501 -0.00000000000E+00 -0.00000000000E+00 -0.83418354861E+03  0.83418354862E+03  0.25500000000E-02 0.  1.
    8880022    1    1    2    0    0  0.12178212641E+04 -0.36708849494E+03  0.19915514372E+04  0.23680184489E+04  0.15294330000E+03 0.  0.
    8880022    1    1    2    0    0 -0.12178212641E+04  0.36708849494E+03 -0.10748347971E+02  0.12811517375E+04  0.15294330000E+03 0.  0.
<mgrwt>
<rscale>  0 0.12811066E+04</rscale>
<asrwt>0</asrwt>
<pdfrwt beam="1">  1        2 0.43307487E+00 0.12811066E+04</pdfrwt>
<pdfrwt beam="2">  1       -2 0.12833593E+00 0.12811066E+04</pdfrwt>
<totfact> 0.98941858E-01</totfact>
</mgrwt>
</event>
<event>
 4    1  0.6912310E-008  0.2028058E+03  0.7818608E-02  0.1147393E+00
         -2   -1    0    0    0  501 -0.00000000000E+00  0.00000000000E+00  0.44975494332E+02  0.44975494404E+02  0.25500000000E-02 0.  1.
          2   -1    0    0  501    0  0.00000000000E+00 -0.00000000000E+00 -0.27445788417E+04  0.27445788417E+04  0.25500000000E-02 0. -1.
    8880022    1    1    2    0    0 -0.11410257967E+03 -0.68696005501E+02 -0.21085969166E+03  0.29256110890E+03  0.15294330000E+03 0.  0.
    8880022    1    1    2    0    0  0.11410257967E+03  0.68696005501E+02 -0.24887436557E+04  0.24969932272E+04  0.15294330000E+03 0. -1.
<mgrwt>
<rscale>  0 0.20280580E+03</rscale>
<asrwt>0</asrwt>
<pdfrwt beam="1">  1        2 0.42224277E+00 0.20280580E+03</pdfrwt>
<pdfrwt beam="2">  1       -2 0.69193090E-02 0.20280580E+03</pdfrwt>
<totfact> 0.35498770E+02</totfact>
</mgrwt>
</event>
<event>
 4    1  0.8797872E-008  0.5315444E+03  0.7818608E-02  0.1005858E+00
          2   -1    0    0  501    0  0.00000000000E+00  0.00000000000E+00  0.12843689732E+04  0.12843689732E+04  0.25500000000E-02 0. -1.
         -2   -1    0    0    0  501 -0.00000000000E+00 -0.00000000000E+00 -0.20087551390E+04  0.20087551390E+04  0.25500000000E-02 0.  1.
    8880022    1    1    2    0    0  0.29425069257E+03 -0.41540863959E+03  0.11915961308E+04  0.13047761493E+04  0.15294330000E+03 0. -1.
    8880022    1    1    2    0    0 -0.29425069257E+03  0.41540863959E+03 -0.19159822966E+04  0.19883479629E+04  0.15294330000E+03 0.  0.
<mgrwt>
<rscale>  0 0.53154441E+03</rscale>
<asrwt>0</asrwt>
<pdfrwt beam="1">  1        2 0.19759523E+00 0.53154441E+03</pdfrwt>
<pdfrwt beam="2">  1       -2 0.30903925E+00 0.53154441E+03</pdfrwt>
<totfact> 0.52626090E-01</totfact>
</mgrwt>
</event>
<event>
 4    1  0.6912310E-008  0.2552893E+03  0.7818608E-02  0.1110007E+00
         -2   -1    0    0    0  501 -0.00000000000E+00  0.00000000000E+00  0.77113076659E+03  0.77113076659E+03  0.25500000000E-02 0.  1.
          2   -1    0    0  501    0  0.00000000000E+00 -0.00000000000E+00 -0.24457876569E+03  0.24457876571E+03  0.25500000000E-02 0. -1.
    8880022    1    1    2    0    0 -0.18589613556E+03 -0.84991642028E+02 -0.14756692535E+03  0.29487048496E+03  0.15294330000E+03 0. -1.
    8880022    1    1    2    0    0  0.18589613556E+03  0.84991642028E+02  0.67411892624E+03  0.72083904734E+03  0.15294330000E+03 0.  0.
<mgrwt>
<rscale>  0 0.25528926E+03</rscale>
<asrwt>0</asrwt>
<pdfrwt beam="1">  1        2 0.37627503E-01 0.25528926E+03</pdfrwt>
<pdfrwt beam="2">  1       -2 0.11863550E+00 0.25528926E+03</pdfrwt>
<totfact> 0.78787619E+01</totfact>
</mgrwt>
</event>
<event>
 4    1  0.6912310E-008  0.6620534E+03  0.7818608E-02  0.9784421E-01
         -2   -1    0    0    0  501 -0.00000000000E+00  0.00000000000E+00  0.69786444391E+03  0.69786444392E+03  0.25500000000E-02 0.  1.
          2   -1    0    0  501    0  0.00000000000E+00 -0.00000000000E+00 -0.26415332301E+04  0.26415332301E+04  0.25500000000E-02 0. -1.
    8880022    1    1    2    0    0  0.36231050723E+03  0.53259193788E+03 -0.24295770887E+04  0.25181659117E+04  0.15294330000E+03 0.  0.
    8880022    1    1    2    0    0 -0.36231050723E+03 -0.53259193788E+03  0.48590830252E+03  0.82123176230E+03  0.15294330000E+03 0.  0.
<mgrwt>
<rscale>  0 0.66205342E+03</rscale>
<asrwt>0</asrwt>
<pdfrwt beam="1">  1        2 0.40638972E+00 0.66205342E+03</pdfrwt>
<pdfrwt beam="2">  1       -2 0.10736376E+00 0.66205342E+03</pdfrwt>
<totfact> 0.21548837E+00</totfact>
</mgrwt>
</event>
<event>
 4    1  0.6912310E-008  0.1690255E+03  0.7818608E-02  0.1178868E+00
         -2   -1    0    0    0  501 -0.00000000000E+00  0.00000000000E+00  0.25370910234E+03  0.25370910235E+03  0.25500000000E-02 0.  1.
          2   -1    0    0  501    0  0.00000000000E+00 -0.00000000000E+00 -0.51566038585E+03  0.51566038585E+03  0.25500000000E-02 0. -1.
    8880022    1    1    2    0    0  0.36169932149E+02 -0.62207065329E+02 -0.47107350928E+03  0.50047965706E+03  0.15294330000E+03 0. -1.
    8880022    1    1    2    0    0 -0.36169932149E+02  0.62207065329E+02  0.20912222577E+03  0.26888983115E+03  0.15294330000E+03 0.  0.
<mgrwt>
<rscale>  0 0.16902555E+03</rscale>
<asrwt>0</asrwt>
<pdfrwt beam="1">  1        2 0.79332367E-01 0.16902555E+03</pdfrwt>
<pdfrwt beam="2">  1       -2 0.39032170E-01 0.16902555E+03</pdfrwt>
<totfact> 0.38008468E+02</totfact>
</mgrwt>
</event>
<event>
 4    1  0.6912310E-008  0.7479124E+03  0.7818608E-02  0.9638631E-01
         -2   -1    0    0    0  501 -0.00000000000E+00  0.00000000000E+00  0.63878117944E+03  0.63878117945E+03  0.25500000000E-02 0.  1.
          2   -1    0    0  501    0  0.00000000000E+00 -0.00000000000E+00 -0.19801114129E+04  0.19801114129E+04  0.25500000000E-02 0. -1.
    8880022    1    1    2    0    0 -0.71555201662E+03  0.15481178079E+03  0.30727142806E+03  0.80857204965E+03  0.15294330000E+03 0.  0.
    8880022    1    1    2    0    0  0.71555201662E+03 -0.15481178079E+03 -0.16486016615E+04  0.18103205427E+04  0.15294330000E+03 0.  0.
<mgrwt>
<rscale>  0 0.74791245E+03</rscale>
<asrwt>0</asrwt>
<pdfrwt beam="1">  1        2 0.30463252E+00 0.74791245E+03</pdfrwt>
<pdfrwt beam="2">  1       -2 0.98274028E-01 0.74791245E+03</pdfrwt>
<totfact> 0.61099533E+00</totfact>
</mgrwt>
</event>
<event>
 4    1  0.6912310E-008  0.8524499E+03  0.7818608E-02  0.9487055E-01
          2   -1    0    0  501    0  0.00000000000E+00  0.00000000000E+00  0.30345788065E+04  0.30345788065E+04  0.25500000000E-02 0. -1.
         -2   -1    0    0    0  501 -0.00000000000E+00 -0.00000000000E+00 -0.33503681772E+03  0.33503681773E+03  0.25500000000E-02 0.  1.
    8880022    1    1    2    0    0  0.35905882916E+03  0.75786274898E+03  0.44991617661E+03  0.96389595293E+03  0.15294330000E+03 0.  0.
    8880022    1    1    2    0    0 -0.35905882916E+03 -0.75786274898E+03  0.22496258122E+04  0.24057196713E+04  0.15294330000E+03 0.  0.
<mgrwt>
<rscale>  0 0.85244991E+03</rscale>
<asrwt>0</asrwt>
<pdfrwt beam="1">  1        2 0.46685828E+00 0.85244991E+03</pdfrwt>
<pdfrwt beam="2">  1       -2 0.51544126E-01 0.85244991E+03</pdfrwt>
<totfact> 0.61660510E+00</totfact>
</mgrwt>
</event>
<event>
 4    1  0.6912310E-008  0.3612837E+03  0.7818608E-02  0.1058077E+00
          2   -1    0    0  501    0  0.00000000000E+00  0.00000000000E+00  0.85305565648E+03  0.85305565649E+03  0.25500000000E-02 0. -1.
         -2   -1    0    0    0  501 -0.00000000000E+00 -0.00000000000E+00 -0.38448960770E+03  0.38448960770E+03  0.25500000000E-02 0.  1.
    8880022    1    1    2    0    0 -0.20207688831E+03  0.25748626046E+03 -0.24583203419E+03  0.43698888448E+03  0.15294330000E+03 0.  1.
    8880022    1    1    2    0    0  0.20207688831E+03 -0.25748626046E+03  0.71439808298E+03  0.80055637971E+03  0.15294330000E+03 0.  0.
<mgrwt>
<rscale>  0 0.36128368E+03</rscale>
<asrwt>0</asrwt>
<pdfrwt beam="1">  1        2 0.13123933E+00 0.36128368E+03</pdfrwt>
<pdfrwt beam="2">  1       -2 0.59152248E-01 0.36128368E+03</pdfrwt>
<totfact> 0.88739400E+01</totfact>
</mgrwt>
</event>
<event>
 4    1  0.6912310E-008  0.2404159E+03  0.7818608E-02  0.1119516E+00
         -2   -1    0    0    0  501 -0.00000000000E+00  0.00000000000E+00  0.28657700615E+03  0.28657700616E+03  0.25500000000E-02 0.  1.
          2   -1    0    0  501    0  0.00000000000E+00 -0.00000000000E+00 -0.30924746782E+03  0.30924746783E+03  0.25500000000E-02 0. -1.
    8880022    1    1    2    0    0 -0.26696717892E+02  0.18356316622E+03  0.16435796212E+03  0.29122730549E+03  0.15294330000E+03 0.  0.
    8880022    1    1    2    0    0  0.26696717892E+02 -0.18356316622E+03 -0.18702842379E+03  0.30459716850E+03  0.15294330000E+03 0. -1.
<mgrwt>
<rscale>  0 0.24041590E+03</rscale>
<asrwt>0</asrwt>
<pdfrwt beam="1">  1        2 0.47576534E-01 0.24041590E+03</pdfrwt>
<pdfrwt beam="2">  1       -2 0.44088770E-01 0.24041590E+03</pdfrwt>
<totfact> 0.52383026E+02</totfact>
</mgrwt>
</event>
<event>
 4    1  0.6912310E-008  0.2032123E+03  0.7818608E-02  0.1147057E+00
         -2   -1    0    0    0  501 -0.00000000000E+00  0.00000000000E+00  0.27637353384E+03  0.27637353385E+03  0.25500000000E-02 0.  1.
          2   -1    0    0  501    0  0.00000000000E+00 -0.00000000000E+00 -0.44962627742E+03  0.44962627743E+03  0.25500000000E-02 0. -1.
    8880022    1    1    2    0    0  0.11033283820E+02 -0.13334860619E+03  0.20998777006E+03  0.29221584611E+03  0.15294330000E+03 0.  1.
    8880022    1    1    2    0    0 -0.11033283820E+02  0.13334860619E+03 -0.38324051365E+03  0.43378396517E+03  0.15294330000E+03 0.  0.
<mgrwt>
<rscale>  0 0.20321230E+03</rscale>
<asrwt>0</asrwt>
<pdfrwt beam="1">  1        2 0.69173274E-01 0.20321230E+03</pdfrwt>
<pdfrwt beam="2">  1       -2 0.42519005E-01 0.20321230E+03</pdfrwt>
<totfact> 0.37482330E+02</totfact>
</mgrwt>
</event>
<event>
 4    1  0.6912310E-008  0.6610319E+03  0.7818608E-02  0.9786296E-01
         -2   -1    0    0    0  501 -0.00000000000E+00  0.00000000000E+00  0.40082352869E+03  0.40082352870E+03  0.25500000000E-02 0.  1.
          2   -1    0    0  501    0  0.00000000000E+00 -0.00000000000E+00 -0.12814592540E+04  0.12814592540E+04  0.25500000000E-02 0. -1.
    8880022    1    1    2    0    0  0.60430293159E+03  0.21997605821E+03 -0.76530737785E+03  0.10112658082E+04  0.15294330000E+03 0.  0.
    8880022    1    1    2    0    0 -0.60430293159E+03 -0.21997605821E+03 -0.11532834750E+03  0.67101697450E+03  0.15294330000E+03 0.  0.
<mgrwt>
<rscale>  0 0.66103188E+03</rscale>
<asrwt>0</asrwt>
<pdfrwt beam="1">  1        2 0.19714758E+00 0.66103188E+03</pdfrwt>
<pdfrwt beam="2">  1       -2 0.61665159E-01 0.66103188E+03</pdfrwt>
<totfact> 0.42617877E+01</totfact>
</mgrwt>
</event>
<event>
 4    1  0.6912310E-008  0.5569140E+03  0.7818608E-02  0.9999062E-01
         -2   -1    0    0    0  501 -0.00000000000E+00  0.00000000000E+00  0.42630736214E+03  0.42630736214E+03  0.25500000000E-02 0.  1.
          2   -1    0    0  501    0  0.00000000000E+00 -0.00000000000E+00 -0.13276909020E+04  0.13276909020E+04  0.25500000000E-02 0. -1.
    8880022    1    1    2    0    0  0.76655135857E+02  0.52998640008E+03  0.13894281882E+03  0.57398462875E+03  0.15294330000E+03 0.  0.
    8880022    1    1    2    0    0 -0.76655135857E+02 -0.52998640008E+03 -0.10403263587E+04  0.11800136354E+04  0.15294330000E+03 0.  0.
<mgrwt>
<rscale>  0 0.55691404E+03</rscale>
<asrwt>0</asrwt>
<pdfrwt beam="1">  1        2 0.20426014E+00 0.55691404E+03</pdfrwt>
<pdfrwt beam="2">  1       -2 0.65585749E-01 0.55691404E+03</pdfrwt>
<totfact> 0.35634206E+01</totfact>
</mgrwt>
</event>
<event>
 4    1  0.6912310E-008  0.6269916E+03  0.7818608E-02  0.9850937E-01
         -2   -1    0    0    0  501 -0.00000000000E+00  0.00000000000E+00  0.12848288037E+04  0.12848288037E+04  0.25500000000E-02 0.  1.
          2   -1    0    0  501    0  0.00000000000E+00 -0.00000000000E+00 -0.12872793377E+04  0.12872793378E+04  0.25500000000E-02 0. -1.
    8880022    1    1    2    0    0  0.60170577237E+03 -0.87618716818E+02  0.11216354488E+04  0.12849842836E+04  0.15294330000E+03 0.  0.
    8880022    1    1    2    0    0 -0.60170577237E+03  0.87618716818E+02 -0.11240859828E+04  0.12871238579E+04  0.15294330000E+03 0.  0.
<mgrwt>
<rscale>  0 0.62699165E+03</rscale>
<asrwt>0</asrwt>
<pdfrwt beam="1">  1        2 0.19804297E+00 0.62699165E+03</pdfrwt>
<pdfrwt beam="2">  1       -2 0.19766597E+00 0.62699165E+03</pdfrwt>
<totfact> 0.24361374E+00</totfact>
</mgrwt>
</event>
<event>
 4    1  0.6912310E-008  0.7276269E+03  0.7818608E-02  0.9671119E-01
          2   -1    0    0  501    0  0.00000000000E+00  0.00000000000E+00  0.11236321178E+04  0.11236321178E+04  0.25500000000E-02 0. -1.
         -2   -1    0    0    0  501 -0.00000000000E+00 -0.00000000000E+00 -0.64982923601E+03  0.64982923601E+03  0.25500000000E-02 0.  1.
    8880022    1    1    2    0    0  0.48575578599E+03  0.51970239532E+03  0.70182773415E+03  0.10109416822E+04  0.15294330000E+03 0.  0.
    8880022    1    1    2    0    0 -0.48575578599E+03 -0.51970239532E+03 -0.22802485236E+03  0.76251967164E+03  0.15294330000E+03 0.  0.
<mgrwt>
<rscale>  0 0.72762691E+03</rscale>
<asrwt>0</asrwt>
<pdfrwt beam="1">  1        2 0.17286648E+00 0.72762691E+03</pdfrwt>
<pdfrwt beam="2">  1       -2 0.99973729E-01 0.72762691E+03</pdfrwt>
<totfact> 0.17774896E+01</totfact>
</mgrwt>
</event>
<event>
 4    1  0.6912310E-008  0.4249061E+03  0.7818608E-02  0.1035481E+00
          2   -1    0    0  501    0  0.00000000000E+00  0.00000000000E+00  0.24527109546E+04  0.24527109546E+04  0.25500000000E-02 0. -1.
         -2   -1    0    0    0  501 -0.00000000000E+00 -0.00000000000E+00 -0.13210689932E+03  0.13210689935E+03  0.25500000000E-02 0.  1.
    8880022    1    1    2    0    0 -0.20203885702E+03 -0.34107745456E+03  0.20203088835E+04  0.20645079723E+04  0.15294330000E+03 0.  0.
    8880022    1    1    2    0    0  0.20203885702E+03  0.34107745456E+03  0.30029517172E+03  0.52030988164E+03  0.15294330000E+03 0.  0.
<mgrwt>
<rscale>  0 0.42490609E+03</rscale>
<asrwt>0</asrwt>
<pdfrwt beam="1">  1        2 0.37734012E+00 0.42490609E+03</pdfrwt>
<pdfrwt beam="2">  1       -2 0.20324140E-01 0.42490609E+03</pdfrwt>
<totfact> 0.84076346E+01</totfact>
</mgrwt>
</event>
<event>
 4    1  0.6912310E-008  0.1932501E+03  0.7818608E-02  0.1155562E+00
         -2   -1    0    0    0  501 -0.00000000000E+00  0.00000000000E+00  0.32284657179E+03  0.32284657180E+03  0.25500000000E-02 0.  1.
          2   -1    0    0  501    0  0.00000000000E+00 -0.00000000000E+00 -0.10284491927E+04  0.10284491927E+04  0.25500000000E-02 0. -1.
    8880022    1    1    2    0    0  0.80831849616E+02 -0.86140449219E+02  0.28371630078E+03  0.34327912439E+03  0.15294330000E+03 0.  0.
    8880022    1    1    2    0    0 -0.80831849616E+02  0.86140449219E+02 -0.98931892170E+03  0.10080166401E+04  0.15294330000E+03 0. -1.
<mgrwt>
<rscale>  0 0.19325014E+03</rscale>
<asrwt>0</asrwt>
<pdfrwt beam="1">  1        2 0.15822295E+00 0.19325014E+03</pdfrwt>
<pdfrwt beam="2">  1       -2 0.49668704E-01 0.19325014E+03</pdfrwt>
<totfact> 0.10130040E+02</totfact>
</mgrwt>
</event>
<event>
 4    1  0.6912310E-008  0.2305873E+03  0.7818608E-02  0.1126227E+00
         -2   -1    0    0    0  501 -0.00000000000E+00  0.00000000000E+00  0.71228474524E+03  0.71228474525E+03  0.25500000000E-02 0.  1.
          2   -1    0    0  501    0  0.00000000000E+00 -0.00000000000E+00 -0.37749378287E+04  0.37749378287E+04  0.25500000000E-02 0. -1.
    8880022    1    1    2    0    0 -0.13124319562E+03 -0.11204502406E+03  0.68999073726E+03  0.72750102016E+03  0.15294330000E+03 0.  0.
    8880022    1    1    2    0    0  0.13124319562E+03  0.11204502406E+03 -0.37526438207E+04  0.37597215538E+04  0.15294330000E+03 0.  0.
<mgrwt>
<rscale>  0 0.23058733E+03</rscale>
<asrwt>0</asrwt>
<pdfrwt beam="1">  1        2 0.58075965E+00 0.23058733E+03</pdfrwt>
<pdfrwt beam="2">  1       -2 0.10958227E+00 0.23058733E+03</pdfrwt>
<totfact> 0.47898209E-01</totfact>
</mgrwt>
</event>
<event>
 4    1  0.6912310E-008  0.2938348E+03  0.7818608E-02  0.1088364E+00
          2   -1    0    0  501    0  0.00000000000E+00  0.00000000000E+00  0.21528901353E+04  0.21528901353E+04  0.25500000000E-02 0. -1.
         -2   -1    0    0    0  501 -0.00000000000E+00 -0.00000000000E+00 -0.19698850788E+03  0.19698850789E+03  0.25500000000E-02 0.  1.
    8880022    1    1    2    0    0  0.15735627007E+03 -0.19541302046E+03 -0.70590180393E+02  0.30219508745E+03  0.15294330000E+03 0.  0.
    8880022    1    1    2    0    0 -0.15735627007E+03  0.19541302046E+03  0.20264918078E+04  0.20476835557E+04  0.15294330000E+03 0.  0.
<mgrwt>
<rscale>  0 0.29383481E+03</rscale>
<asrwt>0</asrwt>
<pdfrwt beam="1">  1        2 0.33121386E+00 0.29383481E+03</pdfrwt>
<pdfrwt beam="2">  1       -2 0.30305925E-01 0.29383481E+03</pdfrwt>
<totfact> 0.62119274E+01</totfact>
</mgrwt>
</event>
<event>
 4    1  0.6912310E-008  0.1836613E+03  0.7818608E-02  0.1164306E+00
          2   -1    0    0  501    0  0.00000000000E+00  0.00000000000E+00  0.13840303643E+04  0.13840303643E+04  0.25500000000E-02 0. -1.
         -2   -1    0    0    0  501 -0.00000000000E+00 -0.00000000000E+00 -0.30535400702E+02  0.30535400808E+02  0.25500000000E-02 0.  1.
    8880022    1    1    2    0    0 -0.99011966365E+02  0.23161028011E+02  0.99451163819E+03  0.10113282623E+04  0.15294330000E+03 0. -1.
    8880022    1    1    2    0    0  0.99011966365E+02 -0.23161028011E+02  0.35898332540E+03  0.40323750276E+03  0.15294330000E+03 0.  0.
<mgrwt>
<rscale>  0 0.18366125E+03</rscale>
<asrwt>0</asrwt>
<pdfrwt beam="1">  1        2 0.21292779E+00 0.18366125E+03</pdfrwt>
<pdfrwt beam="2">  1       -2 0.46977531E-02 0.18366125E+03</pdfrwt>
<totfact> 0.33805561E+03</totfact>
</mgrwt>
</event>
<event>
 4    1  0.6912310E-008  0.4097624E+03  0.7818608E-02  0.1040451E+00
         -2   -1    0    0    0  501 -0.00000000000E+00  0.00000000000E+00  0.77457104675E+03  0.77457104675E+03  0.25500000000E-02 0.  1.
          2   -1    0    0  501    0  0.00000000000E+00 -0.00000000000E+00 -0.35188704995E+03  0.35188704996E+03  0.25500000000E-02 0. -1.
    8880022    1    1    2    0    0  0.34700846030E+03  0.15523764199E+03 -0.13766601678E+03  0.43226980256E+03  0.15294330000E+03 0.  0.
    8880022    1    1    2    0    0 -0.34700846030E+03 -0.15523764199E+03  0.56035001357E+03  0.69418829415E+03  0.15294330000E+03 0.  0.
<mgrwt>
<rscale>  0 0.40976243E+03</rscale>
<asrwt>0</asrwt>
<pdfrwt beam="1">  1        2 0.54136470E-01 0.40976243E+03</pdfrwt>
<pdfrwt beam="2">  1       -2 0.11916478E+00 0.40976243E+03</pdfrwt>
<totfact> 0.51535161E+01</totfact>
</mgrwt>
</event>
<event>
 4    1  0.6912310E-008  0.1112819E+04  0.7818608E-02  0.9192787E-01
         -2   -1    0    0    0  501 -0.00000000000E+00  0.00000000000E+00  0.69811531277E+03  0.69811531277E+03  0.25500000000E-02 0.  1.
          2   -1    0    0  501    0  0.00000000000E+00 -0.00000000000E+00 -0.26715868043E+04  0.26715868043E+04  0.25500000000E-02 0. -1.
    8880022    1    1    2    0    0  0.78182724440E+03  0.77699453586E+03 -0.19634026722E+04  0.22568376226E+04  0.15294330000E+03 0.  0.
    8880022    1    1    2    0    0 -0.78182724440E+03 -0.77699453586E+03 -0.10068819364E+02  0.11128644944E+04  0.15294330000E+03 0.  0.
<mgrwt>
<rscale>  0 0.11128189E+04</rscale>
<asrwt>0</asrwt>
<pdfrwt beam="1">  1        2 0.41101335E+00 0.11128189E+04</pdfrwt>
<pdfrwt beam="2">  1       -2 0.10740236E+00 0.11128189E+04</pdfrwt>
<totfact> 0.19133789E+00</totfact>
</mgrwt>
</event>
<event>
 4    1  0.6912310E-008  0.3591262E+03  0.7818608E-02  0.1058930E+00
          2   -1    0    0  501    0  0.00000000000E+00  0.00000000000E+00  0.33090868030E+03  0.33090868031E+03  0.25500000000E-02 0. -1.
         -2   -1    0    0    0  501 -0.00000000000E+00 -0.00000000000E+00 -0.46992071608E+03  0.46992071609E+03  0.25500000000E-02 0.  1.
    8880022    1    1    2    0    0  0.28520942713E+03 -0.15567776425E+03  0.95882659079E+02  0.37170569128E+03  0.15294330000E+03 0.  0.
    8880022    1    1    2    0    0 -0.28520942713E+03  0.15567776425E+03 -0.23489469485E+03  0.42912370512E+03  0.15294330000E+03 0.  0.
<mgrwt>
<rscale>  0 0.35912621E+03</rscale>
<asrwt>0</asrwt>
<pdfrwt beam="1">  1        2 0.50909028E-01 0.35912621E+03</pdfrwt>
<pdfrwt beam="2">  1       -2 0.72295495E-01 0.35912621E+03</pdfrwt>
<totfact> 0.17513936E+02</totfact>
</mgrwt>
</event>
<event>
 4    1  0.6912310E-008  0.6484751E+03  0.7818608E-02  0.9809645E-01
         -2   -1    0    0    0  501 -0.00000000000E+00  0.00000000000E+00  0.53213180860E+03  0.53213180861E+03  0.25500000000E-02 0.  1.
          2   -1    0    0  501    0  0.00000000000E+00 -0.00000000000E+00 -0.12679841015E+04  0.12679841015E+04  0.25500000000E-02 0. -1.
    8880022    1    1    2    0    0  0.55165690255E+03 -0.30463586873E+03 -0.92039050408E+03  0.11258946148E+04  0.15294330000E+03 0.  0.
    8880022    1    1    2    0    0 -0.55165690255E+03  0.30463586873E+03  0.18453821117E+03  0.67422129531E+03  0.15294330000E+03 0.  0.
<mgrwt>
<rscale>  0 0.64847514E+03</rscale>
<asrwt>0</asrwt>
<pdfrwt beam="1">  1        2 0.19507448E+00 0.64847514E+03</pdfrwt>
<pdfrwt beam="2">  1       -2 0.81866432E-01 0.64847514E+03</pdfrwt>
<totfact> 0.23385505E+01</totfact>
</mgrwt>
</event>
<event>
 4    1  0.6912310E-008  0.6450937E+03  0.7818608E-02  0.9816029E-01
          2   -1    0    0  501    0  0.00000000000E+00  0.00000000000E+00  0.68071059897E+03  0.68071059897E+03  0.25500000000E-02 0. -1.
         -2   -1    0    0    0  501 -0.00000000000E+00 -0.00000000000E+00 -0.83785821499E+03  0.83785821500E+03  0.25500000000E-02 0.  1.
    8880022    1    1    2    0    0 -0.62585796021E+03  0.32496953041E+02 -0.47336767264E+03  0.80013926590E+03  0.15294330000E+03 0.  0.
    8880022    1    1    2    0    0  0.62585796021E+03 -0.32496953041E+02  0.31622005662E+03  0.71842954807E+03  0.15294330000E+03 0.  0.
<mgrwt>
<rscale>  0 0.64509371E+03</rscale>
<asrwt>0</asrwt>
<pdfrwt beam="1">  1        2 0.10472471E+00 0.64509371E+03</pdfrwt>
<pdfrwt beam="2">  1       -2 0.12890126E+00 0.64509371E+03</pdfrwt>
<totfact> 0.19300586E+01</totfact>
</mgrwt>
</event>
<event>
 4    1  0.6912310E-008  0.5128468E+03  0.7818608E-02  0.1010479E+00
         -2   -1    0    0    0  501 -0.00000000000E+00  0.00000000000E+00  0.32521951222E+03  0.32521951223E+03  0.25500000000E-02 0.  1.
          2   -1    0    0  501    0  0.00000000000E+00 -0.00000000000E+00 -0.12772662441E+04  0.12772662441E+04  0.25500000000E-02 0. -1.
    8880022    1    1    2    0    0 -0.48262315259E+03 -0.81823493968E+02 -0.96131101517E+03  0.10895552820E+04  0.15294330000E+03 0. -1.
    8880022    1    1    2    0    0  0.48262315259E+03  0.81823493968E+02  0.92642832759E+01  0.51293047437E+03  0.15294330000E+03 0.  0.
<mgrwt>
<rscale>  0 0.51284680E+03</rscale>
<asrwt>0</asrwt>
<pdfrwt beam="1">  1        2 0.19650250E+00 0.51284680E+03</pdfrwt>
<pdfrwt beam="2">  1       -2 0.50033772E-01 0.51284680E+03</pdfrwt>
<totfact> 0.67296834E+01</totfact>
</mgrwt>
</event>
<event>
 4    1  0.6912310E-008  0.3964636E+03  0.7818608E-02  0.1045011E+00
          2   -1    0    0  501    0  0.00000000000E+00  0.00000000000E+00  0.31969208366E+03  0.31969208367E+03  0.25500000000E-02 0. -1.
         -2   -1    0    0    0  501 -0.00000000000E+00 -0.00000000000E+00 -0.10154185238E+04  0.10154185238E+04  0.25500000000E-02 0.  1.
    8880022    1    1    2    0    0 -0.23100539493E+03  0.28359876795E+03  0.13156721151E+03  0.41772399719E+03  0.15294330000E+03 0. -1.
    8880022    1    1    2    0    0  0.23100539493E+03 -0.28359876795E+03 -0.82729365162E+03  0.91738661027E+03  0.15294330000E+03 0.  0.
<mgrwt>
<rscale>  0 0.39646363E+03</rscale>
<asrwt>0</asrwt>
<pdfrwt beam="1">  1        2 0.49183398E-01 0.39646363E+03</pdfrwt>
<pdfrwt beam="2">  1       -2 0.15621823E+00 0.39646363E+03</pdfrwt>
<totfact> 0.28808864E+01</totfact>
</mgrwt>
</event>
<event>
 4    1  0.6912310E-008  0.4944066E+03  0.7818608E-02  0.1015249E+00
         -2   -1    0    0    0  501 -0.00000000000E+00  0.00000000000E+00  0.85998858515E+02  0.85998858552E+02  0.25500000000E-02 0.  1.
          2   -1    0    0  501    0  0.00000000000E+00 -0.00000000000E+00 -0.52878249963E+04  0.52878249963E+04  0.25500000000E-02 0. -1.
    8880022    1    1    2    0    0  0.19056721027E+03 -0.42980270483E+03 -0.44281611538E+04  0.44556760524E+04  0.15294330000E+03 0. -1.
    8880022    1    1    2    0    0 -0.19056721027E+03  0.42980270483E+03 -0.77366498393E+03  0.91814780242E+03  0.15294330000E+03 0.  0.
<mgrwt>
<rscale>  0 0.49440659E+03</rscale>
<asrwt>0</asrwt>
<pdfrwt beam="1">  1        2 0.81351128E+00 0.49440659E+03</pdfrwt>
<pdfrwt beam="2">  1       -2 0.13230598E-01 0.49440659E+03</pdfrwt>
<totfact> 0.77722680E-01</totfact>
</mgrwt>
</event>
<event>
 4    1  0.6912310E-008  0.2824574E+03  0.7818608E-02  0.1094354E+00
         -2   -1    0    0    0  501 -0.00000000000E+00  0.00000000000E+00  0.95743983924E+02  0.95743983958E+02  0.25500000000E-02 0.  1.
          2   -1    0    0  501    0  0.00000000000E+00 -0.00000000000E+00 -0.19337414187E+04  0.19337414187E+04  0.25500000000E-02 0. -1.
    8880022    1    1    2    0    0  0.71166335993E+02 -0.22655210600E+03 -0.16844946537E+04  0.17080118253E+04  0.15294330000E+03 0.  0.
    8880022    1    1    2    0    0 -0.71166335993E+02  0.22655210600E+03 -0.15350278108E+03  0.32147357734E+03  0.15294330000E+03 0.  0.
<mgrwt>
<rscale>  0 0.28245735E+03</rscale>
<asrwt>0</asrwt>
<pdfrwt beam="1">  1        2 0.29749865E+00 0.28245735E+03</pdfrwt>
<pdfrwt beam="2">  1       -2 0.14729845E-01 0.28245735E+03</pdfrwt>
<totfact> 0.28460896E+02</totfact>
</mgrwt>
</event>
<event>
 4    1  0.6912310E-008  0.3662089E+03  0.7818608E-02  0.1056152E+00
         -2   -1    0    0    0  501 -0.00000000000E+00  0.00000000000E+00  0.14218350954E+03  0.14218350956E+03  0.25500000000E-02 0.  1.
          2   -1    0    0  501    0  0.00000000000E+00 -0.00000000000E+00 -0.25428930307E+04  0.25428930307E+04  0.25500000000E-02 0. -1.
    8880022    1    1    2    0    0 -0.13901531487E+03 -0.30231111994E+03 -0.13552646674E+03  0.39048219833E+03  0.15294330000E+03 0.  0.
    8880022    1    1    2    0    0  0.13901531487E+03  0.30231111994E+03 -0.22651830544E+04  0.22945943420E+04  0.15294330000E+03 0. -1.
<mgrwt>
<rscale>  0 0.36620885E+03</rscale>
<asrwt>0</asrwt>
<pdfrwt beam="1">  1        2 0.39121428E+00 0.36620885E+03</pdfrwt>
<pdfrwt beam="2">  1       -2 0.21874388E-01 0.36620885E+03</pdfrwt>
<totfact> 0.66859861E+01</totfact>
</mgrwt>
</event>
<event>
 4    1  0.6912310E-008  0.7737650E+03  0.7818608E-02  0.9598787E-01
         -2   -1    0    0    0  501 -0.00000000000E+00  0.00000000000E+00  0.11838928837E+04  0.11838928837E+04  0.25500000000E-02 0.  1.
          2   -1    0    0  501    0  0.00000000000E+00 -0.00000000000E+00 -0.11110049965E+04  0.11110049965E+04  0.25500000000E-02 0. -1.
    8880022    1    1    2    0    0 -0.65931333730E+03 -0.37500212442E+03 -0.81050480664E+03  0.11205491353E+04  0.15294330000E+03 0.  0.
    8880022    1    1    2    0    0  0.65931333730E+03  0.37500212442E+03  0.88339269388E+03  0.11743487449E+04  0.15294330000E+03 0.  0.
<mgrwt>
<rscale>  0 0.77376503E+03</rscale>
<asrwt>0</asrwt>
<pdfrwt beam="1">  1        2 0.17092385E+00 0.77376503E+03</pdfrwt>
<pdfrwt beam="2">  1       -2 0.18213737E+00 0.77376503E+03</pdfrwt>
<totfact> 0.38333669E+00</totfact>
</mgrwt>
</event>
<event>
 4    1  0.6912310E-008  0.1965367E+03  0.7818608E-02  0.1152694E+00
         -2   -1    0    0    0  501 -0.00000000000E+00  0.00000000000E+00  0.12803398569E+04  0.12803398570E+04  0.25500000000E-02 0.  1.
          2   -1    0    0  501    0  0.00000000000E+00 -0.00000000000E+00 -0.68462673863E+02  0.68462673910E+02  0.25500000000E-02 0. -1.
    8880022    1    1    2    0    0  0.10065544463E+03  0.71438857981E+02  0.11103146730E+04  0.11275749886E+04  0.15294330000E+03 0.  0.
    8880022    1    1    2    0    0 -0.10065544463E+03 -0.71438857981E+02  0.10156251011E+03  0.22122754222E+03  0.15294330000E+03 0. -1.
<mgrwt>
<rscale>  0 0.19653672E+03</rscale>
<asrwt>0</asrwt>
<pdfrwt beam="1">  1        2 0.10532719E-01 0.19653672E+03</pdfrwt>
<pdfrwt beam="2">  1       -2 0.19697535E+00 0.19653672E+03</pdfrwt>
<totfact> 0.91097335E+01</totfact>
</mgrwt>
</event>
<event>
 4    1  0.6912310E-008  0.4899941E+03  0.7818608E-02  0.1016424E+00
         -2   -1    0    0    0  501 -0.00000000000E+00  0.00000000000E+00  0.35057647305E+03  0.35057647306E+03  0.25500000000E-02 0.  1.
          2   -1    0    0  501    0  0.00000000000E+00 -0.00000000000E+00 -0.35416378375E+04  0.35416378375E+04  0.25500000000E-02 0. -1.
    8880022    1    1    2    0    0  0.38637904575E+03  0.25964167636E+03 -0.33433770336E+04  0.33790922167E+04  0.15294330000E+03 0.  0.
    8880022    1    1    2    0    0 -0.38637904575E+03 -0.25964167636E+03  0.15231566917E+03  0.51312209384E+03  0.15294330000E+03 0.  1.
<mgrwt>
<rscale>  0 0.48999410E+03</rscale>
<asrwt>0</asrwt>
<pdfrwt beam="1">  1        2 0.54486733E+00 0.48999410E+03</pdfrwt>
<pdfrwt beam="2">  1       -2 0.53934844E-01 0.48999410E+03</pdfrwt>
<totfact> 0.28751483E+00</totfact>
</mgrwt>
</event>
<event>
 4    1  0.6912310E-008  0.5664230E+03  0.7818608E-02  0.9977625E-01
         -2   -1    0    0    0  501 -0.00000000000E+00  0.00000000000E+00  0.27817822216E+03  0.27817822217E+03  0.25500000000E-02 0.  1.
          2   -1    0    0  501    0  0.00000000000E+00 -0.00000000000E+00 -0.25033144713E+04  0.25033144713E+04  0.25500000000E-02 0. -1.
    8880022    1    1    2    0    0 -0.50135362797E+03 -0.21468085647E+03 -0.91270144412E+02  0.57372922419E+03  0.15294330000E+03 0.  0.
    8880022    1    1    2    0    0  0.50135362797E+03  0.21468085647E+03 -0.21338661047E+04  0.22077634693E+04  0.15294330000E+03 0.  0.
<mgrwt>
<rscale>  0 0.56642297E+03</rscale>
<asrwt>0</asrwt>
<pdfrwt beam="1">  1        2 0.38512529E+00 0.56642297E+03</pdfrwt>
<pdfrwt beam="2">  1       -2 0.42796651E-01 0.56642297E+03</pdfrwt>
<totfact> 0.19390110E+01</totfact>
</mgrwt>
</event>
<event>
 4    1  0.6912310E-008  0.1158251E+04  0.7818608E-02  0.9150205E-01
         -2   -1    0    0    0  501 -0.00000000000E+00  0.00000000000E+00  0.11613637103E+04  0.11613637103E+04  0.25500000000E-02 0.  1.
          2   -1    0    0  501    0  0.00000000000E+00 -0.00000000000E+00 -0.14629581960E+04  0.14629581960E+04  0.25500000000E-02 0. -1.
    8880022    1    1    2    0    0  0.99480468607E+03  0.57316372499E+03  0.45108848709E+03  0.12429905451E+04  0.15294330000E+03 0.  0.
    8880022    1    1    2    0    0 -0.99480468607E+03 -0.57316372499E+03 -0.75268297280E+03  0.13813313613E+04  0.15294330000E+03 0.  0.
<mgrwt>
<rscale>  0 0.11582507E+04</rscale>
<asrwt>0</asrwt>
<pdfrwt beam="1">  1        2 0.22507049E+00 0.11582507E+04</pdfrwt>
<pdfrwt beam="2">  1       -2 0.17867134E+00 0.11582507E+04</pdfrwt>
<totfact> 0.24051000E+00</totfact>
</mgrwt>
</event>
<event>
 4    1  0.6912310E-008  0.7733732E+03  0.7818608E-02  0.9599379E-01
          2   -1    0    0  501    0  0.00000000000E+00  0.00000000000E+00  0.12248759599E+04  0.12248759599E+04  0.25500000000E-02 0. -1.
         -2   -1    0    0    0  501 -0.00000000000E+00 -0.00000000000E+00 -0.11845811273E+04  0.11845811273E+04  0.25500000000E-02 0.  1.
    8880022    1    1    2    0    0 -0.51012699841E+03  0.56078947489E+03  0.94378018770E+03  0.12201750224E+04  0.15294330000E+03 0.  0.
    8880022    1    1    2    0    0  0.51012699841E+03 -0.56078947489E+03 -0.90348535516E+03  0.11892820648E+04  0.15294330000E+03 0.  0.
<mgrwt>
<rscale>  0 0.77337316E+03</rscale>
<asrwt>0</asrwt>
<pdfrwt beam="1">  1        2 0.18844245E+00 0.77337316E+03</pdfrwt>
<pdfrwt beam="2">  1       -2 0.18224325E+00 0.77337316E+03</pdfrwt>
<totfact> 0.32712728E+00</totfact>
</mgrwt>
</event>
<event>
 4    1  0.6912310E-008  0.1219598E+04  0.7818608E-02  0.9095873E-01
          2   -1    0    0  501    0  0.00000000000E+00  0.00000000000E+00  0.13178462059E+04  0.13178462059E+04  0.25500000000E-02 0. -1.
         -2   -1    0    0    0  501 -0.00000000000E+00 -0.00000000000E+00 -0.12355748225E+04  0.12355748225E+04  0.25500000000E-02 0.  1.
    8880022    1    1    2    0    0 -0.42448330394E+03 -0.11330678562E+04  0.41666664630E+03  0.12888101448E+04  0.15294330000E+03 0.  0.
    8880022    1    1    2    0    0  0.42448330394E+03  0.11330678562E+04 -0.33439526295E+03  0.12646108836E+04  0.15294330000E+03 0. -1.
<mgrwt>
<rscale>  0 0.12195985E+04</rscale>
<asrwt>0</asrwt>
<pdfrwt beam="1">  1        2 0.20274557E+00 0.12195985E+04</pdfrwt>
<pdfrwt beam="2">  1       -2 0.19008844E+00 0.12195985E+04</pdfrwt>
<totfact> 0.24201328E+00</totfact>
</mgrwt>
</event>
<event>
 4    1  0.6912310E-008  0.4261238E+03  0.7818608E-02  0.1035091E+00
         -2   -1    0    0    0  501 -0.00000000000E+00  0.00000000000E+00  0.64745410898E+03  0.64745410899E+03  0.25500000000E-02 0.  1.
          2   -1    0    0  501    0  0.00000000000E+00 -0.00000000000E+00 -0.62637880747E+03  0.62637880748E+03  0.25500000000E-02 0. -1.
    8880022    1    1    2    0    0  0.75169932011E+02  0.39056284264E+03  0.48385715286E+03  0.64474743127E+03  0.15294330000E+03 0.  0.
    8880022    1    1    2    0    0 -0.75169932011E+02 -0.39056284264E+03 -0.46278185135E+03  0.62908548520E+03  0.15294330000E+03 0.  0.
<mgrwt>
<rscale>  0 0.42612382E+03</rscale>
<asrwt>0</asrwt>
<pdfrwt beam="1">  1        2 0.96365970E-01 0.42612382E+03</pdfrwt>
<pdfrwt beam="2">  1       -2 0.99608324E-01 0.42612382E+03</pdfrwt>
<totfact> 0.41035733E+01</totfact>
</mgrwt>
</event>
<event>
 4    1  0.6912310E-008  0.7962298E+03  0.7818608E-02  0.9565490E-01
         -2   -1    0    0    0  501 -0.00000000000E+00  0.00000000000E+00  0.14241897371E+04  0.14241897371E+04  0.25500000000E-02 0.  1.
          2   -1    0    0  501    0  0.00000000000E+00 -0.00000000000E+00 -0.59202897114E+03  0.59202897115E+03  0.25500000000E-02 0. -1.
    8880022    1    1    2    0    0 -0.68055277575E+03  0.38397671503E+03 -0.86044844480E+02  0.80086551089E+03  0.15294330000E+03 0.  0.
    8880022    1    1    2    0    0  0.68055277575E+03 -0.38397671503E+03  0.91820561044E+03  0.12153531974E+04  0.15294330000E+03 0.  0.
<mgrwt>
<rscale>  0 0.79622977E+03</rscale>
<asrwt>0</asrwt>
<pdfrwt beam="1">  1        2 0.91081381E-01 0.79622977E+03</pdfrwt>
<pdfrwt beam="2">  1       -2 0.21910611E+00 0.79622977E+03</pdfrwt>
<totfact> 0.51361238E+00</totfact>
</mgrwt>
</event>
<event>
 4    1  0.6912310E-008  0.5031596E+03  0.7818608E-02  0.1012957E+00
          2   -1    0    0  501    0  0.00000000000E+00  0.00000000000E+00  0.21033317748E+04  0.21033317748E+04  0.25500000000E-02 0. -1.
         -2   -1    0    0    0  501 -0.00000000000E+00 -0.00000000000E+00 -0.23641317488E+03  0.23641317489E+03  0.25500000000E-02 0.  1.
    8880022    1    1    2    0    0  0.19004490004E+03 -0.44006912695E+03  0.11382515655E+03  0.51587374406E+03  0.15294330000E+03 0.  0.
    8880022    1    1    2    0    0 -0.19004490004E+03  0.44006912695E+03  0.17530934433E+04  0.18238712056E+04  0.15294330000E+03 0.  0.
<mgrwt>
<rscale>  0 0.50315957E+03</rscale>
<asrwt>0</asrwt>
<pdfrwt beam="1">  1        2 0.32358950E+00 0.50315957E+03</pdfrwt>
<pdfrwt beam="2">  1       -2 0.36371258E-01 0.50315957E+03</pdfrwt>
<totfact> 0.44652756E+01</totfact>
</mgrwt>
</event>
<event>
 4    1  0.6912310E-008  0.3496190E+03  0.7818608E-02  0.1062772E+00
         -2   -1    0    0    0  501 -0.00000000000E+00  0.00000000000E+00  0.46120398873E+03  0.46120398873E+03  0.25500000000E-02 0.  1.
          2   -1    0    0  501    0  0.00000000000E+00 -0.00000000000E+00 -0.35348798329E+03  0.35348798330E+03  0.25500000000E-02 0. -1.
    8880022    1    1    2    0    0  0.28439645651E+03  0.13401660040E+03  0.25762867789E+03  0.43428790260E+03  0.15294330000E+03 0.  0.
    8880022    1    1    2    0    0 -0.28439645651E+03 -0.13401660040E+03 -0.14991267246E+03  0.38040406943E+03  0.15294330000E+03 0.  0.
<mgrwt>
<rscale>  0 0.34961900E+03</rscale>
<asrwt>0</asrwt>
<pdfrwt beam="1">  1        2 0.54382767E-01 0.34961900E+03</pdfrwt>
<pdfrwt beam="2">  1       -2 0.70954460E-01 0.34961900E+03</pdfrwt>
<totfact> 0.16979894E+02</totfact>
</mgrwt>
</event>
<event>
 4    1  0.6912310E-008  0.7007002E+03  0.7818608E-02  0.9716035E-01
         -2   -1    0    0    0  501 -0.00000000000E+00  0.00000000000E+00  0.10829580507E+04  0.10829580507E+04  0.25500000000E-02 0.  1.
          2   -1    0    0  501    0  0.00000000000E+00 -0.00000000000E+00 -0.67733172110E+03  0.67733172111E+03  0.25500000000E-02 0. -1.
    8880022    1    1    2    0    0 -0.66588682402E+03 -0.15551175240E+03 -0.30329138882E+03  0.76352242081E+03  0.15294330000E+03 0.  0.
    8880022    1    1    2    0    0  0.66588682402E+03  0.15551175240E+03  0.70891771844E+03  0.99676735102E+03  0.15294330000E+03 0.  0.
<mgrwt>
<rscale>  0 0.70070024E+03</rscale>
<asrwt>0</asrwt>
<pdfrwt beam="1">  1        2 0.10420488E+00 0.70070024E+03</pdfrwt>
<pdfrwt beam="2">  1       -2 0.16660893E+00 0.70070024E+03</pdfrwt>
<totfact> 0.98407908E+00</totfact>
</mgrwt>
</event>
<event>
 4    1  0.6912310E-008  0.3613032E+03  0.7818608E-02  0.1058069E+00
          2   -1    0    0  501    0  0.00000000000E+00  0.00000000000E+00  0.40520866056E+03  0.40520866056E+03  0.25500000000E-02 0. -1.
         -2   -1    0    0    0  501 -0.00000000000E+00 -0.00000000000E+00 -0.39518998689E+03  0.39518998690E+03  0.25500000000E-02 0.  1.
    8880022    1    1    2    0    0 -0.16878900907E+03  0.28046146444E+03  0.17705301483E+03  0.40235281246E+03  0.15294330000E+03 0.  0.
    8880022    1    1    2    0    0  0.16878900907E+03 -0.28046146444E+03 -0.16703434117E+03  0.39804583500E+03  0.15294330000E+03 0.  1.
<mgrwt>
<rscale>  0 0.36130322E+03</rscale>
<asrwt>0</asrwt>
<pdfrwt beam="1">  1        2 0.62339794E-01 0.36130322E+03</pdfrwt>
<pdfrwt beam="2">  1       -2 0.60798460E-01 0.36130322E+03</pdfrwt>
<totfact> 0.20288040E+02</totfact>
</mgrwt>
</event>
<event>
 4    1  0.6912310E-008  0.6834776E+03  0.7818608E-02  0.9745912E-01
          2   -1    0    0  501    0  0.00000000000E+00  0.00000000000E+00  0.22048142859E+04  0.22048142859E+04  0.25500000000E-02 0. -1.
         -2   -1    0    0    0  501 -0.00000000000E+00 -0.00000000000E+00 -0.30101000345E+03  0.30101000346E+03  0.25500000000E-02 0.  1.
    8880022    1    1    2    0    0 -0.50956723500E+03 -0.42905847711E+03  0.16337038531E+04  0.17709121595E+04  0.15294330000E+03 0.  0.
    8880022    1    1    2    0    0  0.50956723500E+03  0.42905847711E+03  0.27010042934E+03  0.73491212992E+03  0.15294330000E+03 0.  0.
<mgrwt>
<rscale>  0 0.68347758E+03</rscale>
<asrwt>0</asrwt>
<pdfrwt beam="1">  1        2 0.33920221E+00 0.68347758E+03</pdfrwt>
<pdfrwt beam="2">  1       -2 0.46309230E-01 0.68347758E+03</pdfrwt>
<totfact> 0.23782241E+01</totfact>
</mgrwt>
</event>
<event>
 4    1  0.6912310E-008  0.3892991E+03  0.7818608E-02  0.1047549E+00
         -2   -1    0    0    0  501 -0.00000000000E+00  0.00000000000E+00  0.67081641044E+03  0.67081641045E+03  0.25500000000E-02 0.  1.
          2   -1    0    0  501    0  0.00000000000E+00 -0.00000000000E+00 -0.10168339713E+04  0.10168339714E+04  0.25500000000E-02 0. -1.
    8880022    1    1    2    0    0 -0.19437811382E+02 -0.35746926517E+03  0.57119332429E+03  0.69124204934E+03  0.15294330000E+03 0.  0.
    8880022    1    1    2    0    0  0.19437811382E+02  0.35746926517E+03 -0.91721088520E+03  0.99640833246E+03  0.15294330000E+03 0.  0.
<mgrwt>
<rscale>  0 0.38929906E+03</rscale>
<asrwt>0</asrwt>
<pdfrwt beam="1">  1        2 0.15643600E+00 0.38929906E+03</pdfrwt>
<pdfrwt beam="2">  1       -2 0.10320252E+00 0.38929906E+03</pdfrwt>
<totfact> 0.20171484E+01</totfact>
</mgrwt>
</event>
<event>
 4    1  0.6912310E-008  0.2919570E+03  0.7818608E-02  0.1089332E+00
         -2   -1    0    0    0  501 -0.00000000000E+00  0.00000000000E+00  0.39963297172E+03  0.39963297173E+03  0.25500000000E-02 0.  1.
          2   -1    0    0  501    0  0.00000000000E+00 -0.00000000000E+00 -0.99129879997E+03  0.99129879997E+03  0.25500000000E-02 0. -1.
    8880022    1    1    2    0    0  0.21836154889E+03 -0.11901882175E+03  0.32028660862E+03  0.43338482973E+03  0.15294330000E+03 0.  1.
    8880022    1    1    2    0    0 -0.21836154889E+03  0.11901882175E+03 -0.91195243687E+03  0.95754694197E+03  0.15294330000E+03 0.  0.
<mgrwt>
<rscale>  0 0.29195702E+03</rscale>
<asrwt>0</asrwt>
<pdfrwt beam="1">  1        2 0.15250751E+00 0.29195702E+03</pdfrwt>
<pdfrwt beam="2">  1       -2 0.61481996E-01 0.29195702E+03</pdfrwt>
<totfact> 0.67455207E+01</totfact>
</mgrwt>
</event>
<event>
 4    1  0.6912310E-008  0.8326151E+03  0.7818608E-02  0.9513972E-01
         -2   -1    0    0    0  501 -0.00000000000E+00  0.00000000000E+00  0.52215813487E+03  0.52215813487E+03  0.25500000000E-02 0.  1.
          2   -1    0    0  501    0  0.00000000000E+00 -0.00000000000E+00 -0.22714194688E+04  0.22714194688E+04  0.25500000000E-02 0. -1.
    8880022    1    1    2    0    0 -0.46277719400E+03 -0.67505071217E+03  0.25722729639E+02  0.83301230911E+03  0.15294330000E+03 0.  0.
    8880022    1    1    2    0    0  0.46277719400E+03  0.67505071217E+03 -0.17749840635E+04  0.19605652945E+04  0.15294330000E+03 0.  0.
<mgrwt>
<rscale>  0 0.83261507E+03</rscale>
<asrwt>0</asrwt>
<pdfrwt beam="1">  1        2 0.34944914E+00 0.83261507E+03</pdfrwt>
<pdfrwt beam="2">  1       -2 0.80332022E-01 0.83261507E+03</pdfrwt>
<totfact> 0.66336683E+00</totfact>
</mgrwt>
</event>
<event>
 4    1  0.6912310E-008  0.4661817E+03  0.7818608E-02  0.1023003E+00
         -2   -1    0    0    0  501 -0.00000000000E+00  0.00000000000E+00  0.18905151722E+03  0.18905151723E+03  0.25500000000E-02 0.  1.
          2   -1    0    0  501    0  0.00000000000E+00 -0.00000000000E+00 -0.22058736251E+04  0.22058736251E+04  0.25500000000E-02 0. -1.
    8880022    1    1    2    0    0 -0.23640636060E+03 -0.37154506639E+03 -0.17976542932E+03  0.49964083729E+03  0.15294330000E+03 0.  1.
    8880022    1    1    2    0    0  0.23640636060E+03  0.37154506639E+03 -0.18370566785E+04  0.18952843050E+04  0.15294330000E+03 0.  0.
<mgrwt>
<rscale>  0 0.46618168E+03</rscale>
<asrwt>0</asrwt>
<pdfrwt beam="1">  1        2 0.33936516E+00 0.46618168E+03</pdfrwt>
<pdfrwt beam="2">  1       -2 0.29084850E-01 0.46618168E+03</pdfrwt>
<totfact> 0.60087034E+01</totfact>
</mgrwt>
</event>
<event>
 4    1  0.6912310E-008  0.4654717E+03  0.7818608E-02  0.1023206E+00
          2   -1    0    0  501    0  0.00000000000E+00  0.00000000000E+00  0.12502492719E+04  0.12502492719E+04  0.25500000000E-02 0. -1.
         -2   -1    0    0    0  501 -0.00000000000E+00 -0.00000000000E+00 -0.43711884499E+03  0.43711884500E+03  0.25500000000E-02 0.  1.
    8880022    1    1    2    0    0 -0.20795708865E+03 -0.38733201241E+03 -0.24887913181E+03  0.52783019412E+03  0.15294330000E+03 0.  0.
    8880022    1    1    2    0    0  0.20795708865E+03  0.38733201241E+03  0.10620095587E+04  0.11595379228E+04  0.15294330000E+03 0.  0.
<mgrwt>
<rscale>  0 0.46547169E+03</rscale>
<asrwt>0</asrwt>
<pdfrwt beam="1">  1        2 0.19234604E+00 0.46547169E+03</pdfrwt>
<pdfrwt beam="2">  1       -2 0.67249053E-01 0.46547169E+03</pdfrwt>
<totfact> 0.37914639E+01</totfact>
</mgrwt>
</event>
<event>
 4    1  0.6912310E-008  0.8518351E+03  0.7818608E-02  0.9487877E-01
          2   -1    0    0  501    0  0.00000000000E+00  0.00000000000E+00  0.25608226866E+04  0.25608226866E+04  0.25500000000E-02 0. -1.
         -2   -1    0    0    0  501 -0.00000000000E+00 -0.00000000000E+00 -0.58346793524E+03  0.58346793524E+03  0.25500000000E-02 0.  1.
    8880022    1    1    2    0    0  0.80768186122E+03  0.22334132966E+03  0.21162025313E+04  0.22812137438E+04  0.15294330000E+03 0. -1.
    8880022    1    1    2    0    0 -0.80768186122E+03 -0.22334132966E+03 -0.13884777989E+03  0.86307687807E+03  0.15294330000E+03 0.  0.
<mgrwt>
<rscale>  0 0.85183507E+03</rscale>
<asrwt>0</asrwt>
<pdfrwt beam="1">  1        2 0.39397272E+00 0.85183507E+03</pdfrwt>
<pdfrwt beam="2">  1       -2 0.89764298E-01 0.85183507E+03</pdfrwt>
<totfact> 0.35252889E+00</totfact>
</mgrwt>
</event>
<event>
 4    1  0.6912310E-008  0.5433392E+03  0.7818608E-02  0.1003047E+00
         -2   -1    0    0    0  501 -0.00000000000E+00  0.00000000000E+00  0.14485476475E+03  0.14485476477E+03  0.25500000000E-02 0.  1.
          2   -1    0    0  501    0  0.00000000000E+00 -0.00000000000E+00 -0.25929518274E+04  0.25929518274E+04  0.25500000000E-02 0. -1.
    8880022    1    1    2    0    0 -0.24842101262E+03 -0.45838070972E+03 -0.18573254909E+04  0.19351680823E+04  0.15294330000E+03 0.  0.
    8880022    1    1    2    0    0  0.24842101262E+03  0.45838070972E+03 -0.59077157176E+03  0.80263850990E+03  0.15294330000E+03 0.  0.
<mgrwt>
<rscale>  0 0.54333924E+03</rscale>
<asrwt>0</asrwt>
<pdfrwt beam="1">  1        2 0.39891563E+00 0.54333924E+03</pdfrwt>
<pdfrwt beam="2">  1       -2 0.22285350E-01 0.54333924E+03</pdfrwt>
<totfact> 0.58306023E+01</totfact>
</mgrwt>
</event>
<event>
 4    1  0.6912310E-008  0.3873826E+03  0.7818608E-02  0.1048238E+00
          2   -1    0    0  501    0  0.00000000000E+00  0.00000000000E+00  0.27725841840E+04  0.27725841840E+04  0.25500000000E-02 0. -1.
         -2   -1    0    0    0  501 -0.00000000000E+00 -0.00000000000E+00 -0.44530743268E+03  0.44530743269E+03  0.25500000000E-02 0.  1.
    8880022    1    1    2    0    0 -0.24115291899E+03  0.26176110283E+03  0.26716381916E+04  0.26995769826E+04  0.15294330000E+03 0.  0.
    8880022    1    1    2    0    0  0.24115291899E+03 -0.26176110283E+03 -0.34436144029E+03  0.51831463405E+03  0.15294330000E+03 0.  1.
<mgrwt>
<rscale>  0 0.38738257E+03</rscale>
<asrwt>0</asrwt>
<pdfrwt beam="1">  1        2 0.42655141E+00 0.38738257E+03</pdfrwt>
<pdfrwt beam="2">  1       -2 0.68508837E-01 0.38738257E+03</pdfrwt>
<totfact> 0.54467688E+00</totfact>
</mgrwt>
</event>
<event>
 4    1  0.6912310E-008  0.2806414E+03  0.7818608E-02  0.1095339E+00
          2   -1    0    0  501    0  0.00000000000E+00  0.00000000000E+00  0.71334883944E+03  0.71334883944E+03  0.25500000000E-02 0. -1.
         -2   -1    0    0    0  501 -0.00000000000E+00 -0.00000000000E+00 -0.22567984451E+03  0.22567984452E+03  0.25500000000E-02 0.  1.
    8880022    1    1    2    0    0  0.42331672355E+02 -0.23146487859E+03  0.57938939563E+03  0.64377922092E+03  0.15294330000E+03 0.  0.
    8880022    1    1    2    0    0 -0.42331672355E+02  0.23146487859E+03 -0.91720400704E+02  0.29524946304E+03  0.15294330000E+03 0.  0.
<mgrwt>
<rscale>  0 0.28064143E+03</rscale>
<asrwt>0</asrwt>
<pdfrwt beam="1">  1        2 0.10974597E+00 0.28064143E+03</pdfrwt>
<pdfrwt beam="2">  1       -2 0.34719977E-01 0.28064143E+03</pdfrwt>
<totfact> 0.32180608E+02</totfact>
</mgrwt>
</event>
<event>
 4    1  0.6912310E-008  0.2021468E+03  0.7818608E-02  0.1147940E+00
         -2   -1    0    0    0  501 -0.00000000000E+00  0.00000000000E+00  0.62169094316E+02  0.62169094368E+02  0.25500000000E-02 0.  1.
          2   -1    0    0  501    0  0.00000000000E+00 -0.00000000000E+00 -0.15147998315E+04  0.15147998315E+04  0.25500000000E-02 0. -1.
    8880022    1    1    2    0    0 -0.13122737534E+03  0.15844852267E+02 -0.13307020701E+03  0.24201449624E+03  0.15294330000E+03 0.  0.
    8880022    1    1    2    0    0  0.13122737534E+03 -0.15844852267E+02 -0.13195605302E+04  0.13349544296E+04  0.15294330000E+03 0.  0.
<mgrwt>
<rscale>  0 0.20214682E+03</rscale>
<asrwt>0</asrwt>
<pdfrwt beam="1">  1        2 0.23304610E+00 0.20214682E+03</pdfrwt>
<pdfrwt beam="2">  1       -2 0.95644772E-02 0.20214682E+03</pdfrwt>
<totfact> 0.96245666E+02</totfact>
</mgrwt>
</event>
<event>
 4    1  0.6912310E-008  0.8770142E+03  0.7818608E-02  0.9454780E-01
          2   -1    0    0  501    0  0.00000000000E+00  0.00000000000E+00  0.41420192248E+04  0.41420192248E+04  0.25500000000E-02 0. -1.
         -2   -1    0    0    0  501 -0.00000000000E+00 -0.00000000000E+00 -0.36050451356E+03  0.36050451357E+03  0.25500000000E-02 0.  1.
    8880022    1    1    2    0    0 -0.55394391026E+03  0.66250163364E+03  0.32309440125E+03  0.93463571268E+03  0.15294330000E+03 0.  0.
    8880022    1    1    2    0    0  0.55394391026E+03 -0.66250163364E+03  0.34584203100E+04  0.35678880257E+04  0.15294330000E+03 0.  0.
<mgrwt>
<rscale>  0 0.87701421E+03</rscale>
<asrwt>0</asrwt>
<pdfrwt beam="1">  1        2 0.63723376E+00 0.87701421E+03</pdfrwt>
<pdfrwt beam="2">  1       -2 0.55462230E-01 0.87701421E+03</pdfrwt>
<totfact> 0.86610241E-01</totfact>
</mgrwt>
</event>
<event>
 4    1  0.6912310E-008  0.8814071E+03  0.7818608E-02  0.9449127E-01
          2   -1    0    0  501    0  0.00000000000E+00  0.00000000000E+00  0.28985805781E+04  0.28985805781E+04  0.25500000000E-02 0. -1.
         -2   -1    0    0    0  501 -0.00000000000E+00 -0.00000000000E+00 -0.10228282051E+04  0.10228282051E+04  0.25500000000E-02 0.  1.
    8880022    1    1    2    0    0  0.47325988072E+03 -0.72767565789E+03 -0.74646083433E+03  0.11550247651E+04  0.15294330000E+03 0.  0.
    8880022    1    1    2    0    0 -0.47325988072E+03  0.72767565789E+03  0.26222132073E+04  0.27663840181E+04  0.15294330000E+03 0.  0.
<mgrwt>
<rscale>  0 0.88140707E+03</rscale>
<asrwt>0</asrwt>
<pdfrwt beam="1">  1        2 0.44593547E+00 0.88140707E+03</pdfrwt>
<pdfrwt beam="2">  1       -2 0.15735819E+00 0.88140707E+03</pdfrwt>
<totfact> 0.55002145E-01</totfact>
</mgrwt>
</event>
<event>
 4    1  0.6912310E-008  0.2714405E+03  0.7818608E-02  0.1100458E+00
         -2   -1    0    0    0  501 -0.00000000000E+00  0.00000000000E+00  0.72238622482E+03  0.72238622483E+03  0.25500000000E-02 0.  1.
          2   -1    0    0  501    0  0.00000000000E+00 -0.00000000000E+00 -0.31071705426E+03  0.31071705427E+03  0.25500000000E-02 0. -1.
    8880022    1    1    2    0    0  0.17828738701E+03  0.13602171282E+03  0.62919975538E+03  0.68525344502E+03  0.15294330000E+03 0.  0.
    8880022    1    1    2    0    0 -0.17828738701E+03 -0.13602171282E+03 -0.21753058482E+03  0.34784983408E+03  0.15294330000E+03 0. -1.
<mgrwt>
<rscale>  0 0.27144051E+03</rscale>
<asrwt>0</asrwt>
<pdfrwt beam="1">  1        2 0.47802624E-01 0.27144051E+03</pdfrwt>
<pdfrwt beam="2">  1       -2 0.11113634E+00 0.27144051E+03</pdfrwt>
<totfact> 0.70971774E+01</totfact>
</mgrwt>
</event>
<event>
 4    1  0.6912310E-008  0.7007610E+03  0.7818608E-02  0.9715932E-01
          2   -1    0    0  501    0  0.00000000000E+00  0.00000000000E+00  0.12216087630E+04  0.12216087630E+04  0.25500000000E-02 0. -1.
         -2   -1    0    0    0  501 -0.00000000000E+00 -0.00000000000E+00 -0.55526414276E+03  0.55526414276E+03  0.25500000000E-02 0.  1.
    8880022    1    1    2    0    0 -0.41233388346E+03 -0.54557770845E+03  0.79996168314E+03  0.10634870074E+04  0.15294330000E+03 0.  0.
    8880022    1    1    2    0    0  0.41233388346E+03  0.54557770845E+03 -0.13361706293E+03  0.71338589832E+03  0.15294330000E+03 0.  0.
<mgrwt>
<rscale>  0 0.70076096E+03</rscale>
<asrwt>0</asrwt>
<pdfrwt beam="1">  1        2 0.18793981E+00 0.70076096E+03</pdfrwt>
<pdfrwt beam="2">  1       -2 0.85425253E-01 0.70076096E+03</pdfrwt>
<totfact> 0.22452557E+01</totfact>
</mgrwt>
</event>
<event>
 4    1  0.6912310E-008  0.1889162E+03  0.7818608E-02  0.1159442E+00
         -2   -1    0    0    0  501 -0.00000000000E+00  0.00000000000E+00  0.36906800331E+03  0.36906800332E+03  0.25500000000E-02 0.  1.
          2   -1    0    0  501    0  0.00000000000E+00 -0.00000000000E+00 -0.84612212628E+03  0.84612212628E+03  0.25500000000E-02 0. -1.
    8880022    1    1    2    0    0 -0.34069997913E+02  0.10553165875E+03  0.33329459066E+03  0.38311177604E+03  0.15294330000E+03 0.  0.
    8880022    1    1    2    0    0  0.34069997913E+02 -0.10553165875E+03 -0.81034871364E+03  0.83207835356E+03  0.15294330000E+03 0. -1.
<mgrwt>
<rscale>  0 0.18891625E+03</rscale>
<asrwt>0</asrwt>
<pdfrwt beam="1">  1        2 0.13017263E+00 0.18891625E+03</pdfrwt>
<pdfrwt beam="2">  1       -2 0.56779693E-01 0.18891625E+03</pdfrwt>
<totfact> 0.10079045E+02</totfact>
</mgrwt>
</event>
<event>
 4    1  0.6912310E-008  0.1016466E+04  0.7818608E-02  0.9290667E-01
          2   -1    0    0  501    0  0.00000000000E+00  0.00000000000E+00  0.13491533277E+04  0.13491533278E+04  0.25500000000E-02 0. -1.
         -2   -1    0    0    0  501 -0.00000000000E+00 -0.00000000000E+00 -0.78977170020E+03  0.78977170020E+03  0.25500000000E-02 0.  1.
    8880022    1    1    2    0    0 -0.18878571744E+03 -0.98700134701E+03  0.46595020574E+03  0.11181739370E+04  0.15294330000E+03 0.  0.
    8880022    1    1    2    0    0  0.18878571744E+03  0.98700134701E+03  0.93431421805E+02  0.10207510910E+04  0.15294330000E+03 0.  0.
<mgrwt>
<rscale>  0 0.10164661E+04</rscale>
<asrwt>0</asrwt>
<pdfrwt beam="1">  1        2 0.20756205E+00 0.10164661E+04</pdfrwt>
<pdfrwt beam="2">  1       -2 0.12150334E+00 0.10164661E+04</pdfrwt>
<totfact> 0.79003701E+00</totfact>
</mgrwt>
</event>
<event>
 4    1  0.6912310E-008  0.1585978E+03  0.7818608E-02  0.1190289E+00
          2   -1    0    0  501    0  0.00000000000E+00  0.00000000000E+00  0.77422438057E+03  0.77422438057E+03  0.25500000000E-02 0. -1.
         -2   -1    0    0    0  501 -0.00000000000E+00 -0.00000000000E+00 -0.36732670744E+02  0.36732670833E+02  0.25500000000E-02 0.  1.
    8880022    1    1    2    0    0  0.23315784337E+02 -0.34899731459E+02  0.23091518188E+03  0.28013405951E+03  0.15294330000E+03 0.  0.
    8880022    1    1    2    0    0 -0.23315784337E+02  0.34899731459E+02  0.50657652794E+03  0.53082299190E+03  0.15294330000E+03 0. -1.
<mgrwt>
<rscale>  0 0.15859782E+03</rscale>
<asrwt>0</asrwt>
<pdfrwt beam="1">  1        2 0.11911144E+00 0.15859782E+03</pdfrwt>
<pdfrwt beam="2">  1       -2 0.56511803E-02 0.15859782E+03</pdfrwt>
<totfact> 0.58566234E+03</totfact>
</mgrwt>
</event>
<event>
 4    1  0.6912310E-008  0.1224864E+04  0.7818608E-02  0.9091367E-01
          2   -1    0    0  501    0  0.00000000000E+00  0.00000000000E+00  0.22764730502E+04  0.22764730502E+04  0.25500000000E-02 0. -1.
         -2   -1    0    0    0  501 -0.00000000000E+00 -0.00000000000E+00 -0.82119250535E+03  0.82119250535E+03  0.25500000000E-02 0.  1.
    8880022    1    1    2    0    0  0.21293065212E+03 -0.11964789696E+04  0.39399808807E+02  0.12254980152E+04  0.15294330000E+03 0.  0.
    8880022    1    1    2    0    0 -0.21293065212E+03  0.11964789696E+04  0.14158807361E+04  0.18721675404E+04  0.15294330000E+03 0.  0.
<mgrwt>
<rscale>  0 0.12248645E+04</rscale>
<asrwt>0</asrwt>
<pdfrwt beam="1">  1        2 0.35022663E+00 0.12248645E+04</pdfrwt>
<pdfrwt beam="2">  1       -2 0.12633731E+00 0.12248645E+04</pdfrwt>
<totfact> 0.21276097E+00</totfact>
</mgrwt>
</event>
<event>
 4    1  0.6912310E-008  0.5407840E+03  0.7818608E-02  0.1003650E+00
          2   -1    0    0  501    0  0.00000000000E+00  0.00000000000E+00  0.21748434776E+04  0.21748434776E+04  0.25500000000E-02 0. -1.
         -2   -1    0    0    0  501 -0.00000000000E+00 -0.00000000000E+00 -0.23950010705E+03  0.23950010706E+03  0.25500000000E-02 0.  1.
    8880022    1    1    2    0    0 -0.43887373334E+03  0.27648775392E+03  0.16824829505E+03  0.56635216402E+03  0.15294330000E+03 0.  0.
    8880022    1    1    2    0    0  0.43887373334E+03 -0.27648775392E+03  0.17670950755E+04  0.18479914206E+04  0.15294330000E+03 0.  0.
<mgrwt>
<rscale>  0 0.54078395E+03</rscale>
<asrwt>0</asrwt>
<pdfrwt beam="1">  1        2 0.33459131E+00 0.54078395E+03</pdfrwt>
<pdfrwt beam="2">  1       -2 0.36846169E-01 0.54078395E+03</pdfrwt>
<totfact> 0.39560930E+01</totfact>
</mgrwt>
</event>
<event>
 4    1  0.6912310E-008  0.5571469E+03  0.7818608E-02  0.9998531E-01
          2   -1    0    0  501    0  0.00000000000E+00  0.00000000000E+00  0.27064415526E+04  0.27064415526E+04  0.25500000000E-02 0. -1.
         -2   -1    0    0    0  501 -0.00000000000E+00 -0.00000000000E+00 -0.56819771977E+03  0.56819771977E+03  0.25500000000E-02 0.  1.
    8880022    1    1    2    0    0  0.53574277231E+03 -0.80795100539E+00 -0.39364170479E+03  0.68217770092E+03  0.15294330000E+03 0.  0.
    8880022    1    1    2    0    0 -0.53574277231E+03  0.80795100539E+00  0.25318855376E+04  0.25924615715E+04  0.15294330000E+03 0.  0.
<mgrwt>
<rscale>  0 0.55714686E+03</rscale>
<asrwt>0</asrwt>
<pdfrwt beam="1">  1        2 0.41637562E+00 0.55714686E+03</pdfrwt>
<pdfrwt beam="2">  1       -2 0.87415035E-01 0.55714686E+03</pdfrwt>
<totfact> 0.32844809E+00</totfact>
</mgrwt>
</event>
<event>
 4    1  0.6912310E-008  0.4175137E+03  0.7818608E-02  0.1037879E+00
         -2   -1    0    0    0  501 -0.00000000000E+00  0.00000000000E+00  0.20071413993E+03  0.20071413994E+03  0.25500000000E-02 0.  1.
          2   -1    0    0  501    0  0.00000000000E+00 -0.00000000000E+00 -0.10632431604E+04  0.10632431604E+04  0.25500000000E-02 0. -1.
    8880022    1    1    2    0    0  0.34250680141E+03  0.18334418237E+03 -0.16078676118E+03  0.44740365869E+03  0.15294330000E+03 0.  0.
    8880022    1    1    2    0    0 -0.34250680141E+03 -0.18334418237E+03 -0.70174225930E+03  0.81655364167E+03  0.15294330000E+03 0.  0.
<mgrwt>
<rscale>  0 0.41751365E+03</rscale>
<asrwt>0</asrwt>
<pdfrwt beam="1">  1        2 0.16357587E+00 0.41751365E+03</pdfrwt>
<pdfrwt beam="2">  1       -2 0.30879099E-01 0.41751365E+03</pdfrwt>
<totfact> 0.23098929E+02</totfact>
</mgrwt>
</event>
<event>
 4    1  0.6912310E-008  0.9347050E+03  0.7818608E-02  0.9383209E-01
         -2   -1    0    0    0  501 -0.00000000000E+00  0.00000000000E+00  0.18740544580E+04  0.18740544580E+04  0.25500000000E-02 0.  1.
          2   -1    0    0  501    0  0.00000000000E+00 -0.00000000000E+00 -0.86800033895E+03  0.86800033895E+03  0.25500000000E-02 0. -1.
    8880022    1    1    2    0    0 -0.19424069586E+03 -0.90141687548E+03  0.14358397000E+04  0.17132743879E+04  0.15294330000E+03 0.  0.
    8880022    1    1    2    0    0  0.19424069586E+03  0.90141687548E+03 -0.42978558094E+03  0.10287804090E+04  0.15294330000E+03 0.  0.
<mgrwt>
<rscale>  0 0.93470503E+03</rscale>
<asrwt>0</asrwt>
<pdfrwt beam="1">  1        2 0.13353851E+00 0.93470503E+03</pdfrwt>
<pdfrwt beam="2">  1       -2 0.28831607E+00 0.93470503E+03</pdfrwt>
<totfact> 0.11687121E+00</totfact>
</mgrwt>
</event>
<event>
 4    1  0.6912310E-008  0.1777336E+03  0.7818608E-02  0.1170015E+00
          2   -1    0    0  501    0  0.00000000000E+00  0.00000000000E+00  0.65362420340E+03  0.65362420341E+03  0.25500000000E-02 0. -1.
         -2   -1    0    0    0  501 -0.00000000000E+00 -0.00000000000E+00 -0.56330285342E+03  0.56330285342E+03  0.25500000000E-02 0.  1.
    8880022    1    1    2    0    0  0.80671219620E+02 -0.41106382684E+02  0.62693696485E+03  0.65164345411E+03  0.15294330000E+03 0.  0.
    8880022    1    1    2    0    0 -0.80671219620E+02  0.41106382684E+02 -0.53661561487E+03  0.56528360272E+03  0.15294330000E+03 0.  0.
<mgrwt>
<rscale>  0 0.17773360E+03</rscale>
<asrwt>0</asrwt>
<pdfrwt beam="1">  1        2 0.10055757E+00 0.17773360E+03</pdfrwt>
<pdfrwt beam="2">  1       -2 0.86661978E-01 0.17773360E+03</pdfrwt>
<totfact> 0.56225736E+01</totfact>
</mgrwt>
</event>
<event>
 4    1  0.6912310E-008  0.1763605E+04  0.7818608E-02  0.8725897E-01
          2   -1    0    0  501    0  0.00000000000E+00  0.00000000000E+00  0.30632842789E+04  0.30632842789E+04  0.25500000000E-02 0. -1.
         -2   -1    0    0    0  501 -0.00000000000E+00 -0.00000000000E+00 -0.10631840379E+04  0.10631840379E+04  0.25500000000E-02 0.  1.
    8880022    1    1    2    0    0  0.12093463972E+04  0.12745170071E+04  0.56241176213E+03  0.18511107349E+04  0.15294330000E+03 0.  0.
    8880022    1    1    2    0    0 -0.12093463972E+04 -0.12745170071E+04  0.14376884789E+04  0.22753575818E+04  0.15294330000E+03 0.  0.
<mgrwt>
<rscale>  0 0.17636054E+04</rscale>
<asrwt>0</asrwt>
<pdfrwt beam="1">  1        2 0.47127450E+00 0.17636054E+04</pdfrwt>
<pdfrwt beam="2">  1       -2 0.16356678E+00 0.17636054E+04</pdfrwt>
<totfact> 0.34646753E-01</totfact>
</mgrwt>
</event>
<event>
 4    1  0.6912310E-008  0.6487326E+03  0.7818608E-02  0.9809160E-01
          2   -1    0    0  501    0  0.00000000000E+00  0.00000000000E+00  0.79350261401E+03  0.79350261401E+03  0.25500000000E-02 0. -1.
         -2   -1    0    0    0  501 -0.00000000000E+00 -0.00000000000E+00 -0.10810512223E+04  0.10810512223E+04  0.25500000000E-02 0.  1.
    8880022    1    1    2    0    0 -0.34391572705E+03 -0.52837889724E+03 -0.81272321794E+03  0.10398908444E+04  0.15294330000E+03 0.  0.
    8880022    1    1    2    0    0  0.34391572705E+03  0.52837889724E+03  0.52517460965E+03  0.83466299187E+03  0.15294330000E+03 0.  0.
<mgrwt>
<rscale>  0 0.64873256E+03</rscale>
<asrwt>0</asrwt>
<pdfrwt beam="1">  1        2 0.12207733E+00 0.64873256E+03</pdfrwt>
<pdfrwt beam="2">  1       -2 0.16631557E+00 0.64873256E+03</pdfrwt>
<totfact> 0.81298688E+00</totfact>
</mgrwt>
</event>
<event>
 4    1  0.6912310E-008  0.8529327E+03  0.7818608E-02  0.9486409E-01
          2   -1    0    0  501    0  0.00000000000E+00  0.00000000000E+00  0.94114670926E+03  0.94114670927E+03  0.25500000000E-02 0. -1.
         -2   -1    0    0    0  501 -0.00000000000E+00 -0.00000000000E+00 -0.10883794269E+04  0.10883794269E+04  0.25500000000E-02 0.  1.
    8880022    1    1    2    0    0 -0.83785464798E+03 -0.45849092230E+02  0.47264451856E+03  0.97513437245E+03  0.15294330000E+03 0.  0.
    8880022    1    1    2    0    0  0.83785464798E+03  0.45849092230E+02 -0.61987723617E+03  0.10543917637E+04  0.15294330000E+03 0.  0.
<mgrwt>
<rscale>  0 0.85293271E+03</rscale>
<asrwt>0</asrwt>
<pdfrwt beam="1">  1        2 0.14479180E+00 0.85293271E+03</pdfrwt>
<pdfrwt beam="2">  1       -2 0.16744299E+00 0.85293271E+03</pdfrwt>
<totfact> 0.61576946E+00</totfact>
</mgrwt>
</event>
<event>
 4    1  0.6912310E-008  0.1036234E+04  0.7818608E-02  0.9269673E-01
          2   -1    0    0  501    0  0.00000000000E+00  0.00000000000E+00  0.21851169247E+04  0.21851169247E+04  0.25500000000E-02 0. -1.
         -2   -1    0    0    0  501 -0.00000000000E+00 -0.00000000000E+00 -0.98889111108E+03  0.98889111108E+03  0.25500000000E-02 0.  1.
    8880022    1    1    2    0    0  0.67500684123E+03 -0.77120417700E+03  0.17237370336E+04  0.20112312478E+04  0.15294330000E+03 0.  0.
    8880022    1    1    2    0    0 -0.67500684123E+03  0.77120417700E+03 -0.52751121998E+03  0.11627767879E+04  0.15294330000E+03 0.  0.
<mgrwt>
<rscale>  0 0.10362344E+04</rscale>
<asrwt>0</asrwt>
<pdfrwt beam="1">  1        2 0.33617183E+00 0.10362344E+04</pdfrwt>
<pdfrwt beam="2">  1       -2 0.15213710E+00 0.10362344E+04</pdfrwt>
<totfact> 0.15116961E+00</totfact>
</mgrwt>
</event>
<event>
 4    1  0.6912310E-008  0.5195773E+03  0.7818608E-02  0.1008792E+00
         -2   -1    0    0    0  501 -0.00000000000E+00  0.00000000000E+00  0.49939995329E+03  0.49939995330E+03  0.25500000000E-02 0.  1.
          2   -1    0    0  501    0  0.00000000000E+00 -0.00000000000E+00 -0.12125643155E+04  0.12125643155E+04  0.25500000000E-02 0. -1.
    8880022    1    1    2    0    0 -0.15599805749E+03 -0.47141648909E+03 -0.99381063500E+03  0.11214366373E+04  0.15294330000E+03 0.  0.
    8880022    1    1    2    0    0  0.15599805749E+03  0.47141648909E+03  0.28064627282E+03  0.59052763152E+03  0.15294330000E+03 0.  0.
<mgrwt>
<rscale>  0 0.51957728E+03</rscale>
<asrwt>0</asrwt>
<pdfrwt beam="1">  1        2 0.18654836E+00 0.51957728E+03</pdfrwt>
<pdfrwt beam="2">  1       -2 0.76830762E-01 0.51957728E+03</pdfrwt>
<totfact> 0.29553219E+01</totfact>
</mgrwt>
</event>
<event>
 4    1  0.6912310E-008  0.5171466E+03  0.7818608E-02  0.1009398E+00
          2   -1    0    0  501    0  0.00000000000E+00  0.00000000000E+00  0.79912084337E+03  0.79912084337E+03  0.25500000000E-02 0. -1.
         -2   -1    0    0    0  501 -0.00000000000E+00 -0.00000000000E+00 -0.35140890069E+03  0.35140890070E+03  0.25500000000E-02 0.  1.
    8880022    1    1    2    0    0  0.32817054399E+03 -0.36926017950E+03  0.98298273728E+02  0.52640591728E+03  0.15294330000E+03 0.  1.
    8880022    1    1    2    0    0 -0.32817054399E+03  0.36926017950E+03  0.34941366895E+03  0.62412382680E+03  0.15294330000E+03 0. -1.
<mgrwt>
<rscale>  0 0.51714663E+03</rscale>
<asrwt>0</asrwt>
<pdfrwt beam="1">  1        2 0.12294167E+00 0.51714663E+03</pdfrwt>
<pdfrwt beam="2">  1       -2 0.54062909E-01 0.51714663E+03</pdfrwt>
<totfact> 0.11446806E+02</totfact>
</mgrwt>
</event>
<event>
 4    1  0.6912310E-008  0.6043178E+03  0.7818608E-02  0.9896488E-01
          2   -1    0    0  501    0  0.00000000000E+00  0.00000000000E+00  0.16118628535E+04  0.16118628535E+04  0.25500000000E-02 0. -1.
         -2   -1    0    0    0  501 -0.00000000000E+00 -0.00000000000E+00 -0.31265765599E+03  0.31265765600E+03  0.25500000000E-02 0.  1.
    8880022    1    1    2    0    0  0.46366998209E+02 -0.58280222906E+03  0.11545290317E+04  0.13031259628E+04  0.15294330000E+03 0.  0.
    8880022    1    1    2    0    0 -0.46366998209E+02  0.58280222906E+03  0.14467616575E+03  0.62139454671E+03  0.15294330000E+03 0.  0.
<mgrwt>
<rscale>  0 0.60431779E+03</rscale>
<asrwt>0</asrwt>
<pdfrwt beam="1">  1        2 0.24797890E+00 0.60431779E+03</pdfrwt>
<pdfrwt beam="2">  1       -2 0.48101178E-01 0.60431779E+03</pdfrwt>
<totfact> 0.46864230E+01</totfact>
</mgrwt>
</event>
<event>
 4    1  0.6912310E-008  0.4633693E+03  0.7818608E-02  0.1023809E+00
          2   -1    0    0  501    0  0.00000000000E+00  0.00000000000E+00  0.10355417028E+04  0.10355417028E+04  0.25500000000E-02 0. -1.
         -2   -1    0    0    0  501 -0.00000000000E+00 -0.00000000000E+00 -0.54962997559E+03  0.54962997560E+03  0.25500000000E-02 0.  1.
    8880022    1    1    2    0    0  0.55199409219E+02 -0.43390379155E+03  0.86842663953E+03  0.98431496807E+03  0.15294330000E+03 0.  0.
    8880022    1    1    2    0    0 -0.55199409219E+02  0.43390379155E+03 -0.38251491237E+03  0.60085671029E+03  0.15294330000E+03 0.  0.
<mgrwt>
<rscale>  0 0.46336932E+03</rscale>
<asrwt>0</asrwt>
<pdfrwt beam="1">  1        2 0.15931411E+00 0.46336932E+03</pdfrwt>
<pdfrwt beam="2">  1       -2 0.84558457E-01 0.46336932E+03</pdfrwt>
<totfact> 0.30703742E+01</totfact>
</mgrwt>
</event>
<event>
 4    1  0.6912310E-008  0.5726402E+03  0.7818608E-02  0.9963853E-01
         -2   -1    0    0    0  501 -0.00000000000E+00  0.00000000000E+00  0.10228342155E+04  0.10228342155E+04  0.25500000000E-02 0.  1.
          2   -1    0    0  501    0  0.00000000000E+00 -0.00000000000E+00 -0.93156893990E+03  0.93156893990E+03  0.25500000000E-02 0. -1.
    8880022    1    1    2    0    0  0.32740031992E+03  0.44422307173E+03  0.83701720569E+03  0.10141570700E+04  0.15294330000E+03 0.  0.
    8880022    1    1    2    0    0 -0.32740031992E+03 -0.44422307173E+03 -0.74575193008E+03  0.94024608543E+03  0.15294330000E+03 0.  0.
<mgrwt>
<rscale>  0 0.57264017E+03</rscale>
<asrwt>0</asrwt>
<pdfrwt beam="1">  1        2 0.14331830E+00 0.57264017E+03</pdfrwt>
<pdfrwt beam="2">  1       -2 0.15735911E+00 0.57264017E+03</pdfrwt>
<totfact> 0.76848918E+00</totfact>
</mgrwt>
</event>
<event>
 4    1  0.6912310E-008  0.1683276E+03  0.7818608E-02  0.1179603E+00
          2   -1    0    0  501    0  0.00000000000E+00  0.00000000000E+00  0.10001796990E+04  0.10001796990E+04  0.25500000000E-02 0. -1.
         -2   -1    0    0    0  501 -0.00000000000E+00 -0.00000000000E+00 -0.11272445998E+03  0.11272446001E+03  0.25500000000E-02 0.  1.
    8880022    1    1    2    0    0 -0.94418143601E+01  0.69666279634E+02  0.92520730848E+03  0.94039499948E+03  0.15294330000E+03 0.  0.
    8880022    1    1    2    0    0  0.94418143601E+01 -0.69666279634E+02 -0.37752069415E+02  0.17250915957E+03  0.15294330000E+03 0.  1.
<mgrwt>
<rscale>  0 0.16832763E+03</rscale>
<asrwt>0</asrwt>
<pdfrwt beam="1">  1        2 0.15387380E+00 0.16832763E+03</pdfrwt>
<pdfrwt beam="2">  1       -2 0.17342225E-01 0.16832763E+03</pdfrwt>
<totfact> 0.71151860E+02</totfact>
</mgrwt>
</event>
<event>
 4    1  0.6912310E-008  0.4587280E+03  0.7818608E-02  0.1025151E+00
          2   -1    0    0  501    0  0.00000000000E+00  0.00000000000E+00  0.22970022776E+04  0.22970022776E+04  0.25500000000E-02 0. -1.
         -2   -1    0    0    0  501 -0.00000000000E+00 -0.00000000000E+00 -0.26213716808E+03  0.26213716809E+03  0.25500000000E-02 0.  1.
    8880022    1    1    2    0    0 -0.10711120297E+03  0.41900703064E+03  0.20494684287E+04  0.21001790863E+04  0.15294330000E+03 0.  0.
    8880022    1    1    2    0    0  0.10711120297E+03 -0.41900703064E+03 -0.14603319148E+02  0.45896035937E+03  0.15294330000E+03 0.  0.
<mgrwt>
<rscale>  0 0.45872797E+03</rscale>
<asrwt>0</asrwt>
<pdfrwt beam="1">  1        2 0.35338495E+00 0.45872797E+03</pdfrwt>
<pdfrwt beam="2">  1       -2 0.40328796E-01 0.45872797E+03</pdfrwt>
<totfact> 0.29009228E+01</totfact>
</mgrwt>
</event>
<event>
 4    1  0.6912310E-008  0.6492011E+03  0.7818608E-02  0.9808279E-01
          2   -1    0    0  501    0  0.00000000000E+00  0.00000000000E+00  0.13980555370E+04  0.13980555370E+04  0.25500000000E-02 0. -1.
         -2   -1    0    0    0  501 -0.00000000000E+00 -0.00000000000E+00 -0.56972512178E+03  0.56972512179E+03  0.25500000000E-02 0.  1.
    8880022    1    1    2    0    0  0.38685240381E+03  0.49841314917E+03 -0.26097447415E+03  0.69969263164E+03  0.15294330000E+03 0.  0.
    8880022    1    1    2    0    0 -0.38685240381E+03 -0.49841314917E+03  0.10893048894E+04  0.12680880272E+04  0.15294330000E+03 0.  0.
<mgrwt>
<rscale>  0 0.64920113E+03</rscale>
<asrwt>0</asrwt>
<pdfrwt beam="1">  1        2 0.21508547E+00 0.64920113E+03</pdfrwt>
<pdfrwt beam="2">  1       -2 0.87650019E-01 0.64920113E+03</pdfrwt>
<totfact> 0.16882689E+01</totfact>
</mgrwt>
</event>
<event>
 4    1  0.6912310E-008  0.4603265E+03  0.7818608E-02  0.1024687E+00
          2   -1    0    0  501    0  0.00000000000E+00  0.00000000000E+00  0.11164673926E+04  0.11164673926E+04  0.25500000000E-02 0. -1.
         -2   -1    0    0    0  501 -0.00000000000E+00 -0.00000000000E+00 -0.12000463863E+04  0.12000463863E+04  0.25500000000E-02 0.  1.
    8880022    1    1    2    0    0  0.36585674393E+03  0.23378985738E+03  0.10209345103E+04  0.11199141851E+04  0.15294330000E+03 0.  0.
    8880022    1    1    2    0    0 -0.36585674393E+03 -0.23378985738E+03 -0.11045135040E+04  0.11965995938E+04  0.15294330000E+03 0.  0.
<mgrwt>
<rscale>  0 0.46032652E+03</rscale>
<asrwt>0</asrwt>
<pdfrwt beam="1">  1        2 0.17176421E+00 0.46032652E+03</pdfrwt>
<pdfrwt beam="2">  1       -2 0.18462252E+00 0.46032652E+03</pdfrwt>
<totfact> 0.38791294E+00</totfact>
</mgrwt>
</event>
<event>
 4    1  0.6912310E-008  0.4324689E+03  0.7818608E-02  0.1033083E+00
          2   -1    0    0  501    0  0.00000000000E+00  0.00000000000E+00  0.13655879223E+04  0.13655879223E+04  0.25500000000E-02 0. -1.
         -2   -1    0    0    0  501 -0.00000000000E+00 -0.00000000000E+00 -0.29180538389E+03  0.29180538390E+03  0.25500000000E-02 0.  1.
    8880022    1    1    2    0    0  0.34218789329E+03  0.21574317900E+03  0.11405614230E+04  0.12197990352E+04  0.15294330000E+03 0.  0.
    8880022    1    1    2    0    0 -0.34218789329E+03 -0.21574317900E+03 -0.66778884568E+02  0.43759427103E+03  0.15294330000E+03 0.  1.
<mgrwt>
<rscale>  0 0.43246887E+03</rscale>
<asrwt>0</asrwt>
<pdfrwt beam="1">  1        2 0.21009045E+00 0.43246887E+03</pdfrwt>
<pdfrwt beam="2">  1       -2 0.44893135E-01 0.43246887E+03</pdfrwt>
<totfact> 0.75403461E+01</totfact>
</mgrwt>
</event>
<event>
 4    1  0.6912310E-008  0.2356925E+03  0.7818608E-02  0.1122696E+00
         -2   -1    0    0    0  501 -0.00000000000E+00  0.00000000000E+00  0.60813459073E+03  0.60813459073E+03  0.25500000000E-02 0.  1.
          2   -1    0    0  501    0  0.00000000000E+00 -0.00000000000E+00 -0.73190496657E+03  0.73190496658E+03  0.25500000000E-02 0. -1.
    8880022    1    1    2    0    0 -0.14663508911E+03  0.10323500263E+03  0.56493021921E+03  0.61212508584E+03  0.15294330000E+03 0.  0.
    8880022    1    1    2    0    0  0.14663508911E+03 -0.10323500263E+03 -0.68870059505E+03  0.72791447147E+03  0.15294330000E+03 0.  0.
<mgrwt>
<rscale>  0 0.23569253E+03</rscale>
<asrwt>0</asrwt>
<pdfrwt beam="1">  1        2 0.11260076E+00 0.23569253E+03</pdfrwt>
<pdfrwt beam="2">  1       -2 0.93559168E-01 0.23569253E+03</pdfrwt>
<totfact> 0.40638007E+01</totfact>
</mgrwt>
</event>
<event>
 4    1  0.6912310E-008  0.1712909E+03  0.7818608E-02  0.1176508E+00
         -2   -1    0    0    0  501 -0.00000000000E+00  0.00000000000E+00  0.14447897661E+03  0.14447897663E+03  0.25500000000E-02 0.  1.
          2   -1    0    0  501    0  0.00000000000E+00 -0.00000000000E+00 -0.49850550694E+03  0.49850550695E+03  0.25500000000E-02 0. -1.
    8880022    1    1    2    0    0  0.70897424151E+02 -0.30372055644E+02 -0.42450499266E+03  0.45776090737E+03  0.15294330000E+03 0. -1.
    8880022    1    1    2    0    0 -0.70897424151E+02  0.30372055644E+02  0.70478462321E+02  0.18522357620E+03  0.15294330000E+03 0.  0.
<mgrwt>
<rscale>  0 0.17129086E+03</rscale>
<asrwt>0</asrwt>
<pdfrwt beam="1">  1        2 0.76693154E-01 0.17129086E+03</pdfrwt>
<pdfrwt beam="2">  1       -2 0.22227535E-01 0.17129086E+03</pdfrwt>
<totfact> 0.10894706E+03</totfact>
</mgrwt>
</event>
<event>
 4    1  0.6912310E-008  0.2797359E+03  0.7818608E-02  0.1095833E+00
          2   -1    0    0  501    0  0.00000000000E+00  0.00000000000E+00  0.95602876692E+03  0.95602876692E+03  0.25500000000E-02 0. -1.
         -2   -1    0    0    0  501 -0.00000000000E+00 -0.00000000000E+00 -0.18374104808E+03  0.18374104810E+03  0.25500000000E-02 0.  1.
    8880022    1    1    2    0    0  0.14525544179E+03  0.18374269468E+03  0.81051843451E+03  0.85743355831E+03  0.15294330000E+03 0. -1.
    8880022    1    1    2    0    0 -0.14525544179E+03 -0.18374269468E+03 -0.38230715673E+02  0.28233625671E+03  0.15294330000E+03 0.  0.
<mgrwt>
<rscale>  0 0.27973590E+03</rscale>
<asrwt>0</asrwt>
<pdfrwt beam="1">  1        2 0.14708135E+00 0.27973590E+03</pdfrwt>
<pdfrwt beam="2">  1       -2 0.28267853E-01 0.27973590E+03</pdfrwt>
<totfact> 0.32090897E+02</totfact>
</mgrwt>
</event>
<event>
 4    1  0.6912310E-008  0.1256547E+04  0.7818608E-02  0.9064752E-01
          2   -1    0    0  501    0  0.00000000000E+00  0.00000000000E+00  0.69873554045E+03  0.69873554045E+03  0.25500000000E-02 0. -1.
         -2   -1    0    0    0  501 -0.00000000000E+00 -0.00000000000E+00 -0.31265342482E+04  0.31265342482E+04  0.25500000000E-02 0.  1.
    8880022    1    1    2    0    0  0.69841706331E+03 -0.10333116951E+04 -0.22210078325E+04  0.25518203108E+04  0.15294330000E+03 0.  0.
    8880022    1    1    2    0    0 -0.69841706331E+03  0.10333116951E+04 -0.20679087518E+03  0.12734494778E+04  0.15294330000E+03 0.  0.
<mgrwt>
<rscale>  0 0.12565473E+04</rscale>
<asrwt>0</asrwt>
<pdfrwt beam="1">  1        2 0.10749778E+00 0.12565473E+04</pdfrwt>
<pdfrwt beam="2">  1       -2 0.48100526E+00 0.12565473E+04</pdfrwt>
<totfact> 0.87395573E-02</totfact>
</mgrwt>
</event>
<event>
 4    1  0.6912310E-008  0.2422861E+03  0.7818608E-02  0.1118279E+00
          2   -1    0    0  501    0  0.00000000000E+00  0.00000000000E+00  0.59153886155E+03  0.59153886155E+03  0.25500000000E-02 0. -1.
         -2   -1    0    0    0  501 -0.00000000000E+00 -0.00000000000E+00 -0.49715011530E+03  0.49715011531E+03  0.25500000000E-02 0.  1.
    8880022    1    1    2    0    0 -0.93425828801E+02  0.16304150917E+03  0.53418898566E+03  0.58656665829E+03  0.15294330000E+03 0. -1.
    8880022    1    1    2    0    0  0.93425828801E+02 -0.16304150917E+03 -0.43980023942E+03  0.50212231857E+03  0.15294330000E+03 0.  0.
<mgrwt>
<rscale>  0 0.24228614E+03</rscale>
<asrwt>0</asrwt>
<pdfrwt beam="1">  1        2 0.91005979E-01 0.24228614E+03</pdfrwt>
<pdfrwt beam="2">  1       -2 0.76484633E-01 0.24228614E+03</pdfrwt>
<totfact> 0.82093945E+01</totfact>
</mgrwt>
</event>
<event>
 4    1  0.1019340E-007  0.8526603E+03  0.7818608E-02  0.9486773E-01
          2   -1    0    0  501    0  0.00000000000E+00  0.00000000000E+00  0.29793549138E+04  0.29793549138E+04  0.25500000000E-02 0. -1.
         -2   -1    0    0    0  501 -0.00000000000E+00 -0.00000000000E+00 -0.83566229371E+03  0.83566229371E+03  0.25500000000E-02 0.  1.
    8880022    1    1    2    0    0  0.30191049474E+03 -0.78261606524E+03 -0.53317131768E+03  0.10056347048E+04  0.15294330000E+03 0.  0.
    8880022    1    1    2    0    0 -0.30191049474E+03  0.78261606524E+03  0.26768639378E+04  0.28093825028E+04  0.15294330000E+03 0.  0.
<mgrwt>
<rscale>  0 0.85266025E+03</rscale>
<asrwt>0</asrwt>
<pdfrwt beam="1">  1        2 0.45836230E+00 0.85266025E+03</pdfrwt>
<pdfrwt beam="2">  1       -2 0.12856343E+00 0.85266025E+03</pdfrwt>
<totfact> 0.83708524E-01</totfact>
</mgrwt>
</event>
<event>
 4    1  0.6912310E-008  0.2718055E+03  0.7818608E-02  0.1100251E+00
          2   -1    0    0  501    0  0.00000000000E+00  0.00000000000E+00  0.44215132210E+03  0.44215132211E+03  0.25500000000E-02 0. -1.
         -2   -1    0    0    0  501 -0.00000000000E+00 -0.00000000000E+00 -0.43125383060E+03  0.43125383061E+03  0.25500000000E-02 0.  1.
    8880022    1    1    2    0    0 -0.33128007720E+01 -0.22466780480E+03  0.34723725808E+03  0.44096707766E+03  0.15294330000E+03 0.  0.
    8880022    1    1    2    0    0  0.33128007720E+01  0.22466780480E+03 -0.33633976658E+03  0.43243807506E+03  0.15294330000E+03 0.  0.
<mgrwt>
<rscale>  0 0.27180554E+03</rscale>
<asrwt>0</asrwt>
<pdfrwt beam="1">  1        2 0.68023280E-01 0.27180554E+03</pdfrwt>
<pdfrwt beam="2">  1       -2 0.66346743E-01 0.27180554E+03</pdfrwt>
<totfact> 0.15433331E+02</totfact>
</mgrwt>
</event>
<event>
 4    1  0.6912310E-008  0.4465937E+03  0.7818608E-02  0.1028743E+00
          2   -1    0    0  501    0  0.00000000000E+00  0.00000000000E+00  0.16953695972E+04  0.16953695972E+04  0.25500000000E-02 0. -1.
         -2   -1    0    0    0  501 -0.00000000000E+00 -0.00000000000E+00 -0.86835388187E+03  0.86835388187E+03  0.25500000000E-02 0.  1.
    8880022    1    1    2    0    0 -0.24972845232E+03 -0.33717948627E+03 -0.77836402983E+03  0.89738315218E+03  0.15294330000E+03 0.  0.
    8880022    1    1    2    0    0  0.24972845232E+03  0.33717948627E+03  0.16053797452E+04  0.16663403269E+04  0.15294330000E+03 0.  0.
<mgrwt>
<rscale>  0 0.44659373E+03</rscale>
<asrwt>0</asrwt>
<pdfrwt beam="1">  1        2 0.26082609E+00 0.44659373E+03</pdfrwt>
<pdfrwt beam="2">  1       -2 0.13359291E+00 0.44659373E+03</pdfrwt>
<totfact> 0.43851955E+00</totfact>
</mgrwt>
</event>
<event>
 4    1  0.6912310E-008  0.4986099E+03  0.7818608E-02  0.1014142E+00
          2   -1    0    0  501    0  0.00000000000E+00  0.00000000000E+00  0.13764428843E+04  0.13764428843E+04  0.25500000000E-02 0. -1.
         -2   -1    0    0    0  501 -0.00000000000E+00 -0.00000000000E+00 -0.20955135409E+03  0.20955135410E+03  0.25500000000E-02 0.  1.
    8880022    1    1    2    0    0 -0.18776592130E+03  0.43584877896E+03  0.87810335519E+03  0.10097907480E+04  0.15294330000E+03 0. -1.
    8880022    1    1    2    0    0  0.18776592130E+03 -0.43584877896E+03  0.28878817504E+03  0.57620349043E+03  0.15294330000E+03 0.  0.
<mgrwt>
<rscale>  0 0.49860992E+03</rscale>
<asrwt>0</asrwt>
<pdfrwt beam="1">  1        2 0.21176044E+00 0.49860992E+03</pdfrwt>
<pdfrwt beam="2">  1       -2 0.32238671E-01 0.49860992E+03</pdfrwt>
<totfact> 0.13907511E+02</totfact>
</mgrwt>
</event>
<event>
 4    1  0.6912310E-008  0.3778303E+03  0.7818608E-02  0.1051739E+00
         -2   -1    0    0    0  501 -0.00000000000E+00  0.00000000000E+00  0.64407038873E+03  0.64407038873E+03  0.25500000000E-02 0.  1.
          2   -1    0    0  501    0  0.00000000000E+00 -0.00000000000E+00 -0.31509441496E+03  0.31509441497E+03  0.25500000000E-02 0. -1.
    8880022    1    1    2    0    0 -0.28772651542E+02  0.34429094168E+03 -0.96685044589E+02  0.39000483185E+03  0.15294330000E+03 0. -1.
    8880022    1    1    2    0    0  0.28772651542E+02 -0.34429094168E+03  0.42566101835E+03  0.56915997186E+03  0.15294330000E+03 0.  0.
<mgrwt>
<rscale>  0 0.37783035E+03</rscale>
<asrwt>0</asrwt>
<pdfrwt beam="1">  1        2 0.48476064E-01 0.37783035E+03</pdfrwt>
<pdfrwt beam="2">  1       -2 0.99087751E-01 0.37783035E+03</pdfrwt>
<totfact> 0.90697007E+01</totfact>
</mgrwt>
</event>
<event>
 4    1  0.6912310E-008  0.3464711E+03  0.7818608E-02  0.1064073E+00
         -2   -1    0    0    0  501 -0.00000000000E+00  0.00000000000E+00  0.78848694568E+03  0.78848694568E+03  0.25500000000E-02 0.  1.
          2   -1    0    0  501    0  0.00000000000E+00 -0.00000000000E+00 -0.17969986398E+03  0.17969986400E+03  0.25500000000E-02 0. -1.
    8880022    1    1    2    0    0 -0.30960368322E+03 -0.28215764905E+02  0.49361687462E+03  0.60307532032E+03  0.15294330000E+03 0.  0.
    8880022    1    1    2    0    0  0.30960368322E+03  0.28215764905E+02  0.11517020708E+03  0.36511148936E+03  0.15294330000E+03 0.  0.
<mgrwt>
<rscale>  0 0.34647110E+03</rscale>
<asrwt>0</asrwt>
<pdfrwt beam="1">  1        2 0.27646132E-01 0.34647110E+03</pdfrwt>
<pdfrwt beam="2">  1       -2 0.12130569E+00 0.34647110E+03</pdfrwt>
<totfact> 0.10396012E+02</totfact>
</mgrwt>
</event>
<event>
 4    1  0.6912310E-008  0.4813544E+03  0.7818608E-02  0.1018764E+00
          2   -1    0    0  501    0  0.00000000000E+00  0.00000000000E+00  0.24034181190E+03  0.24034181192E+03  0.25500000000E-02 0. -1.
         -2   -1    0    0    0  501 -0.00000000000E+00 -0.00000000000E+00 -0.24632488894E+04  0.24632488894E+04  0.25500000000E-02 0.  1.
    8880022    1    1    2    0    0  0.43902273439E+03  0.12477765899E+03 -0.21660494718E+04  0.22188899010E+04  0.15294330000E+03 0.  0.
    8880022    1    1    2    0    0 -0.43902273439E+03 -0.12477765899E+03 -0.56857605708E+02  0.48470080032E+03  0.15294330000E+03 0. -1.
<mgrwt>
<rscale>  0 0.48135442E+03</rscale>
<asrwt>0</asrwt>
<pdfrwt beam="1">  1        2 0.36975665E-01 0.48135442E+03</pdfrwt>
<pdfrwt beam="2">  1       -2 0.37896135E+00 0.48135442E+03</pdfrwt>
<totfact> 0.15965327E+00</totfact>
</mgrwt>
</event>
<event>
 4    1  0.6912310E-008  0.4176678E+03  0.7818608E-02  0.1037828E+00
         -2   -1    0    0    0  501 -0.00000000000E+00  0.00000000000E+00  0.10655814955E+03  0.10655814958E+03  0.25500000000E-02 0.  1.
          2   -1    0    0  501    0  0.00000000000E+00 -0.00000000000E+00 -0.39914113911E+04  0.39914113911E+04  0.25500000000E-02 0. -1.
    8880022    1    1    2    0    0  0.17654095944E+02 -0.38825642704E+03 -0.35160739649E+04  0.35407940493E+04  0.15294330000E+03 0. -1.
    8880022    1    1    2    0    0 -0.17654095944E+02  0.38825642704E+03 -0.36877927666E+03  0.55717549134E+03  0.15294330000E+03 0.  0.
<mgrwt>
<rscale>  0 0.41766778E+03</rscale>
<asrwt>0</asrwt>
<pdfrwt beam="1">  1        2 0.61406318E+00 0.41766778E+03</pdfrwt>
<pdfrwt beam="2">  1       -2 0.16393565E-01 0.41766778E+03</pdfrwt>
<totfact> 0.12596653E+01</totfact>
</mgrwt>
</event>
<event>
 4    1  0.6912310E-008  0.4164364E+03  0.7818608E-02  0.1038232E+00
         -2   -1    0    0    0  501 -0.00000000000E+00  0.00000000000E+00  0.31106693785E+03  0.31106693786E+03  0.25500000000E-02 0.  1.
          2   -1    0    0  501    0  0.00000000000E+00 -0.00000000000E+00 -0.10693721573E+04  0.10693721573E+04  0.25500000000E-02 0. -1.
    8880022    1    1    2    0    0  0.15775619047E+02 -0.38701262131E+03 -0.85668659933E+03  0.95253935441E+03  0.15294330000E+03 0.  0.
    8880022    1    1    2    0    0 -0.15775619047E+02  0.38701262131E+03  0.98381379891E+02  0.42789974075E+03  0.15294330000E+03 0. -1.
<mgrwt>
<rscale>  0 0.41643642E+03</rscale>
<asrwt>0</asrwt>
<pdfrwt beam="1">  1        2 0.16451879E+00 0.41643642E+03</pdfrwt>
<pdfrwt beam="2">  1       -2 0.47856453E-01 0.41643642E+03</pdfrwt>
<totfact> 0.98782264E+01</totfact>
</mgrwt>
</event>
<event>
 4    1  0.6912310E-008  0.4583016E+03  0.7818608E-02  0.1025275E+00
          2   -1    0    0  501    0  0.00000000000E+00  0.00000000000E+00  0.18347847237E+04  0.18347847237E+04  0.25500000000E-02 0. -1.
         -2   -1    0    0    0  501 -0.00000000000E+00 -0.00000000000E+00 -0.11531977366E+03  0.11531977369E+03  0.25500000000E-02 0.  1.
    8880022    1    1    2    0    0 -0.38696472220E+03  0.19211198620E+03  0.77636979166E+03  0.90154889934E+03  0.15294330000E+03 0.  0.
    8880022    1    1    2    0    0  0.38696472220E+03 -0.19211198620E+03  0.94309515841E+03  0.10485555981E+04  0.15294330000E+03 0.  0.
<mgrwt>
<rscale>  0 0.45830161E+03</rscale>
<asrwt>0</asrwt>
<pdfrwt beam="1">  1        2 0.28227455E+00 0.45830161E+03</pdfrwt>
<pdfrwt beam="2">  1       -2 0.17741505E-01 0.45830161E+03</pdfrwt>
<totfact> 0.22819229E+02</totfact>
</mgrwt>
</event>
<event>
 4    1  0.6912310E-008  0.6046296E+03  0.7818608E-02  0.9895847E-01
          2   -1    0    0  501    0  0.00000000000E+00  0.00000000000E+00  0.17772409224E+04  0.17772409224E+04  0.25500000000E-02 0. -1.
         -2   -1    0    0    0  501 -0.00000000000E+00 -0.00000000000E+00 -0.45790263042E+03  0.45790263042E+03  0.25500000000E-02 0.  1.
    8880022    1    1    2    0    0 -0.52975656178E+03  0.24807917380E+03 -0.16973154987E+03  0.62800138794E+03  0.15294330000E+03 0.  0.
    8880022    1    1    2    0    0  0.52975656178E+03 -0.24807917380E+03  0.14890698419E+04  0.16071421649E+04  0.15294330000E+03 0.  0.
<mgrwt>
<rscale>  0 0.60462959E+03</rscale>
<asrwt>0</asrwt>
<pdfrwt beam="1">  1        2 0.27342168E+00 0.60462959E+03</pdfrwt>
<pdfrwt beam="2">  1       -2 0.70446558E-01 0.60462959E+03</pdfrwt>
<totfact> 0.17138700E+01</totfact>
</mgrwt>
</event>
<event>
 4    1  0.6912310E-008  0.4268798E+03  0.7818608E-02  0.1034850E+00
         -2   -1    0    0    0  501 -0.00000000000E+00  0.00000000000E+00  0.14560281625E+03  0.14560281628E+03  0.25500000000E-02 0.  1.
          2   -1    0    0  501    0  0.00000000000E+00 -0.00000000000E+00 -0.14903648770E+04  0.14903648770E+04  0.25500000000E-02 0. -1.
    8880022    1    1    2    0    0  0.23279435506E+03 -0.32348340952E+03 -0.99983235047E+03  0.10871481546E+04  0.15294330000E+03 0. -1.
    8880022    1    1    2    0    0 -0.23279435506E+03  0.32348340952E+03 -0.34492971024E+03  0.54881953864E+03  0.15294330000E+03 0.  0.
<mgrwt>
<rscale>  0 0.42687982E+03</rscale>
<asrwt>0</asrwt>
<pdfrwt beam="1">  1        2 0.22928689E+00 0.42687982E+03</pdfrwt>
<pdfrwt beam="2">  1       -2 0.22400434E-01 0.42687982E+03</pdfrwt>
<totfact> 0.23458200E+02</totfact>
</mgrwt>
</event>
<event>
 4    1  0.6912310E-008  0.4819565E+03  0.7818608E-02  0.1018599E+00
          2   -1    0    0  501    0  0.00000000000E+00  0.00000000000E+00  0.55537946402E+03  0.55537946402E+03  0.25500000000E-02 0. -1.
         -2   -1    0    0    0  501 -0.00000000000E+00 -0.00000000000E+00 -0.23361295730E+04  0.23361295730E+04  0.25500000000E-02 0.  1.
    8880022    1    1    2    0    0  0.35376445560E+03  0.28938052903E+03  0.41958444290E+03  0.63900949788E+03  0.15294330000E+03 0.  0.
    8880022    1    1    2    0    0 -0.35376445560E+03 -0.28938052903E+03 -0.22003345519E+04  0.22524995392E+04  0.15294330000E+03 0.  0.
<mgrwt>
<rscale>  0 0.48195646E+03</rscale>
<asrwt>0</asrwt>
<pdfrwt beam="1">  1        2 0.85442996E-01 0.48195646E+03</pdfrwt>
<pdfrwt beam="2">  1       -2 0.35940454E+00 0.48195646E+03</pdfrwt>
<totfact> 0.83054723E-01</totfact>
</mgrwt>
</event>
<event>
 4    1  0.6912310E-008  0.4565742E+03  0.7818608E-02  0.1025780E+00
         -2   -1    0    0    0  501 -0.00000000000E+00  0.00000000000E+00  0.81872626780E+03  0.81872626781E+03  0.25500000000E-02 0.  1.
          2   -1    0    0  501    0  0.00000000000E+00 -0.00000000000E+00 -0.29893658118E+03  0.29893658119E+03  0.25500000000E-02 0. -1.
    8880022    1    1    2    0    0 -0.38911760323E+03 -0.18345524486E+03  0.44716327024E+02  0.45875869358E+03  0.15294330000E+03 0.  0.
    8880022    1    1    2    0    0  0.38911760323E+03  0.18345524486E+03  0.47507335960E+03  0.65890415542E+03  0.15294330000E+03 0.  0.
<mgrwt>
<rscale>  0 0.45657419E+03</rscale>
<asrwt>0</asrwt>
<pdfrwt beam="1">  1        2 0.45990243E-01 0.45657419E+03</pdfrwt>
<pdfrwt beam="2">  1       -2 0.12595789E+00 0.45657419E+03</pdfrwt>
<totfact> 0.53501282E+01</totfact>
</mgrwt>
</event>
<event>
 4    1  0.6912310E-008  0.1538676E+03  0.7818608E-02  0.1195799E+00
          2   -1    0    0  501    0  0.00000000000E+00  0.00000000000E+00  0.27327384314E+04  0.27327384314E+04  0.25500000000E-02 0. -1.
         -2   -1    0    0    0  501 -0.00000000000E+00 -0.00000000000E+00 -0.35463754210E+03  0.35463754211E+03  0.25500000000E-02 0.  1.
    8880022    1    1    2    0    0  0.25253423722E+01  0.16649458205E+02 -0.33566532589E+03  0.36925119611E+03  0.15294330000E+03 0.  0.
    8880022    1    1    2    0    0 -0.25253423722E+01 -0.16649458205E+02  0.27137662152E+04  0.27181247774E+04  0.15294330000E+03 0. -1.
<mgrwt>
<rscale>  0 0.15386759E+03</rscale>
<asrwt>0</asrwt>
<pdfrwt beam="1">  1        2 0.42042129E+00 0.15386759E+03</pdfrwt>
<pdfrwt beam="2">  1       -2 0.54559622E-01 0.15386759E+03</pdfrwt>
<totfact> 0.10546796E+01</totfact>
</mgrwt>
</event>
<event>
 4    1  0.6912310E-008  0.2599211E+03  0.7818608E-02  0.1107191E+00
          2   -1    0    0  501    0  0.00000000000E+00  0.00000000000E+00  0.12733912413E+04  0.12733912413E+04  0.25500000000E-02 0. -1.
         -2   -1    0    0    0  501 -0.00000000000E+00 -0.00000000000E+00 -0.16056120068E+03  0.16056120070E+03  0.25500000000E-02 0.  1.
    8880022    1    1    2    0    0 -0.13708125626E+03 -0.15929863951E+03  0.11430966123E+04  0.11722750725E+04  0.15294330000E+03 0.  0.
    8880022    1    1    2    0    0  0.13708125626E+03  0.15929863951E+03 -0.30266571687E+02  0.26167736957E+03  0.15294330000E+03 0.  1.
<mgrwt>
<rscale>  0 0.25992110E+03</rscale>
<asrwt>0</asrwt>
<pdfrwt beam="1">  1        2 0.19590635E+00 0.25992110E+03</pdfrwt>
<pdfrwt beam="2">  1       -2 0.24701723E-01 0.25992110E+03</pdfrwt>
<totfact> 0.26632824E+02</totfact>
</mgrwt>
</event>
<event>
 4    1  0.6912310E-008  0.9481413E+03  0.7818608E-02  0.9367326E-01
         -2   -1    0    0    0  501 -0.00000000000E+00  0.00000000000E+00  0.25394583271E+04  0.25394583271E+04  0.25500000000E-02 0.  1.
          2   -1    0    0  501    0  0.00000000000E+00 -0.00000000000E+00 -0.54010855592E+03  0.54010855592E+03  0.25500000000E-02 0. -1.
    8880022    1    1    2    0    0 -0.50467248766E+03 -0.78796311422E+03  0.19035337771E+04  0.21265965021E+04  0.15294330000E+03 0.  0.
    8880022    1    1    2    0    0  0.50467248766E+03  0.78796311422E+03  0.95815994085E+02  0.95297038092E+03  0.15294330000E+03 0.  0.
<mgrwt>
<rscale>  0 0.94814126E+03</rscale>
<asrwt>0</asrwt>
<pdfrwt beam="1">  1        2 0.83093624E-01 0.94814126E+03</pdfrwt>
<pdfrwt beam="2">  1       -2 0.39068590E+00 0.94814126E+03</pdfrwt>
<totfact> 0.49310791E-01</totfact>
</mgrwt>
</event>
<event>
 4    1  0.6912310E-008  0.7223937E+03  0.7818608E-02  0.9679684E-01
         -2   -1    0    0    0  501 -0.00000000000E+00  0.00000000000E+00  0.60253113920E+03  0.60253113920E+03  0.25500000000E-02 0.  1.
          2   -1    0    0  501    0  0.00000000000E+00 -0.00000000000E+00 -0.28018530012E+04  0.28018530012E+04  0.25500000000E-02 0. -1.
    8880022    1    1    2    0    0  0.67333057518E+03 -0.21233669343E+03 -0.25145122105E+04  0.26162232788E+04  0.15294330000E+03 0.  0.
    8880022    1    1    2    0    0 -0.67333057518E+03  0.21233669343E+03  0.31519034853E+03  0.78816086155E+03  0.15294330000E+03 0.  0.
<mgrwt>
<rscale>  0 0.72239365E+03</rscale>
<asrwt>0</asrwt>
<pdfrwt beam="1">  1        2 0.43105430E+00 0.72239365E+03</pdfrwt>
<pdfrwt beam="2">  1       -2 0.92697100E-01 0.72239365E+03</pdfrwt>
<totfact> 0.24271945E+00</totfact>
</mgrwt>
</event>
<event>
 4    1  0.6912310E-008  0.5046188E+03  0.7818608E-02  0.1012580E+00
         -2   -1    0    0    0  501 -0.00000000000E+00  0.00000000000E+00  0.22862457961E+03  0.22862457963E+03  0.25500000000E-02 0.  1.
          2   -1    0    0  501    0  0.00000000000E+00 -0.00000000000E+00 -0.14268434063E+04  0.14268434063E+04  0.25500000000E-02 0. -1.
    8880022    1    1    2    0    0  0.13659956344E+03 -0.46107383786E+03 -0.21139618749E+03  0.54710924485E+03  0.15294330000E+03 0.  0.
    8880022    1    1    2    0    0 -0.13659956344E+03  0.46107383786E+03 -0.98682263923E+03  0.11083587411E+04  0.15294330000E+03 0.  0.
<mgrwt>
<rscale>  0 0.50461884E+03</rscale>
<asrwt>0</asrwt>
<pdfrwt beam="1">  1        2 0.21951436E+00 0.50461884E+03</pdfrwt>
<pdfrwt beam="2">  1       -2 0.35173013E-01 0.50461884E+03</pdfrwt>
<totfact> 0.11059550E+02</totfact>
</mgrwt>
</event>
<event>
 4    1  0.6912310E-008  0.5305724E+03  0.7818608E-02  0.1006093E+00
          2   -1    0    0  501    0  0.00000000000E+00  0.00000000000E+00  0.21579079609E+04  0.21579079609E+04  0.25500000000E-02 0. -1.
         -2   -1    0    0    0  501 -0.00000000000E+00 -0.00000000000E+00 -0.52924503505E+03  0.52924503506E+03  0.25500000000E-02 0.  1.
    8880022    1    1    2    0    0 -0.41317018447E+03  0.29564479897E+03  0.19806222713E+04  0.20504564572E+04  0.15294330000E+03 0.  0.
    8880022    1    1    2    0    0  0.41317018447E+03 -0.29564479897E+03 -0.35195934548E+03  0.63669653869E+03  0.15294330000E+03 0.  0.
<mgrwt>
<rscale>  0 0.53057243E+03</rscale>
<asrwt>0</asrwt>
<pdfrwt beam="1">  1        2 0.33198584E+00 0.53057243E+03</pdfrwt>
<pdfrwt beam="2">  1       -2 0.81422313E-01 0.53057243E+03</pdfrwt>
<totfact> 0.78578570E+00</totfact>
</mgrwt>
</event>
<event>
 4    1  0.6912310E-008  0.3239785E+03  0.7818608E-02  0.1073833E+00
         -2   -1    0    0    0  501 -0.00000000000E+00  0.00000000000E+00  0.13016994815E+04  0.13016994815E+04  0.25500000000E-02 0.  1.
          2   -1    0    0  501    0  0.00000000000E+00 -0.00000000000E+00 -0.88613870382E+03  0.88613870382E+03  0.25500000000E-02 0. -1.
    8880022    1    1    2    0    0 -0.20457964904E+03  0.19929267272E+03  0.12507417524E+04  0.12920205054E+04  0.15294330000E+03 0.  1.
    8880022    1    1    2    0    0  0.20457964904E+03 -0.19929267272E+03 -0.83518097469E+03  0.89581767994E+03  0.15294330000E+03 0.  0.
<mgrwt>
<rscale>  0 0.32397848E+03</rscale>
<asrwt>0</asrwt>
<pdfrwt beam="1">  1        2 0.13632903E+00 0.32397848E+03</pdfrwt>
<pdfrwt beam="2">  1       -2 0.20026146E+00 0.32397848E+03</pdfrwt>
<totfact> 0.44413899E+00</totfact>
</mgrwt>
</event>
<event>
 4    1  0.6912310E-008  0.4345860E+03  0.7818608E-02  0.1032421E+00
         -2   -1    0    0    0  501 -0.00000000000E+00  0.00000000000E+00  0.42974172348E+03  0.42974172348E+03  0.25500000000E-02 0.  1.
          2   -1    0    0  501    0  0.00000000000E+00 -0.00000000000E+00 -0.17145700345E+04  0.17145700345E+04  0.25500000000E-02 0. -1.
    8880022    1    1    2    0    0  0.32731149590E+03 -0.24153791087E+03 -0.15670056525E+04  0.16261524362E+04  0.15294330000E+03 0.  0.
    8880022    1    1    2    0    0 -0.32731149590E+03  0.24153791087E+03  0.28217734146E+03  0.51815932182E+03  0.15294330000E+03 0.  0.
<mgrwt>
<rscale>  0 0.43458605E+03</rscale>
<asrwt>0</asrwt>
<pdfrwt beam="1">  1        2 0.26378000E+00 0.43458605E+03</pdfrwt>
<pdfrwt beam="2">  1       -2 0.66114112E-01 0.43458605E+03</pdfrwt>
<totfact> 0.21961021E+01</totfact>
</mgrwt>
</event>
<event>
 4    1  0.6912310E-008  0.2723585E+03  0.7818608E-02  0.1099937E+00
         -2   -1    0    0    0  501 -0.00000000000E+00  0.00000000000E+00  0.12836779837E+03  0.12836779840E+03  0.25500000000E-02 0.  1.
          2   -1    0    0  501    0  0.00000000000E+00 -0.00000000000E+00 -0.16330745327E+04  0.16330745327E+04  0.25500000000E-02 0. -1.
    8880022    1    1    2    0    0 -0.13658468991E+03  0.17925433875E+03 -0.44399499692E+02  0.27595373537E+03  0.15294330000E+03 0.  0.
    8880022    1    1    2    0    0  0.13658468991E+03 -0.17925433875E+03 -0.14603072346E+04  0.14854885957E+04  0.15294330000E+03 0. -1.
<mgrwt>
<rscale>  0 0.27235849E+03</rscale>
<asrwt>0</asrwt>
<pdfrwt beam="1">  1        2 0.25124222E+00 0.27235849E+03</pdfrwt>
<pdfrwt beam="2">  1       -2 0.19748893E-01 0.27235849E+03</pdfrwt>
<totfact> 0.25062334E+02</totfact>
</mgrwt>
</event>
<event>
 4    1  0.6912310E-008  0.6161969E+03  0.7818608E-02  0.9872361E-01
         -2   -1    0    0    0  501 -0.00000000000E+00  0.00000000000E+00  0.72059887984E+03  0.72059887985E+03  0.25500000000E-02 0.  1.
          2   -1    0    0  501    0  0.00000000000E+00 -0.00000000000E+00 -0.16020446426E+04  0.16020446426E+04  0.25500000000E-02 0. -1.
    8880022    1    1    2    0    0 -0.45728515372E+03 -0.38366286396E+03  0.51063626558E+03  0.80027992211E+03  0.15294330000E+03 0.  0.
    8880022    1    1    2    0    0  0.45728515372E+03  0.38366286396E+03 -0.13920820283E+04  0.15223636003E+04  0.15294330000E+03 0.  0.
<mgrwt>
<rscale>  0 0.61619685E+03</rscale>
<asrwt>0</asrwt>
<pdfrwt beam="1">  1        2 0.24646841E+00 0.61619685E+03</pdfrwt>
<pdfrwt beam="2">  1       -2 0.11086137E+00 0.61619685E+03</pdfrwt>
<totfact> 0.75239804E+00</totfact>
</mgrwt>
</event>
<event>
 4    1  0.6912310E-008  0.1674299E+03  0.7818608E-02  0.1180555E+00
         -2   -1    0    0    0  501 -0.00000000000E+00  0.00000000000E+00  0.71812444361E+02  0.71812444406E+02  0.25500000000E-02 0.  1.
          2   -1    0    0  501    0  0.00000000000E+00 -0.00000000000E+00 -0.76380707835E+03  0.76380707835E+03  0.25500000000E-02 0. -1.
    8880022    1    1    2    0    0  0.40883425323E+02 -0.54494580412E+02 -0.53850753450E+02  0.17587686153E+03  0.15294330000E+03 0.  1.
    8880022    1    1    2    0    0 -0.40883425323E+02  0.54494580412E+02 -0.63814388054E+03  0.65974266123E+03  0.15294330000E+03 0.  0.
<mgrwt>
<rscale>  0 0.16742989E+03</rscale>
<asrwt>0</asrwt>
<pdfrwt beam="1">  1        2 0.11750878E+00 0.16742989E+03</pdfrwt>
<pdfrwt beam="2">  1       -2 0.11048069E-01 0.16742989E+03</pdfrwt>
<totfact> 0.21082112E+03</totfact>
</mgrwt>
</event>
<event>
 4    1  0.6912310E-008  0.5779575E+03  0.7818608E-02  0.9952223E-01
          2   -1    0    0  501    0  0.00000000000E+00  0.00000000000E+00  0.85500640519E+03  0.85500640519E+03  0.25500000000E-02 0. -1.
         -2   -1    0    0    0  501 -0.00000000000E+00 -0.00000000000E+00 -0.87752810175E+03  0.87752810176E+03  0.25500000000E-02 0.  1.
    8880022    1    1    2    0    0 -0.51743917291E+03 -0.20712283298E+03 -0.65649544180E+03  0.87465483691E+03  0.15294330000E+03 0.  0.
    8880022    1    1    2    0    0  0.51743917291E+03  0.20712283298E+03  0.63397374524E+03  0.85787967004E+03  0.15294330000E+03 0.  0.
<mgrwt>
<rscale>  0 0.57795745E+03</rscale>
<asrwt>0</asrwt>
<pdfrwt beam="1">  1        2 0.13153945E+00 0.57795745E+03</pdfrwt>
<pdfrwt beam="2">  1       -2 0.13500432E+00 0.57795745E+03</pdfrwt>
<totfact> 0.12889935E+01</totfact>
</mgrwt>
</event>
<event>
 4    1  0.6912310E-008  0.1248009E+04  0.7818608E-02  0.9071842E-01
          2   -1    0    0  501    0  0.00000000000E+00  0.00000000000E+00  0.16610840656E+04  0.16610840656E+04  0.25500000000E-02 0. -1.
         -2   -1    0    0    0  501 -0.00000000000E+00 -0.00000000000E+00 -0.12839027346E+04  0.12839027346E+04  0.25500000000E-02 0.  1.
    8880022    1    1    2    0    0 -0.11664071433E+03  0.12330972574E+04 -0.57608997426E+03  0.13745563698E+04  0.15294330000E+03 0. -1.
    8880022    1    1    2    0    0  0.11664071433E+03 -0.12330972574E+04  0.95327130527E+03  0.15704304304E+04  0.15294330000E+03 0.  0.
<mgrwt>
<rscale>  0 0.12480086E+04</rscale>
<asrwt>0</asrwt>
<pdfrwt beam="1">  1        2 0.25555139E+00 0.12480086E+04</pdfrwt>
<pdfrwt beam="2">  1       -2 0.19752350E+00 0.12480086E+04</pdfrwt>
<totfact> 0.13736701E+00</totfact>
</mgrwt>
</event>
<event>
 4    1  0.6912310E-008  0.4402633E+03  0.7818608E-02  0.1030666E+00
          2   -1    0    0  501    0  0.00000000000E+00  0.00000000000E+00  0.24450868146E+04  0.24450868146E+04  0.25500000000E-02 0. -1.
         -2   -1    0    0    0  501 -0.00000000000E+00 -0.00000000000E+00 -0.25215384865E+03  0.25215384866E+03  0.25500000000E-02 0.  1.
    8880022    1    1    2    0    0 -0.28991230789E+03  0.29392342691E+03  0.22131474280E+04  0.22565135316E+04  0.15294330000E+03 0. -1.
    8880022    1    1    2    0    0  0.28991230789E+03 -0.29392342691E+03 -0.20214461997E+02  0.44072713173E+03  0.15294330000E+03 0.  0.
<mgrwt>
<rscale>  0 0.44026331E+03</rscale>
<asrwt>0</asrwt>
<pdfrwt beam="1">  1        2 0.37616720E+00 0.44026331E+03</pdfrwt>
<pdfrwt beam="2">  1       -2 0.38792900E-01 0.44026331E+03</pdfrwt>
<totfact> 0.26037667E+01</totfact>
</mgrwt>
</event>
<event>
 4    1  0.6912310E-008  0.2600974E+03  0.7818608E-02  0.1107085E+00
          2   -1    0    0  501    0  0.00000000000E+00  0.00000000000E+00  0.73196262230E+03  0.73196262231E+03  0.25500000000E-02 0. -1.
         -2   -1    0    0    0  501 -0.00000000000E+00 -0.00000000000E+00 -0.28587775958E+03  0.28587775959E+03  0.25500000000E-02 0.  1.
    8880022    1    1    2    0    0 -0.21028671320E+03 -0.62043856812E+01 -0.19560505585E+03  0.32544121902E+03  0.15294330000E+03 0.  1.
    8880022    1    1    2    0    0  0.21028671320E+03  0.62043856812E+01  0.64168991857E+03  0.69239916288E+03  0.15294330000E+03 0.  0.
<mgrwt>
<rscale>  0 0.26009738E+03</rscale>
<asrwt>0</asrwt>
<pdfrwt beam="1">  1        2 0.11260963E+00 0.26009738E+03</pdfrwt>
<pdfrwt beam="2">  1       -2 0.43981195E-01 0.26009738E+03</pdfrwt>
<totfact> 0.19890975E+02</totfact>
</mgrwt>
</event>
<event>
 4    1  0.6912310E-008  0.3173770E+03  0.7818608E-02  0.1076863E+00
         -2   -1    0    0    0  501 -0.00000000000E+00  0.00000000000E+00  0.12830257993E+03  0.12830257996E+03  0.25500000000E-02 0.  1.
          2   -1    0    0  501    0  0.00000000000E+00 -0.00000000000E+00 -0.14788306382E+04  0.14788306382E+04  0.25500000000E-02 0. -1.
    8880022    1    1    2    0    0 -0.91453810408E+02 -0.26262661438E+03 -0.12488309578E+03  0.34106301272E+03  0.15294330000E+03 0.  1.
    8880022    1    1    2    0    0  0.91453810408E+02  0.26262661438E+03 -0.12256449625E+04  0.12660702054E+04  0.15294330000E+03 0.  0.
<mgrwt>
<rscale>  0 0.31737705E+03</rscale>
<asrwt>0</asrwt>
<pdfrwt beam="1">  1        2 0.22751239E+00 0.31737705E+03</pdfrwt>
<pdfrwt beam="2">  1       -2 0.19738860E-01 0.31737705E+03</pdfrwt>
<totfact> 0.30099681E+02</totfact>
</mgrwt>
</event>
<event>
 4    1  0.6912310E-008  0.2630072E+03  0.7818608E-02  0.1105350E+00
          2   -1    0    0  501    0  0.00000000000E+00  0.00000000000E+00  0.75431217636E+03  0.75431217636E+03  0.25500000000E-02 0. -1.
         -2   -1    0    0    0  501 -0.00000000000E+00 -0.00000000000E+00 -0.75976760558E+03  0.75976760559E+03  0.25500000000E-02 0.  1.
    8880022    1    1    2    0    0  0.19161194651E+03  0.95215523224E+02  0.70715657987E+03  0.75448208420E+03  0.15294330000E+03 0. -1.
    8880022    1    1    2    0    0 -0.19161194651E+03 -0.95215523224E+02 -0.71261200909E+03  0.75959769775E+03  0.15294330000E+03 0.  0.
<mgrwt>
<rscale>  0 0.26300720E+03</rscale>
<asrwt>0</asrwt>
<pdfrwt beam="1">  1        2 0.11604803E+00 0.26300720E+03</pdfrwt>
<pdfrwt beam="2">  1       -2 0.11688733E+00 0.26300720E+03</pdfrwt>
<totfact> 0.23030110E+01</totfact>
</mgrwt>
</event>
<event>
 4    1  0.6912310E-008  0.3063619E+03  0.7818608E-02  0.1082103E+00
         -2   -1    0    0    0  501 -0.00000000000E+00  0.00000000000E+00  0.39950284900E+03  0.39950284900E+03  0.25500000000E-02 0.  1.
          2   -1    0    0  501    0  0.00000000000E+00 -0.00000000000E+00 -0.11473181045E+04  0.11473181045E+04  0.25500000000E-02 0. -1.
    8880022    1    1    2    0    0 -0.22141003635E+02  0.26452928682E+03  0.31578644734E+03  0.43997579589E+03  0.15294330000E+03 0.  0.
    8880022    1    1    2    0    0  0.22141003635E+02 -0.26452928682E+03 -0.10636017029E+04  0.11068451576E+04  0.15294330000E+03 0. -1.
<mgrwt>
<rscale>  0 0.30636191E+03</rscale>
<asrwt>0</asrwt>
<pdfrwt beam="1">  1        2 0.17651048E+00 0.30636191E+03</pdfrwt>
<pdfrwt beam="2">  1       -2 0.61461977E-01 0.30636191E+03</pdfrwt>
<totfact> 0.54254005E+01</totfact>
</mgrwt>
</event>
<event>
 4    1  0.6912310E-008  0.6873974E+03  0.7818608E-02  0.9739030E-01
         -2   -1    0    0    0  501 -0.00000000000E+00  0.00000000000E+00  0.96554110283E+03  0.96554110284E+03  0.25500000000E-02 0.  1.
          2   -1    0    0  501    0  0.00000000000E+00 -0.00000000000E+00 -0.54664128752E+03  0.54664128753E+03  0.25500000000E-02 0. -1.
    8880022    1    1    2    0    0 -0.39612067133E+03  0.54056628434E+03 -0.35264113180E+02  0.68830131826E+03  0.15294330000E+03 0.  0.
    8880022    1    1    2    0    0  0.39612067133E+03 -0.54056628434E+03  0.45416392849E+03  0.82388107211E+03  0.15294330000E+03 0.  0.
<mgrwt>
<rscale>  0 0.68739737E+03</rscale>
<asrwt>0</asrwt>
<pdfrwt beam="1">  1        2 0.84098661E-01 0.68739737E+03</pdfrwt>
<pdfrwt beam="2">  1       -2 0.14854478E+00 0.68739737E+03</pdfrwt>
<totfact> 0.17390947E+01</totfact>
</mgrwt>
</event>
<event>
 4    1  0.6912310E-008  0.6966257E+03  0.7818608E-02  0.9723020E-01
          2   -1    0    0  501    0  0.00000000000E+00  0.00000000000E+00  0.10176631720E+04  0.10176631720E+04  0.25500000000E-02 0. -1.
         -2   -1    0    0    0  501 -0.00000000000E+00 -0.00000000000E+00 -0.76815718556E+03  0.76815718557E+03  0.25500000000E-02 0.  1.
    8880022    1    1    2    0    0 -0.61125441502E+03 -0.29709209832E+03  0.67460725655E+03  0.96973309646E+03  0.15294330000E+03 0.  0.
    8880022    1    1    2    0    0  0.61125441502E+03  0.29709209832E+03 -0.42510127016E+03  0.81608726106E+03  0.15294330000E+03 0.  1.
<mgrwt>
<rscale>  0 0.69662567E+03</rscale>
<asrwt>0</asrwt>
<pdfrwt beam="1">  1        2 0.15656356E+00 0.69662567E+03</pdfrwt>
<pdfrwt beam="2">  1       -2 0.11817803E+00 0.69662567E+03</pdfrwt>
<totfact> 0.13853008E+01</totfact>
</mgrwt>
</event>
<event>
 4    1  0.6912310E-008  0.1461417E+04  0.7818608E-02  0.8910524E-01
          2   -1    0    0  501    0  0.00000000000E+00  0.00000000000E+00  0.89928665989E+03  0.89928665989E+03  0.25500000000E-02 0. -1.
         -2   -1    0    0    0  501 -0.00000000000E+00 -0.00000000000E+00 -0.35616763715E+04  0.35616763715E+04  0.25500000000E-02 0.  1.
    8880022    1    1    2    0    0  0.71314173506E+03  0.12664026874E+04 -0.26187067056E+04  0.29988936900E+04  0.15294330000E+03 0.  0.
    8880022    1    1    2    0    0 -0.71314173506E+03 -0.12664026874E+04 -0.43683006017E+02  0.14620693414E+04  0.15294330000E+03 0.  0.
<mgrwt>
<rscale>  0 0.14614166E+04</rscale>
<asrwt>0</asrwt>
<pdfrwt beam="1">  1        2 0.13835180E+00 0.14614166E+04</pdfrwt>
<pdfrwt beam="2">  1       -2 0.54795020E+00 0.14614166E+04</pdfrwt>
<totfact> 0.23989731E-02</totfact>
</mgrwt>
</event>
<event>
 4    1  0.6912310E-008  0.3275336E+03  0.7818608E-02  0.1072233E+00
         -2   -1    0    0    0  501 -0.00000000000E+00  0.00000000000E+00  0.82827084818E+02  0.82827084857E+02  0.25500000000E-02 0.  1.
          2   -1    0    0  501    0  0.00000000000E+00 -0.00000000000E+00 -0.17780757970E+04  0.17780757970E+04  0.25500000000E-02 0. -1.
    8880022    1    1    2    0    0  0.77702442981E+02 -0.27901422668E+03 -0.13325028529E+04  0.13721669411E+04  0.15294330000E+03 0.  0.
    8880022    1    1    2    0    0 -0.77702442981E+02  0.27901422668E+03 -0.36274585937E+03  0.48873594081E+03  0.15294330000E+03 0.  1.
<mgrwt>
<rscale>  0 0.32753360E+03</rscale>
<asrwt>0</asrwt>
<pdfrwt beam="1">  1        2 0.27355009E+00 0.32753360E+03</pdfrwt>
<pdfrwt beam="2">  1       -2 0.12742630E-01 0.32753360E+03</pdfrwt>
<totfact> 0.43325286E+02</totfact>
</mgrwt>
</event>
<event>
 4    1  0.6912310E-008  0.5267842E+03  0.7818608E-02  0.1007015E+00
         -2   -1    0    0    0  501 -0.00000000000E+00  0.00000000000E+00  0.10854937382E+03  0.10854937385E+03  0.25500000000E-02 0.  1.
          2   -1    0    0  501    0  0.00000000000E+00 -0.00000000000E+00 -0.27713233642E+04  0.27713233642E+04  0.25500000000E-02 0. -1.
    8880022    1    1    2    0    0  0.25224221534E+03  0.43644451440E+03 -0.93044105699E+03  0.10692156765E+04  0.15294330000E+03 0.  0.
    8880022    1    1    2    0    0 -0.25224221534E+03 -0.43644451440E+03 -0.17323329334E+04  0.18106570615E+04  0.15294330000E+03 0.  0.
<mgrwt>
<rscale>  0 0.52678421E+03</rscale>
<asrwt>0</asrwt>
<pdfrwt beam="1">  1        2 0.42635739E+00 0.52678421E+03</pdfrwt>
<pdfrwt beam="2">  1       -2 0.16699906E-01 0.52678421E+03</pdfrwt>
<totfact> 0.76135779E+01</totfact>
</mgrwt>
</event>
<event>
 4    1  0.6912310E-008  0.8757055E+03  0.7818608E-02  0.9456471E-01
         -2   -1    0    0    0  501 -0.00000000000E+00  0.00000000000E+00  0.58449522928E+03  0.58449522929E+03  0.25500000000E-02 0.  1.
          2   -1    0    0  501    0  0.00000000000E+00 -0.00000000000E+00 -0.20148437918E+04  0.20148437918E+04  0.25500000000E-02 0. -1.
    8880022    1    1    2    0    0 -0.19873671422E+03  0.83903053697E+03 -0.14827838133E+04  0.17220650433E+04  0.15294330000E+03 0.  0.
    8880022    1    1    2    0    0  0.19873671422E+03 -0.83903053697E+03  0.52435250735E+02  0.87727397778E+03  0.15294330000E+03 0.  0.
<mgrwt>
<rscale>  0 0.87570553E+03</rscale>
<asrwt>0</asrwt>
<pdfrwt beam="1">  1        2 0.30997597E+00 0.87570553E+03</pdfrwt>
<pdfrwt beam="2">  1       -2 0.89922344E-01 0.87570553E+03</pdfrwt>
<totfact> 0.70611794E+00</totfact>
</mgrwt>
</event>
<event>
 4    1  0.6912310E-008  0.7017223E+03  0.7818608E-02  0.9714291E-01
         -2   -1    0    0    0  501 -0.00000000000E+00  0.00000000000E+00  0.29255204768E+03  0.29255204770E+03  0.25500000000E-02 0.  1.
          2   -1    0    0  501    0  0.00000000000E+00 -0.00000000000E+00 -0.25225078458E+04  0.25225078458E+04  0.25500000000E-02 0. -1.
    8880022    1    1    2    0    0 -0.58212775711E+03 -0.36076271655E+03 -0.19268926188E+04  0.20506899524E+04  0.15294330000E+03 0.  0.
    8880022    1    1    2    0    0  0.58212775711E+03  0.36076271655E+03 -0.30306317929E+03  0.76436994113E+03  0.15294330000E+03 0.  0.
<mgrwt>
<rscale>  0 0.70172225E+03</rscale>
<asrwt>0</asrwt>
<pdfrwt beam="1">  1        2 0.38807811E+00 0.70172225E+03</pdfrwt>
<pdfrwt beam="2">  1       -2 0.45008009E-01 0.70172225E+03</pdfrwt>
<totfact> 0.16691050E+01</totfact>
</mgrwt>
</event>
<event>
 4    1  0.6912310E-008  0.4862879E+03  0.7818608E-02  0.1017421E+00
         -2   -1    0    0    0  501 -0.00000000000E+00  0.00000000000E+00  0.31458069694E+03  0.31458069695E+03  0.25500000000E-02 0.  1.
          2   -1    0    0  501    0  0.00000000000E+00 -0.00000000000E+00 -0.16587963108E+04  0.16587963108E+04  0.25500000000E-02 0. -1.
    8880022    1    1    2    0    0 -0.25451180728E+03  0.38510781792E+03  0.57527683156E+02  0.48967885273E+03  0.15294330000E+03 0.  0.
    8880022    1    1    2    0    0  0.25451180728E+03 -0.38510781792E+03 -0.14017432970E+04  0.14836981550E+04  0.15294330000E+03 0.  0.
<mgrwt>
<rscale>  0 0.48628792E+03</rscale>
<asrwt>0</asrwt>
<pdfrwt beam="1">  1        2 0.25519943E+00 0.48628792E+03</pdfrwt>
<pdfrwt beam="2">  1       -2 0.48397032E-01 0.48628792E+03</pdfrwt>
<totfact> 0.44454396E+01</totfact>
</mgrwt>
</event>
<event>
 4    1  0.6912310E-008  0.5229314E+03  0.7818608E-02  0.1007961E+00
         -2   -1    0    0    0  501 -0.00000000000E+00  0.00000000000E+00  0.35631203930E+03  0.35631203931E+03  0.25500000000E-02 0.  1.
          2   -1    0    0  501    0  0.00000000000E+00 -0.00000000000E+00 -0.13020555100E+04  0.13020555100E+04  0.25500000000E-02 0. -1.
    8880022    1    1    2    0    0 -0.33104761943E+03  0.37479736504E+03  0.58436333479E+02  0.52618632561E+03  0.15294330000E+03 0.  1.
    8880022    1    1    2    0    0  0.33104761943E+03 -0.37479736504E+03 -0.10041798042E+04  0.11321812237E+04  0.15294330000E+03 0. -1.
<mgrwt>
<rscale>  0 0.52293140E+03</rscale>
<asrwt>0</asrwt>
<pdfrwt beam="1">  1        2 0.20031623E+00 0.52293140E+03</pdfrwt>
<pdfrwt beam="2">  1       -2 0.54817237E-01 0.52293140E+03</pdfrwt>
<totfact> 0.53980234E+01</totfact>
</mgrwt>
</event>
<event>
 4    1  0.6912310E-008  0.5016109E+03  0.7818608E-02  0.1013359E+00
          2   -1    0    0  501    0  0.00000000000E+00  0.00000000000E+00  0.30434220620E+04  0.30434220620E+04  0.25500000000E-02 0. -1.
         -2   -1    0    0    0  501 -0.00000000000E+00 -0.00000000000E+00 -0.41079949679E+03  0.41079949680E+03  0.25500000000E-02 0.  1.
    8880022    1    1    2    0    0  0.40291998806E+03  0.25666571581E+03  0.28598761601E+04  0.29035332115E+04  0.15294330000E+03 0.  0.
    8880022    1    1    2    0    0 -0.40291998806E+03 -0.25666571581E+03 -0.22725359485E+03  0.55068834729E+03  0.15294330000E+03 0.  0.
<mgrwt>
<rscale>  0 0.50161086E+03</rscale>
<asrwt>0</asrwt>
<pdfrwt beam="1">  1        2 0.46821881E+00 0.50161086E+03</pdfrwt>
<pdfrwt beam="2">  1       -2 0.63199918E-01 0.50161086E+03</pdfrwt>
<totfact> 0.43022470E+00</totfact>
</mgrwt>
</event>
<event>
 4    1  0.6912310E-008  0.7107561E+03  0.7818608E-02  0.9699013E-01
          2   -1    0    0  501    0  0.00000000000E+00  0.00000000000E+00  0.10210808334E+04  0.10210808334E+04  0.25500000000E-02 0. -1.
         -2   -1    0    0    0  501 -0.00000000000E+00 -0.00000000000E+00 -0.11552997750E+04  0.11552997750E+04  0.25500000000E-02 0.  1.
    8880022    1    1    2    0    0 -0.66094086593E+03  0.21198990276E+03 -0.88994316335E+03  0.11389350439E+04  0.15294330000E+03 0.  0.
    8880022    1    1    2    0    0  0.66094086593E+03 -0.21198990276E+03  0.75572422175E+03  0.10374455646E+04  0.15294330000E+03 0.  0.
<mgrwt>
<rscale>  0 0.71075608E+03</rscale>
<asrwt>0</asrwt>
<pdfrwt beam="1">  1        2 0.15708936E+00 0.71075608E+03</pdfrwt>
<pdfrwt beam="2">  1       -2 0.17773843E+00 0.71075608E+03</pdfrwt>
<totfact> 0.47149235E+00</totfact>
</mgrwt>
</event>
<event>
 4    1  0.6912310E-008  0.3678284E+03  0.7818608E-02  0.1055526E+00
         -2   -1    0    0    0  501 -0.00000000000E+00  0.00000000000E+00  0.10692275274E+03  0.10692275277E+03  0.25500000000E-02 0.  1.
          2   -1    0    0  501    0  0.00000000000E+00 -0.00000000000E+00 -0.20740833478E+04  0.20740833478E+04  0.25500000000E-02 0. -1.
    8880022    1    1    2    0    0 -0.25875846298E+03  0.21201455645E+03 -0.16645201751E+04  0.17046774419E+04  0.15294330000E+03 0. -1.
    8880022    1    1    2    0    0  0.25875846298E+03 -0.21201455645E+03 -0.30264041987E+03  0.47632865866E+03  0.15294330000E+03 0.  0.
<mgrwt>
<rscale>  0 0.36782845E+03</rscale>
<asrwt>0</asrwt>
<pdfrwt beam="1">  1        2 0.31908972E+00 0.36782845E+03</pdfrwt>
<pdfrwt beam="2">  1       -2 0.16449656E-01 0.36782845E+03</pdfrwt>
<totfact> 0.19605322E+02</totfact>
</mgrwt>
</event>
<event>
 4    1  0.6912310E-008  0.5557560E+03  0.7818608E-02  0.1000170E+00
          2   -1    0    0  501    0  0.00000000000E+00  0.00000000000E+00  0.20641030586E+04  0.20641030586E+04  0.25500000000E-02 0. -1.
         -2   -1    0    0    0  501 -0.00000000000E+00 -0.00000000000E+00 -0.38208994266E+03  0.38208994267E+03  0.25500000000E-02 0.  1.
    8880022    1    1    2    0    0 -0.23855008638E+03 -0.47808677923E+03  0.17950015374E+04  0.18790676636E+04  0.15294330000E+03 0.  0.
    8880022    1    1    2    0    0  0.23855008638E+03  0.47808677923E+03 -0.11298842147E+03  0.56712533764E+03  0.15294330000E+03 0.  1.
<mgrwt>
<rscale>  0 0.55575603E+03</rscale>
<asrwt>0</asrwt>
<pdfrwt beam="1">  1        2 0.31755432E+00 0.55575603E+03</pdfrwt>
<pdfrwt beam="2">  1       -2 0.58783068E-01 0.55575603E+03</pdfrwt>
<totfact> 0.17807747E+01</totfact>
</mgrwt>
</event>
<event>
 4    1  0.6912310E-008  0.2003280E+03  0.7818608E-02  0.1149463E+00
         -2   -1    0    0    0  501 -0.00000000000E+00  0.00000000000E+00  0.15691535707E+04  0.15691535707E+04  0.25500000000E-02 0.  1.
          2   -1    0    0  501    0  0.00000000000E+00 -0.00000000000E+00 -0.16077924523E+04  0.16077924523E+04  0.25500000000E-02 0. -1.
    8880022    1    1    2    0    0 -0.11198558762E+03 -0.64798648997E+02  0.15564690226E+04  0.15693078436E+04  0.15294330000E+03 0.  1.
    8880022    1    1    2    0    0  0.11198558762E+03  0.64798648997E+02 -0.15951079042E+04  0.16076381794E+04  0.15294330000E+03 0.  0.
<mgrwt>
<rscale>  0 0.20032796E+03</rscale>
<asrwt>0</asrwt>
<pdfrwt beam="1">  1        2 0.24735268E+00 0.20032796E+03</pdfrwt>
<pdfrwt beam="2">  1       -2 0.24140824E+00 0.20032796E+03</pdfrwt>
<totfact> 0.10314117E+00</totfact>
</mgrwt>
</event>
<event>
 4    1  0.6912310E-008  0.1829164E+03  0.7818608E-02  0.1165010E+00
         -2   -1    0    0    0  501 -0.00000000000E+00  0.00000000000E+00  0.51969228955E+03  0.51969228956E+03  0.25500000000E-02 0.  1.
          2   -1    0    0  501    0  0.00000000000E+00 -0.00000000000E+00 -0.57741549148E+03  0.57741549148E+03  0.25500000000E-02 0. -1.
    8880022    1    1    2    0    0 -0.37138681186E+01  0.10026452802E+03 -0.54593033108E+03  0.57575893203E+03  0.15294330000E+03 0. -1.
    8880022    1    1    2    0    0  0.37138681186E+01 -0.10026452802E+03  0.48820712915E+03  0.52134884901E+03  0.15294330000E+03 0.  0.
<mgrwt>
<rscale>  0 0.18291643E+03</rscale>
<asrwt>0</asrwt>
<pdfrwt beam="1">  1        2 0.88833152E-01 0.18291643E+03</pdfrwt>
<pdfrwt beam="2">  1       -2 0.79952660E-01 0.18291643E+03</pdfrwt>
<totfact> 0.77497154E+01</totfact>
</mgrwt>
</event>
<event>
 4    1  0.6912310E-008  0.9921366E+03  0.7818608E-02  0.9317212E-01
          2   -1    0    0  501    0  0.00000000000E+00  0.00000000000E+00  0.12457916415E+04  0.12457916415E+04  0.25500000000E-02 0. -1.
         -2   -1    0    0    0  501 -0.00000000000E+00 -0.00000000000E+00 -0.87930121875E+03  0.87930121875E+03  0.25500000000E-02 0.  1.
    8880022    1    1    2    0    0  0.54277225752E+03 -0.81629752721E+03  0.52161841679E+03  0.11209017808E+04  0.15294330000E+03 0.  0.
    8880022    1    1    2    0    0 -0.54277225752E+03  0.81629752721E+03 -0.15512799406E+03  0.10041910794E+04  0.15294330000E+03 0.  0.
<mgrwt>
<rscale>  0 0.99213660E+03</rscale>
<asrwt>0</asrwt>
<pdfrwt beam="1">  1        2 0.19166025E+00 0.99213660E+03</pdfrwt>
<pdfrwt beam="2">  1       -2 0.13527711E+00 0.99213660E+03</pdfrwt>
<totfact> 0.69308723E+00</totfact>
</mgrwt>
</event>
<event>
 4    1  0.6912310E-008  0.8520919E+03  0.7818608E-02  0.9487534E-01
         -2   -1    0    0    0  501 -0.00000000000E+00  0.00000000000E+00  0.19151767999E+04  0.19151767999E+04  0.25500000000E-02 0.  1.
          2   -1    0    0  501    0  0.00000000000E+00 -0.00000000000E+00 -0.45144072623E+03  0.45144072624E+03  0.25500000000E-02 0. -1.
    8880022    1    1    2    0    0  0.47932797149E+03  0.68768721868E+03  0.25821287545E+03  0.89035642136E+03  0.15294330000E+03 0. -1.
    8880022    1    1    2    0    0 -0.47932797149E+03 -0.68768721868E+03  0.12055231982E+04  0.14762611047E+04  0.15294330000E+03 0.  0.
<mgrwt>
<rscale>  0 0.85209194E+03</rscale>
<asrwt>0</asrwt>
<pdfrwt beam="1">  1        2 0.69452419E-01 0.85209194E+03</pdfrwt>
<pdfrwt beam="2">  1       -2 0.29464259E+00 0.85209194E+03</pdfrwt>
<totfact> 0.24343512E+00</totfact>
</mgrwt>
</event>
<event>
 4    1  0.6912310E-008  0.3434718E+03  0.7818608E-02  0.1065327E+00
         -2   -1    0    0    0  501 -0.00000000000E+00  0.00000000000E+00  0.56048879586E+03  0.56048879586E+03  0.25500000000E-02 0.  1.
          2   -1    0    0  501    0  0.00000000000E+00 -0.00000000000E+00 -0.22776256995E+04  0.22776256995E+04  0.25500000000E-02 0. -1.
    8880022    1    1    2    0    0 -0.12698155841E+03  0.28010165895E+03  0.49332994521E+03  0.60112173757E+03  0.15294330000E+03 0.  1.
    8880022    1    1    2    0    0  0.12698155841E+03 -0.28010165895E+03 -0.22104668488E+04  0.22369927577E+04  0.15294330000E+03 0.  0.
<mgrwt>
<rscale>  0 0.34347185E+03</rscale>
<asrwt>0</asrwt>
<pdfrwt beam="1">  1        2 0.35040395E+00 0.34347185E+03</pdfrwt>
<pdfrwt beam="2">  1       -2 0.86229047E-01 0.34347185E+03</pdfrwt>
<totfact> 0.62896694E+00</totfact>
</mgrwt>
</event>
<event>
 4    1  0.6912310E-008  0.6408804E+03  0.7818608E-02  0.9824044E-01
          2   -1    0    0  501    0  0.00000000000E+00  0.00000000000E+00  0.77172436251E+03  0.77172436251E+03  0.25500000000E-02 0. -1.
         -2   -1    0    0    0  501 -0.00000000000E+00 -0.00000000000E+00 -0.10863076032E+04  0.10863076032E+04  0.25500000000E-02 0.  1.
    8880022    1    1    2    0    0 -0.13717549474E+03  0.60705755598E+03 -0.82078368982E+03  0.10413517711E+04  0.15294330000E+03 0.  0.
    8880022    1    1    2    0    0  0.13717549474E+03 -0.60705755598E+03  0.50620044912E+03  0.81668019465E+03  0.15294330000E+03 0.  0.
<mgrwt>
<rscale>  0 0.64088037E+03</rscale>
<asrwt>0</asrwt>
<pdfrwt beam="1">  1        2 0.11872682E+00 0.64088037E+03</pdfrwt>
<pdfrwt beam="2">  1       -2 0.16712425E+00 0.64088037E+03</pdfrwt>
<totfact> 0.83287539E+00</totfact>
</mgrwt>
</event>
<event>
 4    1  0.6912310E-008  0.3872794E+03  0.7818608E-02  0.1048276E+00
          2   -1    0    0  501    0  0.00000000000E+00  0.00000000000E+00  0.36160132228E+04  0.36160132228E+04  0.25500000000E-02 0. -1.
         -2   -1    0    0    0  501 -0.00000000000E+00 -0.00000000000E+00 -0.72364288000E+02  0.72364288045E+02  0.25500000000E-02 0.  1.
    8880022    1    1    2    0    0 -0.21538445220E+03 -0.28320174590E+03  0.56699548668E+03  0.68663616717E+03  0.15294330000E+03 0.  0.
    8880022    1    1    2    0    0  0.21538445220E+03  0.28320174590E+03  0.29766534481E+04  0.30017413437E+04  0.15294330000E+03 0.  0.
<mgrwt>
<rscale>  0 0.38727941E+03</rscale>
<asrwt>0</asrwt>
<pdfrwt beam="1">  1        2 0.55630972E+00 0.38727941E+03</pdfrwt>
<pdfrwt beam="2">  1       -2 0.11132967E-01 0.38727941E+03</pdfrwt>
<totfact> 0.45393636E+01</totfact>
</mgrwt>
</event>
<event>
 4    1  0.6912310E-008  0.6299644E+03  0.7818608E-02  0.9845118E-01
          2   -1    0    0  501    0  0.00000000000E+00  0.00000000000E+00  0.23129869573E+04  0.23129869573E+04  0.25500000000E-02 0. -1.
         -2   -1    0    0    0  501 -0.00000000000E+00 -0.00000000000E+00 -0.19038007706E+03  0.19038007707E+03  0.25500000000E-02 0.  1.
    8880022    1    1    2    0    0  0.14714615581E+03  0.59313695259E+03  0.66793490589E+03  0.91814602717E+03  0.15294330000E+03 0.  1.
    8880022    1    1    2    0    0 -0.14714615581E+03 -0.59313695259E+03  0.14546719744E+04  0.15852210072E+04  0.15294330000E+03 0.  0.
<mgrwt>
<rscale>  0 0.62996436E+03</rscale>
<asrwt>0</asrwt>
<pdfrwt beam="1">  1        2 0.35584414E+00 0.62996436E+03</pdfrwt>
<pdfrwt beam="2">  1       -2 0.29289243E-01 0.62996436E+03</pdfrwt>
<totfact> 0.50358512E+01</totfact>
</mgrwt>
</event>
<event>
 4    1  0.6912310E-008  0.8297034E+03  0.7818608E-02  0.9517991E-01
          2   -1    0    0  501    0  0.00000000000E+00  0.00000000000E+00  0.22761885575E+04  0.22761885575E+04  0.25500000000E-02 0. -1.
         -2   -1    0    0    0  501 -0.00000000000E+00 -0.00000000000E+00 -0.35480965720E+03  0.35480965721E+03  0.25500000000E-02 0.  1.
    8880022    1    1    2    0    0 -0.80526825071E+03  0.12868245209E+03  0.45528670226E+03  0.94641099072E+03  0.15294330000E+03 0.  0.
    8880022    1    1    2    0    0  0.80526825071E+03 -0.12868245209E+03  0.14660921981E+04  0.16845872240E+04  0.15294330000E+03 0.  0.
<mgrwt>
<rscale>  0 0.82970343E+03</rscale>
<asrwt>0</asrwt>
<pdfrwt beam="1">  1        2 0.35018287E+00 0.82970343E+03</pdfrwt>
<pdfrwt beam="2">  1       -2 0.54586100E-01 0.82970343E+03</pdfrwt>
<totfact> 0.15205217E+01</totfact>
</mgrwt>
</event>
<event>
 4    1  0.6912310E-008  0.6553751E+03  0.7818608E-02  0.9796745E-01
         -2   -1    0    0    0  501 -0.00000000000E+00  0.00000000000E+00  0.24944983557E+03  0.24944983559E+03  0.25500000000E-02 0.  1.
          2   -1    0    0  501    0  0.00000000000E+00 -0.00000000000E+00 -0.17905072164E+04  0.17905072164E+04  0.25500000000E-02 0. -1.
    8880022    1    1    2    0    0 -0.14929756955E+03 -0.61954424229E+03 -0.97025247177E+03  0.11708570982E+04  0.15294330000E+03 0.  0.
    8880022    1    1    2    0    0  0.14929756955E+03  0.61954424229E+03 -0.57080490902E+03  0.86909995375E+03  0.15294330000E+03 0.  0.
<mgrwt>
<rscale>  0 0.65537507E+03</rscale>
<asrwt>0</asrwt>
<pdfrwt beam="1">  1        2 0.27546264E+00 0.65537507E+03</pdfrwt>
<pdfrwt beam="2">  1       -2 0.38376899E-01 0.65537507E+03</pdfrwt>
<totfact> 0.58086115E+01</totfact>
</mgrwt>
</event>
<event>
 4    1  0.1450292E-007  0.7063725E+03  0.7818608E-02  0.9706396E-01
          2   -1    0    0  501    0  0.00000000000E+00  0.00000000000E+00  0.20566330017E+04  0.20566330017E+04  0.25500000000E-02 0. -1.
         -2   -1    0    0    0  501 -0.00000000000E+00 -0.00000000000E+00 -0.18029648426E+04  0.18029648426E+04  0.25500000000E-02 0.  1.
    8880022    1    1    2    0    0 -0.59248609312E+03  0.35288897488E+03 -0.16684366909E+04  0.18118065691E+04  0.15294330000E+03 0.  0.
    8880022    1    1    2    0    0  0.59248609312E+03 -0.35288897488E+03  0.19221048500E+04  0.20477912752E+04  0.15294330000E+03 0.  0.
<mgrwt>
<rscale>  0 0.70637246E+03</rscale>
<asrwt>0</asrwt>
<pdfrwt beam="1">  1        2 0.31640508E+00 0.70637246E+03</pdfrwt>
<pdfrwt beam="2">  1       -2 0.27737921E+00 0.70637246E+03</pdfrwt>
<totfact> 0.29151154E-01</totfact>
</mgrwt>
</event>
<event>
 4    1  0.6912310E-008  0.1805120E+04  0.7818608E-02  0.8703582E-01
          2   -1    0    0  501    0  0.00000000000E+00  0.00000000000E+00  0.18362803246E+04  0.18362803246E+04  0.25500000000E-02 0. -1.
         -2   -1    0    0    0  501 -0.00000000000E+00 -0.00000000000E+00 -0.20111691245E+04  0.20111691245E+04  0.25500000000E-02 0.  1.
    8880022    1    1    2    0    0  0.17984888455E+04  0.22451018090E+02  0.57248918125E+03  0.18937269316E+04  0.15294330000E+03 0.  0.
    8880022    1    1    2    0    0 -0.17984888455E+04 -0.22451018090E+02 -0.74737798120E+03  0.19537225175E+04  0.15294330000E+03 0.  0.
<mgrwt>
<rscale>  0 0.18051199E+04</rscale>
<asrwt>0</asrwt>
<pdfrwt beam="1">  1        2 0.28250467E+00 0.18051199E+04</pdfrwt>
<pdfrwt beam="2">  1       -2 0.30941063E+00 0.18051199E+04</pdfrwt>
<totfact> 0.20829770E-01</totfact>
</mgrwt>
</event>
<event>
 4    1  0.6912310E-008  0.5135220E+03  0.7818608E-02  0.1010309E+00
          2   -1    0    0  501    0  0.00000000000E+00  0.00000000000E+00  0.83985200702E+03  0.83985200702E+03  0.25500000000E-02 0. -1.
         -2   -1    0    0    0  501 -0.00000000000E+00 -0.00000000000E+00 -0.45951377134E+03  0.45951377134E+03  0.25500000000E-02 0.  1.
    8880022    1    1    2    0    0  0.36652832346E+03  0.32553065791E+03  0.55578040202E+03  0.75670121542E+03  0.15294330000E+03 0.  0.
    8880022    1    1    2    0    0 -0.36652832346E+03 -0.32553065791E+03 -0.17544216633E+03  0.54266456295E+03  0.15294330000E+03 0.  0.
<mgrwt>
<rscale>  0 0.51352203E+03</rscale>
<asrwt>0</asrwt>
<pdfrwt beam="1">  1        2 0.12920800E+00 0.51352203E+03</pdfrwt>
<pdfrwt beam="2">  1       -2 0.70694427E-01 0.51352203E+03</pdfrwt>
<totfact> 0.60816346E+01</totfact>
</mgrwt>
</event>
<event>
 4    1  0.6912310E-008  0.8849515E+03  0.7818608E-02  0.9444591E-01
          2   -1    0    0  501    0  0.00000000000E+00  0.00000000000E+00  0.28281466322E+04  0.28281466322E+04  0.25500000000E-02 0. -1.
         -2   -1    0    0    0  501 -0.00000000000E+00 -0.00000000000E+00 -0.34502481381E+03  0.34502481382E+03  0.25500000000E-02 0.  1.
    8880022    1    1    2    0    0 -0.69390543358E+03 -0.52748727648E+03  0.19465175079E+04  0.21382398460E+04  0.15294330000E+03 0.  0.
    8880022    1    1    2    0    0  0.69390543358E+03  0.52748727648E+03  0.53660431051E+03  0.10349316000E+04  0.15294330000E+03 0.  0.
<mgrwt>
<rscale>  0 0.88495154E+03</rscale>
<asrwt>0</asrwt>
<pdfrwt beam="1">  1        2 0.43509947E+00 0.88495154E+03</pdfrwt>
<pdfrwt beam="2">  1       -2 0.53080742E-01 0.88495154E+03</pdfrwt>
<totfact> 0.77056969E+00</totfact>
</mgrwt>
</event>
<event>
 4    1  0.6912310E-008  0.5133293E+03  0.7818608E-02  0.1010357E+00
          2   -1    0    0  501    0  0.00000000000E+00  0.00000000000E+00  0.10241964456E+04  0.10241964456E+04  0.25500000000E-02 0. -1.
         -2   -1    0    0    0  501 -0.00000000000E+00 -0.00000000000E+00 -0.39247988281E+03  0.39247988282E+03  0.25500000000E-02 0.  1.
    8880022    1    1    2    0    0 -0.41320738285E+03 -0.26339135417E+03 -0.99877469338E+02  0.52295555125E+03  0.15294330000E+03 0.  0.
    8880022    1    1    2    0    0  0.41320738285E+03  0.26339135417E+03  0.73159403209E+03  0.89372077714E+03  0.15294330000E+03 0.  0.
<mgrwt>
<rscale>  0 0.51332933E+03</rscale>
<asrwt>0</asrwt>
<pdfrwt beam="1">  1        2 0.15756868E+00 0.51332933E+03</pdfrwt>
<pdfrwt beam="2">  1       -2 0.60381520E-01 0.51332933E+03</pdfrwt>
<totfact> 0.64565774E+01</totfact>
</mgrwt>
</event>
<event>
 4    1  0.6912310E-008  0.5630785E+03  0.7818608E-02  0.9985113E-01
          2   -1    0    0  501    0  0.00000000000E+00  0.00000000000E+00  0.42421408964E+03  0.42421408965E+03  0.25500000000E-02 0. -1.
         -2   -1    0    0    0  501 -0.00000000000E+00 -0.00000000000E+00 -0.15189981633E+04  0.15189981633E+04  0.25500000000E-02 0.  1.
    8880022    1    1    2    0    0  0.22149468131E+03  0.49457642681E+03 -0.12398722364E+04  0.13617417345E+04  0.15294330000E+03 0.  0.
    8880022    1    1    2    0    0 -0.22149468131E+03 -0.49457642681E+03  0.14508816279E+03  0.58147051843E+03  0.15294330000E+03 0.  0.
<mgrwt>
<rscale>  0 0.56307849E+03</rscale>
<asrwt>0</asrwt>
<pdfrwt beam="1">  1        2 0.65263707E-01 0.56307849E+03</pdfrwt>
<pdfrwt beam="2">  1       -2 0.23369202E+00 0.56307849E+03</pdfrwt>
<totfact> 0.63432149E+00</totfact>
</mgrwt>
</event>
<event>
 4    1  0.6912310E-008  0.3923690E+03  0.7818608E-02  0.1046455E+00
         -2   -1    0    0    0  501 -0.00000000000E+00  0.00000000000E+00  0.45358011946E+03  0.45358011947E+03  0.25500000000E-02 0.  1.
          2   -1    0    0  501    0  0.00000000000E+00 -0.00000000000E+00 -0.18641862169E+04  0.18641862169E+04  0.25500000000E-02 0. -1.
    8880022    1    1    2    0    0 -0.21909184772E+03 -0.28733344187E+03  0.34278285521E+03  0.52101198009E+03  0.15294330000E+03 0.  0.
    8880022    1    1    2    0    0  0.21909184772E+03  0.28733344187E+03 -0.17533889526E+04  0.17967543563E+04  0.15294330000E+03 0. -1.
<mgrwt>
<rscale>  0 0.39236896E+03</rscale>
<asrwt>0</asrwt>
<pdfrwt beam="1">  1        2 0.28679788E+00 0.39236896E+03</pdfrwt>
<pdfrwt beam="2">  1       -2 0.69781558E-01 0.39236896E+03</pdfrwt>
<totfact> 0.16438422E+01</totfact>
</mgrwt>
</event>
<event>
 4    1  0.6912310E-008  0.7292788E+03  0.7818608E-02  0.9668431E-01
         -2   -1    0    0    0  501 -0.00000000000E+00  0.00000000000E+00  0.56279800919E+03  0.56279800919E+03  0.25500000000E-02 0.  1.
          2   -1    0    0  501    0  0.00000000000E+00 -0.00000000000E+00 -0.10019041448E+04  0.10019041448E+04  0.25500000000E-02 0. -1.
    8880022    1    1    2    0    0  0.39851202966E+03  0.59130713440E+03 -0.40599209170E+03  0.83467190950E+03  0.15294330000E+03 0.  0.
    8880022    1    1    2    0    0 -0.39851202966E+03 -0.59130713440E+03 -0.33114043914E+02  0.73003024450E+03  0.15294330000E+03 0.  0.
<mgrwt>
<rscale>  0 0.72927883E+03</rscale>
<asrwt>0</asrwt>
<pdfrwt beam="1">  1        2 0.15413910E+00 0.72927883E+03</pdfrwt>
<pdfrwt beam="2">  1       -2 0.86584309E-01 0.72927883E+03</pdfrwt>
<totfact> 0.29543573E+01</totfact>
</mgrwt>
</event>
<event>
 4    1  0.6912310E-008  0.1090755E+04  0.7818608E-02  0.9214250E-01
         -2   -1    0    0    0  501 -0.00000000000E+00  0.00000000000E+00  0.73538252620E+03  0.73538252620E+03  0.25500000000E-02 0.  1.
          2   -1    0    0  501    0  0.00000000000E+00 -0.00000000000E+00 -0.23722739236E+04  0.23722739236E+04  0.25500000000E-02 0. -1.
    8880022    1    1    2    0    0  0.10753227927E+04 -0.10018002514E+03 -0.16946898117E+04  0.20153710221E+04  0.15294330000E+03 0.  0.
    8880022    1    1    2    0    0 -0.10753227927E+04  0.10018002514E+03  0.57798414286E+02  0.10922854277E+04  0.15294330000E+03 0.  0.
<mgrwt>
<rscale>  0 0.10907552E+04</rscale>
<asrwt>0</asrwt>
<pdfrwt beam="1">  1        2 0.36496521E+00 0.10907552E+04</pdfrwt>
<pdfrwt beam="2">  1       -2 0.11313577E+00 0.10907552E+04</pdfrwt>
<totfact> 0.25131558E+00</totfact>
</mgrwt>
</event>
<event>
 4    1  0.6912310E-008  0.3380279E+03  0.7818608E-02  0.1067639E+00
          2   -1    0    0  501    0  0.00000000000E+00  0.00000000000E+00  0.25849578988E+04  0.25849578988E+04  0.25500000000E-02 0. -1.
         -2   -1    0    0    0  501 -0.00000000000E+00 -0.00000000000E+00 -0.62750683760E+02  0.62750683812E+02  0.25500000000E-02 0.  1.
    8880022    1    1    2    0    0  0.15627011846E+03  0.25778064991E+03  0.19808440768E+04  0.20094790676E+04  0.15294330000E+03 0.  0.
    8880022    1    1    2    0    0 -0.15627011846E+03 -0.25778064991E+03  0.54136313814E+03  0.63822951495E+03  0.15294330000E+03 0.  1.
<mgrwt>
<rscale>  0 0.33802791E+03</rscale>
<asrwt>0</asrwt>
<pdfrwt beam="1">  1        2 0.39768577E+00 0.33802791E+03</pdfrwt>
<pdfrwt beam="2">  1       -2 0.96539528E-02 0.33802791E+03</pdfrwt>
<totfact> 0.24918547E+02</totfact>
</mgrwt>
</event>
<event>
 4    1  0.6912310E-008  0.3294893E+03  0.7818608E-02  0.1071363E+00
         -2   -1    0    0    0  501 -0.00000000000E+00  0.00000000000E+00  0.10588789211E+03  0.10588789214E+03  0.25500000000E-02 0.  1.
          2   -1    0    0  501    0  0.00000000000E+00 -0.00000000000E+00 -0.30525494555E+04  0.30525494555E+04  0.25500000000E-02 0. -1.
    8880022    1    1    2    0    0 -0.17557389685E+03 -0.23312083769E+03 -0.18636132578E+03  0.37854156309E+03  0.15294330000E+03 0.  0.
    8880022    1    1    2    0    0  0.17557389685E+03  0.23312083769E+03 -0.27603002376E+04  0.27798957845E+04  0.15294330000E+03 0.  0.
<mgrwt>
<rscale>  0 0.32948926E+03</rscale>
<asrwt>0</asrwt>
<pdfrwt beam="1">  1        2 0.46962293E+00 0.32948926E+03</pdfrwt>
<pdfrwt beam="2">  1       -2 0.16290447E-01 0.32948926E+03</pdfrwt>
<totfact> 0.56864462E+01</totfact>
</mgrwt>
</event>
<event>
 4    1  0.6912310E-008  0.3019514E+03  0.7818608E-02  0.1084269E+00
          2   -1    0    0  501    0  0.00000000000E+00  0.00000000000E+00  0.14896328283E+04  0.14896328283E+04  0.25500000000E-02 0. -1.
         -2   -1    0    0    0  501 -0.00000000000E+00 -0.00000000000E+00 -0.63073203547E+03  0.63073203547E+03  0.25500000000E-02 0.  1.
    8880022    1    1    2    0    0  0.19599116570E+03  0.17137814621E+03  0.14368804450E+04  0.14682643060E+04  0.15294330000E+03 0. -1.
    8880022    1    1    2    0    0 -0.19599116570E+03 -0.17137814621E+03 -0.57797965220E+03  0.65210055774E+03  0.15294330000E+03 0.  0.
<mgrwt>
<rscale>  0 0.30195142E+03</rscale>
<asrwt>0</asrwt>
<pdfrwt beam="1">  1        2 0.22917428E+00 0.30195142E+03</pdfrwt>
<pdfrwt beam="2">  1       -2 0.97035699E-01 0.30195142E+03</pdfrwt>
<totfact> 0.12811020E+01</totfact>
</mgrwt>
</event>
<event>
 4    1  0.6912310E-008  0.5876641E+03  0.7818608E-02  0.9931335E-01
          2   -1    0    0  501    0  0.00000000000E+00  0.00000000000E+00  0.34706913679E+04  0.34706913679E+04  0.25500000000E-02 0. -1.
         -2   -1    0    0    0  501 -0.00000000000E+00 -0.00000000000E+00 -0.27027251577E+03  0.27027251578E+03  0.25500000000E-02 0.  1.
    8880022    1    1    2    0    0 -0.54122304261E+03  0.17039667581E+03  0.11339772269E+03  0.59850489180E+03  0.15294330000E+03 0.  0.
    8880022    1    1    2    0    0  0.54122304261E+03 -0.17039667581E+03  0.30870211294E+04  0.31424589919E+04  0.15294330000E+03 0.  0.
<mgrwt>
<rscale>  0 0.58766407E+03</rscale>
<asrwt>0</asrwt>
<pdfrwt beam="1">  1        2 0.53395251E+00 0.58766407E+03</pdfrwt>
<pdfrwt beam="2">  1       -2 0.41580387E-01 0.58766407E+03</pdfrwt>
<totfact> 0.52511120E+00</totfact>
</mgrwt>
</event>
<event>
 4    1  0.6912310E-008  0.1272868E+04  0.7818608E-02  0.9051362E-01
          2   -1    0    0  501    0  0.00000000000E+00  0.00000000000E+00  0.33156511173E+04  0.33156511173E+04  0.25500000000E-02 0. -1.
         -2   -1    0    0    0  501 -0.00000000000E+00 -0.00000000000E+00 -0.87681912574E+03  0.87681912575E+03  0.25500000000E-02 0.  1.
    8880022    1    1    2    0    0  0.12486865238E+04 -0.19386423954E+03 -0.17533108684E+03  0.12848867737E+04  0.15294330000E+03 0.  0.
    8880022    1    1    2    0    0 -0.12486865238E+04  0.19386423954E+03  0.26141630784E+04  0.29075834694E+04  0.15294330000E+03 0.  0.
<mgrwt>
<rscale>  0 0.12728680E+04</rscale>
<asrwt>0</asrwt>
<pdfrwt beam="1">  1        2 0.51010016E+00 0.12728680E+04</pdfrwt>
<pdfrwt beam="2">  1       -2 0.13489525E+00 0.12728680E+04</pdfrwt>
<totfact> 0.42189551E-01</totfact>
</mgrwt>
</event>
<event>
 4    1  0.6912310E-008  0.5097935E+03  0.7818608E-02  0.1011254E+00
         -2   -1    0    0    0  501 -0.00000000000E+00  0.00000000000E+00  0.31121769609E+03  0.31121769610E+03  0.25500000000E-02 0.  1.
          2   -1    0    0  501    0  0.00000000000E+00 -0.00000000000E+00 -0.26558767561E+04  0.26558767561E+04  0.25500000000E-02 0. -1.
    8880022    1    1    2    0    0 -0.48603163530E+03  0.16462618070E+02 -0.24006990043E+04  0.24542300484E+04  0.15294330000E+03 0.  0.
    8880022    1    1    2    0    0  0.48603163530E+03 -0.16462618070E+02  0.56039944269E+02  0.51286440379E+03  0.15294330000E+03 0.  1.
<mgrwt>
<rscale>  0 0.50979351E+03</rscale>
<asrwt>0</asrwt>
<pdfrwt beam="1">  1        2 0.40859641E+00 0.50979351E+03</pdfrwt>
<pdfrwt beam="2">  1       -2 0.47879647E-01 0.50979351E+03</pdfrwt>
<totfact> 0.12879495E+01</totfact>
</mgrwt>
</event>
<event>
 4    1  0.6912310E-008  0.6617111E+03  0.7818608E-02  0.9785049E-01
          2   -1    0    0  501    0  0.00000000000E+00  0.00000000000E+00  0.13812981657E+04  0.13812981657E+04  0.25500000000E-02 0. -1.
         -2   -1    0    0    0  501 -0.00000000000E+00 -0.00000000000E+00 -0.11333682088E+04  0.11333682088E+04  0.25500000000E-02 0.  1.
    8880022    1    1    2    0    0 -0.54282665285E+03 -0.34613458369E+03  0.11910765316E+04  0.13625435340E+04  0.15294330000E+03 0.  0.
    8880022    1    1    2    0    0  0.54282665285E+03  0.34613458369E+03 -0.94314657469E+03  0.11521228404E+04  0.15294330000E+03 0.  0.
<mgrwt>
<rscale>  0 0.66171110E+03</rscale>
<asrwt>0</asrwt>
<pdfrwt beam="1">  1        2 0.21250741E+00 0.66171110E+03</pdfrwt>
<pdfrwt beam="2">  1       -2 0.17436434E+00 0.66171110E+03</pdfrwt>
<totfact> 0.30689343E+00</totfact>
</mgrwt>
</event>
<event>
 4    1  0.6912310E-008  0.5636562E+03  0.7818608E-02  0.9983816E-01
          2   -1    0    0  501    0  0.00000000000E+00  0.00000000000E+00  0.85931021436E+03  0.85931021437E+03  0.25500000000E-02 0. -1.
         -2   -1    0    0    0  501 -0.00000000000E+00 -0.00000000000E+00 -0.88815214057E+03  0.88815214058E+03  0.25500000000E-02 0.  1.
    8880022    1    1    2    0    0 -0.50086047182E+03  0.20845963495E+03 -0.68196220781E+03  0.88474896865E+03  0.15294330000E+03 0.  0.
    8880022    1    1    2    0    0  0.50086047182E+03 -0.20845963495E+03  0.65312028160E+03  0.86271338629E+03  0.15294330000E+03 0.  0.
<mgrwt>
<rscale>  0 0.56365618E+03</rscale>
<asrwt>0</asrwt>
<pdfrwt beam="1">  1        2 0.13220157E+00 0.56365618E+03</pdfrwt>
<pdfrwt beam="2">  1       -2 0.13663879E+00 0.56365618E+03</pdfrwt>
<totfact> 0.12442662E+01</totfact>
</mgrwt>
</event>
<event>
 4    1  0.6912310E-008  0.9948501E+03  0.7818608E-02  0.9314211E-01
          2   -1    0    0  501    0  0.00000000000E+00  0.00000000000E+00  0.34631159804E+04  0.34631159804E+04  0.25500000000E-02 0. -1.
         -2   -1    0    0    0  501 -0.00000000000E+00 -0.00000000000E+00 -0.48021634162E+03  0.48021634163E+03  0.25500000000E-02 0.  1.
    8880022    1    1    2    0    0 -0.49439162373E+03  0.84965405621E+03  0.23688947704E+03  0.10226648377E+04  0.15294330000E+03 0.  0.
    8880022    1    1    2    0    0  0.49439162373E+03 -0.84965405621E+03  0.27460101618E+04  0.29206674844E+04  0.15294330000E+03 0.  0.
<mgrwt>
<rscale>  0 0.99485011E+03</rscale>
<asrwt>0</asrwt>
<pdfrwt beam="1">  1        2 0.53278710E+00 0.99485011E+03</pdfrwt>
<pdfrwt beam="2">  1       -2 0.73879433E-01 0.99485011E+03</pdfrwt>
<totfact> 0.14746506E+00</totfact>
</mgrwt>
</event>
<event>
 4    1  0.6912310E-008  0.5231156E+03  0.7818608E-02  0.1007916E+00
         -2   -1    0    0    0  501 -0.00000000000E+00  0.00000000000E+00  0.14332759393E+04  0.14332759393E+04  0.25500000000E-02 0.  1.
          2   -1    0    0  501    0  0.00000000000E+00 -0.00000000000E+00 -0.64801637029E+03  0.64801637030E+03  0.25500000000E-02 0. -1.
    8880022    1    1    2    0    0  0.45859333302E+03 -0.19987597668E+03 -0.48136943398E+03  0.71089129699E+03  0.15294330000E+03 0.  0.
    8880022    1    1    2    0    0 -0.45859333302E+03  0.19987597668E+03  0.12666290030E+04  0.13704010126E+04  0.15294330000E+03 0.  0.
<mgrwt>
<rscale>  0 0.52311557E+03</rscale>
<asrwt>0</asrwt>
<pdfrwt beam="1">  1        2 0.99694827E-01 0.52311557E+03</pdfrwt>
<pdfrwt beam="2">  1       -2 0.22050399E+00 0.52311557E+03</pdfrwt>
<totfact> 0.47008949E+00</totfact>
</mgrwt>
</event>
<event>
 4    1  0.6912310E-008  0.1558299E+03  0.7818608E-02  0.1193487E+00
         -2   -1    0    0    0  501 -0.00000000000E+00  0.00000000000E+00  0.41705947351E+04  0.41705947351E+04  0.25500000000E-02 0.  1.
          2   -1    0    0  501    0  0.00000000000E+00 -0.00000000000E+00 -0.89642476684E+03  0.89642476684E+03  0.25500000000E-02 0. -1.
    8880022    1    1    2    0    0 -0.14187385799E+02  0.26268037164E+02 -0.88818359397E+03  0.90174998824E+03  0.15294330000E+03 0.  0.
    8880022    1    1    2    0    0  0.14187385799E+02 -0.26268037164E+02  0.41623535622E+04  0.41652695137E+04  0.15294330000E+03 0.  1.
<mgrwt>
<rscale>  0 0.15582986E+03</rscale>
<asrwt>0</asrwt>
<pdfrwt beam="1">  1        2 0.13791150E+00 0.15582986E+03</pdfrwt>
<pdfrwt beam="2">  1       -2 0.64162997E+00 0.15582986E+03</pdfrwt>
<totfact> 0.14465093E-02</totfact>
</mgrwt>
</event>
<event>
 4    1  0.6912310E-008  0.1010212E+04  0.7818608E-02  0.9297415E-01
          2   -1    0    0  501    0  0.00000000000E+00  0.00000000000E+00  0.14177035654E+04  0.14177035654E+04  0.25500000000E-02 0. -1.
         -2   -1    0    0    0  501 -0.00000000000E+00 -0.00000000000E+00 -0.10471438299E+04  0.10471438299E+04  0.25500000000E-02 0.  1.
    8880022    1    1    2    0    0 -0.87847367119E+03  0.47478429134E+03  0.87429483495E+03  0.13360086922E+04  0.15294330000E+03 0.  0.
    8880022    1    1    2    0    0  0.87847367119E+03 -0.47478429134E+03 -0.50373509941E+03  0.11288387031E+04  0.15294330000E+03 0.  0.
<mgrwt>
<rscale>  0 0.10102117E+04</rscale>
<asrwt>0</asrwt>
<pdfrwt beam="1">  1        2 0.21810824E+00 0.10102117E+04</pdfrwt>
<pdfrwt beam="2">  1       -2 0.16109905E+00 0.10102117E+04</pdfrwt>
<totfact> 0.34632518E+00</totfact>
</mgrwt>
</event>
<event>
 4    1  0.6912310E-008  0.7470584E+03  0.7818608E-02  0.9639977E-01
         -2   -1    0    0    0  501 -0.00000000000E+00  0.00000000000E+00  0.20201301991E+03  0.20201301992E+03  0.25500000000E-02 0.  1.
          2   -1    0    0  501    0  0.00000000000E+00 -0.00000000000E+00 -0.33213851213E+04  0.33213851213E+04  0.25500000000E-02 0. -1.
    8880022    1    1    2    0    0  0.82423246850E+02 -0.72657489209E+03 -0.22822318480E+04  0.24013909566E+04  0.15294330000E+03 0.  0.
    8880022    1    1    2    0    0 -0.82423246850E+02  0.72657489209E+03 -0.83714025332E+03  0.11220071845E+04  0.15294330000E+03 0. -1.
<mgrwt>
<rscale>  0 0.74705844E+03</rscale>
<asrwt>0</asrwt>
<pdfrwt beam="1">  1        2 0.51098229E+00 0.74705844E+03</pdfrwt>
<pdfrwt beam="2">  1       -2 0.31078928E-01 0.74705844E+03</pdfrwt>
<totfact> 0.11101298E+01</totfact>
</mgrwt>
</event>
<event>
 4    1  0.6912310E-008  0.2651835E+03  0.7818608E-02  0.1104068E+00
         -2   -1    0    0    0  501 -0.00000000000E+00  0.00000000000E+00  0.50589605109E+03  0.50589605110E+03  0.25500000000E-02 0.  1.
          2   -1    0    0  501    0  0.00000000000E+00 -0.00000000000E+00 -0.68648721237E+03  0.68648721237E+03  0.25500000000E-02 0. -1.
    8880022    1    1    2    0    0 -0.14836620576E+03 -0.15785473883E+03 -0.62271572976E+03  0.67682876911E+03  0.15294330000E+03 0.  0.
    8880022    1    1    2    0    0  0.14836620576E+03  0.15785473883E+03  0.44212456849E+03  0.51555449436E+03  0.15294330000E+03 0.  1.
<mgrwt>
<rscale>  0 0.26518353E+03</rscale>
<asrwt>0</asrwt>
<pdfrwt beam="1">  1        2 0.10561342E+00 0.26518353E+03</pdfrwt>
<pdfrwt beam="2">  1       -2 0.77830162E-01 0.26518353E+03</pdfrwt>
<totfact> 0.65966662E+01</totfact>
</mgrwt>
</event>
<event>
 4    1  0.6912310E-008  0.1146026E+04  0.7818608E-02  0.9161458E-01
         -2   -1    0    0    0  501 -0.00000000000E+00  0.00000000000E+00  0.10790487300E+04  0.10790487300E+04  0.25500000000E-02 0.  1.
          2   -1    0    0  501    0  0.00000000000E+00 -0.00000000000E+00 -0.20627858618E+04  0.20627858618E+04  0.25500000000E-02 0. -1.
    8880022    1    1    2    0    0 -0.50510554982E+03 -0.10172764149E+04 -0.14976774482E+04  0.18858452516E+04  0.15294330000E+03 0.  0.
    8880022    1    1    2    0    0  0.50510554982E+03  0.10172764149E+04  0.51394031651E+03  0.12559893402E+04  0.15294330000E+03 0.  0.
<mgrwt>
<rscale>  0 0.11460256E+04</rscale>
<asrwt>0</asrwt>
<pdfrwt beam="1">  1        2 0.31735167E+00 0.11460256E+04</pdfrwt>
<pdfrwt beam="2">  1       -2 0.16600750E+00 0.11460256E+04</pdfrwt>
<totfact> 0.13740058E+00</totfact>
</mgrwt>
</event>
<event>
 4    1  0.6912310E-008  0.4581358E+03  0.7818608E-02  0.1025323E+00
          2   -1    0    0  501    0  0.00000000000E+00  0.00000000000E+00  0.15147572298E+04  0.15147572298E+04  0.25500000000E-02 0. -1.
         -2   -1    0    0    0  501 -0.00000000000E+00 -0.00000000000E+00 -0.74604333220E+03  0.74604333220E+03  0.25500000000E-02 0.  1.
    8880022    1    1    2    0    0 -0.34834101855E+03 -0.25525527002E+03 -0.63568154597E+03  0.78356837544E+03  0.15294330000E+03 0.  0.
    8880022    1    1    2    0    0  0.34834101855E+03  0.25525527002E+03  0.14043954436E+04  0.14772321866E+04  0.15294330000E+03 0.  0.
<mgrwt>
<rscale>  0 0.45813576E+03</rscale>
<asrwt>0</asrwt>
<pdfrwt beam="1">  1        2 0.23303957E+00 0.45813576E+03</pdfrwt>
<pdfrwt beam="2">  1       -2 0.11477590E+00 0.45813576E+03</pdfrwt>
<totfact> 0.79760045E+00</totfact>
</mgrwt>
</event>
<event>
 4    1  0.6912310E-008  0.4042906E+03  0.7818608E-02  0.1042304E+00
         -2   -1    0    0    0  501 -0.00000000000E+00  0.00000000000E+00  0.56832781473E+02  0.56832781530E+02  0.25500000000E-02 0.  1.
          2   -1    0    0  501    0  0.00000000000E+00 -0.00000000000E+00 -0.32605707518E+04  0.32605707518E+04  0.25500000000E-02 0. -1.
    8880022    1    1    2    0    0 -0.37260643058E+03 -0.34981206277E+02 -0.21715234468E+04  0.22088379230E+04  0.15294330000E+03 0.  0.
    8880022    1    1    2    0    0  0.37260643058E+03  0.34981206277E+02 -0.10322145236E+04  0.11085656104E+04  0.15294330000E+03 0.  1.
<mgrwt>
<rscale>  0 0.40429060E+03</rscale>
<asrwt>0</asrwt>
<pdfrwt beam="1">  1        2 0.50162612E+00 0.40429060E+03</pdfrwt>
<pdfrwt beam="2">  1       -2 0.87435074E-02 0.40429060E+03</pdfrwt>
<totfact> 0.11436203E+02</totfact>
</mgrwt>
</event>
<event>
 4    1  0.6912310E-008  0.1265830E+04  0.7818608E-02  0.9057110E-01
          2   -1    0    0  501    0  0.00000000000E+00  0.00000000000E+00  0.31319346068E+04  0.31319346068E+04  0.25500000000E-02 0. -1.
         -2   -1    0    0    0  501 -0.00000000000E+00 -0.00000000000E+00 -0.88931151688E+03  0.88931151688E+03  0.25500000000E-02 0.  1.
    8880022    1    1    2    0    0 -0.40326491551E+03  0.11900890744E+04 -0.18901211315E+03  0.12798639885E+04  0.15294330000E+03 0.  0.
    8880022    1    1    2    0    0  0.40326491551E+03 -0.11900890744E+04  0.24316352031E+04  0.27413821352E+04  0.15294330000E+03 0.  0.
<mgrwt>
<rscale>  0 0.12658303E+04</rscale>
<asrwt>0</asrwt>
<pdfrwt beam="1">  1        2 0.48183610E+00 0.12658303E+04</pdfrwt>
<pdfrwt beam="2">  1       -2 0.13681715E+00 0.12658303E+04</pdfrwt>
<totfact> 0.53583304E-01</totfact>
</mgrwt>
</event>
<event>
 4    1  0.6912310E-008  0.4581918E+03  0.7818608E-02  0.1025307E+00
          2   -1    0    0  501    0  0.00000000000E+00  0.00000000000E+00  0.87689704841E+03  0.87689704842E+03  0.25500000000E-02 0. -1.
         -2   -1    0    0    0  501 -0.00000000000E+00 -0.00000000000E+00 -0.34669228117E+03  0.34669228118E+03  0.25500000000E-02 0.  1.
    8880022    1    1    2    0    0 -0.37780746783E+02 -0.43025652028E+03  0.60542708337E+03  0.75926389639E+03  0.15294330000E+03 0.  0.
    8880022    1    1    2    0    0  0.37780746783E+02  0.43025652028E+03 -0.75222316118E+02  0.46432543321E+03  0.15294330000E+03 0.  0.
<mgrwt>
<rscale>  0 0.45819178E+03</rscale>
<asrwt>0</asrwt>
<pdfrwt beam="1">  1        2 0.13490724E+00 0.45819178E+03</pdfrwt>
<pdfrwt beam="2">  1       -2 0.53337275E-01 0.45819178E+03</pdfrwt>
<totfact> 0.10461241E+02</totfact>
</mgrwt>
</event>
<event>
 4    1  0.6912310E-008  0.4159634E+03  0.7818608E-02  0.1038388E+00
         -2   -1    0    0    0  501 -0.00000000000E+00  0.00000000000E+00  0.31244318496E+03  0.31244318497E+03  0.25500000000E-02 0.  1.
          2   -1    0    0  501    0  0.00000000000E+00 -0.00000000000E+00 -0.61011092754E+03  0.61011092754E+03  0.25500000000E-02 0. -1.
    8880022    1    1    2    0    0  0.30543548789E+03  0.23736695275E+03 -0.28899299020E+03  0.50650025559E+03  0.15294330000E+03 0.  1.
    8880022    1    1    2    0    0 -0.30543548789E+03 -0.23736695275E+03 -0.86747523757E+01  0.41605385692E+03  0.15294330000E+03 0. -1.
<mgrwt>
<rscale>  0 0.41596341E+03</rscale>
<asrwt>0</asrwt>
<pdfrwt beam="1">  1        2 0.93863219E-01 0.41596341E+03</pdfrwt>
<pdfrwt beam="2">  1       -2 0.48068182E-01 0.41596341E+03</pdfrwt>
<totfact> 0.20499340E+02</totfact>
</mgrwt>
</event>
<event>
 4    1  0.6912310E-008  0.2551865E+03  0.7818608E-02  0.1110070E+00
          2   -1    0    0  501    0  0.00000000000E+00  0.00000000000E+00  0.19881924759E+04  0.19881924759E+04  0.25500000000E-02 0. -1.
         -2   -1    0    0    0  501 -0.00000000000E+00 -0.00000000000E+00 -0.80183828984E+02  0.80183829025E+02  0.25500000000E-02 0.  1.
    8880022    1    1    2    0    0  0.19863309253E+03 -0.47680301787E+02  0.17494022317E+04  0.17679163831E+04  0.15294330000E+03 0. -1.
    8880022    1    1    2    0    0 -0.19863309253E+03  0.47680301787E+02  0.15860641526E+03  0.30045992179E+03  0.15294330000E+03 0.  0.
<mgrwt>
<rscale>  0 0.25518654E+03</rscale>
<asrwt>0</asrwt>
<pdfrwt beam="1">  1        2 0.30587575E+00 0.25518654E+03</pdfrwt>
<pdfrwt beam="2">  1       -2 0.12335974E-01 0.25518654E+03</pdfrwt>
<totfact> 0.35848611E+02</totfact>
</mgrwt>
</event>
<event>
 4    1  0.6912310E-008  0.2104493E+03  0.7818608E-02  0.1141211E+00
         -2   -1    0    0    0  501 -0.00000000000E+00  0.00000000000E+00  0.48267849501E+03  0.48267849501E+03  0.25500000000E-02 0.  1.
          2   -1    0    0  501    0  0.00000000000E+00 -0.00000000000E+00 -0.18136829786E+03  0.18136829787E+03  0.25500000000E-02 0. -1.
    8880022    1    1    2    0    0 -0.13550469176E+03  0.50356182690E+02 -0.82728559333E+02  0.22612592547E+03  0.15294330000E+03 0. -1.
    8880022    1    1    2    0    0  0.13550469176E+03 -0.50356182690E+02  0.38403875648E+03  0.43792086742E+03  0.15294330000E+03 0.  0.
<mgrwt>
<rscale>  0 0.21044933E+03</rscale>
<asrwt>0</asrwt>
<pdfrwt beam="1">  1        2 0.27902815E-01 0.21044933E+03</pdfrwt>
<pdfrwt beam="2">  1       -2 0.74258230E-01 0.21044933E+03</pdfrwt>
<totfact> 0.32054564E+02</totfact>
</mgrwt>
</event>
<event>
 4    1  0.6912310E-008  0.1191493E+04  0.7818608E-02  0.9120336E-01
         -2   -1    0    0    0  501 -0.00000000000E+00  0.00000000000E+00  0.13459533253E+04  0.13459533253E+04  0.25500000000E-02 0.  1.
          2   -1    0    0  501    0  0.00000000000E+00 -0.00000000000E+00 -0.22520252675E+04  0.22520252675E+04  0.25500000000E-02 0. -1.
    8880022    1    1    2    0    0  0.84273062824E+03  0.82829213280E+03 -0.17647452404E+04  0.21293144872E+04  0.15294330000E+03 0.  0.
    8880022    1    1    2    0    0 -0.84273062824E+03 -0.82829213280E+03  0.85867329821E+03  0.14686641056E+04  0.15294330000E+03 0.  0.
<mgrwt>
<rscale>  0 0.11914925E+04</rscale>
<asrwt>0</asrwt>
<pdfrwt beam="1">  1        2 0.34646543E+00 0.11914925E+04</pdfrwt>
<pdfrwt beam="2">  1       -2 0.20706974E+00 0.11914925E+04</pdfrwt>
<totfact> 0.56248822E-01</totfact>
</mgrwt>
</event>
<event>
 4    1  0.6912310E-008  0.3908857E+03  0.7818608E-02  0.1046982E+00
          2   -1    0    0  501    0  0.00000000000E+00  0.00000000000E+00  0.13747474045E+04  0.13747474045E+04  0.25500000000E-02 0. -1.
         -2   -1    0    0    0  501 -0.00000000000E+00 -0.00000000000E+00 -0.13587689292E+03  0.13587689295E+03  0.25500000000E-02 0.  1.
    8880022    1    1    2    0    0  0.30058232166E+03  0.19761129281E+03  0.29717087226E+03  0.49102152242E+03  0.15294330000E+03 0.  0.
    8880022    1    1    2    0    0 -0.30058232166E+03 -0.19761129281E+03  0.94169963933E+03  0.10196027750E+04  0.15294330000E+03 0.  0.
<mgrwt>
<rscale>  0 0.39088567E+03</rscale>
<asrwt>0</asrwt>
<pdfrwt beam="1">  1        2 0.21149959E+00 0.39088567E+03</pdfrwt>
<pdfrwt beam="2">  1       -2 0.20904138E-01 0.39088567E+03</pdfrwt>
<totfact> 0.30783415E+02</totfact>
</mgrwt>
</event>
<event>
 4    1  0.6912310E-008  0.6847173E+03  0.7818608E-02  0.9743730E-01
         -2   -1    0    0    0  501 -0.00000000000E+00  0.00000000000E+00  0.56797069871E+03  0.56797069872E+03  0.25500000000E-02 0.  1.
          2   -1    0    0  501    0  0.00000000000E+00 -0.00000000000E+00 -0.12249511767E+04  0.12249511767E+04  0.25500000000E-02 0. -1.
    8880022    1    1    2    0    0 -0.64776710353E+03 -0.16076056204E+03 -0.84043708256E+03  0.10840536525E+04  0.15294330000E+03 0.  0.
    8880022    1    1    2    0    0  0.64776710353E+03  0.16076056204E+03  0.18345660456E+03  0.70886822294E+03  0.15294330000E+03 0.  0.
<mgrwt>
<rscale>  0 0.68471734E+03</rscale>
<asrwt>0</asrwt>
<pdfrwt beam="1">  1        2 0.18845403E+00 0.68471734E+03</pdfrwt>
<pdfrwt beam="2">  1       -2 0.87380108E-01 0.68471734E+03</pdfrwt>
<totfact> 0.21267420E+01</totfact>
</mgrwt>
</event>
<event>
 4    1  0.6912310E-008  0.4505097E+03  0.7818608E-02  0.1027570E+00
         -2   -1    0    0    0  501 -0.00000000000E+00  0.00000000000E+00  0.65150362644E+03  0.65150362645E+03  0.25500000000E-02 0.  1.
          2   -1    0    0  501    0  0.00000000000E+00 -0.00000000000E+00 -0.83707789208E+03  0.83707789208E+03  0.25500000000E-02 0. -1.
    8880022    1    1    2    0    0  0.31198454484E+03 -0.28676298440E+03 -0.68253763267E+03  0.81781210463E+03  0.15294330000E+03 0.  0.
    8880022    1    1    2    0    0 -0.31198454484E+03  0.28676298440E+03  0.49696336703E+03  0.67076941390E+03  0.15294330000E+03 0.  0.
<mgrwt>
<rscale>  0 0.45050973E+03</rscale>
<asrwt>0</asrwt>
<pdfrwt beam="1">  1        2 0.12878121E+00 0.45050973E+03</pdfrwt>
<pdfrwt beam="2">  1       -2 0.10023133E+00 0.45050973E+03</pdfrwt>
<totfact> 0.27984787E+01</totfact>
</mgrwt>
</event>
<event>
 4    1  0.6912310E-008  0.3503481E+03  0.7818608E-02  0.1062472E+00
          2   -1    0    0  501    0  0.00000000000E+00  0.00000000000E+00  0.72341845183E+03  0.72341845184E+03  0.25500000000E-02 0. -1.
         -2   -1    0    0    0  501 -0.00000000000E+00 -0.00000000000E+00 -0.23129662367E+03  0.23129662369E+03  0.25500000000E-02 0.  1.
    8880022    1    1    2    0    0  0.26224068025E+03  0.17487698757E+03 -0.33676143568E+00  0.35034825757E+03  0.15294330000E+03 0.  0.
    8880022    1    1    2    0    0 -0.26224068025E+03 -0.17487698757E+03  0.49245858960E+03  0.60436681795E+03  0.15294330000E+03 0.  0.
<mgrwt>
<rscale>  0 0.35034810E+03</rscale>
<asrwt>0</asrwt>
<pdfrwt beam="1">  1        2 0.11129515E+00 0.35034810E+03</pdfrwt>
<pdfrwt beam="2">  1       -2 0.35584096E-01 0.35034810E+03</pdfrwt>
<totfact> 0.30029383E+02</totfact>
</mgrwt>
</event>
<event>
 4    1  0.7040846E-008  0.6957634E+03  0.7818608E-02  0.9724505E-01
          2   -1    0    0  501    0  0.00000000000E+00  0.00000000000E+00  0.15163872780E+04  0.15163872780E+04  0.25500000000E-02 0. -1.
         -2   -1    0    0    0  501 -0.00000000000E+00 -0.00000000000E+00 -0.12225429469E+04  0.12225429469E+04  0.25500000000E-02 0.  1.
    8880022    1    1    2    0    0  0.67873061033E+03 -0.44535865404E+01 -0.10302402204E+04  0.12431740186E+04  0.15294330000E+03 0.  0.
    8880022    1    1    2    0    0 -0.67873061033E+03  0.44535865404E+01  0.13240845516E+04  0.14957562063E+04  0.15294330000E+03 0.  0.
<mgrwt>
<rscale>  0 0.69576341E+03</rscale>
<asrwt>0</asrwt>
<pdfrwt beam="1">  1        2 0.23329035E+00 0.69576341E+03</pdfrwt>
<pdfrwt beam="2">  1       -2 0.18808353E+00 0.69576341E+03</pdfrwt>
<totfact> 0.20657503E+00</totfact>
</mgrwt>
</event>
<event>
 4    1  0.6912310E-008  0.3365215E+03  0.7818608E-02  0.1068287E+00
          2   -1    0    0  501    0  0.00000000000E+00  0.00000000000E+00  0.13941514452E+04  0.13941514452E+04  0.25500000000E-02 0. -1.
         -2   -1    0    0    0  501 -0.00000000000E+00 -0.00000000000E+00 -0.35133845155E+03  0.35133845155E+03  0.25500000000E-02 0.  1.
    8880022    1    1    2    0    0 -0.11606440415E+03 -0.27637683407E+03  0.12866394893E+04  0.13299202716E+04  0.15294330000E+03 0. -1.
    8880022    1    1    2    0    0  0.11606440415E+03  0.27637683407E+03 -0.24382649569E+03  0.41556962513E+03  0.15294330000E+03 0.  0.
<mgrwt>
<rscale>  0 0.33652155E+03</rscale>
<asrwt>0</asrwt>
<pdfrwt beam="1">  1        2 0.21448483E+00 0.33652155E+03</pdfrwt>
<pdfrwt beam="2">  1       -2 0.54052071E-01 0.33652155E+03</pdfrwt>
<totfact> 0.51003832E+01</totfact>
</mgrwt>
</event>
<event>
 4    1  0.6912310E-008  0.1995607E+03  0.7818608E-02  0.1150110E+00
         -2   -1    0    0    0  501 -0.00000000000E+00  0.00000000000E+00  0.99417365748E+02  0.99417365780E+02  0.25500000000E-02 0.  1.
          2   -1    0    0  501    0  0.00000000000E+00 -0.00000000000E+00 -0.40964765061E+03  0.40964765062E+03  0.25500000000E-02 0. -1.
    8880022    1    1    2    0    0  0.97481349390E+02 -0.83247818443E+02 -0.11724300982E+03  0.23145277946E+03  0.15294330000E+03 0.  0.
    8880022    1    1    2    0    0 -0.97481349390E+02  0.83247818443E+02 -0.19298727505E+03  0.27761223694E+03  0.15294330000E+03 0.  1.
<mgrwt>
<rscale>  0 0.19956068E+03</rscale>
<asrwt>0</asrwt>
<pdfrwt beam="1">  1        2 0.63022715E-01 0.19956068E+03</pdfrwt>
<pdfrwt beam="2">  1       -2 0.15294980E-01 0.19956068E+03</pdfrwt>
<totfact> 0.25460242E+03</totfact>
</mgrwt>
</event>
<event>
 4    1  0.6912310E-008  0.8578686E+03  0.7818608E-02  0.9479836E-01
          2   -1    0    0  501    0  0.00000000000E+00  0.00000000000E+00  0.91976252117E+03  0.91976252117E+03  0.25500000000E-02 0. -1.
         -2   -1    0    0    0  501 -0.00000000000E+00 -0.00000000000E+00 -0.91258921307E+03  0.91258921307E+03  0.25500000000E-02 0.  1.
    8880022    1    1    2    0    0  0.53263635650E+03 -0.65486286746E+03 -0.31801624404E+03  0.91491685302E+03  0.15294330000E+03 0.  0.
    8880022    1    1    2    0    0 -0.53263635650E+03  0.65486286746E+03  0.32518955214E+03  0.91743488122E+03  0.15294330000E+03 0.  0.
<mgrwt>
<rscale>  0 0.85786859E+03</rscale>
<asrwt>0</asrwt>
<pdfrwt beam="1">  1        2 0.14150193E+00 0.85786859E+03</pdfrwt>
<pdfrwt beam="2">  1       -2 0.14039834E+00 0.85786859E+03</pdfrwt>
<totfact> 0.10188631E+01</totfact>
</mgrwt>
</event>
<event>
 4    1  0.6912310E-008  0.3129377E+03  0.7818608E-02  0.1078946E+00
          2   -1    0    0  501    0  0.00000000000E+00  0.00000000000E+00  0.25444119274E+04  0.25444119274E+04  0.25500000000E-02 0. -1.
         -2   -1    0    0    0  501 -0.00000000000E+00 -0.00000000000E+00 -0.14125587552E+03  0.14125587554E+03  0.25500000000E-02 0.  1.
    8880022    1    1    2    0    0 -0.14772189688E+03 -0.22960089151E+03  0.23469516603E+04  0.23677229731E+04  0.15294330000E+03 0.  0.
    8880022    1    1    2    0    0  0.14772189688E+03  0.22960089151E+03  0.56204391538E+02  0.31794482987E+03  0.15294330000E+03 0.  0.
<mgrwt>
<rscale>  0 0.31293766E+03</rscale>
<asrwt>0</asrwt>
<pdfrwt beam="1">  1        2 0.39144794E+00 0.31293766E+03</pdfrwt>
<pdfrwt beam="2">  1       -2 0.21731676E-01 0.31293766E+03</pdfrwt>
<totfact> 0.68556634E+01</totfact>
</mgrwt>
</event>
<event>
 4    1  0.6912310E-008  0.4738875E+03  0.7818608E-02  0.1020829E+00
          2   -1    0    0  501    0  0.00000000000E+00  0.00000000000E+00  0.15842349559E+04  0.15842349559E+04  0.25500000000E-02 0. -1.
         -2   -1    0    0    0  501 -0.00000000000E+00 -0.00000000000E+00 -0.23135765406E+03  0.23135765407E+03  0.25500000000E-02 0.  1.
    8880022    1    1    2    0    0 -0.21829226045E+02 -0.44799684658E+03  0.11148495746E+03  0.48682464853E+03  0.15294330000E+03 0.  0.
    8880022    1    1    2    0    0  0.21829226045E+02  0.44799684658E+03  0.12413923444E+04  0.13287679614E+04  0.15294330000E+03 0.  0.
<mgrwt>
<rscale>  0 0.47388748E+03</rscale>
<asrwt>0</asrwt>
<pdfrwt beam="1">  1        2 0.24372845E+00 0.47388748E+03</pdfrwt>
<pdfrwt beam="2">  1       -2 0.35593485E-01 0.47388748E+03</pdfrwt>
<totfact> 0.89022017E+01</totfact>
</mgrwt>
</event>
<event>
 4    1  0.6912310E-008  0.7840018E+03  0.7818608E-02  0.9583467E-01
         -2   -1    0    0    0  501 -0.00000000000E+00  0.00000000000E+00  0.98743640932E+03  0.98743640932E+03  0.25500000000E-02 0.  1.
          2   -1    0    0  501    0  0.00000000000E+00 -0.00000000000E+00 -0.79369146618E+03  0.79369146618E+03  0.25500000000E-02 0. -1.
    8880022    1    1    2    0    0  0.73763937948E+03 -0.21715269653E+03 -0.31675222641E+03  0.84557127063E+03  0.15294330000E+03 0.  0.
    8880022    1    1    2    0    0 -0.73763937948E+03  0.21715269653E+03  0.51049716955E+03  0.93555660486E+03  0.15294330000E+03 0.  0.
<mgrwt>
<rscale>  0 0.78400179E+03</rscale>
<asrwt>0</asrwt>
<pdfrwt beam="1">  1        2 0.12210638E+00 0.78400179E+03</pdfrwt>
<pdfrwt beam="2">  1       -2 0.15191329E+00 0.78400179E+03</pdfrwt>
<totfact> 0.10210122E+01</totfact>
</mgrwt>
</event>
<event>
 4    1  0.6912310E-008  0.1043689E+04  0.7818608E-02  0.9261884E-01
          2   -1    0    0  501    0  0.00000000000E+00  0.00000000000E+00  0.13520034846E+04  0.13520034846E+04  0.25500000000E-02 0. -1.
         -2   -1    0    0    0  501 -0.00000000000E+00 -0.00000000000E+00 -0.13486135448E+04  0.13486135448E+04  0.25500000000E-02 0.  1.
    8880022    1    1    2    0    0  0.10221645953E+04  0.14517205732E+03 -0.85506890038E+03  0.13492330649E+04  0.15294330000E+03 0.  0.
    8880022    1    1    2    0    0 -0.10221645953E+04 -0.14517205732E+03  0.85845884027E+03  0.13513839645E+04  0.15294330000E+03 0. -1.
<mgrwt>
<rscale>  0 0.10436891E+04</rscale>
<asrwt>0</asrwt>
<pdfrwt beam="1">  1        2 0.20800054E+00 0.10436891E+04</pdfrwt>
<pdfrwt beam="2">  1       -2 0.20747901E+00 0.10436891E+04</pdfrwt>
<totfact> 0.18108061E+00</totfact>
</mgrwt>
</event>
<event>
 4    1  0.6912310E-008  0.4531875E+03  0.7818608E-02  0.1026776E+00
          2   -1    0    0  501    0  0.00000000000E+00  0.00000000000E+00  0.23731029731E+04  0.23731029731E+04  0.25500000000E-02 0. -1.
         -2   -1    0    0    0  501 -0.00000000000E+00 -0.00000000000E+00 -0.19261829377E+03  0.19261829379E+03  0.25500000000E-02 0.  1.
    8880022    1    1    2    0    0 -0.68576270236E+02  0.42105174628E+03  0.13824697897E+03  0.47380497897E+03  0.15294330000E+03 0.  0.
    8880022    1    1    2    0    0  0.68576270236E+02 -0.42105174628E+03  0.20422377004E+04  0.20919162879E+04  0.15294330000E+03 0.  0.
<mgrwt>
<rscale>  0 0.45318752E+03</rscale>
<asrwt>0</asrwt>
<pdfrwt beam="1">  1        2 0.36509275E+00 0.45318752E+03</pdfrwt>
<pdfrwt beam="2">  1       -2 0.29633585E-01 0.45318752E+03</pdfrwt>
<totfact> 0.47176614E+01</totfact>
</mgrwt>
</event>
<event>
 4    1  0.6912310E-008  0.7055019E+03  0.7818608E-02  0.9707869E-01
         -2   -1    0    0    0  501 -0.00000000000E+00  0.00000000000E+00  0.30186473991E+03  0.30186473992E+03  0.25500000000E-02 0.  1.
          2   -1    0    0  501    0  0.00000000000E+00 -0.00000000000E+00 -0.16971906209E+04  0.16971906209E+04  0.25500000000E-02 0. -1.
    8880022    1    1    2    0    0 -0.18705089399E+03 -0.66283722036E+03 -0.86633303476E+03  0.11172581608E+04  0.15294330000E+03 0.  0.
    8880022    1    1    2    0    0  0.18705089399E+03  0.66283722036E+03 -0.52899284620E+03  0.88179720004E+03  0.15294330000E+03 0.  0.
<mgrwt>
<rscale>  0 0.70550186E+03</rscale>
<asrwt>0</asrwt>
<pdfrwt beam="1">  1        2 0.26110624E+00 0.70550186E+03</pdfrwt>
<pdfrwt beam="2">  1       -2 0.46440730E-01 0.70550186E+03</pdfrwt>
<totfact> 0.44589674E+01</totfact>
</mgrwt>
</event>
<event>
 4    1  0.6912310E-008  0.1825136E+03  0.7818608E-02  0.1165392E+00
          2   -1    0    0  501    0  0.00000000000E+00  0.00000000000E+00  0.16772657137E+04  0.16772657137E+04  0.25500000000E-02 0. -1.
         -2   -1    0    0    0  501 -0.00000000000E+00 -0.00000000000E+00 -0.96411359501E+02  0.96411359535E+02  0.25500000000E-02 0.  1.
    8880022    1    1    2    0    0  0.94265782329E+02 -0.32148276603E+02  0.19317185232E+00  0.18251367000E+03  0.15294330000E+03 0.  0.
    8880022    1    1    2    0    0 -0.94265782329E+02  0.32148276603E+02  0.15806611823E+04  0.15911634032E+04  0.15294330000E+03 0. -1.
<mgrwt>
<rscale>  0 0.18251357E+03</rscale>
<asrwt>0</asrwt>
<pdfrwt beam="1">  1        2 0.25804086E+00 0.18251357E+03</pdfrwt>
<pdfrwt beam="2">  1       -2 0.14832518E-01 0.18251357E+03</pdfrwt>
<totfact> 0.39172061E+02</totfact>
</mgrwt>
</event>
<event>
 4    1  0.6912310E-008  0.6804705E+03  0.7818608E-02  0.9751226E-01
          2   -1    0    0  501    0  0.00000000000E+00  0.00000000000E+00  0.12726945259E+04  0.12726945259E+04  0.25500000000E-02 0. -1.
         -2   -1    0    0    0  501 -0.00000000000E+00 -0.00000000000E+00 -0.40313170122E+03  0.40313170122E+03  0.25500000000E-02 0.  1.
    8880022    1    1    2    0    0 -0.64777993702E+03 -0.14152587681E+03  0.17314379711E+03  0.70215300904E+03  0.15294330000E+03 0.  0.
    8880022    1    1    2    0    0  0.64777993702E+03  0.14152587681E+03  0.69641902756E+03  0.97367321807E+03  0.15294330000E+03 0.  0.
<mgrwt>
<rscale>  0 0.68047048E+03</rscale>
<asrwt>0</asrwt>
<pdfrwt beam="1">  1        2 0.19579916E+00 0.68047048E+03</pdfrwt>
<pdfrwt beam="2">  1       -2 0.62020262E-01 0.68047048E+03</pdfrwt>
<totfact> 0.42502385E+01</totfact>
</mgrwt>
</event>
<event>
 4    1  0.6912310E-008  0.8772548E+03  0.7818608E-02  0.9454469E-01
         -2   -1    0    0    0  501 -0.00000000000E+00  0.00000000000E+00  0.20989449713E+04  0.20989449713E+04  0.25500000000E-02 0.  1.
          2   -1    0    0  501    0  0.00000000000E+00 -0.00000000000E+00 -0.40359352998E+03  0.40359352999E+03  0.25500000000E-02 0. -1.
    8880022    1    1    2    0    0 -0.17723891435E+03 -0.84544111818E+03  0.12262525595E+04  0.15077371488E+04  0.15294330000E+03 0.  0.
    8880022    1    1    2    0    0  0.17723891435E+03  0.84544111818E+03  0.46909888182E+03  0.99480135254E+03  0.15294330000E+03 0.  0.
<mgrwt>
<rscale>  0 0.87725479E+03</rscale>
<asrwt>0</asrwt>
<pdfrwt beam="1">  1        2 0.62091312E-01 0.87725479E+03</pdfrwt>
<pdfrwt beam="2">  1       -2 0.32291461E+00 0.87725479E+03</pdfrwt>
<totfact> 0.18577240E+00</totfact>
</mgrwt>
</event>
<event>
 4    1  0.6912310E-008  0.6233808E+03  0.7818608E-02  0.9858051E-01
          2   -1    0    0  501    0  0.00000000000E+00  0.00000000000E+00  0.46502190241E+03  0.46502190241E+03  0.25500000000E-02 0. -1.
         -2   -1    0    0    0  501 -0.00000000000E+00 -0.00000000000E+00 -0.95189998194E+03  0.95189998195E+03  0.25500000000E-02 0.  1.
    8880022    1    1    2    0    0 -0.54298909026E+02 -0.60188338158E+03  0.41231150564E+01  0.62339444145E+03  0.15294330000E+03 0.  0.
    8880022    1    1    2    0    0  0.54298909026E+02  0.60188338158E+03 -0.49100119459E+03  0.79352744291E+03  0.15294330000E+03 0.  0.
<mgrwt>
<rscale>  0 0.62338081E+03</rscale>
<asrwt>0</asrwt>
<pdfrwt beam="1">  1        2 0.71541831E-01 0.62338081E+03</pdfrwt>
<pdfrwt beam="2">  1       -2 0.14644615E+00 0.62338081E+03</pdfrwt>
<totfact> 0.21914469E+01</totfact>
</mgrwt>
</event>
<event>
 4    1  0.6912310E-008  0.3940386E+03  0.7818608E-02  0.1045864E+00
          2   -1    0    0  501    0  0.00000000000E+00  0.00000000000E+00  0.50439750062E+03  0.50439750063E+03  0.25500000000E-02 0. -1.
         -2   -1    0    0    0  501 -0.00000000000E+00 -0.00000000000E+00 -0.75778019045E+03  0.75778019046E+03  0.25500000000E-02 0.  1.
    8880022    1    1    2    0    0  0.36186421787E+03  0.30480079438E+02 -0.61299024098E+03  0.72871354864E+03  0.15294330000E+03 0.  0.
    8880022    1    1    2    0    0 -0.36186421787E+03 -0.30480079438E+02  0.35960755115E+03  0.53346414244E+03  0.15294330000E+03 0.  0.
<mgrwt>
<rscale>  0 0.39403858E+03</rscale>
<asrwt>0</asrwt>
<pdfrwt beam="1">  1        2 0.77599616E-01 0.39403858E+03</pdfrwt>
<pdfrwt beam="2">  1       -2 0.11658157E+00 0.39403858E+03</pdfrwt>
<totfact> 0.36449749E+01</totfact>
</mgrwt>
</event>
<event>
 4    1  0.6912310E-008  0.1661677E+03  0.7818608E-02  0.1181904E+00
         -2   -1    0    0    0  501 -0.00000000000E+00  0.00000000000E+00  0.37033800910E+02  0.37033800998E+02  0.25500000000E-02 0.  1.
          2   -1    0    0  501    0  0.00000000000E+00 -0.00000000000E+00 -0.10379111326E+04  0.10379111326E+04  0.25500000000E-02 0. -1.
    8880022    1    1    2    0    0 -0.53815920421E+02 -0.36385456850E+02 -0.21519714778E+03  0.27188512314E+03  0.15294330000E+03 0.  1.
    8880022    1    1    2    0    0  0.53815920421E+02  0.36385456850E+02 -0.78568018389E+03  0.80305981043E+03  0.15294330000E+03 0.  0.
<mgrwt>
<rscale>  0 0.16616771E+03</rscale>
<asrwt>0</asrwt>
<pdfrwt beam="1">  1        2 0.15967861E+00 0.16616771E+03</pdfrwt>
<pdfrwt beam="2">  1       -2 0.56975086E-02 0.16616771E+03</pdfrwt>
<totfact> 0.39370727E+03</totfact>
</mgrwt>
</event>
<event>
 4    1  0.6912310E-008  0.9595157E+03  0.7818608E-02  0.9354097E-01
         -2   -1    0    0    0  501 -0.00000000000E+00  0.00000000000E+00  0.62815464920E+03  0.62815464920E+03  0.25500000000E-02 0.  1.
          2   -1    0    0  501    0  0.00000000000E+00 -0.00000000000E+00 -0.23667966867E+04  0.23667966867E+04  0.25500000000E-02 0. -1.
    8880022    1    1    2    0    0  0.35822753232E+03 -0.87689892514E+03  0.54677136860E+02  0.96107228247E+03  0.15294330000E+03 0.  1.
    8880022    1    1    2    0    0 -0.35822753232E+03  0.87689892514E+03 -0.17933191744E+04  0.20338790534E+04  0.15294330000E+03 0.  0.
<mgrwt>
<rscale>  0 0.95951568E+03</rscale>
<asrwt>0</asrwt>
<pdfrwt beam="1">  1        2 0.36412256E+00 0.95951568E+03</pdfrwt>
<pdfrwt beam="2">  1       -2 0.96639178E-01 0.95951568E+03</pdfrwt>
<totfact> 0.37635340E+00</totfact>
</mgrwt>
</event>
<event>
 4    1  0.6912310E-008  0.3752989E+03  0.7818608E-02  0.1052685E+00
          2   -1    0    0  501    0  0.00000000000E+00  0.00000000000E+00  0.22459683597E+04  0.22459683597E+04  0.25500000000E-02 0. -1.
         -2   -1    0    0    0  501 -0.00000000000E+00 -0.00000000000E+00 -0.78220084301E+02  0.78220084342E+02  0.25500000000E-02 0.  1.
    8880022    1    1    2    0    0  0.12870804293E+02 -0.34247915588E+03  0.56643346654E+03  0.67948226971E+03  0.15294330000E+03 0.  0.
    8880022    1    1    2    0    0 -0.12870804293E+02  0.34247915588E+03  0.16013148089E+04  0.16447061744E+04  0.15294330000E+03 0.  0.
<mgrwt>
<rscale>  0 0.37529892E+03</rscale>
<asrwt>0</asrwt>
<pdfrwt beam="1">  1        2 0.34553353E+00 0.37529892E+03</pdfrwt>
<pdfrwt beam="2">  1       -2 0.12033861E-01 0.37529892E+03</pdfrwt>
<totfact> 0.26588171E+02</totfact>
</mgrwt>
</event>
<event>
 4    1  0.6912310E-008  0.4119924E+03  0.7818608E-02  0.1039704E+00
         -2   -1    0    0    0  501 -0.00000000000E+00  0.00000000000E+00  0.14235744506E+03  0.14235744508E+03  0.25500000000E-02 0.  1.
          2   -1    0    0  501    0  0.00000000000E+00 -0.00000000000E+00 -0.16918981764E+04  0.16918981764E+04  0.25500000000E-02 0. -1.
    8880022    1    1    2    0    0  0.19609863395E+03 -0.32846821895E+03 -0.27641611937E+03  0.49612858128E+03  0.15294330000E+03 0.  1.
    8880022    1    1    2    0    0 -0.19609863395E+03  0.32846821895E+03 -0.12731246119E+04  0.13381270402E+04  0.15294330000E+03 0. -1.
<mgrwt>
<rscale>  0 0.41199235E+03</rscale>
<asrwt>0</asrwt>
<pdfrwt beam="1">  1        2 0.26029201E+00 0.41199235E+03</pdfrwt>
<pdfrwt beam="2">  1       -2 0.21901147E-01 0.41199235E+03</pdfrwt>
<totfact> 0.19028420E+02</totfact>
</mgrwt>
</event>
<event>
 4    1  0.6912310E-008  0.6618977E+03  0.7818608E-02  0.9784707E-01
         -2   -1    0    0    0  501 -0.00000000000E+00  0.00000000000E+00  0.18650239079E+04  0.18650239079E+04  0.25500000000E-02 0.  1.
          2   -1    0    0  501    0  0.00000000000E+00 -0.00000000000E+00 -0.38156355552E+03  0.38156355552E+03  0.25500000000E-02 0. -1.
    8880022    1    1    2    0    0  0.56258725672E+03  0.31338878015E+03  0.45328999486E+02  0.66344805385E+03  0.15294330000E+03 0.  0.
    8880022    1    1    2    0    0 -0.56258725672E+03 -0.31338878015E+03  0.14381313529E+04  0.15831394096E+04  0.15294330000E+03 0.  0.
<mgrwt>
<rscale>  0 0.66189773E+03</rscale>
<asrwt>0</asrwt>
<pdfrwt beam="1">  1        2 0.58702085E-01 0.66189773E+03</pdfrwt>
<pdfrwt beam="2">  1       -2 0.28692676E+00 0.66189773E+03</pdfrwt>
<totfact> 0.33671997E+00</totfact>
</mgrwt>
</event>
<event>
 4    1  0.6912310E-008  0.1956345E+03  0.7818608E-02  0.1153475E+00
         -2   -1    0    0    0  501 -0.00000000000E+00  0.00000000000E+00  0.93972596577E+02  0.93972596611E+02  0.25500000000E-02 0.  1.
          2   -1    0    0  501    0  0.00000000000E+00 -0.00000000000E+00 -0.29454508245E+04  0.29454508245E+04  0.25500000000E-02 0. -1.
    8880022    1    1    2    0    0  0.11884233203E+03  0.27526225675E+02 -0.15002198812E+02  0.19620884783E+03  0.15294330000E+03 0.  1.
    8880022    1    1    2    0    0 -0.11884233203E+03 -0.27526225675E+02 -0.28364760291E+04  0.28432145733E+04  0.15294330000E+03 0.  0.
<mgrwt>
<rscale>  0 0.19563447E+03</rscale>
<asrwt>0</asrwt>
<pdfrwt beam="1">  1        2 0.45314621E+00 0.19563447E+03</pdfrwt>
<pdfrwt beam="2">  1       -2 0.14457325E-01 0.19563447E+03</pdfrwt>
<totfact> 0.84879122E+01</totfact>
</mgrwt>
</event>
<event>
 4    1  0.6912310E-008  0.4231132E+03  0.7818608E-02  0.1036058E+00
          2   -1    0    0  501    0  0.00000000000E+00  0.00000000000E+00  0.13798665990E+03  0.13798665992E+03  0.25500000000E-02 0. -1.
         -2   -1    0    0    0  501 -0.00000000000E+00 -0.00000000000E+00 -0.19233129033E+04  0.19233129033E+04  0.25500000000E-02 0.  1.
    8880022    1    1    2    0    0 -0.39380998986E+03  0.23383379427E+02 -0.30471236223E+03  0.52141573361E+03  0.15294330000E+03 0.  0.
    8880022    1    1    2    0    0  0.39380998986E+03 -0.23383379427E+02 -0.14806138812E+04  0.15398838296E+04  0.15294330000E+03 0.  0.
<mgrwt>
<rscale>  0 0.42311316E+03</rscale>
<asrwt>0</asrwt>
<pdfrwt beam="1">  1        2 0.21228718E-01 0.42311316E+03</pdfrwt>
<pdfrwt beam="2">  1       -2 0.29589427E+00 0.42311316E+03</pdfrwt>
<totfact> 0.96995670E+00</totfact>
</mgrwt>
</event>
<event>
 4    1  0.6912310E-008  0.4347543E+03  0.7818608E-02  0.1032369E+00
          2   -1    0    0  501    0  0.00000000000E+00  0.00000000000E+00  0.14925293216E+04  0.14925293216E+04  0.25500000000E-02 0. -1.
         -2   -1    0    0    0  501 -0.00000000000E+00 -0.00000000000E+00 -0.32019252028E+03  0.32019252029E+03  0.25500000000E-02 0.  1.
    8880022    1    1    2    0    0  0.30710063787E+03 -0.26703721115E+03 -0.11851970347E+03  0.45061984759E+03  0.15294330000E+03 0.  0.
    8880022    1    1    2    0    0 -0.30710063787E+03  0.26703721115E+03  0.12908565048E+04  0.13621019943E+04  0.15294330000E+03 0.  0.
<mgrwt>
<rscale>  0 0.43475433E+03</rscale>
<asrwt>0</asrwt>
<pdfrwt beam="1">  1        2 0.22961990E+00 0.43475433E+03</pdfrwt>
<pdfrwt beam="2">  1       -2 0.49260387E-01 0.43475433E+03</pdfrwt>
<totfact> 0.53305723E+01</totfact>
</mgrwt>
</event>
<event>
 4    1  0.6912310E-008  0.8239021E+03  0.7818608E-02  0.9526050E-01
         -2   -1    0    0    0  501 -0.00000000000E+00  0.00000000000E+00  0.25145188967E+04  0.25145188967E+04  0.25500000000E-02 0.  1.
          2   -1    0    0  501    0  0.00000000000E+00 -0.00000000000E+00 -0.11636497588E+04  0.11636497588E+04  0.25500000000E-02 0. -1.
    8880022    1    1    2    0    0  0.46796526241E+03 -0.66062967836E+03  0.22871351292E+04  0.24310083938E+04  0.15294330000E+03 0.  0.
    8880022    1    1    2    0    0 -0.46796526241E+03  0.66062967836E+03 -0.93626599126E+03  0.12471602616E+04  0.15294330000E+03 0.  0.
<mgrwt>
<rscale>  0 0.82390213E+03</rscale>
<asrwt>0</asrwt>
<pdfrwt beam="1">  1        2 0.17902304E+00 0.82390213E+03</pdfrwt>
<pdfrwt beam="2">  1       -2 0.38684906E+00 0.82390213E+03</pdfrwt>
<totfact> 0.18932703E-01</totfact>
</mgrwt>
</event>
<event>
 4    1  0.6912310E-008  0.8400906E+03  0.7818608E-02  0.9503734E-01
          2   -1    0    0  501    0  0.00000000000E+00  0.00000000000E+00  0.99309468793E+03  0.99309468793E+03  0.25500000000E-02 0. -1.
         -2   -1    0    0    0  501 -0.00000000000E+00 -0.00000000000E+00 -0.10435735179E+04  0.10435735179E+04  0.25500000000E-02 0.  1.
    8880022    1    1    2    0    0 -0.25496084167E+03 -0.78571980621E+03 -0.60040742518E+03  0.10325896445E+04  0.15294330000E+03 0.  0.
    8880022    1    1    2    0    0  0.25496084167E+03  0.78571980621E+03  0.54992859517E+03  0.10040785614E+04  0.15294330000E+03 0.  0.
<mgrwt>
<rscale>  0 0.84009065E+03</rscale>
<asrwt>0</asrwt>
<pdfrwt beam="1">  1        2 0.15278380E+00 0.84009065E+03</pdfrwt>
<pdfrwt beam="2">  1       -2 0.16054977E+00 0.84009065E+03</pdfrwt>
<totfact> 0.64013993E+00</totfact>
</mgrwt>
</event>
<event>
 4    1  0.6912310E-008  0.2090022E+03  0.7818608E-02  0.1142359E+00
          2   -1    0    0  501    0  0.00000000000E+00  0.00000000000E+00  0.18405970624E+04  0.18405970624E+04  0.25500000000E-02 0. -1.
         -2   -1    0    0    0  501 -0.00000000000E+00 -0.00000000000E+00 -0.62940434932E+02  0.62940434984E+02  0.25500000000E-02 0.  1.
    8880022    1    1    2    0    0  0.87945162952E+02  0.11205320857E+03  0.13763158808E+03  0.25024863694E+03  0.15294330000E+03 0.  0.
    8880022    1    1    2    0    0 -0.87945162952E+02 -0.11205320857E+03  0.16400250394E+04  0.16532888604E+04  0.15294330000E+03 0. -1.
<mgrwt>
<rscale>  0 0.20900222E+03</rscale>
<asrwt>0</asrwt>
<pdfrwt beam="1">  1        2 0.28316879E+00 0.20900222E+03</pdfrwt>
<pdfrwt beam="2">  1       -2 0.96831435E-02 0.20900222E+03</pdfrwt>
<totfact> 0.63698000E+02</totfact>
</mgrwt>
</event>
<event>
 4    1  0.6912310E-008  0.4053552E+03  0.7818608E-02  0.1041941E+00
          2   -1    0    0  501    0  0.00000000000E+00  0.00000000000E+00  0.58838045572E+03  0.58838045572E+03  0.25500000000E-02 0. -1.
         -2   -1    0    0    0  501 -0.00000000000E+00 -0.00000000000E+00 -0.69495468489E+03  0.69495468489E+03  0.25500000000E-02 0.  1.
    8880022    1    1    2    0    0 -0.37485365983E+03  0.20147655440E+02  0.44298235111E+03  0.60045500307E+03  0.15294330000E+03 0.  0.
    8880022    1    1    2    0    0  0.37485365983E+03 -0.20147655440E+02 -0.54955658028E+03  0.68288013754E+03  0.15294330000E+03 0.  0.
<mgrwt>
<rscale>  0 0.40535521E+03</rscale>
<asrwt>0</asrwt>
<pdfrwt beam="1">  1        2 0.90520070E-01 0.40535521E+03</pdfrwt>
<pdfrwt beam="2">  1       -2 0.10691611E+00 0.40535521E+03</pdfrwt>
<totfact> 0.37486124E+01</totfact>
</mgrwt>
</event>
<event>
 4    1  0.6912310E-008  0.2980535E+03  0.7818608E-02  0.1086218E+00
         -2   -1    0    0    0  501 -0.00000000000E+00  0.00000000000E+00  0.16818121835E+03  0.16818121837E+03  0.25500000000E-02 0.  1.
          2   -1    0    0  501    0  0.00000000000E+00 -0.00000000000E+00 -0.89050399340E+03  0.89050399341E+03  0.25500000000E-02 0. -1.
    8880022    1    1    2    0    0  0.15805786124E+03 -0.20115158832E+03 -0.69879546412E+03  0.75970454959E+03  0.15294330000E+03 0.  0.
    8880022    1    1    2    0    0 -0.15805786124E+03  0.20115158832E+03 -0.23527310935E+02  0.29898066218E+03  0.15294330000E+03 0.  1.
<mgrwt>
<rscale>  0 0.29805352E+03</rscale>
<asrwt>0</asrwt>
<pdfrwt beam="1">  1        2 0.13700061E+00 0.29805352E+03</pdfrwt>
<pdfrwt beam="2">  1       -2 0.25874034E-01 0.29805352E+03</pdfrwt>
<totfact> 0.41365679E+02</totfact>
</mgrwt>
</event>
<event>
 4    1  0.6912310E-008  0.7861955E+03  0.7818608E-02  0.9580216E-01
          2   -1    0    0  501    0  0.00000000000E+00  0.00000000000E+00  0.33654498893E+04  0.33654498893E+04  0.25500000000E-02 0. -1.
         -2   -1    0    0    0  501 -0.00000000000E+00 -0.00000000000E+00 -0.27294558906E+03  0.27294558908E+03  0.25500000000E-02 0.  1.
    8880022    1    1    2    0    0  0.62617702612E+03  0.45012664837E+03  0.25867210110E+04  0.27035585641E+04  0.15294330000E+03 0.  0.
    8880022    1    1    2    0    0 -0.62617702612E+03 -0.45012664837E+03  0.50578328917E+03  0.93483691424E+03  0.15294330000E+03 0.  0.
<mgrwt>
<rscale>  0 0.78619547E+03</rscale>
<asrwt>0</asrwt>
<pdfrwt beam="1">  1        2 0.51776152E+00 0.78619547E+03</pdfrwt>
<pdfrwt beam="2">  1       -2 0.41991630E-01 0.78619547E+03</pdfrwt>
<totfact> 0.57911024E+00</totfact>
</mgrwt>
</event>
<event>
 4    1  0.6912310E-008  0.1657466E+03  0.7818608E-02  0.1182357E+00
         -2   -1    0    0    0  501 -0.00000000000E+00  0.00000000000E+00  0.35494328226E+03  0.35494328227E+03  0.25500000000E-02 0.  1.
          2   -1    0    0  501    0  0.00000000000E+00 -0.00000000000E+00 -0.11220015025E+04  0.11220015025E+04  0.25500000000E-02 0. -1.
    8880022    1    1    2    0    0 -0.39566712815E+02  0.50147425920E+02 -0.10960756885E+04  0.11085368091E+04  0.15294330000E+03 0.  0.
    8880022    1    1    2    0    0  0.39566712815E+02 -0.50147425920E+02  0.32901746830E+03  0.36840797569E+03  0.15294330000E+03 0.  1.
<mgrwt>
<rscale>  0 0.16574662E+03</rscale>
<asrwt>0</asrwt>
<pdfrwt beam="1">  1        2 0.17261561E+00 0.16574662E+03</pdfrwt>
<pdfrwt beam="2">  1       -2 0.54606659E-01 0.16574662E+03</pdfrwt>
<totfact> 0.74508220E+01</totfact>
</mgrwt>
</event>
<event>
 4    1  0.6912310E-008  0.3926157E+03  0.7818608E-02  0.1046367E+00
          2   -1    0    0  501    0  0.00000000000E+00  0.00000000000E+00  0.12788854305E+04  0.12788854305E+04  0.25500000000E-02 0. -1.
         -2   -1    0    0    0  501 -0.00000000000E+00 -0.00000000000E+00 -0.21444493393E+03  0.21444493394E+03  0.25500000000E-02 0.  1.
    8880022    1    1    2    0    0  0.86783542186E-01 -0.36160120645E+03  0.10263373113E+04  0.10988700422E+04  0.15294330000E+03 0.  0.
    8880022    1    1    2    0    0 -0.86783542186E-01  0.36160120645E+03  0.38103185198E+02  0.39446032218E+03  0.15294330000E+03 0.  1.
<mgrwt>
<rscale>  0 0.39261571E+03</rscale>
<asrwt>0</asrwt>
<pdfrwt beam="1">  1        2 0.19675160E+00 0.39261571E+03</pdfrwt>
<pdfrwt beam="2">  1       -2 0.32991529E-01 0.39261571E+03</pdfrwt>
<totfact> 0.15324688E+02</totfact>
</mgrwt>
</event>
<event>
 4    1  0.6912310E-008  0.2205019E+03  0.7818608E-02  0.1133509E+00
          2   -1    0    0  501    0  0.00000000000E+00  0.00000000000E+00  0.26185120980E+03  0.26185120981E+03  0.25500000000E-02 0. -1.
         -2   -1    0    0    0  501 -0.00000000000E+00 -0.00000000000E+00 -0.39051978221E+03  0.39051978222E+03  0.25500000000E-02 0.  1.
    8880022    1    1    2    0    0  0.12891100613E+03  0.92797582850E+02 -0.30057133872E+03  0.37277905193E+03  0.15294330000E+03 0.  0.
    8880022    1    1    2    0    0 -0.12891100613E+03 -0.92797582850E+02  0.17190276631E+03  0.27959194009E+03  0.15294330000E+03 0.  0.
<mgrwt>
<rscale>  0 0.22050191E+03</rscale>
<asrwt>0</asrwt>
<pdfrwt beam="1">  1        2 0.40284801E-01 0.22050191E+03</pdfrwt>
<pdfrwt beam="2">  1       -2 0.60079967E-01 0.22050191E+03</pdfrwt>
<totfact> 0.33656300E+02</totfact>
</mgrwt>
</event>
<event>
 4    1  0.6912310E-008  0.1732366E+03  0.7818608E-02  0.1174514E+00
         -2   -1    0    0    0  501 -0.00000000000E+00  0.00000000000E+00  0.27698569035E+02  0.27698569152E+02  0.25500000000E-02 0.  1.
          2   -1    0    0  501    0  0.00000000000E+00 -0.00000000000E+00 -0.14485361390E+04  0.14485361390E+04  0.25500000000E-02 0. -1.
    8880022    1    1    2    0    0 -0.72935735964E+02 -0.36050543127E+02 -0.10809621666E+04  0.10947557362E+04  0.15294330000E+03 0.  0.
    8880022    1    1    2    0    0  0.72935735964E+02  0.36050543127E+02 -0.33987540337E+03  0.38147897199E+03  0.15294330000E+03 0.  1.
<mgrwt>
<rscale>  0 0.17323659E+03</rscale>
<asrwt>0</asrwt>
<pdfrwt beam="1">  1        2 0.22285165E+00 0.17323659E+03</pdfrwt>
<pdfrwt beam="2">  1       -2 0.42613195E-02 0.17323659E+03</pdfrwt>
<totfact> 0.36133204E+03</totfact>
</mgrwt>
</event>
<event>
 4    1  0.6912310E-008  0.5673751E+03  0.7818608E-02  0.9975504E-01
         -2   -1    0    0    0  501 -0.00000000000E+00  0.00000000000E+00  0.35704483073E+03  0.35704483074E+03  0.25500000000E-02 0.  1.
          2   -1    0    0  501    0  0.00000000000E+00 -0.00000000000E+00 -0.30151654265E+04  0.30151654265E+04  0.25500000000E-02 0. -1.
    8880022    1    1    2    0    0 -0.17395206436E+03  0.51794165203E+03  0.82619137014E+02  0.57335891937E+03  0.15294330000E+03 0.  0.
    8880022    1    1    2    0    0  0.17395206436E+03 -0.51794165203E+03 -0.27407397328E+04  0.27988513379E+04  0.15294330000E+03 0.  0.
<mgrwt>
<rscale>  0 0.56737512E+03</rscale>
<asrwt>0</asrwt>
<pdfrwt beam="1">  1        2 0.46387159E+00 0.56737512E+03</pdfrwt>
<pdfrwt beam="2">  1       -2 0.54929976E-01 0.56737512E+03</pdfrwt>
<totfact> 0.58945988E+00</totfact>
</mgrwt>
</event>
<event>
 4    1  0.6912310E-008  0.6438778E+03  0.7818608E-02  0.9818335E-01
         -2   -1    0    0    0  501 -0.00000000000E+00  0.00000000000E+00  0.18498784919E+04  0.18498784919E+04  0.25500000000E-02 0.  1.
          2   -1    0    0  501    0  0.00000000000E+00 -0.00000000000E+00 -0.10414288723E+04  0.10414288723E+04  0.25500000000E-02 0. -1.
    8880022    1    1    2    0    0  0.56559433787E+03 -0.26700196482E+03  0.16849173515E+04  0.18037530703E+04  0.15294330000E+03 0.  0.
    8880022    1    1    2    0    0 -0.56559433787E+03  0.26700196482E+03 -0.87646773186E+03  0.10875542939E+04  0.15294330000E+03 0.  0.
<mgrwt>
<rscale>  0 0.64387783E+03</rscale>
<asrwt>0</asrwt>
<pdfrwt beam="1">  1        2 0.16021983E+00 0.64387783E+03</pdfrwt>
<pdfrwt beam="2">  1       -2 0.28459669E+00 0.64387783E+03</pdfrwt>
<totfact> 0.99752057E-01</totfact>
</mgrwt>
</event>
<event>
 4    1  0.6912310E-008  0.6259094E+03  0.7818608E-02  0.9853064E-01
          2   -1    0    0  501    0  0.00000000000E+00  0.00000000000E+00  0.71853389633E+03  0.71853389633E+03  0.25500000000E-02 0. -1.
         -2   -1    0    0    0  501 -0.00000000000E+00 -0.00000000000E+00 -0.14515093158E+04  0.14515093158E+04  0.25500000000E-02 0.  1.
    8880022    1    1    2    0    0  0.56071306545E+03  0.23231825926E+03 -0.12238427983E+04  0.13746104042E+04  0.15294330000E+03 0.  0.
    8880022    1    1    2    0    0 -0.56071306545E+03 -0.23231825926E+03  0.49086737882E+03  0.79543280795E+03  0.15294330000E+03 0.  0.
<mgrwt>
<rscale>  0 0.62590939E+03</rscale>
<asrwt>0</asrwt>
<pdfrwt beam="1">  1        2 0.11054368E+00 0.62590939E+03</pdfrwt>
<pdfrwt beam="2">  1       -2 0.22330913E+00 0.62590939E+03</pdfrwt>
<totfact> 0.39001145E+00</totfact>
</mgrwt>
</event>
<event>
 4    1  0.6912310E-008  0.2863928E+03  0.7818608E-02  0.1092248E+00
         -2   -1    0    0    0  501 -0.00000000000E+00  0.00000000000E+00  0.69893461172E+02  0.69893461219E+02  0.25500000000E-02 0.  1.
          2   -1    0    0  501    0  0.00000000000E+00 -0.00000000000E+00 -0.40660286394E+04  0.40660286394E+04  0.25500000000E-02 0. -1.
    8880022    1    1    2    0    0 -0.24211425785E+03  0.31431936608E+01 -0.37422625906E+04  0.37532053160E+04  0.15294330000E+03 0.  0.
    8880022    1    1    2    0    0  0.24211425785E+03 -0.31431936608E+01 -0.25387258764E+03  0.38271678470E+03  0.15294330000E+03 0.  1.
<mgrwt>
<rscale>  0 0.28639282E+03</rscale>
<asrwt>0</asrwt>
<pdfrwt beam="1">  1        2 0.62554268E+00 0.28639282E+03</pdfrwt>
<pdfrwt beam="2">  1       -2 0.10752843E-01 0.28639282E+03</pdfrwt>
<totfact> 0.23361732E+01</totfact>
</mgrwt>
</event>
<event>
 4    1  0.6912310E-008  0.5297558E+03  0.7818608E-02  0.1006291E+00
         -2   -1    0    0    0  501 -0.00000000000E+00  0.00000000000E+00  0.14118434210E+03  0.14118434213E+03  0.25500000000E-02 0.  1.
          2   -1    0    0  501    0  0.00000000000E+00 -0.00000000000E+00 -0.22963717403E+04  0.22963717403E+04  0.25500000000E-02 0. -1.
    8880022    1    1    2    0    0  0.19020171050E+03  0.47018390869E+03 -0.63080061953E+03  0.82374187297E+03  0.15294330000E+03 0.  1.
    8880022    1    1    2    0    0 -0.19020171050E+03 -0.47018390869E+03 -0.15243867787E+04  0.16138142095E+04  0.15294330000E+03 0.  0.
<mgrwt>
<rscale>  0 0.52975584E+03</rscale>
<asrwt>0</asrwt>
<pdfrwt beam="1">  1        2 0.35328793E+00 0.52975584E+03</pdfrwt>
<pdfrwt beam="2">  1       -2 0.21720670E-01 0.52975584E+03</pdfrwt>
<totfact> 0.89499603E+01</totfact>
</mgrwt>
</event>
<event>
 4    1  0.6912310E-008  0.4303679E+03  0.7818608E-02  0.1033744E+00
         -2   -1    0    0    0  501 -0.00000000000E+00  0.00000000000E+00  0.41227790691E+03  0.41227790691E+03  0.25500000000E-02 0.  1.
          2   -1    0    0  501    0  0.00000000000E+00 -0.00000000000E+00 -0.14649355123E+04  0.14649355123E+04  0.25500000000E-02 0. -1.
    8880022    1    1    2    0    0  0.15440699828E+03  0.37146105769E+03  0.25521567169E+03  0.50035140710E+03  0.15294330000E+03 0.  1.
    8880022    1    1    2    0    0 -0.15440699828E+03 -0.37146105769E+03 -0.13078732771E+04  0.13768620122E+04  0.15294330000E+03 0.  0.
<mgrwt>
<rscale>  0 0.43036786E+03</rscale>
<asrwt>0</asrwt>
<pdfrwt beam="1">  1        2 0.22537469E+00 0.43036786E+03</pdfrwt>
<pdfrwt beam="2">  1       -2 0.63427371E-01 0.43036786E+03</pdfrwt>
<totfact> 0.32777440E+01</totfact>
</mgrwt>
</event>
<event>
 4    1  0.6912310E-008  0.2213842E+03  0.7818608E-02  0.1132855E+00
          2   -1    0    0  501    0  0.00000000000E+00  0.00000000000E+00  0.75498543160E+03  0.75498543161E+03  0.25500000000E-02 0. -1.
         -2   -1    0    0    0  501 -0.00000000000E+00 -0.00000000000E+00 -0.54188579935E+03  0.54188579936E+03  0.25500000000E-02 0.  1.
    8880022    1    1    2    0    0 -0.66572528057E+02 -0.14555894597E+03 -0.50180677689E+03  0.54847151484E+03  0.15294330000E+03 0.  0.
    8880022    1    1    2    0    0  0.66572528057E+02  0.14555894597E+03  0.71490640914E+03  0.74839971612E+03  0.15294330000E+03 0. -1.
<mgrwt>
<rscale>  0 0.22138419E+03</rscale>
<asrwt>0</asrwt>
<pdfrwt beam="1">  1        2 0.11615160E+00 0.22138419E+03</pdfrwt>
<pdfrwt beam="2">  1       -2 0.83367047E-01 0.22138419E+03</pdfrwt>
<totfact> 0.50909326E+01</totfact>
</mgrwt>
</event>
<event>
 4    1  0.6912310E-008  0.1122649E+04  0.7818608E-02  0.9183394E-01
          2   -1    0    0  501    0  0.00000000000E+00  0.00000000000E+00  0.17131584396E+04  0.17131584396E+04  0.25500000000E-02 0. -1.
         -2   -1    0    0    0  501 -0.00000000000E+00 -0.00000000000E+00 -0.97627347883E+03  0.97627347883E+03  0.25500000000E-02 0.  1.
    8880022    1    1    2    0    0 -0.86705853038E+03 -0.69653321204E+03 -0.29910858523E+03  0.11618117788E+04  0.15294330000E+03 0.  1.
    8880022    1    1    2    0    0  0.86705853038E+03  0.69653321204E+03  0.10359935460E+04  0.15276201396E+04  0.15294330000E+03 0.  0.
<mgrwt>
<rscale>  0 0.11226489E+04</rscale>
<asrwt>0</asrwt>
<pdfrwt beam="1">  1        2 0.26356283E+00 0.11226489E+04</pdfrwt>
<pdfrwt beam="2">  1       -2 0.15019592E+00 0.11226489E+04</pdfrwt>
<totfact> 0.28222983E+00</totfact>
</mgrwt>
</event>
<event>
 4    1  0.6912310E-008  0.1058028E+04  0.7818608E-02  0.9247095E-01
          2   -1    0    0  501    0  0.00000000000E+00  0.00000000000E+00  0.17947231750E+04  0.17947231750E+04  0.25500000000E-02 0. -1.
         -2   -1    0    0    0  501 -0.00000000000E+00 -0.00000000000E+00 -0.96550138057E+03  0.96550138058E+03  0.25500000000E-02 0.  1.
    8880022    1    1    2    0    0 -0.10468481977E+04  0.11840939000E+02 -0.40650734675E+03  0.11334333827E+04  0.15294330000E+03 0.  0.
    8880022    1    1    2    0    0  0.10468481977E+04 -0.11840939000E+02  0.12357291412E+04  0.16267911729E+04  0.15294330000E+03 0.  0.
<mgrwt>
<rscale>  0 0.10580279E+04</rscale>
<asrwt>0</asrwt>
<pdfrwt beam="1">  1        2 0.27611126E+00 0.10580279E+04</pdfrwt>
<pdfrwt beam="2">  1       -2 0.14853868E+00 0.10580279E+04</pdfrwt>
<totfact> 0.26395820E+00</totfact>
</mgrwt>
</event>
<event>
 4    1  0.6912310E-008  0.1474383E+04  0.7818608E-02  0.8901669E-01
          2   -1    0    0  501    0  0.00000000000E+00  0.00000000000E+00  0.16192684336E+04  0.16192684336E+04  0.25500000000E-02 0. -1.
         -2   -1    0    0    0  501 -0.00000000000E+00 -0.00000000000E+00 -0.23528000951E+04  0.23528000951E+04  0.25500000000E-02 0.  1.
    8880022    1    1    2    0    0 -0.30499426050E+03 -0.14343608736E+04 -0.16682169514E+04  0.22263764427E+04  0.15294330000E+03 0.  0.
    8880022    1    1    2    0    0  0.30499426050E+03  0.14343608736E+04  0.93468528993E+03  0.17456920859E+04  0.15294330000E+03 0.  0.
<mgrwt>
<rscale>  0 0.14743827E+04</rscale>
<asrwt>0</asrwt>
<pdfrwt beam="1">  1        2 0.24911822E+00 0.14743827E+04</pdfrwt>
<pdfrwt beam="2">  1       -2 0.36196925E+00 0.14743827E+04</pdfrwt>
<totfact> 0.13423286E-01</totfact>
</mgrwt>
</event>
<event>
 4    1  0.6912310E-008  0.2861455E+03  0.7818608E-02  0.1092379E+00
         -2   -1    0    0    0  501 -0.00000000000E+00  0.00000000000E+00  0.37437904996E+03  0.37437904997E+03  0.25500000000E-02 0.  1.
          2   -1    0    0  501    0  0.00000000000E+00 -0.00000000000E+00 -0.24761419579E+03  0.24761419580E+03  0.25500000000E-02 0. -1.
    8880022    1    1    2    0    0  0.75212135612E+02 -0.22984939251E+03  0.16964297107E+03  0.33265297118E+03  0.15294330000E+03 0.  0.
    8880022    1    1    2    0    0 -0.75212135612E+02  0.22984939251E+03 -0.42878116902E+02  0.28934027460E+03  0.15294330000E+03 0. -1.
<mgrwt>
<rscale>  0 0.28614553E+03</rscale>
<asrwt>0</asrwt>
<pdfrwt beam="1">  1        2 0.38094492E-01 0.28614553E+03</pdfrwt>
<pdfrwt beam="2">  1       -2 0.57596777E-01 0.28614553E+03</pdfrwt>
<totfact> 0.38979983E+02</totfact>
</mgrwt>
</event>
<event>
 4    1  0.6912310E-008  0.4337706E+03  0.7818608E-02  0.1032675E+00
          2   -1    0    0  501    0  0.00000000000E+00  0.00000000000E+00  0.18120247734E+04  0.18120247735E+04  0.25500000000E-02 0. -1.
         -2   -1    0    0    0  501 -0.00000000000E+00 -0.00000000000E+00 -0.20608531290E+03  0.20608531292E+03  0.25500000000E-02 0.  1.
    8880022    1    1    2    0    0 -0.28931072810E+03 -0.28471845907E+03  0.15137205649E+04  0.15746450076E+04  0.15294330000E+03 0.  0.
    8880022    1    1    2    0    0  0.28931072810E+03  0.28471845907E+03  0.92218895610E+02  0.44346507873E+03  0.15294330000E+03 0.  0.
<mgrwt>
<rscale>  0 0.43377062E+03</rscale>
<asrwt>0</asrwt>
<pdfrwt beam="1">  1        2 0.27877305E+00 0.43377062E+03</pdfrwt>
<pdfrwt beam="2">  1       -2 0.31705432E-01 0.43377062E+03</pdfrwt>
<totfact> 0.83949684E+01</totfact>
</mgrwt>
</event>
<event>
 4    1  0.6912310E-008  0.4386958E+03  0.7818608E-02  0.1031148E+00
         -2   -1    0    0    0  501 -0.00000000000E+00  0.00000000000E+00  0.94816967002E+02  0.94816967037E+02  0.25500000000E-02 0.  1.
          2   -1    0    0  501    0  0.00000000000E+00 -0.00000000000E+00 -0.22506118195E+04  0.22506118195E+04  0.25500000000E-02 0. -1.
    8880022    1    1    2    0    0 -0.26196902472E+03  0.31691410987E+03 -0.71052192583E+03  0.83504214447E+03  0.15294330000E+03 0.  0.
    8880022    1    1    2    0    0  0.26196902472E+03 -0.31691410987E+03 -0.14452729267E+04  0.15103866421E+04  0.15294330000E+03 0.  0.
<mgrwt>
<rscale>  0 0.43869577E+03</rscale>
<asrwt>0</asrwt>
<pdfrwt beam="1">  1        2 0.34624793E+00 0.43869577E+03</pdfrwt>
<pdfrwt beam="2">  1       -2 0.14587227E-01 0.43869577E+03</pdfrwt>
<totfact> 0.19030251E+02</totfact>
</mgrwt>
</event>
<event>
 4    1  0.6912310E-008  0.6430696E+03  0.7818608E-02  0.9819871E-01
          2   -1    0    0  501    0  0.00000000000E+00  0.00000000000E+00  0.13501365955E+04  0.13501365955E+04  0.25500000000E-02 0. -1.
         -2   -1    0    0    0  501 -0.00000000000E+00 -0.00000000000E+00 -0.32904047952E+03  0.32904047953E+03  0.25500000000E-02 0.  1.
    8880022    1    1    2    0    0  0.56356918036E+03  0.26932624158E+03  0.73129801497E+03  0.97382507935E+03  0.15294330000E+03 0.  0.
    8880022    1    1    2    0    0 -0.56356918036E+03 -0.26932624158E+03  0.28979810101E+03  0.70535199569E+03  0.15294330000E+03 0.  0.
<mgrwt>
<rscale>  0 0.64306959E+03</rscale>
<asrwt>0</asrwt>
<pdfrwt beam="1">  1        2 0.20771332E+00 0.64306959E+03</pdfrwt>
<pdfrwt beam="2">  1       -2 0.50621612E-01 0.64306959E+03</pdfrwt>
<totfact> 0.58782027E+01</totfact>
</mgrwt>
</event>
<event>
 4    1  0.6912310E-008  0.5057250E+03  0.7818608E-02  0.1012295E+00
         -2   -1    0    0    0  501 -0.00000000000E+00  0.00000000000E+00  0.16238360097E+04  0.16238360097E+04  0.25500000000E-02 0.  1.
          2   -1    0    0  501    0  0.00000000000E+00 -0.00000000000E+00 -0.75275023908E+03  0.75275023908E+03  0.25500000000E-02 0. -1.
    8880022    1    1    2    0    0  0.11589534859E+03 -0.46790428349E+03 -0.62114592016E+03  0.80098692716E+03  0.15294330000E+03 0.  0.
    8880022    1    1    2    0    0 -0.11589534859E+03  0.46790428349E+03  0.14922316908E+04  0.15755993216E+04  0.15294330000E+03 0.  0.
<mgrwt>
<rscale>  0 0.50572503E+03</rscale>
<asrwt>0</asrwt>
<pdfrwt beam="1">  1        2 0.11580773E+00 0.50572503E+03</pdfrwt>
<pdfrwt beam="2">  1       -2 0.24982092E+00 0.50572503E+03</pdfrwt>
<totfact> 0.25958862E+00</totfact>
</mgrwt>
</event>
<event>
 4    1  0.6912310E-008  0.6166252E+03  0.7818608E-02  0.9871502E-01
         -2   -1    0    0    0  501 -0.00000000000E+00  0.00000000000E+00  0.77422330740E+03  0.77422330740E+03  0.25500000000E-02 0.  1.
          2   -1    0    0  501    0  0.00000000000E+00 -0.00000000000E+00 -0.74973022702E+03  0.74973022703E+03  0.25500000000E-02 0. -1.
    8880022    1    1    2    0    0 -0.59703073002E+03  0.19729857432E+02 -0.43528417239E+03  0.75478402448E+03  0.15294330000E+03 0.  0.
    8880022    1    1    2    0    0  0.59703073002E+03 -0.19729857432E+02  0.45977725277E+03  0.76916950995E+03  0.15294330000E+03 0.  0.
<mgrwt>
<rscale>  0 0.61662518E+03</rscale>
<asrwt>0</asrwt>
<pdfrwt beam="1">  1        2 0.11534311E+00 0.61662518E+03</pdfrwt>
<pdfrwt beam="2">  1       -2 0.11911128E+00 0.61662518E+03</pdfrwt>
<totfact> 0.20869647E+01</totfact>
</mgrwt>
</event>
<event>
 4    1  0.6912310E-008  0.8961778E+03  0.7818608E-02  0.9430372E-01
          2   -1    0    0  501    0  0.00000000000E+00  0.00000000000E+00  0.95326433745E+03  0.95326433746E+03  0.25500000000E-02 0. -1.
         -2   -1    0    0    0  501 -0.00000000000E+00 -0.00000000000E+00 -0.17220744769E+04  0.17220744769E+04  0.25500000000E-02 0.  1.
    8880022    1    1    2    0    0 -0.30699865025E+03  0.82794611900E+03  0.57159231833E+03  0.10629451437E+04  0.15294330000E+03 0.  0.
    8880022    1    1    2    0    0  0.30699865025E+03 -0.82794611900E+03 -0.13404024578E+04  0.16123936706E+04  0.15294330000E+03 0.  0.
<mgrwt>
<rscale>  0 0.89617777E+03</rscale>
<asrwt>0</asrwt>
<pdfrwt beam="1">  1        2 0.14665605E+00 0.89617777E+03</pdfrwt>
<pdfrwt beam="2">  1       -2 0.26493453E+00 0.89617777E+03</pdfrwt>
<totfact> 0.14245748E+00</totfact>
</mgrwt>
</event>
<event>
 4    1  0.6912310E-008  0.4214096E+03  0.7818608E-02  0.1036608E+00
         -2   -1    0    0    0  501 -0.00000000000E+00  0.00000000000E+00  0.27356813614E+03  0.27356813616E+03  0.25500000000E-02 0.  1.
          2   -1    0    0  501    0  0.00000000000E+00 -0.00000000000E+00 -0.12424923856E+04  0.12424923856E+04  0.25500000000E-02 0. -1.
    8880022    1    1    2    0    0 -0.10294790273E+03 -0.37894082591E+03  0.39371382465E+02  0.42324482157E+03  0.15294330000E+03 0. -1.
    8880022    1    1    2    0    0  0.10294790273E+03  0.37894082591E+03 -0.10082956319E+04  0.10928157002E+04  0.15294330000E+03 0. -1.
<mgrwt>
<rscale>  0 0.42140963E+03</rscale>
<asrwt>0</asrwt>
<pdfrwt beam="1">  1        2 0.19115267E+00 0.42140963E+03</pdfrwt>
<pdfrwt beam="2">  1       -2 0.42087406E-01 0.42140963E+03</pdfrwt>
<totfact> 0.10062074E+02</totfact>
</mgrwt>
</event>
<event>
 4    1  0.6912310E-008  0.8904029E+03  0.7818608E-02  0.9437658E-01
         -2   -1    0    0    0  501 -0.00000000000E+00  0.00000000000E+00  0.54480346055E+03  0.54480346056E+03  0.25500000000E-02 0.  1.
          2   -1    0    0  501    0  0.00000000000E+00 -0.00000000000E+00 -0.29184139404E+04  0.29184139404E+04  0.25500000000E-02 0. -1.
    8880022    1    1    2    0    0 -0.21716723912E+03  0.84986118227E+03 -0.24129026426E+04  0.25719479883E+04  0.15294330000E+03 0.  0.
    8880022    1    1    2    0    0  0.21716723912E+03 -0.84986118227E+03  0.39292162750E+02  0.89126941266E+03  0.15294330000E+03 0.  0.
<mgrwt>
<rscale>  0 0.89040288E+03</rscale>
<asrwt>0</asrwt>
<pdfrwt beam="1">  1        2 0.44898675E+00 0.89040288E+03</pdfrwt>
<pdfrwt beam="2">  1       -2 0.83815918E-01 0.89040288E+03</pdfrwt>
<totfact> 0.25245150E+00</totfact>
</mgrwt>
</event>
<event>
 4    1  0.6912310E-008  0.5912754E+03  0.7818608E-02  0.9923674E-01
          2   -1    0    0  501    0  0.00000000000E+00  0.00000000000E+00  0.17840296612E+04  0.17840296612E+04  0.25500000000E-02 0. -1.
         -2   -1    0    0    0  501 -0.00000000000E+00 -0.00000000000E+00 -0.36943786236E+03  0.36943786237E+03  0.25500000000E-02 0.  1.
    8880022    1    1    2    0    0 -0.10808516623E+03 -0.56083202878E+03  0.14451218557E+04  0.15614044315E+04  0.15294330000E+03 0.  0.
    8880022    1    1    2    0    0  0.10808516623E+03  0.56083202878E+03 -0.30530056884E+02  0.59206309212E+03  0.15294330000E+03 0.  0.
<mgrwt>
<rscale>  0 0.59127542E+03</rscale>
<asrwt>0</asrwt>
<pdfrwt beam="1">  1        2 0.27446610E+00 0.59127542E+03</pdfrwt>
<pdfrwt beam="2">  1       -2 0.56836594E-01 0.59127542E+03</pdfrwt>
<totfact> 0.26900761E+01</totfact>
</mgrwt>
</event>
<event>
 4    1  0.6912310E-008  0.7977164E+03  0.7818608E-02  0.9563328E-01
          2   -1    0    0  501    0  0.00000000000E+00  0.00000000000E+00  0.26905323056E+04  0.26905323056E+04  0.25500000000E-02 0. -1.
         -2   -1    0    0    0  501 -0.00000000000E+00 -0.00000000000E+00 -0.37206857536E+03  0.37206857537E+03  0.25500000000E-02 0.  1.
    8880022    1    1    2    0    0 -0.77675848702E+03 -0.98010382863E+02  0.23495030463E+03  0.83159670572E+03  0.15294330000E+03 0.  0.
    8880022    1    1    2    0    0  0.77675848702E+03  0.98010382863E+02  0.20835134256E+04  0.22310041752E+04  0.15294330000E+03 0.  0.
<mgrwt>
<rscale>  0 0.79771639E+03</rscale>
<asrwt>0</asrwt>
<pdfrwt beam="1">  1        2 0.41392803E+00 0.79771639E+03</pdfrwt>
<pdfrwt beam="2">  1       -2 0.57241321E-01 0.79771639E+03</pdfrwt>
<totfact> 0.80493626E+00</totfact>
</mgrwt>
</event>
<event>
 4    1  0.6912310E-008  0.5822124E+03  0.7818608E-02  0.9943013E-01
         -2   -1    0    0    0  501 -0.00000000000E+00  0.00000000000E+00  0.72107995584E+03  0.72107995585E+03  0.25500000000E-02 0.  1.
          2   -1    0    0  501    0  0.00000000000E+00 -0.00000000000E+00 -0.74634428386E+03  0.74634428387E+03  0.25500000000E-02 0. -1.
    8880022    1    1    2    0    0  0.46371516087E+03 -0.31709288019E+03  0.43375519002E+03  0.72602676464E+03  0.15294330000E+03 0.  0.
    8880022    1    1    2    0    0 -0.46371516087E+03  0.31709288019E+03 -0.45901951804E+03  0.74139747507E+03  0.15294330000E+03 0.  0.
<mgrwt>
<rscale>  0 0.58221242E+03</rscale>
<asrwt>0</asrwt>
<pdfrwt beam="1">  1        2 0.11482220E+00 0.58221242E+03</pdfrwt>
<pdfrwt beam="2">  1       -2 0.11093538E+00 0.58221242E+03</pdfrwt>
<totfact> 0.25059209E+01</totfact>
</mgrwt>
</event>
<event>
 4    1  0.6912310E-008  0.4335963E+03  0.7818608E-02  0.1032730E+00
          2   -1    0    0  501    0  0.00000000000E+00  0.00000000000E+00  0.19244594678E+04  0.19244594678E+04  0.25500000000E-02 0. -1.
         -2   -1    0    0    0  501 -0.00000000000E+00 -0.00000000000E+00 -0.66410506819E+03  0.66410506819E+03  0.25500000000E-02 0.  1.
    8880022    1    1    2    0    0 -0.38960216731E+03  0.11324407496E+03  0.18254772889E+04  0.18762657207E+04  0.15294330000E+03 0.  0.
    8880022    1    1    2    0    0  0.38960216731E+03 -0.11324407496E+03 -0.56512288929E+03  0.71229881531E+03  0.15294330000E+03 0.  1.
<mgrwt>
<rscale>  0 0.43359627E+03</rscale>
<asrwt>0</asrwt>
<pdfrwt beam="1">  1        2 0.29607069E+00 0.43359627E+03</pdfrwt>
<pdfrwt beam="2">  1       -2 0.10217001E+00 0.43359627E+03</pdfrwt>
<totfact> 0.63832367E+00</totfact>
</mgrwt>
</event>
<event>
 4    1  0.6912310E-008  0.2765052E+03  0.7818608E-02  0.1097613E+00
          2   -1    0    0  501    0  0.00000000000E+00  0.00000000000E+00  0.33887347365E+04  0.33887347365E+04  0.25500000000E-02 0. -1.
         -2   -1    0    0    0  501 -0.00000000000E+00 -0.00000000000E+00 -0.21150025169E+03  0.21150025171E+03  0.25500000000E-02 0.  1.
    8880022    1    1    2    0    0 -0.81090506845E+02 -0.21561028090E+03  0.32900150499E+04  0.33016138697E+04  0.15294330000E+03 0.  0.
    8880022    1    1    2    0    0  0.81090506845E+02  0.21561028090E+03 -0.11278056505E+03  0.29862111847E+03  0.15294330000E+03 0.  1.
<mgrwt>
<rscale>  0 0.27650518E+03</rscale>
<asrwt>0</asrwt>
<pdfrwt beam="1">  1        2 0.52134381E+00 0.27650518E+03</pdfrwt>
<pdfrwt beam="2">  1       -2 0.32538500E-01 0.27650518E+03</pdfrwt>
<totfact> 0.10649745E+01</totfact>
</mgrwt>
</event>
<event>
 4    1  0.6912310E-008  0.5454303E+03  0.7818608E-02  0.1002557E+00
         -2   -1    0    0    0  501 -0.00000000000E+00  0.00000000000E+00  0.69228303013E+03  0.69228303014E+03  0.25500000000E-02 0.  1.
          2   -1    0    0  501    0  0.00000000000E+00 -0.00000000000E+00 -0.99934374648E+03  0.99934374649E+03  0.25500000000E-02 0. -1.
    8880022    1    1    2    0    0 -0.43029258081E+01 -0.52353035558E+03 -0.79209910421E+03  0.96172511264E+03  0.15294330000E+03 0.  0.
    8880022    1    1    2    0    0  0.43029258081E+01  0.52353035558E+03  0.48503838786E+03  0.72990166399E+03  0.15294330000E+03 0.  0.
<mgrwt>
<rscale>  0 0.54543029E+03</rscale>
<asrwt>0</asrwt>
<pdfrwt beam="1">  1        2 0.15374519E+00 0.54543029E+03</pdfrwt>
<pdfrwt beam="2">  1       -2 0.10650508E+00 0.54543029E+03</pdfrwt>
<totfact> 0.18678147E+01</totfact>
</mgrwt>
</event>
<event>
 4    1  0.9666086E-008  0.1332571E+04  0.7818608E-02  0.9004127E-01
          2   -1    0    0  501    0  0.00000000000E+00  0.00000000000E+00  0.34050885486E+04  0.34050885486E+04  0.25500000000E-02 0. -1.
         -2   -1    0    0    0  501 -0.00000000000E+00 -0.00000000000E+00 -0.13250022739E+04  0.13250022739E+04  0.25500000000E-02 0.  1.
    8880022    1    1    2    0    0  0.12435349085E+04  0.45384481583E+03 -0.80168426363E+03  0.15551345592E+04  0.15294330000E+03 0.  0.
    8880022    1    1    2    0    0 -0.12435349085E+04 -0.45384481583E+03  0.28817705384E+04  0.31749562634E+04  0.15294330000E+03 0.  0.
<mgrwt>
<rscale>  0 0.13325711E+04</rscale>
<asrwt>0</asrwt>
<pdfrwt beam="1">  1        2 0.52385978E+00 0.13325711E+04</pdfrwt>
<pdfrwt beam="2">  1       -2 0.20384650E+00 0.13325711E+04</pdfrwt>
<totfact> 0.11509708E-01</totfact>
</mgrwt>
</event>
<event>
 4    1  0.6912310E-008  0.1176049E+04  0.7818608E-02  0.9134083E-01
         -2   -1    0    0    0  501 -0.00000000000E+00  0.00000000000E+00  0.92671211251E+03  0.92671211251E+03  0.25500000000E-02 0.  1.
          2   -1    0    0  501    0  0.00000000000E+00 -0.00000000000E+00 -0.26302713329E+04  0.26302713329E+04  0.25500000000E-02 0. -1.
    8880022    1    1    2    0    0  0.10378275765E+04 -0.53161467511E+03 -0.20215063203E+04  0.23387132567E+04  0.15294330000E+03 0.  0.
    8880022    1    1    2    0    0 -0.10378275765E+04  0.53161467511E+03  0.31794709988E+03  0.12182701887E+04  0.15294330000E+03 0.  0.
<mgrwt>
<rscale>  0 0.11760493E+04</rscale>
<asrwt>0</asrwt>
<pdfrwt beam="1">  1        2 0.40465712E+00 0.11760493E+04</pdfrwt>
<pdfrwt beam="2">  1       -2 0.14257110E+00 0.11760493E+04</pdfrwt>
<totfact> 0.98353309E-01</totfact>
</mgrwt>
</event>
<event>
 4    1  0.6912310E-008  0.6497613E+03  0.7818608E-02  0.9807227E-01
          2   -1    0    0  501    0  0.00000000000E+00  0.00000000000E+00  0.14406244486E+04  0.14406244486E+04  0.25500000000E-02 0. -1.
         -2   -1    0    0    0  501 -0.00000000000E+00 -0.00000000000E+00 -0.66831834266E+03  0.66831834266E+03  0.25500000000E-02 0.  1.
    8880022    1    1    2    0    0  0.59815513998E+03  0.20250564419E+03  0.11763005095E+04  0.13438276114E+04  0.15294330000E+03 0.  0.
    8880022    1    1    2    0    0 -0.59815513998E+03 -0.20250564419E+03 -0.40399440354E+03  0.76511517991E+03  0.15294330000E+03 0.  1.
<mgrwt>
<rscale>  0 0.64976131E+03</rscale>
<asrwt>0</asrwt>
<pdfrwt beam="1">  1        2 0.22163453E+00 0.64976131E+03</pdfrwt>
<pdfrwt beam="2">  1       -2 0.10281821E+00 0.64976131E+03</pdfrwt>
<totfact> 0.11009897E+01</totfact>
</mgrwt>
</event>
<event>
 4    1  0.6912310E-008  0.5262180E+03  0.7818608E-02  0.1007153E+00
          2   -1    0    0  501    0  0.00000000000E+00  0.00000000000E+00  0.13522552910E+04  0.13522552910E+04  0.25500000000E-02 0. -1.
         -2   -1    0    0    0  501 -0.00000000000E+00 -0.00000000000E+00 -0.45926839963E+03  0.45926839964E+03  0.25500000000E-02 0.  1.
    8880022    1    1    2    0    0 -0.31380063864E+03 -0.39375483620E+03 -0.22775617873E+03  0.57339187455E+03  0.15294330000E+03 0.  0.
    8880022    1    1    2    0    0  0.31380063864E+03  0.39375483620E+03  0.11207430701E+04  0.12381318161E+04  0.15294330000E+03 0.  0.
<mgrwt>
<rscale>  0 0.52621798E+03</rscale>
<asrwt>0</asrwt>
<pdfrwt beam="1">  1        2 0.20803927E+00 0.52621798E+03</pdfrwt>
<pdfrwt beam="2">  1       -2 0.70656679E-01 0.52621798E+03</pdfrwt>
<totfact> 0.29521970E+01</totfact>
</mgrwt>
</event>
<event>
 4    1  0.6912310E-008  0.1361495E+04  0.7818608E-02  0.8982172E-01
          2   -1    0    0  501    0  0.00000000000E+00  0.00000000000E+00  0.30488462734E+04  0.30488462734E+04  0.25500000000E-02 0. -1.
         -2   -1    0    0    0  501 -0.00000000000E+00 -0.00000000000E+00 -0.79886361347E+03  0.79886361347E+03  0.25500000000E-02 0.  1.
    8880022    1    1    2    0    0 -0.11770642949E+04 -0.66692988400E+03  0.18459881633E+03  0.13739520372E+04  0.15294330000E+03 0.  0.
    8880022    1    1    2    0    0  0.11770642949E+04  0.66692988400E+03  0.20653838436E+04  0.24737578497E+04  0.15294330000E+03 0.  0.
<mgrwt>
<rscale>  0 0.13614946E+04</rscale>
<asrwt>0</asrwt>
<pdfrwt beam="1">  1        2 0.46905327E+00 0.13614946E+04</pdfrwt>
<pdfrwt beam="2">  1       -2 0.12290210E+00 0.13614946E+04</pdfrwt>
<totfact> 0.78541037E-01</totfact>
</mgrwt>
</event>
<event>
 4    1  0.6912310E-008  0.6800594E+03  0.7818608E-02  0.9751954E-01
         -2   -1    0    0    0  501 -0.00000000000E+00  0.00000000000E+00  0.11379111300E+04  0.11379111300E+04  0.25500000000E-02 0.  1.
          2   -1    0    0  501    0  0.00000000000E+00 -0.00000000000E+00 -0.10351731088E+04  0.10351731089E+04  0.25500000000E-02 0. -1.
    8880022    1    1    2    0    0  0.61939403981E+03  0.23545730187E+03 -0.79542315456E+03  0.10465078907E+04  0.15294330000E+03 0.  0.
    8880022    1    1    2    0    0 -0.61939403981E+03 -0.23545730187E+03  0.89816117571E+03  0.11265763481E+04  0.15294330000E+03 0.  0.
<mgrwt>
<rscale>  0 0.68005939E+03</rscale>
<asrwt>0</asrwt>
<pdfrwt beam="1">  1        2 0.15925740E+00 0.68005939E+03</pdfrwt>
<pdfrwt beam="2">  1       -2 0.17506325E+00 0.68005939E+03</pdfrwt>
<totfact> 0.48437876E+00</totfact>
</mgrwt>
</event>
<event>
 4    1  0.6912310E-008  0.7016675E+03  0.7818608E-02  0.9714385E-01
          2   -1    0    0  501    0  0.00000000000E+00  0.00000000000E+00  0.30592388384E+04  0.30592388384E+04  0.25500000000E-02 0. -1.
         -2   -1    0    0    0  501 -0.00000000000E+00 -0.00000000000E+00 -0.31531662193E+03  0.31531662194E+03  0.25500000000E-02 0.  1.
    8880022    1    1    2    0    0  0.35527596591E+03 -0.58542688712E+03  0.19133729702E+03  0.72728760911E+03  0.15294330000E+03 0.  0.
    8880022    1    1    2    0    0 -0.35527596591E+03  0.58542688712E+03  0.25525849195E+04  0.26472678512E+04  0.15294330000E+03 0. -1.
<mgrwt>
<rscale>  0 0.70166752E+03</rscale>
<asrwt>0</asrwt>
<pdfrwt beam="1">  1        2 0.47065211E+00 0.70166752E+03</pdfrwt>
<pdfrwt beam="2">  1       -2 0.48510252E-01 0.70166752E+03</pdfrwt>
<totfact> 0.69249633E+00</totfact>
</mgrwt>
</event>
<event>
 4    1  0.6912310E-008  0.2465658E+03  0.7818608E-02  0.1115495E+00
         -2   -1    0    0    0  501 -0.00000000000E+00  0.00000000000E+00  0.40412264355E+03  0.40412264356E+03  0.25500000000E-02 0.  1.
          2   -1    0    0  501    0  0.00000000000E+00 -0.00000000000E+00 -0.96671851903E+03  0.96671851904E+03  0.25500000000E-02 0. -1.
    8880022    1    1    2    0    0 -0.10981102006E+03 -0.15919981219E+03 -0.91113368272E+03  0.94390639426E+03  0.15294330000E+03 0. -1.
    8880022    1    1    2    0    0  0.10981102006E+03  0.15919981219E+03  0.34853780724E+03  0.42693476834E+03  0.15294330000E+03 0.  0.
<mgrwt>
<rscale>  0 0.24656580E+03</rscale>
<asrwt>0</asrwt>
<pdfrwt beam="1">  1        2 0.14872593E+00 0.24656580E+03</pdfrwt>
<pdfrwt beam="2">  1       -2 0.62172715E-01 0.24656580E+03</pdfrwt>
<totfact> 0.68945344E+01</totfact>
</mgrwt>
</event>
<event>
 4    1  0.6912310E-008  0.5866210E+03  0.7818608E-02  0.9933559E-01
         -2   -1    0    0    0  501 -0.00000000000E+00  0.00000000000E+00  0.23333356852E+03  0.23333356853E+03  0.25500000000E-02 0.  1.
          2   -1    0    0  501    0  0.00000000000E+00 -0.00000000000E+00 -0.36505965616E+04  0.36505965616E+04  0.25500000000E-02 0. -1.
    8880022    1    1    2    0    0 -0.56123340148E+03  0.75826266783E+02 -0.32078570808E+04  0.32610537035E+04  0.15294330000E+03 0.  0.
    8880022    1    1    2    0    0  0.56123340148E+03 -0.75826266783E+02 -0.20940591229E+03  0.62287642657E+03  0.15294330000E+03 0.  0.
<mgrwt>
<rscale>  0 0.58662101E+03</rscale>
<asrwt>0</asrwt>
<pdfrwt beam="1">  1        2 0.56163020E+00 0.58662101E+03</pdfrwt>
<pdfrwt beam="2">  1       -2 0.35897475E-01 0.58662101E+03</pdfrwt>
<totfact> 0.52448023E+00</totfact>
</mgrwt>
</event>
<event>
 4    1  0.6912310E-008  0.2097645E+03  0.7818608E-02  0.1141753E+00
          2   -1    0    0  501    0  0.00000000000E+00  0.00000000000E+00  0.27997926045E+04  0.27997926045E+04  0.25500000000E-02 0. -1.
         -2   -1    0    0    0  501 -0.00000000000E+00 -0.00000000000E+00 -0.79364352371E+02  0.79364352412E+02  0.25500000000E-02 0.  1.
    8880022    1    1    2    0    0  0.12417334896E+02  0.14302202365E+03  0.71024877256E+02  0.22146258298E+03  0.15294330000E+03 0.  1.
    8880022    1    1    2    0    0 -0.12417334896E+02 -0.14302202365E+03  0.26494033749E+04  0.26576943740E+04  0.15294330000E+03 0.  0.
<mgrwt>
<rscale>  0 0.20976449E+03</rscale>
<asrwt>0</asrwt>
<pdfrwt beam="1">  1        2 0.43073726E+00 0.20976449E+03</pdfrwt>
<pdfrwt beam="2">  1       -2 0.12209902E-01 0.20976449E+03</pdfrwt>
<totfact> 0.13454440E+02</totfact>
</mgrwt>
</event>
<event>
 4    1  0.6912310E-008  0.5275318E+03  0.7818608E-02  0.1006832E+00
          2   -1    0    0  501    0  0.00000000000E+00  0.00000000000E+00  0.13836984588E+04  0.13836984588E+04  0.25500000000E-02 0. -1.
         -2   -1    0    0    0  501 -0.00000000000E+00 -0.00000000000E+00 -0.63831202362E+03  0.63831202363E+03  0.25500000000E-02 0.  1.
    8880022    1    1    2    0    0  0.11619079282E+03 -0.49132258564E+03  0.12093991821E+04  0.13194454207E+04  0.15294330000E+03 0.  0.
    8880022    1    1    2    0    0 -0.11619079282E+03  0.49132258564E+03 -0.46401274699E+03  0.70256506167E+03  0.15294330000E+03 0.  0.
<mgrwt>
<rscale>  0 0.52753183E+03</rscale>
<asrwt>0</asrwt>
<pdfrwt beam="1">  1        2 0.21287668E+00 0.52753183E+03</pdfrwt>
<pdfrwt beam="2">  1       -2 0.98201851E-01 0.52753183E+03</pdfrwt>
<totfact> 0.13479263E+01</totfact>
</mgrwt>
</event>
<event>
 4    1  0.6912310E-008  0.2214027E+03  0.7818608E-02  0.1132842E+00
         -2   -1    0    0    0  501 -0.00000000000E+00  0.00000000000E+00  0.76824160566E+02  0.76824160608E+02  0.25500000000E-02 0.  1.
          2   -1    0    0  501    0  0.00000000000E+00 -0.00000000000E+00 -0.24555100819E+04  0.24555100819E+04  0.25500000000E-02 0. -1.
    8880022    1    1    2    0    0  0.47030219004E+02  0.15302175688E+03 -0.10003598806E+03  0.24295339368E+03  0.15294330000E+03 0.  0.
    8880022    1    1    2    0    0 -0.47030219004E+02 -0.15302175688E+03 -0.22786499332E+04  0.22893808488E+04  0.15294330000E+03 0. -1.
<mgrwt>
<rscale>  0 0.22140269E+03</rscale>
<asrwt>0</asrwt>
<pdfrwt beam="1">  1        2 0.37777072E+00 0.22140269E+03</pdfrwt>
<pdfrwt beam="2">  1       -2 0.11819103E-01 0.22140269E+03</pdfrwt>
<totfact> 0.21887988E+02</totfact>
</mgrwt>
</event>
<event>
 4    1  0.6912310E-008  0.1646227E+04  0.7818608E-02  0.8792642E-01
         -2   -1    0    0    0  501 -0.00000000000E+00  0.00000000000E+00  0.19016715289E+04  0.19016715289E+04  0.25500000000E-02 0.  1.
          2   -1    0    0  501    0  0.00000000000E+00 -0.00000000000E+00 -0.15503041066E+04  0.15503041066E+04  0.25500000000E-02 0. -1.
    8880022    1    1    2    0    0  0.10876740153E+04 -0.12262287384E+04 -0.31482480675E+03  0.16760602598E+04  0.15294330000E+03 0.  0.
    8880022    1    1    2    0    0 -0.10876740153E+04  0.12262287384E+04  0.66619222910E+03  0.17759153757E+04  0.15294330000E+03 0.  0.
<mgrwt>
<rscale>  0 0.16462270E+04</rscale>
<asrwt>0</asrwt>
<pdfrwt beam="1">  1        2 0.23850833E+00 0.16462270E+04</pdfrwt>
<pdfrwt beam="2">  1       -2 0.29256485E+00 0.16462270E+04</pdfrwt>
<totfact> 0.38880903E-01</totfact>
</mgrwt>
</event>
<event>
 4    1  0.6912310E-008  0.4426973E+03  0.7818608E-02  0.1029922E+00
          2   -1    0    0  501    0  0.00000000000E+00  0.00000000000E+00  0.31266501584E+03  0.31266501585E+03  0.25500000000E-02 0. -1.
         -2   -1    0    0    0  501 -0.00000000000E+00 -0.00000000000E+00 -0.10634712993E+04  0.10634712993E+04  0.25500000000E-02 0.  1.
    8880022    1    1    2    0    0  0.41287419464E+03  0.46088306039E+02 -0.81630506670E+03  0.92861986167E+03  0.15294330000E+03 0.  0.
    8880022    1    1    2    0    0 -0.41287419464E+03 -0.46088306039E+02  0.65498783197E+02  0.44751645352E+03  0.15294330000E+03 0.  0.
<mgrwt>
<rscale>  0 0.44269728E+03</rscale>
<asrwt>0</asrwt>
<pdfrwt beam="1">  1        2 0.48102311E-01 0.44269728E+03</pdfrwt>
<pdfrwt beam="2">  1       -2 0.16361097E+00 0.44269728E+03</pdfrwt>
<totfact> 0.25924170E+01</totfact>
</mgrwt>
</event>
<event>
 4    1  0.6912310E-008  0.2585491E+03  0.7818608E-02  0.1108018E+00
          2   -1    0    0  501    0  0.00000000000E+00  0.00000000000E+00  0.63799479698E+03  0.63799479698E+03  0.25500000000E-02 0. -1.
         -2   -1    0    0    0  501 -0.00000000000E+00 -0.00000000000E+00 -0.21655583437E+03  0.21655583438E+03  0.25500000000E-02 0.  1.
    8880022    1    1    2    0    0 -0.66866669044E+02  0.19744574792E+03  0.51769326450E+03  0.57866565815E+03  0.15294330000E+03 0.  0.
    8880022    1    1    2    0    0  0.66866669044E+02 -0.19744574792E+03 -0.96254301885E+02  0.27588497322E+03  0.15294330000E+03 0.  0.
<mgrwt>
<rscale>  0 0.25854908E+03</rscale>
<asrwt>0</asrwt>
<pdfrwt beam="1">  1        2 0.98153044E-01 0.25854908E+03</pdfrwt>
<pdfrwt beam="2">  1       -2 0.33316283E-01 0.25854908E+03</pdfrwt>
<totfact> 0.39825779E+02</totfact>
</mgrwt>
</event>
<event>
 4    1  0.6912310E-008  0.9497712E+03  0.7818608E-02  0.9365418E-01
         -2   -1    0    0    0  501 -0.00000000000E+00  0.00000000000E+00  0.57376284665E+03  0.57376284666E+03  0.25500000000E-02 0.  1.
          2   -1    0    0  501    0  0.00000000000E+00 -0.00000000000E+00 -0.25032469536E+04  0.25032469536E+04  0.25500000000E-02 0. -1.
    8880022    1    1    2    0    0 -0.47066122528E+03  0.81064892671E+03 -0.19030269090E+04  0.21268701749E+04  0.15294330000E+03 0.  0.
    8880022    1    1    2    0    0  0.47066122528E+03 -0.81064892671E+03 -0.26457197930E+02  0.95013962537E+03  0.15294330000E+03 0.  0.
<mgrwt>
<rscale>  0 0.94977120E+03</rscale>
<asrwt>0</asrwt>
<pdfrwt beam="1">  1        2 0.38511491E+00 0.94977120E+03</pdfrwt>
<pdfrwt beam="2">  1       -2 0.88271208E-01 0.94977120E+03</pdfrwt>
<totfact> 0.38945815E+00</totfact>
</mgrwt>
</event>
<event>
 4    1  0.6912310E-008  0.5099399E+03  0.7818608E-02  0.1011217E+00
          2   -1    0    0  501    0  0.00000000000E+00  0.00000000000E+00  0.20153280227E+04  0.20153280227E+04  0.25500000000E-02 0. -1.
         -2   -1    0    0    0  501 -0.00000000000E+00 -0.00000000000E+00 -0.51904050628E+03  0.51904050629E+03  0.25500000000E-02 0.  1.
    8880022    1    1    2    0    0 -0.47146740496E+03 -0.11985643349E+03 -0.35029799918E+03  0.61866583859E+03  0.15294330000E+03 0.  0.
    8880022    1    1    2    0    0  0.47146740496E+03  0.11985643349E+03  0.18465855156E+04  0.19157026904E+04  0.15294330000E+03 0.  0.
<mgrwt>
<rscale>  0 0.50993993E+03</rscale>
<asrwt>0</asrwt>
<pdfrwt beam="1">  1        2 0.31005047E+00 0.50993993E+03</pdfrwt>
<pdfrwt beam="2">  1       -2 0.79852385E-01 0.50993993E+03</pdfrwt>
<totfact> 0.98505261E+00</totfact>
</mgrwt>
</event>
<event>
 4    1  0.6912310E-008  0.7538087E+03  0.7818608E-02  0.9629394E-01
         -2   -1    0    0    0  501 -0.00000000000E+00  0.00000000000E+00  0.36373847003E+03  0.36373847004E+03  0.25500000000E-02 0.  1.
          2   -1    0    0  501    0  0.00000000000E+00 -0.00000000000E+00 -0.31376502769E+04  0.31376502769E+04  0.25500000000E-02 0. -1.
    8880022    1    1    2    0    0  0.35445144656E+03 -0.64745661818E+03 -0.26274999640E+04  0.27334929329E+04  0.15294330000E+03 0.  0.
    8880022    1    1    2    0    0 -0.35445144656E+03  0.64745661818E+03 -0.14641184281E+03  0.76789581398E+03  0.15294330000E+03 0.  0.
<mgrwt>
<rscale>  0 0.75380870E+03</rscale>
<asrwt>0</asrwt>
<pdfrwt beam="1">  1        2 0.48271541E+00 0.75380870E+03</pdfrwt>
<pdfrwt beam="2">  1       -2 0.55959767E-01 0.75380870E+03</pdfrwt>
<totfact> 0.45683489E+00</totfact>
</mgrwt>
</event>
<event>
 4    1  0.6912310E-008  0.6309586E+03  0.7818608E-02  0.9843180E-01
          2   -1    0    0  501    0  0.00000000000E+00  0.00000000000E+00  0.17558199963E+04  0.17558199963E+04  0.25500000000E-02 0. -1.
         -2   -1    0    0    0  501 -0.00000000000E+00 -0.00000000000E+00 -0.39969683701E+03  0.39969683702E+03  0.25500000000E-02 0.  1.
    8880022    1    1    2    0    0 -0.60840341065E+03  0.67545830518E+02  0.13870336043E+04  0.15238015034E+04  0.15294330000E+03 0.  0.
    8880022    1    1    2    0    0  0.60840341065E+03 -0.67545830518E+02 -0.30910445103E+02  0.63171532983E+03  0.15294330000E+03 0.  0.
<mgrwt>
<rscale>  0 0.63095864E+03</rscale>
<asrwt>0</asrwt>
<pdfrwt beam="1">  1        2 0.27012615E+00 0.63095864E+03</pdfrwt>
<pdfrwt beam="2">  1       -2 0.61491821E-01 0.63095864E+03</pdfrwt>
<totfact> 0.23474215E+01</totfact>
</mgrwt>
</event>
<event>
 4    1  0.6912310E-008  0.3167882E+03  0.7818608E-02  0.1077137E+00
         -2   -1    0    0    0  501 -0.00000000000E+00  0.00000000000E+00  0.19508055804E+03  0.19508055806E+03  0.25500000000E-02 0.  1.
          2   -1    0    0  501    0  0.00000000000E+00 -0.00000000000E+00 -0.26024327716E+04  0.26024327716E+04  0.25500000000E-02 0. -1.
    8880022    1    1    2    0    0 -0.24773474109E+03  0.12486240873E+03  0.49229115465E+02  0.32059052058E+03  0.15294330000E+03 0.  0.
    8880022    1    1    2    0    0  0.24773474109E+03 -0.12486240873E+03 -0.24565813290E+04  0.24769228090E+04  0.15294330000E+03 0. -1.
<mgrwt>
<rscale>  0 0.31678822E+03</rscale>
<asrwt>0</asrwt>
<pdfrwt beam="1">  1        2 0.40037425E+00 0.31678822E+03</pdfrwt>
<pdfrwt beam="2">  1       -2 0.30012395E-01 0.31678822E+03</pdfrwt>
<totfact> 0.35741242E+01</totfact>
</mgrwt>
</event>
<event>
 4    1  0.6912310E-008  0.3260738E+03  0.7818608E-02  0.1072887E+00
         -2   -1    0    0    0  501 -0.00000000000E+00  0.00000000000E+00  0.41626514354E+03  0.41626514355E+03  0.25500000000E-02 0.  1.
          2   -1    0    0  501    0  0.00000000000E+00 -0.00000000000E+00 -0.10117768382E+04  0.10117768383E+04  0.25500000000E-02 0. -1.
    8880022    1    1    2    0    0 -0.13189052303E+03  0.25600259523E+03  0.31959328830E+03  0.45657853845E+03  0.15294330000E+03 0.  1.
    8880022    1    1    2    0    0  0.13189052303E+03 -0.25600259523E+03 -0.91510498301E+03  0.97146344335E+03  0.15294330000E+03 0.  0.
<mgrwt>
<rscale>  0 0.32607375E+03</rscale>
<asrwt>0</asrwt>
<pdfrwt beam="1">  1        2 0.15565797E+00 0.32607375E+03</pdfrwt>
<pdfrwt beam="2">  1       -2 0.64040792E-01 0.32607375E+03</pdfrwt>
<totfact> 0.59726268E+01</totfact>
</mgrwt>
</event>
<event>
 4    1  0.6912310E-008  0.2847394E+03  0.7818608E-02  0.1093128E+00
         -2   -1    0    0    0  501 -0.00000000000E+00  0.00000000000E+00  0.17038601202E+03  0.17038601204E+03  0.25500000000E-02 0.  1.
          2   -1    0    0  501    0  0.00000000000E+00 -0.00000000000E+00 -0.84188678409E+03  0.84188678410E+03  0.25500000000E-02 0. -1.
    8880022    1    1    2    0    0 -0.23025013259E+03  0.68335440452E+02 -0.66949089265E+03  0.72752633240E+03  0.15294330000E+03 0.  0.
    8880022    1    1    2    0    0  0.23025013259E+03 -0.68335440452E+02 -0.20098794200E+01  0.28474646374E+03  0.15294330000E+03 0.  0.
<mgrwt>
<rscale>  0 0.28473937E+03</rscale>
<asrwt>0</asrwt>
<pdfrwt beam="1">  1        2 0.12952104E+00 0.28473937E+03</pdfrwt>
<pdfrwt beam="2">  1       -2 0.26213233E-01 0.28473937E+03</pdfrwt>
<totfact> 0.43584529E+02</totfact>
</mgrwt>
</event>
<event>
 4    1  0.6912310E-008  0.5218837E+03  0.7818608E-02  0.1008220E+00
          2   -1    0    0  501    0  0.00000000000E+00  0.00000000000E+00  0.93508580022E+03  0.93508580023E+03  0.25500000000E-02 0. -1.
         -2   -1    0    0    0  501 -0.00000000000E+00 -0.00000000000E+00 -0.57744272449E+03  0.57744272449E+03  0.25500000000E-02 0.  1.
    8880022    1    1    2    0    0 -0.45780141917E+03 -0.19846624227E+03 -0.35357237021E+03  0.63037771432E+03  0.15294330000E+03 0.  0.
    8880022    1    1    2    0    0  0.45780141917E+03  0.19846624227E+03  0.71121544595E+03  0.88215081040E+03  0.15294330000E+03 0.  0.
<mgrwt>
<rscale>  0 0.52188374E+03</rscale>
<asrwt>0</asrwt>
<pdfrwt beam="1">  1        2 0.14385935E+00 0.52188374E+03</pdfrwt>
<pdfrwt beam="2">  1       -2 0.88837344E-01 0.52188374E+03</pdfrwt>
<totfact> 0.31505767E+01</totfact>
</mgrwt>
</event>
<event>
 4    1  0.6912310E-008  0.4545368E+03  0.7818608E-02  0.1026378E+00
          2   -1    0    0  501    0  0.00000000000E+00  0.00000000000E+00  0.60345946372E+03  0.60345946373E+03  0.25500000000E-02 0. -1.
         -2   -1    0    0    0  501 -0.00000000000E+00 -0.00000000000E+00 -0.48041789458E+03  0.48041789459E+03  0.25500000000E-02 0.  1.
    8880022    1    1    2    0    0 -0.37648168985E+03  0.20365067304E+03 -0.22899016306E+03  0.50895992693E+03  0.15294330000E+03 0.  0.
    8880022    1    1    2    0    0  0.37648168985E+03 -0.20365067304E+03  0.35203173219E+03  0.57491743139E+03  0.15294330000E+03 0.  0.
<mgrwt>
<rscale>  0 0.45453681E+03</rscale>
<asrwt>0</asrwt>
<pdfrwt beam="1">  1        2 0.92839918E-01 0.45453681E+03</pdfrwt>
<pdfrwt beam="2">  1       -2 0.73910445E-01 0.45453681E+03</pdfrwt>
<totfact> 0.84087615E+01</totfact>
</mgrwt>
</event>
<event>
 4    1  0.6912310E-008  0.1138236E+04  0.7818608E-02  0.9168705E-01
          2   -1    0    0  501    0  0.00000000000E+00  0.00000000000E+00  0.92576808336E+03  0.92576808337E+03  0.25500000000E-02 0. -1.
         -2   -1    0    0    0  501 -0.00000000000E+00 -0.00000000000E+00 -0.15618190133E+04  0.15618190133E+04  0.25500000000E-02 0.  1.
    8880022    1    1    2    0    0  0.98603643497E+03  0.54765161441E+03 -0.71904166060E+03  0.13463293448E+04  0.15294330000E+03 0.  0.
    8880022    1    1    2    0    0 -0.98603643497E+03 -0.54765161441E+03  0.82990730686E+02  0.11412577519E+04  0.15294330000E+03 0. -1.
<mgrwt>
<rscale>  0 0.11382363E+04</rscale>
<asrwt>0</asrwt>
<pdfrwt beam="1">  1        2 0.14242586E+00 0.11382363E+04</pdfrwt>
<pdfrwt beam="2">  1       -2 0.24027985E+00 0.11382363E+04</pdfrwt>
<totfact> 0.20384012E+00</totfact>
</mgrwt>
</event>
<event>
 4    1  0.6912310E-008  0.6024511E+03  0.7818608E-02  0.9900334E-01
          2   -1    0    0  501    0  0.00000000000E+00  0.00000000000E+00  0.11054832703E+04  0.11054832703E+04  0.25500000000E-02 0. -1.
         -2   -1    0    0    0  501 -0.00000000000E+00 -0.00000000000E+00 -0.73096126980E+03  0.73096126980E+03  0.25500000000E-02 0.  1.
    8880022    1    1    2    0    0  0.48008706901E+03 -0.33026068905E+03 -0.49423321125E+03  0.77923926793E+03  0.15294330000E+03 0.  0.
    8880022    1    1    2    0    0 -0.48008706901E+03  0.33026068905E+03  0.86875521176E+03  0.10572052722E+04  0.15294330000E+03 0.  0.
<mgrwt>
<rscale>  0 0.60245113E+03</rscale>
<asrwt>0</asrwt>
<pdfrwt beam="1">  1        2 0.17007435E+00 0.60245113E+03</pdfrwt>
<pdfrwt beam="2">  1       -2 0.11245558E+00 0.60245113E+03</pdfrwt>
<totfact> 0.13970802E+01</totfact>
</mgrwt>
</event>
<event>
 4    1  0.6912310E-008  0.2853039E+03  0.7818608E-02  0.1092827E+00
         -2   -1    0    0    0  501 -0.00000000000E+00  0.00000000000E+00  0.45822624749E+03  0.45822624750E+03  0.25500000000E-02 0.  1.
          2   -1    0    0  501    0  0.00000000000E+00 -0.00000000000E+00 -0.42720195428E+03  0.42720195429E+03  0.25500000000E-02 0. -1.
    8880022    1    1    2    0    0 -0.22609041043E+03  0.83004765412E+02 -0.32286249883E+03  0.43085787789E+03  0.15294330000E+03 0.  0.
    8880022    1    1    2    0    0  0.22609041043E+03 -0.83004765412E+02  0.35388679204E+03  0.45457032390E+03  0.15294330000E+03 0. -1.
<mgrwt>
<rscale>  0 0.28530390E+03</rscale>
<asrwt>0</asrwt>
<pdfrwt beam="1">  1        2 0.65723377E-01 0.28530390E+03</pdfrwt>
<pdfrwt beam="2">  1       -2 0.70496346E-01 0.28530390E+03</pdfrwt>
<totfact> 0.14060857E+02</totfact>
</mgrwt>
</event>
<event>
 4    1  0.6912310E-008  0.4123929E+03  0.7818608E-02  0.1039571E+00
          2   -1    0    0  501    0  0.00000000000E+00  0.00000000000E+00  0.24966156214E+04  0.24966156214E+04  0.25500000000E-02 0. -1.
         -2   -1    0    0    0  501 -0.00000000000E+00 -0.00000000000E+00 -0.13767023734E+03  0.13767023736E+03  0.25500000000E-02 0.  1.
    8880022    1    1    2    0    0 -0.32000376924E+03 -0.21041344905E+03  0.24328236963E+03  0.47880496682E+03  0.15294330000E+03 0.  0.
    8880022    1    1    2    0    0  0.32000376924E+03  0.21041344905E+03  0.21156630145E+04  0.21554808920E+04  0.15294330000E+03 0. -1.
<mgrwt>
<rscale>  0 0.41239288E+03</rscale>
<asrwt>0</asrwt>
<pdfrwt beam="1">  1        2 0.38409472E+00 0.41239288E+03</pdfrwt>
<pdfrwt beam="2">  1       -2 0.21180036E-01 0.41239288E+03</pdfrwt>
<totfact> 0.74189034E+01</totfact>
</mgrwt>
</event>
<event>
 4    1  0.6912310E-008  0.1777532E+03  0.7818608E-02  0.1169995E+00
         -2   -1    0    0    0  501 -0.00000000000E+00  0.00000000000E+00  0.85917391840E+02  0.85917391878E+02  0.25500000000E-02 0.  1.
          2   -1    0    0  501    0  0.00000000000E+00 -0.00000000000E+00 -0.14503173539E+04  0.14503173539E+04  0.25500000000E-02 0. -1.
    8880022    1    1    2    0    0 -0.88563619206E+02 -0.19000699830E+02 -0.13458259276E+04  0.13575137649E+04  0.15294330000E+03 0. -1.
    8880022    1    1    2    0    0  0.88563619206E+02  0.19000699830E+02 -0.18574034377E+02  0.17872098089E+03  0.15294330000E+03 0. -1.
<mgrwt>
<rscale>  0 0.17775318E+03</rscale>
<asrwt>0</asrwt>
<pdfrwt beam="1">  1        2 0.22312573E+00 0.17775318E+03</pdfrwt>
<pdfrwt beam="2">  1       -2 0.13218061E-01 0.17775318E+03</pdfrwt>
<totfact> 0.62237694E+02</totfact>
</mgrwt>
</event>
<event>
 4    1  0.6912310E-008  0.5536598E+03  0.7818608E-02  0.1000650E+00
          2   -1    0    0  501    0  0.00000000000E+00  0.00000000000E+00  0.90408021346E+03  0.90408021346E+03  0.25500000000E-02 0. -1.
         -2   -1    0    0    0  501 -0.00000000000E+00 -0.00000000000E+00 -0.43934966350E+03  0.43934966350E+03  0.25500000000E-02 0.  1.
    8880022    1    1    2    0    0 -0.37973579909E+02 -0.53075942151E+03 -0.88559836453E+02  0.56069782766E+03  0.15294330000E+03 0.  0.
    8880022    1    1    2    0    0  0.37973579909E+02  0.53075942151E+03  0.55329038641E+03  0.78273204930E+03  0.15294330000E+03 0.  0.
<mgrwt>
<rscale>  0 0.55365983E+03</rscale>
<asrwt>0</asrwt>
<pdfrwt beam="1">  1        2 0.13908926E+00 0.55365983E+03</pdfrwt>
<pdfrwt beam="2">  1       -2 0.67592256E-01 0.55365983E+03</pdfrwt>
<totfact> 0.60372767E+01</totfact>
</mgrwt>
</event>
<event>
 4    1  0.6912310E-008  0.1459209E+04  0.7818608E-02  0.8912041E-01
         -2   -1    0    0    0  501 -0.00000000000E+00  0.00000000000E+00  0.15882511342E+04  0.15882511342E+04  0.25500000000E-02 0.  1.
          2   -1    0    0  501    0  0.00000000000E+00 -0.00000000000E+00 -0.14505895314E+04  0.14505895314E+04  0.25500000000E-02 0. -1.
    8880022    1    1    2    0    0 -0.91118875784E+03  0.11294401942E+04 -0.34946068977E+03  0.15004714364E+04  0.15294330000E+03 0.  0.
    8880022    1    1    2    0    0  0.91118875784E+03 -0.11294401942E+04  0.48712229257E+03  0.15383692293E+04  0.15294330000E+03 0.  0.
<mgrwt>
<rscale>  0 0.14592093E+04</rscale>
<asrwt>0</asrwt>
<pdfrwt beam="1">  1        2 0.22316762E+00 0.14592093E+04</pdfrwt>
<pdfrwt beam="2">  1       -2 0.24434633E+00 0.14592093E+04</pdfrwt>
<totfact> 0.89066619E-01</totfact>
</mgrwt>
</event>
<event>
 4    1  0.6912310E-008  0.1296523E+04  0.7818608E-02  0.9032327E-01
         -2   -1    0    0    0  501 -0.00000000000E+00  0.00000000000E+00  0.14143239169E+04  0.14143239169E+04  0.25500000000E-02 0.  1.
          2   -1    0    0  501    0  0.00000000000E+00 -0.00000000000E+00 -0.21879475874E+04  0.21879475874E+04  0.25500000000E-02 0. -1.
    8880022    1    1    2    0    0  0.12125253768E+04  0.43285415447E+03 -0.16041201807E+04  0.20625648391E+04  0.15294330000E+03 0.  0.
    8880022    1    1    2    0    0 -0.12125253768E+04 -0.43285415447E+03  0.83049651019E+03  0.15397066652E+04  0.15294330000E+03 0.  0.
<mgrwt>
<rscale>  0 0.12965231E+04</rscale>
<asrwt>0</asrwt>
<pdfrwt beam="1">  1        2 0.33660732E+00 0.12965231E+04</pdfrwt>
<pdfrwt beam="2">  1       -2 0.21758830E+00 0.12965231E+04</pdfrwt>
<totfact> 0.51587444E-01</totfact>
</mgrwt>
</event>
<event>
 4    1  0.6912310E-008  0.3953243E+03  0.7818608E-02  0.1045411E+00
         -2   -1    0    0    0  501 -0.00000000000E+00  0.00000000000E+00  0.45320503641E+03  0.45320503642E+03  0.25500000000E-02 0.  1.
          2   -1    0    0  501    0  0.00000000000E+00 -0.00000000000E+00 -0.12058295257E+04  0.12058295257E+04  0.25500000000E-02 0. -1.
    8880022    1    1    2    0    0  0.21743255901E+03 -0.29259646961E+03 -0.10772549265E+04  0.11475013906E+04  0.15294330000E+03 0.  0.
    8880022    1    1    2    0    0 -0.21743255901E+03  0.29259646961E+03  0.32463043723E+03  0.51153317149E+03  0.15294330000E+03 0.  0.
<mgrwt>
<rscale>  0 0.39532425E+03</rscale>
<asrwt>0</asrwt>
<pdfrwt beam="1">  1        2 0.18551223E+00 0.39532425E+03</pdfrwt>
<pdfrwt beam="2">  1       -2 0.69723852E-01 0.39532425E+03</pdfrwt>
<totfact> 0.37669613E+01</totfact>
</mgrwt>
</event>
<event>
 4    1  0.6912310E-008  0.3335116E+03  0.7818608E-02  0.1069594E+00
         -2   -1    0    0    0  501 -0.00000000000E+00  0.00000000000E+00  0.23631493578E+03  0.23631493579E+03  0.25500000000E-02 0.  1.
          2   -1    0    0  501    0  0.00000000000E+00 -0.00000000000E+00 -0.12359744950E+04  0.12359744950E+04  0.25500000000E-02 0. -1.
    8880022    1    1    2    0    0  0.64400235096E+02 -0.28929388696E+03  0.79427098349E+02  0.34283911720E+03  0.15294330000E+03 0.  1.
    8880022    1    1    2    0    0 -0.64400235096E+02  0.28929388696E+03 -0.10790866576E+04  0.11294503136E+04  0.15294330000E+03 0.  0.
<mgrwt>
<rscale>  0 0.33351161E+03</rscale>
<asrwt>0</asrwt>
<pdfrwt beam="1">  1        2 0.19014992E+00 0.33351161E+03</pdfrwt>
<pdfrwt beam="2">  1       -2 0.36356144E-01 0.33351161E+03</pdfrwt>
<totfact> 0.13629009E+02</totfact>
</mgrwt>
</event>
<event>
 4    1  0.6912310E-008  0.2697137E+03  0.7818608E-02  0.1101444E+00
         -2   -1    0    0    0  501 -0.00000000000E+00  0.00000000000E+00  0.37386326134E+03  0.37386326135E+03  0.25500000000E-02 0.  1.
          2   -1    0    0  501    0  0.00000000000E+00 -0.00000000000E+00 -0.21520264041E+03  0.21520264043E+03  0.25500000000E-02 0. -1.
    8880022    1    1    2    0    0  0.22214851414E+03  0.19684564123E+01  0.17051153276E+03  0.31909195066E+03  0.15294330000E+03 0.  0.
    8880022    1    1    2    0    0 -0.22214851414E+03 -0.19684564123E+01 -0.11850911840E+02  0.26997395111E+03  0.15294330000E+03 0.  1.
<mgrwt>
<rscale>  0 0.26971372E+03</rscale>
<asrwt>0</asrwt>
<pdfrwt beam="1">  1        2 0.33108099E-01 0.26971372E+03</pdfrwt>
<pdfrwt beam="2">  1       -2 0.57517424E-01 0.26971372E+03</pdfrwt>
<totfact> 0.45572038E+02</totfact>
</mgrwt>
</event>
<event>
 4    1  0.6912310E-008  0.6075450E+03  0.7818608E-02  0.9889875E-01
         -2   -1    0    0    0  501 -0.00000000000E+00  0.00000000000E+00  0.12959677069E+04  0.12959677069E+04  0.25500000000E-02 0.  1.
          2   -1    0    0  501    0  0.00000000000E+00 -0.00000000000E+00 -0.37815789292E+03  0.37815789293E+03  0.25500000000E-02 0. -1.
    8880022    1    1    2    0    0  0.28350111800E+03  0.51511784095E+03  0.87477940788E+03  0.10650586554E+04  0.15294330000E+03 0.  0.
    8880022    1    1    2    0    0 -0.28350111800E+03 -0.51511784095E+03  0.43030406121E+02  0.60906694446E+03  0.15294330000E+03 0.  0.
<mgrwt>
<rscale>  0 0.60754500E+03</rscale>
<asrwt>0</asrwt>
<pdfrwt beam="1">  1        2 0.58178138E-01 0.60754500E+03</pdfrwt>
<pdfrwt beam="2">  1       -2 0.19937964E+00 0.60754500E+03</pdfrwt>
<totfact> 0.11763492E+01</totfact>
</mgrwt>
</event>
<event>
 4    1  0.6912310E-008  0.4524553E+03  0.7818608E-02  0.1026992E+00
         -2   -1    0    0    0  501 -0.00000000000E+00  0.00000000000E+00  0.35253444580E+03  0.35253444581E+03  0.25500000000E-02 0.  1.
          2   -1    0    0  501    0  0.00000000000E+00 -0.00000000000E+00 -0.65669762731E+03  0.65669762732E+03  0.25500000000E-02 0. -1.
    8880022    1    1    2    0    0 -0.17172078175E+03 -0.38966158714E+03 -0.32374818860E+03  0.55635305519E+03  0.15294330000E+03 0.  0.
    8880022    1    1    2    0    0  0.17172078175E+03  0.38966158714E+03  0.19585007094E+02  0.45287901794E+03  0.15294330000E+03 0.  0.
<mgrwt>
<rscale>  0 0.45245534E+03</rscale>
<asrwt>0</asrwt>
<pdfrwt beam="1">  1        2 0.10103040E+00 0.45245534E+03</pdfrwt>
<pdfrwt beam="2">  1       -2 0.54236069E-01 0.45245534E+03</pdfrwt>
<totfact> 0.14646435E+02</totfact>
</mgrwt>
</event>
<event>
 4    1  0.6912310E-008  0.9170445E+03  0.7818608E-02  0.9404522E-01
         -2   -1    0    0    0  501 -0.00000000000E+00  0.00000000000E+00  0.14485814272E+04  0.14485814272E+04  0.25500000000E-02 0.  1.
          2   -1    0    0  501    0  0.00000000000E+00 -0.00000000000E+00 -0.77241904447E+03  0.77241904448E+03  0.25500000000E-02 0. -1.
    8880022    1    1    2    0    0 -0.68665660497E+03  0.58828710601E+03  0.89155514679E+03  0.12790000958E+04  0.15294330000E+03 0.  0.
    8880022    1    1    2    0    0  0.68665660497E+03 -0.58828710601E+03 -0.21539276411E+03  0.94200037584E+03  0.15294330000E+03 0.  0.
<mgrwt>
<rscale>  0 0.91704453E+03</rscale>
<asrwt>0</asrwt>
<pdfrwt beam="1">  1        2 0.11883370E+00 0.91704453E+03</pdfrwt>
<pdfrwt beam="2">  1       -2 0.22285868E+00 0.91704453E+03</pdfrwt>
<totfact> 0.34343141E+00</totfact>
</mgrwt>
</event>
<event>
 4    1  0.6912310E-008  0.4169464E+03  0.7818608E-02  0.1038065E+00
         -2   -1    0    0    0  501 -0.00000000000E+00  0.00000000000E+00  0.44528588258E+03  0.44528588259E+03  0.25500000000E-02 0.  1.
          2   -1    0    0  501    0  0.00000000000E+00 -0.00000000000E+00 -0.46715568874E+03  0.46715568875E+03  0.25500000000E-02 0. -1.
    8880022    1    1    2    0    0  0.38610179182E+03  0.37122070641E+02  0.17397908204E+03  0.45178868488E+03  0.15294330000E+03 0.  0.
    8880022    1    1    2    0    0 -0.38610179182E+03 -0.37122070641E+02 -0.19584888820E+03  0.46065288646E+03  0.15294330000E+03 0. -1.
<mgrwt>
<rscale>  0 0.41694639E+03</rscale>
<asrwt>0</asrwt>
<pdfrwt beam="1">  1        2 0.71870106E-01 0.41694639E+03</pdfrwt>
<pdfrwt beam="2">  1       -2 0.68505520E-01 0.41694639E+03</pdfrwt>
<totfact> 0.13380650E+02</totfact>
</mgrwt>
</event>
<event>
 4    1  0.6912310E-008  0.3169090E+03  0.7818608E-02  0.1077081E+00
         -2   -1    0    0    0  501 -0.00000000000E+00  0.00000000000E+00  0.41175442986E+03  0.41175442987E+03  0.25500000000E-02 0.  1.
          2   -1    0    0  501    0  0.00000000000E+00 -0.00000000000E+00 -0.73632390495E+03  0.73632390496E+03  0.25500000000E-02 0. -1.
    8880022    1    1    2    0    0  0.24319896715E+03 -0.13376805505E+03 -0.63171593785E+03  0.70675052835E+03  0.15294330000E+03 0.  0.
    8880022    1    1    2    0    0 -0.24319896715E+03  0.13376805505E+03  0.30714646276E+03  0.44132780648E+03  0.15294330000E+03 0.  0.
<mgrwt>
<rscale>  0 0.31690895E+03</rscale>
<asrwt>0</asrwt>
<pdfrwt beam="1">  1        2 0.11328060E+00 0.31690895E+03</pdfrwt>
<pdfrwt beam="2">  1       -2 0.63346835E-01 0.31690895E+03</pdfrwt>
<totfact> 0.93484142E+01</totfact>
</mgrwt>
</event>
<event>
 4    1  0.6912310E-008  0.4373171E+03  0.7818608E-02  0.1031573E+00
         -2   -1    0    0    0  501 -0.00000000000E+00  0.00000000000E+00  0.50797124330E+03  0.50797124331E+03  0.25500000000E-02 0.  1.
          2   -1    0    0  501    0  0.00000000000E+00 -0.00000000000E+00 -0.11778820919E+04  0.11778820919E+04  0.25500000000E-02 0. -1.
    8880022    1    1    2    0    0  0.40523988684E+03 -0.60292759778E+02  0.36032713353E+03  0.56664087299E+03  0.15294330000E+03 0.  0.
    8880022    1    1    2    0    0 -0.40523988684E+03  0.60292759778E+02 -0.10302379821E+04  0.11192124622E+04  0.15294330000E+03 0. -1.
<mgrwt>
<rscale>  0 0.43731709E+03</rscale>
<asrwt>0</asrwt>
<pdfrwt beam="1">  1        2 0.18121263E+00 0.43731709E+03</pdfrwt>
<pdfrwt beam="2">  1       -2 0.78149422E-01 0.43731709E+03</pdfrwt>
<totfact> 0.30224513E+01</totfact>
</mgrwt>
</event>
<event>
 4    1  0.6912310E-008  0.8527184E+03  0.7818608E-02  0.9486696E-01
          2   -1    0    0  501    0  0.00000000000E+00  0.00000000000E+00  0.87713905168E+03  0.87713905168E+03  0.25500000000E-02 0. -1.
         -2   -1    0    0    0  501 -0.00000000000E+00 -0.00000000000E+00 -0.17863624985E+04  0.17863624985E+04  0.25500000000E-02 0.  1.
    8880022    1    1    2    0    0 -0.79110526076E+03 -0.27908692676E+03  0.52033622375E+03  0.99893867933E+03  0.15294330000E+03 0.  0.
    8880022    1    1    2    0    0  0.79110526076E+03  0.27908692676E+03 -0.14295596706E+04  0.16645628709E+04  0.15294330000E+03 0.  0.
<mgrwt>
<rscale>  0 0.85271842E+03</rscale>
<asrwt>0</asrwt>
<pdfrwt beam="1">  1        2 0.13494447E+00 0.85271842E+03</pdfrwt>
<pdfrwt beam="2">  1       -2 0.27482500E+00 0.85271842E+03</pdfrwt>
<totfact> 0.14057398E+00</totfact>
</mgrwt>
</event>
<event>
 4    1  0.6912310E-008  0.1573322E+03  0.7818608E-02  0.1191742E+00
          2   -1    0    0  501    0  0.00000000000E+00  0.00000000000E+00  0.76671152836E+03  0.76671152836E+03  0.25500000000E-02 0. -1.
         -2   -1    0    0    0  501 -0.00000000000E+00 -0.00000000000E+00 -0.21882881429E+03  0.21882881431E+03  0.25500000000E-02 0.  1.
    8880022    1    1    2    0    0  0.13536450886E+02  0.34329814425E+02  0.72891094396E+03  0.74569738427E+03  0.15294330000E+03 0. -1.
    8880022    1    1    2    0    0 -0.13536450886E+02 -0.34329814425E+02 -0.18102822989E+03  0.23984295840E+03  0.15294330000E+03 0.  0.
<mgrwt>
<rscale>  0 0.15733221E+03</rscale>
<asrwt>0</asrwt>
<pdfrwt beam="1">  1        2 0.11795562E+00 0.15733221E+03</pdfrwt>
<pdfrwt beam="2">  1       -2 0.33665971E-01 0.15733221E+03</pdfrwt>
<totfact> 0.31599962E+02</totfact>
</mgrwt>
</event>
<event>
 4    1  0.6912310E-008  0.4074824E+03  0.7818608E-02  0.1041219E+00
          2   -1    0    0  501    0  0.00000000000E+00  0.00000000000E+00  0.21783753535E+04  0.21783753535E+04  0.25500000000E-02 0. -1.
         -2   -1    0    0    0  501 -0.00000000000E+00 -0.00000000000E+00 -0.96004064594E+02  0.96004064628E+02  0.25500000000E-02 0.  1.
    8880022    1    1    2    0    0 -0.37183223865E+03  0.66264794324E+02  0.52498917225E+03  0.66457168211E+03  0.15294330000E+03 0.  0.
    8880022    1    1    2    0    0  0.37183223865E+03 -0.66264794324E+02  0.15573821167E+04  0.16098077361E+04  0.15294330000E+03 0.  0.
<mgrwt>
<rscale>  0 0.40748238E+03</rscale>
<asrwt>0</asrwt>
<pdfrwt beam="1">  1        2 0.33513464E+00 0.40748238E+03</pdfrwt>
<pdfrwt beam="2">  1       -2 0.14769858E-01 0.40748238E+03</pdfrwt>
<totfact> 0.20502383E+02</totfact>
</mgrwt>
</event>
<event>
 4    1  0.6912310E-008  0.4073141E+03  0.7818608E-02  0.1041276E+00
          2   -1    0    0  501    0  0.00000000000E+00  0.00000000000E+00  0.15975306168E+04  0.15975306168E+04  0.25500000000E-02 0. -1.
         -2   -1    0    0    0  501 -0.00000000000E+00 -0.00000000000E+00 -0.70257908351E+03  0.70257908351E+03  0.25500000000E-02 0.  1.
    8880022    1    1    2    0    0  0.37392958359E+03  0.51863371449E+02  0.15091367114E+04  0.15631373611E+04  0.15294330000E+03 0.  0.
    8880022    1    1    2    0    0 -0.37392958359E+03 -0.51863371449E+02 -0.61418517812E+03  0.73697233926E+03  0.15294330000E+03 0.  1.
<mgrwt>
<rscale>  0 0.40731412E+03</rscale>
<asrwt>0</asrwt>
<pdfrwt beam="1">  1        2 0.24577394E+00 0.40731412E+03</pdfrwt>
<pdfrwt beam="2">  1       -2 0.10808909E+00 0.40731412E+03</pdfrwt>
<totfact> 0.84169932E+00</totfact>
</mgrwt>
</event>
<event>
 4    1  0.6912310E-008  0.2018930E+03  0.7818608E-02  0.1148152E+00
          2   -1    0    0  501    0  0.00000000000E+00  0.00000000000E+00  0.22098223717E+04  0.22098223717E+04  0.25500000000E-02 0. -1.
         -2   -1    0    0    0  501 -0.00000000000E+00 -0.00000000000E+00 -0.13317369907E+03  0.13317369910E+03  0.25500000000E-02 0.  1.
    8880022    1    1    2    0    0 -0.18342368905E+02 -0.13050933340E+03  0.21256705511E+04  0.21352367722E+04  0.15294330000E+03 0.  0.
    8880022    1    1    2    0    0  0.18342368905E+02  0.13050933340E+03 -0.49021878399E+02  0.20775929866E+03  0.15294330000E+03 0.  0.
<mgrwt>
<rscale>  0 0.20189300E+03</rscale>
<asrwt>0</asrwt>
<pdfrwt beam="1">  1        2 0.33997263E+00 0.20189300E+03</pdfrwt>
<pdfrwt beam="2">  1       -2 0.20488264E-01 0.20189300E+03</pdfrwt>
<totfact> 0.11969148E+02</totfact>
</mgrwt>
</event>
<event>
 4    1  0.6912310E-008  0.3686003E+03  0.7818608E-02  0.1055229E+00
         -2   -1    0    0    0  501 -0.00000000000E+00  0.00000000000E+00  0.14388494920E+04  0.14388494920E+04  0.25500000000E-02 0.  1.
          2   -1    0    0  501    0  0.00000000000E+00 -0.00000000000E+00 -0.52834513787E+03  0.52834513788E+03  0.25500000000E-02 0. -1.
    8880022    1    1    2    0    0 -0.25630270699E+03 -0.21629483209E+03  0.13466311773E+04  0.13961667926E+04  0.15294330000E+03 0.  0.
    8880022    1    1    2    0    0  0.25630270699E+03  0.21629483209E+03 -0.43612682320E+03  0.57102783727E+03  0.15294330000E+03 0.  0.
<mgrwt>
<rscale>  0 0.36860031E+03</rscale>
<asrwt>0</asrwt>
<pdfrwt beam="1">  1        2 0.81283867E-01 0.36860031E+03</pdfrwt>
<pdfrwt beam="2">  1       -2 0.22136146E+00 0.36860031E+03</pdfrwt>
<totfact> 0.61146225E+00</totfact>
</mgrwt>
</event>
<event>
 4    1  0.6912310E-008  0.1781239E+03  0.7818608E-02  0.1169631E+00
          2   -1    0    0  501    0  0.00000000000E+00  0.00000000000E+00  0.72295732727E+03  0.72295732728E+03  0.25500000000E-02 0. -1.
         -2   -1    0    0    0  501 -0.00000000000E+00 -0.00000000000E+00 -0.36694749971E+03  0.36694749971E+03  0.25500000000E-02 0.  1.
    8880022    1    1    2    0    0 -0.40989255967E+02  0.81586564035E+02 -0.33332218843E+03  0.37793097366E+03  0.15294330000E+03 0.  1.
    8880022    1    1    2    0    0  0.40989255967E+02 -0.81586564035E+02  0.68933201600E+03  0.71197385333E+03  0.15294330000E+03 0.  0.
<mgrwt>
<rscale>  0 0.17812394E+03</rscale>
<asrwt>0</asrwt>
<pdfrwt beam="1">  1        2 0.11122420E+00 0.17812394E+03</pdfrwt>
<pdfrwt beam="2">  1       -2 0.56453462E-01 0.17812394E+03</pdfrwt>
<totfact> 0.12444952E+02</totfact>
</mgrwt>
</event>
<event>
 4    1  0.6912310E-008  0.5888669E+03  0.7818608E-02  0.9928777E-01
         -2   -1    0    0    0  501 -0.00000000000E+00  0.00000000000E+00  0.20551798269E+03  0.20551798270E+03  0.25500000000E-02 0.  1.
          2   -1    0    0  501    0  0.00000000000E+00 -0.00000000000E+00 -0.25712644111E+04  0.25712644111E+04  0.25500000000E-02 0. -1.
    8880022    1    1    2    0    0  0.90498464610E+02 -0.56141127564E+03 -0.19969461910E+04  0.20819602146E+04  0.15294330000E+03 0.  0.
    8880022    1    1    2    0    0 -0.90498464610E+02  0.56141127564E+03 -0.36880023735E+03  0.69482217912E+03  0.15294330000E+03 0.  0.
<mgrwt>
<rscale>  0 0.58886692E+03</rscale>
<asrwt>0</asrwt>
<pdfrwt beam="1">  1        2 0.39557912E+00 0.58886692E+03</pdfrwt>
<pdfrwt beam="2">  1       -2 0.31618153E-01 0.58886692E+03</pdfrwt>
<totfact> 0.31541145E+01</totfact>
</mgrwt>
</event>
<event>
 4    1  0.6912310E-008  0.4025548E+03  0.7818608E-02  0.1042899E+00
         -2   -1    0    0    0  501 -0.00000000000E+00  0.00000000000E+00  0.11505841077E+04  0.11505841077E+04  0.25500000000E-02 0.  1.
          2   -1    0    0  501    0  0.00000000000E+00 -0.00000000000E+00 -0.84647999810E+03  0.84647999811E+03  0.25500000000E-02 0. -1.
    8880022    1    1    2    0    0 -0.14314520966E+03  0.34375599023E+03  0.10637368008E+04  0.11373593831E+04  0.15294330000E+03 0.  0.
    8880022    1    1    2    0    0  0.14314520966E+03 -0.34375599023E+03 -0.75963269116E+03  0.85970472278E+03  0.15294330000E+03 0.  0.
<mgrwt>
<rscale>  0 0.40255482E+03</rscale>
<asrwt>0</asrwt>
<pdfrwt beam="1">  1        2 0.13022769E+00 0.40255482E+03</pdfrwt>
<pdfrwt beam="2">  1       -2 0.17701294E+00 0.40255482E+03</pdfrwt>
<totfact> 0.65695516E+00</totfact>
</mgrwt>
</event>
<event>
 4    1  0.6912310E-008  0.5079083E+03  0.7818608E-02  0.1011735E+00
          2   -1    0    0  501    0  0.00000000000E+00  0.00000000000E+00  0.13457973697E+04  0.13457973697E+04  0.25500000000E-02 0. -1.
         -2   -1    0    0    0  501 -0.00000000000E+00 -0.00000000000E+00 -0.61444250557E+03  0.61444250557E+03  0.25500000000E-02 0.  1.
    8880022    1    1    2    0    0 -0.33975735095E+03  0.34517259850E+03 -0.44730961471E+03  0.67679888054E+03  0.15294330000E+03 0.  0.
    8880022    1    1    2    0    0  0.33975735095E+03 -0.34517259850E+03  0.11786644789E+04  0.12834409948E+04  0.15294330000E+03 0.  0.
<mgrwt>
<rscale>  0 0.50790829E+03</rscale>
<asrwt>0</asrwt>
<pdfrwt beam="1">  1        2 0.20704575E+00 0.50790829E+03</pdfrwt>
<pdfrwt beam="2">  1       -2 0.94529617E-01 0.50790829E+03</pdfrwt>
<totfact> 0.15527404E+01</totfact>
</mgrwt>
</event>
<event>
 4    1  0.6912310E-008  0.6398262E+03  0.7818608E-02  0.9826059E-01
          2   -1    0    0  501    0  0.00000000000E+00  0.00000000000E+00  0.64316830797E+03  0.64316830797E+03  0.25500000000E-02 0. -1.
         -2   -1    0    0    0  501 -0.00000000000E+00 -0.00000000000E+00 -0.11219285857E+04  0.11219285857E+04  0.25500000000E-02 0.  1.
    8880022    1    1    2    0    0 -0.58362305444E+03 -0.21300243017E+03  0.34114091509E+03  0.72508943027E+03  0.15294330000E+03 0.  0.
    8880022    1    1    2    0    0  0.58362305444E+03  0.21300243017E+03 -0.81990119283E+03  0.10400074634E+04  0.15294330000E+03 0.  0.
<mgrwt>
<rscale>  0 0.63982619E+03</rscale>
<asrwt>0</asrwt>
<pdfrwt beam="1">  1        2 0.98948971E-01 0.63982619E+03</pdfrwt>
<pdfrwt beam="2">  1       -2 0.17260440E+00 0.63982619E+03</pdfrwt>
<totfact> 0.95869554E+00</totfact>
</mgrwt>
</event>
<event>
 4    1  0.6912310E-008  0.9273053E+03  0.7818608E-02  0.9392078E-01
          2   -1    0    0  501    0  0.00000000000E+00  0.00000000000E+00  0.91868892902E+03  0.91868892903E+03  0.25500000000E-02 0. -1.
         -2   -1    0    0    0  501 -0.00000000000E+00 -0.00000000000E+00 -0.14139086678E+04  0.14139086678E+04  0.25500000000E-02 0.  1.
    8880022    1    1    2    0    0  0.58516627769E+03  0.70291099689E+03 -0.92567355649E+03  0.13102544136E+04  0.15294330000E+03 0.  0.
    8880022    1    1    2    0    0 -0.58516627769E+03 -0.70291099689E+03  0.43045381774E+03  0.10223431832E+04  0.15294330000E+03 0.  0.
<mgrwt>
<rscale>  0 0.92730529E+03</rscale>
<asrwt>0</asrwt>
<pdfrwt beam="1">  1        2 0.14133676E+00 0.92730529E+03</pdfrwt>
<pdfrwt beam="2">  1       -2 0.21752441E+00 0.92730529E+03</pdfrwt>
<totfact> 0.29248944E+00</totfact>
</mgrwt>
</event>
<event>
 4    1  0.6912310E-008  0.4103432E+03  0.7818608E-02  0.1040256E+00
         -2   -1    0    0    0  501 -0.00000000000E+00  0.00000000000E+00  0.10072019847E+04  0.10072019847E+04  0.25500000000E-02 0.  1.
          2   -1    0    0  501    0  0.00000000000E+00 -0.00000000000E+00 -0.10781461411E+04  0.10781461411E+04  0.25500000000E-02 0. -1.
    8880022    1    1    2    0    0 -0.85342092985E+01 -0.38067978073E+03  0.92296024223E+03  0.10100679135E+04  0.15294330000E+03 0.  1.
    8880022    1    1    2    0    0  0.85342092985E+01  0.38067978073E+03 -0.99390439866E+03  0.10752802123E+04  0.15294330000E+03 0.  0.
<mgrwt>
<rscale>  0 0.41034325E+03</rscale>
<asrwt>0</asrwt>
<pdfrwt beam="1">  1        2 0.16586864E+00 0.41034325E+03</pdfrwt>
<pdfrwt beam="2">  1       -2 0.15495415E+00 0.41034325E+03</pdfrwt>
<totfact> 0.66924329E+00</totfact>
</mgrwt>
</event>
<event>
 4    1  0.6912310E-008  0.3971345E+03  0.7818608E-02  0.1044776E+00
          2   -1    0    0  501    0  0.00000000000E+00  0.00000000000E+00  0.46314922255E+03  0.46314922255E+03  0.25500000000E-02 0. -1.
         -2   -1    0    0    0  501 -0.00000000000E+00 -0.00000000000E+00 -0.14662666888E+04  0.14662666888E+04  0.25500000000E-02 0.  1.
    8880022    1    1    2    0    0  0.14242614552E+03 -0.33769649602E+03 -0.13468530743E+04  0.14041826759E+04  0.15294330000E+03 0.  0.
    8880022    1    1    2    0    0 -0.14242614552E+03  0.33769649602E+03  0.34373560810E+03  0.52523323547E+03  0.15294330000E+03 0. -1.
<mgrwt>
<rscale>  0 0.39713447E+03</rscale>
<asrwt>0</asrwt>
<pdfrwt beam="1">  1        2 0.71253727E-01 0.39713447E+03</pdfrwt>
<pdfrwt beam="2">  1       -2 0.22557949E+00 0.39713447E+03</pdfrwt>
<totfact> 0.66463299E+00</totfact>
</mgrwt>
</event>
<event>
 4    1  0.6912310E-008  0.4796514E+03  0.7818608E-02  0.1019231E+00
         -2   -1    0    0    0  501 -0.00000000000E+00  0.00000000000E+00  0.20638739646E+04  0.20638739646E+04  0.25500000000E-02 0.  1.
          2   -1    0    0  501    0  0.00000000000E+00 -0.00000000000E+00 -0.21318446234E+03  0.21318446236E+03  0.25500000000E-02 0. -1.
    8880022    1    1    2    0    0 -0.33792472200E+03  0.30410638064E+03  0.17117603887E+04  0.17776920684E+04  0.15294330000E+03 0.  0.
    8880022    1    1    2    0    0  0.33792472200E+03 -0.30410638064E+03  0.13892911350E+03  0.49936635857E+03  0.15294330000E+03 0. -1.
<mgrwt>
<rscale>  0 0.47965140E+03</rscale>
<asrwt>0</asrwt>
<pdfrwt beam="1">  1        2 0.32797610E-01 0.47965140E+03</pdfrwt>
<pdfrwt beam="2">  1       -2 0.31751906E+00 0.47965140E+03</pdfrwt>
<totfact> 0.43537370E+00</totfact>
</mgrwt>
</event>
<event>
 4    1  0.6912310E-008  0.6190433E+03  0.7818608E-02  0.9866666E-01
         -2   -1    0    0    0  501 -0.00000000000E+00  0.00000000000E+00  0.45748482697E+03  0.45748482698E+03  0.25500000000E-02 0.  1.
          2   -1    0    0  501    0  0.00000000000E+00 -0.00000000000E+00 -0.21442371174E+04  0.21442371174E+04  0.25500000000E-02 0. -1.
    8880022    1    1    2    0    0  0.51027161727E+03  0.31535032852E+03 -0.18588360473E+04  0.19592054657E+04  0.15294330000E+03 0.  0.
    8880022    1    1    2    0    0 -0.51027161727E+03 -0.31535032852E+03  0.17208375680E+03  0.64251647875E+03  0.15294330000E+03 0.  0.
<mgrwt>
<rscale>  0 0.61904330E+03</rscale>
<asrwt>0</asrwt>
<pdfrwt beam="1">  1        2 0.32988263E+00 0.61904330E+03</pdfrwt>
<pdfrwt beam="2">  1       -2 0.70382282E-01 0.61904330E+03</pdfrwt>
<totfact> 0.10831447E+01</totfact>
</mgrwt>
</event>
<event>
 4    1  0.6912310E-008  0.2783839E+03  0.7818608E-02  0.1096575E+00
         -2   -1    0    0    0  501 -0.00000000000E+00  0.00000000000E+00  0.13646456797E+03  0.13646456799E+03  0.25500000000E-02 0.  1.
          2   -1    0    0  501    0  0.00000000000E+00 -0.00000000000E+00 -0.42123851985E+04  0.42123851985E+04  0.25500000000E-02 0. -1.
    8880022    1    1    2    0    0  0.27527343873E+01  0.23259052396E+03 -0.15412732916E+02  0.27881021275E+03  0.15294330000E+03 0.  0.
    8880022    1    1    2    0    0 -0.27527343873E+01 -0.23259052396E+03 -0.40605078976E+04  0.40700395537E+04  0.15294330000E+03 0.  0.
<mgrwt>
<rscale>  0 0.27838388E+03</rscale>
<asrwt>0</asrwt>
<pdfrwt beam="1">  1        2 0.64805916E+00 0.27838388E+03</pdfrwt>
<pdfrwt beam="2">  1       -2 0.20994552E-01 0.27838388E+03</pdfrwt>
<totfact> 0.58783068E+00</totfact>
</mgrwt>
</event>
<event>
 4    1  0.6912310E-008  0.7655676E+03  0.7818608E-02  0.9611239E-01
          2   -1    0    0  501    0  0.00000000000E+00  0.00000000000E+00  0.89219080930E+03  0.89219080930E+03  0.25500000000E-02 0. -1.
         -2   -1    0    0    0  501 -0.00000000000E+00 -0.00000000000E+00 -0.22326544753E+04  0.22326544753E+04  0.25500000000E-02 0.  1.
    8880022    1    1    2    0    0  0.22181605667E+03 -0.71658892901E+03 -0.19828244124E+04  0.21254849704E+04  0.15294330000E+03 0.  1.
    8880022    1    1    2    0    0 -0.22181605667E+03  0.71658892901E+03  0.64236074634E+03  0.99936031422E+03  0.15294330000E+03 0.  0.
<mgrwt>
<rscale>  0 0.76556757E+03</rscale>
<asrwt>0</asrwt>
<pdfrwt beam="1">  1        2 0.13726013E+00 0.76556757E+03</pdfrwt>
<pdfrwt beam="2">  1       -2 0.34348530E+00 0.76556757E+03</pdfrwt>
<totfact> 0.53431455E-01</totfact>
</mgrwt>
</event>
<event>
 4    1  0.6912310E-008  0.8310572E+03  0.7818608E-02  0.9516120E-01
          2   -1    0    0  501    0  0.00000000000E+00  0.00000000000E+00  0.23621313794E+04  0.23621313794E+04  0.25500000000E-02 0. -1.
         -2   -1    0    0    0  501 -0.00000000000E+00 -0.00000000000E+00 -0.36280681391E+03  0.36280681392E+03  0.25500000000E-02 0.  1.
    8880022    1    1    2    0    0 -0.74799566922E+03  0.32827872567E+03  0.39940572000E+03  0.92205261514E+03  0.15294330000E+03 0.  0.
    8880022    1    1    2    0    0  0.74799566922E+03 -0.32827872567E+03  0.15999188455E+04  0.18028855782E+04  0.15294330000E+03 0.  0.
<mgrwt>
<rscale>  0 0.83105722E+03</rscale>
<asrwt>0</asrwt>
<pdfrwt beam="1">  1        2 0.36340484E+00 0.83105722E+03</pdfrwt>
<pdfrwt beam="2">  1       -2 0.55816431E-01 0.83105722E+03</pdfrwt>
<totfact> 0.12995715E+01</totfact>
</mgrwt>
</event>
<event>
 4    1  0.6912310E-008  0.4598166E+03  0.7818608E-02  0.1024834E+00
          2   -1    0    0  501    0  0.00000000000E+00  0.00000000000E+00  0.29270034862E+04  0.29270034862E+04  0.25500000000E-02 0. -1.
         -2   -1    0    0    0  501 -0.00000000000E+00 -0.00000000000E+00 -0.63026917843E+03  0.63026917844E+03  0.25500000000E-02 0.  1.
    8880022    1    1    2    0    0  0.29226814549E+03  0.32034195474E+03  0.28219785775E+04  0.28591947086E+04  0.15294330000E+03 0.  0.
    8880022    1    1    2    0    0 -0.29226814549E+03 -0.32034195474E+03 -0.52524426972E+03  0.69807795605E+03  0.15294330000E+03 0.  0.
<mgrwt>
<rscale>  0 0.45981658E+03</rscale>
<asrwt>0</asrwt>
<pdfrwt beam="1">  1        2 0.45030822E+00 0.45981658E+03</pdfrwt>
<pdfrwt beam="2">  1       -2 0.96964490E-01 0.45981658E+03</pdfrwt>
<totfact> 0.19788623E+00</totfact>
</mgrwt>
</event>
<event>
 4    1  0.6912310E-008  0.4574513E+03  0.7818608E-02  0.1025523E+00
          2   -1    0    0  501    0  0.00000000000E+00  0.00000000000E+00  0.19171135814E+04  0.19171135814E+04  0.25500000000E-02 0. -1.
         -2   -1    0    0    0  501 -0.00000000000E+00 -0.00000000000E+00 -0.32568559379E+03  0.32568559380E+03  0.25500000000E-02 0.  1.
    8880022    1    1    2    0    0 -0.15578259478E+03 -0.40199725700E+03 -0.11865439941E+03  0.47258917781E+03  0.15294330000E+03 0.  0.
    8880022    1    1    2    0    0  0.15578259478E+03  0.40199725700E+03  0.17100823870E+04  0.17702099974E+04  0.15294330000E+03 0.  0.
<mgrwt>
<rscale>  0 0.45745127E+03</rscale>
<asrwt>0</asrwt>
<pdfrwt beam="1">  1        2 0.29494055E+00 0.45745127E+03</pdfrwt>
<pdfrwt beam="2">  1       -2 0.50105476E-01 0.45745127E+03</pdfrwt>
<totfact> 0.30284442E+01</totfact>
</mgrwt>
</event>
<event>
 4    1  0.6912310E-008  0.8013647E+03  0.7818608E-02  0.9558044E-01
          2   -1    0    0  501    0  0.00000000000E+00  0.00000000000E+00  0.11004420485E+04  0.11004420485E+04  0.25500000000E-02 0. -1.
         -2   -1    0    0    0  501 -0.00000000000E+00 -0.00000000000E+00 -0.11374291264E+04  0.11374291264E+04  0.25500000000E-02 0.  1.
    8880022    1    1    2    0    0  0.78182458981E+03 -0.86856359046E+02  0.76231117863E+03  0.11060306065E+04  0.15294330000E+03 0.  0.
    8880022    1    1    2    0    0 -0.78182458981E+03  0.86856359046E+02 -0.79929825662E+03  0.11318405684E+04  0.15294330000E+03 0.  0.
<mgrwt>
<rscale>  0 0.80136469E+03</rscale>
<asrwt>0</asrwt>
<pdfrwt beam="1">  1        2 0.16929878E+00 0.80136469E+03</pdfrwt>
<pdfrwt beam="2">  1       -2 0.17498910E+00 0.80136469E+03</pdfrwt>
<totfact> 0.43423758E+00</totfact>
</mgrwt>
</event>
<event>
 4    1  0.6912310E-008  0.8652043E+03  0.7818608E-02  0.9470154E-01
         -2   -1    0    0    0  501 -0.00000000000E+00  0.00000000000E+00  0.37341401585E+03  0.37341401586E+03  0.25500000000E-02 0.  1.
          2   -1    0    0  501    0  0.00000000000E+00 -0.00000000000E+00 -0.28044757838E+04  0.28044757838E+04  0.25500000000E-02 0. -1.
    8880022    1    1    2    0    0  0.81786156383E+03  0.23725380878E+03 -0.36699463534E+03  0.93982105890E+03  0.15294330000E+03 0.  0.
    8880022    1    1    2    0    0 -0.81786156383E+03 -0.23725380878E+03 -0.20640671326E+04  0.22380687407E+04  0.15294330000E+03 0.  0.
<mgrwt>
<rscale>  0 0.86520435E+03</rscale>
<asrwt>0</asrwt>
<pdfrwt beam="1">  1        2 0.43145780E+00 0.86520435E+03</pdfrwt>
<pdfrwt beam="2">  1       -2 0.57448312E-01 0.86520435E+03</pdfrwt>
<totfact> 0.67721463E+00</totfact>
</mgrwt>
</event>
<event>
 4    1  0.6912310E-008  0.3678725E+03  0.7818608E-02  0.1055509E+00
          2   -1    0    0  501    0  0.00000000000E+00  0.00000000000E+00  0.17458231207E+04  0.17458231207E+04  0.25500000000E-02 0. -1.
         -2   -1    0    0    0  501 -0.00000000000E+00 -0.00000000000E+00 -0.38563087931E+03  0.38563087932E+03  0.25500000000E-02 0.  1.
    8880022    1    1    2    0    0  0.31505831044E+03 -0.11259125320E+03  0.16327080521E+04  0.16736384812E+04  0.15294330000E+03 0.  0.
    8880022    1    1    2    0    0 -0.31505831044E+03  0.11259125320E+03 -0.27251581065E+03  0.45781551890E+03  0.15294330000E+03 0.  0.
<mgrwt>
<rscale>  0 0.36787251E+03</rscale>
<asrwt>0</asrwt>
<pdfrwt beam="1">  1        2 0.26858817E+00 0.36787251E+03</pdfrwt>
<pdfrwt beam="2">  1       -2 0.59327828E-01 0.36787251E+03</pdfrwt>
<totfact> 0.26995967E+01</totfact>
</mgrwt>
</event>
<event>
 4    1  0.6912310E-008  0.8649525E+03  0.7818608E-02  0.9470485E-01
         -2   -1    0    0    0  501 -0.00000000000E+00  0.00000000000E+00  0.59269332777E+03  0.59269332778E+03  0.25500000000E-02 0.  1.
          2   -1    0    0  501    0  0.00000000000E+00 -0.00000000000E+00 -0.35234300956E+04  0.35234300956E+04  0.25500000000E-02 0. -1.
    8880022    1    1    2    0    0  0.74574141229E+03 -0.41063475545E+03  0.18332768888E+03  0.88416732065E+03  0.15294330000E+03 0.  0.
    8880022    1    1    2    0    0 -0.74574141229E+03  0.41063475545E+03 -0.31140644567E+04  0.32319561027E+04  0.15294330000E+03 0. -1.
<mgrwt>
<rscale>  0 0.86495249E+03</rscale>
<asrwt>0</asrwt>
<pdfrwt beam="1">  1        2 0.54206616E+00 0.86495249E+03</pdfrwt>
<pdfrwt beam="2">  1       -2 0.91183591E-01 0.86495249E+03</pdfrwt>
<totfact> 0.85230310E-01</totfact>
</mgrwt>
</event>
<event>
 4    1  0.6912310E-008  0.8025592E+03  0.7818608E-02  0.9556320E-01
          2   -1    0    0  501    0  0.00000000000E+00  0.00000000000E+00  0.29022584208E+04  0.29022584208E+04  0.25500000000E-02 0. -1.
         -2   -1    0    0    0  501 -0.00000000000E+00 -0.00000000000E+00 -0.63982923813E+03  0.63982923814E+03  0.25500000000E-02 0.  1.
    8880022    1    1    2    0    0  0.75431847361E+03 -0.22740542205E+03 -0.30009148773E+03  0.85682911927E+03  0.15294330000E+03 0.  0.
    8880022    1    1    2    0    0 -0.75431847361E+03  0.22740542205E+03  0.25625206704E+04  0.26852585396E+04  0.15294330000E+03 0.  0.
<mgrwt>
<rscale>  0 0.80255918E+03</rscale>
<asrwt>0</asrwt>
<pdfrwt beam="1">  1        2 0.44650129E+00 0.80255918E+03</pdfrwt>
<pdfrwt beam="2">  1       -2 0.98435269E-01 0.80255918E+03</pdfrwt>
<totfact> 0.18077813E+00</totfact>
</mgrwt>
</event>
<event>
 4    1  0.6912310E-008  0.1070202E+04  0.7818608E-02  0.9234731E-01
         -2   -1    0    0    0  501 -0.00000000000E+00  0.00000000000E+00  0.83327882329E+03  0.83327882329E+03  0.25500000000E-02 0.  1.
          2   -1    0    0  501    0  0.00000000000E+00 -0.00000000000E+00 -0.29391001051E+04  0.29391001051E+04  0.25500000000E-02 0. -1.
    8880022    1    1    2    0    0 -0.56131737728E+03  0.89825612277E+03 -0.24291097541E+04  0.26544127619E+04  0.15294330000E+03 0.  0.
    8880022    1    1    2    0    0  0.56131737728E+03 -0.89825612277E+03  0.32328847227E+03  0.11179661665E+04  0.15294330000E+03 0.  0.
<mgrwt>
<rscale>  0 0.10702023E+04</rscale>
<asrwt>0</asrwt>
<pdfrwt beam="1">  1        2 0.45216924E+00 0.10702023E+04</pdfrwt>
<pdfrwt beam="2">  1       -2 0.12819674E+00 0.10702023E+04</pdfrwt>
<totfact> 0.85900787E-01</totfact>
</mgrwt>
</event>
<event>
 4    1  0.6912310E-008  0.4029308E+03  0.7818608E-02  0.1042770E+00
         -2   -1    0    0    0  501 -0.00000000000E+00  0.00000000000E+00  0.13728034638E+03  0.13728034640E+03  0.25500000000E-02 0.  1.
          2   -1    0    0  501    0  0.00000000000E+00 -0.00000000000E+00 -0.23775071056E+04  0.23775071056E+04  0.25500000000E-02 0. -1.
    8880022    1    1    2    0    0 -0.25157468604E+03  0.27508506136E+03 -0.22871851072E+03  0.46332000151E+03  0.15294330000E+03 0.  1.
    8880022    1    1    2    0    0  0.25157468604E+03 -0.27508506136E+03 -0.20115082485E+04  0.20514674505E+04  0.15294330000E+03 0.  0.
<mgrwt>
<rscale>  0 0.40293085E+03</rscale>
<asrwt>0</asrwt>
<pdfrwt beam="1">  1        2 0.36577029E+00 0.40293085E+03</pdfrwt>
<pdfrwt beam="2">  1       -2 0.21120055E-01 0.40293085E+03</pdfrwt>
<totfact> 0.86932440E+01</totfact>
</mgrwt>
</event>
<event>
 4    1  0.8296951E-008  0.8927710E+03  0.7818608E-02  0.9434663E-01
         -2   -1    0    0    0  501 -0.00000000000E+00  0.00000000000E+00  0.90420954182E+03  0.90420954182E+03  0.25500000000E-02 0.  1.
          2   -1    0    0  501    0  0.00000000000E+00 -0.00000000000E+00 -0.29291690184E+04  0.29291690184E+04  0.25500000000E-02 0. -1.
    8880022    1    1    2    0    0  0.72769910833E+03 -0.49406721783E+03  0.59007103997E+03  0.10701513413E+04  0.15294330000E+03 0.  0.
    8880022    1    1    2    0    0 -0.72769910833E+03  0.49406721783E+03 -0.26150305165E+04  0.27632272189E+04  0.15294330000E+03 0.  0.
<mgrwt>
<rscale>  0 0.89277100E+03</rscale>
<asrwt>0</asrwt>
<pdfrwt beam="1">  1        2 0.45064138E+00 0.89277100E+03</pdfrwt>
<pdfrwt beam="2">  1       -2 0.13910916E+00 0.89277100E+03</pdfrwt>
<totfact> 0.72850497E-01</totfact>
</mgrwt>
</event>
<event>
 4    1  0.6912310E-008  0.1338386E+04  0.7818608E-02  0.8999667E-01
          2   -1    0    0  501    0  0.00000000000E+00  0.00000000000E+00  0.24632691283E+04  0.24632691283E+04  0.25500000000E-02 0. -1.
         -2   -1    0    0    0  501 -0.00000000000E+00 -0.00000000000E+00 -0.10617437624E+04  0.10617437624E+04  0.25500000000E-02 0.  1.
    8880022    1    1    2    0    0 -0.10890174221E+04 -0.76284044798E+03  0.16901145814E+04  0.21558672144E+04  0.15294330000E+03 0.  0.
    8880022    1    1    2    0    0  0.10890174221E+04  0.76284044798E+03 -0.28858921540E+03  0.13691456763E+04  0.15294330000E+03 0.  0.
<mgrwt>
<rscale>  0 0.13383856E+04</rscale>
<asrwt>0</asrwt>
<pdfrwt beam="1">  1        2 0.37896447E+00 0.13383856E+04</pdfrwt>
<pdfrwt beam="2">  1       -2 0.16334520E+00 0.13383856E+04</pdfrwt>
<totfact> 0.83529505E-01</totfact>
</mgrwt>
</event>
<event>
 4    1  0.6912310E-008  0.5843473E+03  0.7818608E-02  0.9938423E-01
         -2   -1    0    0    0  501 -0.00000000000E+00  0.00000000000E+00  0.56902031577E+03  0.56902031577E+03  0.25500000000E-02 0.  1.
          2   -1    0    0  501    0  0.00000000000E+00 -0.00000000000E+00 -0.18004703836E+04  0.18004703836E+04  0.25500000000E-02 0. -1.
    8880022    1    1    2    0    0  0.53271205168E+03  0.18516999750E+03  0.35164360502E+03  0.68199335477E+03  0.15294330000E+03 0.  0.
    8880022    1    1    2    0    0 -0.53271205168E+03 -0.18516999750E+03 -0.15830936728E+04  0.16874973446E+04  0.15294330000E+03 0.  0.
<mgrwt>
<rscale>  0 0.58434725E+03</rscale>
<asrwt>0</asrwt>
<pdfrwt beam="1">  1        2 0.27699544E+00 0.58434725E+03</pdfrwt>
<pdfrwt beam="2">  1       -2 0.87541588E-01 0.58434725E+03</pdfrwt>
<totfact> 0.10290161E+01</totfact>
</mgrwt>
</event>
<event>
 4    1  0.6912310E-008  0.3023315E+03  0.7818608E-02  0.1084081E+00
         -2   -1    0    0    0  501 -0.00000000000E+00  0.00000000000E+00  0.41287526880E+03  0.41287526881E+03  0.25500000000E-02 0.  1.
          2   -1    0    0  501    0  0.00000000000E+00 -0.00000000000E+00 -0.11228529577E+04  0.11228529577E+04  0.25500000000E-02 0. -1.
    8880022    1    1    2    0    0 -0.25558081891E+03 -0.51876367983E+02  0.33302644527E+03  0.44978992742E+03  0.15294330000E+03 0.  0.
    8880022    1    1    2    0    0  0.25558081891E+03  0.51876367983E+02 -0.10430041342E+04  0.10859382991E+04  0.15294330000E+03 0. -1.
<mgrwt>
<rscale>  0 0.30233155E+03</rscale>
<asrwt>0</asrwt>
<pdfrwt beam="1">  1        2 0.17274661E+00 0.30233155E+03</pdfrwt>
<pdfrwt beam="2">  1       -2 0.63519273E-01 0.30233155E+03</pdfrwt>
<totfact> 0.52371103E+01</totfact>
</mgrwt>
</event>
<event>
 4    1  0.6912310E-008  0.4661140E+03  0.7818608E-02  0.1023023E+00
         -2   -1    0    0    0  501 -0.00000000000E+00  0.00000000000E+00  0.46969058687E+03  0.46969058688E+03  0.25500000000E-02 0.  1.
          2   -1    0    0  501    0  0.00000000000E+00 -0.00000000000E+00 -0.46313276667E+03  0.46313276668E+03  0.25500000000E-02 0. -1.
    8880022    1    1    2    0    0  0.14797991224E+03  0.41469572408E+03 -0.13057036906E+02  0.46629683381E+03  0.15294330000E+03 0. -1.
    8880022    1    1    2    0    0 -0.14797991224E+03 -0.41469572408E+03  0.19614857109E+02  0.46652651975E+03  0.15294330000E+03 0.  1.
<mgrwt>
<rscale>  0 0.46611399E+03</rscale>
<asrwt>0</asrwt>
<pdfrwt beam="1">  1        2 0.71251195E-01 0.46611399E+03</pdfrwt>
<pdfrwt beam="2">  1       -2 0.72260090E-01 0.46611399E+03</pdfrwt>
<totfact> 0.11990768E+02</totfact>
</mgrwt>
</event>
<event>
 4    1  0.6912310E-008  0.2923154E+03  0.7818608E-02  0.1089146E+00
          2   -1    0    0  501    0  0.00000000000E+00  0.00000000000E+00  0.23734354154E+03  0.23734354155E+03  0.25500000000E-02 0. -1.
         -2   -1    0    0    0  501 -0.00000000000E+00 -0.00000000000E+00 -0.67979308006E+03  0.67979308007E+03  0.25500000000E-02 0.  1.
    8880022    1    1    2    0    0 -0.24002953805E+03 -0.66651909420E+02  0.93287029427E+02  0.30683998931E+03  0.15294330000E+03 0. -1.
    8880022    1    1    2    0    0  0.24002953805E+03  0.66651909420E+02 -0.53573656795E+03  0.61029663231E+03  0.15294330000E+03 0.  0.
<mgrwt>
<rscale>  0 0.29231543E+03</rscale>
<asrwt>0</asrwt>
<pdfrwt beam="1">  1        2 0.36514391E-01 0.29231543E+03</pdfrwt>
<pdfrwt beam="2">  1       -2 0.10458355E+00 0.29231543E+03</pdfrwt>
<totfact> 0.10960743E+02</totfact>
</mgrwt>
</event>
<event>
 4    1  0.6912310E-008  0.7422556E+03  0.7818608E-02  0.9647579E-01
          2   -1    0    0  501    0  0.00000000000E+00  0.00000000000E+00  0.16865807477E+04  0.16865807477E+04  0.25500000000E-02 0. -1.
         -2   -1    0    0    0  501 -0.00000000000E+00 -0.00000000000E+00 -0.12150237921E+04  0.12150237921E+04  0.25500000000E-02 0.  1.
    8880022    1    1    2    0    0  0.13623299665E+03 -0.71343695107E+03 -0.10047608874E+04  0.12491948633E+04  0.15294330000E+03 0.  0.
    8880022    1    1    2    0    0 -0.13623299665E+03  0.71343695107E+03  0.14763178431E+04  0.16524096766E+04  0.15294330000E+03 0.  0.
<mgrwt>
<rscale>  0 0.74225559E+03</rscale>
<asrwt>0</asrwt>
<pdfrwt beam="1">  1        2 0.25947396E+00 0.74225559E+03</pdfrwt>
<pdfrwt beam="2">  1       -2 0.18692674E+00 0.74225559E+03</pdfrwt>
<totfact> 0.16801666E+00</totfact>
</mgrwt>
</event>
<event>
 4    1  0.6912310E-008  0.6685231E+03  0.7818608E-02  0.9772630E-01
          2   -1    0    0  501    0  0.00000000000E+00  0.00000000000E+00  0.17198404712E+04  0.17198404712E+04  0.25500000000E-02 0. -1.
         -2   -1    0    0    0  501 -0.00000000000E+00 -0.00000000000E+00 -0.21256527294E+04  0.21256527294E+04  0.25500000000E-02 0.  1.
    8880022    1    1    2    0    0  0.15043943978E+01  0.65079118408E+03  0.15984817319E+04  0.17326473757E+04  0.15294330000E+03 0.  0.
    8880022    1    1    2    0    0 -0.15043943978E+01 -0.65079118408E+03 -0.20042939901E+04  0.21128458250E+04  0.15294330000E+03 0.  0.
<mgrwt>
<rscale>  0 0.66852306E+03</rscale>
<asrwt>0</asrwt>
<pdfrwt beam="1">  1        2 0.26459084E+00 0.66852306E+03</pdfrwt>
<pdfrwt beam="2">  1       -2 0.32702350E+00 0.66852306E+03</pdfrwt>
<totfact> 0.22572768E-01</totfact>
</mgrwt>
</event>
<event>
 4    1  0.6912310E-008  0.5985397E+03  0.7818608E-02  0.9908440E-01
          2   -1    0    0  501    0  0.00000000000E+00  0.00000000000E+00  0.22798837214E+04  0.22798837214E+04  0.25500000000E-02 0. -1.
         -2   -1    0    0    0  501 -0.00000000000E+00 -0.00000000000E+00 -0.35170797650E+03  0.35170797651E+03  0.25500000000E-02 0.  1.
    8880022    1    1    2    0    0 -0.30251430305E+03  0.49329832647E+03 -0.14587215729E+02  0.59871744782E+03  0.15294330000E+03 0.  0.
    8880022    1    1    2    0    0  0.30251430305E+03 -0.49329832647E+03  0.19427629606E+04  0.20328742501E+04  0.15294330000E+03 0.  0.
<mgrwt>
<rscale>  0 0.59853972E+03</rscale>
<asrwt>0</asrwt>
<pdfrwt beam="1">  1        2 0.35075135E+00 0.59853972E+03</pdfrwt>
<pdfrwt beam="2">  1       -2 0.54108918E-01 0.59853972E+03</pdfrwt>
<totfact> 0.15994975E+01</totfact>
</mgrwt>
</event>
<event>
 4    1  0.6912310E-008  0.5616912E+03  0.7818608E-02  0.9988235E-01
         -2   -1    0    0    0  501 -0.00000000000E+00  0.00000000000E+00  0.11157637508E+04  0.11157637508E+04  0.25500000000E-02 0.  1.
          2   -1    0    0  501    0  0.00000000000E+00 -0.00000000000E+00 -0.16930518512E+04  0.16930518512E+04  0.25500000000E-02 0. -1.
    8880022    1    1    2    0    0  0.51554289206E+03  0.16223725211E+03 -0.15704199219E+04  0.16678476500E+04  0.15294330000E+03 0.  0.
    8880022    1    1    2    0    0 -0.51554289206E+03 -0.16223725211E+03  0.99313182153E+03  0.11409679520E+04  0.15294330000E+03 0.  0.
<mgrwt>
<rscale>  0 0.56169124E+03</rscale>
<asrwt>0</asrwt>
<pdfrwt beam="1">  1        2 0.26046952E+00 0.56169124E+03</pdfrwt>
<pdfrwt beam="2">  1       -2 0.17165596E+00 0.56169124E+03</pdfrwt>
<totfact> 0.22032040E+00</totfact>
</mgrwt>
</event>
<event>
 4    1  0.6912310E-008  0.1172885E+04  0.7818608E-02  0.9136927E-01
         -2   -1    0    0    0  501 -0.00000000000E+00  0.00000000000E+00  0.15373931634E+04  0.15373931634E+04  0.25500000000E-02 0.  1.
          2   -1    0    0  501    0  0.00000000000E+00 -0.00000000000E+00 -0.17908900348E+04  0.17908900348E+04  0.25500000000E-02 0. -1.
    8880022    1    1    2    0    0  0.61590937259E+03  0.98636838032E+03  0.10504014613E+04  0.15744846204E+04  0.15294330000E+03 0.  0.
    8880022    1    1    2    0    0 -0.61590937259E+03 -0.98636838032E+03 -0.13038983326E+04  0.17537985779E+04  0.15294330000E+03 0.  0.
<mgrwt>
<rscale>  0 0.11728847E+04</rscale>
<asrwt>0</asrwt>
<pdfrwt beam="1">  1        2 0.27552154E+00 0.11728847E+04</pdfrwt>
<pdfrwt beam="2">  1       -2 0.23652202E+00 0.11728847E+04</pdfrwt>
<totfact> 0.66247580E-01</totfact>
</mgrwt>
</event>
<event>
 4    1  0.6912310E-008  0.8610950E+03  0.7818608E-02  0.9475565E-01
          2   -1    0    0  501    0  0.00000000000E+00  0.00000000000E+00  0.91520564512E+03  0.91520564513E+03  0.25500000000E-02 0. -1.
         -2   -1    0    0    0  501 -0.00000000000E+00 -0.00000000000E+00 -0.14115775342E+04  0.14115775342E+04  0.25500000000E-02 0.  1.
    8880022    1    1    2    0    0 -0.20237458817E+03 -0.82288365006E+03 -0.10075552931E+04  0.13253876026E+04  0.15294330000E+03 0.  0.
    8880022    1    1    2    0    0  0.20237458817E+03  0.82288365006E+03  0.51118340404E+03  0.10013955767E+04  0.15294330000E+03 0.  0.
<mgrwt>
<rscale>  0 0.86109502E+03</rscale>
<asrwt>0</asrwt>
<pdfrwt beam="1">  1        2 0.14080087E+00 0.86109502E+03</pdfrwt>
<pdfrwt beam="2">  1       -2 0.21716577E+00 0.86109502E+03</pdfrwt>
<totfact> 0.29805328E+00</totfact>
</mgrwt>
</event>
<event>
 4    1  0.6912310E-008  0.7244144E+03  0.7818608E-02  0.9676368E-01
         -2   -1    0    0    0  501 -0.00000000000E+00  0.00000000000E+00  0.70275041200E+03  0.70275041201E+03  0.25500000000E-02 0.  1.
          2   -1    0    0  501    0  0.00000000000E+00 -0.00000000000E+00 -0.36532399391E+04  0.36532399391E+04  0.25500000000E-02 0. -1.
    8880022    1    1    2    0    0  0.67052795433E+03 -0.22754509290E+03 -0.34179303370E+04  0.34938551700E+04  0.15294330000E+03 0.  0.
    8880022    1    1    2    0    0 -0.67052795433E+03  0.22754509290E+03  0.46744080991E+03  0.86213518117E+03  0.15294330000E+03 0.  0.
<mgrwt>
<rscale>  0 0.72441436E+03</rscale>
<asrwt>0</asrwt>
<pdfrwt beam="1">  1        2 0.56203690E+00 0.72441436E+03</pdfrwt>
<pdfrwt beam="2">  1       -2 0.10811545E+00 0.72441436E+03</pdfrwt>
<totfact> 0.47758606E-01</totfact>
</mgrwt>
</event>
<event>
 4    1  0.6912310E-008  0.8036940E+03  0.7818608E-02  0.9554686E-01
          2   -1    0    0  501    0  0.00000000000E+00  0.00000000000E+00  0.13644139981E+04  0.13644139981E+04  0.25500000000E-02 0. -1.
         -2   -1    0    0    0  501 -0.00000000000E+00 -0.00000000000E+00 -0.74229766977E+03  0.74229766977E+03  0.25500000000E-02 0.  1.
    8880022    1    1    2    0    0  0.61682807800E+03 -0.49199136053E+03  0.94503500697E+03  0.12405705115E+04  0.15294330000E+03 0.  0.
    8880022    1    1    2    0    0 -0.61682807800E+03  0.49199136053E+03 -0.32291867866E+03  0.86614115633E+03  0.15294330000E+03 0.  0.
<mgrwt>
<rscale>  0 0.80369399E+03</rscale>
<asrwt>0</asrwt>
<pdfrwt beam="1">  1        2 0.20990984E+00 0.80369399E+03</pdfrwt>
<pdfrwt beam="2">  1       -2 0.11419964E+00 0.80369399E+03</pdfrwt>
<totfact> 0.92380026E+00</totfact>
</mgrwt>
</event>
<event>
 4    1  0.6912310E-008  0.6603272E+03  0.7818608E-02  0.9787592E-01
          2   -1    0    0  501    0  0.00000000000E+00  0.00000000000E+00  0.13832827457E+04  0.13832827457E+04  0.25500000000E-02 0. -1.
         -2   -1    0    0    0  501 -0.00000000000E+00 -0.00000000000E+00 -0.57477295871E+03  0.57477295871E+03  0.25500000000E-02 0.  1.
    8880022    1    1    2    0    0 -0.56645000109E+03 -0.30294349887E+03  0.10621607099E+04  0.12506867689E+04  0.15294330000E+03 0.  0.
    8880022    1    1    2    0    0  0.56645000109E+03  0.30294349887E+03 -0.25365092289E+03  0.70736893552E+03  0.15294330000E+03 0.  0.
<mgrwt>
<rscale>  0 0.66032721E+03</rscale>
<asrwt>0</asrwt>
<pdfrwt beam="1">  1        2 0.21281273E+00 0.66032721E+03</pdfrwt>
<pdfrwt beam="2">  1       -2 0.88426610E-01 0.66032721E+03</pdfrwt>
<totfact> 0.16838813E+01</totfact>
</mgrwt>
</event>
<event>
 4    1  0.6912310E-008  0.4593501E+03  0.7818608E-02  0.1024970E+00
         -2   -1    0    0    0  501 -0.00000000000E+00  0.00000000000E+00  0.24506521138E+03  0.24506521139E+03  0.25500000000E-02 0.  1.
          2   -1    0    0  501    0  0.00000000000E+00 -0.00000000000E+00 -0.18339645309E+04  0.18339645309E+04  0.25500000000E-02 0. -1.
    8880022    1    1    2    0    0 -0.40184173881E+03  0.16166029111E+03 -0.15516007040E+04  0.16181678622E+04  0.15294330000E+03 0.  0.
    8880022    1    1    2    0    0  0.40184173881E+03 -0.16166029111E+03 -0.37298615560E+02  0.46086188008E+03  0.15294330000E+03 0.  0.
<mgrwt>
<rscale>  0 0.45935007E+03</rscale>
<asrwt>0</asrwt>
<pdfrwt beam="1">  1        2 0.28214838E+00 0.45935007E+03</pdfrwt>
<pdfrwt beam="2">  1       -2 0.37702341E-01 0.45935007E+03</pdfrwt>
<totfact> 0.58674983E+01</totfact>
</mgrwt>
</event>
<event>
 4    1  0.6912310E-008  0.1748346E+03  0.7818608E-02  0.1172898E+00
         -2   -1    0    0    0  501 -0.00000000000E+00  0.00000000000E+00  0.83795503079E+02  0.83795503118E+02  0.25500000000E-02 0.  1.
          2   -1    0    0  501    0  0.00000000000E+00 -0.00000000000E+00 -0.18822177182E+04  0.18822177182E+04  0.25500000000E-02 0. -1.
    8880022    1    1    2    0    0 -0.38344426185E+02  0.75532803774E+02 -0.16585433028E+02  0.17561955776E+03  0.15294330000E+03 0.  1.
    8880022    1    1    2    0    0  0.38344426185E+02 -0.75532803774E+02 -0.17818367821E+04  0.17903936635E+04  0.15294330000E+03 0.  0.
<mgrwt>
<rscale>  0 0.17483464E+03</rscale>
<asrwt>0</asrwt>
<pdfrwt beam="1">  1        2 0.28957193E+00 0.17483464E+03</pdfrwt>
<pdfrwt beam="2">  1       -2 0.12891617E-01 0.17483464E+03</pdfrwt>
<totfact> 0.38647477E+02</totfact>
</mgrwt>
</event>
<event>
 4    1  0.6912310E-008  0.4689794E+03  0.7818608E-02  0.1022209E+00
          2   -1    0    0  501    0  0.00000000000E+00  0.00000000000E+00  0.27612205421E+04  0.27612205421E+04  0.25500000000E-02 0. -1.
         -2   -1    0    0    0  501 -0.00000000000E+00 -0.00000000000E+00 -0.25039978113E+03  0.25039978115E+03  0.25500000000E-02 0.  1.
    8880022    1    1    2    0    0  0.41957177630E+03 -0.14321143065E+03  0.11959807132E+02  0.46913183577E+03  0.15294330000E+03 0.  0.
    8880022    1    1    2    0    0 -0.41957177630E+03  0.14321143065E+03  0.24988609538E+04  0.25424884875E+04  0.15294330000E+03 0.  0.
<mgrwt>
<rscale>  0 0.46897936E+03</rscale>
<asrwt>0</asrwt>
<pdfrwt beam="1">  1        2 0.42480315E+00 0.46897936E+03</pdfrwt>
<pdfrwt beam="2">  1       -2 0.38523045E-01 0.46897936E+03</pdfrwt>
<totfact> 0.17350237E+01</totfact>
</mgrwt>
</event>
<event>
 4    1  0.6912310E-008  0.2508700E+03  0.7818608E-02  0.1112756E+00
          2   -1    0    0  501    0  0.00000000000E+00  0.00000000000E+00  0.92204096273E+03  0.92204096273E+03  0.25500000000E-02 0. -1.
         -2   -1    0    0    0  501 -0.00000000000E+00 -0.00000000000E+00 -0.68482048639E+02  0.68482048686E+02  0.25500000000E-02 0.  1.
    8880022    1    1    2    0    0 -0.19744871198E+03 -0.23624474789E+02  0.39838908141E+03  0.47079679573E+03  0.15294330000E+03 0.  1.
    8880022    1    1    2    0    0  0.19744871198E+03  0.23624474789E+02  0.45516983268E+03  0.51972621568E+03  0.15294330000E+03 0. -1.
<mgrwt>
<rscale>  0 0.25087001E+03</rscale>
<asrwt>0</asrwt>
<pdfrwt beam="1">  1        2 0.14185244E+00 0.25087001E+03</pdfrwt>
<pdfrwt beam="2">  1       -2 0.10535701E-01 0.25087001E+03</pdfrwt>
<totfact> 0.17924446E+03</totfact>
</mgrwt>
</event>
<event>
 4    1  0.6912310E-008  0.2600036E+03  0.7818608E-02  0.1107141E+00
          2   -1    0    0  501    0  0.00000000000E+00  0.00000000000E+00  0.94588366118E+03  0.94588366118E+03  0.25500000000E-02 0. -1.
         -2   -1    0    0    0  501 -0.00000000000E+00 -0.00000000000E+00 -0.71014826253E+03  0.71014826254E+03  0.25500000000E-02 0.  1.
    8880022    1    1    2    0    0  0.20976547144E+03  0.14445709866E+02 -0.66737772290E+03  0.71623662960E+03  0.15294330000E+03 0.  1.
    8880022    1    1    2    0    0 -0.20976547144E+03 -0.14445709866E+02  0.90311312154E+03  0.93979529412E+03  0.15294330000E+03 0.  0.
<mgrwt>
<rscale>  0 0.26000362E+03</rscale>
<asrwt>0</asrwt>
<pdfrwt beam="1">  1        2 0.14552056E+00 0.26000362E+03</pdfrwt>
<pdfrwt beam="2">  1       -2 0.10925358E+00 0.26000362E+03</pdfrwt>
<totfact> 0.20150891E+01</totfact>
</mgrwt>
</event>
<event>
 4    1  0.6912310E-008  0.5611138E+03  0.7818608E-02  0.9989538E-01
          2   -1    0    0  501    0  0.00000000000E+00  0.00000000000E+00  0.19988096826E+04  0.19988096826E+04  0.25500000000E-02 0. -1.
         -2   -1    0    0    0  501 -0.00000000000E+00 -0.00000000000E+00 -0.61398948833E+03  0.61398948834E+03  0.25500000000E-02 0.  1.
    8880022    1    1    2    0    0 -0.27119648347E+03  0.46680774624E+03  0.18188352962E+04  0.19034207344E+04  0.15294330000E+03 0.  0.
    8880022    1    1    2    0    0  0.27119648347E+03 -0.46680774624E+03 -0.43401510186E+03  0.70937843656E+03  0.15294330000E+03 0.  0.
<mgrwt>
<rscale>  0 0.56111377E+03</rscale>
<asrwt>0</asrwt>
<pdfrwt beam="1">  1        2 0.30750917E+00 0.56111377E+03</pdfrwt>
<pdfrwt beam="2">  1       -2 0.94459924E-01 0.56111377E+03</pdfrwt>
<totfact> 0.67799928E+00</totfact>
</mgrwt>
</event>
<event>
 4    1  0.6912310E-008  0.8328848E+03  0.7818608E-02  0.9513601E-01
          2   -1    0    0  501    0  0.00000000000E+00  0.00000000000E+00  0.43685111841E+04  0.43685111841E+04  0.25500000000E-02 0. -1.
         -2   -1    0    0    0  501 -0.00000000000E+00 -0.00000000000E+00 -0.24803603997E+03  0.24803603999E+03  0.25500000000E-02 0.  1.
    8880022    1    1    2    0    0  0.40079313472E+03  0.71391199981E+03  0.34447999863E+04  0.35440575727E+04  0.15294330000E+03 0.  0.
    8880022    1    1    2    0    0 -0.40079313472E+03 -0.71391199981E+03  0.67567515783E+03  0.10724896513E+04  0.15294330000E+03 0.  0.
<mgrwt>
<rscale>  0 0.83288483E+03</rscale>
<asrwt>0</asrwt>
<pdfrwt beam="1">  1        2 0.67207867E+00 0.83288483E+03</pdfrwt>
<pdfrwt beam="2">  1       -2 0.38159389E-01 0.83288483E+03</pdfrwt>
<totfact> 0.11796450E+00</totfact>
</mgrwt>
</event>
<event>
 4    1  0.6912310E-008  0.1992720E+03  0.7818608E-02  0.1150355E+00
         -2   -1    0    0    0  501 -0.00000000000E+00  0.00000000000E+00  0.35396250901E+03  0.35396250902E+03  0.25500000000E-02 0.  1.
          2   -1    0    0  501    0  0.00000000000E+00 -0.00000000000E+00 -0.19543898460E+04  0.19543898460E+04  0.25500000000E-02 0. -1.
    8880022    1    1    2    0    0 -0.92985959927E+02 -0.87585910016E+02 -0.19207745341E+04  0.19310836709E+04  0.15294330000E+03 0.  0.
    8880022    1    1    2    0    0  0.92985959927E+02  0.87585910016E+02  0.32034719703E+03  0.37726868414E+03  0.15294330000E+03 0.  1.
<mgrwt>
<rscale>  0 0.19927201E+03</rscale>
<asrwt>0</asrwt>
<pdfrwt beam="1">  1        2 0.30067535E+00 0.19927201E+03</pdfrwt>
<pdfrwt beam="2">  1       -2 0.54455772E-01 0.19927201E+03</pdfrwt>
<totfact> 0.26610144E+01</totfact>
</mgrwt>
</event>
<event>
 4    1  0.6912310E-008  0.1891746E+03  0.7818608E-02  0.1159208E+00
         -2   -1    0    0    0  501 -0.00000000000E+00  0.00000000000E+00  0.42360295776E+03  0.42360295777E+03  0.25500000000E-02 0.  1.
          2   -1    0    0  501    0  0.00000000000E+00 -0.00000000000E+00 -0.23600286053E+03  0.23600286054E+03  0.25500000000E-02 0. -1.
    8880022    1    1    2    0    0 -0.80202772999E+02 -0.77219702176E+02  0.35806003154E+03  0.40496173449E+03  0.15294330000E+03 0.  0.
    8880022    1    1    2    0    0  0.80202772999E+02  0.77219702176E+02 -0.17045993431E+03  0.25464408381E+03  0.15294330000E+03 0.  0.
<mgrwt>
<rscale>  0 0.18917458E+03</rscale>
<asrwt>0</asrwt>
<pdfrwt beam="1">  1        2 0.36308132E-01 0.18917458E+03</pdfrwt>
<pdfrwt beam="2">  1       -2 0.65169686E-01 0.18917458E+03</pdfrwt>
<totfact> 0.31789753E+02</totfact>
</mgrwt>
</event>
<event>
 4    1  0.6912310E-008  0.2975652E+03  0.7818608E-02  0.1086464E+00
         -2   -1    0    0    0  501 -0.00000000000E+00  0.00000000000E+00  0.11012910010E+03  0.11012910013E+03  0.25500000000E-02 0.  1.
          2   -1    0    0  501    0  0.00000000000E+00 -0.00000000000E+00 -0.13140234038E+04  0.13140234038E+04  0.25500000000E-02 0. -1.
    8880022    1    1    2    0    0 -0.32332000639E+02 -0.25319570006E+03 -0.10455711856E+04  0.10870897745E+04  0.15294330000E+03 0.  0.
    8880022    1    1    2    0    0  0.32332000639E+02  0.25319570006E+03 -0.15832311811E+03  0.33706272938E+03  0.15294330000E+03 0.  1.
<mgrwt>
<rscale>  0 0.29756524E+03</rscale>
<asrwt>0</asrwt>
<pdfrwt beam="1">  1        2 0.20215744E+00 0.29756524E+03</pdfrwt>
<pdfrwt beam="2">  1       -2 0.16942939E-01 0.29756524E+03</pdfrwt>
<totfact> 0.48180619E+02</totfact>
</mgrwt>
</event>
<event>
 4    1  0.6912310E-008  0.1386597E+04  0.7818608E-02  0.8963578E-01
          2   -1    0    0  501    0  0.00000000000E+00  0.00000000000E+00  0.17208471845E+04  0.17208471845E+04  0.25500000000E-02 0. -1.
         -2   -1    0    0    0  501 -0.00000000000E+00 -0.00000000000E+00 -0.18492077265E+04  0.18492077265E+04  0.25500000000E-02 0.  1.
    8880022    1    1    2    0    0 -0.12403371076E+04  0.60068530409E+03 -0.11872046128E+04  0.18254055496E+04  0.15294330000E+03 0.  0.
    8880022    1    1    2    0    0  0.12403371076E+04 -0.60068530409E+03  0.10588440708E+04  0.17446493614E+04  0.15294330000E+03 0.  0.
<mgrwt>
<rscale>  0 0.13865968E+04</rscale>
<asrwt>0</asrwt>
<pdfrwt beam="1">  1        2 0.26474572E+00 0.13865968E+04</pdfrwt>
<pdfrwt beam="2">  1       -2 0.28449350E+00 0.13865968E+04</pdfrwt>
<totfact> 0.35910009E-01</totfact>
</mgrwt>
</event>
<event>
 4    1  0.6912310E-008  0.2040475E+03  0.7818608E-02  0.1146368E+00
          2   -1    0    0  501    0  0.00000000000E+00  0.00000000000E+00  0.56888026500E+03  0.56888026501E+03  0.25500000000E-02 0. -1.
         -2   -1    0    0    0  501 -0.00000000000E+00 -0.00000000000E+00 -0.12809663903E+04  0.12809663903E+04  0.25500000000E-02 0.  1.
    8880022    1    1    2    0    0  0.86739904667E+01  0.13479047933E+03  0.54206882277E+03  0.57920115078E+03  0.15294330000E+03 0.  0.
    8880022    1    1    2    0    0 -0.86739904667E+01 -0.13479047933E+03 -0.12541549480E+04  0.12706455045E+04  0.15294330000E+03 0.  1.
<mgrwt>
<rscale>  0 0.20404746E+03</rscale>
<asrwt>0</asrwt>
<pdfrwt beam="1">  1        2 0.87520041E-01 0.20404746E+03</pdfrwt>
<pdfrwt beam="2">  1       -2 0.19707175E+00 0.20404746E+03</pdfrwt>
<totfact> 0.83957813E+00</totfact>
</mgrwt>
</event>
<event>
 4    1  0.6912310E-008  0.1810814E+03  0.7818608E-02  0.1166761E+00
          2   -1    0    0  501    0  0.00000000000E+00  0.00000000000E+00  0.39044142816E+04  0.39044142816E+04  0.25500000000E-02 0. -1.
         -2   -1    0    0    0  501 -0.00000000000E+00 -0.00000000000E+00 -0.58982009644E+02  0.58982009699E+02  0.25500000000E-02 0.  1.
    8880022    1    1    2    0    0 -0.80652431610E+02 -0.53795878397E+02  0.37579145874E+04  0.37622749116E+04  0.15294330000E+03 0.  0.
    8880022    1    1    2    0    0  0.80652431610E+02  0.53795878397E+02  0.87517684601E+02  0.20112137974E+03  0.15294330000E+03 0.  1.
<mgrwt>
<rscale>  0 0.18108137E+03</rscale>
<asrwt>0</asrwt>
<pdfrwt beam="1">  1        2 0.60067946E+00 0.18108137E+03</pdfrwt>
<pdfrwt beam="2">  1       -2 0.90741502E-02 0.18108137E+03</pdfrwt>
<totfact> 0.43307282E+01</totfact>
</mgrwt>
</event>
<event>
 4    1  0.6912310E-008  0.1351546E+04  0.7818608E-02  0.8989658E-01
         -2   -1    0    0    0  501 -0.00000000000E+00  0.00000000000E+00  0.71231243091E+03  0.71231243092E+03  0.25500000000E-02 0.  1.
          2   -1    0    0  501    0  0.00000000000E+00 -0.00000000000E+00 -0.36722940111E+04  0.36722940111E+04  0.25500000000E-02 0. -1.
    8880022    1    1    2    0    0  0.12081833167E+03 -0.13374186222E+04 -0.26841241739E+04  0.30051954801E+04  0.15294330000E+03 0.  0.
    8880022    1    1    2    0    0 -0.12081833167E+03  0.13374186222E+04 -0.27585740634E+03  0.13794109619E+04  0.15294330000E+03 0.  0.
<mgrwt>
<rscale>  0 0.13515463E+04</rscale>
<asrwt>0</asrwt>
<pdfrwt beam="1">  1        2 0.56496830E+00 0.13515463E+04</pdfrwt>
<pdfrwt beam="2">  1       -2 0.10958653E+00 0.13515463E+04</pdfrwt>
<totfact> 0.39804965E-01</totfact>
</mgrwt>
</event>
<event>
 4    1  0.6912310E-008  0.8964311E+03  0.7818608E-02  0.9430054E-01
          2   -1    0    0  501    0  0.00000000000E+00  0.00000000000E+00  0.28595389815E+04  0.28595389815E+04  0.25500000000E-02 0. -1.
         -2   -1    0    0    0  501 -0.00000000000E+00 -0.00000000000E+00 -0.29985038698E+03  0.29985038700E+03  0.25500000000E-02 0.  1.
    8880022    1    1    2    0    0  0.65784741359E+03 -0.58943511663E+03  0.88397984805E+03  0.12589714060E+04  0.15294330000E+03 0.  0.
    8880022    1    1    2    0    0 -0.65784741359E+03  0.58943511663E+03  0.16757087465E+04  0.19004179625E+04  0.15294330000E+03 0.  0.
<mgrwt>
<rscale>  0 0.89643105E+03</rscale>
<asrwt>0</asrwt>
<pdfrwt beam="1">  1        2 0.43992908E+00 0.89643105E+03</pdfrwt>
<pdfrwt beam="2">  1       -2 0.46130829E-01 0.89643105E+03</pdfrwt>
<totfact> 0.98045200E+00</totfact>
</mgrwt>
</event>
<event>
 4    1  0.6912310E-008  0.1124606E+04  0.7818608E-02  0.9181536E-01
          2   -1    0    0  501    0  0.00000000000E+00  0.00000000000E+00  0.21030313469E+04  0.21030313469E+04  0.25500000000E-02 0. -1.
         -2   -1    0    0    0  501 -0.00000000000E+00 -0.00000000000E+00 -0.11176849173E+04  0.11176849173E+04  0.25500000000E-02 0.  1.
    8880022    1    1    2    0    0  0.37605812023E+03 -0.10487740302E+04 -0.60181840049E+03  0.12755091988E+04  0.15294330000E+03 0.  0.
    8880022    1    1    2    0    0 -0.37605812023E+03  0.10487740302E+04  0.15871648301E+04  0.19452070653E+04  0.15294330000E+03 0.  0.
<mgrwt>
<rscale>  0 0.11246059E+04</rscale>
<asrwt>0</asrwt>
<pdfrwt beam="1">  1        2 0.32354328E+00 0.11246059E+04</pdfrwt>
<pdfrwt beam="2">  1       -2 0.17195153E+00 0.11246059E+04</pdfrwt>
<totfact> 0.11865199E+00</totfact>
</mgrwt>
</event>
<event>
 4    1  0.6912310E-008  0.5793053E+03  0.7818608E-02  0.9949296E-01
          2   -1    0    0  501    0  0.00000000000E+00  0.00000000000E+00  0.17919290246E+04  0.17919290246E+04  0.25500000000E-02 0. -1.
         -2   -1    0    0    0  501 -0.00000000000E+00 -0.00000000000E+00 -0.31394642870E+03  0.31394642871E+03  0.25500000000E-02 0.  1.
    8880022    1    1    2    0    0  0.52085661493E+03  0.20226566301E+03  0.14078025549E+04  0.15223346210E+04  0.15294330000E+03 0.  0.
    8880022    1    1    2    0    0 -0.52085661493E+03 -0.20226566301E+03  0.70180040960E+02  0.58354083225E+03  0.15294330000E+03 0.  0.
<mgrwt>
<rscale>  0 0.57930533E+03</rscale>
<asrwt>0</asrwt>
<pdfrwt beam="1">  1        2 0.27568139E+00 0.57930533E+03</pdfrwt>
<pdfrwt beam="2">  1       -2 0.48299451E-01 0.57930533E+03</pdfrwt>
<totfact> 0.37242976E+01</totfact>
</mgrwt>
</event>
<event>
 4    1  0.6912310E-008  0.4928341E+03  0.7818608E-02  0.1015666E+00
          2   -1    0    0  501    0  0.00000000000E+00  0.00000000000E+00  0.45000961316E+03  0.45000961317E+03  0.25500000000E-02 0. -1.
         -2   -1    0    0    0  501 -0.00000000000E+00 -0.00000000000E+00 -0.66607076340E+03  0.66607076341E+03  0.25500000000E-02 0.  1.
    8880022    1    1    2    0    0  0.12740894074E+02 -0.46832836104E+03 -0.35106643628E+03  0.60508931559E+03  0.15294330000E+03 0.  0.
    8880022    1    1    2    0    0 -0.12740894074E+02  0.46832836104E+03  0.13500528604E+03  0.51099106099E+03  0.15294330000E+03 0.  0.
<mgrwt>
<rscale>  0 0.49283409E+03</rscale>
<asrwt>0</asrwt>
<pdfrwt beam="1">  1        2 0.69232248E-01 0.49283409E+03</pdfrwt>
<pdfrwt beam="2">  1       -2 0.10247243E+00 0.49283409E+03</pdfrwt>
<totfact> 0.55896710E+01</totfact>
</mgrwt>
</event>
<event>
 4    1  0.6912310E-008  0.5157446E+03  0.7818608E-02  0.1009749E+00
         -2   -1    0    0    0  501 -0.00000000000E+00  0.00000000000E+00  0.36383558707E+03  0.36383558708E+03  0.25500000000E-02 0.  1.
          2   -1    0    0  501    0  0.00000000000E+00 -0.00000000000E+00 -0.13020252915E+04  0.13020252915E+04  0.25500000000E-02 0. -1.
    8880022    1    1    2    0    0 -0.34843130570E+03 -0.34813285548E+03 -0.10206598497E+04  0.11435641834E+04  0.15294330000E+03 0.  0.
    8880022    1    1    2    0    0  0.34843130570E+03  0.34813285548E+03  0.82470145294E+02  0.52229669512E+03  0.15294330000E+03 0.  0.
<mgrwt>
<rscale>  0 0.51574462E+03</rscale>
<asrwt>0</asrwt>
<pdfrwt beam="1">  1        2 0.20031158E+00 0.51574462E+03</pdfrwt>
<pdfrwt beam="2">  1       -2 0.55974706E-01 0.51574462E+03</pdfrwt>
<totfact> 0.51752946E+01</totfact>
</mgrwt>
</event>
<event>
 4    1  0.6912310E-008  0.2043852E+03  0.7818608E-02  0.1146091E+00
          2   -1    0    0  501    0  0.00000000000E+00  0.00000000000E+00  0.38688376814E+03  0.38688376815E+03  0.25500000000E-02 0. -1.
         -2   -1    0    0    0  501 -0.00000000000E+00 -0.00000000000E+00 -0.22352034259E+03  0.22352034261E+03  0.25500000000E-02 0.  1.
    8880022    1    1    2    0    0  0.72193299812E+02 -0.11475970187E+03  0.30111746328E+03  0.36392999521E+03  0.15294330000E+03 0.  0.
    8880022    1    1    2    0    0 -0.72193299812E+02  0.11475970187E+03 -0.13775403773E+03  0.24647411555E+03  0.15294330000E+03 0.  0.
<mgrwt>
<rscale>  0 0.20438521E+03</rscale>
<asrwt>0</asrwt>
<pdfrwt beam="1">  1        2 0.59520579E-01 0.20438521E+03</pdfrwt>
<pdfrwt beam="2">  1       -2 0.34387745E-01 0.20438521E+03</pdfrwt>
<totfact> 0.65955524E+02</totfact>
</mgrwt>
</event>
<event>
 4    1  0.6912310E-008  0.7418365E+03  0.7818608E-02  0.9648245E-01
         -2   -1    0    0    0  501 -0.00000000000E+00  0.00000000000E+00  0.86405060927E+03  0.86405060927E+03  0.25500000000E-02 0.  1.
          2   -1    0    0  501    0  0.00000000000E+00 -0.00000000000E+00 -0.11408877122E+04  0.11408877122E+04  0.25500000000E-02 0. -1.
    8880022    1    1    2    0    0 -0.27768772894E+02 -0.72536797284E+03 -0.80469696620E+03  0.10944672956E+04  0.15294330000E+03 0.  0.
    8880022    1    1    2    0    0  0.27768772894E+02  0.72536797284E+03  0.52785986322E+03  0.91047102589E+03  0.15294330000E+03 0.  0.
<mgrwt>
<rscale>  0 0.74183654E+03</rscale>
<asrwt>0</asrwt>
<pdfrwt beam="1">  1        2 0.17552119E+00 0.74183654E+03</pdfrwt>
<pdfrwt beam="2">  1       -2 0.13293086E+00 0.74183654E+03</pdfrwt>
<totfact> 0.86113933E+00</totfact>
</mgrwt>
</event>
<event>
 4    1  0.6912310E-008  0.2885734E+03  0.7818608E-02  0.1091096E+00
          2   -1    0    0  501    0  0.00000000000E+00  0.00000000000E+00  0.46730585707E+03  0.46730585707E+03  0.25500000000E-02 0. -1.
         -2   -1    0    0    0  501 -0.00000000000E+00 -0.00000000000E+00 -0.26761448407E+03  0.26761448408E+03  0.25500000000E-02 0.  1.
    8880022    1    1    2    0    0 -0.14479973655E+03 -0.19727135341E+03  0.31224629917E+03  0.42517332341E+03  0.15294330000E+03 0.  0.
    8880022    1    1    2    0    0  0.14479973655E+03  0.19727135341E+03 -0.11255492617E+03  0.30974701774E+03  0.15294330000E+03 0.  0.
<mgrwt>
<rscale>  0 0.28857339E+03</rscale>
<asrwt>0</asrwt>
<pdfrwt beam="1">  1        2 0.71893208E-01 0.28857339E+03</pdfrwt>
<pdfrwt beam="2">  1       -2 0.41171459E-01 0.28857339E+03</pdfrwt>
<totfact> 0.38068017E+02</totfact>
</mgrwt>
</event>
<event>
 4    1  0.6912310E-008  0.3808953E+03  0.7818608E-02  0.1050603E+00
         -2   -1    0    0    0  501 -0.00000000000E+00  0.00000000000E+00  0.54699709908E+03  0.54699709909E+03  0.25500000000E-02 0.  1.
          2   -1    0    0  501    0  0.00000000000E+00 -0.00000000000E+00 -0.12435983347E+04  0.12435983347E+04  0.25500000000E-02 0. -1.
    8880022    1    1    2    0    0 -0.34612681305E+03  0.43425895384E+02 -0.11424059674E+04  0.12042311350E+04  0.15294330000E+03 0.  0.
    8880022    1    1    2    0    0  0.34612681305E+03 -0.43425895384E+02  0.44580473175E+03  0.58636429885E+03  0.15294330000E+03 0.  0.
<mgrwt>
<rscale>  0 0.38089530E+03</rscale>
<asrwt>0</asrwt>
<pdfrwt beam="1">  1        2 0.19132282E+00 0.38089530E+03</pdfrwt>
<pdfrwt beam="2">  1       -2 0.84153400E-01 0.38089530E+03</pdfrwt>
<totfact> 0.23739212E+01</totfact>
</mgrwt>
</event>
<event>
 4    1  0.6912310E-008  0.1013110E+04  0.7818608E-02  0.9294281E-01
         -2   -1    0    0    0  501 -0.00000000000E+00  0.00000000000E+00  0.45875943326E+03  0.45875943327E+03  0.25500000000E-02 0.  1.
          2   -1    0    0  501    0  0.00000000000E+00 -0.00000000000E+00 -0.27000014738E+04  0.27000014738E+04  0.25500000000E-02 0. -1.
    8880022    1    1    2    0    0  0.65588375356E+03 -0.75684691460E+03 -0.17744212188E+04  0.20432726360E+04  0.15294330000E+03 0.  0.
    8880022    1    1    2    0    0 -0.65588375356E+03  0.75684691460E+03 -0.46682082180E+03  0.11154882711E+04  0.15294330000E+03 0.  0.
<mgrwt>
<rscale>  0 0.10131103E+04</rscale>
<asrwt>0</asrwt>
<pdfrwt beam="1">  1        2 0.41538483E+00 0.10131103E+04</pdfrwt>
<pdfrwt beam="2">  1       -2 0.70578376E-01 0.10131103E+04</pdfrwt>
<totfact> 0.49126254E+00</totfact>
</mgrwt>
</event>
<event>
 4    1  0.6912310E-008  0.6155841E+03  0.7818608E-02  0.9873591E-01
         -2   -1    0    0    0  501 -0.00000000000E+00  0.00000000000E+00  0.62317110115E+03  0.62317110116E+03  0.25500000000E-02 0.  1.
          2   -1    0    0  501    0  0.00000000000E+00 -0.00000000000E+00 -0.16491865600E+04  0.16491865600E+04  0.25500000000E-02 0. -1.
    8880022    1    1    2    0    0  0.36057384654E+03 -0.47490902261E+03  0.38972135264E+03  0.72857838582E+03  0.15294330000E+03 0.  0.
    8880022    1    1    2    0    0 -0.36057384654E+03  0.47490902261E+03 -0.14157368115E+04  0.15437792754E+04  0.15294330000E+03 0.  0.
<mgrwt>
<rscale>  0 0.61558406E+03</rscale>
<asrwt>0</asrwt>
<pdfrwt beam="1">  1        2 0.25372101E+00 0.61558406E+03</pdfrwt>
<pdfrwt beam="2">  1       -2 0.95872478E-01 0.61558406E+03</pdfrwt>
<totfact> 0.10020706E+01</totfact>
</mgrwt>
</event>
<event>
 4    1  0.6912310E-008  0.3983023E+03  0.7818608E-02  0.1044369E+00
         -2   -1    0    0    0  501 -0.00000000000E+00  0.00000000000E+00  0.32822816628E+03  0.32822816629E+03  0.25500000000E-02 0.  1.
          2   -1    0    0  501    0  0.00000000000E+00 -0.00000000000E+00 -0.95104077834E+03  0.95104077834E+03  0.25500000000E-02 0. -1.
    8880022    1    1    2    0    0 -0.14996390697E+02 -0.36746175955E+03 -0.75996358843E+03  0.85801476981E+03  0.15294330000E+03 0.  0.
    8880022    1    1    2    0    0  0.14996390697E+02  0.36746175955E+03  0.13715097638E+03  0.42125417481E+03  0.15294330000E+03 0.  0.
<mgrwt>
<rscale>  0 0.39830226E+03</rscale>
<asrwt>0</asrwt>
<pdfrwt beam="1">  1        2 0.14631396E+00 0.39830226E+03</pdfrwt>
<pdfrwt beam="2">  1       -2 0.50496641E-01 0.39830226E+03</pdfrwt>
<totfact> 0.10531169E+02</totfact>
</mgrwt>
</event>
<event>
 4    1  0.6912310E-008  0.1469187E+04  0.7818608E-02  0.8905206E-01
          2   -1    0    0  501    0  0.00000000000E+00  0.00000000000E+00  0.28180073791E+04  0.28180073791E+04  0.25500000000E-02 0. -1.
         -2   -1    0    0    0  501 -0.00000000000E+00 -0.00000000000E+00 -0.16995799590E+04  0.16995799590E+04  0.25500000000E-02 0.  1.
    8880022    1    1    2    0    0  0.10493949812E+04  0.10168031924E+04 -0.11149133193E+04  0.18443269562E+04  0.15294330000E+03 0.  0.
    8880022    1    1    2    0    0 -0.10493949812E+04 -0.10168031924E+04  0.22333407394E+04  0.26732603820E+04  0.15294330000E+03 0.  0.
<mgrwt>
<rscale>  0 0.14691869E+04</rscale>
<asrwt>0</asrwt>
<pdfrwt beam="1">  1        2 0.43353960E+00 0.14691869E+04</pdfrwt>
<pdfrwt beam="2">  1       -2 0.26147384E+00 0.14691869E+04</pdfrwt>
<totfact> 0.11623333E-01</totfact>
</mgrwt>
</event>
<event>
 4    1  0.6912310E-008  0.7603867E+03  0.7818608E-02  0.9619195E-01
         -2   -1    0    0    0  501 -0.00000000000E+00  0.00000000000E+00  0.12547807004E+04  0.12547807004E+04  0.25500000000E-02 0.  1.
          2   -1    0    0  501    0  0.00000000000E+00 -0.00000000000E+00 -0.61506847073E+03  0.61506847073E+03  0.25500000000E-02 0. -1.
    8880022    1    1    2    0    0 -0.64237627290E+03  0.37702647570E+03 -0.14838583789E+03  0.77472979113E+03  0.15294330000E+03 0.  0.
    8880022    1    1    2    0    0  0.64237627290E+03 -0.37702647570E+03  0.78809806756E+03  0.10951193800E+04  0.15294330000E+03 0.  0.
<mgrwt>
<rscale>  0 0.76038667E+03</rscale>
<asrwt>0</asrwt>
<pdfrwt beam="1">  1        2 0.94625919E-01 0.76038667E+03</pdfrwt>
<pdfrwt beam="2">  1       -2 0.19304318E+00 0.76038667E+03</pdfrwt>
<totfact> 0.72450224E+00</totfact>
</mgrwt>
</event>
<event>
 4    1  0.6912310E-008  0.8447983E+03  0.7818608E-02  0.9497345E-01
          2   -1    0    0  501    0  0.00000000000E+00  0.00000000000E+00  0.12431996032E+04  0.12431996032E+04  0.25500000000E-02 0. -1.
         -2   -1    0    0    0  501 -0.00000000000E+00 -0.00000000000E+00 -0.78962737016E+03  0.78962737017E+03  0.25500000000E-02 0.  1.
    8880022    1    1    2    0    0  0.83070716806E+03  0.14768138928E+02  0.75784210651E+03  0.11349047574E+04  0.15294330000E+03 0.  0.
    8880022    1    1    2    0    0 -0.83070716806E+03 -0.14768138928E+02 -0.30426987346E+03  0.89792221596E+03  0.15294330000E+03 0.  0.
<mgrwt>
<rscale>  0 0.84479829E+03</rscale>
<asrwt>0</asrwt>
<pdfrwt beam="1">  1        2 0.19126148E+00 0.84479829E+03</pdfrwt>
<pdfrwt beam="2">  1       -2 0.12148113E+00 0.84479829E+03</pdfrwt>
<totfact> 0.92758566E+00</totfact>
</mgrwt>
</event>
<event>
 4    1  0.6912310E-008  0.2670931E+03  0.7818608E-02  0.1102955E+00
          2   -1    0    0  501    0  0.00000000000E+00  0.00000000000E+00  0.22622519624E+04  0.22622519624E+04  0.25500000000E-02 0. -1.
         -2   -1    0    0    0  501 -0.00000000000E+00 -0.00000000000E+00 -0.51026873253E+02  0.51026873317E+02  0.25500000000E-02 0.  1.
    8880022    1    1    2    0    0 -0.21892195138E+03  0.44973475720E+01  0.18204911029E+04  0.18399800422E+04  0.15294330000E+03 0.  0.
    8880022    1    1    2    0    0  0.21892195138E+03 -0.44973475720E+01  0.39073398627E+03  0.47329879355E+03  0.15294330000E+03 0.  1.
<mgrwt>
<rscale>  0 0.26709305E+03</rscale>
<asrwt>0</asrwt>
<pdfrwt beam="1">  1        2 0.34803873E+00 0.26709305E+03</pdfrwt>
<pdfrwt beam="2">  1       -2 0.78502889E-02 0.26709305E+03</pdfrwt>
<totfact> 0.52629322E+02</totfact>
</mgrwt>
</event>
<event>
 4    1  0.6912310E-008  0.1333870E+04  0.7818608E-02  0.9003129E-01
          2   -1    0    0  501    0  0.00000000000E+00  0.00000000000E+00  0.22486891332E+04  0.22486891332E+04  0.25500000000E-02 0. -1.
         -2   -1    0    0    0  501 -0.00000000000E+00 -0.00000000000E+00 -0.86021500348E+03  0.86021500349E+03  0.25500000000E-02 0.  1.
    8880022    1    1    2    0    0  0.28059682062E+03  0.12950226006E+04  0.11344673556E+04  0.17510642323E+04  0.15294330000E+03 0.  0.
    8880022    1    1    2    0    0 -0.28059682062E+03 -0.12950226006E+04  0.25400677412E+03  0.13578399044E+04  0.15294330000E+03 0.  0.
<mgrwt>
<rscale>  0 0.13338702E+04</rscale>
<asrwt>0</asrwt>
<pdfrwt beam="1">  1        2 0.34595218E+00 0.13338702E+04</pdfrwt>
<pdfrwt beam="2">  1       -2 0.13234077E+00 0.13338702E+04</pdfrwt>
<totfact> 0.19366094E+00</totfact>
</mgrwt>
</event>
<event>
 4    1  0.6912310E-008  0.5911303E+03  0.7818608E-02  0.9923981E-01
         -2   -1    0    0    0  501 -0.00000000000E+00  0.00000000000E+00  0.73345613933E+03  0.73345613933E+03  0.25500000000E-02 0.  1.
          2   -1    0    0  501    0  0.00000000000E+00 -0.00000000000E+00 -0.14145264186E+04  0.14145264186E+04  0.25500000000E-02 0. -1.
    8880022    1    1    2    0    0  0.55879651225E+03 -0.11743032298E+03  0.53408742326E+03  0.79667085522E+03  0.15294330000E+03 0.  0.
    8880022    1    1    2    0    0 -0.55879651225E+03  0.11743032298E+03 -0.12151577025E+04  0.13513117027E+04  0.15294330000E+03 0. -1.
<mgrwt>
<rscale>  0 0.59113034E+03</rscale>
<asrwt>0</asrwt>
<pdfrwt beam="1">  1        2 0.21761945E+00 0.59113034E+03</pdfrwt>
<pdfrwt beam="2">  1       -2 0.11283941E+00 0.59113034E+03</pdfrwt>
<totfact> 0.91914267E+00</totfact>
</mgrwt>
</event>
<event>
 4    1  0.6912310E-008  0.3480052E+03  0.7818608E-02  0.1063437E+00
         -2   -1    0    0    0  501 -0.00000000000E+00  0.00000000000E+00  0.18072499144E+03  0.18072499146E+03  0.25500000000E-02 0.  1.
          2   -1    0    0  501    0  0.00000000000E+00 -0.00000000000E+00 -0.12452489021E+04  0.12452489021E+04  0.25500000000E-02 0. -1.
    8880022    1    1    2    0    0  0.15967709247E+03 -0.26873627704E+03 -0.10168087344E+04  0.10747128062E+04  0.15294330000E+03 0.  0.
    8880022    1    1    2    0    0 -0.15967709247E+03  0.26873627704E+03 -0.47715176299E+02  0.35126108740E+03  0.15294330000E+03 0.  0.
<mgrwt>
<rscale>  0 0.34800519E+03</rscale>
<asrwt>0</asrwt>
<pdfrwt beam="1">  1        2 0.19157675E+00 0.34800519E+03</pdfrwt>
<pdfrwt beam="2">  1       -2 0.27803846E-01 0.34800519E+03</pdfrwt>
<totfact> 0.22061764E+02</totfact>
</mgrwt>
</event>
<event>
 4    1  0.6912310E-008  0.8928093E+03  0.7818608E-02  0.9434615E-01
          2   -1    0    0  501    0  0.00000000000E+00  0.00000000000E+00  0.20849884289E+04  0.20849884289E+04  0.25500000000E-02 0. -1.
         -2   -1    0    0    0  501 -0.00000000000E+00 -0.00000000000E+00 -0.62925382261E+03  0.62925382262E+03  0.25500000000E-02 0.  1.
    8880022    1    1    2    0    0 -0.87565934514E+03 -0.83291632552E+02 -0.12230359424E+03  0.90114738359E+03  0.15294330000E+03 0.  0.
    8880022    1    1    2    0    0  0.87565934514E+03  0.83291632552E+02  0.15780382005E+04  0.18130948679E+04  0.15294330000E+03 0.  0.
<mgrwt>
<rscale>  0 0.89280930E+03</rscale>
<asrwt>0</asrwt>
<pdfrwt beam="1">  1        2 0.32076745E+00 0.89280930E+03</pdfrwt>
<pdfrwt beam="2">  1       -2 0.96808280E-01 0.89280930E+03</pdfrwt>
<totfact> 0.54270037E+00</totfact>
</mgrwt>
</event>
<event>
 4    1  0.6912310E-008  0.2191759E+03  0.7818608E-02  0.1134499E+00
         -2   -1    0    0    0  501 -0.00000000000E+00  0.00000000000E+00  0.68024562211E+02  0.68024562259E+02  0.25500000000E-02 0.  1.
          2   -1    0    0  501    0  0.00000000000E+00 -0.00000000000E+00 -0.11190684499E+04  0.11190684499E+04  0.25500000000E-02 0. -1.
    8880022    1    1    2    0    0  0.10808310869E+03 -0.11386154839E+03 -0.16499386314E+03  0.27433745365E+03  0.15294330000E+03 0.  0.
    8880022    1    1    2    0    0 -0.10808310869E+03  0.11386154839E+03 -0.88605002458E+03  0.91275555855E+03  0.15294330000E+03 0.  0.
<mgrwt>
<rscale>  0 0.21917587E+03</rscale>
<asrwt>0</asrwt>
<pdfrwt beam="1">  1        2 0.17216436E+00 0.21917587E+03</pdfrwt>
<pdfrwt beam="2">  1       -2 0.10465318E-01 0.21917587E+03</pdfrwt>
<totfact> 0.13755618E+03</totfact>
</mgrwt>
</event>
<event>
 4    1  0.6912310E-008  0.1290520E+04  0.7818608E-02  0.9037117E-01
          2   -1    0    0  501    0  0.00000000000E+00  0.00000000000E+00  0.34647685196E+04  0.34647685196E+04  0.25500000000E-02 0. -1.
         -2   -1    0    0    0  501 -0.00000000000E+00 -0.00000000000E+00 -0.62867606587E+03  0.62867606587E+03  0.25500000000E-02 0.  1.
    8880022    1    1    2    0    0  0.83325262674E+03  0.97351899267E+03  0.24110988945E+04  0.27347465515E+04  0.15294330000E+03 0.  0.
    8880022    1    1    2    0    0 -0.83325262674E+03 -0.97351899267E+03  0.42499355926E+03  0.13586980340E+04  0.15294330000E+03 0.  0.
<mgrwt>
<rscale>  0 0.12905196E+04</rscale>
<asrwt>0</asrwt>
<pdfrwt beam="1">  1        2 0.53304132E+00 0.12905196E+04</pdfrwt>
<pdfrwt beam="2">  1       -2 0.96719394E-01 0.12905196E+04</pdfrwt>
<totfact> 0.75920747E-01</totfact>
</mgrwt>
</event>
<event>
 4    1  0.6912310E-008  0.5339919E+03  0.7818608E-02  0.1005269E+00
         -2   -1    0    0    0  501 -0.00000000000E+00  0.00000000000E+00  0.34111222079E+03  0.34111222080E+03  0.25500000000E-02 0.  1.
          2   -1    0    0  501    0  0.00000000000E+00 -0.00000000000E+00 -0.13941025819E+04  0.13941025819E+04  0.25500000000E-02 0. -1.
    8880022    1    1    2    0    0 -0.50458018488E+03  0.84584542584E+02 -0.10754776929E+04  0.12007496112E+04  0.15294330000E+03 0.  0.
    8880022    1    1    2    0    0  0.50458018488E+03 -0.84584542584E+02  0.22487331809E+02  0.53446519150E+03  0.15294330000E+03 0. -1.
<mgrwt>
<rscale>  0 0.53399191E+03</rscale>
<asrwt>0</asrwt>
<pdfrwt beam="1">  1        2 0.21447732E+00 0.53399191E+03</pdfrwt>
<pdfrwt beam="2">  1       -2 0.52478804E-01 0.53399191E+03</pdfrwt>
<totfact> 0.52304034E+01</totfact>
</mgrwt>
</event>
<event>
 4    1  0.6912310E-008  0.7418203E+03  0.7818608E-02  0.9648271E-01
          2   -1    0    0  501    0  0.00000000000E+00  0.00000000000E+00  0.19726245201E+04  0.19726245201E+04  0.25500000000E-02 0. -1.
         -2   -1    0    0    0  501 -0.00000000000E+00 -0.00000000000E+00 -0.37150344821E+03  0.37150344822E+03  0.25500000000E-02 0.  1.
    8880022    1    1    2    0    0  0.58129738722E+03 -0.43474017526E+03  0.13855204343E+04  0.15716119748E+04  0.15294330000E+03 0.  0.
    8880022    1    1    2    0    0 -0.58129738722E+03  0.43474017526E+03  0.21560063764E+03  0.77251599358E+03  0.15294330000E+03 0.  0.
<mgrwt>
<rscale>  0 0.74182028E+03</rscale>
<asrwt>0</asrwt>
<pdfrwt beam="1">  1        2 0.30348070E+00 0.74182028E+03</pdfrwt>
<pdfrwt beam="2">  1       -2 0.57154375E-01 0.74182028E+03</pdfrwt>
<totfact> 0.20538420E+01</totfact>
</mgrwt>
</event>
<event>
 4    1  0.6912310E-008  0.1618859E+03  0.7818608E-02  0.1186584E+00
         -2   -1    0    0    0  501 -0.00000000000E+00  0.00000000000E+00  0.15514877947E+03  0.15514877950E+03  0.25500000000E-02 0.  1.
          2   -1    0    0  501    0  0.00000000000E+00 -0.00000000000E+00 -0.10963185172E+04  0.10963185172E+04  0.25500000000E-02 0. -1.
    8880022    1    1    2    0    0  0.45590140747E+02  0.27146389561E+02  0.10492844730E+03  0.19291713109E+03  0.15294330000E+03 0.  1.
    8880022    1    1    2    0    0 -0.45590140747E+02 -0.27146389561E+02 -0.10460981850E+04  0.10585501656E+04  0.15294330000E+03 0.  0.
<mgrwt>
<rscale>  0 0.16188589E+03</rscale>
<asrwt>0</asrwt>
<pdfrwt beam="1">  1        2 0.16866438E+00 0.16188589E+03</pdfrwt>
<pdfrwt beam="2">  1       -2 0.23869044E-01 0.16188589E+03</pdfrwt>
<totfact> 0.36261514E+02</totfact>
</mgrwt>
</event>
<event>
 4    1  0.6912310E-008  0.5878679E+03  0.7818608E-02  0.9930901E-01
          2   -1    0    0  501    0  0.00000000000E+00  0.00000000000E+00  0.44640632104E+04  0.44640632104E+04  0.25500000000E-02 0. -1.
         -2   -1    0    0    0  501 -0.00000000000E+00 -0.00000000000E+00 -0.16248361598E+03  0.16248361600E+03  0.25500000000E-02 0.  1.
    8880022    1    1    2    0    0 -0.26525637577E+03 -0.50183272368E+03  0.47698419525E+03  0.75703540405E+03  0.15294330000E+03 0.  0.
    8880022    1    1    2    0    0  0.26525637577E+03  0.50183272368E+03  0.38245953992E+04  0.38695114224E+04  0.15294330000E+03 0.  0.
<mgrwt>
<rscale>  0 0.58786791E+03</rscale>
<asrwt>0</asrwt>
<pdfrwt beam="1">  1        2 0.68677894E+00 0.58786791E+03</pdfrwt>
<pdfrwt beam="2">  1       -2 0.24997480E-01 0.58786791E+03</pdfrwt>
<totfact> 0.22654455E+00</totfact>
</mgrwt>
</event>
<event>
 4    1  0.6912310E-008  0.5795795E+03  0.7818608E-02  0.9948702E-01
         -2   -1    0    0    0  501 -0.00000000000E+00  0.00000000000E+00  0.95500095692E+03  0.95500095692E+03  0.25500000000E-02 0.  1.
          2   -1    0    0  501    0  0.00000000000E+00 -0.00000000000E+00 -0.11069246363E+04  0.11069246363E+04  0.25500000000E-02 0. -1.
    8880022    1    1    2    0    0  0.26219602314E+03  0.49373472136E+03  0.77558871398E+03  0.96822013814E+03  0.15294330000E+03 0.  0.
    8880022    1    1    2    0    0 -0.26219602314E+03 -0.49373472136E+03 -0.92751239341E+03  0.10937054551E+04  0.15294330000E+03 0. -1.
<mgrwt>
<rscale>  0 0.57957949E+03</rscale>
<asrwt>0</asrwt>
<pdfrwt beam="1">  1        2 0.17029610E+00 0.57957949E+03</pdfrwt>
<pdfrwt beam="2">  1       -2 0.14692322E+00 0.57957949E+03</pdfrwt>
<totfact> 0.71422186E+00</totfact>
</mgrwt>
</event>
<event>
 4    1  0.6912310E-008  0.5390680E+03  0.7818608E-02  0.1004056E+00
         -2   -1    0    0    0  501 -0.00000000000E+00  0.00000000000E+00  0.19777280053E+03  0.19777280055E+03  0.25500000000E-02 0.  1.
          2   -1    0    0  501    0  0.00000000000E+00 -0.00000000000E+00 -0.16368735576E+04  0.16368735576E+04  0.25500000000E-02 0. -1.
    8880022    1    1    2    0    0  0.16216242590E+03 -0.49082178457E+03 -0.10130268507E+04  0.11475267883E+04  0.15294330000E+03 0.  0.
    8880022    1    1    2    0    0 -0.16216242590E+03  0.49082178457E+03 -0.42607390636E+03  0.68711956985E+03  0.15294330000E+03 0.  0.
<mgrwt>
<rscale>  0 0.53906802E+03</rscale>
<asrwt>0</asrwt>
<pdfrwt beam="1">  1        2 0.25182669E+00 0.53906802E+03</pdfrwt>
<pdfrwt beam="2">  1       -2 0.30426586E-01 0.53906802E+03</pdfrwt>
<totfact> 0.11078962E+02</totfact>
</mgrwt>
</event>
<event>
 4    1  0.6912310E-008  0.5907622E+03  0.7818608E-02  0.9924759E-01
          2   -1    0    0  501    0  0.00000000000E+00  0.00000000000E+00  0.66834801241E+03  0.66834801241E+03  0.25500000000E-02 0. -1.
         -2   -1    0    0    0  501 -0.00000000000E+00 -0.00000000000E+00 -0.10786129501E+04  0.10786129501E+04  0.25500000000E-02 0.  1.
    8880022    1    1    2    0    0  0.43635688548E+03  0.36769686452E+03 -0.83250520203E+03  0.10208157915E+04  0.15294330000E+03 0.  0.
    8880022    1    1    2    0    0 -0.43635688548E+03 -0.36769686452E+03  0.42224026430E+03  0.72614517109E+03  0.15294330000E+03 0.  0.
<mgrwt>
<rscale>  0 0.59076219E+03</rscale>
<asrwt>0</asrwt>
<pdfrwt beam="1">  1        2 0.10282277E+00 0.59076219E+03</pdfrwt>
<pdfrwt beam="2">  1       -2 0.16594045E+00 0.59076219E+03</pdfrwt>
<totfact> 0.10259464E+01</totfact>
</mgrwt>
</event>
<event>
 4    1  0.6912310E-008  0.2453149E+03  0.7818608E-02  0.1116302E+00
         -2   -1    0    0    0  501 -0.00000000000E+00  0.00000000000E+00  0.12879454372E+03  0.12879454375E+03  0.25500000000E-02 0.  1.
          2   -1    0    0  501    0  0.00000000000E+00 -0.00000000000E+00 -0.24858090101E+04  0.24858090101E+04  0.25500000000E-02 0. -1.
    8880022    1    1    2    0    0  0.17918306684E+03  0.68419146721E+02 -0.46036424733E+00  0.24531533998E+03  0.15294330000E+03 0.  0.
    8880022    1    1    2    0    0 -0.17918306684E+03 -0.68419146721E+02 -0.23565541021E+04  0.23692882138E+04  0.15294330000E+03 0. -1.
<mgrwt>
<rscale>  0 0.24531491E+03</rscale>
<asrwt>0</asrwt>
<pdfrwt beam="1">  1        2 0.38243212E+00 0.24531491E+03</pdfrwt>
<pdfrwt beam="2">  1       -2 0.19814547E-01 0.24531491E+03</pdfrwt>
<totfact> 0.88659124E+01</totfact>
</mgrwt>
</event>
<event>
 4    1  0.6912310E-008  0.8446335E+03  0.7818608E-02  0.9497568E-01
          2   -1    0    0  501    0  0.00000000000E+00  0.00000000000E+00  0.33688889945E+04  0.33688889945E+04  0.25500000000E-02 0. -1.
         -2   -1    0    0    0  501 -0.00000000000E+00 -0.00000000000E+00 -0.87617493732E+03  0.87617493733E+03  0.25500000000E-02 0.  1.
    8880022    1    1    2    0    0  0.81842042513E+03 -0.14213380961E+03 -0.60196473049E+03  0.10371919793E+04  0.15294330000E+03 0.  0.
    8880022    1    1    2    0    0 -0.81842042513E+03  0.14213380961E+03  0.30946787877E+04  0.32078719526E+04  0.15294330000E+03 0.  0.
<mgrwt>
<rscale>  0 0.84463345E+03</rscale>
<asrwt>0</asrwt>
<pdfrwt beam="1">  1        2 0.51829062E+00 0.84463345E+03</pdfrwt>
<pdfrwt beam="2">  1       -2 0.13479614E+00 0.84463345E+03</pdfrwt>
<totfact> 0.42025097E-01</totfact>
</mgrwt>
</event>
<event>
 4    1  0.6912310E-008  0.4208037E+03  0.7818608E-02  0.1036805E+00
          2   -1    0    0  501    0  0.00000000000E+00  0.00000000000E+00  0.16711478982E+04  0.16711478982E+04  0.25500000000E-02 0. -1.
         -2   -1    0    0    0  501 -0.00000000000E+00 -0.00000000000E+00 -0.22905948359E+03  0.22905948360E+03  0.25500000000E-02 0.  1.
    8880022    1    1    2    0    0  0.31481687205E+02  0.39075951537E+03  0.14175488472E+04  0.14786887714E+04  0.15294330000E+03 0.  0.
    8880022    1    1    2    0    0 -0.31481687205E+02 -0.39075951537E+03  0.24539567357E+02  0.42151861034E+03  0.15294330000E+03 0.  0.
<mgrwt>
<rscale>  0 0.42080369E+03</rscale>
<asrwt>0</asrwt>
<pdfrwt beam="1">  1        2 0.25709968E+00 0.42080369E+03</pdfrwt>
<pdfrwt beam="2">  1       -2 0.35239920E-01 0.42080369E+03</pdfrwt>
<totfact> 0.82146136E+01</totfact>
</mgrwt>
</event>
<event>
 4    1  0.6912310E-008  0.1929078E+03  0.7818608E-02  0.1155865E+00
          2   -1    0    0  501    0  0.00000000000E+00  0.00000000000E+00  0.32437941649E+03  0.32437941650E+03  0.25500000000E-02 0. -1.
         -2   -1    0    0    0  501 -0.00000000000E+00 -0.00000000000E+00 -0.25069454374E+03  0.25069454375E+03  0.25500000000E-02 0.  1.
    8880022    1    1    2    0    0  0.11678857464E+03 -0.13497867981E+02 -0.17491909477E+03  0.26040373718E+03  0.15294330000E+03 0.  0.
    8880022    1    1    2    0    0 -0.11678857464E+03  0.13497867981E+02  0.24860396752E+03  0.31467022307E+03  0.15294330000E+03 0. -1.
<mgrwt>
<rscale>  0 0.19290779E+03</rscale>
<asrwt>0</asrwt>
<pdfrwt beam="1">  1        2 0.49904526E-01 0.19290779E+03</pdfrwt>
<pdfrwt beam="2">  1       -2 0.38568391E-01 0.19290779E+03</pdfrwt>
<totfact> 0.64292107E+02</totfact>
</mgrwt>
</event>
<event>
 4    1  0.6912310E-008  0.4227571E+03  0.7818608E-02  0.1036173E+00
          2   -1    0    0  501    0  0.00000000000E+00  0.00000000000E+00  0.52472330276E+03  0.52472330276E+03  0.25500000000E-02 0. -1.
         -2   -1    0    0    0  501 -0.00000000000E+00 -0.00000000000E+00 -0.63180848348E+03  0.63180848349E+03  0.25500000000E-02 0.  1.
    8880022    1    1    2    0    0  0.19675311986E+03 -0.34149693493E+03  0.33904161484E+03  0.54191587572E+03  0.15294330000E+03 0.  0.
    8880022    1    1    2    0    0 -0.19675311986E+03  0.34149693493E+03 -0.44612679557E+03  0.61461591053E+03  0.15294330000E+03 0.  1.
<mgrwt>
<rscale>  0 0.42275714E+03</rscale>
<asrwt>0</asrwt>
<pdfrwt beam="1">  1        2 0.80726662E-01 0.42275714E+03</pdfrwt>
<pdfrwt beam="2">  1       -2 0.97201305E-01 0.42275714E+03</pdfrwt>
<totfact> 0.53511899E+01</totfact>
</mgrwt>
</event>
<event>
 4    1  0.6912310E-008  0.2885931E+03  0.7818608E-02  0.1091086E+00
         -2   -1    0    0    0  501 -0.00000000000E+00  0.00000000000E+00  0.83422864304E+02  0.83422864343E+02  0.25500000000E-02 0.  1.
          2   -1    0    0  501    0  0.00000000000E+00 -0.00000000000E+00 -0.19378830520E+04  0.19378830520E+04  0.25500000000E-02 0. -1.
    8880022    1    1    2    0    0  0.16556578635E+03 -0.18022847380E+03 -0.22352260842E+03  0.36503197376E+03  0.15294330000E+03 0.  1.
    8880022    1    1    2    0    0 -0.16556578635E+03  0.18022847380E+03 -0.16309375792E+04  0.16562739425E+04  0.15294330000E+03 0.  0.
<mgrwt>
<rscale>  0 0.28859311E+03</rscale>
<asrwt>0</asrwt>
<pdfrwt beam="1">  1        2 0.29813582E+00 0.28859311E+03</pdfrwt>
<pdfrwt beam="2">  1       -2 0.12834288E-01 0.28859311E+03</pdfrwt>
<totfact> 0.35483058E+02</totfact>
</mgrwt>
</event>
<event>
 4    1  0.6912310E-008  0.1929374E+03  0.7818608E-02  0.1155838E+00
         -2   -1    0    0    0  501 -0.00000000000E+00  0.00000000000E+00  0.20832133178E+03  0.20832133180E+03  0.25500000000E-02 0.  1.
          2   -1    0    0  501    0  0.00000000000E+00 -0.00000000000E+00 -0.94958938743E+03  0.94958938743E+03  0.25500000000E-02 0. -1.
    8880022    1    1    2    0    0  0.38953433238E+02 -0.11097658926E+03 -0.89228035613E+03  0.91290145157E+03  0.15294330000E+03 0. -1.
    8880022    1    1    2    0    0 -0.38953433238E+02  0.11097658926E+03  0.15101230048E+03  0.24500926766E+03  0.15294330000E+03 0.  0.
<mgrwt>
<rscale>  0 0.19293736E+03</rscale>
<asrwt>0</asrwt>
<pdfrwt beam="1">  1        2 0.14609067E+00 0.19293736E+03</pdfrwt>
<pdfrwt beam="2">  1       -2 0.32049436E-01 0.19293736E+03</pdfrwt>
<totfact> 0.26087584E+02</totfact>
</mgrwt>
</event>
<event>
 4    1  0.6912310E-008  0.1066537E+04  0.7818608E-02  0.9238435E-01
         -2   -1    0    0    0  501 -0.00000000000E+00  0.00000000000E+00  0.10429991103E+04  0.10429991103E+04  0.25500000000E-02 0.  1.
          2   -1    0    0  501    0  0.00000000000E+00 -0.00000000000E+00 -0.20658373018E+04  0.20658373018E+04  0.25500000000E-02 0. -1.
    8880022    1    1    2    0    0  0.37537070919E+03  0.98651201024E+03  0.55658692518E+03  0.12030335714E+04  0.15294330000E+03 0.  0.
    8880022    1    1    2    0    0 -0.37537070919E+03 -0.98651201024E+03 -0.15794251167E+04  0.19058028408E+04  0.15294330000E+03 0.  0.
<mgrwt>
<rscale>  0 0.10665368E+04</rscale>
<asrwt>0</asrwt>
<pdfrwt beam="1">  1        2 0.31782112E+00 0.10665368E+04</pdfrwt>
<pdfrwt beam="2">  1       -2 0.16046140E+00 0.10665368E+04</pdfrwt>
<totfact> 0.15181347E+00</totfact>
</mgrwt>
</event>
<event>
 4    1  0.6912310E-008  0.4545771E+03  0.7818608E-02  0.1026366E+00
          2   -1    0    0  501    0  0.00000000000E+00  0.00000000000E+00  0.71581454883E+03  0.71581454884E+03  0.25500000000E-02 0. -1.
         -2   -1    0    0    0  501 -0.00000000000E+00 -0.00000000000E+00 -0.30459485533E+03  0.30459485534E+03  0.25500000000E-02 0.  1.
    8880022    1    1    2    0    0 -0.91192051753E+02 -0.41824957691E+03  0.32223800882E+03  0.55720524605E+03  0.15294330000E+03 0.  1.
    8880022    1    1    2    0    0  0.91192051753E+02  0.41824957691E+03  0.88981684677E+02  0.46320415813E+03  0.15294330000E+03 0. -1.
<mgrwt>
<rscale>  0 0.45457711E+03</rscale>
<asrwt>0</asrwt>
<pdfrwt beam="1">  1        2 0.11012532E+00 0.45457711E+03</pdfrwt>
<pdfrwt beam="2">  1       -2 0.46860747E-01 0.45457711E+03</pdfrwt>
<totfact> 0.17696637E+02</totfact>
</mgrwt>
</event>
<event>
 4    1  0.6912310E-008  0.6482572E+03  0.7818608E-02  0.9810055E-01
         -2   -1    0    0    0  501 -0.00000000000E+00  0.00000000000E+00  0.54243748472E+03  0.54243748473E+03  0.25500000000E-02 0.  1.
          2   -1    0    0  501    0  0.00000000000E+00 -0.00000000000E+00 -0.15661785083E+04  0.15661785083E+04  0.25500000000E-02 0. -1.
    8880022    1    1    2    0    0 -0.51846018214E+03  0.35783351206E+03 -0.12613518286E+04  0.14181840047E+04  0.15294330000E+03 0.  0.
    8880022    1    1    2    0    0  0.51846018214E+03 -0.35783351206E+03  0.23761080498E+03  0.69043198831E+03  0.15294330000E+03 0.  0.
<mgrwt>
<rscale>  0 0.64825723E+03</rscale>
<asrwt>0</asrwt>
<pdfrwt beam="1">  1        2 0.24095054E+00 0.64825723E+03</pdfrwt>
<pdfrwt beam="2">  1       -2 0.83451922E-01 0.64825723E+03</pdfrwt>
<totfact> 0.15225406E+01</totfact>
</mgrwt>
</event>
<event>
 4    1  0.6912310E-008  0.2778351E+03  0.7818608E-02  0.1096877E+00
         -2   -1    0    0    0  501 -0.00000000000E+00  0.00000000000E+00  0.21372219917E+03  0.21372219918E+03  0.25500000000E-02 0.  1.
          2   -1    0    0  501    0  0.00000000000E+00 -0.00000000000E+00 -0.48836782661E+03  0.48836782662E+03  0.25500000000E-02 0. -1.
    8880022    1    1    2    0    0  0.23194755116E+03 -0.10109983062E+01  0.41824705344E+02  0.28096556301E+03  0.15294330000E+03 0.  0.
    8880022    1    1    2    0    0 -0.23194755116E+03  0.10109983062E+01 -0.31647033279E+03  0.42112446279E+03  0.15294330000E+03 0. -1.
<mgrwt>
<rscale>  0 0.27783510E+03</rscale>
<asrwt>0</asrwt>
<pdfrwt beam="1">  1        2 0.75133511E-01 0.27783510E+03</pdfrwt>
<pdfrwt beam="2">  1       -2 0.32880339E-01 0.27783510E+03</pdfrwt>
<totfact> 0.55450116E+02</totfact>
</mgrwt>
</event>
<event>
 4    1  0.6912310E-008  0.5917068E+03  0.7818608E-02  0.9922763E-01
         -2   -1    0    0    0  501 -0.00000000000E+00  0.00000000000E+00  0.69399337247E+03  0.69399337247E+03  0.25500000000E-02 0.  1.
          2   -1    0    0  501    0  0.00000000000E+00 -0.00000000000E+00 -0.71751304163E+03  0.71751304163E+03  0.25500000000E-02 0. -1.
    8880022    1    1    2    0    0  0.39997965421E+02  0.57019769477E+03  0.37278333744E+03  0.69934563561E+03  0.15294330000E+03 0.  0.
    8880022    1    1    2    0    0 -0.39997965421E+02 -0.57019769477E+03 -0.39630300660E+03  0.71216077849E+03  0.15294330000E+03 0. -1.
<mgrwt>
<rscale>  0 0.59170677E+03</rscale>
<asrwt>0</asrwt>
<pdfrwt beam="1">  1        2 0.11038662E+00 0.59170677E+03</pdfrwt>
<pdfrwt beam="2">  1       -2 0.10676821E+00 0.59170677E+03</pdfrwt>
<totfact> 0.28859278E+01</totfact>
</mgrwt>
</event>
<event>
 4    1  0.6912310E-008  0.3527627E+03  0.7818608E-02  0.1061487E+00
          2   -1    0    0  501    0  0.00000000000E+00  0.00000000000E+00  0.10080725343E+04  0.10080725343E+04  0.25500000000E-02 0. -1.
         -2   -1    0    0    0  501 -0.00000000000E+00 -0.00000000000E+00 -0.16758532213E+03  0.16758532215E+03  0.25500000000E-02 0.  1.
    8880022    1    1    2    0    0 -0.19524673335E+03  0.25085564122E+03  0.72192659273E+03  0.80350451021E+03  0.15294330000E+03 0.  0.
    8880022    1    1    2    0    0  0.19524673335E+03 -0.25085564122E+03  0.11856061941E+03  0.37215334622E+03  0.15294330000E+03 0.  0.
<mgrwt>
<rscale>  0 0.35276266E+03</rscale>
<asrwt>0</asrwt>
<pdfrwt beam="1">  1        2 0.15508809E+00 0.35276266E+03</pdfrwt>
<pdfrwt beam="2">  1       -2 0.25782357E-01 0.35276266E+03</pdfrwt>
<totfact> 0.34876310E+02</totfact>
</mgrwt>
</event>
<event>
 4    1  0.6912310E-008  0.3916444E+03  0.7818608E-02  0.1046712E+00
          2   -1    0    0  501    0  0.00000000000E+00  0.00000000000E+00  0.15638150184E+04  0.15638150184E+04  0.25500000000E-02 0. -1.
         -2   -1    0    0    0  501 -0.00000000000E+00 -0.00000000000E+00 -0.30675214546E+03  0.30675214547E+03  0.25500000000E-02 0.  1.
    8880022    1    1    2    0    0  0.19616284878E+03  0.30251251254E+03  0.13999276719E+04  0.14536790646E+04  0.15294330000E+03 0.  0.
    8880022    1    1    2    0    0 -0.19616284878E+03 -0.30251251254E+03 -0.14286479895E+03  0.41688809923E+03  0.15294330000E+03 0.  0.
<mgrwt>
<rscale>  0 0.39164440E+03</rscale>
<asrwt>0</asrwt>
<pdfrwt beam="1">  1        2 0.24058693E+00 0.39164440E+03</pdfrwt>
<pdfrwt beam="2">  1       -2 0.47192637E-01 0.39164440E+03</pdfrwt>
<totfact> 0.53570620E+01</totfact>
</mgrwt>
</event>
<event>
 4    1  0.6912310E-008  0.9167725E+03  0.7818608E-02  0.9404855E-01
          2   -1    0    0  501    0  0.00000000000E+00  0.00000000000E+00  0.15211534302E+04  0.15211534302E+04  0.25500000000E-02 0. -1.
         -2   -1    0    0    0  501 -0.00000000000E+00 -0.00000000000E+00 -0.61386048871E+03  0.61386048872E+03  0.25500000000E-02 0.  1.
    8880022    1    1    2    0    0  0.23212897683E+03 -0.87361102378E+03  0.79108920587E+03  0.12109062174E+04  0.15294330000E+03 0.  0.
    8880022    1    1    2    0    0 -0.23212897683E+03  0.87361102378E+03  0.11620373560E+03  0.92410770148E+03  0.15294330000E+03 0.  0.
<mgrwt>
<rscale>  0 0.91677246E+03</rscale>
<asrwt>0</asrwt>
<pdfrwt beam="1">  1        2 0.23402360E+00 0.91677246E+03</pdfrwt>
<pdfrwt beam="2">  1       -2 0.94440076E-01 0.91677246E+03</pdfrwt>
<totfact> 0.11724387E+01</totfact>
</mgrwt>
</event>
<event>
 4    1  0.6912310E-008  0.6500501E+03  0.7818608E-02  0.9806685E-01
         -2   -1    0    0    0  501 -0.00000000000E+00  0.00000000000E+00  0.39421076578E+03  0.39421076579E+03  0.25500000000E-02 0.  1.
          2   -1    0    0  501    0  0.00000000000E+00 -0.00000000000E+00 -0.15657423325E+04  0.15657423325E+04  0.25500000000E-02 0. -1.
    8880022    1    1    2    0    0 -0.63180163700E+03  0.40707692292E+00 -0.35417188543E+02  0.65101421220E+03  0.15294330000E+03 0.  0.
    8880022    1    1    2    0    0  0.63180163700E+03 -0.40707692292E+00 -0.11361143782E+04  0.13089388861E+04  0.15294330000E+03 0.  0.
<mgrwt>
<rscale>  0 0.65005010E+03</rscale>
<asrwt>0</asrwt>
<pdfrwt beam="1">  1        2 0.24088343E+00 0.65005010E+03</pdfrwt>
<pdfrwt beam="2">  1       -2 0.60647811E-01 0.65005010E+03</pdfrwt>
<totfact> 0.30610064E+01</totfact>
</mgrwt>
</event>
<event>
 4    1  0.6912310E-008  0.9878123E+03  0.7818608E-02  0.9322014E-01
          2   -1    0    0  501    0  0.00000000000E+00  0.00000000000E+00  0.38736365251E+04  0.38736365251E+04  0.25500000000E-02 0. -1.
         -2   -1    0    0    0  501 -0.00000000000E+00 -0.00000000000E+00 -0.30585895408E+03  0.30585895409E+03  0.25500000000E-02 0.  1.
    8880022    1    1    2    0    0  0.96534707649E+03 -0.14313113888E+03  0.90615916890E+03  0.13404840892E+04  0.15294330000E+03 0.  0.
    8880022    1    1    2    0    0 -0.96534707649E+03  0.14313113888E+03  0.26616184021E+04  0.28390113900E+04  0.15294330000E+03 0.  0.
<mgrwt>
<rscale>  0 0.98781231E+03</rscale>
<asrwt>0</asrwt>
<pdfrwt beam="1">  1        2 0.59594410E+00 0.98781231E+03</pdfrwt>
<pdfrwt beam="2">  1       -2 0.47055222E-01 0.98781231E+03</pdfrwt>
<totfact> 0.19416362E+00</totfact>
</mgrwt>
</event>
<event>
 4    1  0.6912310E-008  0.1732517E+03  0.7818608E-02  0.1174499E+00
          2   -1    0    0  501    0  0.00000000000E+00  0.00000000000E+00  0.99547177766E+02  0.99547177799E+02  0.25500000000E-02 0. -1.
         -2   -1    0    0    0  501 -0.00000000000E+00 -0.00000000000E+00 -0.74434777162E+03  0.74434777162E+03  0.25500000000E-02 0.  1.
    8880022    1    1    2    0    0  0.33933754376E+02 -0.73979721794E+02  0.30498612171E+01  0.17327854337E+03  0.15294330000E+03 0. -1.
    8880022    1    1    2    0    0 -0.33933754376E+02  0.73979721794E+02 -0.64785045507E+03  0.67061640605E+03  0.15294330000E+03 0.  0.
<mgrwt>
<rscale>  0 0.17325170E+03</rscale>
<asrwt>0</asrwt>
<pdfrwt beam="1">  1        2 0.15314951E-01 0.17325170E+03</pdfrwt>
<pdfrwt beam="2">  1       -2 0.11451504E+00 0.17325170E+03</pdfrwt>
<totfact> 0.23687760E+02</totfact>
</mgrwt>
</event>
<event>
 4    1  0.6912310E-008  0.6192413E+03  0.7818608E-02  0.9866271E-01
         -2   -1    0    0    0  501 -0.00000000000E+00  0.00000000000E+00  0.52722383972E+03  0.52722383972E+03  0.25500000000E-02 0.  1.
          2   -1    0    0  501    0  0.00000000000E+00 -0.00000000000E+00 -0.14762841239E+04  0.14762841240E+04  0.25500000000E-02 0. -1.
    8880022    1    1    2    0    0  0.41403695373E+03 -0.43432888040E+03 -0.11880514521E+04  0.13397485142E+04  0.15294330000E+03 0.  0.
    8880022    1    1    2    0    0 -0.41403695373E+03  0.43432888040E+03  0.23899116790E+03  0.66375944947E+03  0.15294330000E+03 0.  1.
<mgrwt>
<rscale>  0 0.61924133E+03</rscale>
<asrwt>0</asrwt>
<pdfrwt beam="1">  1        2 0.22712063E+00 0.61924133E+03</pdfrwt>
<pdfrwt beam="2">  1       -2 0.81111361E-01 0.61924133E+03</pdfrwt>
<totfact> 0.18281122E+01</totfact>
</mgrwt>
</event>
<event>
 4    1  0.6912310E-008  0.5982606E+03  0.7818608E-02  0.9909021E-01
          2   -1    0    0  501    0  0.00000000000E+00  0.00000000000E+00  0.64325325594E+03  0.64325325595E+03  0.25500000000E-02 0. -1.
         -2   -1    0    0    0  501 -0.00000000000E+00 -0.00000000000E+00 -0.12531954164E+04  0.12531954164E+04  0.25500000000E-02 0.  1.
    8880022    1    1    2    0    0 -0.27091344212E+03 -0.51100878304E+03 -0.10120203608E+04  0.11756278889E+04  0.15294330000E+03 0.  1.
    8880022    1    1    2    0    0  0.27091344212E+03  0.51100878304E+03  0.40207820043E+03  0.72082078337E+03  0.15294330000E+03 0.  0.
<mgrwt>
<rscale>  0 0.59826058E+03</rscale>
<asrwt>0</asrwt>
<pdfrwt beam="1">  1        2 0.98962040E-01 0.59826058E+03</pdfrwt>
<pdfrwt beam="2">  1       -2 0.19279929E+00 0.59826058E+03</pdfrwt>
<totfact> 0.70336761E+00</totfact>
</mgrwt>
</event>
<event>
 4    1  0.6912310E-008  0.5821934E+03  0.7818608E-02  0.9943054E-01
         -2   -1    0    0    0  501 -0.00000000000E+00  0.00000000000E+00  0.57096301955E+03  0.57096301956E+03  0.25500000000E-02 0.  1.
          2   -1    0    0  501    0  0.00000000000E+00 -0.00000000000E+00 -0.19388631366E+04  0.19388631366E+04  0.25500000000E-02 0. -1.
    8880022    1    1    2    0    0  0.34524430239E+03 -0.44312962100E+03  0.36133918637E+03  0.68521175556E+03  0.15294330000E+03 0.  0.
    8880022    1    1    2    0    0 -0.34524430239E+03  0.44312962100E+03 -0.17292393034E+04  0.18246144006E+04  0.15294330000E+03 0.  0.
<mgrwt>
<rscale>  0 0.58219339E+03</rscale>
<asrwt>0</asrwt>
<pdfrwt beam="1">  1        2 0.29828663E+00 0.58219339E+03</pdfrwt>
<pdfrwt beam="2">  1       -2 0.87840466E-01 0.58219339E+03</pdfrwt>
<totfact> 0.85986950E+00</totfact>
</mgrwt>
</event>
<event>
 4    1  0.6912310E-008  0.6456196E+03  0.7818608E-02  0.9815034E-01
          2   -1    0    0  501    0  0.00000000000E+00  0.00000000000E+00  0.23807212912E+04  0.23807212912E+04  0.25500000000E-02 0. -1.
         -2   -1    0    0    0  501 -0.00000000000E+00 -0.00000000000E+00 -0.22782382804E+03  0.22782382806E+03  0.25500000000E-02 0.  1.
    8880022    1    1    2    0    0 -0.34385852725E+03  0.52458966988E+03  0.17039878622E+04  0.18221962836E+04  0.15294330000E+03 0.  0.
    8880022    1    1    2    0    0  0.34385852725E+03 -0.52458966988E+03  0.44890960103E+03  0.78634883571E+03  0.15294330000E+03 0.  0.
<mgrwt>
<rscale>  0 0.64561960E+03</rscale>
<asrwt>0</asrwt>
<pdfrwt beam="1">  1        2 0.36626481E+00 0.64561960E+03</pdfrwt>
<pdfrwt beam="2">  1       -2 0.35049821E-01 0.64561960E+03</pdfrwt>
<totfact> 0.32920626E+01</totfact>
</mgrwt>
</event>
<event>
 4    1  0.6912310E-008  0.6485717E+03  0.7818608E-02  0.9809463E-01
         -2   -1    0    0    0  501 -0.00000000000E+00  0.00000000000E+00  0.89787953198E+03  0.89787953198E+03  0.25500000000E-02 0.  1.
          2   -1    0    0  501    0  0.00000000000E+00 -0.00000000000E+00 -0.18890614014E+04  0.18890614014E+04  0.25500000000E-02 0. -1.
    8880022    1    1    2    0    0 -0.35033651874E+03 -0.52394462810E+03  0.71279775919E+03  0.96370428462E+03  0.15294330000E+03 0.  0.
    8880022    1    1    2    0    0  0.35033651874E+03  0.52394462810E+03 -0.17039796286E+04  0.18232366488E+04  0.15294330000E+03 0. -1.
<mgrwt>
<rscale>  0 0.64857174E+03</rscale>
<asrwt>0</asrwt>
<pdfrwt beam="1">  1        2 0.29062483E+00 0.64857174E+03</pdfrwt>
<pdfrwt beam="2">  1       -2 0.13813531E+00 0.64857174E+03</pdfrwt>
<totfact> 0.30190582E+00</totfact>
</mgrwt>
</event>
<event>
 4    1  0.6912310E-008  0.9621442E+03  0.7818608E-02  0.9351067E-01
          2   -1    0    0  501    0  0.00000000000E+00  0.00000000000E+00  0.13826326325E+04  0.13826326325E+04  0.25500000000E-02 0. -1.
         -2   -1    0    0    0  501 -0.00000000000E+00 -0.00000000000E+00 -0.72639097057E+03  0.72639097058E+03  0.25500000000E-02 0.  1.
    8880022    1    1    2    0    0  0.62330981752E+03  0.71680873671E+03  0.62314159811E+03  0.11463101666E+04  0.15294330000E+03 0.  0.
    8880022    1    1    2    0    0 -0.62330981752E+03 -0.71680873671E+03  0.33100063822E+02  0.96271343653E+03  0.15294330000E+03 0.  0.
<mgrwt>
<rscale>  0 0.96214424E+03</rscale>
<asrwt>0</asrwt>
<pdfrwt beam="1">  1        2 0.21271271E+00 0.96214424E+03</pdfrwt>
<pdfrwt beam="2">  1       -2 0.11175246E+00 0.96214424E+03</pdfrwt>
<totfact> 0.93406509E+00</totfact>
</mgrwt>
</event>
<event>
 4    1  0.6912310E-008  0.3804657E+03  0.7818608E-02  0.1050762E+00
         -2   -1    0    0    0  501 -0.00000000000E+00  0.00000000000E+00  0.91678456120E+03  0.91678456120E+03  0.25500000000E-02 0.  1.
          2   -1    0    0  501    0  0.00000000000E+00 -0.00000000000E+00 -0.15798171391E+04  0.15798171391E+04  0.25500000000E-02 0. -1.
    8880022    1    1    2    0    0 -0.87598717647E+02  0.33717793429E+03 -0.15157952721E+04  0.15628145938E+04  0.15294330000E+03 0.  0.
    8880022    1    1    2    0    0  0.87598717647E+02 -0.33717793429E+03  0.85276269417E+03  0.93378710652E+03  0.15294330000E+03 0.  0.
<mgrwt>
<rscale>  0 0.38046570E+03</rscale>
<asrwt>0</asrwt>
<pdfrwt beam="1">  1        2 0.24304879E+00 0.38046570E+03</pdfrwt>
<pdfrwt beam="2">  1       -2 0.14104378E+00 0.38046570E+03</pdfrwt>
<totfact> 0.44948549E+00</totfact>
</mgrwt>
</event>
<event>
 4    1  0.6912310E-008  0.3997442E+03  0.7818608E-02  0.1043868E+00
         -2   -1    0    0    0  501 -0.00000000000E+00  0.00000000000E+00  0.29875009644E+03  0.29875009645E+03  0.25500000000E-02 0.  1.
          2   -1    0    0  501    0  0.00000000000E+00 -0.00000000000E+00 -0.61473371506E+03  0.61473371507E+03  0.25500000000E-02 0. -1.
    8880022    1    1    2    0    0 -0.36231281196E+03 -0.71646295115E+02 -0.32260900875E+03  0.51368471932E+03  0.15294330000E+03 0.  0.
    8880022    1    1    2    0    0  0.36231281196E+03  0.71646295115E+02  0.66253901284E+01  0.39979909220E+03  0.15294330000E+03 0.  0.
<mgrwt>
<rscale>  0 0.39974419E+03</rscale>
<asrwt>0</asrwt>
<pdfrwt beam="1">  1        2 0.94574417E-01 0.39974419E+03</pdfrwt>
<pdfrwt beam="2">  1       -2 0.45961554E-01 0.39974419E+03</pdfrwt>
<totfact> 0.22239173E+02</totfact>
</mgrwt>
</event>
<event>
 4    1  0.6912310E-008  0.4315754E+03  0.7818608E-02  0.1033363E+00
         -2   -1    0    0    0  501 -0.00000000000E+00  0.00000000000E+00  0.11287195671E+04  0.11287195671E+04  0.25500000000E-02 0.  1.
          2   -1    0    0  501    0  0.00000000000E+00 -0.00000000000E+00 -0.46822946733E+03  0.46822946734E+03  0.25500000000E-02 0. -1.
    8880022    1    1    2    0    0 -0.31335723694E+03 -0.25430872589E+03  0.97279306057E+03  0.10642291472E+04  0.15294330000E+03 0.  0.
    8880022    1    1    2    0    0  0.31335723694E+03  0.25430872589E+03 -0.31230296077E+03  0.53271988730E+03  0.15294330000E+03 0.  0.
<mgrwt>
<rscale>  0 0.43157542E+03</rscale>
<asrwt>0</asrwt>
<pdfrwt beam="1">  1        2 0.72035303E-01 0.43157542E+03</pdfrwt>
<pdfrwt beam="2">  1       -2 0.17364916E+00 0.43157542E+03</pdfrwt>
<totfact> 0.14101888E+01</totfact>
</mgrwt>
</event>
<event>
 4    1  0.6912310E-008  0.4573399E+03  0.7818608E-02  0.1025556E+00
          2   -1    0    0  501    0  0.00000000000E+00  0.00000000000E+00  0.11248246466E+04  0.11248246466E+04  0.25500000000E-02 0. -1.
         -2   -1    0    0    0  501 -0.00000000000E+00 -0.00000000000E+00 -0.34260208533E+03  0.34260208534E+03  0.25500000000E-02 0.  1.
    8880022    1    1    2    0    0  0.42670906549E+03  0.60724510314E+02  0.88724785285E+03  0.99818259759E+03  0.15294330000E+03 0.  0.
    8880022    1    1    2    0    0 -0.42670906549E+03 -0.60724510314E+02 -0.10502529159E+03  0.46924413434E+03  0.15294330000E+03 0.  0.
<mgrwt>
<rscale>  0 0.45733986E+03</rscale>
<asrwt>0</asrwt>
<pdfrwt beam="1">  1        2 0.17304995E+00 0.45733986E+03</pdfrwt>
<pdfrwt beam="2">  1       -2 0.52708013E-01 0.45733986E+03</pdfrwt>
<totfact> 0.74849499E+01</totfact>
</mgrwt>
</event>
<event>
 4    1  0.6912310E-008  0.2254875E+03  0.7818608E-02  0.1129857E+00
          2   -1    0    0  501    0  0.00000000000E+00  0.00000000000E+00  0.21383994097E+04  0.21383994097E+04  0.25500000000E-02 0. -1.
         -2   -1    0    0    0  501 -0.00000000000E+00 -0.00000000000E+00 -0.42473170826E+02  0.42473170903E+02  0.25500000000E-02 0.  1.
    8880022    1    1    2    0    0 -0.50059786287E+02  0.15794606169E+03  0.32449401421E+03  0.39514675613E+03  0.15294330000E+03 0.  1.
    8880022    1    1    2    0    0  0.50059786287E+02 -0.15794606169E+03  0.17714322246E+04  0.17857258244E+04  0.15294330000E+03 0.  0.
<mgrwt>
<rscale>  0 0.22548746E+03</rscale>
<asrwt>0</asrwt>
<pdfrwt beam="1">  1        2 0.32898451E+00 0.22548746E+03</pdfrwt>
<pdfrwt beam="2">  1       -2 0.65343342E-02 0.22548746E+03</pdfrwt>
<totfact> 0.82051522E+02</totfact>
</mgrwt>
</event>
<event>
 4    1  0.6912310E-008  0.1048660E+04  0.7818608E-02  0.9256729E-01
         -2   -1    0    0    0  501 -0.00000000000E+00  0.00000000000E+00  0.69339552863E+03  0.69339552864E+03  0.25500000000E-02 0.  1.
          2   -1    0    0  501    0  0.00000000000E+00 -0.00000000000E+00 -0.30168229976E+04  0.30168229976E+04  0.25500000000E-02 0. -1.
    8880022    1    1    2    0    0 -0.17012176063E+03 -0.10234032905E+04 -0.24393164912E+04  0.26551746281E+04  0.15294330000E+03 0.  0.
    8880022    1    1    2    0    0  0.17012176063E+03  0.10234032905E+04  0.11588902227E+03  0.10550438981E+04  0.15294330000E+03 0.  0.
<mgrwt>
<rscale>  0 0.10486598E+04</rscale>
<asrwt>0</asrwt>
<pdfrwt beam="1">  1        2 0.46412661E+00 0.10486598E+04</pdfrwt>
<pdfrwt beam="2">  1       -2 0.10667624E+00 0.10486598E+04</pdfrwt>
<totfact> 0.12162907E+00</totfact>
</mgrwt>
</event>
<event>
 4    1  0.6912310E-008  0.1046577E+04  0.7818608E-02  0.9258885E-01
         -2   -1    0    0    0  501 -0.00000000000E+00  0.00000000000E+00  0.41393090909E+03  0.41393090910E+03  0.25500000000E-02 0.  1.
          2   -1    0    0  501    0  0.00000000000E+00 -0.00000000000E+00 -0.30805293158E+04  0.30805293158E+04  0.25500000000E-02 0. -1.
    8880022    1    1    2    0    0  0.10010064125E+04 -0.26442186717E+03 -0.19894000905E+04  0.22478961575E+04  0.15294330000E+03 0.  0.
    8880022    1    1    2    0    0 -0.10010064125E+04  0.26442186717E+03 -0.67719831618E+03  0.12465640674E+04  0.15294330000E+03 0.  0.
<mgrwt>
<rscale>  0 0.10465775E+04</rscale>
<asrwt>0</asrwt>
<pdfrwt beam="1">  1        2 0.47392757E+00 0.10465775E+04</pdfrwt>
<pdfrwt beam="2">  1       -2 0.63681680E-01 0.10465775E+04</pdfrwt>
<totfact> 0.35949723E+00</totfact>
</mgrwt>
</event>
<event>
 4    1  0.6912310E-008  0.6256037E+03  0.7818608E-02  0.9853666E-01
         -2   -1    0    0    0  501 -0.00000000000E+00  0.00000000000E+00  0.59030110830E+03  0.59030110831E+03  0.25500000000E-02 0.  1.
          2   -1    0    0  501    0  0.00000000000E+00 -0.00000000000E+00 -0.12240305854E+04  0.12240305854E+04  0.25500000000E-02 0. -1.
    8880022    1    1    2    0    0  0.53816919521E+02  0.60422851362E+03 -0.93101836738E+03  0.11216840959E+04  0.15294330000E+03 0. -1.
    8880022    1    1    2    0    0 -0.53816919521E+02 -0.60422851362E+03  0.29728889028E+03  0.69264759785E+03  0.15294330000E+03 0.  0.
<mgrwt>
<rscale>  0 0.62560372E+03</rscale>
<asrwt>0</asrwt>
<pdfrwt beam="1">  1        2 0.18831240E+00 0.62560372E+03</pdfrwt>
<pdfrwt beam="2">  1       -2 0.90815555E-01 0.62560372E+03</pdfrwt>
<totfact> 0.19638047E+01</totfact>
</mgrwt>
</event>
<event>
 4    1  0.6912310E-008  0.1502222E+04  0.7818608E-02  0.8882977E-01
          2   -1    0    0  501    0  0.00000000000E+00  0.00000000000E+00  0.14320482098E+04  0.14320482098E+04  0.25500000000E-02 0. -1.
         -2   -1    0    0    0  501 -0.00000000000E+00 -0.00000000000E+00 -0.25008529560E+04  0.25008529560E+04  0.25500000000E-02 0.  1.
    8880022    1    1    2    0    0 -0.13369657919E+04 -0.66768348335E+03 -0.17303557490E+04  0.22914627280E+04  0.15294330000E+03 0.  0.
    8880022    1    1    2    0    0  0.13369657919E+04  0.66768348335E+03  0.66155100284E+03  0.16414384378E+04  0.15294330000E+03 0.  0.
<mgrwt>
<rscale>  0 0.15022218E+04</rscale>
<asrwt>0</asrwt>
<pdfrwt beam="1">  1        2 0.22031511E+00 0.15022218E+04</pdfrwt>
<pdfrwt beam="2">  1       -2 0.38474661E+00 0.15022218E+04</pdfrwt>
<totfact> 0.12206721E-01</totfact>
</mgrwt>
</event>
<event>
 4    1  0.6912310E-008  0.3130907E+03  0.7818608E-02  0.1078874E+00
          2   -1    0    0  501    0  0.00000000000E+00  0.00000000000E+00  0.89156091829E+03  0.89156091829E+03  0.25500000000E-02 0. -1.
         -2   -1    0    0    0  501 -0.00000000000E+00 -0.00000000000E+00 -0.26023699542E+03  0.26023699543E+03  0.25500000000E-02 0.  1.
    8880022    1    1    2    0    0 -0.27250372849E+03  0.19387604528E+02 -0.12198568344E+03  0.33601535862E+03  0.15294330000E+03 0.  0.
    8880022    1    1    2    0    0  0.27250372849E+03 -0.19387604528E+02  0.75330960630E+03  0.81578255510E+03  0.15294330000E+03 0. -1.
<mgrwt>
<rscale>  0 0.31309074E+03</rscale>
<asrwt>0</asrwt>
<pdfrwt beam="1">  1        2 0.13716322E+00 0.31309074E+03</pdfrwt>
<pdfrwt beam="2">  1       -2 0.40036460E-01 0.31309074E+03</pdfrwt>
<totfact> 0.18383702E+02</totfact>
</mgrwt>
</event>
<event>
 4    1  0.6912310E-008  0.6087817E+03  0.7818608E-02  0.9887352E-01
          2   -1    0    0  501    0  0.00000000000E+00  0.00000000000E+00  0.19290005191E+04  0.19290005191E+04  0.25500000000E-02 0. -1.
         -2   -1    0    0    0  501 -0.00000000000E+00 -0.00000000000E+00 -0.41206940603E+03  0.41206940604E+03  0.25500000000E-02 0.  1.
    8880022    1    1    2    0    0 -0.27206926812E+03  0.52268713456E+03 -0.96704757428E+02  0.61641462541E+03  0.15294330000E+03 0.  0.
    8880022    1    1    2    0    0  0.27206926812E+03 -0.52268713456E+03  0.16136358705E+04  0.17246552997E+04  0.15294330000E+03 0.  0.
<mgrwt>
<rscale>  0 0.60878172E+03</rscale>
<asrwt>0</asrwt>
<pdfrwt beam="1">  1        2 0.29676931E+00 0.60878172E+03</pdfrwt>
<pdfrwt beam="2">  1       -2 0.63395292E-01 0.60878172E+03</pdfrwt>
<totfact> 0.17791751E+01</totfact>
</mgrwt>
</event>
<event>
 4    1  0.6912310E-008  0.2866932E+03  0.7818608E-02  0.1092088E+00
          2   -1    0    0  501    0  0.00000000000E+00  0.00000000000E+00  0.58602394611E+03  0.58602394612E+03  0.25500000000E-02 0. -1.
         -2   -1    0    0    0  501 -0.00000000000E+00 -0.00000000000E+00 -0.16824020006E+03  0.16824020008E+03  0.25500000000E-02 0.  1.
    8880022    1    1    2    0    0  0.23065522195E+03 -0.74829997827E+02  0.55080015600E+02  0.29193633060E+03  0.15294330000E+03 0.  1.
    8880022    1    1    2    0    0 -0.23065522195E+03  0.74829997827E+02  0.36270373044E+03  0.46232781560E+03  0.15294330000E+03 0. -1.
<mgrwt>
<rscale>  0 0.28669324E+03</rscale>
<asrwt>0</asrwt>
<pdfrwt beam="1">  1        2 0.90157529E-01 0.28669324E+03</pdfrwt>
<pdfrwt beam="2">  1       -2 0.25883108E-01 0.28669324E+03</pdfrwt>
<totfact> 0.69543816E+02</totfact>
</mgrwt>
</event>
<event>
 4    1  0.6912310E-008  0.3962033E+03  0.7818608E-02  0.1045102E+00
         -2   -1    0    0    0  501 -0.00000000000E+00  0.00000000000E+00  0.31162312250E+03  0.31162312251E+03  0.25500000000E-02 0.  1.
          2   -1    0    0  501    0  0.00000000000E+00 -0.00000000000E+00 -0.14704917856E+04  0.14704917856E+04  0.25500000000E-02 0. -1.
    8880022    1    1    2    0    0  0.29148667660E+03 -0.22050144057E+03  0.14305577662E+03  0.42123862141E+03  0.15294330000E+03 0.  0.
    8880022    1    1    2    0    0 -0.29148667660E+03  0.22050144057E+03 -0.13019244397E+04  0.13608762867E+04  0.15294330000E+03 0. -1.
<mgrwt>
<rscale>  0 0.39620326E+03</rscale>
<asrwt>0</asrwt>
<pdfrwt beam="1">  1        2 0.22622950E+00 0.39620326E+03</pdfrwt>
<pdfrwt beam="2">  1       -2 0.47942020E-01 0.39620326E+03</pdfrwt>
<totfact> 0.58287048E+01</totfact>
</mgrwt>
</event>
<event>
 4    1  0.6912310E-008  0.2184646E+03  0.7818608E-02  0.1135033E+00
         -2   -1    0    0    0  501 -0.00000000000E+00  0.00000000000E+00  0.17190010333E+03  0.17190010335E+03  0.25500000000E-02 0.  1.
          2   -1    0    0  501    0  0.00000000000E+00 -0.00000000000E+00 -0.17799462679E+04  0.17799462679E+04  0.25500000000E-02 0. -1.
    8880022    1    1    2    0    0 -0.12464237196E+03 -0.93805158609E+02  0.92561077866E+02  0.23726427211E+03  0.15294330000E+03 0.  0.
    8880022    1    1    2    0    0  0.12464237196E+03  0.93805158609E+02 -0.17006072424E+04  0.17145820992E+04  0.15294330000E+03 0. -1.
<mgrwt>
<rscale>  0 0.21846460E+03</rscale>
<asrwt>0</asrwt>
<pdfrwt beam="1">  1        2 0.27383787E+00 0.21846460E+03</pdfrwt>
<pdfrwt beam="2">  1       -2 0.26446171E-01 0.21846460E+03</pdfrwt>
<totfact> 0.12778202E+02</totfact>
</mgrwt>
</event>
<event>
 4    1  0.6912310E-008  0.6420414E+03  0.7818608E-02  0.9821829E-01
         -2   -1    0    0    0  501 -0.00000000000E+00  0.00000000000E+00  0.22949077747E+03  0.22949077749E+03  0.25500000000E-02 0.  1.
          2   -1    0    0  501    0  0.00000000000E+00 -0.00000000000E+00 -0.22438063822E+04  0.22438063822E+04  0.25500000000E-02 0. -1.
    8880022    1    1    2    0    0  0.60266020832E+03  0.16008183221E+03 -0.15594760690E+04  0.16864705104E+04  0.15294330000E+03 0.  1.
    8880022    1    1    2    0    0 -0.60266020832E+03 -0.16008183221E+03 -0.45483953568E+03  0.78682664922E+03  0.15294330000E+03 0.  0.
<mgrwt>
<rscale>  0 0.64204141E+03</rscale>
<asrwt>0</asrwt>
<pdfrwt beam="1">  1        2 0.34520097E+00 0.64204141E+03</pdfrwt>
<pdfrwt beam="2">  1       -2 0.35306275E-01 0.64204141E+03</pdfrwt>
<totfact> 0.38678923E+01</totfact>
</mgrwt>
</event>
<event>
 4    1  0.6912310E-008  0.1644852E+03  0.7818608E-02  0.1183724E+00
         -2   -1    0    0    0  501 -0.00000000000E+00  0.00000000000E+00  0.36999464377E+03  0.36999464378E+03  0.25500000000E-02 0.  1.
          2   -1    0    0  501    0  0.00000000000E+00 -0.00000000000E+00 -0.54694301367E+03  0.54694301367E+03  0.25500000000E-02 0. -1.
    8880022    1    1    2    0    0 -0.10570019034E+02 -0.59598738352E+02  0.33824791959E+03  0.37612104839E+03  0.15294330000E+03 0.  0.
    8880022    1    1    2    0    0  0.10570019034E+02  0.59598738352E+02 -0.51519628949E+03  0.54081660906E+03  0.15294330000E+03 0. -1.
<mgrwt>
<rscale>  0 0.16448522E+03</rscale>
<asrwt>0</asrwt>
<pdfrwt beam="1">  1        2 0.84145079E-01 0.16448522E+03</pdfrwt>
<pdfrwt beam="2">  1       -2 0.56922253E-01 0.16448522E+03</pdfrwt>
<totfact> 0.16976419E+02</totfact>
</mgrwt>
</event>
<event>
 4    1  0.8689989E-008  0.9086201E+03  0.7818608E-02  0.9414870E-01
          2   -1    0    0  501    0  0.00000000000E+00  0.00000000000E+00  0.24807986791E+04  0.24807986791E+04  0.25500000000E-02 0. -1.
         -2   -1    0    0    0  501 -0.00000000000E+00 -0.00000000000E+00 -0.11510675865E+04  0.11510675865E+04  0.25500000000E-02 0.  1.
    8880022    1    1    2    0    0 -0.26834632273E+01  0.89565146715E+03 -0.86621905700E+03  0.12553588568E+04  0.15294330000E+03 0.  0.
    8880022    1    1    2    0    0  0.26834632273E+01 -0.89565146715E+03  0.21959501496E+04  0.23765074088E+04  0.15294330000E+03 0.  0.
<mgrwt>
<rscale>  0 0.90862006E+03</rscale>
<asrwt>0</asrwt>
<pdfrwt beam="1">  1        2 0.38166133E+00 0.90862006E+03</pdfrwt>
<pdfrwt beam="2">  1       -2 0.17708732E+00 0.90862006E+03</pdfrwt>
<totfact> 0.69300826E-01</totfact>
</mgrwt>
</event>
<event>
 4    1  0.6912310E-008  0.5831258E+03  0.7818608E-02  0.9941047E-01
          2   -1    0    0  501    0  0.00000000000E+00  0.00000000000E+00  0.24107166969E+04  0.24107166969E+04  0.25500000000E-02 0. -1.
         -2   -1    0    0    0  501 -0.00000000000E+00 -0.00000000000E+00 -0.37072417355E+03  0.37072417355E+03  0.25500000000E-02 0.  1.
    8880022    1    1    2    0    0 -0.41728063145E+03 -0.37751944423E+03 -0.74637525588E+02  0.58788304057E+03  0.15294330000E+03 0.  0.
    8880022    1    1    2    0    0  0.41728063145E+03  0.37751944423E+03  0.21146300490E+04  0.21935578299E+04  0.15294330000E+03 0.  0.
<mgrwt>
<rscale>  0 0.58312581E+03</rscale>
<asrwt>0</asrwt>
<pdfrwt beam="1">  1        2 0.37087950E+00 0.58312581E+03</pdfrwt>
<pdfrwt beam="2">  1       -2 0.57034487E-01 0.58312581E+03</pdfrwt>
<totfact> 0.12176337E+01</totfact>
</mgrwt>
</event>
<event>
 4    1  0.6912310E-008  0.3704947E+03  0.7818608E-02  0.1054504E+00
          2   -1    0    0  501    0  0.00000000000E+00  0.00000000000E+00  0.55975611445E+03  0.55975611445E+03  0.25500000000E-02 0. -1.
         -2   -1    0    0    0  501 -0.00000000000E+00 -0.00000000000E+00 -0.38203858839E+03  0.38203858840E+03  0.25500000000E-02 0.  1.
    8880022    1    1    2    0    0  0.33121074623E+03 -0.64607264297E+02 -0.19293859524E+03  0.41772193091E+03  0.15294330000E+03 0.  0.
    8880022    1    1    2    0    0 -0.33121074623E+03  0.64607264297E+02  0.37065612129E+03  0.52407277194E+03  0.15294330000E+03 0.  0.
<mgrwt>
<rscale>  0 0.37049468E+03</rscale>
<asrwt>0</asrwt>
<pdfrwt beam="1">  1        2 0.86116325E-01 0.37049468E+03</pdfrwt>
<pdfrwt beam="2">  1       -2 0.58775168E-01 0.37049468E+03</pdfrwt>
<totfact> 0.15104924E+02</totfact>
</mgrwt>
</event>
<event>
 4    1  0.6912310E-008  0.5451520E+03  0.7818608E-02  0.1002622E+00
          2   -1    0    0  501    0  0.00000000000E+00  0.00000000000E+00  0.23692393951E+04  0.23692393951E+04  0.25500000000E-02 0. -1.
         -2   -1    0    0    0  501 -0.00000000000E+00 -0.00000000000E+00 -0.25606447703E+03  0.25606447704E+03  0.25500000000E-02 0.  1.
    8880022    1    1    2    0    0  0.13442332410E+03  0.50569696523E+03  0.19941319577E+04  0.20673057269E+04  0.15294330000E+03 0. -1.
    8880022    1    1    2    0    0 -0.13442332410E+03 -0.50569696523E+03  0.11904296039E+03  0.55799814528E+03  0.15294330000E+03 0.  0.
<mgrwt>
<rscale>  0 0.54515200E+03</rscale>
<asrwt>0</asrwt>
<pdfrwt beam="1">  1        2 0.36449837E+00 0.54515200E+03</pdfrwt>
<pdfrwt beam="2">  1       -2 0.39394535E-01 0.54515200E+03</pdfrwt>
<totfact> 0.27189826E+01</totfact>
</mgrwt>
</event>
<event>
 4    1  0.6912310E-008  0.4932470E+03  0.7818608E-02  0.1015557E+00
         -2   -1    0    0    0  501 -0.00000000000E+00  0.00000000000E+00  0.26560520558E+03  0.26560520559E+03  0.25500000000E-02 0.  1.
          2   -1    0    0  501    0  0.00000000000E+00 -0.00000000000E+00 -0.18253018693E+04  0.18253018693E+04  0.25500000000E-02 0. -1.
    8880022    1    1    2    0    0 -0.41410559823E+03  0.22003970860E+03 -0.41955921479E+02  0.49502815294E+03  0.15294330000E+03 0.  0.
    8880022    1    1    2    0    0  0.41410559823E+03 -0.22003970860E+03 -0.15177407422E+04  0.15958789220E+04  0.15294330000E+03 0.  0.
<mgrwt>
<rscale>  0 0.49324697E+03</rscale>
<asrwt>0</asrwt>
<pdfrwt beam="1">  1        2 0.28081566E+00 0.49324697E+03</pdfrwt>
<pdfrwt beam="2">  1       -2 0.40862340E-01 0.49324697E+03</pdfrwt>
<totfact> 0.50462927E+01</totfact>
</mgrwt>
</event>
<event>
 4    1  0.6912310E-008  0.3654699E+03  0.7818608E-02  0.1056439E+00
          2   -1    0    0  501    0  0.00000000000E+00  0.00000000000E+00  0.73816390663E+03  0.73816390663E+03  0.25500000000E-02 0. -1.
         -2   -1    0    0    0  501 -0.00000000000E+00 -0.00000000000E+00 -0.61019893046E+03  0.61019893047E+03  0.25500000000E-02 0.  1.
    8880022    1    1    2    0    0  0.46091084134E+02  0.32871297788E+03 -0.50147163994E+03  0.62051758117E+03  0.15294330000E+03 0.  0.
    8880022    1    1    2    0    0 -0.46091084134E+02 -0.32871297788E+03  0.62943661611E+03  0.72784525593E+03  0.15294330000E+03 0. -1.
<mgrwt>
<rscale>  0 0.36546992E+03</rscale>
<asrwt>0</asrwt>
<pdfrwt beam="1">  1        2 0.11356368E+00 0.36546992E+03</pdfrwt>
<pdfrwt beam="2">  1       -2 0.93876759E-01 0.36546992E+03</pdfrwt>
<totfact> 0.38857658E+01</totfact>
</mgrwt>
</event>
<event>
 4    1  0.6912310E-008  0.6940943E+03  0.7818608E-02  0.9727385E-01
         -2   -1    0    0    0  501 -0.00000000000E+00  0.00000000000E+00  0.67184797287E+03  0.67184797288E+03  0.25500000000E-02 0.  1.
          2   -1    0    0  501    0  0.00000000000E+00 -0.00000000000E+00 -0.12004521860E+04  0.12004521860E+04  0.25500000000E-02 0. -1.
    8880022    1    1    2    0    0  0.42413537990E+03  0.52771620908E+03  0.32973712313E+03  0.76843571052E+03  0.15294330000E+03 0.  0.
    8880022    1    1    2    0    0 -0.42413537990E+03 -0.52771620908E+03 -0.85834133627E+03  0.11038644484E+04  0.15294330000E+03 0.  0.
<mgrwt>
<rscale>  0 0.69409428E+03</rscale>
<asrwt>0</asrwt>
<pdfrwt beam="1">  1        2 0.18468495E+00 0.69409428E+03</pdfrwt>
<pdfrwt beam="2">  1       -2 0.10336123E+00 0.69409428E+03</pdfrwt>
<totfact> 0.14831319E+01</totfact>
</mgrwt>
</event>
<event>
 4    1  0.1476240E-007  0.7358214E+03  0.7818608E-02  0.9657861E-01
          2   -1    0    0  501    0  0.00000000000E+00  0.00000000000E+00  0.19015807681E+04  0.19015807681E+04  0.25500000000E-02 0. -1.
         -2   -1    0    0    0  501 -0.00000000000E+00 -0.00000000000E+00 -0.11527292296E+04  0.11527292297E+04  0.25500000000E-02 0.  1.
    8880022    1    1    2    0    0 -0.45307098060E+02  0.71832361631E+03  0.16996203361E+04  0.18520643863E+04  0.15294330000E+03 0.  0.
    8880022    1    1    2    0    0  0.45307098060E+02 -0.71832361631E+03 -0.95076879763E+03  0.12022456115E+04  0.15294330000E+03 0.  1.
<mgrwt>
<rscale>  0 0.73582145E+03</rscale>
<asrwt>0</asrwt>
<pdfrwt beam="1">  1        2 0.29255089E+00 0.73582145E+03</pdfrwt>
<pdfrwt beam="2">  1       -2 0.17734296E+00 0.73582145E+03</pdfrwt>
<totfact> 0.14925051E+00</totfact>
</mgrwt>
</event>
<event>
 4    1  0.6912310E-008  0.3389153E+03  0.7818608E-02  0.1067259E+00
         -2   -1    0    0    0  501 -0.00000000000E+00  0.00000000000E+00  0.11562001036E+03  0.11562001039E+03  0.25500000000E-02 0.  1.
          2   -1    0    0  501    0  0.00000000000E+00 -0.00000000000E+00 -0.34869974574E+04  0.34869974574E+04  0.25500000000E-02 0. -1.
    8880022    1    1    2    0    0  0.27617995966E+03 -0.12327443799E+03 -0.32089362179E+04  0.32267840431E+04  0.15294330000E+03 0.  0.
    8880022    1    1    2    0    0 -0.27617995966E+03  0.12327443799E+03 -0.16244122913E+03  0.37583342469E+03  0.15294330000E+03 0.  0.
<mgrwt>
<rscale>  0 0.33891534E+03</rscale>
<asrwt>0</asrwt>
<pdfrwt beam="1">  1        2 0.53646107E+00 0.33891534E+03</pdfrwt>
<pdfrwt beam="2">  1       -2 0.17787697E-01 0.33891534E+03</pdfrwt>
<totfact> 0.25956334E+01</totfact>
</mgrwt>
</event>
<event>
 4    1  0.6912310E-008  0.6972123E+03  0.7818608E-02  0.9722011E-01
         -2   -1    0    0    0  501 -0.00000000000E+00  0.00000000000E+00  0.98759784207E+03  0.98759784208E+03  0.25500000000E-02 0.  1.
          2   -1    0    0  501    0  0.00000000000E+00 -0.00000000000E+00 -0.84967101015E+03  0.84967101015E+03  0.25500000000E-02 0. -1.
    8880022    1    1    2    0    0  0.66854395998E+03  0.12554812205E+03  0.66480660231E+03  0.96336536623E+03  0.15294330000E+03 0.  0.
    8880022    1    1    2    0    0 -0.66854395998E+03 -0.12554812205E+03 -0.52687977039E+03  0.87390348599E+03  0.15294330000E+03 0.  0.
<mgrwt>
<rscale>  0 0.69721231E+03</rscale>
<asrwt>0</asrwt>
<pdfrwt beam="1">  1        2 0.13071862E+00 0.69721231E+03</pdfrwt>
<pdfrwt beam="2">  1       -2 0.15193813E+00 0.69721231E+03</pdfrwt>
<totfact> 0.94097616E+00</totfact>
</mgrwt>
</event>
<event>
 4    1  0.6912310E-008  0.3546367E+03  0.7818608E-02  0.1060728E+00
          2   -1    0    0  501    0  0.00000000000E+00  0.00000000000E+00  0.11530859229E+04  0.11530859229E+04  0.25500000000E-02 0. -1.
         -2   -1    0    0    0  501 -0.00000000000E+00 -0.00000000000E+00 -0.27704749996E+03  0.27704749997E+03  0.25500000000E-02 0.  1.
    8880022    1    1    2    0    0  0.13773514316E+03 -0.28879843577E+03 -0.11877525779E+03  0.37399829016E+03  0.15294330000E+03 0.  0.
    8880022    1    1    2    0    0 -0.13773514316E+03  0.28879843577E+03  0.99481368077E+03  0.10561351327E+04  0.15294330000E+03 0.  0.
<mgrwt>
<rscale>  0 0.35463666E+03</rscale>
<asrwt>0</asrwt>
<pdfrwt beam="1">  1        2 0.17739783E+00 0.35463666E+03</pdfrwt>
<pdfrwt beam="2">  1       -2 0.42622693E-01 0.35463666E+03</pdfrwt>
<totfact> 0.11172194E+02</totfact>
</mgrwt>
</event>
<event>
 4    1  0.6912310E-008  0.8467831E+03  0.7818608E-02  0.9494665E-01
          2   -1    0    0  501    0  0.00000000000E+00  0.00000000000E+00  0.36249666825E+04  0.36249666825E+04  0.25500000000E-02 0. -1.
         -2   -1    0    0    0  501 -0.00000000000E+00 -0.00000000000E+00 -0.23043179661E+03  0.23043179663E+03  0.25500000000E-02 0.  1.
    8880022    1    1    2    0    0 -0.32369626456E+03 -0.76737905226E+03  0.24226149302E+04  0.25663407090E+04  0.15294330000E+03 0.  0.
    8880022    1    1    2    0    0  0.32369626456E+03  0.76737905226E+03  0.97191995574E+03  0.12890577702E+04  0.15294330000E+03 0.  0.
<mgrwt>
<rscale>  0 0.84678305E+03</rscale>
<asrwt>0</asrwt>
<pdfrwt beam="1">  1        2 0.55768715E+00 0.84678305E+03</pdfrwt>
<pdfrwt beam="2">  1       -2 0.35451048E-01 0.84678305E+03</pdfrwt>
<totfact> 0.52863141E+00</totfact>
</mgrwt>
</event>
<event>
 4    1  0.6912310E-008  0.7137894E+03  0.7818608E-02  0.9693937E-01
         -2   -1    0    0    0  501 -0.00000000000E+00  0.00000000000E+00  0.13277238366E+04  0.13277238366E+04  0.25500000000E-02 0.  1.
          2   -1    0    0  501    0  0.00000000000E+00 -0.00000000000E+00 -0.12065866699E+04  0.12065866699E+04  0.25500000000E-02 0. -1.
    8880022    1    1    2    0    0 -0.57473177049E+03 -0.39469869250E+03  0.11070008035E+04  0.13171735261E+04  0.15294330000E+03 0.  0.
    8880022    1    1    2    0    0  0.57473177049E+03  0.39469869250E+03 -0.98586363679E+03  0.12171369805E+04  0.15294330000E+03 0.  0.
<mgrwt>
<rscale>  0 0.71378941E+03</rscale>
<asrwt>0</asrwt>
<pdfrwt beam="1">  1        2 0.18562872E+00 0.71378941E+03</pdfrwt>
<pdfrwt beam="2">  1       -2 0.20426520E+00 0.71378941E+03</pdfrwt>
<totfact> 0.24208410E+00</totfact>
</mgrwt>
</event>
<event>
 4    1  0.6912310E-008  0.3926621E+03  0.7818608E-02  0.1046351E+00
         -2   -1    0    0    0  501 -0.00000000000E+00  0.00000000000E+00  0.23040564524E+03  0.23040564525E+03  0.25500000000E-02 0.  1.
          2   -1    0    0  501    0  0.00000000000E+00 -0.00000000000E+00 -0.85062095920E+03  0.85062095920E+03  0.25500000000E-02 0. -1.
    8880022    1    1    2    0    0  0.33024071856E+03 -0.14742094364E+03 -0.55974096537E+03  0.68373493997E+03  0.15294330000E+03 0.  0.
    8880022    1    1    2    0    0 -0.33024071856E+03  0.14742094364E+03 -0.60474348594E+02  0.39729166449E+03  0.15294330000E+03 0.  0.
<mgrwt>
<rscale>  0 0.39266209E+03</rscale>
<asrwt>0</asrwt>
<pdfrwt beam="1">  1        2 0.13086476E+00 0.39266209E+03</pdfrwt>
<pdfrwt beam="2">  1       -2 0.35447023E-01 0.39266209E+03</pdfrwt>
<totfact> 0.24478390E+02</totfact>
</mgrwt>
</event>
<event>
 4    1  0.6912310E-008  0.6576985E+03  0.7818608E-02  0.9792440E-01
          2   -1    0    0  501    0  0.00000000000E+00  0.00000000000E+00  0.21493774906E+04  0.21493774906E+04  0.25500000000E-02 0. -1.
         -2   -1    0    0    0  501 -0.00000000000E+00 -0.00000000000E+00 -0.28320411038E+03  0.28320411039E+03  0.25500000000E-02 0.  1.
    8880022    1    1    2    0    0  0.34727495782E+03 -0.53719242677E+03  0.15873714611E+04  0.17182303129E+04  0.15294330000E+03 0.  0.
    8880022    1    1    2    0    0 -0.34727495782E+03  0.53719242677E+03  0.27880191918E+03  0.71435128814E+03  0.15294330000E+03 0.  0.
<mgrwt>
<rscale>  0 0.65769845E+03</rscale>
<asrwt>0</asrwt>
<pdfrwt beam="1">  1        2 0.33067346E+00 0.65769845E+03</pdfrwt>
<pdfrwt beam="2">  1       -2 0.43569863E-01 0.65769845E+03</pdfrwt>
<totfact> 0.28913226E+01</totfact>
</mgrwt>
</event>
<event>
 4    1  0.6912310E-008  0.7978842E+03  0.7818608E-02  0.9563085E-01
         -2   -1    0    0    0  501 -0.00000000000E+00  0.00000000000E+00  0.59797553749E+03  0.59797553749E+03  0.25500000000E-02 0.  1.
          2   -1    0    0  501    0  0.00000000000E+00 -0.00000000000E+00 -0.22178051034E+04  0.22178051034E+04  0.25500000000E-02 0. -1.
    8880022    1    1    2    0    0  0.69828442841E+03 -0.35443814895E+03 -0.18251247303E+04  0.19919085016E+04  0.15294330000E+03 0.  0.
    8880022    1    1    2    0    0 -0.69828442841E+03  0.35443814895E+03  0.20529516442E+03  0.82387213931E+03  0.15294330000E+03 0.  0.
<mgrwt>
<rscale>  0 0.79788420E+03</rscale>
<asrwt>0</asrwt>
<pdfrwt beam="1">  1        2 0.34120078E+00 0.79788420E+03</pdfrwt>
<pdfrwt beam="2">  1       -2 0.91996238E-01 0.79788420E+03</pdfrwt>
<totfact> 0.52382161E+00</totfact>
</mgrwt>
</event>
<event>
 4    1  0.6912310E-008  0.2179717E+03  0.7818608E-02  0.1135404E+00
         -2   -1    0    0    0  501 -0.00000000000E+00  0.00000000000E+00  0.84285944646E+02  0.84285944685E+02  0.25500000000E-02 0.  1.
          2   -1    0    0  501    0  0.00000000000E+00 -0.00000000000E+00 -0.22442309688E+04  0.22442309688E+04  0.25500000000E-02 0. -1.
    8880022    1    1    2    0    0  0.15530561279E+03 -0.42199259803E+00 -0.72485676350E+02  0.22970815774E+03  0.15294330000E+03 0.  0.
    8880022    1    1    2    0    0 -0.15530561279E+03  0.42199259803E+00 -0.20874593478E+04  0.20988087557E+04  0.15294330000E+03 0. -1.
<mgrwt>
<rscale>  0 0.21797171E+03</rscale>
<asrwt>0</asrwt>
<pdfrwt beam="1">  1        2 0.34526626E+00 0.21797171E+03</pdfrwt>
<pdfrwt beam="2">  1       -2 0.12967070E-01 0.21797171E+03</pdfrwt>
<totfact> 0.24465546E+02</totfact>
</mgrwt>
</event>
<event>
 4    1  0.6912310E-008  0.9602092E+03  0.7818608E-02  0.9353297E-01
          2   -1    0    0  501    0  0.00000000000E+00  0.00000000000E+00  0.25666568019E+04  0.25666568019E+04  0.25500000000E-02 0. -1.
         -2   -1    0    0    0  501 -0.00000000000E+00 -0.00000000000E+00 -0.58250076160E+03  0.58250076160E+03  0.25500000000E-02 0.  1.
    8880022    1    1    2    0    0  0.53285782197E+03  0.78401052379E+03  0.19669309175E+04  0.21887939252E+04  0.15294330000E+03 0.  0.
    8880022    1    1    2    0    0 -0.53285782197E+03 -0.78401052379E+03  0.17225122798E+02  0.96036363827E+03  0.15294330000E+03 0.  0.
<mgrwt>
<rscale>  0 0.96020915E+03</rscale>
<asrwt>0</asrwt>
<pdfrwt beam="1">  1        2 0.39487027E+00 0.96020915E+03</pdfrwt>
<pdfrwt beam="2">  1       -2 0.89615503E-01 0.96020915E+03</pdfrwt>
<totfact> 0.34536876E+00</totfact>
</mgrwt>
</event>
<event>
 4    1  0.6912310E-008  0.2907778E+03  0.7818608E-02  0.1089944E+00
          2   -1    0    0  501    0  0.00000000000E+00  0.00000000000E+00  0.98560662362E+03  0.98560662362E+03  0.25500000000E-02 0. -1.
         -2   -1    0    0    0  501 -0.00000000000E+00 -0.00000000000E+00 -0.28164907067E+03  0.28164907068E+03  0.25500000000E-02 0.  1.
    8880022    1    1    2    0    0 -0.18905696359E+03 -0.15942883759E+03 -0.17641271951E+03  0.34010761584E+03  0.15294330000E+03 0.  0.
    8880022    1    1    2    0    0  0.18905696359E+03  0.15942883759E+03  0.88037027246E+03  0.92714807846E+03  0.15294330000E+03 0.  0.
<mgrwt>
<rscale>  0 0.29077782E+03</rscale>
<asrwt>0</asrwt>
<pdfrwt beam="1">  1        2 0.15163179E+00 0.29077782E+03</pdfrwt>
<pdfrwt beam="2">  1       -2 0.43330625E-01 0.29077782E+03</pdfrwt>
<totfact> 0.13785248E+02</totfact>
</mgrwt>
</event>
<event>
 4    1  0.6912310E-008  0.9822449E+03  0.7818608E-02  0.9328235E-01
         -2   -1    0    0    0  501 -0.00000000000E+00  0.00000000000E+00  0.39314781775E+03  0.39314781776E+03  0.25500000000E-02 0.  1.
          2   -1    0    0  501    0  0.00000000000E+00 -0.00000000000E+00 -0.40315727915E+04  0.40315727915E+04  0.25500000000E-02 0. -1.
    8880022    1    1    2    0    0  0.58414402630E+03  0.77471879640E+03 -0.32031171675E+04  0.33503379977E+04  0.15294330000E+03 0.  0.
    8880022    1    1    2    0    0 -0.58414402630E+03 -0.77471879640E+03 -0.43530780631E+03  0.10743826116E+04  0.15294330000E+03 0.  0.
<mgrwt>
<rscale>  0 0.98224493E+03</rscale>
<asrwt>0</asrwt>
<pdfrwt beam="1">  1        2 0.62024194E+00 0.98224493E+03</pdfrwt>
<pdfrwt beam="2">  1       -2 0.60484282E-01 0.98224493E+03</pdfrwt>
<totfact> 0.86962205E-01</totfact>
</mgrwt>
</event>
<event>
 4    1  0.6912310E-008  0.4522311E+03  0.7818608E-02  0.1027059E+00
          2   -1    0    0  501    0  0.00000000000E+00  0.00000000000E+00  0.65177029536E+03  0.65177029537E+03  0.25500000000E-02 0. -1.
         -2   -1    0    0    0  501 -0.00000000000E+00 -0.00000000000E+00 -0.21279249414E+04  0.21279249414E+04  0.25500000000E-02 0.  1.
    8880022    1    1    2    0    0 -0.79706955384E+01  0.42550889715E+03  0.54521303054E+03  0.70835743466E+03  0.15294330000E+03 0.  0.
    8880022    1    1    2    0    0  0.79706955384E+01 -0.42550889715E+03 -0.20213676766E+04  0.20713378021E+04  0.15294330000E+03 0.  0.
<mgrwt>
<rscale>  0 0.45223114E+03</rscale>
<asrwt>0</asrwt>
<pdfrwt beam="1">  1        2 0.10027235E+00 0.45223114E+03</pdfrwt>
<pdfrwt beam="2">  1       -2 0.32737306E+00 0.45223114E+03</pdfrwt>
<totfact> 0.10872921E+00</totfact>
</mgrwt>
</event>
<event>
 4    1  0.6912310E-008  0.4074227E+03  0.7818608E-02  0.1041239E+00
         -2   -1    0    0    0  501 -0.00000000000E+00  0.00000000000E+00  0.14939589547E+04  0.14939589547E+04  0.25500000000E-02 0.  1.
          2   -1    0    0  501    0  0.00000000000E+00 -0.00000000000E+00 -0.12570103588E+04  0.12570103588E+04  0.25500000000E-02 0. -1.
    8880022    1    1    2    0    0  0.36567372390E+03  0.94256584050E+02  0.14317618247E+04  0.14886017438E+04  0.15294330000E+03 0.  0.
    8880022    1    1    2    0    0 -0.36567372390E+03 -0.94256584050E+02 -0.11948132289E+04  0.12623675696E+04  0.15294330000E+03 0. -1.
<mgrwt>
<rscale>  0 0.40742267E+03</rscale>
<asrwt>0</asrwt>
<pdfrwt beam="1">  1        2 0.19338621E+00 0.40742267E+03</pdfrwt>
<pdfrwt beam="2">  1       -2 0.22983984E+00 0.40742267E+03</pdfrwt>
<totfact> 0.16854729E+00</totfact>
</mgrwt>
</event>
<event>
 4    1  0.6912310E-008  0.9106741E+03  0.7818608E-02  0.9412336E-01
          2   -1    0    0  501    0  0.00000000000E+00  0.00000000000E+00  0.24145120389E+04  0.24145120389E+04  0.25500000000E-02 0. -1.
         -2   -1    0    0    0  501 -0.00000000000E+00 -0.00000000000E+00 -0.41832381157E+03  0.41832381158E+03  0.25500000000E-02 0.  1.
    8880022    1    1    2    0    0  0.88430521355E+03 -0.15472549047E+03  0.39895980556E+03  0.99423149597E+03  0.15294330000E+03 0.  0.
    8880022    1    1    2    0    0 -0.88430521355E+03  0.15472549047E+03  0.15972284218E+04  0.18386043545E+04  0.15294330000E+03 0.  0.
<mgrwt>
<rscale>  0 0.91067411E+03</rscale>
<asrwt>0</asrwt>
<pdfrwt beam="1">  1        2 0.37146339E+00 0.91067411E+03</pdfrwt>
<pdfrwt beam="2">  1       -2 0.64357509E-01 0.91067411E+03</pdfrwt>
<totfact> 0.88855977E+00</totfact>
</mgrwt>
</event>
<event>
 4    1  0.6912310E-008  0.3287215E+03  0.7818608E-02  0.1071704E+00
         -2   -1    0    0    0  501 -0.00000000000E+00  0.00000000000E+00  0.35852687644E+03  0.35852687645E+03  0.25500000000E-02 0.  1.
          2   -1    0    0  501    0  0.00000000000E+00 -0.00000000000E+00 -0.12056715721E+04  0.12056715721E+04  0.25500000000E-02 0. -1.
    8880022    1    1    2    0    0 -0.23115081680E+03  0.17673552816E+03  0.25375444854E+03  0.41526993654E+03  0.15294330000E+03 0.  0.
    8880022    1    1    2    0    0  0.23115081680E+03 -0.17673552816E+03 -0.11008991442E+04  0.11489285120E+04  0.15294330000E+03 0.  0.
<mgrwt>
<rscale>  0 0.32872146E+03</rscale>
<asrwt>0</asrwt>
<pdfrwt beam="1">  1        2 0.18548793E+00 0.32872146E+03</pdfrwt>
<pdfrwt beam="2">  1       -2 0.55157981E-01 0.32872146E+03</pdfrwt>
<totfact> 0.62513368E+01</totfact>
</mgrwt>
</event>
<event>
 4    1  0.6912310E-008  0.2528870E+03  0.7818608E-02  0.1111494E+00
          2   -1    0    0  501    0  0.00000000000E+00  0.00000000000E+00  0.30980869401E+03  0.30980869402E+03  0.25500000000E-02 0. -1.
         -2   -1    0    0    0  501 -0.00000000000E+00 -0.00000000000E+00 -0.27228458133E+03  0.27228458135E+03  0.25500000000E-02 0.  1.
    8880022    1    1    2    0    0  0.20006998735E+03  0.23068973661E+02 -0.12437929506E+03  0.28181916088E+03  0.15294330000E+03 0.  0.
    8880022    1    1    2    0    0 -0.20006998735E+03 -0.23068973661E+02  0.16190340773E+03  0.30027411449E+03  0.15294330000E+03 0.  0.
<mgrwt>
<rscale>  0 0.25288699E+03</rscale>
<asrwt>0</asrwt>
<pdfrwt beam="1">  1        2 0.47662876E-01 0.25288699E+03</pdfrwt>
<pdfrwt beam="2">  1       -2 0.41889936E-01 0.25288699E+03</pdfrwt>
<totfact> 0.57738607E+02</totfact>
</mgrwt>
</event>
<event>
 4    1  0.6912310E-008  0.9227004E+03  0.7818608E-02  0.9397641E-01
         -2   -1    0    0    0  501 -0.00000000000E+00  0.00000000000E+00  0.49912516163E+03  0.49912516164E+03  0.25500000000E-02 0.  1.
          2   -1    0    0  501    0  0.00000000000E+00 -0.00000000000E+00 -0.17165994258E+04  0.17165994258E+04  0.25500000000E-02 0. -1.
    8880022    1    1    2    0    0  0.56720772915E+03  0.71151935220E+03 -0.69686697001E+03  0.11562869987E+04  0.15294330000E+03 0.  0.
    8880022    1    1    2    0    0 -0.56720772915E+03 -0.71151935220E+03 -0.52060729412E+03  0.10594375887E+04  0.15294330000E+03 0.  0.
<mgrwt>
<rscale>  0 0.92270041E+03</rscale>
<asrwt>0</asrwt>
<pdfrwt beam="1">  1        2 0.26409222E+00 0.92270041E+03</pdfrwt>
<pdfrwt beam="2">  1       -2 0.76788487E-01 0.92270041E+03</pdfrwt>
<totfact> 0.14652612E+01</totfact>
</mgrwt>
</event>
<event>
 4    1  0.6912310E-008  0.2667972E+03  0.7818608E-02  0.1103127E+00
         -2   -1    0    0    0  501 -0.00000000000E+00  0.00000000000E+00  0.84430840821E+03  0.84430840822E+03  0.25500000000E-02 0.  1.
          2   -1    0    0  501    0  0.00000000000E+00 -0.00000000000E+00 -0.48362259251E+03  0.48362259251E+03  0.25500000000E-02 0. -1.
    8880022    1    1    2    0    0 -0.18881781918E+03 -0.11016782160E+03  0.78366687196E+03  0.82783726479E+03  0.15294330000E+03 0.  0.
    8880022    1    1    2    0    0  0.18881781918E+03  0.11016782160E+03 -0.42298105625E+03  0.50009373594E+03  0.15294330000E+03 0. -1.
<mgrwt>
<rscale>  0 0.26679725E+03</rscale>
<asrwt>0</asrwt>
<pdfrwt beam="1">  1        2 0.74403476E-01 0.26679725E+03</pdfrwt>
<pdfrwt beam="2">  1       -2 0.12989360E+00 0.26679725E+03</pdfrwt>
<totfact> 0.29935941E+01</totfact>
</mgrwt>
</event>
<event>
 4    1  0.6912310E-008  0.5362448E+03  0.7818608E-02  0.1004729E+00
          2   -1    0    0  501    0  0.00000000000E+00  0.00000000000E+00  0.20391912007E+04  0.20391912007E+04  0.25500000000E-02 0. -1.
         -2   -1    0    0    0  501 -0.00000000000E+00 -0.00000000000E+00 -0.80340196755E+03  0.80340196756E+03  0.25500000000E-02 0.  1.
    8880022    1    1    2    0    0 -0.46874336617E+03 -0.21082337762E+03 -0.67265243676E+03  0.86024403141E+03  0.15294330000E+03 0.  0.
    8880022    1    1    2    0    0  0.46874336617E+03  0.21082337762E+03  0.19084416699E+04  0.19823491369E+04  0.15294330000E+03 0. -1.
<mgrwt>
<rscale>  0 0.53624481E+03</rscale>
<asrwt>0</asrwt>
<pdfrwt beam="1">  1        2 0.31372172E+00 0.53624481E+03</pdfrwt>
<pdfrwt beam="2">  1       -2 0.12360030E+00 0.53624481E+03</pdfrwt>
<totfact> 0.33997631E+00</totfact>
</mgrwt>
</event>
<event>
 4    1  0.6912310E-008  0.3005333E+03  0.7818608E-02  0.1084974E+00
         -2   -1    0    0    0  501 -0.00000000000E+00  0.00000000000E+00  0.31786148962E+03  0.31786148963E+03  0.25500000000E-02 0.  1.
          2   -1    0    0  501    0  0.00000000000E+00 -0.00000000000E+00 -0.24687182595E+04  0.24687182595E+04  0.25500000000E-02 0. -1.
    8880022    1    1    2    0    0  0.23972925100E+03 -0.97254818582E+02  0.23522710116E+03  0.38164388592E+03  0.15294330000E+03 0.  0.
    8880022    1    1    2    0    0 -0.23972925100E+03  0.97254818582E+02 -0.23860838710E+04  0.24049358632E+04  0.15294330000E+03 0.  0.
<mgrwt>
<rscale>  0 0.30053330E+03</rscale>
<asrwt>0</asrwt>
<pdfrwt beam="1">  1        2 0.37980280E+00 0.30053330E+03</pdfrwt>
<pdfrwt beam="2">  1       -2 0.48901769E-01 0.30053330E+03</pdfrwt>
<totfact> 0.16793306E+01</totfact>
</mgrwt>
</event>
<event>
 4    1  0.6912310E-008  0.2083852E+03  0.7818608E-02  0.1142851E+00
          2   -1    0    0  501    0  0.00000000000E+00  0.00000000000E+00  0.71773252805E+03  0.71773252805E+03  0.25500000000E-02 0. -1.
         -2   -1    0    0    0  501 -0.00000000000E+00 -0.00000000000E+00 -0.34821098639E+03  0.34821098640E+03  0.25500000000E-02 0.  1.
    8880022    1    1    2    0    0  0.13268211437E+03  0.49276783436E+02 -0.29970101168E+03  0.36502752536E+03  0.15294330000E+03 0.  1.
    8880022    1    1    2    0    0 -0.13268211437E+03 -0.49276783436E+02  0.66922255333E+03  0.70091598909E+03  0.15294330000E+03 0.  0.
<mgrwt>
<rscale>  0 0.20838522E+03</rscale>
<asrwt>0</asrwt>
<pdfrwt beam="1">  1        2 0.11042039E+00 0.20838522E+03</pdfrwt>
<pdfrwt beam="2">  1       -2 0.53570921E-01 0.20838522E+03</pdfrwt>
<totfact> 0.13880779E+02</totfact>
</mgrwt>
</event>
<event>
 4    1  0.6912310E-008  0.5747529E+03  0.7818608E-02  0.9959216E-01
         -2   -1    0    0    0  501 -0.00000000000E+00  0.00000000000E+00  0.68466430392E+03  0.68466430392E+03  0.25500000000E-02 0.  1.
          2   -1    0    0  501    0  0.00000000000E+00 -0.00000000000E+00 -0.21248405857E+04  0.21248405857E+04  0.25500000000E-02 0. -1.
    8880022    1    1    2    0    0  0.40546547286E+03  0.37755402106E+03  0.51492074903E+03  0.77167630473E+03  0.15294330000E+03 0.  0.
    8880022    1    1    2    0    0 -0.40546547286E+03 -0.37755402106E+03 -0.19550970308E+04  0.20378285848E+04  0.15294330000E+03 0.  0.
<mgrwt>
<rscale>  0 0.57475294E+03</rscale>
<asrwt>0</asrwt>
<pdfrwt beam="1">  1        2 0.32689855E+00 0.57475294E+03</pdfrwt>
<pdfrwt beam="2">  1       -2 0.10533297E+00 0.57475294E+03</pdfrwt>
<totfact> 0.44667804E+00</totfact>
</mgrwt>
</event>
<event>
 4    1  0.6912310E-008  0.8729755E+03  0.7818608E-02  0.9460008E-01
          2   -1    0    0  501    0  0.00000000000E+00  0.00000000000E+00  0.39934600378E+03  0.39934600379E+03  0.25500000000E-02 0. -1.
         -2   -1    0    0    0  501 -0.00000000000E+00 -0.00000000000E+00 -0.19369828876E+04  0.19369828876E+04  0.25500000000E-02 0.  1.
    8880022    1    1    2    0    0  0.73994201950E+03  0.43724182446E+03 -0.62675522039E+03  0.10746666295E+04  0.15294330000E+03 0.  0.
    8880022    1    1    2    0    0 -0.73994201950E+03 -0.43724182446E+03 -0.91088166347E+03  0.12616622619E+04  0.15294330000E+03 0.  0.
<mgrwt>
<rscale>  0 0.87297552E+03</rscale>
<asrwt>0</asrwt>
<pdfrwt beam="1">  1        2 0.61437848E-01 0.87297552E+03</pdfrwt>
<pdfrwt beam="2">  1       -2 0.29799736E+00 0.87297552E+03</pdfrwt>
<totfact> 0.26644235E+00</totfact>
</mgrwt>
</event>
<event>
 4    1  0.6912310E-008  0.5990077E+03  0.7818608E-02  0.9907467E-01
          2   -1    0    0  501    0  0.00000000000E+00  0.00000000000E+00  0.18981347808E+04  0.18981347808E+04  0.25500000000E-02 0. -1.
         -2   -1    0    0    0  501 -0.00000000000E+00 -0.00000000000E+00 -0.33253288640E+03  0.33253288641E+03  0.25500000000E-02 0.  1.
    8880022    1    1    2    0    0  0.50342029524E+03  0.28633294953E+03  0.50122729198E+02  0.60110106692E+03  0.15294330000E+03 0.  0.
    8880022    1    1    2    0    0 -0.50342029524E+03 -0.28633294953E+03  0.15154791652E+04  0.16295666003E+04  0.15294330000E+03 0.  0.
<mgrwt>
<rscale>  0 0.59900768E+03</rscale>
<asrwt>0</asrwt>
<pdfrwt beam="1">  1        2 0.29202074E+00 0.59900768E+03</pdfrwt>
<pdfrwt beam="2">  1       -2 0.51158905E-01 0.59900768E+03</pdfrwt>
<totfact> 0.28950177E+01</totfact>
</mgrwt>
</event>
<event>
 4    1  0.6912310E-008  0.3788295E+03  0.7818608E-02  0.1051367E+00
         -2   -1    0    0    0  501 -0.00000000000E+00  0.00000000000E+00  0.27208013708E+03  0.27208013709E+03  0.25500000000E-02 0.  1.
          2   -1    0    0  501    0  0.00000000000E+00 -0.00000000000E+00 -0.17693845386E+04  0.17693845386E+04  0.25500000000E-02 0. -1.
    8880022    1    1    2    0    0  0.31720024000E+03  0.13965722120E+03 -0.16038136405E+04  0.16479472013E+04  0.15294330000E+03 0.  0.
    8880022    1    1    2    0    0 -0.31720024000E+03 -0.13965722120E+03  0.10650923896E+03  0.39351747444E+03  0.15294330000E+03 0.  0.
<mgrwt>
<rscale>  0 0.37882949E+03</rscale>
<asrwt>0</asrwt>
<pdfrwt beam="1">  1        2 0.27221300E+00 0.37882949E+03</pdfrwt>
<pdfrwt beam="2">  1       -2 0.41858484E-01 0.37882949E+03</pdfrwt>
<totfact> 0.52784188E+01</totfact>
</mgrwt>
</event>
<event>
 4    1  0.6912310E-008  0.3976583E+03  0.7818608E-02  0.1044594E+00
         -2   -1    0    0    0  501 -0.00000000000E+00  0.00000000000E+00  0.13039444713E+03  0.13039444716E+03  0.25500000000E-02 0.  1.
          2   -1    0    0  501    0  0.00000000000E+00 -0.00000000000E+00 -0.13602429539E+04  0.13602429539E+04  0.25500000000E-02 0. -1.
    8880022    1    1    2    0    0 -0.27945166532E+03 -0.23800681168E+03 -0.86037344339E+03  0.94782624503E+03  0.15294330000E+03 0.  0.
    8880022    1    1    2    0    0  0.27945166532E+03  0.23800681168E+03 -0.36947506340E+03  0.54281115606E+03  0.15294330000E+03 0.  0.
<mgrwt>
<rscale>  0 0.39765831E+03</rscale>
<asrwt>0</asrwt>
<pdfrwt beam="1">  1        2 0.20926814E+00 0.39765831E+03</pdfrwt>
<pdfrwt beam="2">  1       -2 0.20060685E-01 0.39765831E+03</pdfrwt>
<totfact> 0.33658284E+02</totfact>
</mgrwt>
</event>
<event>
 4    1  0.6912310E-008  0.5654730E+03  0.7818608E-02  0.9979747E-01
         -2   -1    0    0    0  501 -0.00000000000E+00  0.00000000000E+00  0.11460453999E+04  0.11460453999E+04  0.25500000000E-02 0.  1.
          2   -1    0    0  501    0  0.00000000000E+00 -0.00000000000E+00 -0.28896851140E+03  0.28896851141E+03  0.25500000000E-02 0. -1.
    8880022    1    1    2    0    0  0.29640164307E+03 -0.45663345628E+03  0.29534951430E+03  0.63795849083E+03  0.15294330000E+03 0.  0.
    8880022    1    1    2    0    0 -0.29640164307E+03  0.45663345628E+03  0.56172737421E+03  0.79705542051E+03  0.15294330000E+03 0.  0.
<mgrwt>
<rscale>  0 0.56547299E+03</rscale>
<asrwt>0</asrwt>
<pdfrwt beam="1">  1        2 0.44456694E-01 0.56547299E+03</pdfrwt>
<pdfrwt beam="2">  1       -2 0.17631468E+00 0.56547299E+03</pdfrwt>
<totfact> 0.22702608E+01</totfact>
</mgrwt>
</event>
<event>
 4    1  0.6912310E-008  0.5149765E+03  0.7818608E-02  0.1009942E+00
         -2   -1    0    0    0  501 -0.00000000000E+00  0.00000000000E+00  0.54672419497E+03  0.54672419498E+03  0.25500000000E-02 0.  1.
          2   -1    0    0  501    0  0.00000000000E+00 -0.00000000000E+00 -0.10127720431E+04  0.10127720431E+04  0.25500000000E-02 0. -1.
    8880022    1    1    2    0    0 -0.20046428286E+03 -0.44902478750E+03  0.32982503295E+03  0.61154345215E+03  0.15294330000E+03 0.  0.
    8880022    1    1    2    0    0  0.20046428286E+03  0.44902478750E+03 -0.79587288107E+03  0.94795278592E+03  0.15294330000E+03 0. -1.
<mgrwt>
<rscale>  0 0.51497654E+03</rscale>
<asrwt>0</asrwt>
<pdfrwt beam="1">  1        2 0.15581108E+00 0.51497654E+03</pdfrwt>
<pdfrwt beam="2">  1       -2 0.84111414E-01 0.51497654E+03</pdfrwt>
<totfact> 0.31855713E+01</totfact>
</mgrwt>
</event>
<event>
 4    1  0.6912310E-008  0.7407979E+03  0.7818608E-02  0.9649899E-01
          2   -1    0    0  501    0  0.00000000000E+00  0.00000000000E+00  0.63901123838E+03  0.63901123838E+03  0.25500000000E-02 0. -1.
         -2   -1    0    0    0  501 -0.00000000000E+00 -0.00000000000E+00 -0.10623110644E+04  0.10623110644E+04  0.25500000000E-02 0.  1.
    8880022    1    1    2    0    0  0.31150162141E+01 -0.72483110378E+03  0.16067923901E+03  0.75802328671E+03  0.15294330000E+03 0.  0.
    8880022    1    1    2    0    0 -0.31150162141E+01  0.72483110378E+03 -0.58397906505E+03  0.94329901609E+03  0.15294330000E+03 0.  0.
<mgrwt>
<rscale>  0 0.74079787E+03</rscale>
<asrwt>0</asrwt>
<pdfrwt beam="1">  1        2 0.98309421E-01 0.74079787E+03</pdfrwt>
<pdfrwt beam="2">  1       -2 0.16343247E+00 0.74079787E+03</pdfrwt>
<totfact> 0.11098234E+01</totfact>
</mgrwt>
</event>
<event>
 4    1  0.6912310E-008  0.2436078E+03  0.7818608E-02  0.1117412E+00
         -2   -1    0    0    0  501 -0.00000000000E+00  0.00000000000E+00  0.17126533210E+03  0.17126533211E+03  0.25500000000E-02 0.  1.
          2   -1    0    0  501    0  0.00000000000E+00 -0.00000000000E+00 -0.24523431558E+04  0.24523431558E+04  0.25500000000E-02 0. -1.
    8880022    1    1    2    0    0  0.18956573411E+03  0.42371804954E+01  0.75060880392E+02  0.25490961148E+03  0.15294330000E+03 0.  0.
    8880022    1    1    2    0    0 -0.18956573411E+03 -0.42371804954E+01 -0.23561387041E+04  0.23686988764E+04  0.15294330000E+03 0. -1.
<mgrwt>
<rscale>  0 0.24360783E+03</rscale>
<asrwt>0</asrwt>
<pdfrwt beam="1">  1        2 0.37728354E+00 0.24360783E+03</pdfrwt>
<pdfrwt beam="2">  1       -2 0.26348514E-01 0.24360783E+03</pdfrwt>
<totfact> 0.56254158E+01</totfact>
</mgrwt>
</event>
<event>
 4    1  0.6912310E-008  0.4321300E+03  0.7818608E-02  0.1033189E+00
         -2   -1    0    0    0  501 -0.00000000000E+00  0.00000000000E+00  0.76469129140E+03  0.76469129141E+03  0.25500000000E-02 0.  1.
          2   -1    0    0  501    0  0.00000000000E+00 -0.00000000000E+00 -0.68144477627E+03  0.68144477627E+03  0.25500000000E-02 0. -1.
    8880022    1    1    2    0    0 -0.16654935122E+03 -0.36824718823E+03  0.62082115479E+03  0.75640943759E+03  0.15294330000E+03 0.  0.
    8880022    1    1    2    0    0  0.16654935122E+03  0.36824718823E+03 -0.53757463966E+03  0.68972663008E+03  0.15294330000E+03 0.  0.
<mgrwt>
<rscale>  0 0.43212999E+03</rscale>
<asrwt>0</asrwt>
<pdfrwt beam="1">  1        2 0.10483766E+00 0.43212999E+03</pdfrwt>
<pdfrwt beam="2">  1       -2 0.11764481E+00 0.43212999E+03</pdfrwt>
<totfact> 0.24857225E+01</totfact>
</mgrwt>
</event>
<event>
 4    1  0.6912310E-008  0.4355331E+03  0.7818608E-02  0.1032126E+00
         -2   -1    0    0    0  501 -0.00000000000E+00  0.00000000000E+00  0.14290207221E+03  0.14290207223E+03  0.25500000000E-02 0.  1.
          2   -1    0    0  501    0  0.00000000000E+00 -0.00000000000E+00 -0.26895023768E+04  0.26895023768E+04  0.25500000000E-02 0. -1.
    8880022    1    1    2    0    0 -0.27340927375E+03  0.30256373420E+03 -0.22811438684E+04  0.23223493375E+04  0.15294330000E+03 0.  0.
    8880022    1    1    2    0    0  0.27340927375E+03 -0.30256373420E+03 -0.26545643620E+03  0.51005511149E+03  0.15294330000E+03 0.  0.
<mgrwt>
<rscale>  0 0.43553312E+03</rscale>
<asrwt>0</asrwt>
<pdfrwt beam="1">  1        2 0.41376956E+00 0.43553312E+03</pdfrwt>
<pdfrwt beam="2">  1       -2 0.21984936E-01 0.43553312E+03</pdfrwt>
<totfact> 0.53821441E+01</totfact>
</mgrwt>
</event>
<event>
 4    1  0.6912310E-008  0.8308451E+03  0.7818608E-02  0.9516413E-01
         -2   -1    0    0    0  501 -0.00000000000E+00  0.00000000000E+00  0.74249091108E+03  0.74249091109E+03  0.25500000000E-02 0.  1.
          2   -1    0    0  501    0  0.00000000000E+00 -0.00000000000E+00 -0.20984663242E+04  0.20984663242E+04  0.25500000000E-02 0. -1.
    8880022    1    1    2    0    0 -0.81602274488E+03  0.31919333087E+02 -0.17380834410E+04  0.19264572834E+04  0.15294330000E+03 0.  0.
    8880022    1    1    2    0    0  0.81602274488E+03 -0.31919333087E+02  0.38210802787E+03  0.91449995187E+03  0.15294330000E+03 0.  0.
<mgrwt>
<rscale>  0 0.83084512E+03</rscale>
<asrwt>0</asrwt>
<pdfrwt beam="1">  1        2 0.32284097E+00 0.83084512E+03</pdfrwt>
<pdfrwt beam="2">  1       -2 0.11422937E+00 0.83084512E+03</pdfrwt>
<totfact> 0.36176189E+00</totfact>
</mgrwt>
</event>
<event>
 4    1  0.6912310E-008  0.1598970E+03  0.7818608E-02  0.1188813E+00
          2   -1    0    0  501    0  0.00000000000E+00  0.00000000000E+00  0.10154882793E+04  0.10154882793E+04  0.25500000000E-02 0. -1.
         -2   -1    0    0    0  501 -0.00000000000E+00 -0.00000000000E+00 -0.11470696629E+03  0.11470696632E+03  0.25500000000E-02 0.  1.
    8880022    1    1    2    0    0 -0.42880245065E+02 -0.18349209191E+02  0.94963427565E+03  0.96300172347E+03  0.15294330000E+03 0.  0.
    8880022    1    1    2    0    0  0.42880245065E+02  0.18349209191E+02 -0.48852962604E+02  0.16719352220E+03  0.15294330000E+03 0.  1.
<mgrwt>
<rscale>  0 0.15989704E+03</rscale>
<asrwt>0</asrwt>
<pdfrwt beam="1">  1        2 0.15622897E+00 0.15989704E+03</pdfrwt>
<pdfrwt beam="2">  1       -2 0.17647226E-01 0.15989704E+03</pdfrwt>
<totfact> 0.67709658E+02</totfact>
</mgrwt>
</event>
<event>
 4    1  0.6912310E-008  0.6122238E+03  0.7818608E-02  0.9880365E-01
         -2   -1    0    0    0  501 -0.00000000000E+00  0.00000000000E+00  0.24091452375E+04  0.24091452375E+04  0.25500000000E-02 0.  1.
          2   -1    0    0  501    0  0.00000000000E+00 -0.00000000000E+00 -0.21156929285E+03  0.21156929287E+03  0.25500000000E-02 0. -1.
    8880022    1    1    2    0    0  0.29005269655E+03  0.51700648731E+03  0.42470883568E+03  0.74511443605E+03  0.15294330000E+03 0.  0.
    8880022    1    1    2    0    0 -0.29005269655E+03 -0.51700648731E+03  0.17728671089E+04  0.18756000943E+04  0.15294330000E+03 0.  0.
<mgrwt>
<rscale>  0 0.61222376E+03</rscale>
<asrwt>0</asrwt>
<pdfrwt beam="1">  1        2 0.32549123E-01 0.61222376E+03</pdfrwt>
<pdfrwt beam="2">  1       -2 0.37063771E+00 0.61222376E+03</pdfrwt>
<totfact> 0.20174570E+00</totfact>
</mgrwt>
</event>
<event>
 4    1  0.6912310E-008  0.9581787E+03  0.7818608E-02  0.9355642E-01
         -2   -1    0    0    0  501 -0.00000000000E+00  0.00000000000E+00  0.21109029342E+04  0.21109029342E+04  0.25500000000E-02 0.  1.
          2   -1    0    0  501    0  0.00000000000E+00 -0.00000000000E+00 -0.11012510866E+04  0.11012510866E+04  0.25500000000E-02 0. -1.
    8880022    1    1    2    0    0 -0.13720966166E+03  0.93588900221E+03  0.17541157871E+04  0.19987567544E+04  0.15294330000E+03 0.  0.
    8880022    1    1    2    0    0  0.13720966166E+03 -0.93588900221E+03 -0.74446393959E+03  0.12133972664E+04  0.15294330000E+03 0.  0.
<mgrwt>
<rscale>  0 0.95817867E+03</rscale>
<asrwt>0</asrwt>
<pdfrwt beam="1">  1        2 0.16942325E+00 0.95817867E+03</pdfrwt>
<pdfrwt beam="2">  1       -2 0.32475429E+00 0.95817867E+03</pdfrwt>
<totfact> 0.49360454E-01</totfact>
</mgrwt>
</event>
<event>
 4    1  0.6912310E-008  0.2275566E+03  0.7818608E-02  0.1128371E+00
         -2   -1    0    0    0  501 -0.00000000000E+00  0.00000000000E+00  0.22575289246E+03  0.22575289247E+03  0.25500000000E-02 0.  1.
          2   -1    0    0  501    0  0.00000000000E+00 -0.00000000000E+00 -0.43484341371E+03  0.43484341372E+03  0.25500000000E-02 0. -1.
    8880022    1    1    2    0    0  0.15782793416E+03 -0.58997380162E+02  0.12250005929E+03  0.25843425703E+03  0.15294330000E+03 0.  0.
    8880022    1    1    2    0    0 -0.15782793416E+03  0.58997380162E+02 -0.33159058054E+03  0.40216204916E+03  0.15294330000E+03 0.  0.
<mgrwt>
<rscale>  0 0.22755659E+03</rscale>
<asrwt>0</asrwt>
<pdfrwt beam="1">  1        2 0.66898986E-01 0.22755659E+03</pdfrwt>
<pdfrwt beam="2">  1       -2 0.34731214E-01 0.22755659E+03</pdfrwt>
<totfact> 0.57018306E+02</totfact>
</mgrwt>
</event>
<event>
 4    1  0.6912310E-008  0.8249285E+03  0.7818608E-02  0.9524619E-01
         -2   -1    0    0    0  501 -0.00000000000E+00  0.00000000000E+00  0.19965777919E+04  0.19965777919E+04  0.25500000000E-02 0.  1.
          2   -1    0    0  501    0  0.00000000000E+00 -0.00000000000E+00 -0.79123068866E+03  0.79123068866E+03  0.25500000000E-02 0. -1.
    8880022    1    1    2    0    0 -0.78958192247E+03  0.18350947951E+03 -0.44899204786E+03  0.93920224309E+03  0.15294330000E+03 0.  0.
    8880022    1    1    2    0    0  0.78958192247E+03 -0.18350947951E+03  0.16543391511E+04  0.18486062375E+04  0.15294330000E+03 0.  1.
<mgrwt>
<rscale>  0 0.82492848E+03</rscale>
<asrwt>0</asrwt>
<pdfrwt beam="1">  1        2 0.12172780E+00 0.82492848E+03</pdfrwt>
<pdfrwt beam="2">  1       -2 0.30716581E+00 0.82492848E+03</pdfrwt>
<totfact> 0.10365146E+00</totfact>
</mgrwt>
</event>
<event>
 4    1  0.6912310E-008  0.7422223E+03  0.7818608E-02  0.9647632E-01
          2   -1    0    0  501    0  0.00000000000E+00  0.00000000000E+00  0.15374946797E+04  0.15374946797E+04  0.25500000000E-02 0. -1.
         -2   -1    0    0    0  501 -0.00000000000E+00 -0.00000000000E+00 -0.11013505171E+04  0.11013505171E+04  0.25500000000E-02 0.  1.
    8880022    1    1    2    0    0 -0.56838696421E+03  0.45214887560E+03  0.13018204910E+04  0.14985428224E+04  0.15294330000E+03 0.  0.
    8880022    1    1    2    0    0  0.56838696421E+03 -0.45214887560E+03 -0.86567632834E+03  0.11403023745E+04  0.15294330000E+03 0.  0.
<mgrwt>
<rscale>  0 0.74222234E+03</rscale>
<asrwt>0</asrwt>
<pdfrwt beam="1">  1        2 0.23653764E+00 0.74222234E+03</pdfrwt>
<pdfrwt beam="2">  1       -2 0.16943854E+00 0.74222234E+03</pdfrwt>
<totfact> 0.26798416E+00</totfact>
</mgrwt>
</event>
<event>
 4    1  0.6912310E-008  0.4755266E+03  0.7818608E-02  0.1020372E+00
         -2   -1    0    0    0  501 -0.00000000000E+00  0.00000000000E+00  0.23694930739E+03  0.23694930740E+03  0.25500000000E-02 0.  1.
          2   -1    0    0  501    0  0.00000000000E+00 -0.00000000000E+00 -0.13634428161E+04  0.13634428161E+04  0.25500000000E-02 0. -1.
    8880022    1    1    2    0    0 -0.93628589891E+02 -0.44041749363E+03 -0.12491328241E+03  0.49165929533E+03  0.15294330000E+03 0.  0.
    8880022    1    1    2    0    0  0.93628589891E+02  0.44041749363E+03 -0.10015802263E+04  0.11087328282E+04  0.15294330000E+03 0.  0.
<mgrwt>
<rscale>  0 0.47552659E+03</rscale>
<asrwt>0</asrwt>
<pdfrwt beam="1">  1        2 0.20976043E+00 0.47552659E+03</pdfrwt>
<pdfrwt beam="2">  1       -2 0.36453740E-01 0.47552659E+03</pdfrwt>
<totfact> 0.11251909E+02</totfact>
</mgrwt>
</event>
<event>
 4    1  0.6912310E-008  0.3240343E+03  0.7818608E-02  0.1073807E+00
         -2   -1    0    0    0  501 -0.00000000000E+00  0.00000000000E+00  0.63684950550E+03  0.63684950551E+03  0.25500000000E-02 0.  1.
          2   -1    0    0  501    0  0.00000000000E+00 -0.00000000000E+00 -0.23238627877E+03  0.23238627878E+03  0.25500000000E-02 0. -1.
    8880022    1    1    2    0    0 -0.12022412557E+03  0.25913839110E+03 -0.32030718632E+02  0.32561352255E+03  0.15294330000E+03 0.  0.
    8880022    1    1    2    0    0  0.12022412557E+03 -0.25913839110E+03  0.43649394537E+03  0.54362226175E+03  0.15294330000E+03 0.  0.
<mgrwt>
<rscale>  0 0.32403426E+03</rscale>
<asrwt>0</asrwt>
<pdfrwt beam="1">  1        2 0.35751735E-01 0.32403426E+03</pdfrwt>
<pdfrwt beam="2">  1       -2 0.97976846E-01 0.32403426E+03</pdfrwt>
<totfact> 0.13040860E+02</totfact>
</mgrwt>
</event>
<event>
 4    1  0.6912310E-008  0.2343803E+03  0.7818608E-02  0.1123594E+00
          2   -1    0    0  501    0  0.00000000000E+00  0.00000000000E+00  0.93110756027E+03  0.93110756027E+03  0.25500000000E-02 0. -1.
         -2   -1    0    0    0  501 -0.00000000000E+00 -0.00000000000E+00 -0.64742224575E+02  0.64742224625E+02  0.25500000000E-02 0.  1.
    8880022    1    1    2    0    0 -0.12629185318E+03 -0.12487132949E+03  0.28487645918E+03  0.36890206169E+03  0.15294330000E+03 0.  0.
    8880022    1    1    2    0    0  0.12629185318E+03  0.12487132949E+03  0.58148887652E+03  0.62694772321E+03  0.15294330000E+03 0.  0.
<mgrwt>
<rscale>  0 0.23438032E+03</rscale>
<asrwt>0</asrwt>
<pdfrwt beam="1">  1        2 0.14324732E+00 0.23438032E+03</pdfrwt>
<pdfrwt beam="2">  1       -2 0.99603419E-02 0.23438032E+03</pdfrwt>
<totfact> 0.19337855E+03</totfact>
</mgrwt>
</event>
<event>
 4    1  0.6912310E-008  0.3534279E+03  0.7818608E-02  0.1061217E+00
          2   -1    0    0  501    0  0.00000000000E+00  0.00000000000E+00  0.19911358158E+04  0.19911358158E+04  0.25500000000E-02 0. -1.
         -2   -1    0    0    0  501 -0.00000000000E+00 -0.00000000000E+00 -0.97566197228E+02  0.97566197261E+02  0.25500000000E-02 0.  1.
    8880022    1    1    2    0    0 -0.31778489554E+03  0.23073766291E+02  0.15707914131E+04  0.16100611649E+04  0.15294330000E+03 0.  0.
    8880022    1    1    2    0    0  0.31778489554E+03 -0.23073766291E+02  0.32277820555E+03  0.47864084815E+03  0.15294330000E+03 0.  0.
<mgrwt>
<rscale>  0 0.35342792E+03</rscale>
<asrwt>0</asrwt>
<pdfrwt beam="1">  1        2 0.30632855E+00 0.35342792E+03</pdfrwt>
<pdfrwt beam="2">  1       -2 0.15010186E-01 0.35342792E+03</pdfrwt>
<totfact> 0.25375246E+02</totfact>
</mgrwt>
</event>
<event>
 4    1  0.6912310E-008  0.4050811E+03  0.7818608E-02  0.1042034E+00
          2   -1    0    0  501    0  0.00000000000E+00  0.00000000000E+00  0.52354712044E+03  0.52354712045E+03  0.25500000000E-02 0. -1.
         -2   -1    0    0    0  501 -0.00000000000E+00 -0.00000000000E+00 -0.87348508844E+03  0.87348508844E+03  0.25500000000E-02 0.  1.
    8880022    1    1    2    0    0 -0.35906768477E+03  0.10848721453E+03 -0.73429817800E+03  0.83862062054E+03  0.15294330000E+03 0.  0.
    8880022    1    1    2    0    0  0.35906768477E+03 -0.10848721453E+03  0.38436021001E+03  0.55841158836E+03  0.15294330000E+03 0. -1.
<mgrwt>
<rscale>  0 0.40508114E+03</rscale>
<asrwt>0</asrwt>
<pdfrwt beam="1">  1        2 0.80545711E-01 0.40508114E+03</pdfrwt>
<pdfrwt beam="2">  1       -2 0.13438232E+00 0.40508114E+03</pdfrwt>
<totfact> 0.24517519E+01</totfact>
</mgrwt>
</event>
<event>
 4    1  0.6912310E-008  0.6467896E+03  0.7818608E-02  0.9812822E-01
          2   -1    0    0  501    0  0.00000000000E+00  0.00000000000E+00  0.29291589376E+04  0.29291589376E+04  0.25500000000E-02 0. -1.
         -2   -1    0    0    0  501 -0.00000000000E+00 -0.00000000000E+00 -0.23518912509E+03  0.23518912510E+03  0.25500000000E-02 0.  1.
    8880022    1    1    2    0    0  0.54984094441E+03 -0.30433548276E+03  0.23385325900E+04  0.24263288066E+04  0.15294330000E+03 0.  0.
    8880022    1    1    2    0    0 -0.54984094441E+03  0.30433548276E+03  0.35543722250E+03  0.73801925610E+03  0.15294330000E+03 0.  0.
<mgrwt>
<rscale>  0 0.64678961E+03</rscale>
<asrwt>0</asrwt>
<pdfrwt beam="1">  1        2 0.45063985E+00 0.64678961E+03</pdfrwt>
<pdfrwt beam="2">  1       -2 0.36182941E-01 0.64678961E+03</pdfrwt>
<totfact> 0.14949943E+01</totfact>
</mgrwt>
</event>
<event>
 4    1  0.6912310E-008  0.4745667E+03  0.7818608E-02  0.1020639E+00
         -2   -1    0    0    0  501 -0.00000000000E+00  0.00000000000E+00  0.22292046818E+03  0.22292046819E+03  0.25500000000E-02 0.  1.
          2   -1    0    0  501    0  0.00000000000E+00 -0.00000000000E+00 -0.15775568496E+04  0.15775568496E+04  0.25500000000E-02 0. -1.
    8880022    1    1    2    0    0  0.19256761099E+03  0.40588124046E+03 -0.13748419972E+03  0.49408038247E+03  0.15294330000E+03 0.  0.
    8880022    1    1    2    0    0 -0.19256761099E+03 -0.40588124046E+03 -0.12171521818E+04  0.13063969354E+04  0.15294330000E+03 0.  0.
<mgrwt>
<rscale>  0 0.47456666E+03</rscale>
<asrwt>0</asrwt>
<pdfrwt beam="1">  1        2 0.24270105E+00 0.47456666E+03</pdfrwt>
<pdfrwt beam="2">  1       -2 0.34295458E-01 0.47456666E+03</pdfrwt>
<totfact> 0.96286959E+01</totfact>
</mgrwt>
</event>
<event>
 4    1  0.6912310E-008  0.2593804E+03  0.7818608E-02  0.1107516E+00
          2   -1    0    0  501    0  0.00000000000E+00  0.00000000000E+00  0.69122832792E+03  0.69122832793E+03  0.25500000000E-02 0. -1.
         -2   -1    0    0    0  501 -0.00000000000E+00 -0.00000000000E+00 -0.10119584480E+03  0.10119584483E+03  0.25500000000E-02 0.  1.
    8880022    1    1    2    0    0  0.17282685887E+03 -0.11839516428E+03  0.21758925518E+03  0.33856059289E+03  0.15294330000E+03 0. -1.
    8880022    1    1    2    0    0 -0.17282685887E+03  0.11839516428E+03  0.37244322794E+03  0.45386357986E+03  0.15294330000E+03 0.  0.
<mgrwt>
<rscale>  0 0.25938040E+03</rscale>
<asrwt>0</asrwt>
<pdfrwt beam="1">  1        2 0.10634282E+00 0.25938040E+03</pdfrwt>
<pdfrwt beam="2">  1       -2 0.15568591E-01 0.25938040E+03</pdfrwt>
<totfact> 0.13704615E+03</totfact>
</mgrwt>
</event>
<event>
 4    1  0.6912310E-008  0.5889944E+03  0.7818608E-02  0.9928506E-01
         -2   -1    0    0    0  501 -0.00000000000E+00  0.00000000000E+00  0.17571701608E+04  0.17571701608E+04  0.25500000000E-02 0.  1.
          2   -1    0    0  501    0  0.00000000000E+00 -0.00000000000E+00 -0.11254072736E+04  0.11254072736E+04  0.25500000000E-02 0. -1.
    8880022    1    1    2    0    0  0.56835687683E+03 -0.22209623368E+02  0.16246573266E+04  0.17281278566E+04  0.15294330000E+03 0.  0.
    8880022    1    1    2    0    0 -0.56835687683E+03  0.22209623368E+02 -0.99289443944E+03  0.11544495778E+04  0.15294330000E+03 0.  0.
<mgrwt>
<rscale>  0 0.58899445E+03</rscale>
<asrwt>0</asrwt>
<pdfrwt beam="1">  1        2 0.17313958E+00 0.58899445E+03</pdfrwt>
<pdfrwt beam="2">  1       -2 0.27033387E+00 0.58899445E+03</pdfrwt>
<totfact> 0.10919248E+00</totfact>
</mgrwt>
</event>
<event>
 4    1  0.6912310E-008  0.4979635E+03  0.7818608E-02  0.1014312E+00
          2   -1    0    0  501    0  0.00000000000E+00  0.00000000000E+00  0.13179622169E+04  0.13179622169E+04  0.25500000000E-02 0. -1.
         -2   -1    0    0    0  501 -0.00000000000E+00 -0.00000000000E+00 -0.30622973831E+03  0.30622973832E+03  0.25500000000E-02 0.  1.
    8880022    1    1    2    0    0  0.43696517897E+03  0.18340520549E+03  0.15754943222E+01  0.49796603521E+03  0.15294330000E+03 0.  0.
    8880022    1    1    2    0    0 -0.43696517897E+03 -0.18340520549E+03  0.10101569842E+04  0.11262259200E+04  0.15294330000E+03 0.  0.
<mgrwt>
<rscale>  0 0.49796354E+03</rscale>
<asrwt>0</asrwt>
<pdfrwt beam="1">  1        2 0.20276342E+00 0.49796354E+03</pdfrwt>
<pdfrwt beam="2">  1       -2 0.47112268E-01 0.49796354E+03</pdfrwt>
<totfact> 0.72155630E+01</totfact>
</mgrwt>
</event>
<event>
 4    1  0.6912310E-008  0.2017240E+03  0.7818608E-02  0.1148293E+00
          2   -1    0    0  501    0  0.00000000000E+00  0.00000000000E+00  0.66527008505E+03  0.66527008506E+03  0.25500000000E-02 0. -1.
         -2   -1    0    0    0  501 -0.00000000000E+00 -0.00000000000E+00 -0.48736327203E+03  0.48736327203E+03  0.25500000000E-02 0.  1.
    8880022    1    1    2    0    0 -0.70019399748E+02  0.11134721308E+03 -0.44998559810E+03  0.49313244642E+03  0.15294330000E+03 0.  0.
    8880022    1    1    2    0    0  0.70019399748E+02 -0.11134721308E+03  0.62789241113E+03  0.65950091067E+03  0.15294330000E+03 0. -1.
<mgrwt>
<rscale>  0 0.20172400E+03</rscale>
<asrwt>0</asrwt>
<pdfrwt beam="1">  1        2 0.10234924E+00 0.20172400E+03</pdfrwt>
<pdfrwt beam="2">  1       -2 0.74978965E-01 0.20172400E+03</pdfrwt>
<totfact> 0.75304921E+01</totfact>
</mgrwt>
</event>
<event>
 4    1  0.6912310E-008  0.1627648E+03  0.7818608E-02  0.1185610E+00
          2   -1    0    0  501    0  0.00000000000E+00  0.00000000000E+00  0.26386108852E+03  0.26386108853E+03  0.25500000000E-02 0. -1.
         -2   -1    0    0    0  501 -0.00000000000E+00 -0.00000000000E+00 -0.10546496321E+03  0.10546496324E+03  0.25500000000E-02 0.  1.
    8880022    1    1    2    0    0  0.55529985240E+02 -0.41418449536E+01  0.11965516008E+03  0.20201421853E+03  0.15294330000E+03 0.  0.
    8880022    1    1    2    0    0 -0.55529985240E+02  0.41418449536E+01  0.38740965223E+02  0.16731183324E+03  0.15294330000E+03 0. -1.
<mgrwt>
<rscale>  0 0.16276482E+03</rscale>
<asrwt>0</asrwt>
<pdfrwt beam="1">  1        2 0.40594013E-01 0.16276482E+03</pdfrwt>
<pdfrwt beam="2">  1       -2 0.16225379E-01 0.16276482E+03</pdfrwt>
<totfact> 0.36713145E+03</totfact>
</mgrwt>
</event>
<event>
 4    1  0.6912310E-008  0.5531464E+03  0.7818608E-02  0.1000768E+00
          2   -1    0    0  501    0  0.00000000000E+00  0.00000000000E+00  0.15794294853E+04  0.15794294853E+04  0.25500000000E-02 0. -1.
         -2   -1    0    0    0  501 -0.00000000000E+00 -0.00000000000E+00 -0.58693052381E+03  0.58693052381E+03  0.25500000000E-02 0.  1.
    8880022    1    1    2    0    0  0.53148095341E+03 -0.10356112825E+02 -0.39033171343E+03  0.67700055571E+03  0.15294330000E+03 0.  0.
    8880022    1    1    2    0    0 -0.53148095341E+03  0.10356112825E+02  0.13828306749E+04  0.14893594534E+04  0.15294330000E+03 0.  0.
<mgrwt>
<rscale>  0 0.55314637E+03</rscale>
<asrwt>0</asrwt>
<pdfrwt beam="1">  1        2 0.24298915E+00 0.55314637E+03</pdfrwt>
<pdfrwt beam="2">  1       -2 0.90297005E-01 0.55314637E+03</pdfrwt>
<totfact> 0.12708892E+01</totfact>
</mgrwt>
</event>
<event>
 4    1  0.6912310E-008  0.3681178E+03  0.7818608E-02  0.1055415E+00
          2   -1    0    0  501    0  0.00000000000E+00  0.00000000000E+00  0.25812680165E+03  0.25812680166E+03  0.25500000000E-02 0. -1.
         -2   -1    0    0    0  501 -0.00000000000E+00 -0.00000000000E+00 -0.12920457349E+04  0.12920457349E+04  0.25500000000E-02 0.  1.
    8880022    1    1    2    0    0  0.32263111769E+03  0.89600441399E+02 -0.11141709291E+04  0.11734085348E+04  0.15294330000E+03 0.  0.
    8880022    1    1    2    0    0 -0.32263111769E+03 -0.89600441399E+02  0.80251995846E+02  0.37676400180E+03  0.15294330000E+03 0.  0.
<mgrwt>
<rscale>  0 0.36811782E+03</rscale>
<asrwt>0</asrwt>
<pdfrwt beam="1">  1        2 0.39711816E-01 0.36811782E+03</pdfrwt>
<pdfrwt beam="2">  1       -2 0.19877626E+00 0.36811782E+03</pdfrwt>
<totfact> 0.18703650E+01</totfact>
</mgrwt>
</event>
<event>
 4    1  0.6912310E-008  0.1262431E+04  0.7818608E-02  0.9059900E-01
         -2   -1    0    0    0  501 -0.00000000000E+00  0.00000000000E+00  0.52384657172E+03  0.52384657172E+03  0.25500000000E-02 0.  1.
          2   -1    0    0  501    0  0.00000000000E+00 -0.00000000000E+00 -0.33370157404E+04  0.33370157404E+04  0.25500000000E-02 0. -1.
    8880022    1    1    2    0    0 -0.10164638407E+04  0.73289869461E+03 -0.19802137049E+04  0.23483988601E+04  0.15294330000E+03 0.  0.
    8880022    1    1    2    0    0  0.10164638407E+04 -0.73289869461E+03 -0.83295546379E+03  0.15124634520E+04  0.15294330000E+03 0.  0.
<mgrwt>
<rscale>  0 0.12624305E+04</rscale>
<asrwt>0</asrwt>
<pdfrwt beam="1">  1        2 0.51338702E+00 0.12624305E+04</pdfrwt>
<pdfrwt beam="2">  1       -2 0.80591782E-01 0.12624305E+04</pdfrwt>
<totfact> 0.14179971E+00</totfact>
</mgrwt>
</event>
<event>
 4    1  0.6912310E-008  0.2153488E+03  0.7818608E-02  0.1137399E+00
         -2   -1    0    0    0  501 -0.00000000000E+00  0.00000000000E+00  0.53248168116E+02  0.53248168177E+02  0.25500000000E-02 0.  1.
          2   -1    0    0  501    0  0.00000000000E+00 -0.00000000000E+00 -0.17879715240E+04  0.17879715240E+04  0.25500000000E-02 0. -1.
    8880022    1    1    2    0    0  0.14325876412E+03  0.49602377524E+02 -0.15266739692E+04  0.15417874467E+04  0.15294330000E+03 0. -1.
    8880022    1    1    2    0    0 -0.14325876412E+03 -0.49602377524E+02 -0.20804938667E+03  0.29943224553E+03  0.15294330000E+03 0.  0.
<mgrwt>
<rscale>  0 0.21534884E+03</rscale>
<asrwt>0</asrwt>
<pdfrwt beam="1">  1        2 0.27507250E+00 0.21534884E+03</pdfrwt>
<pdfrwt beam="2">  1       -2 0.81920272E-02 0.21534884E+03</pdfrwt>
<totfact> 0.88173751E+02</totfact>
</mgrwt>
</event>
<event>
 4    1  0.6912310E-008  0.1874909E+03  0.7818608E-02  0.1160744E+00
         -2   -1    0    0    0  501 -0.00000000000E+00  0.00000000000E+00  0.55387079164E+02  0.55387079223E+02  0.25500000000E-02 0.  1.
          2   -1    0    0  501    0  0.00000000000E+00 -0.00000000000E+00 -0.77197530599E+03  0.77197530600E+03  0.25500000000E-02 0. -1.
    8880022    1    1    2    0    0  0.99286471650E+02 -0.43627832916E+02 -0.18383309486E+03  0.26257846644E+03  0.15294330000E+03 0.  1.
    8880022    1    1    2    0    0 -0.99286471650E+02  0.43627832916E+02 -0.53275513197E+03  0.56478391878E+03  0.15294330000E+03 0.  0.
<mgrwt>
<rscale>  0 0.18749092E+03</rscale>
<asrwt>0</asrwt>
<pdfrwt beam="1">  1        2 0.11876542E+00 0.18749092E+03</pdfrwt>
<pdfrwt beam="2">  1       -2 0.85210897E-02 0.18749092E+03</pdfrwt>
<totfact> 0.31424099E+03</totfact>
</mgrwt>
</event>
<event>
 4    1  0.6912310E-008  0.7532062E+03  0.7818608E-02  0.9630334E-01
         -2   -1    0    0    0  501 -0.00000000000E+00  0.00000000000E+00  0.80160275498E+03  0.80160275498E+03  0.25500000000E-02 0.  1.
          2   -1    0    0  501    0  0.00000000000E+00 -0.00000000000E+00 -0.16300807698E+04  0.16300807698E+04  0.25500000000E-02 0. -1.
    8880022    1    1    2    0    0 -0.72823307470E+03 -0.11663865849E+03  0.50033775664E+03  0.90424416585E+03  0.15294330000E+03 0.  0.
    8880022    1    1    2    0    0  0.72823307470E+03  0.11663865849E+03 -0.13288157714E+04  0.15274393589E+04  0.15294330000E+03 0.  0.
<mgrwt>
<rscale>  0 0.75320624E+03</rscale>
<asrwt>0</asrwt>
<pdfrwt beam="1">  1        2 0.25078166E+00 0.75320624E+03</pdfrwt>
<pdfrwt beam="2">  1       -2 0.12332350E+00 0.75320624E+03</pdfrwt>
<totfact> 0.54667184E+00</totfact>
</mgrwt>
</event>
<event>
 4    1  0.6912310E-008  0.5459065E+03  0.7818608E-02  0.1002446E+00
         -2   -1    0    0    0  501 -0.00000000000E+00  0.00000000000E+00  0.50772946266E+03  0.50772946267E+03  0.25500000000E-02 0.  1.
          2   -1    0    0  501    0  0.00000000000E+00 -0.00000000000E+00 -0.17818723518E+04  0.17818723518E+04  0.25500000000E-02 0. -1.
    8880022    1    1    2    0    0  0.49854432164E+03  0.16148015658E+03  0.30040583628E+03  0.62310320260E+03  0.15294330000E+03 0.  0.
    8880022    1    1    2    0    0 -0.49854432164E+03 -0.16148015658E+03 -0.15745487255E+04  0.16664986119E+04  0.15294330000E+03 0.  0.
<mgrwt>
<rscale>  0 0.54590653E+03</rscale>
<asrwt>0</asrwt>
<pdfrwt beam="1">  1        2 0.27413421E+00 0.54590653E+03</pdfrwt>
<pdfrwt beam="2">  1       -2 0.78112226E-01 0.54590653E+03</pdfrwt>
<totfact> 0.13718034E+01</totfact>
</mgrwt>
</event>
<event>
 4    1  0.6912310E-008  0.3646624E+03  0.7818608E-02  0.1056753E+00
         -2   -1    0    0    0  501 -0.00000000000E+00  0.00000000000E+00  0.33884461318E+03  0.33884461319E+03  0.25500000000E-02 0.  1.
          2   -1    0    0  501    0  0.00000000000E+00 -0.00000000000E+00 -0.19756287325E+04  0.19756287325E+04  0.25500000000E-02 0. -1.
    8880022    1    1    2    0    0  0.15112844286E+03 -0.29452880560E+03  0.21754854445E+03  0.42462459394E+03  0.15294330000E+03 0.  0.
    8880022    1    1    2    0    0 -0.15112844286E+03  0.29452880560E+03 -0.18543326638E+04  0.18898487518E+04  0.15294330000E+03 0. -1.
<mgrwt>
<rscale>  0 0.36466241E+03</rscale>
<asrwt>0</asrwt>
<pdfrwt beam="1">  1        2 0.30394288E+00 0.36466241E+03</pdfrwt>
<pdfrwt beam="2">  1       -2 0.52129942E-01 0.36466241E+03</pdfrwt>
<totfact> 0.26608900E+01</totfact>
</mgrwt>
</event>
<event>
 4    1  0.6912310E-008  0.1049229E+04  0.7818608E-02  0.9256141E-01
          2   -1    0    0  501    0  0.00000000000E+00  0.00000000000E+00  0.14231742363E+04  0.14231742363E+04  0.25500000000E-02 0. -1.
         -2   -1    0    0    0  501 -0.00000000000E+00 -0.00000000000E+00 -0.92085366108E+03  0.92085366108E+03  0.25500000000E-02 0.  1.
    8880022    1    1    2    0    0 -0.16567258421E+03  0.10247156321E+04  0.71993052747E+03  0.12724704906E+04  0.15294330000E+03 0.  0.
    8880022    1    1    2    0    0  0.16567258421E+03 -0.10247156321E+04 -0.21760995220E+03  0.10715574069E+04  0.15294330000E+03 0.  0.
<mgrwt>
<rscale>  0 0.10492289E+04</rscale>
<asrwt>0</asrwt>
<pdfrwt beam="1">  1        2 0.21894988E+00 0.10492289E+04</pdfrwt>
<pdfrwt beam="2">  1       -2 0.14166979E+00 0.10492289E+04</pdfrwt>
<totfact> 0.48251967E+00</totfact>
</mgrwt>
</event>
<event>
 4    1  0.6912310E-008  0.7737782E+03  0.7818608E-02  0.9598767E-01
          2   -1    0    0  501    0  0.00000000000E+00  0.00000000000E+00  0.71931286716E+03  0.71931286716E+03  0.25500000000E-02 0. -1.
         -2   -1    0    0    0  501 -0.00000000000E+00 -0.00000000000E+00 -0.14760465435E+04  0.14760465435E+04  0.25500000000E-02 0.  1.
    8880022    1    1    2    0    0 -0.65718512456E+03 -0.37874620881E+03 -0.11032371344E+04  0.13475402801E+04  0.15294330000E+03 0.  0.
    8880022    1    1    2    0    0  0.65718512456E+03  0.37874620881E+03  0.34650345812E+03  0.84781913055E+03  0.15294330000E+03 0.  0.
<mgrwt>
<rscale>  0 0.77377815E+03</rscale>
<asrwt>0</asrwt>
<pdfrwt beam="1">  1        2 0.11066352E+00 0.77377815E+03</pdfrwt>
<pdfrwt beam="2">  1       -2 0.22708408E+00 0.77377815E+03</pdfrwt>
<totfact> 0.36091346E+00</totfact>
</mgrwt>
</event>
<event>
 4    1  0.7629393E-008  0.1125535E+04  0.7818608E-02  0.9180655E-01
         -2   -1    0    0    0  501 -0.00000000000E+00  0.00000000000E+00  0.16443324899E+04  0.16443324899E+04  0.25500000000E-02 0.  1.
          2   -1    0    0  501    0  0.00000000000E+00 -0.00000000000E+00 -0.19639000687E+04  0.19639000687E+04  0.25500000000E-02 0. -1.
    8880022    1    1    2    0    0  0.11111895896E+04 -0.93250664916E+02  0.12466266627E+04  0.16795557983E+04  0.15294330000E+03 0.  0.
    8880022    1    1    2    0    0 -0.11111895896E+04  0.93250664916E+02 -0.15661942415E+04  0.19286767603E+04  0.15294330000E+03 0.  0.
<mgrwt>
<rscale>  0 0.11255353E+04</rscale>
<asrwt>0</asrwt>
<pdfrwt beam="1">  1        2 0.30213847E+00 0.11255353E+04</pdfrwt>
<pdfrwt beam="2">  1       -2 0.25297423E+00 0.11255353E+04</pdfrwt>
<totfact> 0.42399147E-01</totfact>
</mgrwt>
</event>
<event>
 4    1  0.6912310E-008  0.4073671E+03  0.7818608E-02  0.1041258E+00
         -2   -1    0    0    0  501 -0.00000000000E+00  0.00000000000E+00  0.49800340886E+03  0.49800340887E+03  0.25500000000E-02 0.  1.
          2   -1    0    0  501    0  0.00000000000E+00 -0.00000000000E+00 -0.73615923029E+03  0.73615923029E+03  0.25500000000E-02 0. -1.
    8880022    1    1    2    0    0  0.10834726846E+03  0.36168655609E+03 -0.57561154105E+03  0.70517841334E+03  0.15294330000E+03 0.  0.
    8880022    1    1    2    0    0 -0.10834726846E+03 -0.36168655609E+03  0.33745571962E+03  0.52898422582E+03  0.15294330000E+03 0.  0.
<mgrwt>
<rscale>  0 0.40736709E+03</rscale>
<asrwt>0</asrwt>
<pdfrwt beam="1">  1        2 0.11325527E+00 0.40736709E+03</pdfrwt>
<pdfrwt beam="2">  1       -2 0.76615909E-01 0.40736709E+03</pdfrwt>
<totfact> 0.61265178E+01</totfact>
</mgrwt>
</event>
<event>
 4    1  0.6912310E-008  0.6737883E+03  0.7818608E-02  0.9763138E-01
         -2   -1    0    0    0  501 -0.00000000000E+00  0.00000000000E+00  0.96791930143E+03  0.96791930143E+03  0.25500000000E-02 0.  1.
          2   -1    0    0  501    0  0.00000000000E+00 -0.00000000000E+00 -0.62753912463E+03  0.62753912463E+03  0.25500000000E-02 0. -1.
    8880022    1    1    2    0    0  0.54146430759E+03 -0.37069587041E+03  0.57110446329E+03  0.88326156134E+03  0.15294330000E+03 0.  0.
    8880022    1    1    2    0    0 -0.54146430759E+03  0.37069587041E+03 -0.23072428649E+03  0.71219686472E+03  0.15294330000E+03 0.  0.
<mgrwt>
<rscale>  0 0.67378830E+03</rscale>
<asrwt>0</asrwt>
<pdfrwt beam="1">  1        2 0.96544481E-01 0.67378830E+03</pdfrwt>
<pdfrwt beam="2">  1       -2 0.14891066E+00 0.67378830E+03</pdfrwt>
<totfact> 0.14668038E+01</totfact>
</mgrwt>
</event>
<event>
 4    1  0.6912310E-008  0.8983579E+03  0.7818608E-02  0.9427636E-01
         -2   -1    0    0    0  501 -0.00000000000E+00  0.00000000000E+00  0.66756062274E+03  0.66756062275E+03  0.25500000000E-02 0.  1.
          2   -1    0    0  501    0  0.00000000000E+00 -0.00000000000E+00 -0.22193424329E+04  0.22193424329E+04  0.25500000000E-02 0. -1.
    8880022    1    1    2    0    0 -0.12604652663E+03 -0.87622345868E+03 -0.17498377274E+04  0.19669720388E+04  0.15294330000E+03 0.  0.
    8880022    1    1    2    0    0  0.12604652663E+03  0.87622345868E+03  0.19805591718E+03  0.91993101685E+03  0.15294330000E+03 0.  0.
<mgrwt>
<rscale>  0 0.89835791E+03</rscale>
<asrwt>0</asrwt>
<pdfrwt beam="1">  1        2 0.34143729E+00 0.89835791E+03</pdfrwt>
<pdfrwt beam="2">  1       -2 0.10270164E+00 0.89835791E+03</pdfrwt>
<totfact> 0.39720728E+00</totfact>
</mgrwt>
</event>
<event>
 4    1  0.6912310E-008  0.2494384E+03  0.7818608E-02  0.1113660E+00
         -2   -1    0    0    0  501 -0.00000000000E+00  0.00000000000E+00  0.52212511225E+03  0.52212511226E+03  0.25500000000E-02 0.  1.
          2   -1    0    0  501    0  0.00000000000E+00 -0.00000000000E+00 -0.56460892563E+03  0.56460892564E+03  0.25500000000E-02 0. -1.
    8880022    1    1    2    0    0  0.98116512265E+02 -0.17088304817E+03  0.46138938559E+03  0.52449946070E+03  0.15294330000E+03 0.  1.
    8880022    1    1    2    0    0 -0.98116512265E+02  0.17088304817E+03 -0.50387319897E+03  0.56223457719E+03  0.15294330000E+03 0.  0.
<mgrwt>
<rscale>  0 0.24943841E+03</rscale>
<asrwt>0</asrwt>
<pdfrwt beam="1">  1        2 0.86862911E-01 0.24943841E+03</pdfrwt>
<pdfrwt beam="2">  1       -2 0.80326941E-01 0.24943841E+03</pdfrwt>
<totfact> 0.77673699E+01</totfact>
</mgrwt>
</event>
<event>
 4    1  0.6912310E-008  0.6822828E+03  0.7818608E-02  0.9748020E-01
          2   -1    0    0  501    0  0.00000000000E+00  0.00000000000E+00  0.40818098230E+04  0.40818098230E+04  0.25500000000E-02 0. -1.
         -2   -1    0    0    0  501 -0.00000000000E+00 -0.00000000000E+00 -0.22333993147E+03  0.22333993149E+03  0.25500000000E-02 0.  1.
    8880022    1    1    2    0    0 -0.62167944602E+03  0.23586625179E+03  0.34350621901E+04  0.35021653480E+04  0.15294330000E+03 0.  0.
    8880022    1    1    2    0    0  0.62167944602E+03 -0.23586625179E+03  0.42340770145E+03  0.80298440645E+03  0.15294330000E+03 0.  0.
<mgrwt>
<rscale>  0 0.68228284E+03</rscale>
<asrwt>0</asrwt>
<pdfrwt beam="1">  1        2 0.62797072E+00 0.68228284E+03</pdfrwt>
<pdfrwt beam="2">  1       -2 0.34359991E-01 0.68228284E+03</pdfrwt>
<totfact> 0.26294540E+00</totfact>
</mgrwt>
</event>
<event>
 4    1  0.6912310E-008  0.1128061E+04  0.7818608E-02  0.9178266E-01
          2   -1    0    0  501    0  0.00000000000E+00  0.00000000000E+00  0.26754961466E+04  0.26754961466E+04  0.25500000000E-02 0. -1.
         -2   -1    0    0    0  501 -0.00000000000E+00 -0.00000000000E+00 -0.11272012726E+04  0.11272012726E+04  0.25500000000E-02 0.  1.
    8880022    1    1    2    0    0  0.10153394321E+04 -0.46713491719E+03 -0.67144266303E+03  0.13127665809E+04  0.15294330000E+03 0.  0.
    8880022    1    1    2    0    0 -0.10153394321E+04  0.46713491719E+03  0.22197375370E+04  0.24899308383E+04  0.15294330000E+03 0.  0.
<mgrwt>
<rscale>  0 0.11280607E+04</rscale>
<asrwt>0</asrwt>
<pdfrwt beam="1">  1        2 0.41161479E+00 0.11280607E+04</pdfrwt>
<pdfrwt beam="2">  1       -2 0.17341558E+00 0.11280607E+04</pdfrwt>
<totfact> 0.54743176E-01</totfact>
</mgrwt>
</event>
<event>
 4    1  0.6912310E-008  0.9187157E+03  0.7818608E-02  0.9402484E-01
          2   -1    0    0  501    0  0.00000000000E+00  0.00000000000E+00  0.11146733781E+04  0.11146733781E+04  0.25500000000E-02 0. -1.
         -2   -1    0    0    0  501 -0.00000000000E+00 -0.00000000000E+00 -0.11588803562E+04  0.11588803562E+04  0.25500000000E-02 0.  1.
    8880022    1    1    2    0    0 -0.74910840195E+03 -0.50939513779E+03  0.64715278688E+03  0.11237638483E+04  0.15294330000E+03 0.  0.
    8880022    1    1    2    0    0  0.74910840195E+03  0.50939513779E+03 -0.69135976500E+03  0.11497898860E+04  0.15294330000E+03 0.  0.
<mgrwt>
<rscale>  0 0.91871566E+03</rscale>
<asrwt>0</asrwt>
<pdfrwt beam="1">  1        2 0.17148821E+00 0.91871566E+03</pdfrwt>
<pdfrwt beam="2">  1       -2 0.17828928E+00 0.91871566E+03</pdfrwt>
<totfact> 0.39777858E+00</totfact>
</mgrwt>
</event>
<event>
 4    1  0.6912310E-008  0.1068566E+04  0.7818608E-02  0.9236383E-01
         -2   -1    0    0    0  501 -0.00000000000E+00  0.00000000000E+00  0.14215694918E+04  0.14215694918E+04  0.25500000000E-02 0.  1.
          2   -1    0    0  501    0  0.00000000000E+00 -0.00000000000E+00 -0.14170417830E+04  0.14170417830E+04  0.25500000000E-02 0. -1.
    8880022    1    1    2    0    0  0.80559332036E+03 -0.68517232858E+03  0.93639030018E+03  0.14207956098E+04  0.15294330000E+03 0.  0.
    8880022    1    1    2    0    0 -0.80559332036E+03  0.68517232858E+03 -0.93186259137E+03  0.14178156650E+04  0.15294330000E+03 0.  0.
<mgrwt>
<rscale>  0 0.10685660E+04</rscale>
<asrwt>0</asrwt>
<pdfrwt beam="1">  1        2 0.21800643E+00 0.10685660E+04</pdfrwt>
<pdfrwt beam="2">  1       -2 0.21870300E+00 0.10685660E+04</pdfrwt>
<totfact> 0.14046752E+00</totfact>
</mgrwt>
</event>
<event>
 4    1  0.6912310E-008  0.6682322E+03  0.7818608E-02  0.9773157E-01
         -2   -1    0    0    0  501 -0.00000000000E+00  0.00000000000E+00  0.26868517626E+03  0.26868517627E+03  0.25500000000E-02 0.  1.
          2   -1    0    0  501    0  0.00000000000E+00 -0.00000000000E+00 -0.26728220225E+04  0.26728220225E+04  0.25500000000E-02 0. -1.
    8880022    1    1    2    0    0  0.12434020540E+03  0.63849988720E+03 -0.29756825764E+03  0.73149238793E+03  0.15294330000E+03 0.  1.
    8880022    1    1    2    0    0 -0.12434020540E+03 -0.63849988720E+03 -0.21065685886E+04  0.22100148108E+04  0.15294330000E+03 0.  0.
<mgrwt>
<rscale>  0 0.66823218E+03</rscale>
<asrwt>0</asrwt>
<pdfrwt beam="1">  1        2 0.41120337E+00 0.66823218E+03</pdfrwt>
<pdfrwt beam="2">  1       -2 0.41336183E-01 0.66823218E+03</pdfrwt>
<totfact> 0.16293396E+01</totfact>
</mgrwt>
</event>
<event>
 4    1  0.6912310E-008  0.2300249E+03  0.7818608E-02  0.1126622E+00
         -2   -1    0    0    0  501 -0.00000000000E+00  0.00000000000E+00  0.28704270888E+03  0.28704270890E+03  0.25500000000E-02 0.  1.
          2   -1    0    0  501    0  0.00000000000E+00 -0.00000000000E+00 -0.48189550961E+03  0.48189550962E+03  0.25500000000E-02 0. -1.
    8880022    1    1    2    0    0  0.72933407640E+02  0.15556514954E+03 -0.39954266069E+03  0.46102688471E+03  0.15294330000E+03 0. -1.
    8880022    1    1    2    0    0 -0.72933407640E+02 -0.15556514954E+03  0.20468985996E+03  0.30791133381E+03  0.15294330000E+03 0.  0.
<mgrwt>
<rscale>  0 0.23002489E+03</rscale>
<asrwt>0</asrwt>
<pdfrwt beam="1">  1        2 0.74137771E-01 0.23002489E+03</pdfrwt>
<pdfrwt beam="2">  1       -2 0.44160417E-01 0.23002489E+03</pdfrwt>
<totfact> 0.32213089E+02</totfact>
</mgrwt>
</event>
<event>
 4    1  0.6912310E-008  0.1111383E+04  0.7818608E-02  0.9194167E-01
         -2   -1    0    0    0  501 -0.00000000000E+00  0.00000000000E+00  0.58110889353E+03  0.58110889353E+03  0.25500000000E-02 0.  1.
          2   -1    0    0  501    0  0.00000000000E+00 -0.00000000000E+00 -0.33642372569E+04  0.33642372569E+04  0.25500000000E-02 0. -1.
    8880022    1    1    2    0    0  0.10091114184E+04  0.43985839618E+03 -0.19456576301E+03  0.11282857584E+04  0.15294330000E+03 0.  0.
    8880022    1    1    2    0    0 -0.10091114184E+04 -0.43985839618E+03 -0.25885626003E+04  0.28170603920E+04  0.15294330000E+03 0.  0.
<mgrwt>
<rscale>  0 0.11113833E+04</rscale>
<asrwt>0</asrwt>
<pdfrwt beam="1">  1        2 0.51757495E+00 0.11113833E+04</pdfrwt>
<pdfrwt beam="2">  1       -2 0.89401371E-01 0.11113833E+04</pdfrwt>
<totfact> 0.10952171E+00</totfact>
</mgrwt>
</event>
<event>
 4    1  0.6912310E-008  0.5565138E+03  0.7818608E-02  0.9999974E-01
          2   -1    0    0  501    0  0.00000000000E+00  0.00000000000E+00  0.30783227338E+04  0.30783227338E+04  0.25500000000E-02 0. -1.
         -2   -1    0    0    0  501 -0.00000000000E+00 -0.00000000000E+00 -0.15627823553E+03  0.15627823555E+03  0.25500000000E-02 0.  1.
    8880022    1    1    2    0    0  0.27153899751E+03  0.46106678985E+03  0.24262909356E+04  0.24892961593E+04  0.15294330000E+03 0.  0.
    8880022    1    1    2    0    0 -0.27153899751E+03 -0.46106678985E+03  0.49575356271E+03  0.74530481001E+03  0.15294330000E+03 0.  0.
<mgrwt>
<rscale>  0 0.55651385E+03</rscale>
<asrwt>0</asrwt>
<pdfrwt beam="1">  1        2 0.47358810E+00 0.55651385E+03</pdfrwt>
<pdfrwt beam="2">  1       -2 0.24042806E-01 0.55651385E+03</pdfrwt>
<totfact> 0.26285230E+01</totfact>
</mgrwt>
</event>
<event>
 4    1  0.6912310E-008  0.4003608E+03  0.7818608E-02  0.1043655E+00
         -2   -1    0    0    0  501 -0.00000000000E+00  0.00000000000E+00  0.13383004969E+03  0.13383004971E+03  0.25500000000E-02 0.  1.
          2   -1    0    0  501    0  0.00000000000E+00 -0.00000000000E+00 -0.15989028549E+04  0.15989028549E+04  0.25500000000E-02 0. -1.
    8880022    1    1    2    0    0 -0.95600725890E+02  0.35743192822E+03 -0.29855548311E+03  0.49942377958E+03  0.15294330000E+03 0.  0.
    8880022    1    1    2    0    0  0.95600725890E+02 -0.35743192822E+03 -0.11665173222E+04  0.12333091251E+04  0.15294330000E+03 0.  0.
<mgrwt>
<rscale>  0 0.40036076E+03</rscale>
<asrwt>0</asrwt>
<pdfrwt beam="1">  1        2 0.24598504E+00 0.40036076E+03</pdfrwt>
<pdfrwt beam="2">  1       -2 0.20589239E-01 0.40036076E+03</pdfrwt>
<totfact> 0.23818628E+02</totfact>
</mgrwt>
</event>
<event>
 4    1  0.6912310E-008  0.2393028E+03  0.7818608E-02  0.1120258E+00
         -2   -1    0    0    0  501 -0.00000000000E+00  0.00000000000E+00  0.61934710591E+02  0.61934710643E+02  0.25500000000E-02 0.  1.
          2   -1    0    0  501    0  0.00000000000E+00 -0.00000000000E+00 -0.99895984960E+03  0.99895984960E+03  0.25500000000E-02 0. -1.
    8880022    1    1    2    0    0 -0.16286570596E+03  0.85726016905E+02 -0.61321970345E+03  0.65825849472E+03  0.15294330000E+03 0.  0.
    8880022    1    1    2    0    0  0.16286570596E+03 -0.85726016905E+02 -0.32380543555E+03  0.40263606552E+03  0.15294330000E+03 0.  0.
<mgrwt>
<rscale>  0 0.23930282E+03</rscale>
<asrwt>0</asrwt>
<pdfrwt beam="1">  1        2 0.15368612E+00 0.23930282E+03</pdfrwt>
<pdfrwt beam="2">  1       -2 0.95284177E-02 0.23930282E+03</pdfrwt>
<totfact> 0.18828049E+03</totfact>
</mgrwt>
</event>
<event>
 4    1  0.6912310E-008  0.1109815E+04  0.7818608E-02  0.9195678E-01
         -2   -1    0    0    0  501 -0.00000000000E+00  0.00000000000E+00  0.45377307788E+03  0.45377307788E+03  0.25500000000E-02 0.  1.
          2   -1    0    0  501    0  0.00000000000E+00 -0.00000000000E+00 -0.28186067520E+04  0.28186067520E+04  0.25500000000E-02 0. -1.
    8880022    1    1    2    0    0  0.10787188180E+04  0.21133570670E+03 -0.86770322981E+03  0.14087574729E+04  0.15294330000E+03 0.  0.
    8880022    1    1    2    0    0 -0.10787188180E+04 -0.21133570670E+03 -0.14971304444E+04  0.18636223571E+04  0.15294330000E+03 0.  0.
<mgrwt>
<rscale>  0 0.11098147E+04</rscale>
<asrwt>0</asrwt>
<pdfrwt beam="1">  1        2 0.43363180E+00 0.11098147E+04</pdfrwt>
<pdfrwt beam="2">  1       -2 0.69811245E-01 0.11098147E+04</pdfrwt>
<totfact> 0.42258221E+00</totfact>
</mgrwt>
</event>
<event>
 4    1  0.6912310E-008  0.9759264E+03  0.7818608E-02  0.9335350E-01
         -2   -1    0    0    0  501 -0.00000000000E+00  0.00000000000E+00  0.42279852075E+03  0.42279852076E+03  0.25500000000E-02 0.  1.
          2   -1    0    0  501    0  0.00000000000E+00 -0.00000000000E+00 -0.22771866562E+04  0.22771866562E+04  0.25500000000E-02 0. -1.
    8880022    1    1    2    0    0  0.48463098539E+03  0.83317075142E+03 -0.10672237621E+04  0.14461669698E+04  0.15294330000E+03 0.  0.
    8880022    1    1    2    0    0 -0.48463098539E+03 -0.83317075142E+03 -0.78716437334E+03  0.12538182072E+04  0.15294330000E+03 0.  0.
<mgrwt>
<rscale>  0 0.97592640E+03</rscale>
<asrwt>0</asrwt>
<pdfrwt beam="1">  1        2 0.35033640E+00 0.97592640E+03</pdfrwt>
<pdfrwt beam="2">  1       -2 0.65045927E-01 0.97592640E+03</pdfrwt>
<totfact> 0.10286827E+01</totfact>
</mgrwt>
</event>
<event>
 4    1  0.6912310E-008  0.6468346E+03  0.7818608E-02  0.9812737E-01
         -2   -1    0    0    0  501 -0.00000000000E+00  0.00000000000E+00  0.35951860552E+03  0.35951860553E+03  0.25500000000E-02 0.  1.
          2   -1    0    0  501    0  0.00000000000E+00 -0.00000000000E+00 -0.17871503227E+04  0.17871503227E+04  0.25500000000E-02 0. -1.
    8880022    1    1    2    0    0  0.62793111959E+03  0.26567598242E+02 -0.79897978057E+02  0.65175046463E+03  0.15294330000E+03 0.  0.
    8880022    1    1    2    0    0 -0.62793111959E+03 -0.26567598242E+02 -0.13477337392E+04  0.14949184636E+04  0.15294330000E+03 0.  0.
<mgrwt>
<rscale>  0 0.64683459E+03</rscale>
<asrwt>0</asrwt>
<pdfrwt beam="1">  1        2 0.27494620E+00 0.64683459E+03</pdfrwt>
<pdfrwt beam="2">  1       -2 0.55310556E-01 0.64683459E+03</pdfrwt>
<totfact> 0.28115051E+01</totfact>
</mgrwt>
</event>
<event>
 4    1  0.6912310E-008  0.1025490E+04  0.7818608E-02  0.9281022E-01
         -2   -1    0    0    0  501 -0.00000000000E+00  0.00000000000E+00  0.22933863241E+04  0.22933863241E+04  0.25500000000E-02 0.  1.
          2   -1    0    0  501    0  0.00000000000E+00 -0.00000000000E+00 -0.59066278792E+03  0.59066278793E+03  0.25500000000E-02 0. -1.
    8880022    1    1    2    0    0  0.24999171953E+03 -0.98272154915E+03  0.15333510223E+04  0.18446665047E+04  0.15294330000E+03 0.  0.
    8880022    1    1    2    0    0 -0.24999171953E+03  0.98272154915E+03  0.16937251394E+03  0.10393826074E+04  0.15294330000E+03 0.  0.
<mgrwt>
<rscale>  0 0.10254897E+04</rscale>
<asrwt>0</asrwt>
<pdfrwt beam="1">  1        2 0.90871202E-01 0.10254897E+04</pdfrwt>
<pdfrwt beam="2">  1       -2 0.35282865E+00 0.10254897E+04</pdfrwt>
<totfact> 0.76267011E-01</totfact>
</mgrwt>
</event>
<event>
 4    1  0.6912310E-008  0.6098856E+03  0.7818608E-02  0.9885106E-01
         -2   -1    0    0    0  501 -0.00000000000E+00  0.00000000000E+00  0.41778025781E+03  0.41778025782E+03  0.25500000000E-02 0.  1.
          2   -1    0    0  501    0  0.00000000000E+00 -0.00000000000E+00 -0.15118418328E+04  0.15118418328E+04  0.25500000000E-02 0. -1.
    8880022    1    1    2    0    0 -0.16401899153E+03 -0.56715660894E+03  0.71576867249E+02  0.61407145317E+03  0.15294330000E+03 0.  0.
    8880022    1    1    2    0    0  0.16401899153E+03  0.56715660894E+03 -0.11656384422E+04  0.13155506374E+04  0.15294330000E+03 0.  0.
<mgrwt>
<rscale>  0 0.60988565E+03</rscale>
<asrwt>0</asrwt>
<pdfrwt beam="1">  1        2 0.23259105E+00 0.60988565E+03</pdfrwt>
<pdfrwt beam="2">  1       -2 0.64273886E-01 0.60988565E+03</pdfrwt>
<totfact> 0.29134946E+01</totfact>
</mgrwt>
</event>
<event>
 4    1  0.6912310E-008  0.8190637E+03  0.7818608E-02  0.9532826E-01
         -2   -1    0    0    0  501 -0.00000000000E+00  0.00000000000E+00  0.64237057549E+03  0.64237057549E+03  0.25500000000E-02 0.  1.
          2   -1    0    0  501    0  0.00000000000E+00 -0.00000000000E+00 -0.13495350404E+04  0.13495350404E+04  0.25500000000E-02 0. -1.
    8880022    1    1    2    0    0 -0.79681794739E+03  0.11204849936E+03  0.12002905045E+03  0.82781177417E+03  0.15294330000E+03 0.  0.
    8880022    1    1    2    0    0  0.79681794739E+03 -0.11204849936E+03 -0.82719351540E+03  0.11640938418E+04  0.15294330000E+03 0.  0.
<mgrwt>
<rscale>  0 0.81906371E+03</rscale>
<asrwt>0</asrwt>
<pdfrwt beam="1">  1        2 0.20762077E+00 0.81906371E+03</pdfrwt>
<pdfrwt beam="2">  1       -2 0.98826243E-01 0.81906371E+03</pdfrwt>
<totfact> 0.13317604E+01</totfact>
</mgrwt>
</event>
<event>
 4    1  0.6912310E-008  0.9858874E+03  0.7818608E-02  0.9324160E-01
          2   -1    0    0  501    0  0.00000000000E+00  0.00000000000E+00  0.27521677231E+04  0.27521677231E+04  0.25500000000E-02 0. -1.
         -2   -1    0    0    0  501 -0.00000000000E+00 -0.00000000000E+00 -0.42709987120E+03  0.42709987120E+03  0.25500000000E-02 0.  1.
    8880022    1    1    2    0    0  0.80824225458E+03  0.54343972044E+03  0.18239155240E+04  0.20733166096E+04  0.15294330000E+03 0.  0.
    8880022    1    1    2    0    0 -0.80824225458E+03 -0.54343972044E+03  0.50115232789E+03  0.11059509847E+04  0.15294330000E+03 0.  0.
<mgrwt>
<rscale>  0 0.98588738E+03</rscale>
<asrwt>0</asrwt>
<pdfrwt beam="1">  1        2 0.42341041E+00 0.98588738E+03</pdfrwt>
<pdfrwt beam="2">  1       -2 0.65707674E-01 0.98588738E+03</pdfrwt>
<totfact> 0.53685811E+00</totfact>
</mgrwt>
</event>
<event>
 4    1  0.6912310E-008  0.5321965E+03  0.7818608E-02  0.1005701E+00
         -2   -1    0    0    0  501 -0.00000000000E+00  0.00000000000E+00  0.11900354611E+04  0.11900354611E+04  0.25500000000E-02 0.  1.
          2   -1    0    0  501    0  0.00000000000E+00 -0.00000000000E+00 -0.13317099696E+04  0.13317099696E+04  0.25500000000E-02 0. -1.
    8880022    1    1    2    0    0 -0.50604958494E+03  0.61280077260E+02 -0.12134964844E+04  0.13250686024E+04  0.15294330000E+03 0. -1.
    8880022    1    1    2    0    0  0.50604958494E+03 -0.61280077260E+02  0.10718219760E+04  0.11966768283E+04  0.15294330000E+03 0.  0.
<mgrwt>
<rscale>  0 0.53219647E+03</rscale>
<asrwt>0</asrwt>
<pdfrwt beam="1">  1        2 0.20487846E+00 0.53219647E+03</pdfrwt>
<pdfrwt beam="2">  1       -2 0.18308238E+00 0.53219647E+03</pdfrwt>
<totfact> 0.29292870E+00</totfact>
</mgrwt>
</event>
<event>
 4    1  0.6912310E-008  0.5042931E+03  0.7818608E-02  0.1012664E+00
         -2   -1    0    0    0  501 -0.00000000000E+00  0.00000000000E+00  0.78960340702E+03  0.78960340703E+03  0.25500000000E-02 0.  1.
          2   -1    0    0  501    0  0.00000000000E+00 -0.00000000000E+00 -0.96849502337E+03  0.96849502337E+03  0.25500000000E-02 0. -1.
    8880022    1    1    2    0    0  0.47877117505E+03  0.41207282406E+02 -0.80760692608E+03  0.95212419266E+03  0.15294330000E+03 0.  0.
    8880022    1    1    2    0    0 -0.47877117505E+03 -0.41207282406E+02  0.62871530974E+03  0.80597423774E+03  0.15294330000E+03 0.  0.
<mgrwt>
<rscale>  0 0.50429310E+03</rscale>
<asrwt>0</asrwt>
<pdfrwt beam="1">  1        2 0.14899923E+00 0.50429310E+03</pdfrwt>
<pdfrwt beam="2">  1       -2 0.12147745E+00 0.50429310E+03</pdfrwt>
<totfact> 0.14290953E+01</totfact>
</mgrwt>
</event>
<event>
 4    1  0.6912310E-008  0.1353129E+04  0.7818608E-02  0.8988463E-01
         -2   -1    0    0    0  501 -0.00000000000E+00  0.00000000000E+00  0.74365424636E+03  0.74365424637E+03  0.25500000000E-02 0.  1.
          2   -1    0    0  501    0  0.00000000000E+00 -0.00000000000E+00 -0.35709547887E+04  0.35709547887E+04  0.25500000000E-02 0. -1.
    8880022    1    1    2    0    0 -0.13124277570E+04  0.29171696371E+03 -0.21151026111E+03  0.13695596547E+04  0.15294330000E+03 0.  0.
    8880022    1    1    2    0    0  0.13124277570E+04 -0.29171696371E+03 -0.26157902813E+04  0.29450493804E+04  0.15294330000E+03 0.  0.
<mgrwt>
<rscale>  0 0.13531286E+04</rscale>
<asrwt>0</asrwt>
<pdfrwt beam="1">  1        2 0.54937765E+00 0.13531286E+04</pdfrwt>
<pdfrwt beam="2">  1       -2 0.11440835E+00 0.13531286E+04</pdfrwt>
<totfact> 0.42312507E-01</totfact>
</mgrwt>
</event>
<event>
 4    1  0.6912310E-008  0.5536290E+03  0.7818608E-02  0.1000657E+00
          2   -1    0    0  501    0  0.00000000000E+00  0.00000000000E+00  0.12460498395E+04  0.12460498395E+04  0.25500000000E-02 0. -1.
         -2   -1    0    0    0  501 -0.00000000000E+00 -0.00000000000E+00 -0.31047986450E+03  0.31047986451E+03  0.25500000000E-02 0.  1.
    8880022    1    1    2    0    0 -0.22833026416E+03  0.48060242375E+03  0.11306515495E+03  0.56505644100E+03  0.15294330000E+03 0.  0.
    8880022    1    1    2    0    0  0.22833026416E+03 -0.48060242375E+03  0.82250482001E+03  0.99147326298E+03  0.15294330000E+03 0.  0.
<mgrwt>
<rscale>  0 0.55362898E+03</rscale>
<asrwt>0</asrwt>
<pdfrwt beam="1">  1        2 0.19169998E+00 0.55362898E+03</pdfrwt>
<pdfrwt beam="2">  1       -2 0.47766133E-01 0.55362898E+03</pdfrwt>
<totfact> 0.76615750E+01</totfact>
</mgrwt>
</event>
<event>
 4    1  0.6912310E-008  0.2431317E+03  0.7818608E-02  0.1117724E+00
         -2   -1    0    0    0  501 -0.00000000000E+00  0.00000000000E+00  0.59745100120E+03  0.59745100120E+03  0.25500000000E-02 0.  1.
          2   -1    0    0  501    0  0.00000000000E+00 -0.00000000000E+00 -0.60079423495E+03  0.60079423495E+03  0.25500000000E-02 0. -1.
    8880022    1    1    2    0    0  0.19474676058E+02  0.18799496623E+03 -0.54924300762E+03  0.60065040146E+03  0.15294330000E+03 0.  0.
    8880022    1    1    2    0    0 -0.19474676058E+02 -0.18799496623E+03  0.54589977387E+03  0.59759483470E+03  0.15294330000E+03 0.  1.
<mgrwt>
<rscale>  0 0.24313170E+03</rscale>
<asrwt>0</asrwt>
<pdfrwt beam="1">  1        2 0.92429882E-01 0.24313170E+03</pdfrwt>
<pdfrwt beam="2">  1       -2 0.91915539E-01 0.24313170E+03</pdfrwt>
<totfact> 0.53486434E+01</totfact>
</mgrwt>
</event>
<event>
 4    1  0.6912310E-008  0.8150793E+03  0.7818608E-02  0.9538443E-01
          2   -1    0    0  501    0  0.00000000000E+00  0.00000000000E+00  0.30593055578E+04  0.30593055578E+04  0.25500000000E-02 0. -1.
         -2   -1    0    0    0  501 -0.00000000000E+00 -0.00000000000E+00 -0.40228917014E+03  0.40228917015E+03  0.25500000000E-02 0.  1.
    8880022    1    1    2    0    0 -0.34961574934E+03  0.72023008236E+03  0.15437803207E+03  0.82957023423E+03  0.15294330000E+03 0.  0.
    8880022    1    1    2    0    0  0.34961574934E+03 -0.72023008236E+03  0.25026383556E+04  0.26320244938E+04  0.15294330000E+03 0.  0.
<mgrwt>
<rscale>  0 0.81507926E+03</rscale>
<asrwt>0</asrwt>
<pdfrwt beam="1">  1        2 0.47066240E+00 0.81507926E+03</pdfrwt>
<pdfrwt beam="2">  1       -2 0.61890640E-01 0.81507926E+03</pdfrwt>
<totfact> 0.40882373E+00</totfact>
</mgrwt>
</event>
<event>
 4    1  0.6912310E-008  0.1105487E+04  0.7818608E-02  0.9199860E-01
         -2   -1    0    0    0  501 -0.00000000000E+00  0.00000000000E+00  0.56284850463E+03  0.56284850464E+03  0.25500000000E-02 0.  1.
          2   -1    0    0  501    0  0.00000000000E+00 -0.00000000000E+00 -0.25482116063E+04  0.25482116063E+04  0.25500000000E-02 0. -1.
    8880022    1    1    2    0    0 -0.80845254275E+03  0.73831897487E+03 -0.15909437410E+04  0.19373187819E+04  0.15294330000E+03 0.  0.
    8880022    1    1    2    0    0  0.80845254275E+03 -0.73831897487E+03 -0.39441936068E+03  0.11737413291E+04  0.15294330000E+03 0.  0.
<mgrwt>
<rscale>  0 0.11054873E+04</rscale>
<asrwt>0</asrwt>
<pdfrwt beam="1">  1        2 0.39203255E+00 0.11054873E+04</pdfrwt>
<pdfrwt beam="2">  1       -2 0.86592079E-01 0.11054873E+04</pdfrwt>
<totfact> 0.37572623E+00</totfact>
</mgrwt>
</event>
<event>
 4    1  0.6912310E-008  0.4191725E+03  0.7818608E-02  0.1037336E+00
          2   -1    0    0  501    0  0.00000000000E+00  0.00000000000E+00  0.23937816608E+04  0.23937816608E+04  0.25500000000E-02 0. -1.
         -2   -1    0    0    0  501 -0.00000000000E+00 -0.00000000000E+00 -0.58061487932E+03  0.58061487933E+03  0.25500000000E-02 0.  1.
    8880022    1    1    2    0    0  0.37134033694E+03 -0.12008436274E+03 -0.48343462673E+03  0.63985513309E+03  0.15294330000E+03 0.  0.
    8880022    1    1    2    0    0 -0.37134033694E+03  0.12008436274E+03  0.22966014082E+04  0.23345414070E+04  0.15294330000E+03 0. -1.
<mgrwt>
<rscale>  0 0.41917246E+03</rscale>
<asrwt>0</asrwt>
<pdfrwt beam="1">  1        2 0.36827410E+00 0.41917246E+03</pdfrwt>
<pdfrwt beam="2">  1       -2 0.89325366E-01 0.41917246E+03</pdfrwt>
<totfact> 0.48839789E+00</totfact>
</mgrwt>
</event>
<event>
 4    1  0.6912310E-008  0.4415165E+03  0.7818608E-02  0.1030283E+00
         -2   -1    0    0    0  501 -0.00000000000E+00  0.00000000000E+00  0.18855610436E+04  0.18855610436E+04  0.25500000000E-02 0.  1.
          2   -1    0    0  501    0  0.00000000000E+00 -0.00000000000E+00 -0.37073650017E+03  0.37073650018E+03  0.25500000000E-02 0. -1.
    8880022    1    1    2    0    0  0.11960464955E+03  0.39653486839E+03  0.17154350471E+04  0.17713424931E+04  0.15294330000E+03 0.  0.
    8880022    1    1    2    0    0 -0.11960464955E+03 -0.39653486839E+03 -0.20061050363E+03  0.48495505072E+03  0.15294330000E+03 0.  0.
<mgrwt>
<rscale>  0 0.44151651E+03</rscale>
<asrwt>0</asrwt>
<pdfrwt beam="1">  1        2 0.57036385E-01 0.44151651E+03</pdfrwt>
<pdfrwt beam="2">  1       -2 0.29008631E+00 0.44151651E+03</pdfrwt>
<totfact> 0.34754189E+00</totfact>
</mgrwt>
</event>
<event>
 4    1  0.6912310E-008  0.9752018E+03  0.7818608E-02  0.9336169E-01
          2   -1    0    0  501    0  0.00000000000E+00  0.00000000000E+00  0.16409954479E+04  0.16409954479E+04  0.25500000000E-02 0. -1.
         -2   -1    0    0    0  501 -0.00000000000E+00 -0.00000000000E+00 -0.70552081174E+03  0.70552081175E+03  0.25500000000E-02 0.  1.
    8880022    1    1    2    0    0  0.85614773475E+03 -0.44117793802E+03  0.96352415134E+03  0.13709111423E+04  0.15294330000E+03 0.  0.
    8880022    1    1    2    0    0 -0.85614773475E+03  0.44117793802E+03 -0.28049515215E+02  0.97560511737E+03  0.15294330000E+03 0.  0.
<mgrwt>
<rscale>  0 0.97520181E+03</rscale>
<asrwt>0</asrwt>
<pdfrwt beam="1">  1        2 0.25246083E+00 0.97520181E+03</pdfrwt>
<pdfrwt beam="2">  1       -2 0.10854167E+00 0.97520181E+03</pdfrwt>
<totfact> 0.71688486E+00</totfact>
</mgrwt>
</event>
<event>
 4    1  0.1012681E-007  0.8654939E+03  0.7818608E-02  0.9469774E-01
          2   -1    0    0  501    0  0.00000000000E+00  0.00000000000E+00  0.29868670331E+04  0.29868670331E+04  0.25500000000E-02 0. -1.
         -2   -1    0    0    0  501 -0.00000000000E+00 -0.00000000000E+00 -0.81891664060E+03  0.81891664060E+03  0.25500000000E-02 0.  1.
    8880022    1    1    2    0    0 -0.27473957054E+03  0.80635364761E+03  0.26689282728E+04  0.28057544110E+04  0.15294330000E+03 0.  0.
    8880022    1    1    2    0    0  0.27473957054E+03 -0.80635364761E+03 -0.50097788030E+03  0.10000292627E+04  0.15294330000E+03 0.  0.
<mgrwt>
<rscale>  0 0.86549390E+03</rscale>
<asrwt>0</asrwt>
<pdfrwt beam="1">  1        2 0.45951801E+00 0.86549390E+03</pdfrwt>
<pdfrwt beam="2">  1       -2 0.12598718E+00 0.86549390E+03</pdfrwt>
<totfact> 0.86943400E-01</totfact>
</mgrwt>
</event>
<event>
 4    1  0.6912310E-008  0.1124698E+04  0.7818608E-02  0.9181448E-01
          2   -1    0    0  501    0  0.00000000000E+00  0.00000000000E+00  0.92815852110E+03  0.92815852111E+03  0.25500000000E-02 0. -1.
         -2   -1    0    0    0  501 -0.00000000000E+00 -0.00000000000E+00 -0.19034907903E+04  0.19034907903E+04  0.25500000000E-02 0.  1.
    8880022    1    1    2    0    0 -0.73878969205E+03  0.83411302330E+03 -0.12422127596E+04  0.16757204235E+04  0.15294330000E+03 0.  0.
    8880022    1    1    2    0    0  0.73878969205E+03 -0.83411302330E+03  0.26688049038E+03  0.11559288879E+04  0.15294330000E+03 0.  0.
<mgrwt>
<rscale>  0 0.11246984E+04</rscale>
<asrwt>0</asrwt>
<pdfrwt beam="1">  1        2 0.14279362E+00 0.11246984E+04</pdfrwt>
<pdfrwt beam="2">  1       -2 0.29284474E+00 0.11246984E+04</pdfrwt>
<totfact> 0.97394385E-01</totfact>
</mgrwt>
</event>
<event>
 4    1  0.6912310E-008  0.7840098E+03  0.7818608E-02  0.9583455E-01
          2   -1    0    0  501    0  0.00000000000E+00  0.00000000000E+00  0.25697265899E+04  0.25697265899E+04  0.25500000000E-02 0. -1.
         -2   -1    0    0    0  501 -0.00000000000E+00 -0.00000000000E+00 -0.37400707310E+03  0.37400707311E+03  0.25500000000E-02 0.  1.
    8880022    1    1    2    0    0  0.63070493076E+03 -0.43987613492E+03  0.19815284710E+04  0.21309918954E+04  0.15294330000E+03 0.  0.
    8880022    1    1    2    0    0 -0.63070493076E+03  0.43987613492E+03  0.21419104583E+03  0.81274176765E+03  0.15294330000E+03 0.  0.
<mgrwt>
<rscale>  0 0.78400981E+03</rscale>
<asrwt>0</asrwt>
<pdfrwt beam="1">  1        2 0.39534253E+00 0.78400981E+03</pdfrwt>
<pdfrwt beam="2">  1       -2 0.57539552E-01 0.78400981E+03</pdfrwt>
<totfact> 0.93704228E+00</totfact>
</mgrwt>
</event>
<event>
 4    1  0.6912310E-008  0.4954541E+03  0.7818608E-02  0.1014972E+00
         -2   -1    0    0    0  501 -0.00000000000E+00  0.00000000000E+00  0.26832769924E+03  0.26832769926E+03  0.25500000000E-02 0.  1.
          2   -1    0    0  501    0  0.00000000000E+00 -0.00000000000E+00 -0.20403718713E+04  0.20403718713E+04  0.25500000000E-02 0. -1.
    8880022    1    1    2    0    0  0.17942102532E+02  0.47091524978E+03 -0.28662081535E+02  0.49628243919E+03  0.15294330000E+03 0.  0.
    8880022    1    1    2    0    0 -0.17942102532E+02 -0.47091524978E+03 -0.17433820906E+04  0.18124171314E+04  0.15294330000E+03 0.  0.
<mgrwt>
<rscale>  0 0.49545408E+03</rscale>
<asrwt>0</asrwt>
<pdfrwt beam="1">  1        2 0.31390335E+00 0.49545408E+03</pdfrwt>
<pdfrwt beam="2">  1       -2 0.41281186E-01 0.49545408E+03</pdfrwt>
<totfact> 0.37890656E+01</totfact>
</mgrwt>
</event>
<event>
 4    1  0.6912310E-008  0.5441682E+03  0.7818608E-02  0.1002853E+00
          2   -1    0    0  501    0  0.00000000000E+00  0.00000000000E+00  0.66433924041E+03  0.66433924041E+03  0.25500000000E-02 0. -1.
         -2   -1    0    0    0  501 -0.00000000000E+00 -0.00000000000E+00 -0.61915219412E+03  0.61915219413E+03  0.25500000000E-02 0.  1.
    8880022    1    1    2    0    0  0.11102199891E+02 -0.52211500737E+03 -0.31704022331E+03  0.62978845335E+03  0.15294330000E+03 0.  0.
    8880022    1    1    2    0    0 -0.11102199891E+02  0.52211500737E+03  0.36222726959E+03  0.65370298119E+03  0.15294330000E+03 0.  0.
<mgrwt>
<rscale>  0 0.54416817E+03</rscale>
<asrwt>0</asrwt>
<pdfrwt beam="1">  1        2 0.10220604E+00 0.54416817E+03</pdfrwt>
<pdfrwt beam="2">  1       -2 0.95254184E-01 0.54416817E+03</pdfrwt>
<totfact> 0.41821131E+01</totfact>
</mgrwt>
</event>
<event>
 4    1  0.6912310E-008  0.7214958E+03  0.7818608E-02  0.9681162E-01
         -2   -1    0    0    0  501 -0.00000000000E+00  0.00000000000E+00  0.31164764211E+03  0.31164764212E+03  0.25500000000E-02 0.  1.
          2   -1    0    0  501    0  0.00000000000E+00 -0.00000000000E+00 -0.27068742536E+04  0.27068742536E+04  0.25500000000E-02 0. -1.
    8880022    1    1    2    0    0  0.59071051017E+03 -0.38500083729E+03 -0.26366463278E+03  0.76816355234E+03  0.15294330000E+03 0.  0.
    8880022    1    1    2    0    0 -0.59071051017E+03  0.38500083729E+03 -0.21315619787E+04  0.22503583434E+04  0.15294330000E+03 0.  0.
<mgrwt>
<rscale>  0 0.72149581E+03</rscale>
<asrwt>0</asrwt>
<pdfrwt beam="1">  1        2 0.41644218E+00 0.72149581E+03</pdfrwt>
<pdfrwt beam="2">  1       -2 0.47945793E-01 0.72149581E+03</pdfrwt>
<totfact> 0.11482282E+01</totfact>
</mgrwt>
</event>
<event>
 4    1  0.6912310E-008  0.3229265E+03  0.7818608E-02  0.1074310E+00
          2   -1    0    0  501    0  0.00000000000E+00  0.00000000000E+00  0.26200755022E+04  0.26200755022E+04  0.25500000000E-02 0. -1.
         -2   -1    0    0    0  501 -0.00000000000E+00 -0.00000000000E+00 -0.23508322186E+03  0.23508322188E+03  0.25500000000E-02 0.  1.
    8880022    1    1    2    0    0  0.19053576738E+02 -0.28377245903E+03  0.24936266200E+04  0.25144492876E+04  0.15294330000E+03 0.  0.
    8880022    1    1    2    0    0 -0.19053576738E+02  0.28377245903E+03 -0.10863433966E+03  0.34070943641E+03  0.15294330000E+03 0.  0.
<mgrwt>
<rscale>  0 0.32292646E+03</rscale>
<asrwt>0</asrwt>
<pdfrwt beam="1">  1        2 0.40308855E+00 0.32292646E+03</pdfrwt>
<pdfrwt beam="2">  1       -2 0.36166649E-01 0.32292646E+03</pdfrwt>
<totfact> 0.24649575E+01</totfact>
</mgrwt>
</event>
<event>
 4    1  0.6912310E-008  0.3198598E+03  0.7818608E-02  0.1075714E+00
         -2   -1    0    0    0  501 -0.00000000000E+00  0.00000000000E+00  0.20227265894E+03  0.20227265896E+03  0.25500000000E-02 0.  1.
          2   -1    0    0  501    0  0.00000000000E+00 -0.00000000000E+00 -0.78936984211E+03  0.78936984212E+03  0.25500000000E-02 0. -1.
    8880022    1    1    2    0    0 -0.27475034735E+03  0.58573611937E+02 -0.59072340694E+03  0.67176217361E+03  0.15294330000E+03 0.  0.
    8880022    1    1    2    0    0  0.27475034735E+03 -0.58573611937E+02  0.36262237663E+01  0.31988032746E+03  0.15294330000E+03 0.  0.
<mgrwt>
<rscale>  0 0.31985977E+03</rscale>
<asrwt>0</asrwt>
<pdfrwt beam="1">  1        2 0.12144151E+00 0.31985977E+03</pdfrwt>
<pdfrwt beam="2">  1       -2 0.31118871E-01 0.31985977E+03</pdfrwt>
<totfact> 0.34613404E+02</totfact>
</mgrwt>
</event>
<event>
 4    1  0.6912310E-008  0.3116381E+03  0.7818608E-02  0.1079563E+00
         -2   -1    0    0    0  501 -0.00000000000E+00  0.00000000000E+00  0.10371990370E+03  0.10371990373E+03  0.25500000000E-02 0.  1.
          2   -1    0    0  501    0  0.00000000000E+00 -0.00000000000E+00 -0.18194125605E+04  0.18194125605E+04  0.25500000000E-02 0. -1.
    8880022    1    1    2    0    0 -0.24972414944E+03  0.10660443251E+03 -0.18794795126E+03  0.36392683501E+03  0.15294330000E+03 0.  1.
    8880022    1    1    2    0    0  0.24972414944E+03 -0.10660443251E+03 -0.15277447056E+04  0.15592056292E+04  0.15294330000E+03 0.  0.
<mgrwt>
<rscale>  0 0.31163811E+03</rscale>
<asrwt>0</asrwt>
<pdfrwt beam="1">  1        2 0.27990960E+00 0.31163811E+03</pdfrwt>
<pdfrwt beam="2">  1       -2 0.15956910E-01 0.31163811E+03</pdfrwt>
<totfact> 0.28457698E+02</totfact>
</mgrwt>
</event>
<event>
 4    1  0.6912310E-008  0.5168615E+03  0.7818608E-02  0.1009469E+00
          2   -1    0    0  501    0  0.00000000000E+00  0.00000000000E+00  0.66498989784E+03  0.66498989785E+03  0.25500000000E-02 0. -1.
         -2   -1    0    0    0  501 -0.00000000000E+00 -0.00000000000E+00 -0.52167721389E+03  0.52167721390E+03  0.25500000000E-02 0.  1.
    8880022    1    1    2    0    0 -0.49355974812E+03 -0.12364554467E+02  0.35616453547E+03  0.62769334592E+03  0.15294330000E+03 0. -1.
    8880022    1    1    2    0    0  0.49355974812E+03  0.12364554467E+02 -0.21285185152E+03  0.55897376583E+03  0.15294330000E+03 0.  0.
<mgrwt>
<rscale>  0 0.51686145E+03</rscale>
<asrwt>0</asrwt>
<pdfrwt beam="1">  1        2 0.10230614E+00 0.51686145E+03</pdfrwt>
<pdfrwt beam="2">  1       -2 0.80258033E-01 0.51686145E+03</pdfrwt>
<totfact> 0.61915722E+01</totfact>
</mgrwt>
</event>
<event>
 4    1  0.6912310E-008  0.6242502E+03  0.7818608E-02  0.9856334E-01
         -2   -1    0    0    0  501 -0.00000000000E+00  0.00000000000E+00  0.33175435721E+03  0.33175435722E+03  0.25500000000E-02 0.  1.
          2   -1    0    0  501    0  0.00000000000E+00 -0.00000000000E+00 -0.21531445045E+04  0.21531445045E+04  0.25500000000E-02 0. -1.
    8880022    1    1    2    0    0 -0.34032561682E+03 -0.50047485663E+03 -0.73115635532E+02  0.62851742757E+03  0.15294330000E+03 0.  0.
    8880022    1    1    2    0    0  0.34032561682E+03  0.50047485663E+03 -0.17482745118E+04  0.18563814342E+04  0.15294330000E+03 0.  0.
<mgrwt>
<rscale>  0 0.62425016E+03</rscale>
<asrwt>0</asrwt>
<pdfrwt beam="1">  1        2 0.33125299E+00 0.62425016E+03</pdfrwt>
<pdfrwt beam="2">  1       -2 0.51039133E-01 0.62425016E+03</pdfrwt>
<totfact> 0.21059893E+01</totfact>
</mgrwt>
</event>
<event>
 4    1  0.6912310E-008  0.2544029E+03  0.7818608E-02  0.1110554E+00
         -2   -1    0    0    0  501 -0.00000000000E+00  0.00000000000E+00  0.17534239023E+03  0.17534239025E+03  0.25500000000E-02 0.  1.
          2   -1    0    0  501    0  0.00000000000E+00 -0.00000000000E+00 -0.64233750256E+03  0.64233750256E+03  0.25500000000E-02 0. -1.
    8880022    1    1    2    0    0  0.17928534739E+03 -0.95843272480E+02  0.33147182743E+02  0.25655322529E+03  0.15294330000E+03 0.  1.
    8880022    1    1    2    0    0 -0.17928534739E+03  0.95843272480E+02 -0.50014229507E+03  0.56112666752E+03  0.15294330000E+03 0.  0.
<mgrwt>
<rscale>  0 0.25440287E+03</rscale>
<asrwt>0</asrwt>
<pdfrwt beam="1">  1        2 0.98821153E-01 0.25440287E+03</pdfrwt>
<pdfrwt beam="2">  1       -2 0.26975753E-01 0.25440287E+03</pdfrwt>
<totfact> 0.58046402E+02</totfact>
</mgrwt>
</event>
<event>
 4    1  0.7155916E-008  0.7927141E+03  0.7818608E-02  0.9570623E-01
         -2   -1    0    0    0  501 -0.00000000000E+00  0.00000000000E+00  0.84186840600E+03  0.84186840600E+03  0.25500000000E-02 0.  1.
          2   -1    0    0  501    0  0.00000000000E+00 -0.00000000000E+00 -0.25494459860E+04  0.25494459860E+04  0.25500000000E-02 0. -1.
    8880022    1    1    2    0    0 -0.75385974695E+03  0.19157120797E+03  0.57219621177E+03  0.97765239404E+03  0.15294330000E+03 0.  1.
    8880022    1    1    2    0    0  0.75385974695E+03 -0.19157120797E+03 -0.22797737918E+04  0.24136619980E+04  0.15294330000E+03 0.  0.
<mgrwt>
<rscale>  0 0.79271413E+03</rscale>
<asrwt>0</asrwt>
<pdfrwt beam="1">  1        2 0.39222246E+00 0.79271413E+03</pdfrwt>
<pdfrwt beam="2">  1       -2 0.12951822E+00 0.79271413E+03</pdfrwt>
<totfact> 0.14910059E+00</totfact>
</mgrwt>
</event>
<event>
 4    1  0.6912310E-008  0.7010945E+03  0.7818608E-02  0.9715362E-01
          2   -1    0    0  501    0  0.00000000000E+00  0.00000000000E+00  0.20008462700E+04  0.20008462700E+04  0.25500000000E-02 0. -1.
         -2   -1    0    0    0  501 -0.00000000000E+00 -0.00000000000E+00 -0.79542620922E+03  0.79542620923E+03  0.25500000000E-02 0.  1.
    8880022    1    1    2    0    0  0.24557569654E+03  0.63861914777E+03  0.17650614781E+04  0.18992039157E+04  0.15294330000E+03 0.  0.
    8880022    1    1    2    0    0 -0.24557569654E+03 -0.63861914777E+03 -0.55964141739E+03  0.89706856354E+03  0.15294330000E+03 0.  0.
<mgrwt>
<rscale>  0 0.70109450E+03</rscale>
<asrwt>0</asrwt>
<pdfrwt beam="1">  1        2 0.30782250E+00 0.70109450E+03</pdfrwt>
<pdfrwt beam="2">  1       -2 0.12237326E+00 0.70109450E+03</pdfrwt>
<totfact> 0.35290330E+00</totfact>
</mgrwt>
</event>
<event>
 4    1  0.6912310E-008  0.3843492E+03  0.7818608E-02  0.1049338E+00
         -2   -1    0    0    0  501 -0.00000000000E+00  0.00000000000E+00  0.72967410986E+03  0.72967410986E+03  0.25500000000E-02 0.  1.
          2   -1    0    0  501    0  0.00000000000E+00 -0.00000000000E+00 -0.81548269239E+03  0.81548269239E+03  0.25500000000E-02 0. -1.
    8880022    1    1    2    0    0  0.34475103535E+03  0.74022883082E+02 -0.71275209193E+03  0.80977766155E+03  0.15294330000E+03 0.  0.
    8880022    1    1    2    0    0 -0.34475103535E+03 -0.74022883082E+02  0.62694350939E+03  0.73537914070E+03  0.15294330000E+03 0.  1.
<mgrwt>
<rscale>  0 0.38434921E+03</rscale>
<asrwt>0</asrwt>
<pdfrwt beam="1">  1        2 0.12545888E+00 0.38434921E+03</pdfrwt>
<pdfrwt beam="2">  1       -2 0.11225756E+00 0.38434921E+03</pdfrwt>
<totfact> 0.22362903E+01</totfact>
</mgrwt>
</event>
<event>
 4    1  0.6912310E-008  0.5411417E+03  0.7818608E-02  0.1003565E+00
         -2   -1    0    0    0  501 -0.00000000000E+00  0.00000000000E+00  0.79578251027E+03  0.79578251027E+03  0.25500000000E-02 0.  1.
          2   -1    0    0  501    0  0.00000000000E+00 -0.00000000000E+00 -0.44839212784E+03  0.44839212785E+03  0.25500000000E-02 0. -1.
    8880022    1    1    2    0    0  0.51273173811E+03 -0.80924692392E+02  0.43713142835E+03  0.69564227860E+03  0.15294330000E+03 0.  0.
    8880022    1    1    2    0    0 -0.51273173811E+03  0.80924692392E+02 -0.89741045929E+02  0.54853235952E+03  0.15294330000E+03 0.  0.
<mgrwt>
<rscale>  0 0.54114166E+03</rscale>
<asrwt>0</asrwt>
<pdfrwt beam="1">  1        2 0.68983404E-01 0.54114166E+03</pdfrwt>
<pdfrwt beam="2">  1       -2 0.12242808E+00 0.54114166E+03</pdfrwt>
<totfact> 0.36321505E+01</totfact>
</mgrwt>
</event>
<event>
 4    1  0.6912310E-008  0.5242424E+03  0.7818608E-02  0.1007638E+00
          2   -1    0    0  501    0  0.00000000000E+00  0.00000000000E+00  0.28032559846E+04  0.28032559846E+04  0.25500000000E-02 0. -1.
         -2   -1    0    0    0  501 -0.00000000000E+00 -0.00000000000E+00 -0.11528802880E+03  0.11528802883E+03  0.25500000000E-02 0.  1.
    8880022    1    1    2    0    0 -0.45555647867E+03 -0.20953941703E+03  0.77954268291E+03  0.93942371699E+03  0.15294330000E+03 0.  0.
    8880022    1    1    2    0    0  0.45555647867E+03  0.20953941703E+03  0.19084252729E+04  0.19791202965E+04  0.15294330000E+03 0.  0.
<mgrwt>
<rscale>  0 0.52424243E+03</rscale>
<asrwt>0</asrwt>
<pdfrwt beam="1">  1        2 0.43127015E+00 0.52424243E+03</pdfrwt>
<pdfrwt beam="2">  1       -2 0.17736620E-01 0.52424243E+03</pdfrwt>
<totfact> 0.65844426E+01</totfact>
</mgrwt>
</event>
<event>
 4    1  0.6912310E-008  0.2933069E+03  0.7818608E-02  0.1088635E+00
         -2   -1    0    0    0  501 -0.00000000000E+00  0.00000000000E+00  0.40398364948E+03  0.40398364948E+03  0.25500000000E-02 0.  1.
          2   -1    0    0  501    0  0.00000000000E+00 -0.00000000000E+00 -0.10494387867E+04  0.10494387867E+04  0.25500000000E-02 0. -1.
    8880022    1    1    2    0    0 -0.18978230170E+03 -0.16315624638E+03 -0.97153075416E+03  0.10148403530E+04  0.15294330000E+03 0.  0.
    8880022    1    1    2    0    0  0.18978230170E+03  0.16315624638E+03  0.32607561690E+03  0.43858208323E+03  0.15294330000E+03 0.  1.
<mgrwt>
<rscale>  0 0.29330690E+03</rscale>
<asrwt>0</asrwt>
<pdfrwt beam="1">  1        2 0.16145212E+00 0.29330690E+03</pdfrwt>
<pdfrwt beam="2">  1       -2 0.62151331E-01 0.29330690E+03</pdfrwt>
<totfact> 0.60745465E+01</totfact>
</mgrwt>
</event>
<event>
 4    1  0.6912310E-008  0.1945740E+03  0.7818608E-02  0.1154399E+00
         -2   -1    0    0    0  501 -0.00000000000E+00  0.00000000000E+00  0.11544100236E+03  0.11544100239E+03  0.25500000000E-02 0.  1.
          2   -1    0    0  501    0  0.00000000000E+00 -0.00000000000E+00 -0.27719272165E+04  0.27719272165E+04  0.25500000000E-02 0. -1.
    8880022    1    1    2    0    0  0.58259854151E+02 -0.10522921824E+03 -0.26838373211E+04  0.26908812345E+04  0.15294330000E+03 0.  0.
    8880022    1    1    2    0    0 -0.58259854151E+02  0.10522921824E+03  0.27351106950E+02  0.19648698441E+03  0.15294330000E+03 0.  1.
<mgrwt>
<rscale>  0 0.19457403E+03</rscale>
<asrwt>0</asrwt>
<pdfrwt beam="1">  1        2 0.42645029E+00 0.19457403E+03</pdfrwt>
<pdfrwt beam="2">  1       -2 0.17760156E-01 0.19457403E+03</pdfrwt>
<totfact> 0.75834809E+01</totfact>
</mgrwt>
</event>
<event>
 4    1  0.6912310E-008  0.3717098E+03  0.7818608E-02  0.1054041E+00
          2   -1    0    0  501    0  0.00000000000E+00  0.00000000000E+00  0.31847499100E+04  0.31847499100E+04  0.25500000000E-02 0. -1.
         -2   -1    0    0    0  501 -0.00000000000E+00 -0.00000000000E+00 -0.10388470413E+03  0.10388470416E+03  0.25500000000E-02 0.  1.
    8880022    1    1    2    0    0 -0.33564835684E+03 -0.46007640522E+02  0.27952742625E+04  0.28198805609E+04  0.15294330000E+03 0. -1.
    8880022    1    1    2    0    0  0.33564835684E+03  0.46007640522E+02  0.28559094335E+03  0.46875405318E+03  0.15294330000E+03 0.  1.
<mgrwt>
<rscale>  0 0.37170980E+03</rscale>
<asrwt>0</asrwt>
<pdfrwt beam="1">  1        2 0.48996154E+00 0.37170980E+03</pdfrwt>
<pdfrwt beam="2">  1       -2 0.15982262E-01 0.37170980E+03</pdfrwt>
<totfact> 0.48075871E+01</totfact>
</mgrwt>
</event>
<event>
 4    1  0.6912310E-008  0.1436264E+04  0.7818608E-02  0.8927979E-01
         -2   -1    0    0    0  501 -0.00000000000E+00  0.00000000000E+00  0.17381147171E+04  0.17381147171E+04  0.25500000000E-02 0.  1.
          2   -1    0    0  501    0  0.00000000000E+00 -0.00000000000E+00 -0.18465451896E+04  0.18465451896E+04  0.25500000000E-02 0. -1.
    8880022    1    1    2    0    0 -0.85368033904E+03 -0.11448547713E+04  0.10170938985E+04  0.17599244927E+04  0.15294330000E+03 0.  0.
    8880022    1    1    2    0    0  0.85368033904E+03  0.11448547713E+04 -0.11255243710E+04  0.18247354140E+04  0.15294330000E+03 0.  0.
<mgrwt>
<rscale>  0 0.14362640E+04</rscale>
<asrwt>0</asrwt>
<pdfrwt beam="1">  1        2 0.28408387E+00 0.14362640E+04</pdfrwt>
<pdfrwt beam="2">  1       -2 0.26740226E+00 0.14362640E+04</pdfrwt>
<totfact> 0.38617464E-01</totfact>
</mgrwt>
</event>
<event>
 4    1  0.6912310E-008  0.5387112E+03  0.7818608E-02  0.1004141E+00
         -2   -1    0    0    0  501 -0.00000000000E+00  0.00000000000E+00  0.36492034476E+03  0.36492034477E+03  0.25500000000E-02 0.  1.
          2   -1    0    0  501    0  0.00000000000E+00 -0.00000000000E+00 -0.12052948738E+04  0.12052948738E+04  0.25500000000E-02 0. -1.
    8880022    1    1    2    0    0  0.26581272607E+03  0.44290140047E+03 -0.87810593389E+03  0.10301843233E+04  0.15294330000E+03 0.  0.
    8880022    1    1    2    0    0 -0.26581272607E+03 -0.44290140047E+03  0.37731404867E+02  0.54003089523E+03  0.15294330000E+03 0.  0.
<mgrwt>
<rscale>  0 0.53871116E+03</rscale>
<asrwt>0</asrwt>
<pdfrwt beam="1">  1        2 0.18542998E+00 0.53871116E+03</pdfrwt>
<pdfrwt beam="2">  1       -2 0.56141592E-01 0.53871116E+03</pdfrwt>
<totfact> 0.58296766E+01</totfact>
</mgrwt>
</event>
<event>
 4    1  0.6912310E-008  0.1184449E+04  0.7818608E-02  0.9126578E-01
          2   -1    0    0  501    0  0.00000000000E+00  0.00000000000E+00  0.24966158407E+04  0.24966158407E+04  0.25500000000E-02 0. -1.
         -2   -1    0    0    0  501 -0.00000000000E+00 -0.00000000000E+00 -0.12327058547E+04  0.12327058547E+04  0.25500000000E-02 0.  1.
    8880022    1    1    2    0    0  0.10732703356E+04 -0.47709359121E+03  0.20074511303E+04  0.23308322981E+04  0.15294330000E+03 0.  0.
    8880022    1    1    2    0    0 -0.10732703356E+04  0.47709359121E+03 -0.74354114430E+03  0.13984893973E+04  0.15294330000E+03 0.  0.
<mgrwt>
<rscale>  0 0.11844489E+04</rscale>
<asrwt>0</asrwt>
<pdfrwt beam="1">  1        2 0.38409474E+00 0.11844489E+04</pdfrwt>
<pdfrwt beam="2">  1       -2 0.18964706E+00 0.11844489E+04</pdfrwt>
<totfact> 0.53299053E-01</totfact>
</mgrwt>
</event>
<event>
 4    1  0.6912310E-008  0.4643484E+03  0.7818608E-02  0.1023528E+00
         -2   -1    0    0    0  501 -0.00000000000E+00  0.00000000000E+00  0.37021785578E+03  0.37021785579E+03  0.25500000000E-02 0.  1.
          2   -1    0    0  501    0  0.00000000000E+00 -0.00000000000E+00 -0.14038874697E+04  0.14038874697E+04  0.25500000000E-02 0. -1.
    8880022    1    1    2    0    0 -0.29937328500E+02  0.43741457020E+03 -0.11953826852E+04  0.12824036677E+04  0.15294330000E+03 0. -1.
    8880022    1    1    2    0    0  0.29937328500E+02 -0.43741457020E+03  0.16171307126E+03  0.49170165781E+03  0.15294330000E+03 0.  0.
<mgrwt>
<rscale>  0 0.46434836E+03</rscale>
<asrwt>0</asrwt>
<pdfrwt beam="1">  1        2 0.21598268E+00 0.46434836E+03</pdfrwt>
<pdfrwt beam="2">  1       -2 0.56956594E-01 0.46434836E+03</pdfrwt>
<totfact> 0.44108884E+01</totfact>
</mgrwt>
</event>
<event>
 4    1  0.6912310E-008  0.6379810E+03  0.7818608E-02  0.9829597E-01
         -2   -1    0    0    0  501 -0.00000000000E+00  0.00000000000E+00  0.13947224888E+03  0.13947224891E+03  0.25500000000E-02 0.  1.
          2   -1    0    0  501    0  0.00000000000E+00 -0.00000000000E+00 -0.44342560749E+04  0.44342560749E+04  0.25500000000E-02 0. -1.
    8880022    1    1    2    0    0  0.19016240230E+03 -0.58946276256E+03 -0.34845275794E+04  0.35424500268E+04  0.15294330000E+03 0.  0.
    8880022    1    1    2    0    0 -0.19016240230E+03  0.58946276256E+03 -0.81025624661E+03  0.10312782970E+04  0.15294330000E+03 0.  0.
<mgrwt>
<rscale>  0 0.63798099E+03</rscale>
<asrwt>0</asrwt>
<pdfrwt beam="1">  1        2 0.68219313E+00 0.63798099E+03</pdfrwt>
<pdfrwt beam="2">  1       -2 0.21457272E-01 0.63798099E+03</pdfrwt>
<totfact> 0.31209476E+00</totfact>
</mgrwt>
</event>
<event>
 4    1  0.6912310E-008  0.8898694E+03  0.7818608E-02  0.9438335E-01
         -2   -1    0    0    0  501 -0.00000000000E+00  0.00000000000E+00  0.73241325940E+03  0.73241325940E+03  0.25500000000E-02 0.  1.
          2   -1    0    0  501    0  0.00000000000E+00 -0.00000000000E+00 -0.12689969342E+04  0.12689969342E+04  0.25500000000E-02 0. -1.
    8880022    1    1    2    0    0 -0.77304465012E+03  0.41337371313E+03  0.11669689986E+03  0.89748853877E+03  0.15294330000E+03 0.  0.
    8880022    1    1    2    0    0  0.77304465012E+03 -0.41337371313E+03 -0.65328057469E+03  0.11039216549E+04  0.15294330000E+03 0.  0.
<mgrwt>
<rscale>  0 0.88986938E+03</rscale>
<asrwt>0</asrwt>
<pdfrwt beam="1">  1        2 0.19523030E+00 0.88986938E+03</pdfrwt>
<pdfrwt beam="2">  1       -2 0.11267896E+00 0.88986938E+03</pdfrwt>
<totfact> 0.10728764E+01</totfact>
</mgrwt>
</event>
<event>
 4    1  0.6912310E-008  0.1044339E+04  0.7818608E-02  0.9261208E-01
         -2   -1    0    0    0  501 -0.00000000000E+00  0.00000000000E+00  0.20125437312E+04  0.20125437312E+04  0.25500000000E-02 0.  1.
          2   -1    0    0  501    0  0.00000000000E+00 -0.00000000000E+00 -0.11004448065E+04  0.11004448065E+04  0.25500000000E-02 0. -1.
    8880022    1    1    2    0    0  0.98594837116E+03  0.30847787381E+03  0.15649263308E+04  0.18813927987E+04  0.15294330000E+03 0.  0.
    8880022    1    1    2    0    0 -0.98594837116E+03 -0.30847787381E+03 -0.65282740610E+03  0.12315957390E+04  0.15294330000E+03 0.  0.
<mgrwt>
<rscale>  0 0.10443392E+04</rscale>
<asrwt>0</asrwt>
<pdfrwt beam="1">  1        2 0.16929920E+00 0.10443392E+04</pdfrwt>
<pdfrwt beam="2">  1       -2 0.30962211E+00 0.10443392E+04</pdfrwt>
<totfact> 0.60324565E-01</totfact>
</mgrwt>
</event>
<event>
 4    1  0.6912310E-008  0.4744670E+03  0.7818608E-02  0.1020667E+00
         -2   -1    0    0    0  501 -0.00000000000E+00  0.00000000000E+00  0.13729576492E+04  0.13729576492E+04  0.25500000000E-02 0.  1.
          2   -1    0    0  501    0  0.00000000000E+00 -0.00000000000E+00 -0.93464566248E+03  0.93464566248E+03  0.25500000000E-02 0. -1.
    8880022    1    1    2    0    0 -0.14180238981E+03 -0.42616821669E+03 -0.82856222975E+03  0.95479541696E+03  0.15294330000E+03 0.  0.
    8880022    1    1    2    0    0  0.14180238981E+03  0.42616821669E+03  0.12668742165E+04  0.13528078947E+04  0.15294330000E+03 0.  0.
<mgrwt>
<rscale>  0 0.47446698E+03</rscale>
<asrwt>0</asrwt>
<pdfrwt beam="1">  1        2 0.14379164E+00 0.47446698E+03</pdfrwt>
<pdfrwt beam="2">  1       -2 0.21122425E+00 0.47446698E+03</pdfrwt>
<totfact> 0.33737299E+00</totfact>
</mgrwt>
</event>
<event>
 4    1  0.6912310E-008  0.2084877E+03  0.7818608E-02  0.1142769E+00
         -2   -1    0    0    0  501 -0.00000000000E+00  0.00000000000E+00  0.45598668799E+03  0.45598668800E+03  0.25500000000E-02 0.  1.
          2   -1    0    0  501    0  0.00000000000E+00 -0.00000000000E+00 -0.62721608156E+03  0.62721608156E+03  0.25500000000E-02 0. -1.
    8880022    1    1    2    0    0 -0.11817709387E+03 -0.78164129988E+02 -0.58436407562E+03  0.62044216702E+03  0.15294330000E+03 0.  0.
    8880022    1    1    2    0    0  0.11817709387E+03  0.78164129988E+02  0.41313468205E+03  0.46276060254E+03  0.15294330000E+03 0.  1.
<mgrwt>
<rscale>  0 0.20848767E+03</rscale>
<asrwt>0</asrwt>
<pdfrwt beam="1">  1        2 0.96494781E-01 0.20848767E+03</pdfrwt>
<pdfrwt beam="2">  1       -2 0.70151799E-01 0.20848767E+03</pdfrwt>
<totfact> 0.93039018E+01</totfact>
</mgrwt>
</event>
<event>
 4    1  0.6912310E-008  0.6666042E+03  0.7818608E-02  0.9776112E-01
         -2   -1    0    0    0  501 -0.00000000000E+00  0.00000000000E+00  0.52303920305E+03  0.52303920306E+03  0.25500000000E-02 0.  1.
          2   -1    0    0  501    0  0.00000000000E+00 -0.00000000000E+00 -0.21192194855E+04  0.21192194855E+04  0.25500000000E-02 0. -1.
    8880022    1    1    2    0    0  0.56015841276E+03  0.32740188256E+03 -0.18206727794E+04  0.19388683459E+04  0.15294330000E+03 0.  0.
    8880022    1    1    2    0    0 -0.56015841276E+03 -0.32740188256E+03  0.22449249686E+03  0.70339034274E+03  0.15294330000E+03 0.  0.
<mgrwt>
<rscale>  0 0.66660415E+03</rscale>
<asrwt>0</asrwt>
<pdfrwt beam="1">  1        2 0.32603376E+00 0.66660415E+03</pdfrwt>
<pdfrwt beam="2">  1       -2 0.80467571E-01 0.66660415E+03</pdfrwt>
<totfact> 0.82378918E+00</totfact>
</mgrwt>
</event>
<event>
 4    1  0.6912310E-008  0.4361708E+03  0.7818608E-02  0.1031928E+00
          2   -1    0    0  501    0  0.00000000000E+00  0.00000000000E+00  0.22924182058E+04  0.22924182058E+04  0.25500000000E-02 0. -1.
         -2   -1    0    0    0  501 -0.00000000000E+00 -0.00000000000E+00 -0.15029047463E+03  0.15029047465E+03  0.25500000000E-02 0.  1.
    8880022    1    1    2    0    0 -0.31516985425E+03  0.25984859197E+03  0.18883779164E+04  0.19380960079E+04  0.15294330000E+03 0.  0.
    8880022    1    1    2    0    0  0.31516985425E+03 -0.25984859197E+03  0.25374981482E+03  0.50461267256E+03  0.15294330000E+03 0.  0.
<mgrwt>
<rscale>  0 0.43617082E+03</rscale>
<asrwt>0</asrwt>
<pdfrwt beam="1">  1        2 0.35267969E+00 0.43617082E+03</pdfrwt>
<pdfrwt beam="2">  1       -2 0.23121613E-01 0.43617082E+03</pdfrwt>
<totfact> 0.81958785E+01</totfact>
</mgrwt>
</event>
<event>
 4    1  0.6912310E-008  0.2104172E+03  0.7818608E-02  0.1141236E+00
          2   -1    0    0  501    0  0.00000000000E+00  0.00000000000E+00  0.20149830740E+03  0.20149830742E+03  0.25500000000E-02 0. -1.
         -2   -1    0    0    0  501 -0.00000000000E+00 -0.00000000000E+00 -0.52262963509E+03  0.52262963509E+03  0.25500000000E-02 0.  1.
    8880022    1    1    2    0    0  0.14447633376E+03 -0.32178220722E+01  0.11507099355E+03  0.23982650389E+03  0.15294330000E+03 0. -1.
    8880022    1    1    2    0    0 -0.14447633376E+03  0.32178220722E+01 -0.43620232123E+03  0.48430143863E+03  0.15294330000E+03 0.  0.
<mgrwt>
<rscale>  0 0.21041725E+03</rscale>
<asrwt>0</asrwt>
<pdfrwt beam="1">  1        2 0.30999740E-01 0.21041725E+03</pdfrwt>
<pdfrwt beam="2">  1       -2 0.80404559E-01 0.21041725E+03</pdfrwt>
<totfact> 0.23993912E+02</totfact>
</mgrwt>
</event>
<event>
 4    1  0.6912310E-008  0.6812400E+03  0.7818608E-02  0.9749863E-01
         -2   -1    0    0    0  501 -0.00000000000E+00  0.00000000000E+00  0.32494644225E+03  0.32494644226E+03  0.25500000000E-02 0.  1.
          2   -1    0    0  501    0  0.00000000000E+00 -0.00000000000E+00 -0.20409499873E+04  0.20409499873E+04  0.25500000000E-02 0. -1.
    8880022    1    1    2    0    0  0.54261523289E+03  0.38244609302E+03 -0.15061760736E+04  0.16530742036E+04  0.15294330000E+03 0.  0.
    8880022    1    1    2    0    0 -0.54261523289E+03 -0.38244609302E+03 -0.20982747150E+03  0.71282222597E+03  0.15294330000E+03 0.  0.
<mgrwt>
<rscale>  0 0.68124002E+03</rscale>
<asrwt>0</asrwt>
<pdfrwt beam="1">  1        2 0.31399230E+00 0.68124002E+03</pdfrwt>
<pdfrwt beam="2">  1       -2 0.49991761E-01 0.68124002E+03</pdfrwt>
<totfact> 0.25061742E+01</totfact>
</mgrwt>
</event>
<event>
 4    1  0.6912310E-008  0.2772691E+03  0.7818608E-02  0.1097190E+00
         -2   -1    0    0    0  501 -0.00000000000E+00  0.00000000000E+00  0.43079776810E+03  0.43079776811E+03  0.25500000000E-02 0.  1.
          2   -1    0    0  501    0  0.00000000000E+00 -0.00000000000E+00 -0.15926343016E+04  0.15926343016E+04  0.25500000000E-02 0. -1.
    8880022    1    1    2    0    0 -0.39173211606E+02  0.22792968624E+03  0.37243266695E+03  0.46431048535E+03  0.15294330000E+03 0.  1.
    8880022    1    1    2    0    0  0.39173211606E+02 -0.22792968624E+03 -0.15342692004E+04  0.15591215844E+04  0.15294330000E+03 0.  0.
<mgrwt>
<rscale>  0 0.27726907E+03</rscale>
<asrwt>0</asrwt>
<pdfrwt beam="1">  1        2 0.24502066E+00 0.27726907E+03</pdfrwt>
<pdfrwt beam="2">  1       -2 0.66276581E-01 0.27726907E+03</pdfrwt>
<totfact> 0.26500294E+01</totfact>
</mgrwt>
</event>
<event>
 4    1  0.6912310E-008  0.1006082E+04  0.7818608E-02  0.9301899E-01
          2   -1    0    0  501    0  0.00000000000E+00  0.00000000000E+00  0.32908983143E+04  0.32908983143E+04  0.25500000000E-02 0. -1.
         -2   -1    0    0    0  501 -0.00000000000E+00 -0.00000000000E+00 -0.32437985441E+03  0.32437985442E+03  0.25500000000E-02 0.  1.
    8880022    1    1    2    0    0  0.70861279784E+03 -0.69762260913E+03  0.18946839283E+04  0.21452338435E+04  0.15294330000E+03 0.  0.
    8880022    1    1    2    0    0 -0.70861279784E+03  0.69762260913E+03  0.10718345316E+04  0.14700443252E+04  0.15294330000E+03 0.  0.
<mgrwt>
<rscale>  0 0.10060820E+04</rscale>
<asrwt>0</asrwt>
<pdfrwt beam="1">  1        2 0.50629206E+00 0.10060820E+04</pdfrwt>
<pdfrwt beam="2">  1       -2 0.49904592E-01 0.10060820E+04</pdfrwt>
<totfact> 0.44196912E+00</totfact>
</mgrwt>
</event>
<event>
 4    1  0.6912310E-008  0.4969413E+03  0.7818608E-02  0.1014580E+00
          2   -1    0    0  501    0  0.00000000000E+00  0.00000000000E+00  0.43075267603E+04  0.43075267603E+04  0.25500000000E-02 0. -1.
         -2   -1    0    0    0  501 -0.00000000000E+00 -0.00000000000E+00 -0.68278291977E+02  0.68278292025E+02  0.25500000000E-02 0.  1.
    8880022    1    1    2    0    0 -0.40684352882E+03  0.24090938626E+03  0.12435130626E+04  0.13391323233E+04  0.15294330000E+03 0.  0.
    8880022    1    1    2    0    0  0.40684352882E+03 -0.24090938626E+03  0.29957354057E+04  0.30366727290E+04  0.15294330000E+03 0.  0.
<mgrwt>
<rscale>  0 0.49694129E+03</rscale>
<asrwt>0</asrwt>
<pdfrwt beam="1">  1        2 0.66269690E+00 0.49694129E+03</pdfrwt>
<pdfrwt beam="2">  1       -2 0.10504345E-01 0.49694129E+03</pdfrwt>
<totfact> 0.14095026E+01</totfact>
</mgrwt>
</event>
<event>
 4    1  0.6912310E-008  0.4070459E+03  0.7818608E-02  0.1041367E+00
          2   -1    0    0  501    0  0.00000000000E+00  0.00000000000E+00  0.23306657109E+04  0.23306657109E+04  0.25500000000E-02 0. -1.
         -2   -1    0    0    0  501 -0.00000000000E+00 -0.00000000000E+00 -0.10547423616E+03  0.10547423619E+03  0.25500000000E-02 0.  1.
    8880022    1    1    2    0    0  0.33370342807E+03  0.17588847076E+03  0.41712242590E+03  0.58281858520E+03  0.15294330000E+03 0.  0.
    8880022    1    1    2    0    0 -0.33370342807E+03 -0.17588847076E+03  0.18080690489E+04  0.18533213619E+04  0.15294330000E+03 0.  0.
<mgrwt>
<rscale>  0 0.40704593E+03</rscale>
<asrwt>0</asrwt>
<pdfrwt beam="1">  1        2 0.35856394E+00 0.40704593E+03</pdfrwt>
<pdfrwt beam="2">  1       -2 0.16226806E-01 0.40704593E+03</pdfrwt>
<totfact> 0.14476031E+02</totfact>
</mgrwt>
</event>
<event>
 4    1  0.6912310E-008  0.5606044E+03  0.7818608E-02  0.9990688E-01
          2   -1    0    0  501    0  0.00000000000E+00  0.00000000000E+00  0.49077352376E+04  0.49077352376E+04  0.25500000000E-02 0. -1.
         -2   -1    0    0    0  501 -0.00000000000E+00 -0.00000000000E+00 -0.31775245520E+03  0.31775245521E+03  0.25500000000E-02 0.  1.
    8880022    1    1    2    0    0  0.45606518136E+03  0.28790663677E+03  0.46296625425E+04  0.46634807377E+04  0.15294330000E+03 0.  0.
    8880022    1    1    2    0    0 -0.45606518136E+03 -0.28790663677E+03 -0.39679760083E+02  0.56200695504E+03  0.15294330000E+03 0.  0.
<mgrwt>
<rscale>  0 0.56060444E+03</rscale>
<asrwt>0</asrwt>
<pdfrwt beam="1">  1        2 0.75503617E+00 0.56060444E+03</pdfrwt>
<pdfrwt beam="2">  1       -2 0.48884995E-01 0.56060444E+03</pdfrwt>
<totfact> 0.22201504E-01</totfact>
</mgrwt>
</event>
<event>
 4    1  0.6912310E-008  0.2829422E+03  0.7818608E-02  0.1094093E+00
          2   -1    0    0  501    0  0.00000000000E+00  0.00000000000E+00  0.17629119583E+04  0.17629119583E+04  0.25500000000E-02 0. -1.
         -2   -1    0    0    0  501 -0.00000000000E+00 -0.00000000000E+00 -0.58310545719E+03  0.58310545719E+03  0.25500000000E-02 0.  1.
    8880022    1    1    2    0    0 -0.18971159350E+03  0.14378512500E+03  0.17163101463E+04  0.17394760194E+04  0.15294330000E+03 0. -1.
    8880022    1    1    2    0    0  0.18971159350E+03 -0.14378512500E+03 -0.53650364516E+03  0.60654139608E+03  0.15294330000E+03 0.  0.
<mgrwt>
<rscale>  0 0.28294223E+03</rscale>
<asrwt>0</asrwt>
<pdfrwt beam="1">  1        2 0.27121722E+00 0.28294223E+03</pdfrwt>
<pdfrwt beam="2">  1       -2 0.89708532E-01 0.28294223E+03</pdfrwt>
<totfact> 0.11051574E+01</totfact>
</mgrwt>
</event>
<event>
 4    1  0.6912310E-008  0.1230978E+04  0.7818608E-02  0.9086165E-01
         -2   -1    0    0    0  501 -0.00000000000E+00  0.00000000000E+00  0.10352647597E+04  0.10352647597E+04  0.25500000000E-02 0.  1.
          2   -1    0    0  501    0  0.00000000000E+00 -0.00000000000E+00 -0.27565613870E+04  0.27565613870E+04  0.25500000000E-02 0. -1.
    8880022    1    1    2    0    0  0.11116571065E+04  0.50609666983E+03  0.43776271048E+03  0.13065003656E+04  0.15294330000E+03 0.  0.
    8880022    1    1    2    0    0 -0.11116571065E+04 -0.50609666983E+03 -0.21590593377E+04  0.24853257811E+04  0.15294330000E+03 0.  0.
<mgrwt>
<rscale>  0 0.12309781E+04</rscale>
<asrwt>0</asrwt>
<pdfrwt beam="1">  1        2 0.42408636E+00 0.12309781E+04</pdfrwt>
<pdfrwt beam="2">  1       -2 0.15927150E+00 0.12309781E+04</pdfrwt>
<totfact> 0.61158118E-01</totfact>
</mgrwt>
</event>
<event>
 4    1  0.6912310E-008  0.6557768E+03  0.7818608E-02  0.9795999E-01
         -2   -1    0    0    0  501 -0.00000000000E+00  0.00000000000E+00  0.39759067758E+03  0.39759067759E+03  0.25500000000E-02 0.  1.
          2   -1    0    0  501    0  0.00000000000E+00 -0.00000000000E+00 -0.12981280040E+04  0.12981280040E+04  0.25500000000E-02 0. -1.
    8880022    1    1    2    0    0 -0.42745704699E+03 -0.47321450607E+03 -0.10401115271E+03  0.66397399699E+03  0.15294330000E+03 0.  0.
    8880022    1    1    2    0    0  0.42745704699E+03  0.47321450607E+03 -0.79652617373E+03  0.10317446846E+04  0.15294330000E+03 0.  0.
<mgrwt>
<rscale>  0 0.65577675E+03</rscale>
<asrwt>0</asrwt>
<pdfrwt beam="1">  1        2 0.19971200E+00 0.65577675E+03</pdfrwt>
<pdfrwt beam="2">  1       -2 0.61167797E-01 0.65577675E+03</pdfrwt>
<totfact> 0.42433795E+01</totfact>
</mgrwt>
</event>
<event>
 4    1  0.6912310E-008  0.7418366E+03  0.7818608E-02  0.9648245E-01
         -2   -1    0    0    0  501 -0.00000000000E+00  0.00000000000E+00  0.77892286165E+03  0.77892286165E+03  0.25500000000E-02 0.  1.
          2   -1    0    0  501    0  0.00000000000E+00 -0.00000000000E+00 -0.13460409377E+04  0.13460409377E+04  0.25500000000E-02 0. -1.
    8880022    1    1    2    0    0 -0.68740815612E+03 -0.23323802036E+03  0.44879501404E+03  0.86702858366E+03  0.15294330000E+03 0.  0.
    8880022    1    1    2    0    0  0.68740815612E+03  0.23323802036E+03 -0.10159130900E+04  0.12579352156E+04  0.15294330000E+03 0.  0.
<mgrwt>
<rscale>  0 0.74183664E+03</rscale>
<asrwt>0</asrwt>
<pdfrwt beam="1">  1        2 0.20708322E+00 0.74183664E+03</pdfrwt>
<pdfrwt beam="2">  1       -2 0.11983429E+00 0.74183664E+03</pdfrwt>
<totfact> 0.84753684E+00</totfact>
</mgrwt>
</event>
<event>
 4    1  0.6912310E-008  0.2360687E+03  0.7818608E-02  0.1122440E+00
         -2   -1    0    0    0  501 -0.00000000000E+00  0.00000000000E+00  0.31010146465E+03  0.31010146466E+03  0.25500000000E-02 0.  1.
          2   -1    0    0  501    0  0.00000000000E+00 -0.00000000000E+00 -0.98995598859E+03  0.98995598860E+03  0.25500000000E-02 0. -1.
    8880022    1    1    2    0    0  0.16702102958E+03 -0.66638903740E+02  0.24814808857E+03  0.34249948130E+03  0.15294330000E+03 0.  0.
    8880022    1    1    2    0    0 -0.16702102958E+03  0.66638903740E+02 -0.92800261251E+03  0.95755797196E+03  0.15294330000E+03 0.  0.
<mgrwt>
<rscale>  0 0.23606868E+03</rscale>
<asrwt>0</asrwt>
<pdfrwt beam="1">  1        2 0.15230092E+00 0.23606868E+03</pdfrwt>
<pdfrwt beam="2">  1       -2 0.47707918E-01 0.23606868E+03</pdfrwt>
<totfact> 0.11458122E+02</totfact>
</mgrwt>
</event>
<event>
 4    1  0.6912310E-008  0.2150180E+03  0.7818608E-02  0.1137653E+00
          2   -1    0    0  501    0  0.00000000000E+00  0.00000000000E+00  0.13717404286E+04  0.13717404286E+04  0.25500000000E-02 0. -1.
         -2   -1    0    0    0  501 -0.00000000000E+00 -0.00000000000E+00 -0.15749025610E+04  0.15749025610E+04  0.25500000000E-02 0.  1.
    8880022    1    1    2    0    0  0.12990682414E+03  0.77235337985E+02  0.13558902605E+04  0.13728332499E+04  0.15294330000E+03 0.  0.
    8880022    1    1    2    0    0 -0.12990682414E+03 -0.77235337985E+02 -0.15590523929E+04  0.15738097398E+04  0.15294330000E+03 0.  0.
<mgrwt>
<rscale>  0 0.21501798E+03</rscale>
<asrwt>0</asrwt>
<pdfrwt beam="1">  1        2 0.21103699E+00 0.21501798E+03</pdfrwt>
<pdfrwt beam="2">  1       -2 0.24229270E+00 0.21501798E+03</pdfrwt>
<totfact> 0.13454838E+00</totfact>
</mgrwt>
</event>
<event>
 4    1  0.6912310E-008  0.2126190E+03  0.7818608E-02  0.1139509E+00
         -2   -1    0    0    0  501 -0.00000000000E+00  0.00000000000E+00  0.64258173377E+03  0.64258173377E+03  0.25500000000E-02 0.  1.
          2   -1    0    0  501    0  0.00000000000E+00 -0.00000000000E+00 -0.22387729507E+03  0.22387729509E+03  0.25500000000E-02 0. -1.
    8880022    1    1    2    0    0  0.13007827609E+03  0.69962914806E+02  0.56811152796E+03  0.60659502848E+03  0.15294330000E+03 0.  0.
    8880022    1    1    2    0    0 -0.13007827609E+03 -0.69962914806E+02 -0.14940708926E+03  0.25986400038E+03  0.15294330000E+03 0. -1.
<mgrwt>
<rscale>  0 0.21261896E+03</rscale>
<asrwt>0</asrwt>
<pdfrwt beam="1">  1        2 0.34442662E-01 0.21261896E+03</pdfrwt>
<pdfrwt beam="2">  1       -2 0.98858726E-01 0.21261896E+03</pdfrwt>
<totfact> 0.13414444E+02</totfact>
</mgrwt>
</event>
<event>
 4    1  0.6912310E-008  0.1096206E+04  0.7818608E-02  0.9208898E-01
         -2   -1    0    0    0  501 -0.00000000000E+00  0.00000000000E+00  0.14306448745E+04  0.14306448745E+04  0.25500000000E-02 0.  1.
          2   -1    0    0  501    0  0.00000000000E+00 -0.00000000000E+00 -0.11591451889E+04  0.11591451889E+04  0.25500000000E-02 0. -1.
    8880022    1    1    2    0    0 -0.10519452655E+04 -0.26774348403E+03  0.81525895650E+03  0.13661311189E+04  0.15294330000E+03 0.  0.
    8880022    1    1    2    0    0  0.10519452655E+04  0.26774348403E+03 -0.54375927083E+03  0.12236589445E+04  0.15294330000E+03 0.  0.
<mgrwt>
<rscale>  0 0.10962058E+04</rscale>
<asrwt>0</asrwt>
<pdfrwt beam="1">  1        2 0.17833003E+00 0.10962058E+04</pdfrwt>
<pdfrwt beam="2">  1       -2 0.22009921E+00 0.10962058E+04</pdfrwt>
<totfact> 0.19435559E+00</totfact>
</mgrwt>
</event>
<event>
 4    1  0.6912310E-008  0.4768294E+03  0.7818608E-02  0.1020010E+00
          2   -1    0    0  501    0  0.00000000000E+00  0.00000000000E+00  0.31739442361E+04  0.31739442361E+04  0.25500000000E-02 0. -1.
         -2   -1    0    0    0  501 -0.00000000000E+00 -0.00000000000E+00 -0.17860125289E+03  0.17860125291E+03  0.25500000000E-02 0.  1.
    8880022    1    1    2    0    0  0.44987497097E+03  0.39839350878E+02  0.20041665336E+03  0.51723606926E+03  0.15294330000E+03 0.  0.
    8880022    1    1    2    0    0 -0.44987497097E+03 -0.39839350878E+02  0.27949263298E+04  0.28353094197E+04  0.15294330000E+03 0.  0.
<mgrwt>
<rscale>  0 0.47682944E+03</rscale>
<asrwt>0</asrwt>
<pdfrwt beam="1">  1        2 0.48829914E+00 0.47682944E+03</pdfrwt>
<pdfrwt beam="2">  1       -2 0.27477114E-01 0.47682944E+03</pdfrwt>
<totfact> 0.18389718E+01</totfact>
</mgrwt>
</event>
<event>
 4    1  0.6912310E-008  0.8348822E+03  0.7818608E-02  0.9510855E-01
          2   -1    0    0  501    0  0.00000000000E+00  0.00000000000E+00  0.28316107135E+04  0.28316107135E+04  0.25500000000E-02 0. -1.
         -2   -1    0    0    0  501 -0.00000000000E+00 -0.00000000000E+00 -0.57915873009E+03  0.57915873010E+03  0.25500000000E-02 0.  1.
    8880022    1    1    2    0    0  0.65096881130E+03 -0.49987621226E+03 -0.16691264460E+03  0.85140360864E+03  0.15294330000E+03 0.  0.
    8880022    1    1    2    0    0 -0.65096881130E+03  0.49987621226E+03  0.24193646280E+04  0.25593658350E+04  0.15294330000E+03 0. -1.
<mgrwt>
<rscale>  0 0.83488219E+03</rscale>
<asrwt>0</asrwt>
<pdfrwt beam="1">  1        2 0.43563242E+00 0.83488219E+03</pdfrwt>
<pdfrwt beam="2">  1       -2 0.89101342E-01 0.83488219E+03</pdfrwt>
<totfact> 0.24988081E+00</totfact>
</mgrwt>
</event>
<event>
 4    1  0.6912310E-008  0.7714236E+03  0.7818608E-02  0.9602327E-01
         -2   -1    0    0    0  501 -0.00000000000E+00  0.00000000000E+00  0.15050545417E+04  0.15050545417E+04  0.25500000000E-02 0.  1.
          2   -1    0    0  501    0  0.00000000000E+00 -0.00000000000E+00 -0.80529006733E+03  0.80529006733E+03  0.25500000000E-02 0. -1.
    8880022    1    1    2    0    0  0.16556834012E+03  0.73775997196E+03 -0.47426687286E+03  0.90555141830E+03  0.15294330000E+03 0.  0.
    8880022    1    1    2    0    0 -0.16556834012E+03 -0.73775997196E+03  0.11740313472E+04  0.14047931908E+04  0.15294330000E+03 0.  0.
<mgrwt>
<rscale>  0 0.77142356E+03</rscale>
<asrwt>0</asrwt>
<pdfrwt beam="1">  1        2 0.12389078E+00 0.77142356E+03</pdfrwt>
<pdfrwt beam="2">  1       -2 0.23154685E+00 0.77142356E+03</pdfrwt>
<totfact> 0.29249885E+00</totfact>
</mgrwt>
</event>
<event>
 4    1  0.6912310E-008  0.1707345E+03  0.7818608E-02  0.1177084E+00
         -2   -1    0    0    0  501 -0.00000000000E+00  0.00000000000E+00  0.25756201964E+03  0.25756201965E+03  0.25500000000E-02 0.  1.
          2   -1    0    0  501    0  0.00000000000E+00 -0.00000000000E+00 -0.86671326111E+03  0.86671326111E+03  0.25500000000E-02 0. -1.
    8880022    1    1    2    0    0 -0.71973126410E+02 -0.24051668515E+02  0.21957587972E+03  0.27814354864E+03  0.15294330000E+03 0.  1.
    8880022    1    1    2    0    0  0.71973126410E+02  0.24051668515E+02 -0.82872712119E+03  0.84613173212E+03  0.15294330000E+03 0.  0.
<mgrwt>
<rscale>  0 0.17073449E+03</rscale>
<asrwt>0</asrwt>
<pdfrwt beam="1">  1        2 0.13334050E+00 0.17073449E+03</pdfrwt>
<pdfrwt beam="2">  1       -2 0.39624926E-01 0.17073449E+03</pdfrwt>
<totfact> 0.19915208E+02</totfact>
</mgrwt>
</event>
<event>
 4    1  0.6912310E-008  0.1919920E+03  0.7818608E-02  0.1156677E+00
         -2   -1    0    0    0  501 -0.00000000000E+00  0.00000000000E+00  0.10145372522E+03  0.10145372525E+03  0.25500000000E-02 0.  1.
          2   -1    0    0  501    0  0.00000000000E+00 -0.00000000000E+00 -0.13575999131E+04  0.13575999131E+04  0.25500000000E-02 0. -1.
    8880022    1    1    2    0    0 -0.82797077814E+02 -0.81326015957E+02 -0.12523942514E+04  0.12670249764E+04  0.15294330000E+03 0.  0.
    8880022    1    1    2    0    0  0.82797077814E+02  0.81326015957E+02 -0.37519365064E+01  0.19202866195E+03  0.15294330000E+03 0.  1.
<mgrwt>
<rscale>  0 0.19199200E+03</rscale>
<asrwt>0</asrwt>
<pdfrwt beam="1">  1        2 0.20886151E+00 0.19199200E+03</pdfrwt>
<pdfrwt beam="2">  1       -2 0.15608266E-01 0.19199200E+03</pdfrwt>
<totfact> 0.53026664E+02</totfact>
</mgrwt>
</event>
<event>
 4    1  0.6912310E-008  0.3084020E+03  0.7818608E-02  0.1081114E+00
          2   -1    0    0  501    0  0.00000000000E+00  0.00000000000E+00  0.19204876234E+04  0.19204876234E+04  0.25500000000E-02 0. -1.
         -2   -1    0    0    0  501 -0.00000000000E+00 -0.00000000000E+00 -0.12698359949E+03  0.12698359951E+03  0.25500000000E-02 0.  1.
    8880022    1    1    2    0    0  0.18376675113E+03 -0.19480737707E+03  0.97195168159E+02  0.32335535671E+03  0.15294330000E+03 0.  0.
    8880022    1    1    2    0    0 -0.18376675113E+03  0.19480737707E+03  0.16963088558E+04  0.17241158662E+04  0.15294330000E+03 0.  0.
<mgrwt>
<rscale>  0 0.30840199E+03</rscale>
<asrwt>0</asrwt>
<pdfrwt beam="1">  1        2 0.29545965E+00 0.30840199E+03</pdfrwt>
<pdfrwt beam="2">  1       -2 0.19535938E-01 0.30840199E+03</pdfrwt>
<totfact> 0.17869634E+02</totfact>
</mgrwt>
</event>
<event>
 4    1  0.6912310E-008  0.1596131E+03  0.7818608E-02  0.1189134E+00
          2   -1    0    0  501    0  0.00000000000E+00  0.00000000000E+00  0.23515801338E+04  0.23515801338E+04  0.25500000000E-02 0. -1.
         -2   -1    0    0    0  501 -0.00000000000E+00 -0.00000000000E+00 -0.10668805076E+03  0.10668805079E+03  0.25500000000E-02 0.  1.
    8880022    1    1    2    0    0 -0.43163593124E+02 -0.14886435095E+02 -0.42611163555E+02  0.16520310528E+03  0.15294330000E+03 0.  1.
    8880022    1    1    2    0    0  0.43163593124E+02  0.14886435095E+02  0.22875032466E+04  0.22930650793E+04  0.15294330000E+03 0.  0.
<mgrwt>
<rscale>  0 0.15961314E+03</rscale>
<asrwt>0</asrwt>
<pdfrwt beam="1">  1        2 0.36178152E+00 0.15961314E+03</pdfrwt>
<pdfrwt beam="2">  1       -2 0.16413548E-01 0.15961314E+03</pdfrwt>
<totfact> 0.14920330E+02</totfact>
</mgrwt>
</event>
<event>
 4    1  0.6912310E-008  0.6120254E+03  0.7818608E-02  0.9880767E-01
          2   -1    0    0  501    0  0.00000000000E+00  0.00000000000E+00  0.28708205019E+03  0.28708205020E+03  0.25500000000E-02 0. -1.
         -2   -1    0    0    0  501 -0.00000000000E+00 -0.00000000000E+00 -0.18305619103E+04  0.18305619103E+04  0.25500000000E-02 0.  1.
    8880022    1    1    2    0    0  0.20221764431E+03  0.55703806710E+03 -0.13392050081E+04  0.14724282973E+04  0.15294330000E+03 0.  0.
    8880022    1    1    2    0    0 -0.20221764431E+03 -0.55703806710E+03 -0.20427485197E+03  0.64521566319E+03  0.15294330000E+03 0.  0.
<mgrwt>
<rscale>  0 0.61202536E+03</rscale>
<asrwt>0</asrwt>
<pdfrwt beam="1">  1        2 0.44166470E-01 0.61202536E+03</pdfrwt>
<pdfrwt beam="2">  1       -2 0.28162490E+00 0.61202536E+03</pdfrwt>
<totfact> 0.50073676E+00</totfact>
</mgrwt>
</event>
<event>
 4    1  0.6912310E-008  0.2116882E+03  0.7818608E-02  0.1140236E+00
          2   -1    0    0  501    0  0.00000000000E+00  0.00000000000E+00  0.12367579546E+04  0.12367579546E+04  0.25500000000E-02 0. -1.
         -2   -1    0    0    0  501 -0.00000000000E+00 -0.00000000000E+00 -0.38521012653E+02  0.38521012737E+02  0.25500000000E-02 0.  1.
    8880022    1    1    2    0    0 -0.21129250089E+02  0.14482334430E+03  0.44372915192E+03  0.49163752861E+03  0.15294330000E+03 0.  0.
    8880022    1    1    2    0    0  0.21129250089E+02 -0.14482334430E+03  0.75450779007E+03  0.78364143877E+03  0.15294330000E+03 0.  0.
<mgrwt>
<rscale>  0 0.21168821E+03</rscale>
<asrwt>0</asrwt>
<pdfrwt beam="1">  1        2 0.19027049E+00 0.21168821E+03</pdfrwt>
<pdfrwt beam="2">  1       -2 0.59263085E-02 0.21168821E+03</pdfrwt>
<totfact> 0.28640303E+03</totfact>
</mgrwt>
</event>
<event>
 4    1  0.6912310E-008  0.6745901E+03  0.7818608E-02  0.9761701E-01
         -2   -1    0    0    0  501 -0.00000000000E+00  0.00000000000E+00  0.58775370185E+03  0.58775370186E+03  0.25500000000E-02 0.  1.
          2   -1    0    0  501    0  0.00000000000E+00 -0.00000000000E+00 -0.86820804341E+03  0.86820804341E+03  0.25500000000E-02 0. -1.
    8880022    1    1    2    0    0 -0.31909066400E+03 -0.57433555856E+03 -0.37970270332E+03  0.77410979945E+03  0.15294330000E+03 0.  0.
    8880022    1    1    2    0    0  0.31909066400E+03  0.57433555856E+03  0.99248361768E+02  0.68185194582E+03  0.15294330000E+03 0.  0.
<mgrwt>
<rscale>  0 0.67459013E+03</rscale>
<asrwt>0</asrwt>
<pdfrwt beam="1">  1        2 0.13357047E+00 0.67459013E+03</pdfrwt>
<pdfrwt beam="2">  1       -2 0.90423646E-01 0.67459013E+03</pdfrwt>
<totfact> 0.32935476E+01</totfact>
</mgrwt>
</event>
<event>
 4    1  0.6912310E-008  0.8276073E+03  0.7818608E-02  0.9520894E-01
         -2   -1    0    0    0  501 -0.00000000000E+00  0.00000000000E+00  0.14981816288E+04  0.14981816288E+04  0.25500000000E-02 0.  1.
          2   -1    0    0  501    0  0.00000000000E+00 -0.00000000000E+00 -0.62853680476E+03  0.62853680476E+03  0.25500000000E-02 0. -1.
    8880022    1    1    2    0    0  0.73492712270E+03  0.34846001474E+03  0.99004784611E+03  0.12903986392E+04  0.15294330000E+03 0.  0.
    8880022    1    1    2    0    0 -0.73492712270E+03 -0.34846001474E+03 -0.12040302211E+03  0.83631979428E+03  0.15294330000E+03 0.  0.
<mgrwt>
<rscale>  0 0.82760734E+03</rscale>
<asrwt>0</asrwt>
<pdfrwt beam="1">  1        2 0.96697972E-01 0.82760734E+03</pdfrwt>
<pdfrwt beam="2">  1       -2 0.23048948E+00 0.82760734E+03</pdfrwt>
<totfact> 0.40412676E+00</totfact>
</mgrwt>
</event>
<event>
 4    1  0.6912310E-008  0.2795428E+03  0.7818608E-02  0.1095939E+00
         -2   -1    0    0    0  501 -0.00000000000E+00  0.00000000000E+00  0.62653274696E+03  0.62653274697E+03  0.25500000000E-02 0.  1.
          2   -1    0    0  501    0  0.00000000000E+00 -0.00000000000E+00 -0.38113601819E+03  0.38113601820E+03  0.25500000000E-02 0. -1.
    8880022    1    1    2    0    0  0.23324511946E+03 -0.18688317115E+02  0.53595162452E+03  0.60447360223E+03  0.15294330000E+03 0.  1.
    8880022    1    1    2    0    0 -0.23324511946E+03  0.18688317115E+02 -0.29055489575E+03  0.40319516293E+03  0.15294330000E+03 0.  0.
<mgrwt>
<rscale>  0 0.27954283E+03</rscale>
<asrwt>0</asrwt>
<pdfrwt beam="1">  1        2 0.58636310E-01 0.27954283E+03</pdfrwt>
<pdfrwt beam="2">  1       -2 0.96389654E-01 0.27954283E+03</pdfrwt>
<totfact> 0.79367607E+01</totfact>
</mgrwt>
</event>
<event>
 4    1  0.6912310E-008  0.5692518E+03  0.7818608E-02  0.9971336E-01
         -2   -1    0    0    0  501 -0.00000000000E+00  0.00000000000E+00  0.61037075255E+03  0.61037075256E+03  0.25500000000E-02 0.  1.
          2   -1    0    0  501    0  0.00000000000E+00 -0.00000000000E+00 -0.10331651821E+04  0.10331651821E+04  0.25500000000E-02 0. -1.
    8880022    1    1    2    0    0 -0.37086906384E+03 -0.40387143284E+03  0.36156974204E+03  0.67437402689E+03  0.15294330000E+03 0.  0.
    8880022    1    1    2    0    0  0.37086906384E+03  0.40387143284E+03 -0.78436417158E+03  0.96916190776E+03  0.15294330000E+03 0.  0.
<mgrwt>
<rscale>  0 0.56925183E+03</rscale>
<asrwt>0</asrwt>
<pdfrwt beam="1">  1        2 0.15894849E+00 0.56925183E+03</pdfrwt>
<pdfrwt beam="2">  1       -2 0.93903193E-01 0.56925183E+03</pdfrwt>
<totfact> 0.23860787E+01</totfact>
</mgrwt>
</event>
<event>
 4    1  0.6912310E-008  0.1442095E+04  0.7818608E-02  0.8923899E-01
         -2   -1    0    0    0  501 -0.00000000000E+00  0.00000000000E+00  0.16856300355E+04  0.16856300355E+04  0.25500000000E-02 0.  1.
          2   -1    0    0  501    0  0.00000000000E+00 -0.00000000000E+00 -0.19844154516E+04  0.19844154516E+04  0.25500000000E-02 0. -1.
    8880022    1    1    2    0    0 -0.12425566042E+04 -0.71575079431E+03 -0.12780180252E+04  0.19269062873E+04  0.15294330000E+03 0.  0.
    8880022    1    1    2    0    0  0.12425566042E+04  0.71575079431E+03  0.97923260909E+03  0.17431391998E+04  0.15294330000E+03 0.  0.
<mgrwt>
<rscale>  0 0.14420949E+04</rscale>
<asrwt>0</asrwt>
<pdfrwt beam="1">  1        2 0.30529469E+00 0.14420949E+04</pdfrwt>
<pdfrwt beam="2">  1       -2 0.25932770E+00 0.14420949E+04</pdfrwt>
<totfact> 0.36232725E-01</totfact>
</mgrwt>
</event>
<event>
 4    1  0.6912310E-008  0.4609672E+03  0.7818608E-02  0.1024501E+00
          2   -1    0    0  501    0  0.00000000000E+00  0.00000000000E+00  0.27091830205E+03  0.27091830206E+03  0.25500000000E-02 0. -1.
         -2   -1    0    0    0  501 -0.00000000000E+00 -0.00000000000E+00 -0.18245693924E+04  0.18245693924E+04  0.25500000000E-02 0.  1.
    8880022    1    1    2    0    0  0.39420964691E+03 -0.18356973348E+03  0.14291060381E+02  0.46118866008E+03  0.15294330000E+03 0.  0.
    8880022    1    1    2    0    0 -0.39420964691E+03  0.18356973348E+03 -0.15679421507E+04  0.16342990344E+04  0.15294330000E+03 0.  0.
<mgrwt>
<rscale>  0 0.46096719E+03</rscale>
<asrwt>0</asrwt>
<pdfrwt beam="1">  1        2 0.41679740E-01 0.46096719E+03</pdfrwt>
<pdfrwt beam="2">  1       -2 0.28070298E+00 0.46096719E+03</pdfrwt>
<totfact> 0.55528478E+00</totfact>
</mgrwt>
</event>
<event>
 4    1  0.6912310E-008  0.1058843E+04  0.7818608E-02  0.9246261E-01
          2   -1    0    0  501    0  0.00000000000E+00  0.00000000000E+00  0.19601275876E+04  0.19601275876E+04  0.25500000000E-02 0. -1.
         -2   -1    0    0    0  501 -0.00000000000E+00 -0.00000000000E+00 -0.73911799148E+03  0.73911799148E+03  0.25500000000E-02 0.  1.
    8880022    1    1    2    0    0  0.94785460642E+03  0.44646304296E+03  0.12522994622E+04  0.16399399988E+04  0.15294330000E+03 0.  0.
    8880022    1    1    2    0    0 -0.94785460642E+03 -0.44646304296E+03 -0.31289866083E+02  0.10593055803E+04  0.15294330000E+03 0.  0.
<mgrwt>
<rscale>  0 0.10588434E+04</rscale>
<asrwt>0</asrwt>
<pdfrwt beam="1">  1        2 0.30155808E+00 0.10588434E+04</pdfrwt>
<pdfrwt beam="2">  1       -2 0.11371046E+00 0.10588434E+04</pdfrwt>
<totfact> 0.42272851E+00</totfact>
</mgrwt>
</event>
<event>
 4    1  0.6912310E-008  0.5421955E+03  0.7818608E-02  0.1003317E+00
         -2   -1    0    0    0  501 -0.00000000000E+00  0.00000000000E+00  0.22996101753E+03  0.22996101755E+03  0.25500000000E-02 0.  1.
          2   -1    0    0  501    0  0.00000000000E+00 -0.00000000000E+00 -0.22071561491E+04  0.22071561491E+04  0.25500000000E-02 0. -1.
    8880022    1    1    2    0    0  0.29432192968E+03  0.42890434025E+03 -0.19812460614E+03  0.57726020472E+03  0.15294330000E+03 0.  1.
    8880022    1    1    2    0    0 -0.29432192968E+03 -0.42890434025E+03 -0.17790705254E+04  0.18598569619E+04  0.15294330000E+03 0.  0.
<mgrwt>
<rscale>  0 0.54219552E+03</rscale>
<asrwt>0</asrwt>
<pdfrwt beam="1">  1        2 0.33956247E+00 0.54219552E+03</pdfrwt>
<pdfrwt beam="2">  1       -2 0.35378620E-01 0.54219552E+03</pdfrwt>
<totfact> 0.41035793E+01</totfact>
</mgrwt>
</event>
<event>
 4    1  0.6912310E-008  0.3915559E+03  0.7818608E-02  0.1046743E+00
         -2   -1    0    0    0  501 -0.00000000000E+00  0.00000000000E+00  0.33474552681E+03  0.33474552682E+03  0.25500000000E-02 0.  1.
          2   -1    0    0  501    0  0.00000000000E+00 -0.00000000000E+00 -0.13404471656E+04  0.13404471656E+04  0.25500000000E-02 0. -1.
    8880022    1    1    2    0    0  0.34867071267E+03 -0.91395169626E+02  0.17674767724E+03  0.42959950807E+03  0.15294330000E+03 0.  0.
    8880022    1    1    2    0    0 -0.34867071267E+03  0.91395169626E+02 -0.11824493161E+04  0.12455931844E+04  0.15294330000E+03 0.  0.
<mgrwt>
<rscale>  0 0.39155587E+03</rscale>
<asrwt>0</asrwt>
<pdfrwt beam="1">  1        2 0.20622264E+00 0.39155587E+03</pdfrwt>
<pdfrwt beam="2">  1       -2 0.51499313E-01 0.39155587E+03</pdfrwt>
<totfact> 0.59591235E+01</totfact>
</mgrwt>
</event>
<event>
 4    1  0.6912310E-008  0.8440488E+03  0.7818608E-02  0.9498359E-01
         -2   -1    0    0    0  501 -0.00000000000E+00  0.00000000000E+00  0.81526400239E+03  0.81526400239E+03  0.25500000000E-02 0.  1.
          2   -1    0    0  501    0  0.00000000000E+00 -0.00000000000E+00 -0.16663379238E+04  0.16663379238E+04  0.25500000000E-02 0. -1.
    8880022    1    1    2    0    0  0.60245946971E+03  0.57102474720E+03 -0.12812279324E+04  0.15342631268E+04  0.15294330000E+03 0.  0.
    8880022    1    1    2    0    0 -0.60245946971E+03 -0.57102474720E+03  0.43015401100E+03  0.94733879935E+03  0.15294330000E+03 0.  0.
<mgrwt>
<rscale>  0 0.84404877E+03</rscale>
<asrwt>0</asrwt>
<pdfrwt beam="1">  1        2 0.25635968E+00 0.84404877E+03</pdfrwt>
<pdfrwt beam="2">  1       -2 0.12542523E+00 0.84404877E+03</pdfrwt>
<totfact> 0.49394386E+00</totfact>
</mgrwt>
</event>
<event>
 4    1  0.6912310E-008  0.5116570E+03  0.7818608E-02  0.1010780E+00
          2   -1    0    0  501    0  0.00000000000E+00  0.00000000000E+00  0.42019127761E+03  0.42019127762E+03  0.25500000000E-02 0. -1.
         -2   -1    0    0    0  501 -0.00000000000E+00 -0.00000000000E+00 -0.93669746600E+03  0.93669746600E+03  0.25500000000E-02 0.  1.
    8880022    1    1    2    0    0  0.19659436606E+03 -0.44693612951E+03 -0.65085051977E+03  0.82788845911E+03  0.15294330000E+03 0.  0.
    8880022    1    1    2    0    0 -0.19659436606E+03  0.44693612951E+03  0.13434433138E+03  0.52900028451E+03  0.15294330000E+03 0.  0.
<mgrwt>
<rscale>  0 0.51165702E+03</rscale>
<asrwt>0</asrwt>
<pdfrwt beam="1">  1        2 0.64644812E-01 0.51165702E+03</pdfrwt>
<pdfrwt beam="2">  1       -2 0.14410730E+00 0.51165702E+03</pdfrwt>
<totfact> 0.25936779E+01</totfact>
</mgrwt>
</event>
<event>
 4    1  0.1145643E-007  0.9170662E+03  0.7818608E-02  0.9404496E-01
         -2   -1    0    0    0  501 -0.00000000000E+00  0.00000000000E+00  0.11025835169E+04  0.11025835169E+04  0.25500000000E-02 0.  1.
          2   -1    0    0  501    0  0.00000000000E+00 -0.00000000000E+00 -0.22420130759E+04  0.22420130759E+04  0.25500000000E-02 0. -1.
    8880022    1    1    2    0    0  0.75335120868E+03  0.50008065056E+03  0.78864688956E+03  0.12095347329E+04  0.15294330000E+03 0.  0.
    8880022    1    1    2    0    0 -0.75335120868E+03 -0.50008065056E+03 -0.19280764486E+04  0.21350618598E+04  0.15294330000E+03 0.  0.
<mgrwt>
<rscale>  0 0.91706617E+03</rscale>
<asrwt>0</asrwt>
<pdfrwt beam="1">  1        2 0.34492509E+00 0.91706617E+03</pdfrwt>
<pdfrwt beam="2">  1       -2 0.16962823E+00 0.91706617E+03</pdfrwt>
<totfact> 0.10636965E+00</totfact>
</mgrwt>
</event>
<event>
 4    1  0.6912310E-008  0.4742842E+03  0.7818608E-02  0.1020718E+00
         -2   -1    0    0    0  501 -0.00000000000E+00  0.00000000000E+00  0.19488916030E+04  0.19488916030E+04  0.25500000000E-02 0.  1.
          2   -1    0    0  501    0  0.00000000000E+00 -0.00000000000E+00 -0.13771373967E+03  0.13771373969E+03  0.25500000000E-02 0. -1.
    8880022    1    1    2    0    0 -0.15054989885E+03 -0.42295219453E+03  0.48583856989E+03  0.67895846700E+03  0.15294330000E+03 0.  0.
    8880022    1    1    2    0    0  0.15054989885E+03  0.42295219453E+03  0.13253392935E+04  0.14076468757E+04  0.15294330000E+03 0.  0.
<mgrwt>
<rscale>  0 0.47428418E+03</rscale>
<asrwt>0</asrwt>
<pdfrwt beam="1">  1        2 0.21186729E-01 0.47428418E+03</pdfrwt>
<pdfrwt beam="2">  1       -2 0.29982947E+00 0.47428418E+03</pdfrwt>
<totfact> 0.91271497E+00</totfact>
</mgrwt>
</event>
<event>
 4    1  0.1039086E-007  0.1076830E+04  0.7818608E-02  0.9228073E-01
         -2   -1    0    0    0  501 -0.00000000000E+00  0.00000000000E+00  0.24306972870E+04  0.24306972870E+04  0.25500000000E-02 0.  1.
          2   -1    0    0  501    0  0.00000000000E+00 -0.00000000000E+00 -0.14730388602E+04  0.14730388602E+04  0.25500000000E-02 0. -1.
    8880022    1    1    2    0    0  0.10466719627E+04 -0.20161785055E+03  0.20838129893E+04  0.23456001753E+04  0.15294330000E+03 0.  0.
    8880022    1    1    2    0    0 -0.10466719627E+04  0.20161785055E+03 -0.11261545625E+04  0.15581359718E+04  0.15294330000E+03 0.  0.
<mgrwt>
<rscale>  0 0.10768304E+04</rscale>
<asrwt>0</asrwt>
<pdfrwt beam="1">  1        2 0.22662136E+00 0.10768304E+04</pdfrwt>
<pdfrwt beam="2">  1       -2 0.37395343E+00 0.10768304E+04</pdfrwt>
<totfact> 0.14425111E-01</totfact>
</mgrwt>
</event>
<event>
 4    1  0.6912310E-008  0.3218150E+03  0.7818608E-02  0.1074817E+00
         -2   -1    0    0    0  501 -0.00000000000E+00  0.00000000000E+00  0.12422418927E+04  0.12422418927E+04  0.25500000000E-02 0.  1.
          2   -1    0    0  501    0  0.00000000000E+00 -0.00000000000E+00 -0.27864892238E+03  0.27864892239E+03  0.25500000000E-02 0. -1.
    8880022    1    1    2    0    0  0.26972732352E+03 -0.86141784489E+02 -0.15480518580E+03  0.35711277582E+03  0.15294330000E+03 0.  0.
    8880022    1    1    2    0    0 -0.26972732352E+03  0.86141784489E+02  0.11183981561E+04  0.11637780393E+04  0.15294330000E+03 0.  0.
<mgrwt>
<rscale>  0 0.32181499E+03</rscale>
<asrwt>0</asrwt>
<pdfrwt beam="1">  1        2 0.42869064E-01 0.32181499E+03</pdfrwt>
<pdfrwt beam="2">  1       -2 0.19111414E+00 0.32181499E+03</pdfrwt>
<totfact> 0.19445114E+01</totfact>
</mgrwt>
</event>
<event>
 4    1  0.6912310E-008  0.3079846E+03  0.7818608E-02  0.1081316E+00
          2   -1    0    0  501    0  0.00000000000E+00  0.00000000000E+00  0.15921062192E+03  0.15921062194E+03  0.25500000000E-02 0. -1.
         -2   -1    0    0    0  501 -0.00000000000E+00 -0.00000000000E+00 -0.11806841948E+04  0.11806841948E+04  0.25500000000E-02 0.  1.
    8880022    1    1    2    0    0  0.17756854086E+03 -0.19983054108E+03 -0.98227430099E+03  0.10294257075E+04  0.15294330000E+03 0.  1.
    8880022    1    1    2    0    0 -0.17756854086E+03  0.19983054108E+03 -0.39199271855E+02  0.31046910922E+03  0.15294330000E+03 0.  0.
<mgrwt>
<rscale>  0 0.30798455E+03</rscale>
<asrwt>0</asrwt>
<pdfrwt beam="1">  1        2 0.24493943E-01 0.30798455E+03</pdfrwt>
<pdfrwt beam="2">  1       -2 0.18164372E+00 0.30798455E+03</pdfrwt>
<totfact> 0.41768691E+01</totfact>
</mgrwt>
</event>
<event>
 4    1  0.6912310E-008  0.4807728E+03  0.7818608E-02  0.1018923E+00
         -2   -1    0    0    0  501 -0.00000000000E+00  0.00000000000E+00  0.25802629841E+03  0.25802629842E+03  0.25500000000E-02 0.  1.
          2   -1    0    0  501    0  0.00000000000E+00 -0.00000000000E+00 -0.20329630027E+04  0.20329630027E+04  0.25500000000E-02 0. -1.
    8880022    1    1    2    0    0 -0.32950640340E+03  0.31492285584E+03 -0.30750559229E+02  0.48175525417E+03  0.15294330000E+03 0.  1.
    8880022    1    1    2    0    0  0.32950640340E+03 -0.31492285584E+03 -0.17441861451E+04  0.18092340470E+04  0.15294330000E+03 0.  0.
<mgrwt>
<rscale>  0 0.48077284E+03</rscale>
<asrwt>0</asrwt>
<pdfrwt beam="1">  1        2 0.31276353E+00 0.48077284E+03</pdfrwt>
<pdfrwt beam="2">  1       -2 0.39696355E-01 0.48077284E+03</pdfrwt>
<totfact> 0.41380618E+01</totfact>
</mgrwt>
</event>
<event>
 4    1  0.6912310E-008  0.9178747E+03  0.7818608E-02  0.9403509E-01
          2   -1    0    0  501    0  0.00000000000E+00  0.00000000000E+00  0.29971452035E+04  0.29971452035E+04  0.25500000000E-02 0. -1.
         -2   -1    0    0    0  501 -0.00000000000E+00 -0.00000000000E+00 -0.59057018065E+03  0.59057018065E+03  0.25500000000E-02 0.  1.
    8880022    1    1    2    0    0  0.87074465034E+03 -0.24679144053E+03 -0.95273853545E+02  0.92280605839E+03  0.15294330000E+03 0.  0.
    8880022    1    1    2    0    0 -0.87074465034E+03  0.24679144053E+03  0.25018488764E+04  0.26649093258E+04  0.15294330000E+03 0.  0.
<mgrwt>
<rscale>  0 0.91787467E+03</rscale>
<asrwt>0</asrwt>
<pdfrwt beam="1">  1        2 0.46109925E+00 0.91787467E+03</pdfrwt>
<pdfrwt beam="2">  1       -2 0.90856953E-01 0.91787467E+03</pdfrwt>
<totfact> 0.18690988E+00</totfact>
</mgrwt>
</event>
<event>
 4    1  0.6912310E-008  0.6151102E+03  0.7818608E-02  0.9874544E-01
          2   -1    0    0  501    0  0.00000000000E+00  0.00000000000E+00  0.10232235730E+04  0.10232235730E+04  0.25500000000E-02 0. -1.
         -2   -1    0    0    0  501 -0.00000000000E+00 -0.00000000000E+00 -0.82123944566E+03  0.82123944566E+03  0.25500000000E-02 0.  1.
    8880022    1    1    2    0    0 -0.19708805587E+03  0.56225011691E+03  0.78477419630E+03  0.99711137188E+03  0.15294330000E+03 0.  0.
    8880022    1    1    2    0    0  0.19708805587E+03 -0.56225011691E+03 -0.58279006899E+03  0.84735164675E+03  0.15294330000E+03 0.  1.
<mgrwt>
<rscale>  0 0.61511019E+03</rscale>
<asrwt>0</asrwt>
<pdfrwt beam="1">  1        2 0.15741901E+00 0.61511019E+03</pdfrwt>
<pdfrwt beam="2">  1       -2 0.12634453E+00 0.61511019E+03</pdfrwt>
<totfact> 0.11762859E+01</totfact>
</mgrwt>
</event>
<event>
 4    1  0.6912310E-008  0.6943630E+03  0.7818608E-02  0.9726921E-01
         -2   -1    0    0    0  501 -0.00000000000E+00  0.00000000000E+00  0.49750034752E+03  0.49750034753E+03  0.25500000000E-02 0.  1.
          2   -1    0    0  501    0  0.00000000000E+00 -0.00000000000E+00 -0.11902547934E+04  0.11902547934E+04  0.25500000000E-02 0. -1.
    8880022    1    1    2    0    0  0.48663285365E+03 -0.47110172543E+03  0.17356114093E+02  0.69457991452E+03  0.15294330000E+03 0.  0.
    8880022    1    1    2    0    0 -0.48663285365E+03  0.47110172543E+03 -0.71011055999E+03  0.99317522642E+03  0.15294330000E+03 0.  0.
<mgrwt>
<rscale>  0 0.69436303E+03</rscale>
<asrwt>0</asrwt>
<pdfrwt beam="1">  1        2 0.18311612E+00 0.69436303E+03</pdfrwt>
<pdfrwt beam="2">  1       -2 0.76538515E-01 0.69436303E+03</pdfrwt>
<totfact> 0.30023608E+01</totfact>
</mgrwt>
</event>
<event>
 4    1  0.6912310E-008  0.2456236E+03  0.7818608E-02  0.1116102E+00
          2   -1    0    0  501    0  0.00000000000E+00  0.00000000000E+00  0.16244434917E+04  0.16244434917E+04  0.25500000000E-02 0. -1.
         -2   -1    0    0    0  501 -0.00000000000E+00 -0.00000000000E+00 -0.12822118586E+03  0.12822118588E+03  0.25500000000E-02 0.  1.
    8880022    1    1    2    0    0  0.58860864986E+02 -0.18296089387E+03  0.95191761904E+01  0.24580796945E+03  0.15294330000E+03 0.  0.
    8880022    1    1    2    0    0 -0.58860864986E+02  0.18296089387E+03  0.14867031296E+04  0.15068567081E+04  0.15294330000E+03 0.  0.
<mgrwt>
<rscale>  0 0.24562358E+03</rscale>
<asrwt>0</asrwt>
<pdfrwt beam="1">  1        2 0.24991437E+00 0.24562358E+03</pdfrwt>
<pdfrwt beam="2">  1       -2 0.19726337E-01 0.24562358E+03</pdfrwt>
<totfact> 0.25517640E+02</totfact>
</mgrwt>
</event>
<event>
 4    1  0.6912310E-008  0.3221446E+03  0.7818608E-02  0.1074667E+00
         -2   -1    0    0    0  501 -0.00000000000E+00  0.00000000000E+00  0.19560687894E+03  0.19560687896E+03  0.25500000000E-02 0.  1.
          2   -1    0    0  501    0  0.00000000000E+00 -0.00000000000E+00 -0.81166297395E+03  0.81166297396E+03  0.25500000000E-02 0. -1.
    8880022    1    1    2    0    0  0.15501234649E+03 -0.23739555143E+03 -0.60442703461E+03  0.68491544631E+03  0.15294330000E+03 0.  0.
    8880022    1    1    2    0    0 -0.15501234649E+03  0.23739555143E+03 -0.11629060398E+02  0.32235440661E+03  0.15294330000E+03 0.  0.
<mgrwt>
<rscale>  0 0.32214458E+03</rscale>
<asrwt>0</asrwt>
<pdfrwt beam="1">  1        2 0.12487123E+00 0.32214458E+03</pdfrwt>
<pdfrwt beam="2">  1       -2 0.30093366E-01 0.32214458E+03</pdfrwt>
<totfact> 0.35505905E+02</totfact>
</mgrwt>
</event>
<event>
 4    1  0.6912310E-008  0.8300786E+03  0.7818608E-02  0.9517472E-01
         -2   -1    0    0    0  501 -0.00000000000E+00  0.00000000000E+00  0.27648844507E+03  0.27648844509E+03  0.25500000000E-02 0.  1.
          2   -1    0    0  501    0  0.00000000000E+00 -0.00000000000E+00 -0.44190720164E+04  0.44190720164E+04  0.25500000000E-02 0. -1.
    8880022    1    1    2    0    0 -0.73961639705E+03  0.34439272985E+03 -0.52093295282E+03  0.98000079669E+03  0.15294330000E+03 0.  0.
    8880022    1    1    2    0    0  0.73961639705E+03 -0.34439272985E+03 -0.36216506185E+04  0.37155596648E+04  0.15294330000E+03 0.  0.
<mgrwt>
<rscale>  0 0.83007856E+03</rscale>
<asrwt>0</asrwt>
<pdfrwt beam="1">  1        2 0.67985718E+00 0.83007856E+03</pdfrwt>
<pdfrwt beam="2">  1       -2 0.42536687E-01 0.83007856E+03</pdfrwt>
<totfact> 0.85821825E-01</totfact>
</mgrwt>
</event>
<event>
 4    1  0.6912310E-008  0.1201288E+04  0.7818608E-02  0.9111730E-01
          2   -1    0    0  501    0  0.00000000000E+00  0.00000000000E+00  0.11128037447E+04  0.11128037447E+04  0.25500000000E-02 0. -1.
         -2   -1    0    0    0  501 -0.00000000000E+00 -0.00000000000E+00 -0.13594373435E+04  0.13594373435E+04  0.25500000000E-02 0.  1.
    8880022    1    1    2    0    0 -0.11900703221E+04  0.58590483476E+02  0.14200507201E+03  0.12096517308E+04  0.15294330000E+03 0.  0.
    8880022    1    1    2    0    0  0.11900703221E+04 -0.58590483476E+02 -0.38863867080E+03  0.12625893575E+04  0.15294330000E+03 0.  0.
<mgrwt>
<rscale>  0 0.12012876E+04</rscale>
<asrwt>0</asrwt>
<pdfrwt beam="1">  1        2 0.17120058E+00 0.12012876E+04</pdfrwt>
<pdfrwt beam="2">  1       -2 0.20914421E+00 0.12012876E+04</pdfrwt>
<totfact> 0.24105656E+00</totfact>
</mgrwt>
</event>
<event>
 4    1  0.6912310E-008  0.6533318E+03  0.7818608E-02  0.9800547E-01
         -2   -1    0    0    0  501 -0.00000000000E+00  0.00000000000E+00  0.11643603399E+04  0.11643603399E+04  0.25500000000E-02 0.  1.
          2   -1    0    0  501    0  0.00000000000E+00 -0.00000000000E+00 -0.82475352784E+03  0.82475352784E+03  0.25500000000E-02 0. -1.
    8880022    1    1    2    0    0  0.52131540355E+03  0.36287889075E+03  0.91107603459E+03  0.11211164227E+04  0.15294330000E+03 0.  0.
    8880022    1    1    2    0    0 -0.52131540355E+03 -0.36287889075E+03 -0.57146922254E+03  0.86799744507E+03  0.15294330000E+03 0.  0.
<mgrwt>
<rscale>  0 0.65333184E+03</rscale>
<asrwt>0</asrwt>
<pdfrwt beam="1">  1        2 0.12688516E+00 0.65333184E+03</pdfrwt>
<pdfrwt beam="2">  1       -2 0.17913236E+00 0.65333184E+03</pdfrwt>
<totfact> 0.62783024E+00</totfact>
</mgrwt>
</event>
<event>
 4    1  0.6912310E-008  0.3044579E+03  0.7818608E-02  0.1083033E+00
         -2   -1    0    0    0  501 -0.00000000000E+00  0.00000000000E+00  0.19511341241E+03  0.19511341243E+03  0.25500000000E-02 0.  1.
          2   -1    0    0  501    0  0.00000000000E+00 -0.00000000000E+00 -0.12685793559E+04  0.12685793559E+04  0.25500000000E-02 0. -1.
    8880022    1    1    2    0    0  0.14686223294E+03 -0.21848209400E+03  0.42074649813E+02  0.30735137878E+03  0.15294330000E+03 0.  0.
    8880022    1    1    2    0    0 -0.14686223294E+03  0.21848209400E+03 -0.11155405933E+04  0.11563413895E+04  0.15294330000E+03 0.  0.
<mgrwt>
<rscale>  0 0.30445787E+03</rscale>
<asrwt>0</asrwt>
<pdfrwt beam="1">  1        2 0.19516605E+00 0.30445787E+03</pdfrwt>
<pdfrwt beam="2">  1       -2 0.30017449E-01 0.30445787E+03</pdfrwt>
<totfact> 0.18741154E+02</totfact>
</mgrwt>
</event>
<event>
 4    1  0.6912310E-008  0.2529577E+03  0.7818608E-02  0.1111450E+00
         -2   -1    0    0    0  501 -0.00000000000E+00  0.00000000000E+00  0.36445104858E+03  0.36445104859E+03  0.25500000000E-02 0.  1.
          2   -1    0    0  501    0  0.00000000000E+00 -0.00000000000E+00 -0.17798753609E+04  0.17798753609E+04  0.25500000000E-02 0. -1.
    8880022    1    1    2    0    0 -0.74897367321E+02 -0.18704632855E+03  0.31019759849E+03  0.40026259853E+03  0.15294330000E+03 0.  0.
    8880022    1    1    2    0    0  0.74897367321E+02  0.18704632855E+03 -0.17256219108E+04  0.17440638110E+04  0.15294330000E+03 0.  0.
<mgrwt>
<rscale>  0 0.25295770E+03</rscale>
<asrwt>0</asrwt>
<pdfrwt beam="1">  1        2 0.27382697E+00 0.25295770E+03</pdfrwt>
<pdfrwt beam="2">  1       -2 0.56069393E-01 0.25295770E+03</pdfrwt>
<totfact> 0.30182555E+01</totfact>
</mgrwt>
</event>
<event>
 4    1  0.6912310E-008  0.3170186E+03  0.7818608E-02  0.1077030E+00
          2   -1    0    0  501    0  0.00000000000E+00  0.00000000000E+00  0.21287628543E+04  0.21287628543E+04  0.25500000000E-02 0. -1.
         -2   -1    0    0    0  501 -0.00000000000E+00 -0.00000000000E+00 -0.11010583756E+03  0.11010583759E+03  0.25500000000E-02 0.  1.
    8880022    1    1    2    0    0  0.11607060698E+03 -0.25226328016E+03  0.18553888041E+04  0.18822774545E+04  0.15294330000E+03 0. -1.
    8880022    1    1    2    0    0 -0.11607060698E+03  0.25226328016E+03  0.16326821268E+03  0.35659123743E+03  0.15294330000E+03 0.  0.
<mgrwt>
<rscale>  0 0.31701861E+03</rscale>
<asrwt>0</asrwt>
<pdfrwt beam="1">  1        2 0.32750199E+00 0.31701861E+03</pdfrwt>
<pdfrwt beam="2">  1       -2 0.16939359E-01 0.31701861E+03</pdfrwt>
<totfact> 0.17630830E+02</totfact>
</mgrwt>
</event>
<event>
 4    1  0.6912310E-008  0.5465014E+03  0.7818608E-02  0.1002307E+00
         -2   -1    0    0    0  501 -0.00000000000E+00  0.00000000000E+00  0.63081350731E+03  0.63081350732E+03  0.25500000000E-02 0.  1.
          2   -1    0    0  501    0  0.00000000000E+00 -0.00000000000E+00 -0.20237178097E+04  0.20237178097E+04  0.25500000000E-02 0. -1.
    8880022    1    1    2    0    0  0.45753648353E+03 -0.25677314924E+03 -0.18581284187E+04  0.19368285823E+04  0.15294330000E+03 0.  0.
    8880022    1    1    2    0    0 -0.45753648353E+03  0.25677314924E+03  0.46522411633E+03  0.71770273468E+03  0.15294330000E+03 0.  0.
<mgrwt>
<rscale>  0 0.54650136E+03</rscale>
<asrwt>0</asrwt>
<pdfrwt beam="1">  1        2 0.31134120E+00 0.54650136E+03</pdfrwt>
<pdfrwt beam="2">  1       -2 0.97048233E-01 0.54650136E+03</pdfrwt>
<totfact> 0.61917315E+00</totfact>
</mgrwt>
</event>
<event>
 4    1  0.6912310E-008  0.5499625E+03  0.7818608E-02  0.1001503E+00
          2   -1    0    0  501    0  0.00000000000E+00  0.00000000000E+00  0.79845248269E+03  0.79845248269E+03  0.25500000000E-02 0. -1.
         -2   -1    0    0    0  501 -0.00000000000E+00 -0.00000000000E+00 -0.50658606385E+03  0.50658606386E+03  0.25500000000E-02 0.  1.
    8880022    1    1    2    0    0 -0.10286891522E+03 -0.51815542355E+03  0.47364949429E+03  0.72581165128E+03  0.15294330000E+03 0.  0.
    8880022    1    1    2    0    0  0.10286891522E+03  0.51815542355E+03 -0.18178307546E+03  0.57922689527E+03  0.15294330000E+03 0.  0.
<mgrwt>
<rscale>  0 0.54996246E+03</rscale>
<asrwt>0</asrwt>
<pdfrwt beam="1">  1        2 0.12283884E+00 0.54996246E+03</pdfrwt>
<pdfrwt beam="2">  1       -2 0.77936318E-01 0.54996246E+03</pdfrwt>
<totfact> 0.52255461E+01</totfact>
</mgrwt>
</event>
<event>
 4    1  0.6912310E-008  0.7162405E+03  0.7818608E-02  0.9689855E-01
          2   -1    0    0  501    0  0.00000000000E+00  0.00000000000E+00  0.11487565955E+04  0.11487565955E+04  0.25500000000E-02 0. -1.
         -2   -1    0    0    0  501 -0.00000000000E+00 -0.00000000000E+00 -0.52511552404E+03  0.52511552404E+03  0.25500000000E-02 0.  1.
    8880022    1    1    2    0    0 -0.62331391221E+03 -0.31794437625E+03  0.63550726851E+03  0.95753328970E+03  0.15294330000E+03 0.  0.
    8880022    1    1    2    0    0  0.62331391221E+03  0.31794437625E+03 -0.11866197010E+02  0.71633882988E+03  0.15294330000E+03 0.  0.
<mgrwt>
<rscale>  0 0.71624054E+03</rscale>
<asrwt>0</asrwt>
<pdfrwt beam="1">  1        2 0.17673178E+00 0.71624054E+03</pdfrwt>
<pdfrwt beam="2">  1       -2 0.80787005E-01 0.71624054E+03</pdfrwt>
<totfact> 0.28095876E+01</totfact>
</mgrwt>
</event>
<event>
 4    1  0.6912310E-008  0.1959594E+03  0.7818608E-02  0.1153194E+00
          2   -1    0    0  501    0  0.00000000000E+00  0.00000000000E+00  0.57392999656E+03  0.57392999656E+03  0.25500000000E-02 0. -1.
         -2   -1    0    0    0  501 -0.00000000000E+00 -0.00000000000E+00 -0.33654038725E+03  0.33654038726E+03  0.25500000000E-02 0.  1.
    8880022    1    1    2    0    0 -0.11916993861E+03  0.28406853342E+02  0.52617252403E+03  0.56147805090E+03  0.15294330000E+03 0. -1.
    8880022    1    1    2    0    0  0.11916993861E+03 -0.28406853342E+02 -0.28878291472E+03  0.34899233292E+03  0.15294330000E+03 0.  0.
<mgrwt>
<rscale>  0 0.19595937E+03</rscale>
<asrwt>0</asrwt>
<pdfrwt beam="1">  1        2 0.88296922E-01 0.19595937E+03</pdfrwt>
<pdfrwt beam="2">  1       -2 0.51775445E-01 0.19595937E+03</pdfrwt>
<totfact> 0.19381842E+02</totfact>
</mgrwt>
</event>
<event>
 4    1  0.6912310E-008  0.1312065E+04  0.7818608E-02  0.9020052E-01
          2   -1    0    0  501    0  0.00000000000E+00  0.00000000000E+00  0.12662054462E+04  0.12662054462E+04  0.25500000000E-02 0. -1.
         -2   -1    0    0    0  501 -0.00000000000E+00 -0.00000000000E+00 -0.14219030935E+04  0.14219030935E+04  0.25500000000E-02 0.  1.
    8880022    1    1    2    0    0  0.12021459694E+04  0.50295810201E+03  0.20352924552E+03  0.13277566008E+04  0.15294330000E+03 0.  0.
    8880022    1    1    2    0    0 -0.12021459694E+04 -0.50295810201E+03 -0.35922689280E+03  0.13603519389E+04  0.15294330000E+03 0.  0.
<mgrwt>
<rscale>  0 0.13120646E+04</rscale>
<asrwt>0</asrwt>
<pdfrwt beam="1">  1        2 0.19480084E+00 0.13120646E+04</pdfrwt>
<pdfrwt beam="2">  1       -2 0.21875432E+00 0.13120646E+04</pdfrwt>
<totfact> 0.16719389E+00</totfact>
</mgrwt>
</event>
<event>
 4    1  0.6912310E-008  0.7773271E+03  0.7818608E-02  0.9593428E-01
         -2   -1    0    0    0  501 -0.00000000000E+00  0.00000000000E+00  0.27622670542E+03  0.27622670543E+03  0.25500000000E-02 0.  1.
          2   -1    0    0  501    0  0.00000000000E+00 -0.00000000000E+00 -0.22395349320E+04  0.22395349320E+04  0.25500000000E-02 0. -1.
    8880022    1    1    2    0    0 -0.57055815192E+03 -0.50528124585E+03 -0.78985932892E+03  0.11082035709E+04  0.15294330000E+03 0.  0.
    8880022    1    1    2    0    0  0.57055815192E+03  0.50528124585E+03 -0.11734488976E+04  0.14075580665E+04  0.15294330000E+03 0.  0.
<mgrwt>
<rscale>  0 0.77732708E+03</rscale>
<asrwt>0</asrwt>
<pdfrwt beam="1">  1        2 0.34454382E+00 0.77732708E+03</pdfrwt>
<pdfrwt beam="2">  1       -2 0.42496418E-01 0.77732708E+03</pdfrwt>
<totfact> 0.26631139E+01</totfact>
</mgrwt>
</event>
<event>
 4    1  0.6912310E-008  0.2644409E+03  0.7818608E-02  0.1104504E+00
          2   -1    0    0  501    0  0.00000000000E+00  0.00000000000E+00  0.92345648576E+02  0.92345648611E+02  0.25500000000E-02 0. -1.
         -2   -1    0    0    0  501 -0.00000000000E+00 -0.00000000000E+00 -0.15313311148E+04  0.15313311148E+04  0.25500000000E-02 0.  1.
    8880022    1    1    2    0    0  0.82074271484E+02 -0.19950222640E+03 -0.14229110349E+03  0.30029274971E+03  0.15294330000E+03 0.  0.
    8880022    1    1    2    0    0 -0.82074271484E+02  0.19950222640E+03 -0.12966943627E+04  0.13233840137E+04  0.15294330000E+03 0.  1.
<mgrwt>
<rscale>  0 0.26444088E+03</rscale>
<asrwt>0</asrwt>
<pdfrwt beam="1">  1        2 0.14207024E-01 0.26444088E+03</pdfrwt>
<pdfrwt beam="2">  1       -2 0.23558938E+00 0.26444088E+03</pdfrwt>
<totfact> 0.36400536E+01</totfact>
</mgrwt>
</event>
<event>
 4    1  0.6912310E-008  0.4877647E+03  0.7818608E-02  0.1017023E+00
         -2   -1    0    0    0  501 -0.00000000000E+00  0.00000000000E+00  0.58108706063E+03  0.58108706063E+03  0.25500000000E-02 0.  1.
          2   -1    0    0  501    0  0.00000000000E+00 -0.00000000000E+00 -0.18743123444E+04  0.18743123444E+04  0.25500000000E-02 0. -1.
    8880022    1    1    2    0    0  0.38489461294E+03 -0.25764105476E+03 -0.17319694929E+04  0.17993423114E+04  0.15294330000E+03 0.  0.
    8880022    1    1    2    0    0 -0.38489461294E+03  0.25764105476E+03  0.43874420909E+03  0.65605709370E+03  0.15294330000E+03 0.  0.
<mgrwt>
<rscale>  0 0.48776473E+03</rscale>
<asrwt>0</asrwt>
<pdfrwt beam="1">  1        2 0.28835574E+00 0.48776473E+03</pdfrwt>
<pdfrwt beam="2">  1       -2 0.89398010E-01 0.48776473E+03</pdfrwt>
<totfact> 0.91334806E+00</totfact>
</mgrwt>
</event>
<event>
 4    1  0.6912310E-008  0.1544489E+03  0.7818608E-02  0.1195110E+00
         -2   -1    0    0    0  501 -0.00000000000E+00  0.00000000000E+00  0.40940326497E+02  0.40940326576E+02  0.25500000000E-02 0.  1.
          2   -1    0    0  501    0  0.00000000000E+00 -0.00000000000E+00 -0.19181264923E+04  0.19181264923E+04  0.25500000000E-02 0. -1.
    8880022    1    1    2    0    0 -0.18283244957E+02  0.11337827814E+02 -0.12126505575E+03  0.19636621437E+03  0.15294330000E+03 0.  1.
    8880022    1    1    2    0    0  0.18283244957E+02 -0.11337827814E+02 -0.17559211101E+04  0.17627006045E+04  0.15294330000E+03 0.  0.
<mgrwt>
<rscale>  0 0.15444894E+03</rscale>
<asrwt>0</asrwt>
<pdfrwt beam="1">  1        2 0.29509631E+00 0.15444894E+03</pdfrwt>
<pdfrwt beam="2">  1       -2 0.62985133E-02 0.15444894E+03</pdfrwt>
<totfact> 0.11432038E+03</totfact>
</mgrwt>
</event>
<event>
 4    1  0.6912310E-008  0.2355194E+03  0.7818608E-02  0.1122814E+00
          2   -1    0    0  501    0  0.00000000000E+00  0.00000000000E+00  0.65607520640E+03  0.65607520641E+03  0.25500000000E-02 0. -1.
         -2   -1    0    0    0  501 -0.00000000000E+00 -0.00000000000E+00 -0.54341746330E+03  0.54341746330E+03  0.25500000000E-02 0.  1.
    8880022    1    1    2    0    0 -0.16238073469E+03  0.75566157129E+02 -0.49479053981E+03  0.54798456037E+03  0.15294330000E+03 0.  0.
    8880022    1    1    2    0    0  0.16238073469E+03 -0.75566157129E+02  0.60744828292E+03  0.65150810934E+03  0.15294330000E+03 0.  0.
<mgrwt>
<rscale>  0 0.23551943E+03</rscale>
<asrwt>0</asrwt>
<pdfrwt beam="1">  1        2 0.10093465E+00 0.23551943E+03</pdfrwt>
<pdfrwt beam="2">  1       -2 0.83602687E-01 0.23551943E+03</pdfrwt>
<totfact> 0.59801886E+01</totfact>
</mgrwt>
</event>
<event>
 4    1  0.6912310E-008  0.5962297E+03  0.7818608E-02  0.9913259E-01
          2   -1    0    0  501    0  0.00000000000E+00  0.00000000000E+00  0.12433296528E+04  0.12433296528E+04  0.25500000000E-02 0. -1.
         -2   -1    0    0    0  501 -0.00000000000E+00 -0.00000000000E+00 -0.53034255291E+03  0.53034255292E+03  0.25500000000E-02 0.  1.
    8880022    1    1    2    0    0  0.49253588240E+03  0.29917646310E+03  0.95855097374E+03  0.11288533004E+04  0.15294330000E+03 0.  0.
    8880022    1    1    2    0    0 -0.49253588240E+03 -0.29917646310E+03 -0.24556387385E+03  0.64481890534E+03  0.15294330000E+03 0.  0.
<mgrwt>
<rscale>  0 0.59622966E+03</rscale>
<asrwt>0</asrwt>
<pdfrwt beam="1">  1        2 0.19128148E+00 0.59622966E+03</pdfrwt>
<pdfrwt beam="2">  1       -2 0.81591164E-01 0.59622966E+03</pdfrwt>
<totfact> 0.24521670E+01</totfact>
</mgrwt>
</event>
<event>
 4    1  0.6912310E-008  0.1037434E+04  0.7818608E-02  0.9268414E-01
         -2   -1    0    0    0  501 -0.00000000000E+00  0.00000000000E+00  0.77040761202E+03  0.77040761203E+03  0.25500000000E-02 0.  1.
          2   -1    0    0  501    0  0.00000000000E+00 -0.00000000000E+00 -0.29549911457E+04  0.29549911457E+04  0.25500000000E-02 0. -1.
    8880022    1    1    2    0    0  0.10225104144E+04 -0.85735043746E+02  0.26023327091E+03  0.10695751743E+04  0.15294330000E+03 0.  0.
    8880022    1    1    2    0    0 -0.10225104144E+04  0.85735043746E+02 -0.24448168045E+04  0.26558235834E+04  0.15294330000E+03 0.  0.
<mgrwt>
<rscale>  0 0.10374342E+04</rscale>
<asrwt>0</asrwt>
<pdfrwt beam="1">  1        2 0.45461401E+00 0.10374342E+04</pdfrwt>
<pdfrwt beam="2">  1       -2 0.11852425E+00 0.10374342E+04</pdfrwt>
<totfact> 0.10282611E+00</totfact>
</mgrwt>
</event>
<event>
 4    1  0.6912310E-008  0.2144237E+03  0.7818608E-02  0.1138110E+00
          2   -1    0    0  501    0  0.00000000000E+00  0.00000000000E+00  0.85175830622E+03  0.85175830623E+03  0.25500000000E-02 0. -1.
         -2   -1    0    0    0  501 -0.00000000000E+00 -0.00000000000E+00 -0.76917934714E+02  0.76917934756E+02  0.25500000000E-02 0.  1.
    8880022    1    1    2    0    0  0.13972660570E+03  0.55338471848E+02  0.13384776443E+03  0.25277014829E+03  0.15294330000E+03 0.  0.
    8880022    1    1    2    0    0 -0.13972660570E+03 -0.55338471848E+02  0.64099260707E+03  0.67590609270E+03  0.15294330000E+03 0. -1.
<mgrwt>
<rscale>  0 0.21442370E+03</rscale>
<asrwt>0</asrwt>
<pdfrwt beam="1">  1        2 0.13103974E+00 0.21442370E+03</pdfrwt>
<pdfrwt beam="2">  1       -2 0.11833528E-01 0.21442370E+03</pdfrwt>
<totfact> 0.16506869E+03</totfact>
</mgrwt>
</event>
<event>
 4    1  0.6912310E-008  0.1115998E+04  0.7818608E-02  0.9189738E-01
          2   -1    0    0  501    0  0.00000000000E+00  0.00000000000E+00  0.23722672393E+04  0.23722672393E+04  0.25500000000E-02 0. -1.
         -2   -1    0    0    0  501 -0.00000000000E+00 -0.00000000000E+00 -0.66412583662E+03  0.66412583663E+03  0.25500000000E-02 0.  1.
    8880022    1    1    2    0    0 -0.66761761447E+03  0.88110560074E+03  0.15489333987E+04  0.19090957769E+04  0.15294330000E+03 0.  0.
    8880022    1    1    2    0    0  0.66761761447E+03 -0.88110560074E+03  0.15920800397E+03  0.11272972990E+04  0.15294330000E+03 0.  0.
<mgrwt>
<rscale>  0 0.11159982E+04</rscale>
<asrwt>0</asrwt>
<pdfrwt beam="1">  1        2 0.36496419E+00 0.11159982E+04</pdfrwt>
<pdfrwt beam="2">  1       -2 0.10217321E+00 0.11159982E+04</pdfrwt>
<totfact> 0.32078071E+00</totfact>
</mgrwt>
</event>
<event>
 4    1  0.6912310E-008  0.8080381E+03  0.7818608E-02  0.9548455E-01
         -2   -1    0    0    0  501 -0.00000000000E+00  0.00000000000E+00  0.42923347720E+03  0.42923347720E+03  0.25500000000E-02 0.  1.
          2   -1    0    0  501    0  0.00000000000E+00 -0.00000000000E+00 -0.16315547512E+04  0.16315547512E+04  0.25500000000E-02 0. -1.
    8880022    1    1    2    0    0  0.47373678693E+03 -0.63648047991E+03 -0.86920689031E+03  0.11867797672E+04  0.15294330000E+03 0.  0.
    8880022    1    1    2    0    0 -0.47373678693E+03  0.63648047991E+03 -0.33311438364E+03  0.87400846118E+03  0.15294330000E+03 0.  0.
<mgrwt>
<rscale>  0 0.80803812E+03</rscale>
<asrwt>0</asrwt>
<pdfrwt beam="1">  1        2 0.25100842E+00 0.80803812E+03</pdfrwt>
<pdfrwt beam="2">  1       -2 0.66035920E-01 0.80803812E+03</pdfrwt>
<totfact> 0.23024348E+01</totfact>
</mgrwt>
</event>
<event>
 4    1  0.6912310E-008  0.6864550E+03  0.7818608E-02  0.9740680E-01
         -2   -1    0    0    0  501 -0.00000000000E+00  0.00000000000E+00  0.89276757172E+03  0.89276757172E+03  0.25500000000E-02 0.  1.
          2   -1    0    0  501    0  0.00000000000E+00 -0.00000000000E+00 -0.80614319333E+03  0.80614319333E+03  0.25500000000E-02 0. -1.
    8880022    1    1    2    0    0  0.66868265088E+03 -0.26312231027E+02 -0.45581274792E+03  0.82400590731E+03  0.15294330000E+03 0.  0.
    8880022    1    1    2    0    0 -0.66868265088E+03  0.26312231027E+02  0.54243712631E+03  0.87490485775E+03  0.15294330000E+03 0.  0.
<mgrwt>
<rscale>  0 0.68645501E+03</rscale>
<asrwt>0</asrwt>
<pdfrwt beam="1">  1        2 0.12402203E+00 0.68645501E+03</pdfrwt>
<pdfrwt beam="2">  1       -2 0.13734886E+00 0.68645501E+03</pdfrwt>
<totfact> 0.13160484E+01</totfact>
</mgrwt>
</event>
<event>
 4    1  0.6912310E-008  0.5126646E+03  0.7818608E-02  0.1010525E+00
         -2   -1    0    0    0  501 -0.00000000000E+00  0.00000000000E+00  0.17589292172E+04  0.17589292172E+04  0.25500000000E-02 0.  1.
          2   -1    0    0  501    0  0.00000000000E+00 -0.00000000000E+00 -0.16119300180E+03  0.16119300182E+03  0.25500000000E-02 0. -1.
    8880022    1    1    2    0    0 -0.37451629131E+02  0.48788393004E+03  0.53944507597E+03  0.74419486475E+03  0.15294330000E+03 0.  0.
    8880022    1    1    2    0    0  0.37451629131E+02 -0.48788393004E+03  0.10582911394E+04  0.11759273542E+04  0.15294330000E+03 0.  0.
<mgrwt>
<rscale>  0 0.51266461E+03</rscale>
<asrwt>0</asrwt>
<pdfrwt beam="1">  1        2 0.24798923E-01 0.51266461E+03</pdfrwt>
<pdfrwt beam="2">  1       -2 0.27060450E+00 0.51266461E+03</pdfrwt>
<totfact> 0.11283777E+01</totfact>
</mgrwt>
</event>
<event>
 4    1  0.6912310E-008  0.3797920E+03  0.7818608E-02  0.1051011E+00
          2   -1    0    0  501    0  0.00000000000E+00  0.00000000000E+00  0.80671284072E+03  0.80671284072E+03  0.25500000000E-02 0. -1.
         -2   -1    0    0    0  501 -0.00000000000E+00 -0.00000000000E+00 -0.23910107363E+03  0.23910107364E+03  0.25500000000E-02 0.  1.
    8880022    1    1    2    0    0  0.48567454367E+02  0.34422598301E+03  0.21209650414E+02  0.38038378947E+03  0.15294330000E+03 0.  0.
    8880022    1    1    2    0    0 -0.48567454367E+02 -0.34422598301E+03  0.54640211667E+03  0.66543012490E+03  0.15294330000E+03 0.  0.
<mgrwt>
<rscale>  0 0.37979202E+03</rscale>
<asrwt>0</asrwt>
<pdfrwt beam="1">  1        2 0.12410967E+00 0.37979202E+03</pdfrwt>
<pdfrwt beam="2">  1       -2 0.36784780E-01 0.37979202E+03</pdfrwt>
<totfact> 0.24493768E+02</totfact>
</mgrwt>
</event>
<event>
 4    1  0.6912310E-008  0.1037609E+04  0.7818608E-02  0.9268231E-01
         -2   -1    0    0    0  501 -0.00000000000E+00  0.00000000000E+00  0.18271188143E+04  0.18271188143E+04  0.25500000000E-02 0.  1.
          2   -1    0    0  501    0  0.00000000000E+00 -0.00000000000E+00 -0.72529290815E+03  0.72529290816E+03  0.25500000000E-02 0. -1.
    8880022    1    1    2    0    0 -0.10205723643E+04  0.10804203921E+03 -0.17997140503E+01  0.10376106809E+04  0.15294330000E+03 0.  0.
    8880022    1    1    2    0    0  0.10205723643E+04 -0.10804203921E+03  0.11036256202E+04  0.15148010416E+04  0.15294330000E+03 0.  0.
<mgrwt>
<rscale>  0 0.10376091E+04</rscale>
<asrwt>0</asrwt>
<pdfrwt beam="1">  1        2 0.11158353E+00 0.10376091E+04</pdfrwt>
<pdfrwt beam="2">  1       -2 0.28109520E+00 0.10376091E+04</pdfrwt>
<totfact> 0.16200127E+00</totfact>
</mgrwt>
</event>
<event>
 4    1  0.6912310E-008  0.3820590E+03  0.7818608E-02  0.1050175E+00
         -2   -1    0    0    0  501 -0.00000000000E+00  0.00000000000E+00  0.12317789958E+03  0.12317789961E+03  0.25500000000E-02 0.  1.
          2   -1    0    0  501    0  0.00000000000E+00 -0.00000000000E+00 -0.16156429658E+04  0.16156429658E+04  0.25500000000E-02 0. -1.
    8880022    1    1    2    0    0 -0.33934678232E+03 -0.86146369552E+02 -0.11950785870E+04  0.12546640657E+04  0.15294330000E+03 0.  0.
    8880022    1    1    2    0    0  0.33934678232E+03  0.86146369552E+02 -0.29738647919E+03  0.48415679968E+03  0.15294330000E+03 0.  0.
<mgrwt>
<rscale>  0 0.38205901E+03</rscale>
<asrwt>0</asrwt>
<pdfrwt beam="1">  1        2 0.24856044E+00 0.38205901E+03</pdfrwt>
<pdfrwt beam="2">  1       -2 0.18950447E-01 0.38205901E+03</pdfrwt>
<totfact> 0.26991351E+02</totfact>
</mgrwt>
</event>
<event>
 4    1  0.6912310E-008  0.6088342E+03  0.7818608E-02  0.9887246E-01
         -2   -1    0    0    0  501 -0.00000000000E+00  0.00000000000E+00  0.49826972786E+03  0.49826972787E+03  0.25500000000E-02 0.  1.
          2   -1    0    0  501    0  0.00000000000E+00 -0.00000000000E+00 -0.22631106086E+04  0.22631106086E+04  0.25500000000E-02 0. -1.
    8880022    1    1    2    0    0  0.33734043672E+03 -0.48320681629E+03 -0.20136420350E+04  0.21036713849E+04  0.15294330000E+03 0.  0.
    8880022    1    1    2    0    0 -0.33734043672E+03  0.48320681629E+03  0.24880115428E+03  0.65770895154E+03  0.15294330000E+03 0.  0.
<mgrwt>
<rscale>  0 0.60883417E+03</rscale>
<asrwt>0</asrwt>
<pdfrwt beam="1">  1        2 0.34817086E+00 0.60883417E+03</pdfrwt>
<pdfrwt beam="2">  1       -2 0.76656883E-01 0.60883417E+03</pdfrwt>
<totfact> 0.77416696E+00</totfact>
</mgrwt>
</event>
<event>
 4    1  0.6912310E-008  0.9610117E+03  0.7818608E-02  0.9352371E-01
         -2   -1    0    0    0  501 -0.00000000000E+00  0.00000000000E+00  0.92794434306E+03  0.92794434306E+03  0.25500000000E-02 0.  1.
          2   -1    0    0  501    0  0.00000000000E+00 -0.00000000000E+00 -0.14142765938E+04  0.14142765938E+04  0.25500000000E-02 0. -1.
    8880022    1    1    2    0    0  0.88669576559E+03  0.33752394217E+03 -0.88061837886E+03  0.13034692840E+04  0.15294330000E+03 0.  0.
    8880022    1    1    2    0    0 -0.88669576559E+03 -0.33752394217E+03  0.39428612816E+03  0.10387516528E+04  0.15294330000E+03 0.  0.
<mgrwt>
<rscale>  0 0.96101168E+03</rscale>
<asrwt>0</asrwt>
<pdfrwt beam="1">  1        2 0.21758101E+00 0.96101168E+03</pdfrwt>
<pdfrwt beam="2">  1       -2 0.14276067E+00 0.96101168E+03</pdfrwt>
<totfact> 0.48313897E+00</totfact>
</mgrwt>
</event>
<event>
 4    1  0.6912310E-008  0.3052236E+03  0.7818608E-02  0.1082658E+00
         -2   -1    0    0    0  501 -0.00000000000E+00  0.00000000000E+00  0.13934569811E+03  0.13934569813E+03  0.25500000000E-02 0.  1.
          2   -1    0    0  501    0  0.00000000000E+00 -0.00000000000E+00 -0.19526796144E+04  0.19526796144E+04  0.25500000000E-02 0. -1.
    8880022    1    1    2    0    0  0.24239357634E+03 -0.10495320493E+03 -0.17549163541E+04  0.17812615990E+04  0.15294330000E+03 0.  0.
    8880022    1    1    2    0    0 -0.24239357634E+03  0.10495320493E+03 -0.58417562192E+02  0.31076371356E+03  0.15294330000E+03 0.  1.
<mgrwt>
<rscale>  0 0.30522365E+03</rscale>
<asrwt>0</asrwt>
<pdfrwt beam="1">  1        2 0.30041223E+00 0.30522365E+03</pdfrwt>
<pdfrwt beam="2">  1       -2 0.21437801E-01 0.30522365E+03</pdfrwt>
<totfact> 0.14646880E+02</totfact>
</mgrwt>
</event>
<event>
 4    1  0.6912310E-008  0.1057177E+04  0.7818608E-02  0.9247965E-01
          2   -1    0    0  501    0  0.00000000000E+00  0.00000000000E+00  0.11083672521E+04  0.11083672521E+04  0.25500000000E-02 0. -1.
         -2   -1    0    0    0  501 -0.00000000000E+00 -0.00000000000E+00 -0.20802152777E+04  0.20802152777E+04  0.25500000000E-02 0.  1.
    8880022    1    1    2    0    0  0.97692838293E+03  0.37395530622E+03  0.65849064859E+03  0.12454851359E+04  0.15294330000E+03 0.  0.
    8880022    1    1    2    0    0 -0.97692838293E+03 -0.37395530622E+03 -0.16303386742E+04  0.19430973939E+04  0.15294330000E+03 0.  0.
<mgrwt>
<rscale>  0 0.10571770E+04</rscale>
<asrwt>0</asrwt>
<pdfrwt beam="1">  1        2 0.17051804E+00 0.10571770E+04</pdfrwt>
<pdfrwt beam="2">  1       -2 0.32003312E+00 0.10571770E+04</pdfrwt>
<totfact> 0.51434201E-01</totfact>
</mgrwt>
</event>
<event>
 4    1  0.6912310E-008  0.3785014E+03  0.7818608E-02  0.1051489E+00
          2   -1    0    0  501    0  0.00000000000E+00  0.00000000000E+00  0.16872689314E+04  0.16872689314E+04  0.25500000000E-02 0. -1.
         -2   -1    0    0    0  501 -0.00000000000E+00 -0.00000000000E+00 -0.40143793784E+03  0.40143793785E+03  0.25500000000E-02 0.  1.
    8880022    1    1    2    0    0 -0.96787963342E+02  0.33242102853E+03 -0.28443821715E+03  0.47346425678E+03  0.15294330000E+03 0.  0.
    8880022    1    1    2    0    0  0.96787963342E+02 -0.33242102853E+03  0.15702692107E+04  0.16152426125E+04  0.15294330000E+03 0.  0.
<mgrwt>
<rscale>  0 0.37850139E+03</rscale>
<asrwt>0</asrwt>
<pdfrwt beam="1">  1        2 0.25957984E+00 0.37850139E+03</pdfrwt>
<pdfrwt beam="2">  1       -2 0.61759682E-01 0.37850139E+03</pdfrwt>
<totfact> 0.26596886E+01</totfact>
</mgrwt>
</event>
<event>
 4    1  0.6912310E-008  0.1893872E+03  0.7818608E-02  0.1159015E+00
          2   -1    0    0  501    0  0.00000000000E+00  0.00000000000E+00  0.38230114460E+03  0.38230114461E+03  0.25500000000E-02 0. -1.
         -2   -1    0    0    0  501 -0.00000000000E+00 -0.00000000000E+00 -0.12197911322E+03  0.12197911324E+03  0.25500000000E-02 0.  1.
    8880022    1    1    2    0    0 -0.49750731475E+02 -0.10000360860E+03  0.90152090267E+01  0.18960164562E+03  0.15294330000E+03 0.  1.
    8880022    1    1    2    0    0  0.49750731475E+02  0.10000360860E+03  0.25130682235E+03  0.31467861222E+03  0.15294330000E+03 0.  0.
<mgrwt>
<rscale>  0 0.18938720E+03</rscale>
<asrwt>0</asrwt>
<pdfrwt beam="1">  1        2 0.58815561E-01 0.18938720E+03</pdfrwt>
<pdfrwt beam="2">  1       -2 0.18766017E-01 0.18938720E+03</pdfrwt>
<totfact> 0.19466204E+03</totfact>
</mgrwt>
</event>
<event>
 4    1  0.6912310E-008  0.5162594E+03  0.7818608E-02  0.1009620E+00
         -2   -1    0    0    0  501 -0.00000000000E+00  0.00000000000E+00  0.33929734278E+03  0.33929734279E+03  0.25500000000E-02 0.  1.
          2   -1    0    0  501    0  0.00000000000E+00 -0.00000000000E+00 -0.13430718749E+04  0.13430718749E+04  0.25500000000E-02 0. -1.
    8880022    1    1    2    0    0  0.30883745819E+03 -0.38438461073E+03 -0.10438701646E+04  0.11645551417E+04  0.15294330000E+03 0.  0.
    8880022    1    1    2    0    0 -0.30883745819E+03  0.38438461073E+03  0.40095632456E+02  0.51781407600E+03  0.15294330000E+03 0.  0.
<mgrwt>
<rscale>  0 0.51625939E+03</rscale>
<asrwt>0</asrwt>
<pdfrwt beam="1">  1        2 0.20662644E+00 0.51625939E+03</pdfrwt>
<pdfrwt beam="2">  1       -2 0.52199592E-01 0.51625939E+03</pdfrwt>
<totfact> 0.56625444E+01</totfact>
</mgrwt>
</event>
<event>
 4    1  0.6912310E-008  0.5318392E+03  0.7818608E-02  0.1005787E+00
         -2   -1    0    0    0  501 -0.00000000000E+00  0.00000000000E+00  0.78309579038E+03  0.78309579039E+03  0.25500000000E-02 0.  1.
          2   -1    0    0  501    0  0.00000000000E+00 -0.00000000000E+00 -0.13677707477E+04  0.13677707477E+04  0.25500000000E-02 0. -1.
    8880022    1    1    2    0    0 -0.42744012139E+03  0.27704904480E+03 -0.12149074759E+04  0.13262175759E+04  0.15294330000E+03 0.  0.
    8880022    1    1    2    0    0  0.42744012139E+03 -0.27704904480E+03  0.63023251850E+03  0.82464896227E+03  0.15294330000E+03 0.  0.
<mgrwt>
<rscale>  0 0.53183915E+03</rscale>
<asrwt>0</asrwt>
<pdfrwt beam="1">  1        2 0.21042627E+00 0.53183915E+03</pdfrwt>
<pdfrwt beam="2">  1       -2 0.12047628E+00 0.53183915E+03</pdfrwt>
<totfact> 0.84110285E+00</totfact>
</mgrwt>
</event>
<event>
 4    1  0.6912310E-008  0.9459271E+03  0.7818608E-02  0.9369924E-01
          2   -1    0    0  501    0  0.00000000000E+00  0.00000000000E+00  0.23275357592E+04  0.23275357592E+04  0.25500000000E-02 0. -1.
         -2   -1    0    0    0  501 -0.00000000000E+00 -0.00000000000E+00 -0.65421730329E+03  0.65421730329E+03  0.25500000000E-02 0.  1.
    8880022    1    1    2    0    0 -0.39119353026E+03 -0.84755766589E+03 -0.12073371824E+03  0.95360089076E+03  0.15294330000E+03 0.  0.
    8880022    1    1    2    0    0  0.39119353026E+03  0.84755766589E+03  0.17940521742E+04  0.20281521718E+04  0.15294330000E+03 0.  0.
<mgrwt>
<rscale>  0 0.94592707E+03</rscale>
<asrwt>0</asrwt>
<pdfrwt beam="1">  1        2 0.35808242E+00 0.94592707E+03</pdfrwt>
<pdfrwt beam="2">  1       -2 0.10064882E+00 0.94592707E+03</pdfrwt>
<totfact> 0.36031250E+00</totfact>
</mgrwt>
</event>
<event>
 4    1  0.6912310E-008  0.6752056E+03  0.7818608E-02  0.9760599E-01
          2   -1    0    0  501    0  0.00000000000E+00  0.00000000000E+00  0.18166726453E+04  0.18166726453E+04  0.25500000000E-02 0. -1.
         -2   -1    0    0    0  501 -0.00000000000E+00 -0.00000000000E+00 -0.27606701949E+03  0.27606701950E+03  0.25500000000E-02 0.  1.
    8880022    1    1    2    0    0  0.63157203579E+03  0.18337863240E+03  0.45471442789E+03  0.81404411622E+03  0.15294330000E+03 0. -1.
    8880022    1    1    2    0    0 -0.63157203579E+03 -0.18337863240E+03  0.10858911979E+04  0.12786955485E+04  0.15294330000E+03 0.  0.
<mgrwt>
<rscale>  0 0.67520561E+03</rscale>
<asrwt>0</asrwt>
<pdfrwt beam="1">  1        2 0.27948810E+00 0.67520561E+03</pdfrwt>
<pdfrwt beam="2">  1       -2 0.42471849E-01 0.67520561E+03</pdfrwt>
<totfact> 0.46013910E+01</totfact>
</mgrwt>
</event>
<event>
 4    1  0.6912310E-008  0.2932991E+03  0.7818608E-02  0.1088639E+00
         -2   -1    0    0    0  501 -0.00000000000E+00  0.00000000000E+00  0.76022344949E+02  0.76022344992E+02  0.25500000000E-02 0.  1.
          2   -1    0    0  501    0  0.00000000000E+00 -0.00000000000E+00 -0.18463166354E+04  0.18463166354E+04  0.25500000000E-02 0. -1.
    8880022    1    1    2    0    0 -0.24629175721E+03 -0.44419424946E+02 -0.28711587669E+03  0.41043866124E+03  0.15294330000E+03 0.  0.
    8880022    1    1    2    0    0  0.24629175721E+03  0.44419424946E+02 -0.14831784138E+04  0.15119003192E+04  0.15294330000E+03 0. -1.
<mgrwt>
<rscale>  0 0.29329911E+03</rscale>
<asrwt>0</asrwt>
<pdfrwt beam="1">  1        2 0.28404868E+00 0.29329911E+03</pdfrwt>
<pdfrwt beam="2">  1       -2 0.11695747E-01 0.29329911E+03</pdfrwt>
<totfact> 0.46086330E+02</totfact>
</mgrwt>
</event>
<event>
 4    1  0.6912310E-008  0.9469757E+03  0.7818608E-02  0.9368692E-01
          2   -1    0    0  501    0  0.00000000000E+00  0.00000000000E+00  0.74006986204E+03  0.74006986205E+03  0.25500000000E-02 0. -1.
         -2   -1    0    0    0  501 -0.00000000000E+00 -0.00000000000E+00 -0.19928477307E+04  0.19928477307E+04  0.25500000000E-02 0.  1.
    8880022    1    1    2    0    0  0.72039585503E+03 -0.59531601317E+03 -0.14818858108E+04  0.17586212079E+04  0.15294330000E+03 0.  0.
    8880022    1    1    2    0    0 -0.72039585503E+03  0.59531601317E+03  0.22910794212E+03  0.97429638490E+03  0.15294330000E+03 0.  0.
<mgrwt>
<rscale>  0 0.94697571E+03</rscale>
<asrwt>0</asrwt>
<pdfrwt beam="1">  1        2 0.11385690E+00 0.94697571E+03</pdfrwt>
<pdfrwt beam="2">  1       -2 0.30659196E+00 0.94697571E+03</pdfrwt>
<totfact> 0.11194896E+00</totfact>
</mgrwt>
</event>
<event>
 4    1  0.6912310E-008  0.8270215E+03  0.7818608E-02  0.9521708E-01
         -2   -1    0    0    0  501 -0.00000000000E+00  0.00000000000E+00  0.77900699007E+03  0.77900699007E+03  0.25500000000E-02 0.  1.
          2   -1    0    0  501    0  0.00000000000E+00 -0.00000000000E+00 -0.10160963557E+04  0.10160963557E+04  0.25500000000E-02 0. -1.
    8880022    1    1    2    0    0 -0.78252121094E+03 -0.21962127588E+03 -0.44943972173E+03  0.94125483631E+03  0.15294330000E+03 0.  0.
    8880022    1    1    2    0    0  0.78252121094E+03  0.21962127588E+03  0.21235035609E+03  0.85384850948E+03  0.15294330000E+03 0.  0.
<mgrwt>
<rscale>  0 0.82702153E+03</rscale>
<asrwt>0</asrwt>
<pdfrwt beam="1">  1        2 0.15632252E+00 0.82702153E+03</pdfrwt>
<pdfrwt beam="2">  1       -2 0.11984723E+00 0.82702153E+03</pdfrwt>
<totfact> 0.13216569E+01</totfact>
</mgrwt>
</event>
<event>
 4    1  0.6912310E-008  0.8364070E+03  0.7818608E-02  0.9508765E-01
          2   -1    0    0  501    0  0.00000000000E+00  0.00000000000E+00  0.30336681294E+04  0.30336681294E+04  0.25500000000E-02 0. -1.
         -2   -1    0    0    0  501 -0.00000000000E+00 -0.00000000000E+00 -0.45247669567E+03  0.45247669568E+03  0.25500000000E-02 0.  1.
    8880022    1    1    2    0    0 -0.72458513626E+03 -0.38879485675E+03  0.70007922388E+02  0.83933177144E+03  0.15294330000E+03 0.  0.
    8880022    1    1    2    0    0  0.72458513626E+03  0.38879485675E+03  0.25111835113E+04  0.26468130537E+04  0.15294330000E+03 0.  0.
<mgrwt>
<rscale>  0 0.83640703E+03</rscale>
<asrwt>0</asrwt>
<pdfrwt beam="1">  1        2 0.46671818E+00 0.83640703E+03</pdfrwt>
<pdfrwt beam="2">  1       -2 0.69611799E-01 0.83640703E+03</pdfrwt>
<totfact> 0.32782689E+00</totfact>
</mgrwt>
</event>
<event>
 4    1  0.6912310E-008  0.5441698E+03  0.7818608E-02  0.1002852E+00
          2   -1    0    0  501    0  0.00000000000E+00  0.00000000000E+00  0.11411012360E+04  0.11411012360E+04  0.25500000000E-02 0. -1.
         -2   -1    0    0    0  501 -0.00000000000E+00 -0.00000000000E+00 -0.89600436323E+03  0.89600436323E+03  0.25500000000E-02 0.  1.
    8880022    1    1    2    0    0  0.48500866711E+03 -0.19363822289E+03 -0.73592659255E+03  0.91526431765E+03  0.15294330000E+03 0.  0.
    8880022    1    1    2    0    0 -0.48500866711E+03  0.19363822289E+03  0.98102346529E+03  0.11218412816E+04  0.15294330000E+03 0.  0.
<mgrwt>
<rscale>  0 0.54416985E+03</rscale>
<asrwt>0</asrwt>
<pdfrwt beam="1">  1        2 0.17555404E+00 0.54416985E+03</pdfrwt>
<pdfrwt beam="2">  1       -2 0.13784682E+00 0.54416985E+03</pdfrwt>
<totfact> 0.80867982E+00</totfact>
</mgrwt>
</event>
<event>
 4    1  0.6912310E-008  0.4762267E+03  0.7818608E-02  0.1020177E+00
          2   -1    0    0  501    0  0.00000000000E+00  0.00000000000E+00  0.21230569259E+03  0.21230569260E+03  0.25500000000E-02 0. -1.
         -2   -1    0    0    0  501 -0.00000000000E+00 -0.00000000000E+00 -0.26108247339E+04  0.26108247339E+04  0.25500000000E-02 0.  1.
    8880022    1    1    2    0    0  0.42941634794E+03  0.13784695345E+03 -0.11423972524E+03  0.48973722575E+03  0.15294330000E+03 0.  0.
    8880022    1    1    2    0    0 -0.42941634794E+03 -0.13784695345E+03 -0.22842793161E+04  0.23333932008E+04  0.15294330000E+03 0.  0.
<mgrwt>
<rscale>  0 0.47622666E+03</rscale>
<asrwt>0</asrwt>
<pdfrwt beam="1">  1        2 0.32662416E-01 0.47622666E+03</pdfrwt>
<pdfrwt beam="2">  1       -2 0.40166532E+00 0.47622666E+03</pdfrwt>
<totfact> 0.13140225E+00</totfact>
</mgrwt>
</event>
<event>
 4    1  0.6912310E-008  0.3249759E+03  0.7818608E-02  0.1073382E+00
         -2   -1    0    0    0  501 -0.00000000000E+00  0.00000000000E+00  0.29320596957E+03  0.29320596958E+03  0.25500000000E-02 0.  1.
          2   -1    0    0  501    0  0.00000000000E+00 -0.00000000000E+00 -0.10826397892E+04  0.10826397892E+04  0.25500000000E-02 0. -1.
    8880022    1    1    2    0    0  0.28104471349E+03  0.56846949974E+02 -0.95667264377E+03  0.10103622653E+04  0.15294330000E+03 0.  0.
    8880022    1    1    2    0    0 -0.28104471349E+03 -0.56846949974E+02  0.16723882416E+03  0.36548349350E+03  0.15294330000E+03 0.  0.
<mgrwt>
<rscale>  0 0.32497594E+03</rscale>
<asrwt>0</asrwt>
<pdfrwt beam="1">  1        2 0.16655997E+00 0.32497594E+03</pdfrwt>
<pdfrwt beam="2">  1       -2 0.45108611E-01 0.32497594E+03</pdfrwt>
<totfact> 0.11057521E+02</totfact>
</mgrwt>
</event>
<event>
 4    1  0.6912310E-008  0.7594171E+03  0.7818608E-02  0.9620691E-01
         -2   -1    0    0    0  501 -0.00000000000E+00  0.00000000000E+00  0.96521229332E+03  0.96521229332E+03  0.25500000000E-02 0.  1.
          2   -1    0    0  501    0  0.00000000000E+00 -0.00000000000E+00 -0.14294919076E+04  0.14294919076E+04  0.25500000000E-02 0. -1.
    8880022    1    1    2    0    0 -0.61982116692E+03 -0.41127163823E+03 -0.11456020380E+04  0.13744520078E+04  0.15294330000E+03 0.  0.
    8880022    1    1    2    0    0  0.61982116692E+03  0.41127163823E+03  0.68132242373E+03  0.10202521931E+04  0.15294330000E+03 0.  0.
<mgrwt>
<rscale>  0 0.75941707E+03</rscale>
<asrwt>0</asrwt>
<pdfrwt beam="1">  1        2 0.21992183E+00 0.75941707E+03</pdfrwt>
<pdfrwt beam="2">  1       -2 0.14849420E+00 0.75941707E+03</pdfrwt>
<totfact> 0.43850705E+00</totfact>
</mgrwt>
</event>
<event>
 4    1  0.6912310E-008  0.2386755E+03  0.7818608E-02  0.1120678E+00
          2   -1    0    0  501    0  0.00000000000E+00  0.00000000000E+00  0.27794376640E+04  0.27794376640E+04  0.25500000000E-02 0. -1.
         -2   -1    0    0    0  501 -0.00000000000E+00 -0.00000000000E+00 -0.22067226006E+02  0.22067226153E+02  0.25500000000E-02 0.  1.
    8880022    1    1    2    0    0  0.17454692343E+03 -0.55746899159E+02  0.10048551113E+04  0.10328115960E+04  0.15294330000E+03 0. -1.
    8880022    1    1    2    0    0 -0.17454692343E+03  0.55746899159E+02  0.17525153267E+04  0.17686932941E+04  0.15294330000E+03 0.  1.
<mgrwt>
<rscale>  0 0.23867551E+03</rscale>
<asrwt>0</asrwt>
<pdfrwt beam="1">  1        2 0.42760568E+00 0.23867551E+03</pdfrwt>
<pdfrwt beam="2">  1       -2 0.33949588E-02 0.23867551E+03</pdfrwt>
<totfact> 0.99053197E+02</totfact>
</mgrwt>
</event>
<event>
 4    1  0.6912310E-008  0.3377519E+03  0.7818608E-02  0.1067757E+00
         -2   -1    0    0    0  501 -0.00000000000E+00  0.00000000000E+00  0.39016765494E+03  0.39016765495E+03  0.25500000000E-02 0.  1.
          2   -1    0    0  501    0  0.00000000000E+00 -0.00000000000E+00 -0.32673448035E+04  0.32673448035E+04  0.25500000000E-02 0. -1.
    8880022    1    1    2    0    0  0.26738047871E+03  0.13853655830E+03 -0.31836045717E+04  0.32014706653E+04  0.15294330000E+03 0.  0.
    8880022    1    1    2    0    0 -0.26738047871E+03 -0.13853655830E+03  0.30642742322E+03  0.45604179315E+03  0.15294330000E+03 0.  0.
<mgrwt>
<rscale>  0 0.33775191E+03</rscale>
<asrwt>0</asrwt>
<pdfrwt beam="1">  1        2 0.50266841E+00 0.33775191E+03</pdfrwt>
<pdfrwt beam="2">  1       -2 0.60025795E-01 0.33775191E+03</pdfrwt>
<totfact> 0.37093094E+00</totfact>
</mgrwt>
</event>
<event>
 4    1  0.6912310E-008  0.3989008E+03  0.7818608E-02  0.1044161E+00
          2   -1    0    0  501    0  0.00000000000E+00  0.00000000000E+00  0.57876380773E+03  0.57876380774E+03  0.25500000000E-02 0. -1.
         -2   -1    0    0    0  501 -0.00000000000E+00 -0.00000000000E+00 -0.14141933045E+04  0.14141933045E+04  0.25500000000E-02 0.  1.
    8880022    1    1    2    0    0 -0.50596998351E+01  0.36838103458E+03  0.47667098658E+03  0.62156018990E+03  0.15294330000E+03 0.  0.
    8880022    1    1    2    0    0  0.50596998351E+01 -0.36838103458E+03 -0.13121004834E+04  0.13713969224E+04  0.15294330000E+03 0.  1.
<mgrwt>
<rscale>  0 0.39890079E+03</rscale>
<asrwt>0</asrwt>
<pdfrwt beam="1">  1        2 0.89040586E-01 0.39890079E+03</pdfrwt>
<pdfrwt beam="2">  1       -2 0.21756820E+00 0.39890079E+03</pdfrwt>
<totfact> 0.57618343E+00</totfact>
</mgrwt>
</event>
<event>
 4    1  0.6912310E-008  0.3109634E+03  0.7818608E-02  0.1079885E+00
          2   -1    0    0  501    0  0.00000000000E+00  0.00000000000E+00  0.14839498987E+04  0.14839498987E+04  0.25500000000E-02 0. -1.
         -2   -1    0    0    0  501 -0.00000000000E+00 -0.00000000000E+00 -0.25392966130E+03  0.25392966131E+03  0.25500000000E-02 0.  1.
    8880022    1    1    2    0    0  0.26698214242E+03 -0.45023551697E+02  0.13642069163E+04  0.13991993239E+04  0.15294330000E+03 0. -1.
    8880022    1    1    2    0    0 -0.26698214242E+03  0.45023551697E+02 -0.13418667882E+03  0.33868023616E+03  0.15294330000E+03 0.  0.
<mgrwt>
<rscale>  0 0.31096340E+03</rscale>
<asrwt>0</asrwt>
<pdfrwt beam="1">  1        2 0.22829998E+00 0.31096340E+03</pdfrwt>
<pdfrwt beam="2">  1       -2 0.39066103E-01 0.31096340E+03</pdfrwt>
<totfact> 0.87070460E+01</totfact>
</mgrwt>
</event>
<event>
 4    1  0.6912310E-008  0.1929584E+03  0.7818608E-02  0.1155820E+00
          2   -1    0    0  501    0  0.00000000000E+00  0.00000000000E+00  0.24206466063E+03  0.24206466065E+03  0.25500000000E-02 0. -1.
         -2   -1    0    0    0  501 -0.00000000000E+00 -0.00000000000E+00 -0.47015403382E+03  0.47015403383E+03  0.25500000000E-02 0.  1.
    8880022    1    1    2    0    0  0.10497957246E+03 -0.53109213310E+02 -0.40615057781E+03  0.44965680695E+03  0.15294330000E+03 0.  0.
    8880022    1    1    2    0    0 -0.10497957246E+03  0.53109213310E+02  0.17806120462E+03  0.26256188752E+03  0.15294330000E+03 0. -1.
<mgrwt>
<rscale>  0 0.19295842E+03</rscale>
<asrwt>0</asrwt>
<pdfrwt beam="1">  1        2 0.37240717E-01 0.19295842E+03</pdfrwt>
<pdfrwt beam="2">  1       -2 0.72331390E-01 0.19295842E+03</pdfrwt>
<totfact> 0.24775360E+02</totfact>
</mgrwt>
</event>
<event>
 4    1  0.6912310E-008  0.3077268E+03  0.7818608E-02  0.1081441E+00
          2   -1    0    0  501    0  0.00000000000E+00  0.00000000000E+00  0.16056111333E+04  0.16056111333E+04  0.25500000000E-02 0. -1.
         -2   -1    0    0    0  501 -0.00000000000E+00 -0.00000000000E+00 -0.61536316202E+03  0.61536316202E+03  0.25500000000E-02 0.  1.
    8880022    1    1    2    0    0  0.23899456917E+02  0.26595663183E+03  0.15510550123E+04  0.15812866338E+04  0.15294330000E+03 0.  0.
    8880022    1    1    2    0    0 -0.23899456917E+02 -0.26595663183E+03 -0.56080704100E+03  0.63968766153E+03  0.15294330000E+03 0.  0.
<mgrwt>
<rscale>  0 0.30772677E+03</rscale>
<asrwt>0</asrwt>
<pdfrwt beam="1">  1        2 0.24701710E+00 0.30772677E+03</pdfrwt>
<pdfrwt beam="2">  1       -2 0.94671255E-01 0.30772677E+03</pdfrwt>
<totfact> 0.11729789E+01</totfact>
</mgrwt>
</event>
<event>
 4    1  0.6912310E-008  0.4376073E+03  0.7818608E-02  0.1031483E+00
          2   -1    0    0  501    0  0.00000000000E+00  0.00000000000E+00  0.64146210454E+03  0.64146210454E+03  0.25500000000E-02 0. -1.
         -2   -1    0    0    0  501 -0.00000000000E+00 -0.00000000000E+00 -0.43947815163E+03  0.43947815164E+03  0.25500000000E-02 0.  1.
    8880022    1    1    2    0    0 -0.71963555858E+01 -0.40994721282E+03 -0.20507889029E+03  0.48327787979E+03  0.15294330000E+03 0.  1.
    8880022    1    1    2    0    0  0.71963555858E+01  0.40994721282E+03  0.40706284319E+03  0.59766237640E+03  0.15294330000E+03 0.  0.
<mgrwt>
<rscale>  0 0.43760731E+03</rscale>
<asrwt>0</asrwt>
<pdfrwt beam="1">  1        2 0.98686478E-01 0.43760731E+03</pdfrwt>
<pdfrwt beam="2">  1       -2 0.67612023E-01 0.43760731E+03</pdfrwt>
<totfact> 0.94981083E+01</totfact>
</mgrwt>
</event>
<event>
 4    1  0.6912310E-008  0.4068775E+03  0.7818608E-02  0.1041424E+00
          2   -1    0    0  501    0  0.00000000000E+00  0.00000000000E+00  0.19213281163E+04  0.19213281163E+04  0.25500000000E-02 0. -1.
         -2   -1    0    0    0  501 -0.00000000000E+00 -0.00000000000E+00 -0.14960818673E+03  0.14960818675E+03  0.25500000000E-02 0.  1.
    8880022    1    1    2    0    0  0.34502737427E+02 -0.37545596123E+03  0.15601629209E+04  0.16123453757E+04  0.15294330000E+03 0.  1.
    8880022    1    1    2    0    0 -0.34502737427E+02  0.37545596123E+03  0.21155700861E+03  0.45859092732E+03  0.15294330000E+03 0.  0.
<mgrwt>
<rscale>  0 0.40687746E+03</rscale>
<asrwt>0</asrwt>
<pdfrwt beam="1">  1        2 0.29558891E+00 0.40687746E+03</pdfrwt>
<pdfrwt beam="2">  1       -2 0.23016647E-01 0.40687746E+03</pdfrwt>
<totfact> 0.13160219E+02</totfact>
</mgrwt>
</event>
<event>
 4    1  0.6912310E-008  0.5824251E+03  0.7818608E-02  0.9942555E-01
         -2   -1    0    0    0  501 -0.00000000000E+00  0.00000000000E+00  0.40194995342E+03  0.40194995343E+03  0.25500000000E-02 0.  1.
          2   -1    0    0  501    0  0.00000000000E+00 -0.00000000000E+00 -0.16106725672E+04  0.16106725672E+04  0.25500000000E-02 0. -1.
    8880022    1    1    2    0    0 -0.26692310552E+02 -0.56135089882E+03  0.89947293129E+02  0.58932968668E+03  0.15294330000E+03 0.  0.
    8880022    1    1    2    0    0  0.26692310552E+02  0.56135089882E+03 -0.12986699069E+04  0.14232928339E+04  0.15294330000E+03 0.  0.
<mgrwt>
<rscale>  0 0.58242507E+03</rscale>
<asrwt>0</asrwt>
<pdfrwt beam="1">  1        2 0.24779578E+00 0.58242507E+03</pdfrwt>
<pdfrwt beam="2">  1       -2 0.61838455E-01 0.58242507E+03</pdfrwt>
<totfact> 0.28030735E+01</totfact>
</mgrwt>
</event>
<event>
 4    1  0.6912310E-008  0.6317722E+03  0.7818608E-02  0.9841597E-01
          2   -1    0    0  501    0  0.00000000000E+00  0.00000000000E+00  0.16921043383E+04  0.16921043383E+04  0.25500000000E-02 0. -1.
         -2   -1    0    0    0  501 -0.00000000000E+00 -0.00000000000E+00 -0.53109914673E+03  0.53109914673E+03  0.25500000000E-02 0.  1.
    8880022    1    1    2    0    0 -0.67643617548E+02 -0.60923621066E+03  0.14092698634E+04  0.15444020268E+04  0.15294330000E+03 0.  0.
    8880022    1    1    2    0    0  0.67643617548E+02  0.60923621066E+03 -0.24826467187E+03  0.67880145822E+03  0.15294330000E+03 0.  0.
<mgrwt>
<rscale>  0 0.63177217E+03</rscale>
<asrwt>0</asrwt>
<pdfrwt beam="1">  1        2 0.26032374E+00 0.63177217E+03</pdfrwt>
<pdfrwt beam="2">  1       -2 0.81707561E-01 0.63177217E+03</pdfrwt>
<totfact> 0.13662648E+01</totfact>
</mgrwt>
</event>
<event>
 4    1  0.6912310E-008  0.7205669E+03  0.7818608E-02  0.9682692E-01
          2   -1    0    0  501    0  0.00000000000E+00  0.00000000000E+00  0.15435692220E+04  0.15435692220E+04  0.25500000000E-02 0. -1.
         -2   -1    0    0    0  501 -0.00000000000E+00 -0.00000000000E+00 -0.36913326790E+03  0.36913326791E+03  0.25500000000E-02 0.  1.
    8880022    1    1    2    0    0 -0.54736242235E+03 -0.44296657647E+03  0.87211798434E+03  0.11312853048E+04  0.15294330000E+03 0.  0.
    8880022    1    1    2    0    0  0.54736242235E+03  0.44296657647E+03  0.30231796973E+03  0.78141718506E+03  0.15294330000E+03 0.  0.
<mgrwt>
<rscale>  0 0.72056690E+03</rscale>
<asrwt>0</asrwt>
<pdfrwt beam="1">  1        2 0.23747219E+00 0.72056690E+03</pdfrwt>
<pdfrwt beam="2">  1       -2 0.56789733E-01 0.72056690E+03</pdfrwt>
<totfact> 0.35822895E+01</totfact>
</mgrwt>
</event>
<event>
 4    1  0.6912310E-008  0.1850410E+03  0.7818608E-02  0.1163012E+00
          2   -1    0    0  501    0  0.00000000000E+00  0.00000000000E+00  0.86481984195E+03  0.86481984195E+03  0.25500000000E-02 0. -1.
         -2   -1    0    0    0  501 -0.00000000000E+00 -0.00000000000E+00 -0.12377201164E+03  0.12377201167E+03  0.25500000000E-02 0.  1.
    8880022    1    1    2    0    0  0.16996637036E+02 -0.10276003582E+03 -0.37118768513E+02  0.18872722809E+03  0.15294330000E+03 0.  1.
    8880022    1    1    2    0    0 -0.16996637036E+02  0.10276003582E+03  0.77816659882E+03  0.79986462553E+03  0.15294330000E+03 0.  0.
<mgrwt>
<rscale>  0 0.18504098E+03</rscale>
<asrwt>0</asrwt>
<pdfrwt beam="1">  1        2 0.13304920E+00 0.18504098E+03</pdfrwt>
<pdfrwt beam="2">  1       -2 0.19041848E-01 0.18504098E+03</pdfrwt>
<totfact> 0.73842239E+02</totfact>
</mgrwt>
</event>
<event>
 4    1  0.1107729E-007  0.8655793E+03  0.7818608E-02  0.9469662E-01
          2   -1    0    0  501    0  0.00000000000E+00  0.00000000000E+00  0.22120352287E+04  0.22120352287E+04  0.25500000000E-02 0. -1.
         -2   -1    0    0    0  501 -0.00000000000E+00 -0.00000000000E+00 -0.11279639833E+04  0.11279639833E+04  0.25500000000E-02 0.  1.
    8880022    1    1    2    0    0  0.36785346028E+03  0.76845274684E+03 -0.85490682040E+03  0.12165907763E+04  0.15294330000E+03 0.  1.
    8880022    1    1    2    0    0 -0.36785346028E+03 -0.76845274684E+03  0.19389780657E+04  0.21234084357E+04  0.15294330000E+03 0.  0.
<mgrwt>
<rscale>  0 0.86557925E+03</rscale>
<asrwt>0</asrwt>
<pdfrwt beam="1">  1        2 0.34031311E+00 0.86557925E+03</pdfrwt>
<pdfrwt beam="2">  1       -2 0.17353292E+00 0.86557925E+03</pdfrwt>
<totfact> 0.10464283E+00</totfact>
</mgrwt>
</event>
<event>
 4    1  0.6912310E-008  0.2319083E+03  0.7818608E-02  0.1125304E+00
          2   -1    0    0  501    0  0.00000000000E+00  0.00000000000E+00  0.70285949231E+03  0.70285949231E+03  0.25500000000E-02 0. -1.
         -2   -1    0    0    0  501 -0.00000000000E+00 -0.00000000000E+00 -0.14710533448E+03  0.14710533450E+03  0.25500000000E-02 0.  1.
    8880022    1    1    2    0    0  0.73481964755E+02  0.15808288794E+03  0.57226495777E+03  0.61746954055E+03  0.15294330000E+03 0. -1.
    8880022    1    1    2    0    0 -0.73481964755E+02 -0.15808288794E+03 -0.16510799933E+02  0.23249528626E+03  0.15294330000E+03 0.  0.
<mgrwt>
<rscale>  0 0.23190828E+03</rscale>
<asrwt>0</asrwt>
<pdfrwt beam="1">  1        2 0.10813223E+00 0.23190828E+03</pdfrwt>
<pdfrwt beam="2">  1       -2 0.22631590E-01 0.23190828E+03</pdfrwt>
<totfact> 0.71087181E+02</totfact>
</mgrwt>
</event>
<event>
 4    1  0.6912310E-008  0.5247197E+03  0.7818608E-02  0.1007521E+00
         -2   -1    0    0    0  501 -0.00000000000E+00  0.00000000000E+00  0.12149619132E+04  0.12149619132E+04  0.25500000000E-02 0.  1.
          2   -1    0    0  501    0  0.00000000000E+00 -0.00000000000E+00 -0.49786691989E+03  0.49786691990E+03  0.25500000000E-02 0. -1.
    8880022    1    1    2    0    0 -0.40723778539E+03  0.29342198968E+03  0.99068613449E+03  0.11210663441E+04  0.15294330000E+03 0.  0.
    8880022    1    1    2    0    0  0.40723778539E+03 -0.29342198968E+03 -0.27359114114E+03  0.59176248901E+03  0.15294330000E+03 0.  0.
<mgrwt>
<rscale>  0 0.52471967E+03</rscale>
<asrwt>0</asrwt>
<pdfrwt beam="1">  1        2 0.76594912E-01 0.52471967E+03</pdfrwt>
<pdfrwt beam="2">  1       -2 0.18691722E+00 0.52471967E+03</pdfrwt>
<totfact> 0.10529934E+01</totfact>
</mgrwt>
</event>
<event>
 4    1  0.6912310E-008  0.6222968E+03  0.7818608E-02  0.9860197E-01
          2   -1    0    0  501    0  0.00000000000E+00  0.00000000000E+00  0.88034722764E+03  0.88034722765E+03  0.25500000000E-02 0. -1.
         -2   -1    0    0    0  501 -0.00000000000E+00 -0.00000000000E+00 -0.97875810764E+03  0.97875810764E+03  0.25500000000E-02 0.  1.
    8880022    1    1    2    0    0  0.31349317334E+03 -0.51534809475E+03 -0.73893489593E+03  0.96606317699E+03  0.15294330000E+03 0.  0.
    8880022    1    1    2    0    0 -0.31349317334E+03  0.51534809475E+03  0.64052401593E+03  0.89304215830E+03  0.15294330000E+03 0.  0.
<mgrwt>
<rscale>  0 0.62229678E+03</rscale>
<asrwt>0</asrwt>
<pdfrwt beam="1">  1        2 0.13543804E+00 0.62229678E+03</pdfrwt>
<pdfrwt beam="2">  1       -2 0.15057817E+00 0.62229678E+03</pdfrwt>
<totfact> 0.92736608E+00</totfact>
</mgrwt>
</event>
<event>
 4    1  0.6912310E-008  0.8458136E+03  0.7818608E-02  0.9495973E-01
         -2   -1    0    0    0  501 -0.00000000000E+00  0.00000000000E+00  0.35301371761E+03  0.35301371762E+03  0.25500000000E-02 0.  1.
          2   -1    0    0  501    0  0.00000000000E+00 -0.00000000000E+00 -0.25807823327E+04  0.25807823327E+04  0.25500000000E-02 0. -1.
    8880022    1    1    2    0    0  0.81707218055E+03  0.15621146107E+03 -0.17936659280E+04  0.19830880170E+04  0.15294330000E+03 0.  0.
    8880022    1    1    2    0    0 -0.81707218055E+03 -0.15621146107E+03 -0.43410268715E+03  0.95070803342E+03  0.15294330000E+03 0.  0.
<mgrwt>
<rscale>  0 0.84581359E+03</rscale>
<asrwt>0</asrwt>
<pdfrwt beam="1">  1        2 0.39704342E+00 0.84581359E+03</pdfrwt>
<pdfrwt beam="2">  1       -2 0.54309804E-01 0.84581359E+03</pdfrwt>
<totfact> 0.10316881E+01</totfact>
</mgrwt>
</event>
<event>
 4    1  0.6912310E-008  0.5053431E+03  0.7818608E-02  0.1012394E+00
          2   -1    0    0  501    0  0.00000000000E+00  0.00000000000E+00  0.10580707563E+04  0.10580707563E+04  0.25500000000E-02 0. -1.
         -2   -1    0    0    0  501 -0.00000000000E+00 -0.00000000000E+00 -0.34412937877E+03  0.34412937878E+03  0.25500000000E-02 0.  1.
    8880022    1    1    2    0    0 -0.33813052157E+03  0.34299812153E+03 -0.26171233300E+02  0.50602030340E+03  0.15294330000E+03 0.  0.
    8880022    1    1    2    0    0  0.33813052157E+03 -0.34299812153E+03  0.74011261083E+03  0.89617983168E+03  0.15294330000E+03 0.  0.
<mgrwt>
<rscale>  0 0.50534307E+03</rscale>
<asrwt>0</asrwt>
<pdfrwt beam="1">  1        2 0.16278012E+00 0.50534307E+03</pdfrwt>
<pdfrwt beam="2">  1       -2 0.52942982E-01 0.50534307E+03</pdfrwt>
<totfact> 0.80896670E+01</totfact>
</mgrwt>
</event>
<event>
 4    1  0.6912310E-008  0.6831563E+03  0.7818608E-02  0.9746479E-01
          2   -1    0    0  501    0  0.00000000000E+00  0.00000000000E+00  0.98276348344E+03  0.98276348345E+03  0.25500000000E-02 0. -1.
         -2   -1    0    0    0  501 -0.00000000000E+00 -0.00000000000E+00 -0.64269654022E+03  0.64269654022E+03  0.25500000000E-02 0.  1.
    8880022    1    1    2    0    0 -0.44363110267E+03  0.49648996715E+03 -0.24525556269E+03  0.72584625561E+03  0.15294330000E+03 0.  0.
    8880022    1    1    2    0    0  0.44363110267E+03 -0.49648996715E+03  0.58532250592E+03  0.89961376806E+03  0.15294330000E+03 0.  0.
<mgrwt>
<rscale>  0 0.68315627E+03</rscale>
<asrwt>0</asrwt>
<pdfrwt beam="1">  1        2 0.15119438E+00 0.68315627E+03</pdfrwt>
<pdfrwt beam="2">  1       -2 0.98876390E-01 0.68315627E+03</pdfrwt>
<totfact> 0.22440002E+01</totfact>
</mgrwt>
</event>
<event>
 4    1  0.6912310E-008  0.5587041E+03  0.7818608E-02  0.9994991E-01
         -2   -1    0    0    0  501 -0.00000000000E+00  0.00000000000E+00  0.40769543924E+03  0.40769543924E+03  0.25500000000E-02 0.  1.
          2   -1    0    0  501    0  0.00000000000E+00 -0.00000000000E+00 -0.12002787149E+04  0.12002787149E+04  0.25500000000E-02 0. -1.
    8880022    1    1    2    0    0  0.12640753477E+03  0.52228318511E+03 -0.88009556847E+03  0.10424578903E+04  0.15294330000E+03 0.  0.
    8880022    1    1    2    0    0 -0.12640753477E+03 -0.52228318511E+03  0.87512292821E+02  0.56551626388E+03  0.15294330000E+03 0.  0.
<mgrwt>
<rscale>  0 0.55870407E+03</rscale>
<asrwt>0</asrwt>
<pdfrwt beam="1">  1        2 0.18465826E+00 0.55870407E+03</pdfrwt>
<pdfrwt beam="2">  1       -2 0.62722376E-01 0.55870407E+03</pdfrwt>
<totfact> 0.46397185E+01</totfact>
</mgrwt>
</event>
<event>
 4    1  0.6912310E-008  0.5907876E+03  0.7818608E-02  0.9924705E-01
         -2   -1    0    0    0  501 -0.00000000000E+00  0.00000000000E+00  0.78355989624E+03  0.78355989624E+03  0.25500000000E-02 0.  1.
          2   -1    0    0  501    0  0.00000000000E+00 -0.00000000000E+00 -0.73150433242E+03  0.73150433243E+03  0.25500000000E-02 0. -1.
    8880022    1    1    2    0    0  0.46735774473E+03  0.32743720113E+03  0.49974958438E+03  0.77380855665E+03  0.15294330000E+03 0.  0.
    8880022    1    1    2    0    0 -0.46735774473E+03 -0.32743720113E+03 -0.44769402056E+03  0.74125567202E+03  0.15294330000E+03 0.  0.
<mgrwt>
<rscale>  0 0.59078764E+03</rscale>
<asrwt>0</asrwt>
<pdfrwt beam="1">  1        2 0.11253913E+00 0.59078764E+03</pdfrwt>
<pdfrwt beam="2">  1       -2 0.12054768E+00 0.59078764E+03</pdfrwt>
<totfact> 0.20970647E+01</totfact>
</mgrwt>
</event>
<event>
 4    1  0.6912310E-008  0.1864272E+03  0.7818608E-02  0.1161724E+00
          2   -1    0    0  501    0  0.00000000000E+00  0.00000000000E+00  0.20420629642E+04  0.20420629642E+04  0.25500000000E-02 0. -1.
         -2   -1    0    0    0  501 -0.00000000000E+00 -0.00000000000E+00 -0.37714077205E+02  0.37714077291E+02  0.25500000000E-02 0.  1.
    8880022    1    1    2    0    0  0.54779923650E+02  0.91447223104E+02  0.17724787182E+04  0.17822558442E+04  0.15294330000E+03 0. -1.
    8880022    1    1    2    0    0 -0.54779923650E+02 -0.91447223104E+02  0.23187016874E+03  0.29752119726E+03  0.15294330000E+03 0.  0.
<mgrwt>
<rscale>  0 0.18642716E+03</rscale>
<asrwt>0</asrwt>
<pdfrwt beam="1">  1        2 0.31416375E+00 0.18642716E+03</pdfrwt>
<pdfrwt beam="2">  1       -2 0.58021618E-02 0.18642716E+03</pdfrwt>
<totfact> 0.11126926E+03</totfact>
</mgrwt>
</event>
<event>
 4    1  0.6912310E-008  0.5845471E+03  0.7818608E-02  0.9937995E-01
          2   -1    0    0  501    0  0.00000000000E+00  0.00000000000E+00  0.21005395615E+04  0.21005395615E+04  0.25500000000E-02 0. -1.
         -2   -1    0    0    0  501 -0.00000000000E+00 -0.00000000000E+00 -0.35908110196E+03  0.35908110197E+03  0.25500000000E-02 0.  1.
    8880022    1    1    2    0    0  0.12180835633E+03 -0.55087786295E+03  0.17802750334E+04  0.18737861519E+04  0.15294330000E+03 0.  0.
    8880022    1    1    2    0    0 -0.12180835633E+03  0.55087786295E+03 -0.38816573815E+02  0.58583451160E+03  0.15294330000E+03 0.  0.
<mgrwt>
<rscale>  0 0.58454713E+03</rscale>
<asrwt>0</asrwt>
<pdfrwt beam="1">  1        2 0.32315993E+00 0.58454713E+03</pdfrwt>
<pdfrwt beam="2">  1       -2 0.55243247E-01 0.58454713E+03</pdfrwt>
<totfact> 0.19256995E+01</totfact>
</mgrwt>
</event>
<event>
 4    1  0.6912310E-008  0.4822401E+03  0.7818608E-02  0.1018521E+00
         -2   -1    0    0    0  501 -0.00000000000E+00  0.00000000000E+00  0.19320347778E+03  0.19320347780E+03  0.25500000000E-02 0.  1.
          2   -1    0    0  501    0  0.00000000000E+00 -0.00000000000E+00 -0.21788286088E+04  0.21788286088E+04  0.25500000000E-02 0. -1.
    8880022    1    1    2    0    0 -0.16121686421E+02  0.45706008719E+03 -0.17862525086E+04  0.18502036400E+04  0.15294330000E+03 0.  0.
    8880022    1    1    2    0    0  0.16121686421E+02 -0.45706008719E+03 -0.19937262243E+03  0.52182844658E+03  0.15294330000E+03 0.  0.
<mgrwt>
<rscale>  0 0.48224007E+03</rscale>
<asrwt>0</asrwt>
<pdfrwt beam="1">  1        2 0.33520438E+00 0.48224007E+03</pdfrwt>
<pdfrwt beam="2">  1       -2 0.29723614E-01 0.48224007E+03</pdfrwt>
<totfact> 0.59533176E+01</totfact>
</mgrwt>
</event>
<event>
 4    1  0.6912310E-008  0.6782694E+03  0.7818608E-02  0.9755133E-01
         -2   -1    0    0    0  501 -0.00000000000E+00  0.00000000000E+00  0.15786509385E+03  0.15786509387E+03  0.25500000000E-02 0.  1.
          2   -1    0    0  501    0  0.00000000000E+00 -0.00000000000E+00 -0.43860071767E+04  0.43860071767E+04  0.25500000000E-02 0. -1.
    8880022    1    1    2    0    0  0.65478980938E+03 -0.88927270533E+02 -0.79797407175E+03  0.10472879385E+04  0.15294330000E+03 0.  0.
    8880022    1    1    2    0    0 -0.65478980938E+03  0.88927270533E+02 -0.34301680111E+04  0.34965843321E+04  0.15294330000E+03 0.  0.
<mgrwt>
<rscale>  0 0.67826942E+03</rscale>
<asrwt>0</asrwt>
<pdfrwt beam="1">  1        2 0.67477024E+00 0.67826942E+03</pdfrwt>
<pdfrwt beam="2">  1       -2 0.24286941E-01 0.67826942E+03</pdfrwt>
<totfact> 0.27413051E+00</totfact>
</mgrwt>
</event>
<event>
 4    1  0.6912310E-008  0.5824028E+03  0.7818608E-02  0.9942602E-01
         -2   -1    0    0    0  501 -0.00000000000E+00  0.00000000000E+00  0.22605269273E+03  0.22605269274E+03  0.25500000000E-02 0.  1.
          2   -1    0    0  501    0  0.00000000000E+00 -0.00000000000E+00 -0.16864016175E+04  0.16864016175E+04  0.25500000000E-02 0. -1.
    8880022    1    1    2    0    0  0.52174220633E+03 -0.20877373642E+03 -0.10476549465E+04  0.11986550558E+04  0.15294330000E+03 0.  0.
    8880022    1    1    2    0    0 -0.52174220633E+03  0.20877373642E+03 -0.41269397821E+03  0.71379925438E+03  0.15294330000E+03 0.  0.
<mgrwt>
<rscale>  0 0.58240283E+03</rscale>
<asrwt>0</asrwt>
<pdfrwt beam="1">  1        2 0.25944639E+00 0.58240283E+03</pdfrwt>
<pdfrwt beam="2">  1       -2 0.34777338E-01 0.58240283E+03</pdfrwt>
<totfact> 0.80627654E+01</totfact>
</mgrwt>
</event>
<event>
 4    1  0.6912310E-008  0.1565178E+03  0.7818608E-02  0.1192685E+00
          2   -1    0    0  501    0  0.00000000000E+00  0.00000000000E+00  0.30448322693E+03  0.30448322695E+03  0.25500000000E-02 0. -1.
         -2   -1    0    0    0  501 -0.00000000000E+00 -0.00000000000E+00 -0.17512671900E+03  0.17512671901E+03  0.25500000000E-02 0.  1.
    8880022    1    1    2    0    0 -0.33250574261E+02  0.76162973429E+00 -0.11163595850E+03  0.19225093241E+03  0.15294330000E+03 0.  1.
    8880022    1    1    2    0    0  0.33250574261E+02 -0.76162973429E+00  0.24099246644E+03  0.28735901354E+03  0.15294330000E+03 0.  0.
<mgrwt>
<rscale>  0 0.15651784E+03</rscale>
<asrwt>0</asrwt>
<pdfrwt beam="1">  1        2 0.46843573E-01 0.15651784E+03</pdfrwt>
<pdfrwt beam="2">  1       -2 0.26942572E-01 0.15651784E+03</pdfrwt>
<totfact> 0.13222239E+03</totfact>
</mgrwt>
</event>
<event>
 4    1  0.6912310E-008  0.6290658E+03  0.7818608E-02  0.9846873E-01
          2   -1    0    0  501    0  0.00000000000E+00  0.00000000000E+00  0.97735745850E+03  0.97735745850E+03  0.25500000000E-02 0. -1.
         -2   -1    0    0    0  501 -0.00000000000E+00 -0.00000000000E+00 -0.87279099331E+03  0.87279099331E+03  0.25500000000E-02 0.  1.
    8880022    1    1    2    0    0  0.98069084094E+02  0.60225791757E+03 -0.62504270545E+03  0.88679320091E+03  0.15294330000E+03 0.  0.
    8880022    1    1    2    0    0 -0.98069084094E+02 -0.60225791757E+03  0.72960917064E+03  0.96335525090E+03  0.15294330000E+03 0.  0.
<mgrwt>
<rscale>  0 0.62906581E+03</rscale>
<asrwt>0</asrwt>
<pdfrwt beam="1">  1        2 0.15036269E+00 0.62906581E+03</pdfrwt>
<pdfrwt beam="2">  1       -2 0.13427554E+00 0.62906581E+03</pdfrwt>
<totfact> 0.10765680E+01</totfact>
</mgrwt>
</event>
<event>
 4    1  0.6912310E-008  0.8135701E+03  0.7818608E-02  0.9540580E-01
          2   -1    0    0  501    0  0.00000000000E+00  0.00000000000E+00  0.15921583563E+04  0.15921583563E+04  0.25500000000E-02 0. -1.
         -2   -1    0    0    0  501 -0.00000000000E+00 -0.00000000000E+00 -0.90186400733E+03  0.90186400734E+03  0.25500000000E-02 0.  1.
    8880022    1    1    2    0    0 -0.72230205783E+03 -0.34173722843E+03 -0.57040082226E+03  0.99360623342E+03  0.15294330000E+03 0.  0.
    8880022    1    1    2    0    0  0.72230205783E+03  0.34173722843E+03  0.12606951712E+04  0.15004161302E+04  0.15294330000E+03 0.  0.
<mgrwt>
<rscale>  0 0.81357006E+03</rscale>
<asrwt>0</asrwt>
<pdfrwt beam="1">  1        2 0.24494744E+00 0.81357006E+03</pdfrwt>
<pdfrwt beam="2">  1       -2 0.13874831E+00 0.81357006E+03</pdfrwt>
<totfact> 0.42159554E+00</totfact>
</mgrwt>
</event>
<event>
 4    1  0.6912310E-008  0.2435712E+03  0.7818608E-02  0.1117436E+00
          2   -1    0    0  501    0  0.00000000000E+00  0.00000000000E+00  0.54825059815E+03  0.54825059816E+03  0.25500000000E-02 0. -1.
         -2   -1    0    0    0  501 -0.00000000000E+00 -0.00000000000E+00 -0.29578972034E+03  0.29578972036E+03  0.25500000000E-02 0.  1.
    8880022    1    1    2    0    0  0.17178672749E+03  0.80153612224E+02 -0.20984211346E+03  0.32149750682E+03  0.15294330000E+03 0.  0.
    8880022    1    1    2    0    0 -0.17178672749E+03 -0.80153612224E+02  0.46230299127E+03  0.52254281169E+03  0.15294330000E+03 0.  0.
<mgrwt>
<rscale>  0 0.24357121E+03</rscale>
<asrwt>0</asrwt>
<pdfrwt beam="1">  1        2 0.84346245E-01 0.24357121E+03</pdfrwt>
<pdfrwt beam="2">  1       -2 0.45506111E-01 0.24357121E+03</pdfrwt>
<totfact> 0.26242947E+02</totfact>
</mgrwt>
</event>
<event>
 4    1  0.6912310E-008  0.3642104E+03  0.7818608E-02  0.1056929E+00
         -2   -1    0    0    0  501 -0.00000000000E+00  0.00000000000E+00  0.20131272260E+03  0.20131272262E+03  0.25500000000E-02 0.  1.
          2   -1    0    0  501    0  0.00000000000E+00 -0.00000000000E+00 -0.23826949733E+04  0.23826949733E+04  0.25500000000E-02 0. -1.
    8880022    1    1    2    0    0  0.30279666577E+03 -0.13255840934E+03  0.82381083150E+01  0.36430354395E+03  0.15294330000E+03 0.  0.
    8880022    1    1    2    0    0 -0.30279666577E+03  0.13255840934E+03 -0.21896203590E+04  0.22197041520E+04  0.15294330000E+03 0. -1.
<mgrwt>
<rscale>  0 0.36421039E+03</rscale>
<asrwt>0</asrwt>
<pdfrwt beam="1">  1        2 0.36656844E+00 0.36421039E+03</pdfrwt>
<pdfrwt beam="2">  1       -2 0.30971190E-01 0.36421039E+03</pdfrwt>
<totfact> 0.43943002E+01</totfact>
</mgrwt>
</event>
<event>
 4    1  0.6912310E-008  0.5035270E+03  0.7818608E-02  0.1012862E+00
          2   -1    0    0  501    0  0.00000000000E+00  0.00000000000E+00  0.83361275604E+03  0.83361275604E+03  0.25500000000E-02 0. -1.
         -2   -1    0    0    0  501 -0.00000000000E+00 -0.00000000000E+00 -0.35651052410E+03  0.35651052411E+03  0.25500000000E-02 0.  1.
    8880022    1    1    2    0    0  0.13533494088E+03  0.46025236757E+03  0.46661003695E+03  0.68648697561E+03  0.15294330000E+03 0.  0.
    8880022    1    1    2    0    0 -0.13533494088E+03 -0.46025236757E+03  0.10492194995E+02  0.50363630454E+03  0.15294330000E+03 0.  1.
<mgrwt>
<rscale>  0 0.50352700E+03</rscale>
<asrwt>0</asrwt>
<pdfrwt beam="1">  1        2 0.12824812E+00 0.50352700E+03</pdfrwt>
<pdfrwt beam="2">  1       -2 0.54847773E-01 0.50352700E+03</pdfrwt>
<totfact> 0.10523106E+02</totfact>
</mgrwt>
</event>
<event>
 4    1  0.6912310E-008  0.1039634E+04  0.7818608E-02  0.9266112E-01
          2   -1    0    0  501    0  0.00000000000E+00  0.00000000000E+00  0.15781359416E+04  0.15781359416E+04  0.25500000000E-02 0. -1.
         -2   -1    0    0    0  501 -0.00000000000E+00 -0.00000000000E+00 -0.10582923590E+04  0.10582923590E+04  0.25500000000E-02 0.  1.
    8880022    1    1    2    0    0 -0.88453360489E+03  0.52445019164E+03  0.10429464075E+04  0.14726087612E+04  0.15294330000E+03 0.  0.
    8880022    1    1    2    0    0  0.88453360489E+03 -0.52445019164E+03 -0.52310282490E+03  0.11638195393E+04  0.15294330000E+03 0.  0.
<mgrwt>
<rscale>  0 0.10396342E+04</rscale>
<asrwt>0</asrwt>
<pdfrwt beam="1">  1        2 0.24279014E+00 0.10396342E+04</pdfrwt>
<pdfrwt beam="2">  1       -2 0.16281421E+00 0.10396342E+04</pdfrwt>
<totfact> 0.27228417E+00</totfact>
</mgrwt>
</event>
<event>
 4    1  0.6912310E-008  0.4074200E+03  0.7818608E-02  0.1041240E+00
          2   -1    0    0  501    0  0.00000000000E+00  0.00000000000E+00  0.30940030669E+04  0.30940030669E+04  0.25500000000E-02 0. -1.
         -2   -1    0    0    0  501 -0.00000000000E+00 -0.00000000000E+00 -0.10397991433E+03  0.10397991436E+03  0.25500000000E-02 0.  1.
    8880022    1    1    2    0    0  0.36985537362E+02  0.37580772983E+03  0.26074798458E+04  0.26391176895E+04  0.15294330000E+03 0.  0.
    8880022    1    1    2    0    0 -0.36985537362E+02 -0.37580772983E+03  0.38254330677E+03  0.55886529177E+03  0.15294330000E+03 0.  0.
<mgrwt>
<rscale>  0 0.40741997E+03</rscale>
<asrwt>0</asrwt>
<pdfrwt beam="1">  1        2 0.47600053E+00 0.40741997E+03</pdfrwt>
<pdfrwt beam="2">  1       -2 0.15996908E-01 0.40741997E+03</pdfrwt>
<totfact> 0.54025629E+01</totfact>
</mgrwt>
</event>
<event>
 4    1  0.6912310E-008  0.4577090E+03  0.7818608E-02  0.1025448E+00
          2   -1    0    0  501    0  0.00000000000E+00  0.00000000000E+00  0.88368949893E+03  0.88368949894E+03  0.25500000000E-02 0. -1.
         -2   -1    0    0    0  501 -0.00000000000E+00 -0.00000000000E+00 -0.58093601625E+03  0.58093601626E+03  0.25500000000E-02 0.  1.
    8880022    1    1    2    0    0  0.38766024955E+03 -0.18927612358E+03 -0.41203532786E+03  0.61584956317E+03  0.15294330000E+03 0.  0.
    8880022    1    1    2    0    0 -0.38766024955E+03  0.18927612358E+03  0.71478881054E+03  0.84877595202E+03  0.15294330000E+03 0.  0.
<mgrwt>
<rscale>  0 0.45770905E+03</rscale>
<asrwt>0</asrwt>
<pdfrwt beam="1">  1        2 0.13595223E+00 0.45770905E+03</pdfrwt>
<pdfrwt beam="2">  1       -2 0.89374772E-01 0.45770905E+03</pdfrwt>
<totfact> 0.33902898E+01</totfact>
</mgrwt>
</event>
<event>
 4    1  0.6912310E-008  0.8633077E+03  0.7818608E-02  0.9472648E-01
         -2   -1    0    0    0  501 -0.00000000000E+00  0.00000000000E+00  0.68992409690E+03  0.68992409690E+03  0.25500000000E-02 0.  1.
          2   -1    0    0  501    0  0.00000000000E+00 -0.00000000000E+00 -0.20878364305E+04  0.20878364305E+04  0.25500000000E-02 0. -1.
    8880022    1    1    2    0    0  0.38873649834E+03  0.75550812299E+03  0.26588246590E+03  0.90332371149E+03  0.15294330000E+03 0.  0.
    8880022    1    1    2    0    0 -0.38873649834E+03 -0.75550812299E+03 -0.16637947995E+04  0.18744368160E+04  0.15294330000E+03 0.  0.
<mgrwt>
<rscale>  0 0.86330773E+03</rscale>
<asrwt>0</asrwt>
<pdfrwt beam="1">  1        2 0.32120560E+00 0.86330773E+03</pdfrwt>
<pdfrwt beam="2">  1       -2 0.10614217E+00 0.86330773E+03</pdfrwt>
<totfact> 0.43600163E+00</totfact>
</mgrwt>
</event>
<event>
 4    1  0.6912310E-008  0.3189848E+03  0.7818608E-02  0.1076117E+00
          2   -1    0    0  501    0  0.00000000000E+00  0.00000000000E+00  0.74012212746E+03  0.74012212747E+03  0.25500000000E-02 0. -1.
         -2   -1    0    0    0  501 -0.00000000000E+00 -0.00000000000E+00 -0.25857241459E+03  0.25857241461E+03  0.25500000000E-02 0.  1.
    8880022    1    1    2    0    0 -0.83152934507E+01  0.27980445494E+03  0.58249584486E+03  0.66411801617E+03  0.15294330000E+03 0.  0.
    8880022    1    1    2    0    0  0.83152934507E+01 -0.27980445494E+03 -0.10094613199E+03  0.33457652590E+03  0.15294330000E+03 0.  0.
<mgrwt>
<rscale>  0 0.31898484E+03</rscale>
<asrwt>0</asrwt>
<pdfrwt beam="1">  1        2 0.11386494E+00 0.31898484E+03</pdfrwt>
<pdfrwt beam="2">  1       -2 0.39780372E-01 0.31898484E+03</pdfrwt>
<totfact> 0.23671721E+02</totfact>
</mgrwt>
</event>
<event>
 4    1  0.6912310E-008  0.1001960E+04  0.7818608E-02  0.9306397E-01
          2   -1    0    0  501    0  0.00000000000E+00  0.00000000000E+00  0.18805970379E+04  0.18805970379E+04  0.25500000000E-02 0. -1.
         -2   -1    0    0    0  501 -0.00000000000E+00 -0.00000000000E+00 -0.80918271257E+03  0.80918271258E+03  0.25500000000E-02 0.  1.
    8880022    1    1    2    0    0 -0.54775494655E+03  0.82492269389E+03 -0.24881607595E+03  0.10323923794E+04  0.15294330000E+03 0.  0.
    8880022    1    1    2    0    0  0.54775494655E+03 -0.82492269389E+03  0.13202304013E+04  0.16573873711E+04  0.15294330000E+03 0.  0.
<mgrwt>
<rscale>  0 0.10019604E+04</rscale>
<asrwt>0</asrwt>
<pdfrwt beam="1">  1        2 0.28932262E+00 0.10019604E+04</pdfrwt>
<pdfrwt beam="2">  1       -2 0.12448965E+00 0.10019604E+04</pdfrwt>
<totfact> 0.37597319E+00</totfact>
</mgrwt>
</event>
<event>
 4    1  0.6912310E-008  0.3263862E+03  0.7818608E-02  0.1072747E+00
         -2   -1    0    0    0  501 -0.00000000000E+00  0.00000000000E+00  0.39278814814E+03  0.39278814815E+03  0.25500000000E-02 0.  1.
          2   -1    0    0  501    0  0.00000000000E+00 -0.00000000000E+00 -0.31582878519E+03  0.31582878520E+03  0.25500000000E-02 0. -1.
    8880022    1    1    2    0    0  0.11510598867E+03 -0.26436135748E+03  0.17165257733E+03  0.36877171296E+03  0.15294330000E+03 0.  0.
    8880022    1    1    2    0    0 -0.11510598867E+03  0.26436135748E+03 -0.94693214383E+02  0.33984522039E+03  0.15294330000E+03 0.  0.
<mgrwt>
<rscale>  0 0.32638623E+03</rscale>
<asrwt>0</asrwt>
<pdfrwt beam="1">  1        2 0.48589044E-01 0.32638623E+03</pdfrwt>
<pdfrwt beam="2">  1       -2 0.60428946E-01 0.32638623E+03</pdfrwt>
<totfact> 0.27048716E+02</totfact>
</mgrwt>
</event>
<event>
 4    1  0.6912310E-008  0.1218853E+04  0.7818608E-02  0.9096513E-01
          2   -1    0    0  501    0  0.00000000000E+00  0.00000000000E+00  0.15202649180E+04  0.15202649180E+04  0.25500000000E-02 0. -1.
         -2   -1    0    0    0  501 -0.00000000000E+00 -0.00000000000E+00 -0.13558885037E+04  0.13558885037E+04  0.25500000000E-02 0.  1.
    8880022    1    1    2    0    0  0.55441109265E+03  0.10746341553E+04 -0.67780813235E+03  0.13946417980E+04  0.15294330000E+03 0.  0.
    8880022    1    1    2    0    0 -0.55441109265E+03 -0.10746341553E+04  0.84218454660E+03  0.14815116236E+04  0.15294330000E+03 0.  0.
<mgrwt>
<rscale>  0 0.12188527E+04</rscale>
<asrwt>0</asrwt>
<pdfrwt beam="1">  1        2 0.23388691E+00 0.12188527E+04</pdfrwt>
<pdfrwt beam="2">  1       -2 0.20859823E+00 0.12188527E+04</pdfrwt>
<totfact> 0.13993625E+00</totfact>
</mgrwt>
</event>
<event>
 4    1  0.6912310E-008  0.5266022E+03  0.7818608E-02  0.1007059E+00
         -2   -1    0    0    0  501 -0.00000000000E+00  0.00000000000E+00  0.98943799350E+03  0.98943799350E+03  0.25500000000E-02 0.  1.
          2   -1    0    0  501    0  0.00000000000E+00 -0.00000000000E+00 -0.63589892093E+03  0.63589892093E+03  0.25500000000E-02 0. -1.
    8880022    1    1    2    0    0 -0.47550382669E+03  0.16677629277E+03  0.78450956408E+03  0.94486249273E+03  0.15294330000E+03 0.  0.
    8880022    1    1    2    0    0  0.47550382669E+03 -0.16677629277E+03 -0.43097049151E+03  0.68047442170E+03  0.15294330000E+03 0.  0.
<mgrwt>
<rscale>  0 0.52660220E+03</rscale>
<asrwt>0</asrwt>
<pdfrwt beam="1">  1        2 0.97830603E-01 0.52660220E+03</pdfrwt>
<pdfrwt beam="2">  1       -2 0.15222123E+00 0.52660220E+03</pdfrwt>
<totfact> 0.13875193E+01</totfact>
</mgrwt>
</event>
<event>
 4    1  0.6912310E-008  0.5489699E+03  0.7818608E-02  0.1001733E+00
         -2   -1    0    0    0  501 -0.00000000000E+00  0.00000000000E+00  0.43987975291E+03  0.43987975292E+03  0.25500000000E-02 0.  1.
          2   -1    0    0  501    0  0.00000000000E+00 -0.00000000000E+00 -0.13151478877E+04  0.13151478877E+04  0.25500000000E-02 0. -1.
    8880022    1    1    2    0    0 -0.28248233962E+03  0.44517417433E+03  0.16972912929E+03  0.57460938735E+03  0.15294330000E+03 0.  0.
    8880022    1    1    2    0    0  0.28248233962E+03 -0.44517417433E+03 -0.10449972640E+04  0.11804182532E+04  0.15294330000E+03 0.  0.
<mgrwt>
<rscale>  0 0.54896992E+03</rscale>
<asrwt>0</asrwt>
<pdfrwt beam="1">  1        2 0.20233044E+00 0.54896992E+03</pdfrwt>
<pdfrwt beam="2">  1       -2 0.67673809E-01 0.54896992E+03</pdfrwt>
<totfact> 0.33902060E+01</totfact>
</mgrwt>
</event>
<event>
 4    1  0.6912310E-008  0.4566920E+03  0.7818608E-02  0.1025745E+00
          2   -1    0    0  501    0  0.00000000000E+00  0.00000000000E+00  0.98277031898E+03  0.98277031898E+03  0.25500000000E-02 0. -1.
         -2   -1    0    0    0  501 -0.00000000000E+00 -0.00000000000E+00 -0.30556748833E+03  0.30556748834E+03  0.25500000000E-02 0.  1.
    8880022    1    1    2    0    0  0.42654833726E+03 -0.56854502378E+02  0.69463249015E+03  0.83131333915E+03  0.15294330000E+03 0.  0.
    8880022    1    1    2    0    0 -0.42654833726E+03  0.56854502378E+02 -0.17429659500E+02  0.45702446817E+03  0.15294330000E+03 0.  0.
<mgrwt>
<rscale>  0 0.45669199E+03</rscale>
<asrwt>0</asrwt>
<pdfrwt beam="1">  1        2 0.15119543E+00 0.45669199E+03</pdfrwt>
<pdfrwt beam="2">  1       -2 0.47010383E-01 0.45669199E+03</pdfrwt>
<totfact> 0.11523239E+02</totfact>
</mgrwt>
</event>
<event>
 4    1  0.6912310E-008  0.2306489E+03  0.7818608E-02  0.1126184E+00
         -2   -1    0    0    0  501 -0.00000000000E+00  0.00000000000E+00  0.44396442312E+03  0.44396442313E+03  0.25500000000E-02 0.  1.
          2   -1    0    0  501    0  0.00000000000E+00 -0.00000000000E+00 -0.12769225737E+03  0.12769225739E+03  0.25500000000E-02 0. -1.
    8880022    1    1    2    0    0  0.93149750485E+02 -0.14536290767E+03  0.22907438329E+03  0.32507534055E+03  0.15294330000E+03 0.  0.
    8880022    1    1    2    0    0 -0.93149750485E+02  0.14536290767E+03  0.87197782469E+02  0.24658133997E+03  0.15294330000E+03 0.  0.
<mgrwt>
<rscale>  0 0.23064888E+03</rscale>
<asrwt>0</asrwt>
<pdfrwt beam="1">  1        2 0.19644963E-01 0.23064888E+03</pdfrwt>
<pdfrwt beam="2">  1       -2 0.68302219E-01 0.23064888E+03</pdfrwt>
<totfact> 0.57002730E+02</totfact>
</mgrwt>
</event>
<event>
 4    1  0.6912310E-008  0.2946582E+03  0.7818608E-02  0.1087942E+00
         -2   -1    0    0    0  501 -0.00000000000E+00  0.00000000000E+00  0.14056038275E+03  0.14056038278E+03  0.25500000000E-02 0.  1.
          2   -1    0    0  501    0  0.00000000000E+00 -0.00000000000E+00 -0.18832467610E+04  0.18832467610E+04  0.25500000000E-02 0. -1.
    8880022    1    1    2    0    0  0.30570157526E+02  0.24999456432E+03 -0.17008604762E+04  0.17261951886E+04  0.15294330000E+03 0. -1.
    8880022    1    1    2    0    0 -0.30570157526E+02 -0.24999456432E+03 -0.41825901987E+02  0.29761195509E+03  0.15294330000E+03 0.  0.
<mgrwt>
<rscale>  0 0.29465823E+03</rscale>
<asrwt>0</asrwt>
<pdfrwt beam="1">  1        2 0.28973025E+00 0.29465823E+03</pdfrwt>
<pdfrwt beam="2">  1       -2 0.21624676E-01 0.29465823E+03</pdfrwt>
<totfact> 0.15736395E+02</totfact>
</mgrwt>
</event>
<event>
 4    1  0.6912310E-008  0.6224677E+03  0.7818608E-02  0.9859859E-01
          2   -1    0    0  501    0  0.00000000000E+00  0.00000000000E+00  0.13157687831E+04  0.13157687831E+04  0.25500000000E-02 0. -1.
         -2   -1    0    0    0  501 -0.00000000000E+00 -0.00000000000E+00 -0.36095984446E+03  0.36095984447E+03  0.25500000000E-02 0.  1.
    8880022    1    1    2    0    0 -0.13960438199E+03  0.58701367475E+03  0.83719693145E+03  0.10432472348E+04  0.15294330000E+03 0.  0.
    8880022    1    1    2    0    0  0.13960438199E+03 -0.58701367475E+03  0.11761200722E+03  0.63348139284E+03  0.15294330000E+03 0.  0.
<mgrwt>
<rscale>  0 0.62246774E+03</rscale>
<asrwt>0</asrwt>
<pdfrwt beam="1">  1        2 0.20242597E+00 0.62246774E+03</pdfrwt>
<pdfrwt beam="2">  1       -2 0.55532283E-01 0.62246774E+03</pdfrwt>
<totfact> 0.50959670E+01</totfact>
</mgrwt>
</event>
<event>
 4    1  0.6912310E-008  0.2956179E+03  0.7818608E-02  0.1087452E+00
         -2   -1    0    0    0  501 -0.00000000000E+00  0.00000000000E+00  0.67274579097E+02  0.67274579146E+02  0.25500000000E-02 0.  1.
          2   -1    0    0  501    0  0.00000000000E+00 -0.00000000000E+00 -0.24291669214E+04  0.24291669214E+04  0.25500000000E-02 0. -1.
    8880022    1    1    2    0    0  0.23372602256E+03 -0.96801045101E+02 -0.20323453785E+04  0.20537326229E+04  0.15294330000E+03 0.  0.
    8880022    1    1    2    0    0 -0.23372602256E+03  0.96801045101E+02 -0.32954696378E+03  0.44270887760E+03  0.15294330000E+03 0.  1.
<mgrwt>
<rscale>  0 0.29561791E+03</rscale>
<asrwt>0</asrwt>
<pdfrwt beam="1">  1        2 0.37371792E+00 0.29561791E+03</pdfrwt>
<pdfrwt beam="2">  1       -2 0.10349937E-01 0.29561791E+03</pdfrwt>
<totfact> 0.27430521E+02</totfact>
</mgrwt>
</event>
<event>
 4    1  0.6912310E-008  0.4640072E+03  0.7818608E-02  0.1023625E+00
          2   -1    0    0  501    0  0.00000000000E+00  0.00000000000E+00  0.15529081393E+04  0.15529081393E+04  0.25500000000E-02 0. -1.
         -2   -1    0    0    0  501 -0.00000000000E+00 -0.00000000000E+00 -0.52882854784E+03  0.52882854785E+03  0.25500000000E-02 0.  1.
    8880022    1    1    2    0    0 -0.42178310854E+02 -0.43604127620E+03  0.14061127047E+04  0.14806942951E+04  0.15294330000E+03 0.  0.
    8880022    1    1    2    0    0  0.42178310854E+02  0.43604127620E+03 -0.38203311317E+03  0.60104239204E+03  0.15294330000E+03 0.  1.
<mgrwt>
<rscale>  0 0.46400717E+03</rscale>
<asrwt>0</asrwt>
<pdfrwt beam="1">  1        2 0.23890894E+00 0.46400717E+03</pdfrwt>
<pdfrwt beam="2">  1       -2 0.81358239E-01 0.46400717E+03</pdfrwt>
<totfact> 0.16939446E+01</totfact>
</mgrwt>
</event>
<event>
 4    1  0.6912310E-008  0.6702994E+03  0.7818608E-02  0.9769417E-01
         -2   -1    0    0    0  501 -0.00000000000E+00  0.00000000000E+00  0.28535765542E+03  0.28535765543E+03  0.25500000000E-02 0.  1.
          2   -1    0    0  501    0  0.00000000000E+00 -0.00000000000E+00 -0.27693461957E+04  0.27693461957E+04  0.25500000000E-02 0. -1.
    8880022    1    1    2    0    0 -0.65237569976E+03  0.17763841363E+02 -0.22452298064E+04  0.23431513276E+04  0.15294330000E+03 0.  0.
    8880022    1    1    2    0    0  0.65237569976E+03 -0.17763841363E+02 -0.23875873392E+03  0.71155252352E+03  0.15294330000E+03 0.  1.
<mgrwt>
<rscale>  0 0.67029938E+03</rscale>
<asrwt>0</asrwt>
<pdfrwt beam="1">  1        2 0.42605324E+00 0.67029938E+03</pdfrwt>
<pdfrwt beam="2">  1       -2 0.43901179E-01 0.67029938E+03</pdfrwt>
<totfact> 0.12710606E+01</totfact>
</mgrwt>
</event>
<event>
 4    1  0.6912310E-008  0.7920463E+03  0.7818608E-02  0.9571602E-01
          2   -1    0    0  501    0  0.00000000000E+00  0.00000000000E+00  0.15236239490E+04  0.15236239490E+04  0.25500000000E-02 0. -1.
         -2   -1    0    0    0  501 -0.00000000000E+00 -0.00000000000E+00 -0.78602666355E+03  0.78602666355E+03  0.25500000000E-02 0.  1.
    8880022    1    1    2    0    0  0.25837605807E+03 -0.73293080401E+03 -0.42809368758E+03  0.90033416530E+03  0.15294330000E+03 0.  0.
    8880022    1    1    2    0    0 -0.25837605807E+03  0.73293080401E+03  0.11656909730E+04  0.14093164472E+04  0.15294330000E+03 0.  0.
<mgrwt>
<rscale>  0 0.79204634E+03</rscale>
<asrwt>0</asrwt>
<pdfrwt beam="1">  1        2 0.23440368E+00 0.79204634E+03</pdfrwt>
<pdfrwt beam="2">  1       -2 0.12092718E+00 0.79204634E+03</pdfrwt>
<totfact> 0.65377083E+00</totfact>
</mgrwt>
</event>
<event>
 4    1  0.6912310E-008  0.3690424E+03  0.7818608E-02  0.1055060E+00
         -2   -1    0    0    0  501 -0.00000000000E+00  0.00000000000E+00  0.66442931731E+02  0.66442931780E+02  0.25500000000E-02 0.  1.
          2   -1    0    0  501    0  0.00000000000E+00 -0.00000000000E+00 -0.25439141531E+04  0.25439141531E+04  0.25500000000E-02 0. -1.
    8880022    1    1    2    0    0  0.29193050396E+03 -0.16606381473E+03 -0.18139749896E+04  0.18511341188E+04  0.15294330000E+03 0.  0.
    8880022    1    1    2    0    0 -0.29193050396E+03  0.16606381473E+03 -0.66349623172E+03  0.75922296608E+03  0.15294330000E+03 0.  0.
<mgrwt>
<rscale>  0 0.36904236E+03</rscale>
<asrwt>0</asrwt>
<pdfrwt beam="1">  1        2 0.39137133E+00 0.36904236E+03</pdfrwt>
<pdfrwt beam="2">  1       -2 0.10221991E-01 0.36904236E+03</pdfrwt>
<totfact> 0.23811555E+02</totfact>
</mgrwt>
</event>
<event>
 4    1  0.6912310E-008  0.9409473E+03  0.7818608E-02  0.9375795E-01
         -2   -1    0    0    0  501 -0.00000000000E+00  0.00000000000E+00  0.48022335205E+03  0.48022335205E+03  0.25500000000E-02 0.  1.
          2   -1    0    0  501    0  0.00000000000E+00 -0.00000000000E+00 -0.23379739256E+04  0.23379739256E+04  0.25500000000E-02 0. -1.
    8880022    1    1    2    0    0 -0.32318287831E+03  0.87036944747E+03 -0.28097093519E+03  0.98200125629E+03  0.15294330000E+03 0.  0.
    8880022    1    1    2    0    0  0.32318287831E+03 -0.87036944747E+03 -0.15767796384E+04  0.18361960214E+04  0.15294330000E+03 0.  0.
<mgrwt>
<rscale>  0 0.94094729E+03</rscale>
<asrwt>0</asrwt>
<pdfrwt beam="1">  1        2 0.35968829E+00 0.94094729E+03</pdfrwt>
<pdfrwt beam="2">  1       -2 0.73880517E-01 0.94094729E+03</pdfrwt>
<totfact> 0.72316460E+00</totfact>
</mgrwt>
</event>
<event>
 4    1  0.6912310E-008  0.5161843E+03  0.7818608E-02  0.1009639E+00
          2   -1    0    0  501    0  0.00000000000E+00  0.00000000000E+00  0.17703214084E+03  0.17703214085E+03  0.25500000000E-02 0. -1.
         -2   -1    0    0    0  501 -0.00000000000E+00 -0.00000000000E+00 -0.15906671050E+04  0.15906671050E+04  0.25500000000E-02 0.  1.
    8880022    1    1    2    0    0 -0.33622314114E+03  0.36056708361E+03 -0.50179053564E+03  0.71988889219E+03  0.15294330000E+03 0.  0.
    8880022    1    1    2    0    0  0.33622314114E+03 -0.36056708361E+03 -0.91184442854E+03  0.10478103537E+04  0.15294330000E+03 0.  0.
<mgrwt>
<rscale>  0 0.51618434E+03</rscale>
<asrwt>0</asrwt>
<pdfrwt beam="1">  1        2 0.27235715E-01 0.51618434E+03</pdfrwt>
<pdfrwt beam="2">  1       -2 0.24471801E+00 0.51618434E+03</pdfrwt>
<totfact> 0.14474084E+01</totfact>
</mgrwt>
</event>
<event>
 4    1  0.6912310E-008  0.2593120E+03  0.7818608E-02  0.1107557E+00
         -2   -1    0    0    0  501 -0.00000000000E+00  0.00000000000E+00  0.44952710331E+02  0.44952710403E+02  0.25500000000E-02 0.  1.
          2   -1    0    0  501    0  0.00000000000E+00 -0.00000000000E+00 -0.17481133936E+04  0.17481133936E+04  0.25500000000E-02 0. -1.
    8880022    1    1    2    0    0  0.15837695707E+01  0.20940046162E+03 -0.11921490461E+04  0.12200254353E+04  0.15294330000E+03 0.  0.
    8880022    1    1    2    0    0 -0.15837695707E+01 -0.20940046162E+03 -0.51101163721E+03  0.57304066874E+03  0.15294330000E+03 0.  0.
<mgrwt>
<rscale>  0 0.25931200E+03</rscale>
<asrwt>0</asrwt>
<pdfrwt beam="1">  1        2 0.26894047E+00 0.25931200E+03</pdfrwt>
<pdfrwt beam="2">  1       -2 0.69158029E-02 0.25931200E+03</pdfrwt>
<totfact> 0.11986178E+03</totfact>
</mgrwt>
</event>
<event>
 4    1  0.6912310E-008  0.3633032E+03  0.7818608E-02  0.1057284E+00
         -2   -1    0    0    0  501 -0.00000000000E+00  0.00000000000E+00  0.71551430866E+03  0.71551430866E+03  0.25500000000E-02 0.  1.
          2   -1    0    0  501    0  0.00000000000E+00 -0.00000000000E+00 -0.21354466905E+03  0.21354466906E+03  0.25500000000E-02 0. -1.
    8880022    1    1    2    0    0  0.80746367875E+02 -0.31949587404E+03  0.42239786422E+03  0.55714378590E+03  0.15294330000E+03 0.  0.
    8880022    1    1    2    0    0 -0.80746367875E+02  0.31949587404E+03  0.79571775389E+02  0.37191519182E+03  0.15294330000E+03 0.  0.
<mgrwt>
<rscale>  0 0.36330324E+03</rscale>
<asrwt>0</asrwt>
<pdfrwt beam="1">  1        2 0.32853026E-01 0.36330324E+03</pdfrwt>
<pdfrwt beam="2">  1       -2 0.11007912E+00 0.36330324E+03</pdfrwt>
<totfact> 0.10841021E+02</totfact>
</mgrwt>
</event>
<event>
 4    1  0.6912310E-008  0.1651007E+04  0.7818608E-02  0.8789811E-01
          2   -1    0    0  501    0  0.00000000000E+00  0.00000000000E+00  0.22501460361E+04  0.22501460361E+04  0.25500000000E-02 0. -1.
         -2   -1    0    0    0  501 -0.00000000000E+00 -0.00000000000E+00 -0.17999391225E+04  0.17999391225E+04  0.25500000000E-02 0.  1.
    8880022    1    1    2    0    0 -0.16180716308E+04 -0.29030704916E+03  0.13830623110E+04  0.21537611275E+04  0.15294330000E+03 0.  0.
    8880022    1    1    2    0    0  0.16180716308E+04  0.29030704916E+03 -0.93285539738E+03  0.18963240311E+04  0.15294330000E+03 0.  0.
<mgrwt>
<rscale>  0 0.16510075E+04</rscale>
<asrwt>0</asrwt>
<pdfrwt beam="1">  1        2 0.34617631E+00 0.16510075E+04</pdfrwt>
<pdfrwt beam="2">  1       -2 0.27691371E+00 0.16510075E+04</pdfrwt>
<totfact> 0.19600955E-01</totfact>
</mgrwt>
</event>
<event>
 4    1  0.6912310E-008  0.5926388E+03  0.7818608E-02  0.9920797E-01
         -2   -1    0    0    0  501 -0.00000000000E+00  0.00000000000E+00  0.42248855316E+03  0.42248855317E+03  0.25500000000E-02 0.  1.
          2   -1    0    0  501    0  0.00000000000E+00 -0.00000000000E+00 -0.17553362357E+04  0.17553362357E+04  0.25500000000E-02 0. -1.
    8880022    1    1    2    0    0 -0.24031206218E+03  0.51969145436E+03 -0.14564726785E+04  0.15724291434E+04  0.15294330000E+03 0.  0.
    8880022    1    1    2    0    0  0.24031206218E+03 -0.51969145436E+03  0.12362499588E+03  0.60539564549E+03  0.15294330000E+03 0.  0.
<mgrwt>
<rscale>  0 0.59263880E+03</rscale>
<asrwt>0</asrwt>
<pdfrwt beam="1">  1        2 0.27005173E+00 0.59263880E+03</pdfrwt>
<pdfrwt beam="2">  1       -2 0.64998240E-01 0.59263880E+03</pdfrwt>
<totfact> 0.20999927E+01</totfact>
</mgrwt>
</event>
<event>
 4    1  0.6912310E-008  0.2762255E+03  0.7818608E-02  0.1097769E+00
         -2   -1    0    0    0  501 -0.00000000000E+00  0.00000000000E+00  0.16607006401E+03  0.16607006403E+03  0.25500000000E-02 0.  1.
          2   -1    0    0  501    0  0.00000000000E+00 -0.00000000000E+00 -0.10839034161E+04  0.10839034161E+04  0.25500000000E-02 0. -1.
    8880022    1    1    2    0    0 -0.78777168625E+02  0.21610885305E+03  0.15463231243E+02  0.27665798958E+03  0.15294330000E+03 0.  1.
    8880022    1    1    2    0    0  0.78777168625E+02 -0.21610885305E+03 -0.93329658334E+03  0.97331549056E+03  0.15294330000E+03 0.  0.
<mgrwt>
<rscale>  0 0.27622551E+03</rscale>
<asrwt>0</asrwt>
<pdfrwt beam="1">  1        2 0.16675437E+00 0.27622551E+03</pdfrwt>
<pdfrwt beam="2">  1       -2 0.25549241E-01 0.27622551E+03</pdfrwt>
<totfact> 0.32152506E+02</totfact>
</mgrwt>
</event>
<event>
 4    1  0.6912310E-008  0.5090562E+03  0.7818608E-02  0.1011442E+00
          2   -1    0    0  501    0  0.00000000000E+00  0.00000000000E+00  0.38145634637E+04  0.38145634637E+04  0.25500000000E-02 0. -1.
         -2   -1    0    0    0  501 -0.00000000000E+00 -0.00000000000E+00 -0.46588271293E+03  0.46588271293E+03  0.25500000000E-02 0.  1.
    8880022    1    1    2    0    0 -0.47416442388E+03  0.10447317582E+03 -0.30369634712E+03  0.59276443012E+03  0.15294330000E+03 0.  0.
    8880022    1    1    2    0    0  0.47416442388E+03 -0.10447317582E+03  0.36523770979E+04  0.36876817465E+04  0.15294330000E+03 0.  0.
<mgrwt>
<rscale>  0 0.50905618E+03</rscale>
<asrwt>0</asrwt>
<pdfrwt beam="1">  1        2 0.58685592E+00 0.50905618E+03</pdfrwt>
<pdfrwt beam="2">  1       -2 0.71674264E-01 0.50905618E+03</pdfrwt>
<totfact> 0.10028200E+00</totfact>
</mgrwt>
</event>
<event>
 4    1  0.6912310E-008  0.1782653E+03  0.7818608E-02  0.1169493E+00
          2   -1    0    0  501    0  0.00000000000E+00  0.00000000000E+00  0.29910182462E+04  0.29910182462E+04  0.25500000000E-02 0. -1.
         -2   -1    0    0    0  501 -0.00000000000E+00 -0.00000000000E+00 -0.64543800393E+02  0.64543800443E+02  0.25500000000E-02 0.  1.
    8880022    1    1    2    0    0  0.61695312553E+01 -0.91371766106E+02  0.28596228603E+04  0.28651738898E+04  0.15294330000E+03 0.  0.
    8880022    1    1    2    0    0 -0.61695312553E+01  0.91371766106E+02  0.66851585504E+02  0.19038815682E+03  0.15294330000E+03 0.  1.
<mgrwt>
<rscale>  0 0.17826530E+03</rscale>
<asrwt>0</asrwt>
<pdfrwt beam="1">  1        2 0.46015654E+00 0.17826530E+03</pdfrwt>
<pdfrwt beam="2">  1       -2 0.99298179E-02 0.17826530E+03</pdfrwt>
<totfact> 0.14752642E+02</totfact>
</mgrwt>
</event>
<event>
 4    1  0.6912310E-008  0.1190157E+04  0.7818608E-02  0.9121516E-01
          2   -1    0    0  501    0  0.00000000000E+00  0.00000000000E+00  0.37992733781E+04  0.37992733781E+04  0.25500000000E-02 0. -1.
         -2   -1    0    0    0  501 -0.00000000000E+00 -0.00000000000E+00 -0.45681594570E+03  0.45681594570E+03  0.25500000000E-02 0.  1.
    8880022    1    1    2    0    0  0.11298779177E+04  0.34126093717E+03  0.75875771651E+03  0.14114489228E+04  0.15294330000E+03 0.  0.
    8880022    1    1    2    0    0 -0.11298779177E+04 -0.34126093717E+03  0.25836997159E+04  0.28446404010E+04  0.15294330000E+03 0.  0.
<mgrwt>
<rscale>  0 0.11901575E+04</rscale>
<asrwt>0</asrwt>
<pdfrwt beam="1">  1        2 0.58450360E+00 0.11901575E+04</pdfrwt>
<pdfrwt beam="2">  1       -2 0.70279376E-01 0.11901575E+04</pdfrwt>
<totfact> 0.91882565E-01</totfact>
</mgrwt>
</event>
<event>
 4    1  0.6912310E-008  0.2763742E+03  0.7818608E-02  0.1097686E+00
         -2   -1    0    0    0  501 -0.00000000000E+00  0.00000000000E+00  0.48342896092E+03  0.48342896093E+03  0.25500000000E-02 0.  1.
          2   -1    0    0  501    0  0.00000000000E+00 -0.00000000000E+00 -0.93563798910E+03  0.93563798910E+03  0.25500000000E-02 0. -1.
    8880022    1    1    2    0    0 -0.15680616651E+03  0.16853143700E+03  0.42075084854E+03  0.50340237253E+03  0.15294330000E+03 0.  0.
    8880022    1    1    2    0    0  0.15680616651E+03 -0.16853143700E+03 -0.87295987671E+03  0.91566457750E+03  0.15294330000E+03 0.  0.
<mgrwt>
<rscale>  0 0.27637415E+03</rscale>
<asrwt>0</asrwt>
<pdfrwt beam="1">  1        2 0.14394431E+00 0.27637415E+03</pdfrwt>
<pdfrwt beam="2">  1       -2 0.74373686E-01 0.27637415E+03</pdfrwt>
<totfact> 0.48855878E+01</totfact>
</mgrwt>
</event>
<event>
 4    1  0.6912310E-008  0.3138630E+03  0.7818608E-02  0.1078509E+00
          2   -1    0    0  501    0  0.00000000000E+00  0.00000000000E+00  0.66012174232E+03  0.66012174233E+03  0.25500000000E-02 0. -1.
         -2   -1    0    0    0  501 -0.00000000000E+00 -0.00000000000E+00 -0.23053686640E+03  0.23053686642E+03  0.25500000000E-02 0.  1.
    8880022    1    1    2    0    0  0.27311538370E+03 -0.22941586876E+02 -0.49676477376E+02  0.31776993980E+03  0.15294330000E+03 0.  0.
    8880022    1    1    2    0    0 -0.27311538370E+03  0.22941586876E+02  0.47926135329E+03  0.57288866894E+03  0.15294330000E+03 0.  0.
<mgrwt>
<rscale>  0 0.31386300E+03</rscale>
<asrwt>0</asrwt>
<pdfrwt beam="1">  1        2 0.10155719E+00 0.31386300E+03</pdfrwt>
<pdfrwt beam="2">  1       -2 0.35467211E-01 0.31386300E+03</pdfrwt>
<totfact> 0.33890618E+02</totfact>
</mgrwt>
</event>
<event>
 4    1  0.6912310E-008  0.5694154E+03  0.7818608E-02  0.9970973E-01
         -2   -1    0    0    0  501 -0.00000000000E+00  0.00000000000E+00  0.24588416217E+03  0.24588416219E+03  0.25500000000E-02 0.  1.
          2   -1    0    0  501    0  0.00000000000E+00 -0.00000000000E+00 -0.21862820988E+04  0.21862820988E+04  0.25500000000E-02 0. -1.
    8880022    1    1    2    0    0  0.86913063193E+02 -0.54156100424E+03 -0.20410985866E+03  0.60489229561E+03  0.15294330000E+03 0.  0.
    8880022    1    1    2    0    0 -0.86913063193E+02  0.54156100424E+03 -0.17362880779E+04  0.18272739653E+04  0.15294330000E+03 0.  0.
<mgrwt>
<rscale>  0 0.56941536E+03</rscale>
<asrwt>0</asrwt>
<pdfrwt beam="1">  1        2 0.33635108E+00 0.56941536E+03</pdfrwt>
<pdfrwt beam="2">  1       -2 0.37828334E-01 0.56941536E+03</pdfrwt>
<totfact> 0.36889121E+01</totfact>
</mgrwt>
</event>
<event>
 4    1  0.7775552E-008  0.6873116E+03  0.7818608E-02  0.9739180E-01
          2   -1    0    0  501    0  0.00000000000E+00  0.00000000000E+00  0.22680960271E+04  0.22680960271E+04  0.25500000000E-02 0. -1.
         -2   -1    0    0    0  501 -0.00000000000E+00 -0.00000000000E+00 -0.85263684274E+03  0.85263684274E+03  0.25500000000E-02 0.  1.
    8880022    1    1    2    0    0  0.35355816584E+03  0.56921192578E+03  0.20641928708E+04  0.21756124319E+04  0.15294330000E+03 0.  0.
    8880022    1    1    2    0    0 -0.35355816584E+03 -0.56921192578E+03 -0.64873368649E+03  0.94512043787E+03  0.15294330000E+03 0.  0.
<mgrwt>
<rscale>  0 0.68731161E+03</rscale>
<asrwt>0</asrwt>
<pdfrwt beam="1">  1        2 0.34893785E+00 0.68731161E+03</pdfrwt>
<pdfrwt beam="2">  1       -2 0.13117490E+00 0.68731161E+03</pdfrwt>
<totfact> 0.21215464E+00</totfact>
</mgrwt>
</event>
<event>
 4    1  0.6912310E-008  0.8761456E+03  0.7818608E-02  0.9455902E-01
         -2   -1    0    0    0  501 -0.00000000000E+00  0.00000000000E+00  0.41528383195E+03  0.41528383196E+03  0.25500000000E-02 0.  1.
          2   -1    0    0  501    0  0.00000000000E+00 -0.00000000000E+00 -0.30208485894E+04  0.30208485894E+04  0.25500000000E-02 0. -1.
    8880022    1    1    2    0    0  0.85984366203E+03 -0.70059339616E+02 -0.23246346418E+03  0.90646034077E+03  0.15294330000E+03 0.  0.
    8880022    1    1    2    0    0 -0.85984366203E+03  0.70059339616E+02 -0.23731012933E+04  0.25296720806E+04  0.15294330000E+03 0.  0.
<mgrwt>
<rscale>  0 0.87614559E+03</rscale>
<asrwt>0</asrwt>
<pdfrwt beam="1">  1        2 0.46474592E+00 0.87614559E+03</pdfrwt>
<pdfrwt beam="2">  1       -2 0.63889822E-01 0.87614559E+03</pdfrwt>
<totfact> 0.39916610E+00</totfact>
</mgrwt>
</event>
<event>
 4    1  0.6912310E-008  0.2784965E+03  0.7818608E-02  0.1096513E+00
         -2   -1    0    0    0  501 -0.00000000000E+00  0.00000000000E+00  0.17292010798E+03  0.17292010800E+03  0.25500000000E-02 0.  1.
          2   -1    0    0  501    0  0.00000000000E+00 -0.00000000000E+00 -0.19178686297E+04  0.19178686297E+04  0.25500000000E-02 0. -1.
    8880022    1    1    2    0    0 -0.93994794741E+02 -0.21291700926E+03  0.42547187495E+02  0.28172786595E+03  0.15294330000E+03 0.  0.
    8880022    1    1    2    0    0  0.93994794741E+02  0.21291700926E+03 -0.17874957092E+04  0.18090608718E+04  0.15294330000E+03 0. -1.
<mgrwt>
<rscale>  0 0.27849655E+03</rscale>
<asrwt>0</asrwt>
<pdfrwt beam="1">  1        2 0.29505670E+00 0.27849655E+03</pdfrwt>
<pdfrwt beam="2">  1       -2 0.26603095E-01 0.27849655E+03</pdfrwt>
<totfact> 0.10515295E+02</totfact>
</mgrwt>
</event>
<event>
 4    1  0.6912310E-008  0.5991121E+03  0.7818608E-02  0.9907250E-01
         -2   -1    0    0    0  501 -0.00000000000E+00  0.00000000000E+00  0.30828447869E+03  0.30828447870E+03  0.25500000000E-02 0.  1.
          2   -1    0    0  501    0  0.00000000000E+00 -0.00000000000E+00 -0.13785486792E+04  0.13785486792E+04  0.25500000000E-02 0. -1.
    8880022    1    1    2    0    0  0.52408815224E+03  0.24672921089E+03 -0.20263256161E+03  0.63245181861E+03  0.15294330000E+03 0.  0.
    8880022    1    1    2    0    0 -0.52408815224E+03 -0.24672921089E+03 -0.86763163888E+03  0.10543813393E+04  0.15294330000E+03 0.  0.
<mgrwt>
<rscale>  0 0.59911213E+03</rscale>
<asrwt>0</asrwt>
<pdfrwt beam="1">  1        2 0.21208441E+00 0.59911213E+03</pdfrwt>
<pdfrwt beam="2">  1       -2 0.47428382E-01 0.59911213E+03</pdfrwt>
<totfact> 0.64953307E+01</totfact>
</mgrwt>
</event>
<event>
 4    1  0.6912310E-008  0.1017656E+04  0.7818608E-02  0.9289390E-01
         -2   -1    0    0    0  501 -0.00000000000E+00  0.00000000000E+00  0.18871933800E+04  0.18871933800E+04  0.25500000000E-02 0.  1.
          2   -1    0    0  501    0  0.00000000000E+00 -0.00000000000E+00 -0.10421638211E+04  0.10421638211E+04  0.25500000000E-02 0. -1.
    8880022    1    1    2    0    0  0.42484624370E+03  0.91199623128E+03 -0.58528438091E+03  0.11739595036E+04  0.15294330000E+03 0.  0.
    8880022    1    1    2    0    0 -0.42484624370E+03 -0.91199623128E+03  0.14303139398E+04  0.17553976974E+04  0.15294330000E+03 0.  0.
<mgrwt>
<rscale>  0 0.10176557E+04</rscale>
<asrwt>0</asrwt>
<pdfrwt beam="1">  1        2 0.16033290E+00 0.10176557E+04</pdfrwt>
<pdfrwt beam="2">  1       -2 0.29033744E+00 0.10176557E+04</pdfrwt>
<totfact> 0.86209811E-01</totfact>
</mgrwt>
</event>
<event>
 4    1  0.6912310E-008  0.8808901E+03  0.7818608E-02  0.9449790E-01
          2   -1    0    0  501    0  0.00000000000E+00  0.00000000000E+00  0.56672269252E+03  0.56672269252E+03  0.25500000000E-02 0. -1.
         -2   -1    0    0    0  501 -0.00000000000E+00 -0.00000000000E+00 -0.19647071461E+04  0.19647071461E+04  0.25500000000E-02 0.  1.
    8880022    1    1    2    0    0 -0.45863958035E+03 -0.73635957996E+03 -0.13958170779E+04  0.16505370834E+04  0.15294330000E+03 0.  0.
    8880022    1    1    2    0    0  0.45863958035E+03  0.73635957996E+03 -0.21673756674E+01  0.88089275522E+03  0.15294330000E+03 0.  0.
<mgrwt>
<rscale>  0 0.88089009E+03</rscale>
<asrwt>0</asrwt>
<pdfrwt beam="1">  1        2 0.87188107E-01 0.88089009E+03</pdfrwt>
<pdfrwt beam="2">  1       -2 0.30226264E+00 0.88089009E+03</pdfrwt>
<totfact> 0.16718415E+00</totfact>
</mgrwt>
</event>
<event>
 4    1  0.6912310E-008  0.4797232E+03  0.7818608E-02  0.1019211E+00
          2   -1    0    0  501    0  0.00000000000E+00  0.00000000000E+00  0.18858639006E+03  0.18858639008E+03  0.25500000000E-02 0. -1.
         -2   -1    0    0    0  501 -0.00000000000E+00 -0.00000000000E+00 -0.14508132432E+04  0.14508132432E+04  0.25500000000E-02 0.  1.
    8880022    1    1    2    0    0 -0.39342674766E+03  0.22794324735E+03 -0.95784039208E+03  0.10712574852E+04  0.15294330000E+03 0.  0.
    8880022    1    1    2    0    0  0.39342674766E+03 -0.22794324735E+03 -0.30438646106E+03  0.56814214813E+03  0.15294330000E+03 0.  0.
<mgrwt>
<rscale>  0 0.47972324E+03</rscale>
<asrwt>0</asrwt>
<pdfrwt beam="1">  1        2 0.29013292E-01 0.47972324E+03</pdfrwt>
<pdfrwt beam="2">  1       -2 0.22320203E+00 0.47972324E+03</pdfrwt>
<totfact> 0.18306428E+01</totfact>
</mgrwt>
</event>
<event>
 4    1  0.6912310E-008  0.3208555E+03  0.7818608E-02  0.1075256E+00
          2   -1    0    0  501    0  0.00000000000E+00  0.00000000000E+00  0.24794166900E+04  0.24794166900E+04  0.25500000000E-02 0. -1.
         -2   -1    0    0    0  501 -0.00000000000E+00 -0.00000000000E+00 -0.70760862064E+02  0.70760862110E+02  0.25500000000E-02 0.  1.
    8880022    1    1    2    0    0  0.22628561707E+03 -0.16837873825E+03  0.20239816242E+04  0.20492559255E+04  0.15294330000E+03 0.  0.
    8880022    1    1    2    0    0 -0.22628561707E+03  0.16837873825E+03  0.38467420370E+03  0.50092162660E+03  0.15294330000E+03 0.  1.
<mgrwt>
<rscale>  0 0.32085547E+03</rscale>
<asrwt>0</asrwt>
<pdfrwt beam="1">  1        2 0.38144869E+00 0.32085547E+03</pdfrwt>
<pdfrwt beam="2">  1       -2 0.10886287E-01 0.32085547E+03</pdfrwt>
<totfact> 0.23598847E+02</totfact>
</mgrwt>
</event>
<event>
 4    1  0.6912310E-008  0.9628795E+03  0.7818608E-02  0.9350222E-01
          2   -1    0    0  501    0  0.00000000000E+00  0.00000000000E+00  0.93964312639E+03  0.93964312639E+03  0.25500000000E-02 0. -1.
         -2   -1    0    0    0  501 -0.00000000000E+00 -0.00000000000E+00 -0.16533476589E+04  0.16533476589E+04  0.25500000000E-02 0.  1.
    8880022    1    1    2    0    0 -0.72302627810E+03 -0.61723435013E+03 -0.11801182603E+04  0.15230942200E+04  0.15294330000E+03 0.  0.
    8880022    1    1    2    0    0  0.72302627810E+03  0.61723435013E+03  0.46641372781E+03  0.10698965652E+04  0.15294330000E+03 0.  0.
<mgrwt>
<rscale>  0 0.96287948E+03</rscale>
<asrwt>0</asrwt>
<pdfrwt beam="1">  1        2 0.14456048E+00 0.96287948E+03</pdfrwt>
<pdfrwt beam="2">  1       -2 0.25436118E+00 0.96287948E+03</pdfrwt>
<totfact> 0.16700694E+00</totfact>
</mgrwt>
</event>
<event>
 4    1  0.6912310E-008  0.7785606E+03  0.7818608E-02  0.9591579E-01
         -2   -1    0    0    0  501 -0.00000000000E+00  0.00000000000E+00  0.14957912760E+04  0.14957912760E+04  0.25500000000E-02 0.  1.
          2   -1    0    0  501    0  0.00000000000E+00 -0.00000000000E+00 -0.10442988408E+04  0.10442988408E+04  0.25500000000E-02 0. -1.
    8880022    1    1    2    0    0 -0.64998022819E+03  0.40036322721E+03 -0.76777387226E+03  0.10934502196E+04  0.15294330000E+03 0.  0.
    8880022    1    1    2    0    0  0.64998022819E+03 -0.40036322721E+03  0.12192663074E+04  0.14466398972E+04  0.15294330000E+03 0.  0.
<mgrwt>
<rscale>  0 0.77856064E+03</rscale>
<asrwt>0</asrwt>
<pdfrwt beam="1">  1        2 0.16066136E+00 0.77856064E+03</pdfrwt>
<pdfrwt beam="2">  1       -2 0.23012174E+00 0.77856064E+03</pdfrwt>
<totfact> 0.20659806E+00</totfact>
</mgrwt>
</event>
<event>
 4    1  0.6912310E-008  0.1056494E+04  0.7818608E-02  0.9248665E-01
          2   -1    0    0  501    0  0.00000000000E+00  0.00000000000E+00  0.25240250886E+04  0.25240250886E+04  0.25500000000E-02 0. -1.
         -2   -1    0    0    0  501 -0.00000000000E+00 -0.00000000000E+00 -0.63636458960E+03  0.63636458960E+03  0.25500000000E-02 0.  1.
    8880022    1    1    2    0    0  0.78212564452E+03 -0.69358964726E+03  0.71023025303E+02  0.10588782016E+04  0.15294330000E+03 0.  0.
    8880022    1    1    2    0    0 -0.78212564452E+03  0.69358964726E+03  0.18166374737E+04  0.21015114766E+04  0.15294330000E+03 0.  0.
<mgrwt>
<rscale>  0 0.10564936E+04</rscale>
<asrwt>0</asrwt>
<pdfrwt beam="1">  1        2 0.38831156E+00 0.10564936E+04</pdfrwt>
<pdfrwt beam="2">  1       -2 0.97902243E-01 0.10564936E+04</pdfrwt>
<totfact> 0.29318029E+00</totfact>
</mgrwt>
</event>
<event>
 4    1  0.6912310E-008  0.4513212E+03  0.7818608E-02  0.1027329E+00
          2   -1    0    0  501    0  0.00000000000E+00  0.00000000000E+00  0.23455642388E+03  0.23455642389E+03  0.25500000000E-02 0. -1.
         -2   -1    0    0    0  501 -0.00000000000E+00 -0.00000000000E+00 -0.42287987888E+04  0.42287987888E+04  0.25500000000E-02 0.  1.
    8880022    1    1    2    0    0  0.40253345321E+03  0.13515184493E+03 -0.39865013679E+04  0.40119675985E+04  0.15294330000E+03 0.  0.
    8880022    1    1    2    0    0 -0.40253345321E+03 -0.13515184493E+03 -0.77409969588E+01  0.45138761413E+03  0.15294330000E+03 0. -1.
<mgrwt>
<rscale>  0 0.45132123E+03</rscale>
<asrwt>0</asrwt>
<pdfrwt beam="1">  1        2 0.36085607E-01 0.45132123E+03</pdfrwt>
<pdfrwt beam="2">  1       -2 0.65058437E+00 0.45132123E+03</pdfrwt>
<totfact> 0.53136851E-02</totfact>
</mgrwt>
</event>
<event>
 4    1  0.6912310E-008  0.1140200E+04  0.7818608E-02  0.9166872E-01
          2   -1    0    0  501    0  0.00000000000E+00  0.00000000000E+00  0.25612023948E+04  0.25612023948E+04  0.25500000000E-02 0. -1.
         -2   -1    0    0    0  501 -0.00000000000E+00 -0.00000000000E+00 -0.11251262068E+04  0.11251262068E+04  0.25500000000E-02 0.  1.
    8880022    1    1    2    0    0 -0.79428144336E+03 -0.80360578103E+03 -0.64746415513E+03  0.13112081253E+04  0.15294330000E+03 0.  0.
    8880022    1    1    2    0    0  0.79428144336E+03  0.80360578103E+03  0.20835403431E+04  0.23751204763E+04  0.15294330000E+03 0.  0.
<mgrwt>
<rscale>  0 0.11402004E+04</rscale>
<asrwt>0</asrwt>
<pdfrwt beam="1">  1        2 0.39403114E+00 0.11402004E+04</pdfrwt>
<pdfrwt beam="2">  1       -2 0.17309634E+00 0.11402004E+04</pdfrwt>
<totfact> 0.64031441E-01</totfact>
</mgrwt>
</event>
<event>
 4    1  0.6912310E-008  0.4445318E+03  0.7818608E-02  0.1029365E+00
          2   -1    0    0  501    0  0.00000000000E+00  0.00000000000E+00  0.13908203296E+04  0.13908203296E+04  0.25500000000E-02 0. -1.
         -2   -1    0    0    0  501 -0.00000000000E+00 -0.00000000000E+00 -0.30256161075E+03  0.30256161076E+03  0.25500000000E-02 0.  1.
    8880022    1    1    2    0    0 -0.20388766770E+03 -0.36420691996E+03  0.11607668310E+04  0.12429755229E+04  0.15294330000E+03 0.  0.
    8880022    1    1    2    0    0  0.20388766770E+03  0.36420691996E+03 -0.72508112102E+02  0.45040641750E+03  0.15294330000E+03 0.  1.
<mgrwt>
<rscale>  0 0.44453179E+03</rscale>
<asrwt>0</asrwt>
<pdfrwt beam="1">  1        2 0.21397236E+00 0.44453179E+03</pdfrwt>
<pdfrwt beam="2">  1       -2 0.46547940E-01 0.44453179E+03</pdfrwt>
<totfact> 0.67814691E+01</totfact>
</mgrwt>
</event>
<event>
 4    1  0.6912310E-008  0.5859727E+03  0.7818608E-02  0.9934943E-01
          2   -1    0    0  501    0  0.00000000000E+00  0.00000000000E+00  0.35836073383E+04  0.35836073383E+04  0.25500000000E-02 0. -1.
         -2   -1    0    0    0  501 -0.00000000000E+00 -0.00000000000E+00 -0.24189769275E+03  0.24189769276E+03  0.25500000000E-02 0.  1.
    8880022    1    1    2    0    0  0.13848460605E+03 -0.54844724036E+03  0.18443317854E+03  0.61431230814E+03  0.15294330000E+03 0.  0.
    8880022    1    1    2    0    0 -0.13848460605E+03  0.54844724036E+03  0.31572764670E+04  0.32111927229E+04  0.15294330000E+03 0.  0.
<mgrwt>
<rscale>  0 0.58597271E+03</rscale>
<asrwt>0</asrwt>
<pdfrwt beam="1">  1        2 0.55132420E+00 0.58597271E+03</pdfrwt>
<pdfrwt beam="2">  1       -2 0.37215030E-01 0.58597271E+03</pdfrwt>
<totfact> 0.54537073E+00</totfact>
</mgrwt>
</event>
<event>
 4    1  0.6912310E-008  0.5058428E+03  0.7818608E-02  0.1012265E+00
         -2   -1    0    0    0  501 -0.00000000000E+00  0.00000000000E+00  0.24640119104E+03  0.24640119106E+03  0.25500000000E-02 0.  1.
          2   -1    0    0  501    0  0.00000000000E+00 -0.00000000000E+00 -0.19199900604E+04  0.19199900604E+04  0.25500000000E-02 0. -1.
    8880022    1    1    2    0    0  0.32504103330E+03  0.35613706682E+03 -0.10282696066E+03  0.51618826076E+03  0.15294330000E+03 0.  0.
    8880022    1    1    2    0    0 -0.32504103330E+03 -0.35613706682E+03 -0.15707619087E+04  0.16502029907E+04  0.15294330000E+03 0.  0.
<mgrwt>
<rscale>  0 0.50584280E+03</rscale>
<asrwt>0</asrwt>
<pdfrwt beam="1">  1        2 0.29538308E+00 0.50584280E+03</pdfrwt>
<pdfrwt beam="2">  1       -2 0.37907877E-01 0.50584280E+03</pdfrwt>
<totfact> 0.51771800E+01</totfact>
</mgrwt>
</event>
<event>
 4    1  0.6912310E-008  0.4129824E+03  0.7818608E-02  0.1039375E+00
          2   -1    0    0  501    0  0.00000000000E+00  0.00000000000E+00  0.12369593406E+04  0.12369593406E+04  0.25500000000E-02 0. -1.
         -2   -1    0    0    0  501 -0.00000000000E+00 -0.00000000000E+00 -0.34968530506E+03  0.34968530506E+03  0.25500000000E-02 0.  1.
    8880022    1    1    2    0    0  0.32356391445E+03  0.20608066388E+03 -0.17377814435E+03  0.44805506718E+03  0.15294330000E+03 0.  0.
    8880022    1    1    2    0    0 -0.32356391445E+03 -0.20608066388E+03  0.10610521799E+04  0.11385895785E+04  0.15294330000E+03 0.  0.
<mgrwt>
<rscale>  0 0.41298244E+03</rscale>
<asrwt>0</asrwt>
<pdfrwt beam="1">  1        2 0.19030144E+00 0.41298244E+03</pdfrwt>
<pdfrwt beam="2">  1       -2 0.53797740E-01 0.41298244E+03</pdfrwt>
<totfact> 0.62149993E+01</totfact>
</mgrwt>
</event>
<event>
 4    1  0.6912310E-008  0.5315337E+03  0.7818608E-02  0.1005861E+00
         -2   -1    0    0    0  501 -0.00000000000E+00  0.00000000000E+00  0.80013930268E+03  0.80013930269E+03  0.25500000000E-02 0.  1.
          2   -1    0    0  501    0  0.00000000000E+00 -0.00000000000E+00 -0.14621933907E+04  0.14621933907E+04  0.25500000000E-02 0. -1.
    8880022    1    1    2    0    0 -0.49935067251E+03 -0.98920967423E+02 -0.13161907216E+04  0.14194668438E+04  0.15294330000E+03 0.  0.
    8880022    1    1    2    0    0  0.49935067251E+03  0.98920967423E+02  0.65413663362E+03  0.84286584958E+03  0.15294330000E+03 0.  0.
<mgrwt>
<rscale>  0 0.53153373E+03</rscale>
<asrwt>0</asrwt>
<pdfrwt beam="1">  1        2 0.22495283E+00 0.53153373E+03</pdfrwt>
<pdfrwt beam="2">  1       -2 0.12309835E+00 0.53153373E+03</pdfrwt>
<totfact> 0.70646335E+00</totfact>
</mgrwt>
</event>
<event>
 4    1  0.6912310E-008  0.1094821E+04  0.7818608E-02  0.9210255E-01
          2   -1    0    0  501    0  0.00000000000E+00  0.00000000000E+00  0.10507786548E+04  0.10507786548E+04  0.25500000000E-02 0. -1.
         -2   -1    0    0    0  501 -0.00000000000E+00 -0.00000000000E+00 -0.17446183053E+04  0.17446183053E+04  0.25500000000E-02 0.  1.
    8880022    1    1    2    0    0  0.63421814257E+03 -0.87920885549E+03  0.47541596623E+03  0.11935882280E+04  0.15294330000E+03 0.  0.
    8880022    1    1    2    0    0 -0.63421814257E+03  0.87920885549E+03 -0.11692556168E+04  0.16018087321E+04  0.15294330000E+03 0.  0.
<mgrwt>
<rscale>  0 0.10948208E+04</rscale>
<asrwt>0</asrwt>
<pdfrwt beam="1">  1        2 0.16165826E+00 0.10948208E+04</pdfrwt>
<pdfrwt beam="2">  1       -2 0.26840282E+00 0.10948208E+04</pdfrwt>
<totfact> 0.11440254E+00</totfact>
</mgrwt>
</event>
<event>
 4    1  0.6912310E-008  0.7115378E+03  0.7818608E-02  0.9697702E-01
         -2   -1    0    0    0  501 -0.00000000000E+00  0.00000000000E+00  0.22019017674E+03  0.22019017675E+03  0.25500000000E-02 0.  1.
          2   -1    0    0  501    0  0.00000000000E+00 -0.00000000000E+00 -0.24768295019E+04  0.24768295019E+04  0.25500000000E-02 0. -1.
    8880022    1    1    2    0    0  0.42719106981E+03 -0.54808962685E+03 -0.14893349695E+04  0.16505770971E+04  0.15294330000E+03 0.  0.
    8880022    1    1    2    0    0 -0.42719106981E+03  0.54808962685E+03 -0.76730435570E+03  0.10464425815E+04  0.15294330000E+03 0.  0.
<mgrwt>
<rscale>  0 0.71153784E+03</rscale>
<asrwt>0</asrwt>
<pdfrwt beam="1">  1        2 0.38105067E+00 0.71153784E+03</pdfrwt>
<pdfrwt beam="2">  1       -2 0.33875414E-01 0.71153784E+03</pdfrwt>
<totfact> 0.30699363E+01</totfact>
</mgrwt>
</event>
<event>
 4    1  0.6912310E-008  0.5755806E+03  0.7818608E-02  0.9957405E-01
         -2   -1    0    0    0  501 -0.00000000000E+00  0.00000000000E+00  0.43761706016E+03  0.43761706017E+03  0.25500000000E-02 0.  1.
          2   -1    0    0  501    0  0.00000000000E+00 -0.00000000000E+00 -0.42141745603E+04  0.42141745603E+04  0.25500000000E-02 0. -1.
    8880022    1    1    2    0    0 -0.51168398386E+03 -0.21466468035E+03  0.21837041457E+03  0.61561247169E+03  0.15294330000E+03 0.  0.
    8880022    1    1    2    0    0  0.51168398386E+03  0.21466468035E+03 -0.39949279147E+04  0.40361791488E+04  0.15294330000E+03 0.  0.
<mgrwt>
<rscale>  0 0.57558064E+03</rscale>
<asrwt>0</asrwt>
<pdfrwt beam="1">  1        2 0.64833452E+00 0.57558064E+03</pdfrwt>
<pdfrwt beam="2">  1       -2 0.67325704E-01 0.57558064E+03</pdfrwt>
<totfact> 0.54340357E-01</totfact>
</mgrwt>
</event>
<event>
 4    1  0.6912310E-008  0.5816338E+03  0.7818608E-02  0.9944260E-01
         -2   -1    0    0    0  501 -0.00000000000E+00  0.00000000000E+00  0.50624071781E+03  0.50624071782E+03  0.25500000000E-02 0.  1.
          2   -1    0    0  501    0  0.00000000000E+00 -0.00000000000E+00 -0.13606706741E+04  0.13606706741E+04  0.25500000000E-02 0. -1.
    8880022    1    1    2    0    0  0.16219963855E+03 -0.53721271990E+03  0.23867219360E+03  0.62869889310E+03  0.15294330000E+03 0.  0.
    8880022    1    1    2    0    0 -0.16219963855E+03  0.53721271990E+03 -0.10931021499E+04  0.12382124989E+04  0.15294330000E+03 0.  0.
<mgrwt>
<rscale>  0 0.58163380E+03</rscale>
<asrwt>0</asrwt>
<pdfrwt beam="1">  1        2 0.20933395E+00 0.58163380E+03</pdfrwt>
<pdfrwt beam="2">  1       -2 0.77883188E-01 0.58163380E+03</pdfrwt>
<totfact> 0.23366620E+01</totfact>
</mgrwt>
</event>
<event>
 4    1  0.6912310E-008  0.3661872E+03  0.7818608E-02  0.1056160E+00
         -2   -1    0    0    0  501 -0.00000000000E+00  0.00000000000E+00  0.55181108799E+03  0.55181108800E+03  0.25500000000E-02 0.  1.
          2   -1    0    0  501    0  0.00000000000E+00 -0.00000000000E+00 -0.16278951485E+04  0.16278951485E+04  0.25500000000E-02 0. -1.
    8880022    1    1    2    0    0 -0.31313619225E+03  0.11245960281E+03  0.46718082035E+03  0.59359161810E+03  0.15294330000E+03 0.  0.
    8880022    1    1    2    0    0  0.31313619225E+03 -0.11245960281E+03 -0.15432648809E+04  0.15861146184E+04  0.15294330000E+03 0.  0.
<mgrwt>
<rscale>  0 0.36618723E+03</rscale>
<asrwt>0</asrwt>
<pdfrwt beam="1">  1        2 0.25044541E+00 0.36618723E+03</pdfrwt>
<pdfrwt beam="2">  1       -2 0.84894014E-01 0.36618723E+03</pdfrwt>
<totfact> 0.14362791E+01</totfact>
</mgrwt>
</event>
<event>
 4    1  0.6912310E-008  0.3503437E+03  0.7818608E-02  0.1062474E+00
         -2   -1    0    0    0  501 -0.00000000000E+00  0.00000000000E+00  0.35357030279E+03  0.35357030280E+03  0.25500000000E-02 0.  1.
          2   -1    0    0  501    0  0.00000000000E+00 -0.00000000000E+00 -0.98105403529E+03  0.98105403530E+03  0.25500000000E-02 0. -1.
    8880022    1    1    2    0    0  0.28700530817E+03 -0.13029588734E+03 -0.85015019602E+03  0.91950860463E+03  0.15294330000E+03 0.  0.
    8880022    1    1    2    0    0 -0.28700530817E+03  0.13029588734E+03  0.22266646352E+03  0.41511573347E+03  0.15294330000E+03 0.  1.
<mgrwt>
<rscale>  0 0.35034371E+03</rscale>
<asrwt>0</asrwt>
<pdfrwt beam="1">  1        2 0.15093139E+00 0.35034371E+03</pdfrwt>
<pdfrwt beam="2">  1       -2 0.54395431E-01 0.35034371E+03</pdfrwt>
<totfact> 0.87262580E+01</totfact>
</mgrwt>
</event>
<event>
 4    1  0.6912310E-008  0.6291950E+03  0.7818608E-02  0.9846621E-01
         -2   -1    0    0    0  501 -0.00000000000E+00  0.00000000000E+00  0.16215495521E+03  0.16215495523E+03  0.25500000000E-02 0.  1.
          2   -1    0    0  501    0  0.00000000000E+00 -0.00000000000E+00 -0.35080581236E+04  0.35080581236E+04  0.25500000000E-02 0. -1.
    8880022    1    1    2    0    0 -0.54352357720E+03  0.27762710966E+03 -0.66104839868E+03  0.91261784412E+03  0.15294330000E+03 0.  0.
    8880022    1    1    2    0    0  0.54352357720E+03 -0.27762710966E+03 -0.26848547697E+04  0.27575952347E+04  0.15294330000E+03 0.  0.
<mgrwt>
<rscale>  0 0.62919500E+03</rscale>
<asrwt>0</asrwt>
<pdfrwt beam="1">  1        2 0.53970119E+00 0.62919500E+03</pdfrwt>
<pdfrwt beam="2">  1       -2 0.24946919E-01 0.62919500E+03</pdfrwt>
<totfact> 0.12771794E+01</totfact>
</mgrwt>
</event>
<event>
 4    1  0.6912310E-008  0.6778169E+03  0.7818608E-02  0.9755939E-01
         -2   -1    0    0    0  501 -0.00000000000E+00  0.00000000000E+00  0.50210150830E+03  0.50210150830E+03  0.25500000000E-02 0.  1.
          2   -1    0    0  501    0  0.00000000000E+00 -0.00000000000E+00 -0.95252637889E+03  0.95252637889E+03  0.25500000000E-02 0. -1.
    8880022    1    1    2    0    0  0.80308157940E+02 -0.65543471796E+03 -0.80900024996E+02  0.68262767070E+03  0.15294330000E+03 0.  0.
    8880022    1    1    2    0    0 -0.80308157940E+02  0.65543471796E+03 -0.36952484560E+03  0.77200021650E+03  0.15294330000E+03 0.  0.
<mgrwt>
<rscale>  0 0.67781688E+03</rscale>
<asrwt>0</asrwt>
<pdfrwt beam="1">  1        2 0.14654252E+00 0.67781688E+03</pdfrwt>
<pdfrwt beam="2">  1       -2 0.77246386E-01 0.67781688E+03</pdfrwt>
<totfact> 0.41336395E+01</totfact>
</mgrwt>
</event>
<event>
 4    1  0.6912310E-008  0.8537716E+03  0.7818608E-02  0.9485289E-01
          2   -1    0    0  501    0  0.00000000000E+00  0.00000000000E+00  0.11738447969E+04  0.11738447970E+04  0.25500000000E-02 0. -1.
         -2   -1    0    0    0  501 -0.00000000000E+00 -0.00000000000E+00 -0.89198123349E+03  0.89198123350E+03  0.25500000000E-02 0.  1.
    8880022    1    1    2    0    0  0.69395903362E+03  0.47323899781E+03  0.71027889368E+03  0.11105953580E+04  0.15294330000E+03 0.  0.
    8880022    1    1    2    0    0 -0.69395903362E+03 -0.47323899781E+03 -0.42841533023E+03  0.95523067244E+03  0.15294330000E+03 0.  0.
<mgrwt>
<rscale>  0 0.85377160E+03</rscale>
<asrwt>0</asrwt>
<pdfrwt beam="1">  1        2 0.18059151E+00 0.85377160E+03</pdfrwt>
<pdfrwt beam="2">  1       -2 0.13722788E+00 0.85377160E+03</pdfrwt>
<totfact> 0.74821957E+00</totfact>
</mgrwt>
</event>
<event>
 4    1  0.6912310E-008  0.7159086E+03  0.7818608E-02  0.9690407E-01
          2   -1    0    0  501    0  0.00000000000E+00  0.00000000000E+00  0.12065384103E+04  0.12065384103E+04  0.25500000000E-02 0. -1.
         -2   -1    0    0    0  501 -0.00000000000E+00 -0.00000000000E+00 -0.44624436434E+03  0.44624436434E+03  0.25500000000E-02 0.  1.
    8880022    1    1    2    0    0  0.67900986679E+03  0.16756826725E+03  0.56134758562E+03  0.90974517766E+03  0.15294330000E+03 0.  0.
    8880022    1    1    2    0    0 -0.67900986679E+03 -0.16756826725E+03  0.19894646030E+03  0.74303759694E+03  0.15294330000E+03 0.  0.
<mgrwt>
<rscale>  0 0.71590864E+03</rscale>
<asrwt>0</asrwt>
<pdfrwt beam="1">  1        2 0.18562129E+00 0.71590864E+03</pdfrwt>
<pdfrwt beam="2">  1       -2 0.68652981E-01 0.71590864E+03</pdfrwt>
<totfact> 0.37205914E+01</totfact>
</mgrwt>
</event>
<event>
 4    1  0.6912310E-008  0.2534629E+03  0.7818608E-02  0.1111136E+00
         -2   -1    0    0    0  501 -0.00000000000E+00  0.00000000000E+00  0.10986563711E+03  0.10986563714E+03  0.25500000000E-02 0.  1.
          2   -1    0    0  501    0  0.00000000000E+00 -0.00000000000E+00 -0.13533011369E+04  0.13533011369E+04  0.25500000000E-02 0. -1.
    8880022    1    1    2    0    0  0.12910878238E+03 -0.15550797093E+03 -0.11730383358E+04  0.12001093271E+04  0.15294330000E+03 0.  0.
    8880022    1    1    2    0    0 -0.12910878238E+03  0.15550797093E+03 -0.70397164057E+02  0.26305744702E+03  0.15294330000E+03 0.  0.
<mgrwt>
<rscale>  0 0.25346294E+03</rscale>
<asrwt>0</asrwt>
<pdfrwt beam="1">  1        2 0.20820016E+00 0.25346294E+03</pdfrwt>
<pdfrwt beam="2">  1       -2 0.16902407E-01 0.25346294E+03</pdfrwt>
<totfact> 0.46271596E+02</totfact>
</mgrwt>
</event>
<event>
 4    1  0.6912310E-008  0.1542424E+03  0.7818608E-02  0.1195355E+00
         -2   -1    0    0    0  501 -0.00000000000E+00  0.00000000000E+00  0.10919036450E+03  0.10919036453E+03  0.25500000000E-02 0.  1.
          2   -1    0    0  501    0  0.00000000000E+00 -0.00000000000E+00 -0.69730659282E+03  0.69730659283E+03  0.25500000000E-02 0. -1.
    8880022    1    1    2    0    0 -0.36326519495E+01  0.19643351130E+02 -0.62842295961E+03  0.64707505483E+03  0.15294330000E+03 0.  0.
    8880022    1    1    2    0    0  0.36326519495E+01 -0.19643351130E+02  0.40306731286E+02  0.15942190253E+03  0.15294330000E+03 0.  1.
<mgrwt>
<rscale>  0 0.15424238E+03</rscale>
<asrwt>0</asrwt>
<pdfrwt beam="1">  1        2 0.10727793E+00 0.15424238E+03</pdfrwt>
<pdfrwt beam="2">  1       -2 0.16798518E-01 0.15424238E+03</pdfrwt>
<totfact> 0.11905017E+03</totfact>
</mgrwt>
</event>
<event>
 4    1  0.6912310E-008  0.6460911E+03  0.7818608E-02  0.9814142E-01
          2   -1    0    0  501    0  0.00000000000E+00  0.00000000000E+00  0.15798618784E+04  0.15798618784E+04  0.25500000000E-02 0. -1.
         -2   -1    0    0    0  501 -0.00000000000E+00 -0.00000000000E+00 -0.40711151832E+03  0.40711151833E+03  0.25500000000E-02 0.  1.
    8880022    1    1    2    0    0  0.47621950692E+03 -0.40897074036E+03 -0.22055710167E+01  0.64609488684E+03  0.15294330000E+03 0.  0.
    8880022    1    1    2    0    0 -0.47621950692E+03  0.40897074036E+03  0.11749559311E+04  0.13408785099E+04  0.15294330000E+03 0.  0.
<mgrwt>
<rscale>  0 0.64609112E+03</rscale>
<asrwt>0</asrwt>
<pdfrwt beam="1">  1        2 0.24305567E+00 0.64609112E+03</pdfrwt>
<pdfrwt beam="2">  1       -2 0.62632541E-01 0.64609112E+03</pdfrwt>
<totfact> 0.28099514E+01</totfact>
</mgrwt>
</event>
<event>
 4    1  0.6912310E-008  0.2409855E+03  0.7818608E-02  0.1119138E+00
         -2   -1    0    0    0  501 -0.00000000000E+00  0.00000000000E+00  0.31248687592E+03  0.31248687593E+03  0.25500000000E-02 0.  1.
          2   -1    0    0  501    0  0.00000000000E+00 -0.00000000000E+00 -0.96996056190E+03  0.96996056190E+03  0.25500000000E-02 0. -1.
    8880022    1    1    2    0    0 -0.10260164425E+03 -0.15541960660E+03  0.24779418103E+03  0.34565294832E+03  0.15294330000E+03 0.  1.
    8880022    1    1    2    0    0  0.10260164425E+03  0.15541960660E+03 -0.90526786701E+03  0.93679448951E+03  0.15294330000E+03 0.  0.
<mgrwt>
<rscale>  0 0.24098549E+03</rscale>
<asrwt>0</asrwt>
<pdfrwt beam="1">  1        2 0.14922470E+00 0.24098549E+03</pdfrwt>
<pdfrwt beam="2">  1       -2 0.48074904E-01 0.24098549E+03</pdfrwt>
<totfact> 0.11599063E+02</totfact>
</mgrwt>
</event>
<event>
 4    1  0.6912310E-008  0.5878394E+03  0.7818608E-02  0.9930962E-01
         -2   -1    0    0    0  501 -0.00000000000E+00  0.00000000000E+00  0.37121663319E+03  0.37121663320E+03  0.25500000000E-02 0.  1.
          2   -1    0    0  501    0  0.00000000000E+00 -0.00000000000E+00 -0.12496168311E+04  0.12496168311E+04  0.25500000000E-02 0. -1.
    8880022    1    1    2    0    0  0.63614767374E+02  0.56401832181E+03 -0.84849992610E+03  0.10322341225E+04  0.15294330000E+03 0.  0.
    8880022    1    1    2    0    0 -0.63614767374E+02 -0.56401832181E+03 -0.29900271830E+02  0.58859934186E+03  0.15294330000E+03 0.  0.
<mgrwt>
<rscale>  0 0.58783940E+03</rscale>
<asrwt>0</asrwt>
<pdfrwt beam="1">  1        2 0.19224874E+00 0.58783940E+03</pdfrwt>
<pdfrwt beam="2">  1       -2 0.57110252E-01 0.58783940E+03</pdfrwt>
<totfact> 0.52693697E+01</totfact>
</mgrwt>
</event>
<event>
 4    1  0.6912310E-008  0.5475900E+03  0.7818608E-02  0.1002053E+00
          2   -1    0    0  501    0  0.00000000000E+00  0.00000000000E+00  0.15195668796E+04  0.15195668796E+04  0.25500000000E-02 0. -1.
         -2   -1    0    0    0  501 -0.00000000000E+00 -0.00000000000E+00 -0.45299889412E+03  0.45299889413E+03  0.25500000000E-02 0.  1.
    8880022    1    1    2    0    0  0.17510222000E+03  0.49578456400E+03 -0.20767237087E+03  0.58564715314E+03  0.15294330000E+03 0.  0.
    8880022    1    1    2    0    0 -0.17510222000E+03 -0.49578456400E+03  0.12742403563E+04  0.13869186205E+04  0.15294330000E+03 0.  0.
<mgrwt>
<rscale>  0 0.54758997E+03</rscale>
<asrwt>0</asrwt>
<pdfrwt beam="1">  1        2 0.23377952E+00 0.54758997E+03</pdfrwt>
<pdfrwt beam="2">  1       -2 0.69692137E-01 0.54758997E+03</pdfrwt>
<totfact> 0.24469949E+01</totfact>
</mgrwt>
</event>
<event>
 4    1  0.6912310E-008  0.3746215E+03  0.7818608E-02  0.1052940E+00
         -2   -1    0    0    0  501 -0.00000000000E+00  0.00000000000E+00  0.91612000696E+03  0.91612000696E+03  0.25500000000E-02 0.  1.
          2   -1    0    0  501    0  0.00000000000E+00 -0.00000000000E+00 -0.15265350164E+04  0.15265350164E+04  0.25500000000E-02 0. -1.
    8880022    1    1    2    0    0 -0.33362743207E+03  0.75115443409E+02  0.85321888036E+03  0.93183888311E+03  0.15294330000E+03 0.  0.
    8880022    1    1    2    0    0  0.33362743207E+03 -0.75115443409E+02 -0.14636338898E+04  0.15108161402E+04  0.15294330000E+03 0.  0.
<mgrwt>
<rscale>  0 0.37462147E+03</rscale>
<asrwt>0</asrwt>
<pdfrwt beam="1">  1        2 0.23485154E+00 0.37462147E+03</pdfrwt>
<pdfrwt beam="2">  1       -2 0.14094154E+00 0.37462147E+03</pdfrwt>
<totfact> 0.48207369E+00</totfact>
</mgrwt>
</event>
<event>
 4    1  0.6912310E-008  0.1011233E+04  0.7818608E-02  0.9296310E-01
         -2   -1    0    0    0  501 -0.00000000000E+00  0.00000000000E+00  0.63802939765E+03  0.63802939765E+03  0.25500000000E-02 0.  1.
          2   -1    0    0  501    0  0.00000000000E+00 -0.00000000000E+00 -0.25940388253E+04  0.25940388253E+04  0.25500000000E-02 0. -1.
    8880022    1    1    2    0    0  0.65795268516E+03 -0.75252770814E+03 -0.19770057098E+04  0.22206176882E+04  0.15294330000E+03 0.  0.
    8880022    1    1    2    0    0 -0.65795268516E+03  0.75252770814E+03  0.20996282144E+02  0.10114505348E+04  0.15294330000E+03 0.  1.
<mgrwt>
<rscale>  0 0.10112326E+04</rscale>
<asrwt>0</asrwt>
<pdfrwt beam="1">  1        2 0.39908289E+00 0.10112326E+04</pdfrwt>
<pdfrwt beam="2">  1       -2 0.98158370E-01 0.10112326E+04</pdfrwt>
<totfact> 0.26716754E+00</totfact>
</mgrwt>
</event>
<event>
 4    1  0.6912310E-008  0.2267529E+03  0.7818608E-02  0.1128946E+00
          2   -1    0    0  501    0  0.00000000000E+00  0.00000000000E+00  0.51358951179E+03  0.51358951180E+03  0.25500000000E-02 0. -1.
         -2   -1    0    0    0  501 -0.00000000000E+00 -0.00000000000E+00 -0.37892871832E+03  0.37892871833E+03  0.25500000000E-02 0.  1.
    8880022    1    1    2    0    0 -0.43786269954E+02  0.16157961220E+03  0.45012618977E+03  0.50401433337E+03  0.15294330000E+03 0. -1.
    8880022    1    1    2    0    0  0.43786269954E+02 -0.16157961220E+03 -0.31546539630E+03  0.38850389675E+03  0.15294330000E+03 0.  0.
<mgrwt>
<rscale>  0 0.22675286E+03</rscale>
<asrwt>0</asrwt>
<pdfrwt beam="1">  1        2 0.79013771E-01 0.22675286E+03</pdfrwt>
<pdfrwt beam="2">  1       -2 0.58296726E-01 0.22675286E+03</pdfrwt>
<totfact> 0.17203717E+02</totfact>
</mgrwt>
</event>
<event>
 4    1  0.6912310E-008  0.3578126E+03  0.7818608E-02  0.1059453E+00
         -2   -1    0    0    0  501 -0.00000000000E+00  0.00000000000E+00  0.27348053900E+03  0.27348053901E+03  0.25500000000E-02 0.  1.
          2   -1    0    0  501    0  0.00000000000E+00 -0.00000000000E+00 -0.95802499091E+03  0.95802499092E+03  0.25500000000E-02 0. -1.
    8880022    1    1    2    0    0 -0.31460970459E+03  0.75225993268E+02 -0.78258436502E+03  0.86050459480E+03  0.15294330000E+03 0.  0.
    8880022    1    1    2    0    0  0.31460970459E+03 -0.75225993268E+02  0.98039913103E+02  0.37100093513E+03  0.15294330000E+03 0.  0.
<mgrwt>
<rscale>  0 0.35781262E+03</rscale>
<asrwt>0</asrwt>
<pdfrwt beam="1">  1        2 0.14738846E+00 0.35781262E+03</pdfrwt>
<pdfrwt beam="2">  1       -2 0.42073930E-01 0.35781262E+03</pdfrwt>
<totfact> 0.15044400E+02</totfact>
</mgrwt>
</event>
<event>
 4    1  0.6912310E-008  0.7029833E+03  0.7818608E-02  0.9712144E-01
         -2   -1    0    0    0  501 -0.00000000000E+00  0.00000000000E+00  0.62964574088E+03  0.62964574088E+03  0.25500000000E-02 0.  1.
          2   -1    0    0  501    0  0.00000000000E+00 -0.00000000000E+00 -0.99413405852E+03  0.99413405853E+03  0.25500000000E-02 0. -1.
    8880022    1    1    2    0    0  0.18070360628E+03  0.66192146643E+03 -0.55474694862E+03  0.89550524904E+03  0.15294330000E+03 0.  0.
    8880022    1    1    2    0    0 -0.18070360628E+03 -0.66192146643E+03  0.19025863097E+03  0.72827455037E+03  0.15294330000E+03 0.  0.
<mgrwt>
<rscale>  0 0.70298327E+03</rscale>
<asrwt>0</asrwt>
<pdfrwt beam="1">  1        2 0.15294370E+00 0.70298327E+03</pdfrwt>
<pdfrwt beam="2">  1       -2 0.96868575E-01 0.70298327E+03</pdfrwt>
<totfact> 0.23106887E+01</totfact>
</mgrwt>
</event>
<event>
 4    1  0.6912310E-008  0.8411276E+03  0.7818608E-02  0.9502323E-01
         -2   -1    0    0    0  501 -0.00000000000E+00  0.00000000000E+00  0.17958840523E+04  0.17958840523E+04  0.25500000000E-02 0.  1.
          2   -1    0    0  501    0  0.00000000000E+00 -0.00000000000E+00 -0.82898463021E+03  0.82898463022E+03  0.25500000000E-02 0. -1.
    8880022    1    1    2    0    0  0.81975305385E+03  0.11004071609E+03 -0.46729577327E+03  0.96221672258E+03  0.15294330000E+03 0.  0.
    8880022    1    1    2    0    0 -0.81975305385E+03 -0.11004071609E+03  0.14341951954E+04  0.16626519600E+04  0.15294330000E+03 0.  0.
<mgrwt>
<rscale>  0 0.84112762E+03</rscale>
<asrwt>0</asrwt>
<pdfrwt beam="1">  1        2 0.12753610E+00 0.84112762E+03</pdfrwt>
<pdfrwt beam="2">  1       -2 0.27628985E+00 0.84112762E+03</pdfrwt>
<totfact> 0.14906450E+00</totfact>
</mgrwt>
</event>
<event>
 4    1  0.6912310E-008  0.5830278E+03  0.7818608E-02  0.9941257E-01
         -2   -1    0    0    0  501 -0.00000000000E+00  0.00000000000E+00  0.34502617940E+03  0.34502617941E+03  0.25500000000E-02 0.  1.
          2   -1    0    0  501    0  0.00000000000E+00 -0.00000000000E+00 -0.19347112700E+04  0.19347112700E+04  0.25500000000E-02 0. -1.
    8880022    1    1    2    0    0 -0.56133371276E+03  0.37870961334E+02 -0.15933808497E+04  0.16966979495E+04  0.15294330000E+03 0.  0.
    8880022    1    1    2    0    0  0.56133371276E+03 -0.37870961334E+02  0.36957590717E+01  0.58303949990E+03  0.15294330000E+03 0.  0.
<mgrwt>
<rscale>  0 0.58302779E+03</rscale>
<asrwt>0</asrwt>
<pdfrwt beam="1">  1        2 0.29764788E+00 0.58302779E+03</pdfrwt>
<pdfrwt beam="2">  1       -2 0.53080952E-01 0.58302779E+03</pdfrwt>
<totfact> 0.25720576E+01</totfact>
</mgrwt>
</event>
<event>
 4    1  0.6912310E-008  0.2048640E+03  0.7818608E-02  0.1145699E+00
         -2   -1    0    0    0  501 -0.00000000000E+00  0.00000000000E+00  0.19885077519E+03  0.19885077521E+03  0.25500000000E-02 0.  1.
          2   -1    0    0  501    0  0.00000000000E+00 -0.00000000000E+00 -0.19534745285E+04  0.19534745285E+04  0.25500000000E-02 0. -1.
    8880022    1    1    2    0    0  0.88793719669E+02  0.10340841898E+03 -0.18936773075E+04  0.19047264958E+04  0.15294330000E+03 0.  0.
    8880022    1    1    2    0    0 -0.88793719669E+02 -0.10340841898E+03  0.13905355415E+03  0.24759880797E+03  0.15294330000E+03 0.  1.
<mgrwt>
<rscale>  0 0.20486405E+03</rscale>
<asrwt>0</asrwt>
<pdfrwt beam="1">  1        2 0.30053453E+00 0.20486405E+03</pdfrwt>
<pdfrwt beam="2">  1       -2 0.30592428E-01 0.20486405E+03</pdfrwt>
<totfact> 0.80268056E+01</totfact>
</mgrwt>
</event>
<event>
 4    1  0.6912310E-008  0.7381644E+03  0.7818608E-02  0.9654104E-01
          2   -1    0    0  501    0  0.00000000000E+00  0.00000000000E+00  0.10415609315E+04  0.10415609315E+04  0.25500000000E-02 0. -1.
         -2   -1    0    0    0  501 -0.00000000000E+00 -0.00000000000E+00 -0.11029875557E+04  0.11029875557E+04  0.25500000000E-02 0.  1.
    8880022    1    1    2    0    0 -0.56419279897E+03  0.45075658770E+03 -0.80816940486E+03  0.10945430351E+04  0.15294330000E+03 0.  0.
    8880022    1    1    2    0    0  0.56419279897E+03 -0.45075658770E+03  0.74674278074E+03  0.10500054521E+04  0.15294330000E+03 0.  0.
<mgrwt>
<rscale>  0 0.73816439E+03</rscale>
<asrwt>0</asrwt>
<pdfrwt beam="1">  1        2 0.16024014E+00 0.73816439E+03</pdfrwt>
<pdfrwt beam="2">  1       -2 0.16969039E+00 0.73816439E+03</pdfrwt>
<totfact> 0.51901037E+00</totfact>
</mgrwt>
</event>
<event>
 4    1  0.6912310E-008  0.7991135E+03  0.7818608E-02  0.9561301E-01
          2   -1    0    0  501    0  0.00000000000E+00  0.00000000000E+00  0.41744069115E+04  0.41744069115E+04  0.25500000000E-02 0. -1.
         -2   -1    0    0    0  501 -0.00000000000E+00 -0.00000000000E+00 -0.42640945978E+03  0.42640945978E+03  0.25500000000E-02 0.  1.
    8880022    1    1    2    0    0  0.14112054310E+03  0.77154112587E+03  0.31879897460E+02  0.79974914658E+03  0.15294330000E+03 0.  0.
    8880022    1    1    2    0    0 -0.14112054310E+03 -0.77154112587E+03  0.37161175543E+04  0.38010672247E+04  0.15294330000E+03 0.  0.
<mgrwt>
<rscale>  0 0.79911349E+03</rscale>
<asrwt>0</asrwt>
<pdfrwt beam="1">  1        2 0.64221645E+00 0.79911349E+03</pdfrwt>
<pdfrwt beam="2">  1       -2 0.65601456E-01 0.79911349E+03</pdfrwt>
<totfact> 0.58080077E-01</totfact>
</mgrwt>
</event>
<event>
 4    1  0.6912310E-008  0.2587497E+03  0.7818608E-02  0.1107897E+00
         -2   -1    0    0    0  501 -0.00000000000E+00  0.00000000000E+00  0.66115474767E+02  0.66115474816E+02  0.25500000000E-02 0.  1.
          2   -1    0    0  501    0  0.00000000000E+00 -0.00000000000E+00 -0.32410639937E+04  0.32410639937E+04  0.25500000000E-02 0. -1.
    8880022    1    1    2    0    0  0.19932655291E+03 -0.61876148620E+02 -0.21633184221E+03  0.33726970133E+03  0.15294330000E+03 0.  0.
    8880022    1    1    2    0    0 -0.19932655291E+03  0.61876148620E+02 -0.29586166768E+04  0.29699097672E+04  0.15294330000E+03 0.  0.
<mgrwt>
<rscale>  0 0.25874966E+03</rscale>
<asrwt>0</asrwt>
<pdfrwt beam="1">  1        2 0.49862511E+00 0.25874966E+03</pdfrwt>
<pdfrwt beam="2">  1       -2 0.10171614E-01 0.25874966E+03</pdfrwt>
<totfact> 0.96756565E+01</totfact>
</mgrwt>
</event>
<event>
 4    1  0.6912310E-008  0.9907131E+03  0.7818608E-02  0.9318790E-01
         -2   -1    0    0    0  501 -0.00000000000E+00  0.00000000000E+00  0.13129187642E+04  0.13129187642E+04  0.25500000000E-02 0.  1.
          2   -1    0    0  501    0  0.00000000000E+00 -0.00000000000E+00 -0.10719633744E+04  0.10719633744E+04  0.25500000000E-02 0. -1.
    8880022    1    1    2    0    0  0.59467854810E+03  0.77748198466E+03  0.77643551090E+03  0.12587154435E+04  0.15294330000E+03 0.  0.
    8880022    1    1    2    0    0 -0.59467854810E+03 -0.77748198466E+03 -0.53548012108E+03  0.11261666951E+04  0.15294330000E+03 0.  0.
<mgrwt>
<rscale>  0 0.99071311E+03</rscale>
<asrwt>0</asrwt>
<pdfrwt beam="1">  1        2 0.16491744E+00 0.99071311E+03</pdfrwt>
<pdfrwt beam="2">  1       -2 0.20198750E+00 0.99071311E+03</pdfrwt>
<totfact> 0.29073916E+00</totfact>
</mgrwt>
</event>
<event>
 4    1  0.6912310E-008  0.5912690E+03  0.7818608E-02  0.9923688E-01
         -2   -1    0    0    0  501 -0.00000000000E+00  0.00000000000E+00  0.11070103192E+04  0.11070103192E+04  0.25500000000E-02 0.  1.
          2   -1    0    0  501    0  0.00000000000E+00 -0.00000000000E+00 -0.73541854666E+03  0.73541854666E+03  0.25500000000E-02 0. -1.
    8880022    1    1    2    0    0  0.53466010659E+03 -0.20086299736E+03 -0.51005849571E+03  0.78087047284E+03  0.15294330000E+03 0.  0.
    8880022    1    1    2    0    0 -0.53466010659E+03  0.20086299736E+03  0.88165026824E+03  0.10615583930E+04  0.15294330000E+03 0.  1.
<mgrwt>
<rscale>  0 0.59126900E+03</rscale>
<asrwt>0</asrwt>
<pdfrwt beam="1">  1        2 0.11314132E+00 0.59126900E+03</pdfrwt>
<pdfrwt beam="2">  1       -2 0.17030928E+00 0.59126900E+03</pdfrwt>
<totfact> 0.84727913E+00</totfact>
</mgrwt>
</event>
<event>
 4    1  0.6912310E-008  0.4082374E+03  0.7818608E-02  0.1040964E+00
         -2   -1    0    0    0  501 -0.00000000000E+00  0.00000000000E+00  0.25738477031E+03  0.25738477032E+03  0.25500000000E-02 0.  1.
          2   -1    0    0  501    0  0.00000000000E+00 -0.00000000000E+00 -0.12772412964E+04  0.12772412964E+04  0.25500000000E-02 0. -1.
    8880022    1    1    2    0    0  0.96939116339E+02 -0.36588101920E+03 -0.10487134867E+04  0.11253700470E+04  0.15294330000E+03 0.  0.
    8880022    1    1    2    0    0 -0.96939116339E+02  0.36588101920E+03  0.28856960616E+02  0.40925601972E+03  0.15294330000E+03 0.  0.
<mgrwt>
<rscale>  0 0.40823739E+03</rscale>
<asrwt>0</asrwt>
<pdfrwt beam="1">  1        2 0.19649866E+00 0.40823739E+03</pdfrwt>
<pdfrwt beam="2">  1       -2 0.39597658E-01 0.40823739E+03</pdfrwt>
<totfact> 0.10841129E+02</totfact>
</mgrwt>
</event>
<event>
 4    1  0.6912310E-008  0.2368047E+03  0.7818608E-02  0.1121940E+00
          2   -1    0    0  501    0  0.00000000000E+00  0.00000000000E+00  0.45841029583E+03  0.45841029584E+03  0.25500000000E-02 0. -1.
         -2   -1    0    0    0  501 -0.00000000000E+00 -0.00000000000E+00 -0.44112601850E+03  0.44112601851E+03  0.25500000000E-02 0.  1.
    8880022    1    1    2    0    0  0.12089580020E+03  0.13442098856E+03 -0.37371140753E+03  0.44242136680E+03  0.15294330000E+03 0.  0.
    8880022    1    1    2    0    0 -0.12089580020E+03 -0.13442098856E+03  0.39099568486E+03  0.45711494754E+03  0.15294330000E+03 0. -1.
<mgrwt>
<rscale>  0 0.23680467E+03</rscale>
<asrwt>0</asrwt>
<pdfrwt beam="1">  1        2 0.70524661E-01 0.23680467E+03</pdfrwt>
<pdfrwt beam="2">  1       -2 0.67865542E-01 0.23680467E+03</pdfrwt>
<totfact> 0.14186274E+02</totfact>
</mgrwt>
</event>
<event>
 4    1  0.6912310E-008  0.7798558E+03  0.7818608E-02  0.9589642E-01
          2   -1    0    0  501    0  0.00000000000E+00  0.00000000000E+00  0.12006715339E+04  0.12006715339E+04  0.25500000000E-02 0. -1.
         -2   -1    0    0    0  501 -0.00000000000E+00 -0.00000000000E+00 -0.96760887104E+03  0.96760887105E+03  0.25500000000E-02 0.  1.
    8880022    1    1    2    0    0  0.71137513861E+03  0.28058657341E+03  0.86491373106E+03  0.11645818255E+04  0.15294330000E+03 0.  0.
    8880022    1    1    2    0    0 -0.71137513861E+03 -0.28058657341E+03 -0.63185106822E+03  0.10036985795E+04  0.15294330000E+03 0.  0.
<mgrwt>
<rscale>  0 0.77985580E+03</rscale>
<asrwt>0</asrwt>
<pdfrwt beam="1">  1        2 0.18471870E+00 0.77985580E+03</pdfrwt>
<pdfrwt beam="2">  1       -2 0.14886290E+00 0.77985580E+03</pdfrwt>
<totfact> 0.58844086E+00</totfact>
</mgrwt>
</event>
<event>
 4    1  0.6912310E-008  0.4812627E+03  0.7818608E-02  0.1018789E+00
         -2   -1    0    0    0  501 -0.00000000000E+00  0.00000000000E+00  0.42787377939E+03  0.42787377940E+03  0.25500000000E-02 0.  1.
          2   -1    0    0  501    0  0.00000000000E+00 -0.00000000000E+00 -0.12484952468E+04  0.12484952468E+04  0.25500000000E-02 0. -1.
    8880022    1    1    2    0    0 -0.26176237369E+03 -0.37376809024E+03 -0.10411398937E+04  0.11469899986E+04  0.15294330000E+03 0.  0.
    8880022    1    1    2    0    0  0.26176237369E+03  0.37376809024E+03  0.22051842628E+03  0.52937902764E+03  0.15294330000E+03 0.  0.
<mgrwt>
<rscale>  0 0.48126269E+03</rscale>
<asrwt>0</asrwt>
<pdfrwt beam="1">  1        2 0.19207619E+00 0.48126269E+03</pdfrwt>
<pdfrwt beam="2">  1       -2 0.65826736E-01 0.48126269E+03</pdfrwt>
<totfact> 0.39683349E+01</totfact>
</mgrwt>
</event>
<event>
 4    1  0.6912310E-008  0.4599959E+03  0.7818608E-02  0.1024782E+00
         -2   -1    0    0    0  501 -0.00000000000E+00  0.00000000000E+00  0.49549073273E+03  0.49549073274E+03  0.25500000000E-02 0.  1.
          2   -1    0    0  501    0  0.00000000000E+00 -0.00000000000E+00 -0.48428016774E+03  0.48428016775E+03  0.25500000000E-02 0. -1.
    8880022    1    1    2    0    0  0.57215742045E+02  0.43003592423E+03 -0.16281044802E+03  0.48795843293E+03  0.15294330000E+03 0.  0.
    8880022    1    1    2    0    0 -0.57215742045E+02 -0.43003592423E+03  0.17402101301E+03  0.49181246756E+03  0.15294330000E+03 0.  0.
<mgrwt>
<rscale>  0 0.45999586E+03</rscale>
<asrwt>0</asrwt>
<pdfrwt beam="1">  1        2 0.74504641E-01 0.45999586E+03</pdfrwt>
<pdfrwt beam="2">  1       -2 0.76229343E-01 0.45999586E+03</pdfrwt>
<totfact> 0.10140375E+02</totfact>
</mgrwt>
</event>
<event>
 4    1  0.6912310E-008  0.1400464E+04  0.7818608E-02  0.8953483E-01
          2   -1    0    0  501    0  0.00000000000E+00  0.00000000000E+00  0.75949754450E+03  0.75949754451E+03  0.25500000000E-02 0. -1.
         -2   -1    0    0    0  501 -0.00000000000E+00 -0.00000000000E+00 -0.53595070769E+04  0.53595070769E+04  0.25500000000E-02 0.  1.
    8880022    1    1    2    0    0 -0.89466390584E+03  0.10665290687E+04 -0.45023604438E+04  0.47151403985E+04  0.15294330000E+03 0.  0.
    8880022    1    1    2    0    0  0.89466390584E+03 -0.10665290687E+04 -0.97649088622E+02  0.14038642229E+04  0.15294330000E+03 0.  0.
<mgrwt>
<rscale>  0 0.14004640E+04</rscale>
<asrwt>0</asrwt>
<pdfrwt beam="1">  1        2 0.11684578E+00 0.14004640E+04</pdfrwt>
<pdfrwt beam="2">  1       -2 0.82453953E+00 0.14004640E+04</pdfrwt>
<totfact> 0.19732056E-03</totfact>
</mgrwt>
</event>
<event>
 4    1  0.6912310E-008  0.6511809E+03  0.7818608E-02  0.9804566E-01
         -2   -1    0    0    0  501 -0.00000000000E+00  0.00000000000E+00  0.44394575539E+03  0.44394575540E+03  0.25500000000E-02 0.  1.
          2   -1    0    0  501    0  0.00000000000E+00 -0.00000000000E+00 -0.15050421785E+04  0.15050421785E+04  0.25500000000E-02 0. -1.
    8880022    1    1    2    0    0 -0.46351079807E+02  0.63126581798E+03  0.58487968802E+02  0.65380230274E+03  0.15294330000E+03 0.  0.
    8880022    1    1    2    0    0  0.46351079807E+02 -0.63126581798E+03 -0.11195843919E+04  0.12951856311E+04  0.15294330000E+03 0.  0.
<mgrwt>
<rscale>  0 0.65118093E+03</rscale>
<asrwt>0</asrwt>
<pdfrwt beam="1">  1        2 0.23154495E+00 0.65118093E+03</pdfrwt>
<pdfrwt beam="2">  1       -2 0.68299348E-01 0.65118093E+03</pdfrwt>
<totfact> 0.25639709E+01</totfact>
</mgrwt>
</event>
<event>
 4    1  0.6912310E-008  0.1170093E+04  0.7818608E-02  0.9139445E-01
          2   -1    0    0  501    0  0.00000000000E+00  0.00000000000E+00  0.13659284197E+04  0.13659284197E+04  0.25500000000E-02 0. -1.
         -2   -1    0    0    0  501 -0.00000000000E+00 -0.00000000000E+00 -0.18283913668E+04  0.18283913668E+04  0.25500000000E-02 0.  1.
    8880022    1    1    2    0    0 -0.71270987415E+03  0.91529760742E+03  0.84231011822E+03  0.14417361281E+04  0.15294330000E+03 0.  0.
    8880022    1    1    2    0    0  0.71270987415E+03 -0.91529760742E+03 -0.13047730653E+04  0.17525836584E+04  0.15294330000E+03 0.  0.
<mgrwt>
<rscale>  0 0.11700926E+04</rscale>
<asrwt>0</asrwt>
<pdfrwt beam="1">  1        2 0.21014283E+00 0.11700926E+04</pdfrwt>
<pdfrwt beam="2">  1       -2 0.28129098E+00 0.11700926E+04</pdfrwt>
<totfact> 0.61227067E-01</totfact>
</mgrwt>
</event>
<event>
 4    1  0.6912310E-008  0.6546687E+03  0.7818608E-02  0.9798058E-01
         -2   -1    0    0    0  501 -0.00000000000E+00  0.00000000000E+00  0.41316183136E+03  0.41316183137E+03  0.25500000000E-02 0.  1.
          2   -1    0    0  501    0  0.00000000000E+00 -0.00000000000E+00 -0.18010333251E+04  0.18010333251E+04  0.25500000000E-02 0. -1.
    8880022    1    1    2    0    0 -0.48015107139E+03 -0.41791669578E+03 -0.14148494859E+04  0.15589708582E+04  0.15294330000E+03 0.  0.
    8880022    1    1    2    0    0  0.48015107139E+03  0.41791669578E+03  0.26977992166E+02  0.65522429827E+03  0.15294330000E+03 0.  0.
<mgrwt>
<rscale>  0 0.65466867E+03</rscale>
<asrwt>0</asrwt>
<pdfrwt beam="1">  1        2 0.27708205E+00 0.65466867E+03</pdfrwt>
<pdfrwt beam="2">  1       -2 0.63563359E-01 0.65466867E+03</pdfrwt>
<totfact> 0.20601394E+01</totfact>
</mgrwt>
</event>
<event>
 4    1  0.6912310E-008  0.3126744E+03  0.7818608E-02  0.1079071E+00
          2   -1    0    0  501    0  0.00000000000E+00  0.00000000000E+00  0.23898357975E+04  0.23898357975E+04  0.25500000000E-02 0. -1.
         -2   -1    0    0    0  501 -0.00000000000E+00 -0.00000000000E+00 -0.43006098523E+02  0.43006098599E+02  0.25500000000E-02 0.  1.
    8880022    1    1    2    0    0 -0.26007004022E+03  0.82080319214E+02  0.90478673229E+03  0.95729007545E+03  0.15294330000E+03 0.  0.
    8880022    1    1    2    0    0  0.26007004022E+03 -0.82080319214E+02  0.14420429667E+04  0.14755518206E+04  0.15294330000E+03 0.  0.
<mgrwt>
<rscale>  0 0.31267436E+03</rscale>
<asrwt>0</asrwt>
<pdfrwt beam="1">  1        2 0.36766692E+00 0.31267436E+03</pdfrwt>
<pdfrwt beam="2">  1       -2 0.66163250E-02 0.31267436E+03</pdfrwt>
<totfact> 0.58181455E+02</totfact>
</mgrwt>
</event>
<event>
 4    1  0.6912310E-008  0.9912770E+03  0.7818608E-02  0.9318164E-01
          2   -1    0    0  501    0  0.00000000000E+00  0.00000000000E+00  0.16728684378E+04  0.16728684378E+04  0.25500000000E-02 0. -1.
         -2   -1    0    0    0  501 -0.00000000000E+00 -0.00000000000E+00 -0.71990927425E+03  0.71990927425E+03  0.25500000000E-02 0.  1.
    8880022    1    1    2    0    0 -0.87082818292E+03 -0.44821494319E+03 -0.36818045428E+02  0.99196047348E+03  0.15294330000E+03 0.  0.
    8880022    1    1    2    0    0  0.87082818292E+03  0.44821494319E+03  0.98977720898E+03  0.14008172386E+04  0.15294330000E+03 0.  0.
<mgrwt>
<rscale>  0 0.99127696E+03</rscale>
<asrwt>0</asrwt>
<pdfrwt beam="1">  1        2 0.25736437E+00 0.99127696E+03</pdfrwt>
<pdfrwt beam="2">  1       -2 0.11075527E+00 0.99127696E+03</pdfrwt>
<totfact> 0.65420601E+00</totfact>
</mgrwt>
</event>
<event>
 4    1  0.6912310E-008  0.6525301E+03  0.7818608E-02  0.9802043E-01
          2   -1    0    0  501    0  0.00000000000E+00  0.00000000000E+00  0.10592035862E+04  0.10592035862E+04  0.25500000000E-02 0. -1.
         -2   -1    0    0    0  501 -0.00000000000E+00 -0.00000000000E+00 -0.49226430722E+03  0.49226430722E+03  0.25500000000E-02 0.  1.
    8880022    1    1    2    0    0  0.62318415357E+03 -0.11851333137E+03 -0.48716411986E+02  0.65434611696E+03  0.15294330000E+03 0.  0.
    8880022    1    1    2    0    0 -0.62318415357E+03  0.11851333137E+03  0.61565569096E+03  0.89712177646E+03  0.15294330000E+03 0.  0.
<mgrwt>
<rscale>  0 0.65253012E+03</rscale>
<asrwt>0</asrwt>
<pdfrwt beam="1">  1        2 0.16295440E+00 0.65253012E+03</pdfrwt>
<pdfrwt beam="2">  1       -2 0.75732970E-01 0.65253012E+03</pdfrwt>
<totfact> 0.37060905E+01</totfact>
</mgrwt>
</event>
<event>
 4    1  0.6912310E-008  0.6512760E+03  0.7818608E-02  0.9804388E-01
          2   -1    0    0  501    0  0.00000000000E+00  0.00000000000E+00  0.13616205112E+04  0.13616205112E+04  0.25500000000E-02 0. -1.
         -2   -1    0    0    0  501 -0.00000000000E+00 -0.00000000000E+00 -0.32832228639E+03  0.32832228640E+03  0.25500000000E-02 0.  1.
    8880022    1    1    2    0    0 -0.28507287033E+03 -0.56524529335E+03  0.32544996382E+03  0.72806463656E+03  0.15294330000E+03 0.  0.
    8880022    1    1    2    0    0  0.28507287033E+03  0.56524529335E+03  0.70784826095E+03  0.96187816099E+03  0.15294330000E+03 0.  0.
<mgrwt>
<rscale>  0 0.65127601E+03</rscale>
<asrwt>0</asrwt>
<pdfrwt beam="1">  1        2 0.20948008E+00 0.65127601E+03</pdfrwt>
<pdfrwt beam="2">  1       -2 0.50511120E-01 0.65127601E+03</pdfrwt>
<totfact> 0.58111793E+01</totfact>
</mgrwt>
</event>
<event>
 4    1  0.6912310E-008  0.8594752E+03  0.7818608E-02  0.9477707E-01
         -2   -1    0    0    0  501 -0.00000000000E+00  0.00000000000E+00  0.53489270225E+03  0.53489270226E+03  0.25500000000E-02 0.  1.
          2   -1    0    0  501    0  0.00000000000E+00 -0.00000000000E+00 -0.22945543934E+04  0.22945543934E+04  0.25500000000E-02 0. -1.
    8880022    1    1    2    0    0 -0.11266179825E+03  0.83822033370E+03 -0.17724882093E+04  0.19698761671E+04  0.15294330000E+03 0.  0.
    8880022    1    1    2    0    0  0.11266179825E+03 -0.83822033370E+03  0.12826518156E+02  0.85957092855E+03  0.15294330000E+03 0.  0.
<mgrwt>
<rscale>  0 0.85947522E+03</rscale>
<asrwt>0</asrwt>
<pdfrwt beam="1">  1        2 0.35300836E+00 0.85947522E+03</pdfrwt>
<pdfrwt beam="2">  1       -2 0.82291186E-01 0.85947522E+03</pdfrwt>
<totfact> 0.60738736E+00</totfact>
</mgrwt>
</event>
<event>
 4    1  0.6912310E-008  0.7320497E+03  0.7818608E-02  0.9663940E-01
         -2   -1    0    0    0  501 -0.00000000000E+00  0.00000000000E+00  0.11158460395E+04  0.11158460395E+04  0.25500000000E-02 0.  1.
          2   -1    0    0  501    0  0.00000000000E+00 -0.00000000000E+00 -0.10576545781E+04  0.10576545781E+04  0.25500000000E-02 0. -1.
    8880022    1    1    2    0    0  0.69357684540E+03  0.17735896202E+03 -0.77386449975E+03  0.10652525329E+04  0.15294330000E+03 0.  0.
    8880022    1    1    2    0    0 -0.69357684540E+03 -0.17735896202E+03  0.83205596106E+03  0.11082480847E+04  0.15294330000E+03 0.  0.
<mgrwt>
<rscale>  0 0.73204965E+03</rscale>
<asrwt>0</asrwt>
<pdfrwt beam="1">  1        2 0.16271609E+00 0.73204965E+03</pdfrwt>
<pdfrwt beam="2">  1       -2 0.17166862E+00 0.73204965E+03</pdfrwt>
<totfact> 0.49153049E+00</totfact>
</mgrwt>
</event>
<event>
 4    1  0.6912310E-008  0.7321954E+03  0.7818608E-02  0.9663704E-01
          2   -1    0    0  501    0  0.00000000000E+00  0.00000000000E+00  0.69063344230E+03  0.69063344231E+03  0.25500000000E-02 0. -1.
         -2   -1    0    0    0  501 -0.00000000000E+00 -0.00000000000E+00 -0.87608283093E+03  0.87608283094E+03  0.25500000000E-02 0.  1.
    8880022    1    1    2    0    0 -0.52824872558E+03  0.48339610662E+03 -0.35715164105E+03  0.81465787892E+03  0.15294330000E+03 0.  0.
    8880022    1    1    2    0    0  0.52824872558E+03 -0.48339610662E+03  0.17170225242E+03  0.75205839432E+03  0.15294330000E+03 0.  0.
<mgrwt>
<rscale>  0 0.73219544E+03</rscale>
<asrwt>0</asrwt>
<pdfrwt beam="1">  1        2 0.10625130E+00 0.73219544E+03</pdfrwt>
<pdfrwt beam="2">  1       -2 0.13478197E+00 0.73219544E+03</pdfrwt>
<totfact> 0.16775159E+01</totfact>
</mgrwt>
</event>
<event>
 4    1  0.6912310E-008  0.4283627E+03  0.7818608E-02  0.1034378E+00
          2   -1    0    0  501    0  0.00000000000E+00  0.00000000000E+00  0.11779371975E+04  0.11779371975E+04  0.25500000000E-02 0. -1.
         -2   -1    0    0    0  501 -0.00000000000E+00 -0.00000000000E+00 -0.54910971122E+03  0.54910971122E+03  0.25500000000E-02 0.  1.
    8880022    1    1    2    0    0 -0.35669604833E+03 -0.18130322135E+03  0.10452583552E+04  0.11296280853E+04  0.15294330000E+03 0.  0.
    8880022    1    1    2    0    0  0.35669604833E+03  0.18130322135E+03 -0.41643086892E+03  0.59741882342E+03  0.15294330000E+03 0.  0.
<mgrwt>
<rscale>  0 0.42836268E+03</rscale>
<asrwt>0</asrwt>
<pdfrwt beam="1">  1        2 0.18122111E+00 0.42836268E+03</pdfrwt>
<pdfrwt beam="2">  1       -2 0.84478417E-01 0.42836268E+03</pdfrwt>
<totfact> 0.25431219E+01</totfact>
</mgrwt>
</event>
<event>
 4    1  0.6912310E-008  0.2323498E+03  0.7818608E-02  0.1124997E+00
          2   -1    0    0  501    0  0.00000000000E+00  0.00000000000E+00  0.10736586053E+04  0.10736586053E+04  0.25500000000E-02 0. -1.
         -2   -1    0    0    0  501 -0.00000000000E+00 -0.00000000000E+00 -0.79402483975E+03  0.79402483976E+03  0.25500000000E-02 0.  1.
    8880022    1    1    2    0    0 -0.19228352776E+00 -0.17491357644E+03  0.10436066602E+04  0.10691591605E+04  0.15294330000E+03 0. -1.
    8880022    1    1    2    0    0  0.19228352776E+00  0.17491357644E+03 -0.76397289468E+03  0.79852428455E+03  0.15294330000E+03 0.  0.
<mgrwt>
<rscale>  0 0.23234984E+03</rscale>
<asrwt>0</asrwt>
<pdfrwt beam="1">  1        2 0.16517825E+00 0.23234984E+03</pdfrwt>
<pdfrwt beam="2">  1       -2 0.12215767E+00 0.23234984E+03</pdfrwt>
<totfact> 0.12996929E+01</totfact>
</mgrwt>
</event>
<event>
 4    1  0.6912310E-008  0.6686294E+03  0.7818608E-02  0.9772437E-01
         -2   -1    0    0    0  501 -0.00000000000E+00  0.00000000000E+00  0.13488778583E+04  0.13488778583E+04  0.25500000000E-02 0.  1.
          2   -1    0    0  501    0  0.00000000000E+00 -0.00000000000E+00 -0.75666977822E+03  0.75666977822E+03  0.25500000000E-02 0. -1.
    8880022    1    1    2    0    0 -0.59045009946E+03  0.27393848202E+03 -0.49311271300E+03  0.83079805766E+03  0.15294330000E+03 0. -1.
    8880022    1    1    2    0    0  0.59045009946E+03 -0.27393848202E+03  0.10853207931E+04  0.12747495788E+04  0.15294330000E+03 0.  0.
<mgrwt>
<rscale>  0 0.66862939E+03</rscale>
<asrwt>0</asrwt>
<pdfrwt beam="1">  1        2 0.11641074E+00 0.66862939E+03</pdfrwt>
<pdfrwt beam="2">  1       -2 0.20751967E+00 0.66862939E+03</pdfrwt>
<totfact> 0.45568923E+00</totfact>
</mgrwt>
</event>
<event>
 4    1  0.6912310E-008  0.3365590E+03  0.7818608E-02  0.1068271E+00
         -2   -1    0    0    0  501 -0.00000000000E+00  0.00000000000E+00  0.49605468491E+03  0.49605468491E+03  0.25500000000E-02 0.  1.
          2   -1    0    0  501    0  0.00000000000E+00 -0.00000000000E+00 -0.39048050908E+03  0.39048050909E+03  0.25500000000E-02 0. -1.
    8880022    1    1    2    0    0  0.21634789142E+03  0.20754246708E+03 -0.23284334562E+03  0.40925293203E+03  0.15294330000E+03 0.  0.
    8880022    1    1    2    0    0 -0.21634789142E+03 -0.20754246708E+03  0.33841752144E+03  0.47728226197E+03  0.15294330000E+03 0.  0.
<mgrwt>
<rscale>  0 0.33655897E+03</rscale>
<asrwt>0</asrwt>
<pdfrwt beam="1">  1        2 0.60073925E-01 0.33655897E+03</pdfrwt>
<pdfrwt beam="2">  1       -2 0.76316105E-01 0.33655897E+03</pdfrwt>
<totfact> 0.13000179E+02</totfact>
</mgrwt>
</event>
<event>
 4    1  0.6912310E-008  0.5821727E+03  0.7818608E-02  0.9943098E-01
          2   -1    0    0  501    0  0.00000000000E+00  0.00000000000E+00  0.59580806366E+03  0.59580806367E+03  0.25500000000E-02 0. -1.
         -2   -1    0    0    0  501 -0.00000000000E+00 -0.00000000000E+00 -0.20880015351E+04  0.20880015351E+04  0.25500000000E-02 0.  1.
    8880022    1    1    2    0    0  0.47236241631E+03 -0.30398538207E+03  0.39851170320E+03  0.70550449711E+03  0.15294330000E+03 0.  0.
    8880022    1    1    2    0    0 -0.47236241631E+03  0.30398538207E+03 -0.18907051747E+04  0.19783051017E+04  0.15294330000E+03 0.  0.
<mgrwt>
<rscale>  0 0.58217267E+03</rscale>
<asrwt>0</asrwt>
<pdfrwt beam="1">  1        2 0.91662780E-01 0.58217267E+03</pdfrwt>
<pdfrwt beam="2">  1       -2 0.32123100E+00 0.58217267E+03</pdfrwt>
<totfact> 0.12748052E+00</totfact>
</mgrwt>
</event>
<event>
 4    1  0.6912310E-008  0.6769110E+03  0.7818608E-02  0.9757553E-01
          2   -1    0    0  501    0  0.00000000000E+00  0.00000000000E+00  0.20943959558E+04  0.20943959558E+04  0.25500000000E-02 0. -1.
         -2   -1    0    0    0  501 -0.00000000000E+00 -0.00000000000E+00 -0.27678322922E+03  0.27678322923E+03  0.25500000000E-02 0.  1.
    8880022    1    1    2    0    0  0.43631916550E+03 -0.49441123003E+03  0.36606029756E+03  0.76955095545E+03  0.15294330000E+03 0.  0.
    8880022    1    1    2    0    0 -0.43631916550E+03  0.49441123003E+03  0.14515524290E+04  0.16016282295E+04  0.15294330000E+03 0. -1.
<mgrwt>
<rscale>  0 0.67691102E+03</rscale>
<asrwt>0</asrwt>
<pdfrwt beam="1">  1        2 0.32221476E+00 0.67691102E+03</pdfrwt>
<pdfrwt beam="2">  1       -2 0.42582035E-01 0.67691102E+03</pdfrwt>
<totfact> 0.32325178E+01</totfact>
</mgrwt>
</event>
<event>
 4    1  0.6912310E-008  0.7048717E+03  0.7818608E-02  0.9708937E-01
         -2   -1    0    0    0  501 -0.00000000000E+00  0.00000000000E+00  0.37214140858E+03  0.37214140859E+03  0.25500000000E-02 0.  1.
          2   -1    0    0  501    0  0.00000000000E+00 -0.00000000000E+00 -0.31377603948E+04  0.31377603948E+04  0.25500000000E-02 0. -1.
    8880022    1    1    2    0    0  0.61404392674E+03  0.31048757013E+03 -0.27129963272E+04  0.28030685328E+04  0.15294330000E+03 0.  0.
    8880022    1    1    2    0    0 -0.61404392674E+03 -0.31048757013E+03 -0.52622659039E+02  0.70683327060E+03  0.15294330000E+03 0.  0.
<mgrwt>
<rscale>  0 0.70487171E+03</rscale>
<asrwt>0</asrwt>
<pdfrwt beam="1">  1        2 0.48273235E+00 0.70487171E+03</pdfrwt>
<pdfrwt beam="2">  1       -2 0.57252526E-01 0.70487171E+03</pdfrwt>
<totfact> 0.43988714E+00</totfact>
</mgrwt>
</event>
<event>
 4    1  0.6912310E-008  0.2574047E+03  0.7818608E-02  0.1108713E+00
         -2   -1    0    0    0  501 -0.00000000000E+00  0.00000000000E+00  0.78497451013E+02  0.78497451054E+02  0.25500000000E-02 0.  1.
          2   -1    0    0  501    0  0.00000000000E+00 -0.00000000000E+00 -0.16750683172E+04  0.16750683172E+04  0.25500000000E-02 0. -1.
    8880022    1    1    2    0    0 -0.19892657056E+03 -0.57391362254E+02 -0.14158414315E+04  0.14390497424E+04  0.15294330000E+03 0.  0.
    8880022    1    1    2    0    0  0.19892657056E+03  0.57391362254E+02 -0.18072943466E+03  0.31451602583E+03  0.15294330000E+03 0.  0.
<mgrwt>
<rscale>  0 0.25740474E+03</rscale>
<asrwt>0</asrwt>
<pdfrwt beam="1">  1        2 0.25770279E+00 0.25740474E+03</pdfrwt>
<pdfrwt beam="2">  1       -2 0.12076532E-01 0.25740474E+03</pdfrwt>
<totfact> 0.54153205E+02</totfact>
</mgrwt>
</event>
<event>
 4    1  0.6912310E-008  0.2057852E+03  0.7818608E-02  0.1144948E+00
          2   -1    0    0  501    0  0.00000000000E+00  0.00000000000E+00  0.15925315519E+04  0.15925315519E+04  0.25500000000E-02 0. -1.
         -2   -1    0    0    0  501 -0.00000000000E+00 -0.00000000000E+00 -0.73371683218E+02  0.73371683262E+02  0.25500000000E-02 0.  1.
    8880022    1    1    2    0    0  0.12138766543E+03  0.64968781955E+02  0.94479549991E+02  0.22643751087E+03  0.15294330000E+03 0.  1.
    8880022    1    1    2    0    0 -0.12138766543E+03 -0.64968781955E+02  0.14246803187E+04  0.14394657243E+04  0.15294330000E+03 0.  0.
<mgrwt>
<rscale>  0 0.20578523E+03</rscale>
<asrwt>0</asrwt>
<pdfrwt beam="1">  1        2 0.24500487E+00 0.20578523E+03</pdfrwt>
<pdfrwt beam="2">  1       -2 0.11287950E-01 0.20578523E+03</pdfrwt>
<totfact> 0.67250580E+02</totfact>
</mgrwt>
</event>
<event>
 4    1  0.6912310E-008  0.1055644E+04  0.7818608E-02  0.9249536E-01
          2   -1    0    0  501    0  0.00000000000E+00  0.00000000000E+00  0.68409680324E+03  0.68409680325E+03  0.25500000000E-02 0. -1.
         -2   -1    0    0    0  501 -0.00000000000E+00 -0.00000000000E+00 -0.24012616370E+04  0.24012616370E+04  0.25500000000E-02 0.  1.
    8880022    1    1    2    0    0 -0.67928543747E+03 -0.79345056291E+03  0.16284591494E+02  0.10557695498E+04  0.15294330000E+03 0.  0.
    8880022    1    1    2    0    0  0.67928543747E+03  0.79345056291E+03 -0.17334494252E+04  0.20295888904E+04  0.15294330000E+03 0.  0.
<mgrwt>
<rscale>  0 0.10556440E+04</rscale>
<asrwt>0</asrwt>
<pdfrwt beam="1">  1        2 0.10524566E+00 0.10556440E+04</pdfrwt>
<pdfrwt beam="2">  1       -2 0.36942486E+00 0.10556440E+04</pdfrwt>
<totfact> 0.49746658E-01</totfact>
</mgrwt>
</event>
<event>
 4    1  0.6912310E-008  0.3998180E+03  0.7818608E-02  0.1043843E+00
          2   -1    0    0  501    0  0.00000000000E+00  0.00000000000E+00  0.12605399796E+04  0.12605399796E+04  0.25500000000E-02 0. -1.
         -2   -1    0    0    0  501 -0.00000000000E+00 -0.00000000000E+00 -0.68165206118E+03  0.68165206118E+03  0.25500000000E-02 0.  1.
    8880022    1    1    2    0    0  0.12928333039E+03  0.34604709572E+03  0.11655644249E+04  0.12322316558E+04  0.15294330000E+03 0.  0.
    8880022    1    1    2    0    0 -0.12928333039E+03 -0.34604709572E+03 -0.58667650647E+03  0.70996038497E+03  0.15294330000E+03 0.  0.
<mgrwt>
<rscale>  0 0.39981799E+03</rscale>
<asrwt>0</asrwt>
<pdfrwt beam="1">  1        2 0.19392922E+00 0.39981799E+03</pdfrwt>
<pdfrwt beam="2">  1       -2 0.10486955E+00 0.39981799E+03</pdfrwt>
<totfact> 0.13904606E+01</totfact>
</mgrwt>
</event>
<event>
 4    1  0.6912310E-008  0.6361085E+03  0.7818608E-02  0.9833200E-01
         -2   -1    0    0    0  501 -0.00000000000E+00  0.00000000000E+00  0.13874879500E+04  0.13874879500E+04  0.25500000000E-02 0.  1.
          2   -1    0    0  501    0  0.00000000000E+00 -0.00000000000E+00 -0.47126568463E+03  0.47126568463E+03  0.25500000000E-02 0. -1.
    8880022    1    1    2    0    0  0.60569413527E+03 -0.11990424401E+03 -0.11568075078E+03  0.64654164781E+03  0.15294330000E+03 0.  0.
    8880022    1    1    2    0    0 -0.60569413527E+03  0.11990424401E+03  0.10319030162E+04  0.12122119868E+04  0.15294330000E+03 0.  0.
<mgrwt>
<rscale>  0 0.63610853E+03</rscale>
<asrwt>0</asrwt>
<pdfrwt beam="1">  1        2 0.72502414E-01 0.63610853E+03</pdfrwt>
<pdfrwt beam="2">  1       -2 0.21345968E+00 0.63610853E+03</pdfrwt>
<totfact> 0.74333244E+00</totfact>
</mgrwt>
</event>
<event>
 4    1  0.6912310E-008  0.2243865E+03  0.7818608E-02  0.1130654E+00
          2   -1    0    0  501    0  0.00000000000E+00  0.00000000000E+00  0.42697881499E+04  0.42697881499E+04  0.25500000000E-02 0. -1.
         -2   -1    0    0    0  501 -0.00000000000E+00 -0.00000000000E+00 -0.74655803422E+02  0.74655803466E+02  0.25500000000E-02 0.  1.
    8880022    1    1    2    0    0  0.16042566818E+03 -0.34946249541E+02  0.10426562410E+03  0.24742798700E+03  0.15294330000E+03 0.  1.
    8880022    1    1    2    0    0 -0.16042566818E+03  0.34946249541E+02  0.40908667224E+04  0.40970159664E+04  0.15294330000E+03 0.  0.
<mgrwt>
<rscale>  0 0.22438647E+03</rscale>
<asrwt>0</asrwt>
<pdfrwt beam="1">  1        2 0.65689052E+00 0.22438647E+03</pdfrwt>
<pdfrwt beam="2">  1       -2 0.11485508E-01 0.22438647E+03</pdfrwt>
<totfact> 0.14913455E+01</totfact>
</mgrwt>
</event>
<event>
 4    1  0.6912310E-008  0.1914912E+03  0.7818608E-02  0.1157123E+00
          2   -1    0    0  501    0  0.00000000000E+00  0.00000000000E+00  0.84784970432E+03  0.84784970432E+03  0.25500000000E-02 0. -1.
         -2   -1    0    0    0  501 -0.00000000000E+00 -0.00000000000E+00 -0.17460638580E+03  0.17460638582E+03  0.25500000000E-02 0.  1.
    8880022    1    1    2    0    0  0.85244180278E+02 -0.77528368091E+02 -0.10679441211E+03  0.21925765118E+03  0.15294330000E+03 0.  0.
    8880022    1    1    2    0    0 -0.85244180278E+02  0.77528368091E+02  0.78003773063E+03  0.80319843896E+03  0.15294330000E+03 0.  0.
<mgrwt>
<rscale>  0 0.19149118E+03</rscale>
<asrwt>0</asrwt>
<pdfrwt beam="1">  1        2 0.13043841E+00 0.19149118E+03</pdfrwt>
<pdfrwt beam="2">  1       -2 0.26862521E-01 0.19149118E+03</pdfrwt>
<totfact> 0.41697520E+02</totfact>
</mgrwt>
</event>
<event>
 4    1  0.6912310E-008  0.6079325E+03  0.7818608E-02  0.9889084E-01
         -2   -1    0    0    0  501 -0.00000000000E+00  0.00000000000E+00  0.41263580983E+03  0.41263580983E+03  0.25500000000E-02 0.  1.
          2   -1    0    0  501    0  0.00000000000E+00 -0.00000000000E+00 -0.11001487321E+04  0.11001487321E+04  0.25500000000E-02 0. -1.
    8880022    1    1    2    0    0  0.44685836305E+03  0.38276340171E+03 -0.17653432656E+02  0.60818871662E+03  0.15294330000E+03 0.  0.
    8880022    1    1    2    0    0 -0.44685836305E+03 -0.38276340171E+03 -0.66985948958E+03  0.90459582528E+03  0.15294330000E+03 0.  0.
<mgrwt>
<rscale>  0 0.60793246E+03</rscale>
<asrwt>0</asrwt>
<pdfrwt beam="1">  1        2 0.16925365E+00 0.60793246E+03</pdfrwt>
<pdfrwt beam="2">  1       -2 0.63482433E-01 0.60793246E+03</pdfrwt>
<totfact> 0.51580880E+01</totfact>
</mgrwt>
</event>
<event>
 4    1  0.6912310E-008  0.4710778E+03  0.7818608E-02  0.1021616E+00
         -2   -1    0    0    0  501 -0.00000000000E+00  0.00000000000E+00  0.41510675062E+03  0.41510675062E+03  0.25500000000E-02 0.  1.
          2   -1    0    0  501    0  0.00000000000E+00 -0.00000000000E+00 -0.19082625736E+04  0.19082625736E+04  0.25500000000E-02 0. -1.
    8880022    1    1    2    0    0 -0.31026742763E+03 -0.31977610270E+03  0.23904298155E+03  0.52825735447E+03  0.15294330000E+03 0.  0.
    8880022    1    1    2    0    0  0.31026742763E+03  0.31977610270E+03 -0.17321988046E+04  0.17951119698E+04  0.15294330000E+03 0.  0.
<mgrwt>
<rscale>  0 0.47107779E+03</rscale>
<asrwt>0</asrwt>
<pdfrwt beam="1">  1        2 0.29357885E+00 0.47107779E+03</pdfrwt>
<pdfrwt beam="2">  1       -2 0.63862578E-01 0.47107779E+03</pdfrwt>
<totfact> 0.18464628E+01</totfact>
</mgrwt>
</event>
<event>
 4    1  0.6912310E-008  0.5712646E+03  0.7818608E-02  0.9966884E-01
          2   -1    0    0  501    0  0.00000000000E+00  0.00000000000E+00  0.15040405510E+04  0.15040405510E+04  0.25500000000E-02 0. -1.
         -2   -1    0    0    0  501 -0.00000000000E+00 -0.00000000000E+00 -0.26981544504E+03  0.26981544505E+03  0.25500000000E-02 0.  1.
    8880022    1    1    2    0    0  0.49384265027E+03  0.24304543142E+03  0.10096011049E+04  0.11600162451E+04  0.15294330000E+03 0.  0.
    8880022    1    1    2    0    0 -0.49384265027E+03 -0.24304543142E+03  0.22462400109E+03  0.61383975094E+03  0.15294330000E+03 0.  0.
<mgrwt>
<rscale>  0 0.57126465E+03</rscale>
<asrwt>0</asrwt>
<pdfrwt beam="1">  1        2 0.23139086E+00 0.57126465E+03</pdfrwt>
<pdfrwt beam="2">  1       -2 0.41510068E-01 0.57126465E+03</pdfrwt>
<totfact> 0.72260525E+01</totfact>
</mgrwt>
</event>
<event>
 4    1  0.6912310E-008  0.1132160E+04  0.7818608E-02  0.9174401E-01
          2   -1    0    0  501    0  0.00000000000E+00  0.00000000000E+00  0.19652525943E+04  0.19652525943E+04  0.25500000000E-02 0. -1.
         -2   -1    0    0    0  501 -0.00000000000E+00 -0.00000000000E+00 -0.10537896327E+04  0.10537896327E+04  0.25500000000E-02 0.  1.
    8880022    1    1    2    0    0 -0.11005782594E+04  0.21707577024E+03  0.13875689856E+04  0.17908472123E+04  0.15294330000E+03 0.  0.
    8880022    1    1    2    0    0  0.11005782594E+04 -0.21707577024E+03 -0.47610602395E+03  0.12281950147E+04  0.15294330000E+03 0.  0.
<mgrwt>
<rscale>  0 0.11321599E+04</rscale>
<asrwt>0</asrwt>
<pdfrwt beam="1">  1        2 0.30234655E+00 0.11321599E+04</pdfrwt>
<pdfrwt beam="2">  1       -2 0.16212148E+00 0.11321599E+04</pdfrwt>
<totfact> 0.16636678E+00</totfact>
</mgrwt>
</event>
<event>
 4    1  0.6912310E-008  0.7401920E+03  0.7818608E-02  0.9650864E-01
          2   -1    0    0  501    0  0.00000000000E+00  0.00000000000E+00  0.89972653994E+03  0.89972653995E+03  0.25500000000E-02 0. -1.
         -2   -1    0    0    0  501 -0.00000000000E+00 -0.00000000000E+00 -0.27152081220E+04  0.27152081220E+04  0.25500000000E-02 0.  1.
    8880022    1    1    2    0    0  0.35953633162E+02 -0.72332561967E+03  0.68419362901E+03  0.10079708284E+04  0.15294330000E+03 0.  0.
    8880022    1    1    2    0    0 -0.35953633162E+02  0.72332561967E+03 -0.24996752111E+04  0.26069638336E+04  0.15294330000E+03 0.  0.
<mgrwt>
<rscale>  0 0.74019205E+03</rscale>
<asrwt>0</asrwt>
<pdfrwt beam="1">  1        2 0.13841947E+00 0.74019205E+03</pdfrwt>
<pdfrwt beam="2">  1       -2 0.41772432E+00 0.74019205E+03</pdfrwt>
<totfact> 0.17849329E-01</totfact>
</mgrwt>
</event>
<event>
 4    1  0.6912310E-008  0.4633430E+03  0.7818608E-02  0.1023816E+00
         -2   -1    0    0    0  501 -0.00000000000E+00  0.00000000000E+00  0.15677784770E+04  0.15677784770E+04  0.25500000000E-02 0.  1.
          2   -1    0    0  501    0  0.00000000000E+00 -0.00000000000E+00 -0.37824351622E+03  0.37824351623E+03  0.25500000000E-02 0. -1.
    8880022    1    1    2    0    0 -0.34526203536E+02  0.43600800997E+03  0.13719385641E+04  0.14480684100E+04  0.15294330000E+03 0.  0.
    8880022    1    1    2    0    0  0.34526203536E+02 -0.43600800997E+03 -0.18240360331E+03  0.49795358319E+03  0.15294330000E+03 0.  0.
<mgrwt>
<rscale>  0 0.46334296E+03</rscale>
<asrwt>0</asrwt>
<pdfrwt beam="1">  1        2 0.58191310E-01 0.46334296E+03</pdfrwt>
<pdfrwt beam="2">  1       -2 0.24119669E+00 0.46334296E+03</pdfrwt>
<totfact> 0.66062828E+00</totfact>
</mgrwt>
</event>
<event>
 4    1  0.6912310E-008  0.5894942E+03  0.7818608E-02  0.9927445E-01
         -2   -1    0    0    0  501 -0.00000000000E+00  0.00000000000E+00  0.32239220012E+03  0.32239220013E+03  0.25500000000E-02 0.  1.
          2   -1    0    0  501    0  0.00000000000E+00 -0.00000000000E+00 -0.15383224252E+04  0.15383224252E+04  0.25500000000E-02 0. -1.
    8880022    1    1    2    0    0 -0.12948333515E+03 -0.55438781031E+03 -0.98975534392E+02  0.59774542050E+03  0.15294330000E+03 0.  0.
    8880022    1    1    2    0    0  0.12948333515E+03  0.55438781031E+03 -0.11169546907E+04  0.12629692048E+04  0.15294330000E+03 0.  0.
<mgrwt>
<rscale>  0 0.58949422E+03</rscale>
<asrwt>0</asrwt>
<pdfrwt beam="1">  1        2 0.23666499E+00 0.58949422E+03</pdfrwt>
<pdfrwt beam="2">  1       -2 0.49598801E-01 0.58949422E+03</pdfrwt>
<totfact> 0.48433208E+01</totfact>
</mgrwt>
</event>
<event>
 4    1  0.6912310E-008  0.1243747E+04  0.7818608E-02  0.9075404E-01
         -2   -1    0    0    0  501 -0.00000000000E+00  0.00000000000E+00  0.64716081556E+03  0.64716081557E+03  0.25500000000E-02 0.  1.
          2   -1    0    0  501    0  0.00000000000E+00 -0.00000000000E+00 -0.27954983408E+04  0.27954983408E+04  0.25500000000E-02 0. -1.
    8880022    1    1    2    0    0 -0.75220199997E+03  0.97862477756E+03 -0.41882322758E+03  0.13123714615E+04  0.15294330000E+03 0.  0.
    8880022    1    1    2    0    0  0.75220199997E+03 -0.97862477756E+03 -0.17295142976E+04  0.21302876948E+04  0.15294330000E+03 0.  0.
<mgrwt>
<rscale>  0 0.12437467E+04</rscale>
<asrwt>0</asrwt>
<pdfrwt beam="1">  1        2 0.43007666E+00 0.12437467E+04</pdfrwt>
<pdfrwt beam="2">  1       -2 0.99563204E-01 0.12437467E+04</pdfrwt>
<totfact> 0.19072736E+00</totfact>
</mgrwt>
</event>
<event>
 4    1  0.6912310E-008  0.6482285E+03  0.7818608E-02  0.9810109E-01
          2   -1    0    0  501    0  0.00000000000E+00  0.00000000000E+00  0.35468608892E+03  0.35468608893E+03  0.25500000000E-02 0. -1.
         -2   -1    0    0    0  501 -0.00000000000E+00 -0.00000000000E+00 -0.26898714278E+04  0.26898714278E+04  0.25500000000E-02 0.  1.
    8880022    1    1    2    0    0 -0.62366064998E+03 -0.88633551276E+02 -0.23063205729E+04  0.23956866971E+04  0.15294330000E+03 0.  0.
    8880022    1    1    2    0    0  0.62366064998E+03  0.88633551276E+02 -0.28864765922E+02  0.64887081955E+03  0.15294330000E+03 0.  0.
<mgrwt>
<rscale>  0 0.64822848E+03</rscale>
<asrwt>0</asrwt>
<pdfrwt beam="1">  1        2 0.54567092E-01 0.64822848E+03</pdfrwt>
<pdfrwt beam="2">  1       -2 0.41382636E+00 0.64822848E+03</pdfrwt>
<totfact> 0.59550069E-01</totfact>
</mgrwt>
</event>
<event>
 4    1  0.6912310E-008  0.1306516E+04  0.7818608E-02  0.9024414E-01
          2   -1    0    0  501    0  0.00000000000E+00  0.00000000000E+00  0.30901436403E+04  0.30901436403E+04  0.25500000000E-02 0. -1.
         -2   -1    0    0    0  501 -0.00000000000E+00 -0.00000000000E+00 -0.63876930835E+03  0.63876930835E+03  0.25500000000E-02 0.  1.
    8880022    1    1    2    0    0  0.96141240716E+03 -0.87136625699E+03  0.19112837959E+04  0.23151653012E+04  0.15294330000E+03 0.  0.
    8880022    1    1    2    0    0 -0.96141240716E+03  0.87136625699E+03  0.54009053603E+03  0.14137476474E+04  0.15294330000E+03 0.  0.
<mgrwt>
<rscale>  0 0.13065162E+04</rscale>
<asrwt>0</asrwt>
<pdfrwt beam="1">  1        2 0.47540672E+00 0.13065162E+04</pdfrwt>
<pdfrwt beam="2">  1       -2 0.98272200E-01 0.13065162E+04</pdfrwt>
<totfact> 0.12865734E+00</totfact>
</mgrwt>
</event>
<event>
 4    1  0.6912310E-008  0.3598823E+03  0.7818608E-02  0.1058630E+00
         -2   -1    0    0    0  501 -0.00000000000E+00  0.00000000000E+00  0.13118403617E+03  0.13118403619E+03  0.25500000000E-02 0.  1.
          2   -1    0    0  501    0  0.00000000000E+00 -0.00000000000E+00 -0.23664827682E+04  0.23664827682E+04  0.25500000000E-02 0. -1.
    8880022    1    1    2    0    0  0.87829430460E+02 -0.31370304448E+03 -0.16426718861E+03  0.39559950865E+03  0.15294330000E+03 0.  0.
    8880022    1    1    2    0    0 -0.87829430460E+02  0.31370304448E+03 -0.20710315435E+04  0.21020672958E+04  0.15294330000E+03 0.  0.
<mgrwt>
<rscale>  0 0.35988229E+03</rscale>
<asrwt>0</asrwt>
<pdfrwt beam="1">  1        2 0.36407424E+00 0.35988229E+03</pdfrwt>
<pdfrwt beam="2">  1       -2 0.20182161E-01 0.35988229E+03</pdfrwt>
<totfact> 0.96354435E+01</totfact>
</mgrwt>
</event>
<event>
 4    1  0.6912310E-008  0.5104289E+03  0.7818608E-02  0.1011092E+00
         -2   -1    0    0    0  501 -0.00000000000E+00  0.00000000000E+00  0.89590927796E+03  0.89590927797E+03  0.25500000000E-02 0.  1.
          2   -1    0    0  501    0  0.00000000000E+00 -0.00000000000E+00 -0.60830015534E+03  0.60830015535E+03  0.25500000000E-02 0. -1.
    8880022    1    1    2    0    0 -0.33989787002E+03 -0.34873408855E+03  0.68716219912E+03  0.85599624268E+03  0.15294330000E+03 0.  1.
    8880022    1    1    2    0    0  0.33989787002E+03  0.34873408855E+03 -0.39955307650E+03  0.64821319064E+03  0.15294330000E+03 0.  0.
<mgrwt>
<rscale>  0 0.51042892E+03</rscale>
<asrwt>0</asrwt>
<pdfrwt beam="1">  1        2 0.93584639E-01 0.51042892E+03</pdfrwt>
<pdfrwt beam="2">  1       -2 0.13783220E+00 0.51042892E+03</pdfrwt>
<totfact> 0.18991479E+01</totfact>
</mgrwt>
</event>
<event>
 4    1  0.6912310E-008  0.6402940E+03  0.7818608E-02  0.9825164E-01
         -2   -1    0    0    0  501 -0.00000000000E+00  0.00000000000E+00  0.45720820964E+04  0.45720820964E+04  0.25500000000E-02 0.  1.
          2   -1    0    0  501    0  0.00000000000E+00 -0.00000000000E+00 -0.19398378509E+03  0.19398378511E+03  0.25500000000E-02 0. -1.
    8880022    1    1    2    0    0  0.13250988468E+03  0.60747499277E+03  0.44154108387E+03  0.77777562198E+03  0.15294330000E+03 0.  0.
    8880022    1    1    2    0    0 -0.13250988468E+03 -0.60747499277E+03  0.39365572274E+04  0.39882902595E+04  0.15294330000E+03 0.  0.
<mgrwt>
<rscale>  0 0.64029399E+03</rscale>
<asrwt>0</asrwt>
<pdfrwt beam="1">  1        2 0.29843664E-01 0.64029399E+03</pdfrwt>
<pdfrwt beam="2">  1       -2 0.70339714E+00 0.64029399E+03</pdfrwt>
<totfact> 0.43021904E-02</totfact>
</mgrwt>
</event>
<event>
 4    1  0.6912310E-008  0.9731110E+03  0.7818608E-02  0.9338538E-01
         -2   -1    0    0    0  501 -0.00000000000E+00  0.00000000000E+00  0.65170852149E+03  0.65170852150E+03  0.25500000000E-02 0.  1.
          2   -1    0    0  501    0  0.00000000000E+00 -0.00000000000E+00 -0.20595929106E+04  0.20595929106E+04  0.25500000000E-02 0. -1.
    8880022    1    1    2    0    0  0.27093157984E+03  0.92203553696E+03  0.31754567503E+02  0.97362901453E+03  0.15294330000E+03 0.  0.
    8880022    1    1    2    0    0 -0.27093157984E+03 -0.92203553696E+03 -0.14396389566E+04  0.17376724176E+04  0.15294330000E+03 0.  0.
<mgrwt>
<rscale>  0 0.97311104E+03</rscale>
<asrwt>0</asrwt>
<pdfrwt beam="1">  1        2 0.31686044E+00 0.97311104E+03</pdfrwt>
<pdfrwt beam="2">  1       -2 0.10026285E+00 0.97311104E+03</pdfrwt>
<totfact> 0.51043751E+00</totfact>
</mgrwt>
</event>
<event>
 4    1  0.6912310E-008  0.4110488E+03  0.7818608E-02  0.1040020E+00
         -2   -1    0    0    0  501 -0.00000000000E+00  0.00000000000E+00  0.10212430552E+04  0.10212430552E+04  0.25500000000E-02 0.  1.
          2   -1    0    0  501    0  0.00000000000E+00 -0.00000000000E+00 -0.28755580736E+03  0.28755580738E+03  0.25500000000E-02 0. -1.
    8880022    1    1    2    0    0 -0.34886210573E+03  0.15448214847E+03 -0.59594583659E+02  0.41534644627E+03  0.15294330000E+03 0.  0.
    8880022    1    1    2    0    0  0.34886210573E+03 -0.15448214847E+03  0.79328183147E+03  0.89345241629E+03  0.15294330000E+03 0.  0.
<mgrwt>
<rscale>  0 0.41104885E+03</rscale>
<asrwt>0</asrwt>
<pdfrwt beam="1">  1        2 0.44239356E-01 0.41104885E+03</pdfrwt>
<pdfrwt beam="2">  1       -2 0.15711431E+00 0.41104885E+03</pdfrwt>
<totfact> 0.31803831E+01</totfact>
</mgrwt>
</event>
<event>
 4    1  0.6912310E-008  0.3572416E+03  0.7818608E-02  0.1059681E+00
          2   -1    0    0  501    0  0.00000000000E+00  0.00000000000E+00  0.24833342564E+04  0.24833342564E+04  0.25500000000E-02 0. -1.
         -2   -1    0    0    0  501 -0.00000000000E+00 -0.00000000000E+00 -0.21203774704E+03  0.21203774706E+03  0.25500000000E-02 0.  1.
    8880022    1    1    2    0    0  0.28354938179E+03  0.15436853937E+03  0.23087017333E+04  0.23361774856E+04  0.15294330000E+03 0.  0.
    8880022    1    1    2    0    0 -0.28354938179E+03 -0.15436853937E+03 -0.37405223957E+02  0.35919451785E+03  0.15294330000E+03 0.  1.
<mgrwt>
<rscale>  0 0.35724159E+03</rscale>
<asrwt>0</asrwt>
<pdfrwt beam="1">  1        2 0.38205144E+00 0.35724159E+03</pdfrwt>
<pdfrwt beam="2">  1       -2 0.32621190E-01 0.35724159E+03</pdfrwt>
<totfact> 0.35218223E+01</totfact>
</mgrwt>
</event>
<event>
 4    1  0.6912310E-008  0.1857619E+03  0.7818608E-02  0.1162340E+00
          2   -1    0    0  501    0  0.00000000000E+00  0.00000000000E+00  0.79866008888E+03  0.79866008889E+03  0.25500000000E-02 0. -1.
         -2   -1    0    0    0  501 -0.00000000000E+00 -0.00000000000E+00 -0.81896907670E+02  0.81896907709E+02  0.25500000000E-02 0.  1.
    8880022    1    1    2    0    0  0.90418670191E+02 -0.54224456115E+02  0.66099917400E+03  0.68660570097E+03  0.15294330000E+03 0.  0.
    8880022    1    1    2    0    0 -0.90418670191E+02  0.54224456115E+02  0.55764007214E+02  0.19395129563E+03  0.15294330000E+03 0.  1.
<mgrwt>
<rscale>  0 0.18576189E+03</rscale>
<asrwt>0</asrwt>
<pdfrwt beam="1">  1        2 0.12287079E+00 0.18576189E+03</pdfrwt>
<pdfrwt beam="2">  1       -2 0.12599524E-01 0.18576189E+03</pdfrwt>
<totfact> 0.16177167E+03</totfact>
</mgrwt>
</event>
<event>
 4    1  0.6912310E-008  0.4982013E+03  0.7818608E-02  0.1014249E+00
          2   -1    0    0  501    0  0.00000000000E+00  0.00000000000E+00  0.20305607186E+04  0.20305607186E+04  0.25500000000E-02 0. -1.
         -2   -1    0    0    0  501 -0.00000000000E+00 -0.00000000000E+00 -0.63937258923E+03  0.63937258924E+03  0.25500000000E-02 0.  1.
    8880022    1    1    2    0    0 -0.46854057831E+03 -0.72681799263E+02  0.18961894641E+04  0.19605456011E+04  0.15294330000E+03 0.  0.
    8880022    1    1    2    0    0  0.46854057831E+03  0.72681799263E+02 -0.50500133466E+03  0.70938770675E+03  0.15294330000E+03 0.  0.
<mgrwt>
<rscale>  0 0.49820134E+03</rscale>
<asrwt>0</asrwt>
<pdfrwt beam="1">  1        2 0.31239395E+00 0.49820134E+03</pdfrwt>
<pdfrwt beam="2">  1       -2 0.98365015E-01 0.49820134E+03</pdfrwt>
<totfact> 0.60172933E+00</totfact>
</mgrwt>
</event>
<event>
 4    1  0.6912310E-008  0.3906392E+03  0.7818608E-02  0.1047070E+00
         -2   -1    0    0    0  501 -0.00000000000E+00  0.00000000000E+00  0.40451158954E+03  0.40451158954E+03  0.25500000000E-02 0.  1.
          2   -1    0    0  501    0  0.00000000000E+00 -0.00000000000E+00 -0.34989773523E+04  0.34989773523E+04  0.25500000000E-02 0. -1.
    8880022    1    1    2    0    0 -0.15098724189E+03 -0.32620569361E+03  0.29629792799E+03  0.49029727402E+03  0.15294330000E+03 0.  0.
    8880022    1    1    2    0    0  0.15098724189E+03  0.32620569361E+03 -0.33907636907E+04  0.34131916678E+04  0.15294330000E+03 0. -1.
<mgrwt>
<rscale>  0 0.39063916E+03</rscale>
<asrwt>0</asrwt>
<pdfrwt beam="1">  1        2 0.53830419E+00 0.39063916E+03</pdfrwt>
<pdfrwt beam="2">  1       -2 0.62232555E-01 0.39063916E+03</pdfrwt>
<totfact> 0.23726004E+00</totfact>
</mgrwt>
</event>
<event>
 4    1  0.6912310E-008  0.5036894E+03  0.7818608E-02  0.1012820E+00
         -2   -1    0    0    0  501 -0.00000000000E+00  0.00000000000E+00  0.55375865308E+03  0.55375865309E+03  0.25500000000E-02 0.  1.
          2   -1    0    0  501    0  0.00000000000E+00 -0.00000000000E+00 -0.14176909779E+04  0.14176909779E+04  0.25500000000E-02 0. -1.
    8880022    1    1    2    0    0 -0.42850418633E+03  0.21609135358E+03 -0.12429221864E+04  0.13411034729E+04  0.15294330000E+03 0.  0.
    8880022    1    1    2    0    0  0.42850418633E+03 -0.21609135358E+03  0.37898986154E+03  0.63034615804E+03  0.15294330000E+03 0.  0.
<mgrwt>
<rscale>  0 0.50368935E+03</rscale>
<asrwt>0</asrwt>
<pdfrwt beam="1">  1        2 0.21810630E+00 0.50368935E+03</pdfrwt>
<pdfrwt beam="2">  1       -2 0.85193639E-01 0.50368935E+03</pdfrwt>
<totfact> 0.17978295E+01</totfact>
</mgrwt>
</event>
<event>
 4    1  0.6912310E-008  0.4495560E+03  0.7818608E-02  0.1027855E+00
          2   -1    0    0  501    0  0.00000000000E+00  0.00000000000E+00  0.22069974372E+04  0.22069974372E+04  0.25500000000E-02 0. -1.
         -2   -1    0    0    0  501 -0.00000000000E+00 -0.00000000000E+00 -0.23904685321E+03  0.23904685322E+03  0.25500000000E-02 0.  1.
    8880022    1    1    2    0    0 -0.11694293500E+03  0.40624294875E+03  0.19445934969E+04  0.19958818864E+04  0.15294330000E+03 0.  0.
    8880022    1    1    2    0    0  0.11694293500E+03 -0.40624294875E+03  0.23357087140E+02  0.45016240402E+03  0.15294330000E+03 0.  0.
<mgrwt>
<rscale>  0 0.44955604E+03</rscale>
<asrwt>0</asrwt>
<pdfrwt beam="1">  1        2 0.33953807E+00 0.44955604E+03</pdfrwt>
<pdfrwt beam="2">  1       -2 0.36776439E-01 0.44955604E+03</pdfrwt>
<totfact> 0.38848704E+01</totfact>
</mgrwt>
</event>
<event>
 4    1  0.6912310E-008  0.8340316E+03  0.7818608E-02  0.9512023E-01
          2   -1    0    0  501    0  0.00000000000E+00  0.00000000000E+00  0.15598212892E+04  0.15598212892E+04  0.25500000000E-02 0. -1.
         -2   -1    0    0    0  501 -0.00000000000E+00 -0.00000000000E+00 -0.58597080042E+03  0.58597080042E+03  0.25500000000E-02 0.  1.
    8880022    1    1    2    0    0 -0.80817623715E+03  0.13808793374E+03 -0.37531307126E+02  0.83487565528E+03  0.15294330000E+03 0.  0.
    8880022    1    1    2    0    0  0.80817623715E+03 -0.13808793374E+03  0.10113817959E+04  0.13109164344E+04  0.15294330000E+03 0.  0.
<mgrwt>
<rscale>  0 0.83403163E+03</rscale>
<asrwt>0</asrwt>
<pdfrwt beam="1">  1        2 0.23997251E+00 0.83403163E+03</pdfrwt>
<pdfrwt beam="2">  1       -2 0.90149354E-01 0.83403163E+03</pdfrwt>
<totfact> 0.12548492E+01</totfact>
</mgrwt>
</event>
<event>
 4    1  0.6912310E-008  0.3191577E+03  0.7818608E-02  0.1076038E+00
          2   -1    0    0  501    0  0.00000000000E+00  0.00000000000E+00  0.14167656035E+04  0.14167656035E+04  0.25500000000E-02 0. -1.
         -2   -1    0    0    0  501 -0.00000000000E+00 -0.00000000000E+00 -0.19642639105E+03  0.19642639107E+03  0.25500000000E-02 0.  1.
    8880022    1    1    2    0    0  0.22474169195E+03 -0.16721582554E+03  0.12524010472E+04  0.12924279463E+04  0.15294330000E+03 0.  0.
    8880022    1    1    2    0    0 -0.22474169195E+03  0.16721582554E+03 -0.32061834709E+02  0.32076404828E+03  0.15294330000E+03 0.  0.
<mgrwt>
<rscale>  0 0.31915766E+03</rscale>
<asrwt>0</asrwt>
<pdfrwt beam="1">  1        2 0.21796393E+00 0.31915766E+03</pdfrwt>
<pdfrwt beam="2">  1       -2 0.30219446E-01 0.31915766E+03</pdfrwt>
<totfact> 0.15286681E+02</totfact>
</mgrwt>
</event>
<event>
 4    1  0.6912310E-008  0.5609888E+03  0.7818608E-02  0.9989820E-01
         -2   -1    0    0    0  501 -0.00000000000E+00  0.00000000000E+00  0.99744009324E+03  0.99744009324E+03  0.25500000000E-02 0.  1.
          2   -1    0    0  501    0  0.00000000000E+00 -0.00000000000E+00 -0.10197389995E+04  0.10197389995E+04  0.25500000000E-02 0. -1.
    8880022    1    1    2    0    0  0.95147927324E+02 -0.53128495457E+03 -0.84930571913E+03  0.10178549448E+04  0.15294330000E+03 0.  0.
    8880022    1    1    2    0    0 -0.95147927324E+02  0.53128495457E+03  0.82700681291E+03  0.99932414793E+03  0.15294330000E+03 0.  0.
<mgrwt>
<rscale>  0 0.56098884E+03</rscale>
<asrwt>0</asrwt>
<pdfrwt beam="1">  1        2 0.15688292E+00 0.56098884E+03</pdfrwt>
<pdfrwt beam="2">  1       -2 0.15345232E+00 0.56098884E+03</pdfrwt>
<totfact> 0.72306511E+00</totfact>
</mgrwt>
</event>
<event>
 4    1  0.6912310E-008  0.7539806E+03  0.7818608E-02  0.9629126E-01
          2   -1    0    0  501    0  0.00000000000E+00  0.00000000000E+00  0.29341555739E+04  0.29341555739E+04  0.25500000000E-02 0. -1.
         -2   -1    0    0    0  501 -0.00000000000E+00 -0.00000000000E+00 -0.24502950886E+03  0.24502950888E+03  0.25500000000E-02 0.  1.
    8880022    1    1    2    0    0 -0.50434286196E+03  0.53919698848E+03  0.61735774458E+03  0.97448312073E+03  0.15294330000E+03 0.  0.
    8880022    1    1    2    0    0  0.50434286196E+03 -0.53919698848E+03  0.20717683205E+04  0.22047019621E+04  0.15294330000E+03 0.  0.
<mgrwt>
<rscale>  0 0.75398062E+03</rscale>
<asrwt>0</asrwt>
<pdfrwt beam="1">  1        2 0.45140856E+00 0.75398062E+03</pdfrwt>
<pdfrwt beam="2">  1       -2 0.37696847E-01 0.75398062E+03</pdfrwt>
<totfact> 0.13454346E+01</totfact>
</mgrwt>
</event>
<event>
 4    1  0.6912310E-008  0.5242425E+03  0.7818608E-02  0.1007638E+00
         -2   -1    0    0    0  501 -0.00000000000E+00  0.00000000000E+00  0.73759972474E+03  0.73759972474E+03  0.25500000000E-02 0.  1.
          2   -1    0    0  501    0  0.00000000000E+00 -0.00000000000E+00 -0.91019822967E+03  0.91019822967E+03  0.25500000000E-02 0. -1.
    8880022    1    1    2    0    0  0.50126643450E+03  0.13056469371E+02  0.54689156590E+03  0.75757544021E+03  0.15294330000E+03 0.  0.
    8880022    1    1    2    0    0 -0.50126643450E+03 -0.13056469371E+02 -0.71949007083E+03  0.89022251420E+03  0.15294330000E+03 0.  0.
<mgrwt>
<rscale>  0 0.52424247E+03</rscale>
<asrwt>0</asrwt>
<pdfrwt beam="1">  1        2 0.14003050E+00 0.52424247E+03</pdfrwt>
<pdfrwt beam="2">  1       -2 0.11347688E+00 0.52424247E+03</pdfrwt>
<totfact> 0.18361804E+01</totfact>
</mgrwt>
</event>
<event>
 4    1  0.6912310E-008  0.4183910E+03  0.7818608E-02  0.1037591E+00
         -2   -1    0    0    0  501 -0.00000000000E+00  0.00000000000E+00  0.56348715273E+03  0.56348715274E+03  0.25500000000E-02 0.  1.
          2   -1    0    0  501    0  0.00000000000E+00 -0.00000000000E+00 -0.12961256336E+04  0.12961256336E+04  0.25500000000E-02 0. -1.
    8880022    1    1    2    0    0 -0.16433030471E+03  0.35306507489E+03  0.44443728169E+03  0.61038966777E+03  0.15294330000E+03 0.  1.
    8880022    1    1    2    0    0  0.16433030471E+03 -0.35306507489E+03 -0.11770757625E+04  0.12492231186E+04  0.15294330000E+03 0.  0.
<mgrwt>
<rscale>  0 0.41839102E+03</rscale>
<asrwt>0</asrwt>
<pdfrwt beam="1">  1        2 0.19940394E+00 0.41839102E+03</pdfrwt>
<pdfrwt beam="2">  1       -2 0.86690331E-01 0.41839102E+03</pdfrwt>
<totfact> 0.20558363E+01</totfact>
</mgrwt>
</event>
<event>
 4    1  0.6912310E-008  0.5508977E+03  0.7818608E-02  0.1001286E+00
          2   -1    0    0  501    0  0.00000000000E+00  0.00000000000E+00  0.12332176668E+04  0.12332176668E+04  0.25500000000E-02 0. -1.
         -2   -1    0    0    0  501 -0.00000000000E+00 -0.00000000000E+00 -0.48242197114E+03  0.48242197115E+03  0.25500000000E-02 0.  1.
    8880022    1    1    2    0    0 -0.42567260149E+03 -0.31448288937E+03  0.97579617972E+03  0.11205652541E+04  0.15294330000E+03 0.  0.
    8880022    1    1    2    0    0  0.42567260149E+03  0.31448288937E+03 -0.22500048412E+03  0.59507438378E+03  0.15294330000E+03 0.  0.
<mgrwt>
<rscale>  0 0.55089773E+03</rscale>
<asrwt>0</asrwt>
<pdfrwt beam="1">  1        2 0.18972580E+00 0.55089773E+03</pdfrwt>
<pdfrwt beam="2">  1       -2 0.74218765E-01 0.55089773E+03</pdfrwt>
<totfact> 0.30886490E+01</totfact>
</mgrwt>
</event>
<event>
 4    1  0.6912310E-008  0.4719859E+03  0.7818608E-02  0.1021361E+00
          2   -1    0    0  501    0  0.00000000000E+00  0.00000000000E+00  0.10961303360E+04  0.10961303360E+04  0.25500000000E-02 0. -1.
         -2   -1    0    0    0  501 -0.00000000000E+00 -0.00000000000E+00 -0.25226313388E+03  0.25226313389E+03  0.25500000000E-02 0.  1.
    8880022    1    1    2    0    0 -0.41536707860E+03 -0.16385731787E+03  0.12470681220E+03  0.48818282705E+03  0.15294330000E+03 0.  0.
    8880022    1    1    2    0    0  0.41536707860E+03  0.16385731787E+03  0.71916038992E+03  0.86021064283E+03  0.15294330000E+03 0.  0.
<mgrwt>
<rscale>  0 0.47198589E+03</rscale>
<asrwt>0</asrwt>
<pdfrwt beam="1">  1        2 0.16863543E+00 0.47198589E+03</pdfrwt>
<pdfrwt beam="2">  1       -2 0.38809714E-01 0.47198589E+03</pdfrwt>
<totfact> 0.14257877E+02</totfact>
</mgrwt>
</event>
<event>
 4    1  0.6912310E-008  0.6322902E+03  0.7818608E-02  0.9840590E-01
          2   -1    0    0  501    0  0.00000000000E+00  0.00000000000E+00  0.13775620982E+04  0.13775620982E+04  0.25500000000E-02 0. -1.
         -2   -1    0    0    0  501 -0.00000000000E+00 -0.00000000000E+00 -0.52734690031E+03  0.52734690032E+03  0.25500000000E-02 0.  1.
    8880022    1    1    2    0    0 -0.61040306022E+03 -0.61704157622E+02 -0.21358201605E+03  0.66738911408E+03  0.15294330000E+03 0.  0.
    8880022    1    1    2    0    0  0.61040306022E+03  0.61704157622E+02  0.10637972140E+04  0.12375198845E+04  0.15294330000E+03 0.  0.
<mgrwt>
<rscale>  0 0.63229024E+03</rscale>
<asrwt>0</asrwt>
<pdfrwt beam="1">  1        2 0.21193263E+00 0.63229024E+03</pdfrwt>
<pdfrwt beam="2">  1       -2 0.81130293E-01 0.63229024E+03</pdfrwt>
<totfact> 0.20709868E+01</totfact>
</mgrwt>
</event>
<event>
 4    1  0.6912310E-008  0.4482188E+03  0.7818608E-02  0.1028255E+00
         -2   -1    0    0    0  501 -0.00000000000E+00  0.00000000000E+00  0.15560276249E+03  0.15560276251E+03  0.25500000000E-02 0.  1.
          2   -1    0    0  501    0  0.00000000000E+00 -0.00000000000E+00 -0.39704240576E+04  0.39704240576E+04  0.25500000000E-02 0. -1.
    8880022    1    1    2    0    0  0.40240117209E+03 -0.12482687542E+03 -0.36021210997E+04  0.36299003461E+04  0.15294330000E+03 0.  0.
    8880022    1    1    2    0    0 -0.40240117209E+03  0.12482687542E+03 -0.21270019537E+03  0.49612647405E+03  0.15294330000E+03 0.  0.
<mgrwt>
<rscale>  0 0.44821881E+03</rscale>
<asrwt>0</asrwt>
<pdfrwt beam="1">  1        2 0.61083439E+00 0.44821881E+03</pdfrwt>
<pdfrwt beam="2">  1       -2 0.23938890E-01 0.44821881E+03</pdfrwt>
<totfact> 0.67121637E+00</totfact>
</mgrwt>
</event>
<event>
 4    1  0.6912310E-008  0.1100792E+04  0.7818608E-02  0.9204421E-01
          2   -1    0    0  501    0  0.00000000000E+00  0.00000000000E+00  0.10568032253E+04  0.10568032253E+04  0.25500000000E-02 0. -1.
         -2   -1    0    0    0  501 -0.00000000000E+00 -0.00000000000E+00 -0.17134766588E+04  0.17134766588E+04  0.25500000000E-02 0.  1.
    8880022    1    1    2    0    0 -0.95829515815E+03  0.51963539112E+03 -0.11250363741E+04  0.15739914377E+04  0.15294330000E+03 0.  0.
    8880022    1    1    2    0    0  0.95829515815E+03 -0.51963539112E+03  0.46836294056E+03  0.11962884464E+04  0.15294330000E+03 0.  0.
<mgrwt>
<rscale>  0 0.11007916E+04</rscale>
<asrwt>0</asrwt>
<pdfrwt beam="1">  1        2 0.16258511E+00 0.11007916E+04</pdfrwt>
<pdfrwt beam="2">  1       -2 0.26361179E+00 0.11007916E+04</pdfrwt>
<totfact> 0.12116710E+00</totfact>
</mgrwt>
</event>
<event>
 4    1  0.6912310E-008  0.2885458E+03  0.7818608E-02  0.1091111E+00
         -2   -1    0    0    0  501 -0.00000000000E+00  0.00000000000E+00  0.81492841557E+03  0.81492841558E+03  0.25500000000E-02 0.  1.
          2   -1    0    0  501    0  0.00000000000E+00 -0.00000000000E+00 -0.33034126184E+03  0.33034126185E+03  0.25500000000E-02 0. -1.
    8880022    1    1    2    0    0  0.20070127519E+03 -0.13995014997E+03  0.71820901128E+03  0.77400444652E+03  0.15294330000E+03 0.  0.
    8880022    1    1    2    0    0 -0.20070127519E+03  0.13995014997E+03 -0.23362185755E+03  0.37126523090E+03  0.15294330000E+03 0. -1.
<mgrwt>
<rscale>  0 0.28854584E+03</rscale>
<asrwt>0</asrwt>
<pdfrwt beam="1">  1        2 0.50821733E-01 0.28854584E+03</pdfrwt>
<pdfrwt beam="2">  1       -2 0.12537360E+00 0.28854584E+03</pdfrwt>
<totfact> 0.49464570E+01</totfact>
</mgrwt>
</event>
<event>
 4    1  0.6912310E-008  0.4318856E+03  0.7818608E-02  0.1033266E+00
         -2   -1    0    0    0  501 -0.00000000000E+00  0.00000000000E+00  0.45460036661E+03  0.45460036662E+03  0.25500000000E-02 0.  1.
          2   -1    0    0  501    0  0.00000000000E+00 -0.00000000000E+00 -0.43754446259E+03  0.43754446259E+03  0.25500000000E-02 0. -1.
    8880022    1    1    2    0    0 -0.38064567981E+03 -0.13506424183E+03 -0.10277013677E+03  0.44394463282E+03  0.15294330000E+03 0.  0.
    8880022    1    1    2    0    0  0.38064567981E+03  0.13506424183E+03  0.11982604080E+03  0.44820019640E+03  0.15294330000E+03 0.  0.
<mgrwt>
<rscale>  0 0.43188556E+03</rscale>
<asrwt>0</asrwt>
<pdfrwt beam="1">  1        2 0.67314533E-01 0.43188556E+03</pdfrwt>
<pdfrwt beam="2">  1       -2 0.69938518E-01 0.43188556E+03</pdfrwt>
<totfact> 0.13757822E+02</totfact>
</mgrwt>
</event>
<event>
 4    1  0.6912310E-008  0.2897011E+03  0.7818608E-02  0.1090505E+00
          2   -1    0    0  501    0  0.00000000000E+00  0.00000000000E+00  0.15660783476E+04  0.15660783476E+04  0.25500000000E-02 0. -1.
         -2   -1    0    0    0  501 -0.00000000000E+00 -0.00000000000E+00 -0.67742416695E+02  0.67742416743E+02  0.25500000000E-02 0.  1.
    8880022    1    1    2    0    0  0.19065757215E+03 -0.15551458860E+03  0.11225499724E+04  0.11593296299E+04  0.15294330000E+03 0. -1.
    8880022    1    1    2    0    0 -0.19065757215E+03  0.15551458860E+03  0.37578595844E+03  0.47449113444E+03  0.15294330000E+03 0.  0.
<mgrwt>
<rscale>  0 0.28970114E+03</rscale>
<asrwt>0</asrwt>
<pdfrwt beam="1">  1        2 0.24093510E+00 0.28970114E+03</pdfrwt>
<pdfrwt beam="2">  1       -2 0.10421911E-01 0.28970114E+03</pdfrwt>
<totfact> 0.78136855E+02</totfact>
</mgrwt>
</event>
<event>
 4    1  0.6912310E-008  0.3631878E+03  0.7818608E-02  0.1057329E+00
         -2   -1    0    0    0  501 -0.00000000000E+00  0.00000000000E+00  0.15730896132E+04  0.15730896132E+04  0.25500000000E-02 0.  1.
          2   -1    0    0  501    0  0.00000000000E+00 -0.00000000000E+00 -0.53390963722E+03  0.53390963722E+03  0.25500000000E-02 0. -1.
    8880022    1    1    2    0    0  0.28238229384E+03  0.16962899047E+03  0.14868316018E+04  0.15305468367E+04  0.15294330000E+03 0.  1.
    8880022    1    1    2    0    0 -0.28238229384E+03 -0.16962899047E+03 -0.44765162575E+03  0.57645241376E+03  0.15294330000E+03 0.  0.
<mgrwt>
<rscale>  0 0.36318784E+03</rscale>
<asrwt>0</asrwt>
<pdfrwt beam="1">  1        2 0.82139945E-01 0.36318784E+03</pdfrwt>
<pdfrwt beam="2">  1       -2 0.24201378E+00 0.36318784E+03</pdfrwt>
<totfact> 0.45377372E+00</totfact>
</mgrwt>
</event>
<event>
 4    1  0.6912310E-008  0.6912583E+03  0.7818608E-02  0.9732299E-01
         -2   -1    0    0    0  501 -0.00000000000E+00  0.00000000000E+00  0.49555472504E+03  0.49555472505E+03  0.25500000000E-02 0.  1.
          2   -1    0    0  501    0  0.00000000000E+00 -0.00000000000E+00 -0.16230594407E+04  0.16230594407E+04  0.25500000000E-02 0. -1.
    8880022    1    1    2    0    0  0.22338770180E+03  0.63603802357E+03  0.11114067004E+03  0.70013593987E+03  0.15294330000E+03 0.  0.
    8880022    1    1    2    0    0 -0.22338770180E+03 -0.63603802357E+03 -0.12386453857E+04  0.14184782259E+04  0.15294330000E+03 0.  0.
<mgrwt>
<rscale>  0 0.69125834E+03</rscale>
<asrwt>0</asrwt>
<pdfrwt beam="1">  1        2 0.24970145E+00 0.69125834E+03</pdfrwt>
<pdfrwt beam="2">  1       -2 0.76239189E-01 0.69125834E+03</pdfrwt>
<totfact> 0.17245143E+01</totfact>
</mgrwt>
</event>
<event>
 4    1  0.6912310E-008  0.3186274E+03  0.7818608E-02  0.1076283E+00
         -2   -1    0    0    0  501 -0.00000000000E+00  0.00000000000E+00  0.22389152156E+03  0.22389152157E+03  0.25500000000E-02 0.  1.
          2   -1    0    0  501    0  0.00000000000E+00 -0.00000000000E+00 -0.17357174003E+04  0.17357174003E+04  0.25500000000E-02 0. -1.
    8880022    1    1    2    0    0 -0.27913647674E+03 -0.14649939327E+02  0.86236819179E+02  0.33009125309E+03  0.15294330000E+03 0.  0.
    8880022    1    1    2    0    0  0.27913647674E+03  0.14649939327E+02 -0.15980626979E+04  0.16295176688E+04  0.15294330000E+03 0. -1.
<mgrwt>
<rscale>  0 0.31862744E+03</rscale>
<asrwt>0</asrwt>
<pdfrwt beam="1">  1        2 0.26703344E+00 0.31862744E+03</pdfrwt>
<pdfrwt beam="2">  1       -2 0.34444851E-01 0.31862744E+03</pdfrwt>
<totfact> 0.80925226E+01</totfact>
</mgrwt>
</event>
<event>
 4    1  0.6912310E-008  0.8139886E+03  0.7818608E-02  0.9539987E-01
          2   -1    0    0  501    0  0.00000000000E+00  0.00000000000E+00  0.75340733793E+03  0.75340733793E+03  0.25500000000E-02 0. -1.
         -2   -1    0    0    0  501 -0.00000000000E+00 -0.00000000000E+00 -0.10368144080E+04  0.10368144080E+04  0.25500000000E-02 0.  1.
    8880022    1    1    2    0    0  0.63317584114E+03 -0.48813338425E+03  0.20702833201E+03  0.83990370275E+03  0.15294330000E+03 0.  0.
    8880022    1    1    2    0    0 -0.63317584114E+03  0.48813338425E+03 -0.49043540212E+03  0.95031804323E+03  0.15294330000E+03 0.  0.
<mgrwt>
<rscale>  0 0.81398864E+03</rscale>
<asrwt>0</asrwt>
<pdfrwt beam="1">  1        2 0.11590882E+00 0.81398864E+03</pdfrwt>
<pdfrwt beam="2">  1       -2 0.15950991E+00 0.81398864E+03</pdfrwt>
<totfact> 0.95589683E+00</totfact>
</mgrwt>
</event>
<event>
 4    1  0.6912310E-008  0.3715983E+03  0.7818608E-02  0.1054083E+00
         -2   -1    0    0    0  501 -0.00000000000E+00  0.00000000000E+00  0.38519317295E+03  0.38519317295E+03  0.25500000000E-02 0.  1.
          2   -1    0    0  501    0  0.00000000000E+00 -0.00000000000E+00 -0.87382147883E+03  0.87382147884E+03  0.25500000000E-02 0. -1.
    8880022    1    1    2    0    0 -0.28718318963E+03  0.17949782313E+03 -0.72774638744E+03  0.81712918829E+03  0.15294330000E+03 0.  0.
    8880022    1    1    2    0    0  0.28718318963E+03 -0.17949782313E+03  0.23911808155E+03  0.44188546350E+03  0.15294330000E+03 0.  1.
<mgrwt>
<rscale>  0 0.37159831E+03</rscale>
<asrwt>0</asrwt>
<pdfrwt beam="1">  1        2 0.13443407E+00 0.37159831E+03</pdfrwt>
<pdfrwt beam="2">  1       -2 0.59260488E-01 0.37159831E+03</pdfrwt>
<totfact> 0.85483025E+01</totfact>
</mgrwt>
</event>
<event>
 4    1  0.6912310E-008  0.3360989E+03  0.7818608E-02  0.1068470E+00
         -2   -1    0    0    0  501 -0.00000000000E+00  0.00000000000E+00  0.51773973322E+03  0.51773973323E+03  0.25500000000E-02 0.  1.
          2   -1    0    0  501    0  0.00000000000E+00 -0.00000000000E+00 -0.30662691520E+04  0.30662691520E+04  0.25500000000E-02 0. -1.
    8880022    1    1    2    0    0  0.26045398528E+03 -0.14742628760E+03 -0.30013367056E+04  0.30200967637E+04  0.15294330000E+03 0.  0.
    8880022    1    1    2    0    0 -0.26045398528E+03  0.14742628760E+03  0.45280728685E+03  0.56391212149E+03  0.15294330000E+03 0.  1.
<mgrwt>
<rscale>  0 0.33609886E+03</rscale>
<asrwt>0</asrwt>
<pdfrwt beam="1">  1        2 0.47173370E+00 0.33609886E+03</pdfrwt>
<pdfrwt beam="2">  1       -2 0.79652269E-01 0.33609886E+03</pdfrwt>
<totfact> 0.26881021E+00</totfact>
</mgrwt>
</event>
<event>
 4    1  0.6912310E-008  0.1769558E+03  0.7818608E-02  0.1170782E+00
          2   -1    0    0  501    0  0.00000000000E+00  0.00000000000E+00  0.55037720810E+03  0.55037720811E+03  0.25500000000E-02 0. -1.
         -2   -1    0    0    0  501 -0.00000000000E+00 -0.00000000000E+00 -0.68418716762E+02  0.68418716810E+02  0.25500000000E-02 0.  1.
    8880022    1    1    2    0    0  0.65318976724E+02  0.60457625259E+02  0.36796025473E+03  0.40829902675E+03  0.15294330000E+03 0.  0.
    8880022    1    1    2    0    0 -0.65318976724E+02 -0.60457625259E+02  0.11399823661E+03  0.21049689817E+03  0.15294330000E+03 0.  0.
<mgrwt>
<rscale>  0 0.17695577E+03</rscale>
<asrwt>0</asrwt>
<pdfrwt beam="1">  1        2 0.84673415E-01 0.17695577E+03</pdfrwt>
<pdfrwt beam="2">  1       -2 0.10525957E-01 0.17695577E+03</pdfrwt>
<totfact> 0.33511438E+03</totfact>
</mgrwt>
</event>
<event>
 4    1  0.6912310E-008  0.5921929E+03  0.7818608E-02  0.9921737E-01
          2   -1    0    0  501    0  0.00000000000E+00  0.00000000000E+00  0.68218406729E+03  0.68218406729E+03  0.25500000000E-02 0. -1.
         -2   -1    0    0    0  501 -0.00000000000E+00 -0.00000000000E+00 -0.17824101773E+04  0.17824101773E+04  0.25500000000E-02 0.  1.
    8880022    1    1    2    0    0 -0.38540341052E+03  0.42280614177E+03 -0.15896237276E+04  0.16963478626E+04  0.15294330000E+03 0.  0.
    8880022    1    1    2    0    0  0.38540341052E+03 -0.42280614177E+03  0.48939761762E+03  0.76824638203E+03  0.15294330000E+03 0.  0.
<mgrwt>
<rscale>  0 0.59219294E+03</rscale>
<asrwt>0</asrwt>
<pdfrwt beam="1">  1        2 0.10495140E+00 0.59219294E+03</pdfrwt>
<pdfrwt beam="2">  1       -2 0.27421695E+00 0.59219294E+03</pdfrwt>
<totfact> 0.20617567E+00</totfact>
</mgrwt>
</event>
<event>
 4    1  0.6912310E-008  0.5694246E+03  0.7818608E-02  0.9970953E-01
          2   -1    0    0  501    0  0.00000000000E+00  0.00000000000E+00  0.11375442481E+04  0.11375442481E+04  0.25500000000E-02 0. -1.
         -2   -1    0    0    0  501 -0.00000000000E+00 -0.00000000000E+00 -0.32771035452E+03  0.32771035453E+03  0.25500000000E-02 0.  1.
    8880022    1    1    2    0    0 -0.16177812406E+03 -0.52409971321E+03  0.14055015107E+03  0.58651399710E+03  0.15294330000E+03 0.  0.
    8880022    1    1    2    0    0  0.16177812406E+03  0.52409971321E+03  0.66928374251E+03  0.87874060553E+03  0.15294330000E+03 0.  0.
<mgrwt>
<rscale>  0 0.56942455E+03</rscale>
<asrwt>0</asrwt>
<pdfrwt beam="1">  1        2 0.17500681E+00 0.56942455E+03</pdfrwt>
<pdfrwt beam="2">  1       -2 0.50416977E-01 0.56942455E+03</pdfrwt>
<totfact> 0.79420371E+01</totfact>
</mgrwt>
</event>
<event>
 4    1  0.6912310E-008  0.9381714E+03  0.7818608E-02  0.9379084E-01
         -2   -1    0    0    0  501 -0.00000000000E+00  0.00000000000E+00  0.12844168579E+04  0.12844168579E+04  0.25500000000E-02 0.  1.
          2   -1    0    0  501    0  0.00000000000E+00 -0.00000000000E+00 -0.19306376870E+04  0.19306376870E+04  0.25500000000E-02 0. -1.
    8880022    1    1    2    0    0 -0.44958312273E+03  0.80910384403E+03  0.96798298898E+03  0.13480195602E+04  0.15294330000E+03 0.  0.
    8880022    1    1    2    0    0  0.44958312273E+03 -0.80910384403E+03 -0.16142038181E+04  0.18670349847E+04  0.15294330000E+03 0.  0.
<mgrwt>
<rscale>  0 0.93817145E+03</rscale>
<asrwt>0</asrwt>
<pdfrwt beam="1">  1        2 0.29702118E+00 0.93817145E+03</pdfrwt>
<pdfrwt beam="2">  1       -2 0.19760259E+00 0.93817145E+03</pdfrwt>
<totfact> 0.10143328E+00</totfact>
</mgrwt>
</event>
<event>
 4    1  0.6912310E-008  0.6134462E+03  0.7818608E-02  0.9877896E-01
          2   -1    0    0  501    0  0.00000000000E+00  0.00000000000E+00  0.30360436653E+04  0.30360436653E+04  0.25500000000E-02 0. -1.
         -2   -1    0    0    0  501 -0.00000000000E+00 -0.00000000000E+00 -0.34759838794E+03  0.34759838795E+03  0.25500000000E-02 0.  1.
    8880022    1    1    2    0    0 -0.18012415613E+03  0.56610942848E+03 -0.12836778911E+02  0.61358050209E+03  0.15294330000E+03 0.  0.
    8880022    1    1    2    0    0  0.18012415613E+03 -0.56610942848E+03  0.27012820562E+04  0.27700615511E+04  0.15294330000E+03 0.  0.
<mgrwt>
<rscale>  0 0.61344621E+03</rscale>
<asrwt>0</asrwt>
<pdfrwt beam="1">  1        2 0.46708364E+00 0.61344621E+03</pdfrwt>
<pdfrwt beam="2">  1       -2 0.53476675E-01 0.61344621E+03</pdfrwt>
<totfact> 0.59807901E+00</totfact>
</mgrwt>
</event>
<event>
 4    1  0.6912310E-008  0.3348503E+03  0.7818608E-02  0.1069011E+00
          2   -1    0    0  501    0  0.00000000000E+00  0.00000000000E+00  0.33271069262E+04  0.33271069262E+04  0.25500000000E-02 0. -1.
         -2   -1    0    0    0  501 -0.00000000000E+00 -0.00000000000E+00 -0.11070674160E+03  0.11070674163E+03  0.25500000000E-02 0.  1.
    8880022    1    1    2    0    0 -0.28441523621E+03  0.88549630185E+02  0.17459792307E+03  0.37763626859E+03  0.15294330000E+03 0.  0.
    8880022    1    1    2    0    0  0.28441523621E+03 -0.88549630185E+02  0.30418022616E+04  0.30601773993E+04  0.15294330000E+03 0.  0.
<mgrwt>
<rscale>  0 0.33485029E+03</rscale>
<asrwt>0</asrwt>
<pdfrwt beam="1">  1        2 0.51186255E+00 0.33485029E+03</pdfrwt>
<pdfrwt beam="2">  1       -2 0.17031808E-01 0.33485029E+03</pdfrwt>
<totfact> 0.35571980E+01</totfact>
</mgrwt>
</event>
<event>
 4    1  0.6912310E-008  0.2842538E+03  0.7818608E-02  0.1093388E+00
         -2   -1    0    0    0  501 -0.00000000000E+00  0.00000000000E+00  0.93512827274E+03  0.93512827274E+03  0.25500000000E-02 0.  1.
          2   -1    0    0  501    0  0.00000000000E+00 -0.00000000000E+00 -0.76761086154E+03  0.76761086155E+03  0.25500000000E-02 0. -1.
    8880022    1    1    2    0    0 -0.31981220808E+02 -0.23745690627E+03  0.88578127977E+03  0.93027345949E+03  0.15294330000E+03 0.  0.
    8880022    1    1    2    0    0  0.31981220808E+02  0.23745690627E+03 -0.71826386858E+03  0.77246567480E+03  0.15294330000E+03 0.  0.
<mgrwt>
<rscale>  0 0.28425382E+03</rscale>
<asrwt>0</asrwt>
<pdfrwt beam="1">  1        2 0.11809398E+00 0.28425382E+03</pdfrwt>
<pdfrwt beam="2">  1       -2 0.14386589E+00 0.28425382E+03</pdfrwt>
<totfact> 0.13363456E+01</totfact>
</mgrwt>
</event>
<event>
 4    1  0.6912310E-008  0.1793382E+03  0.7818608E-02  0.1168445E+00
          2   -1    0    0  501    0  0.00000000000E+00  0.00000000000E+00  0.13906472956E+04  0.13906472956E+04  0.25500000000E-02 0. -1.
         -2   -1    0    0    0  501 -0.00000000000E+00 -0.00000000000E+00 -0.13029327505E+03  0.13029327507E+03  0.25500000000E-02 0.  1.
    8880022    1    1    2    0    0  0.21483705508E+02 -0.91153556030E+02 -0.59505694568E+02  0.18895264243E+03  0.15294330000E+03 0.  0.
    8880022    1    1    2    0    0 -0.21483705508E+02  0.91153556030E+02  0.13198597151E+04  0.13319879283E+04  0.15294330000E+03 0. -1.
<mgrwt>
<rscale>  0 0.17933815E+03</rscale>
<asrwt>0</asrwt>
<pdfrwt beam="1">  1        2 0.21394572E+00 0.17933815E+03</pdfrwt>
<pdfrwt beam="2">  1       -2 0.20045121E-01 0.17933815E+03</pdfrwt>
<totfact> 0.33531280E+02</totfact>
</mgrwt>
</event>
<event>
 4    1  0.6912310E-008  0.7002037E+03  0.7818608E-02  0.9716884E-01
         -2   -1    0    0    0  501 -0.00000000000E+00  0.00000000000E+00  0.23959346068E+03  0.23959346069E+03  0.25500000000E-02 0.  1.
          2   -1    0    0  501    0  0.00000000000E+00 -0.00000000000E+00 -0.26088093559E+04  0.26088093559E+04  0.25500000000E-02 0. -1.
    8880022    1    1    2    0    0 -0.46330707057E+03  0.50223519968E+03 -0.18459204740E+04  0.19742613015E+04  0.15294330000E+03 0.  0.
    8880022    1    1    2    0    0  0.46330707057E+03 -0.50223519968E+03 -0.52329542122E+03  0.87414151504E+03  0.15294330000E+03 0.  0.
<mgrwt>
<rscale>  0 0.70020375E+03</rscale>
<asrwt>0</asrwt>
<pdfrwt beam="1">  1        2 0.40135527E+00 0.70020375E+03</pdfrwt>
<pdfrwt beam="2">  1       -2 0.36860534E-01 0.70020375E+03</pdfrwt>
<totfact> 0.22025771E+01</totfact>
</mgrwt>
</event>
<event>
 4    1  0.6912310E-008  0.7133481E+03  0.7818608E-02  0.9694674E-01
          2   -1    0    0  501    0  0.00000000000E+00  0.00000000000E+00  0.56803420697E+03  0.56803420698E+03  0.25500000000E-02 0. -1.
         -2   -1    0    0    0  501 -0.00000000000E+00 -0.00000000000E+00 -0.13458222817E+04  0.13458222817E+04  0.25500000000E-02 0.  1.
    8880022    1    1    2    0    0  0.59372965731E+03 -0.36463540776E+03  0.16443710358E+03  0.73205539450E+03  0.15294330000E+03 0.  0.
    8880022    1    1    2    0    0 -0.59372965731E+03  0.36463540776E+03 -0.94222517830E+03  0.11818010942E+04  0.15294330000E+03 0.  0.
<mgrwt>
<rscale>  0 0.71334812E+03</rscale>
<asrwt>0</asrwt>
<pdfrwt beam="1">  1        2 0.87389879E-01 0.71334812E+03</pdfrwt>
<pdfrwt beam="2">  1       -2 0.20704958E+00 0.71334812E+03</pdfrwt>
<totfact> 0.65005287E+00</totfact>
</mgrwt>
</event>
<event>
 4    1  0.6912310E-008  0.2117337E+03  0.7818608E-02  0.1140200E+00
         -2   -1    0    0    0  501 -0.00000000000E+00  0.00000000000E+00  0.13546079549E+03  0.13546079552E+03  0.25500000000E-02 0.  1.
          2   -1    0    0  501    0  0.00000000000E+00 -0.00000000000E+00 -0.20117085078E+04  0.20117085078E+04  0.25500000000E-02 0. -1.
    8880022    1    1    2    0    0 -0.77978887469E+02  0.12393055364E+03  0.43185756799E+02  0.21609292358E+03  0.15294330000E+03 0.  1.
    8880022    1    1    2    0    0  0.77978887469E+02 -0.12393055364E+03 -0.19194334691E+04  0.19310763797E+04  0.15294330000E+03 0.  0.
<mgrwt>
<rscale>  0 0.21173366E+03</rscale>
<asrwt>0</asrwt>
<pdfrwt beam="1">  1        2 0.30949360E+00 0.21173366E+03</pdfrwt>
<pdfrwt beam="2">  1       -2 0.20840124E-01 0.21173366E+03</pdfrwt>
<totfact> 0.14707673E+02</totfact>
</mgrwt>
</event>
<event>
 4    1  0.6912310E-008  0.1599055E+03  0.7818608E-02  0.1188804E+00
         -2   -1    0    0    0  501 -0.00000000000E+00  0.00000000000E+00  0.81342328250E+03  0.81342328250E+03  0.25500000000E-02 0.  1.
          2   -1    0    0  501    0  0.00000000000E+00 -0.00000000000E+00 -0.76273056626E+03  0.76273056626E+03  0.25500000000E-02 0. -1.
    8880022    1    1    2    0    0  0.12558918973E+02  0.44948588224E+02 -0.74632002486E+03  0.76325836684E+03  0.15294330000E+03 0.  0.
    8880022    1    1    2    0    0 -0.12558918973E+02 -0.44948588224E+02  0.79701274110E+03  0.81289548192E+03  0.15294330000E+03 0.  1.
<mgrwt>
<rscale>  0 0.15990546E+03</rscale>
<asrwt>0</asrwt>
<pdfrwt beam="1">  1        2 0.11734316E+00 0.15990546E+03</pdfrwt>
<pdfrwt beam="2">  1       -2 0.12514204E+00 0.15990546E+03</pdfrwt>
<totfact> 0.19942140E+01</totfact>
</mgrwt>
</event>
<event>
 4    1  0.6912310E-008  0.3953839E+03  0.7818608E-02  0.1045390E+00
         -2   -1    0    0    0  501 -0.00000000000E+00  0.00000000000E+00  0.34377522796E+03  0.34377522797E+03  0.25500000000E-02 0.  1.
          2   -1    0    0  501    0  0.00000000000E+00 -0.00000000000E+00 -0.88441862338E+03  0.88441862338E+03  0.25500000000E-02 0. -1.
    8880022    1    1    2    0    0 -0.29064784817E+02 -0.36344469412E+03  0.15771370529E+03  0.42567836831E+03  0.15294330000E+03 0.  0.
    8880022    1    1    2    0    0  0.29064784817E+02  0.36344469412E+03 -0.69835710070E+03  0.80251548304E+03  0.15294330000E+03 0.  0.
<mgrwt>
<rscale>  0 0.39538394E+03</rscale>
<asrwt>0</asrwt>
<pdfrwt beam="1">  1        2 0.13606440E+00 0.39538394E+03</pdfrwt>
<pdfrwt beam="2">  1       -2 0.52888497E-01 0.39538394E+03</pdfrwt>
<totfact> 0.10599085E+02</totfact>
</mgrwt>
</event>
<event>
 4    1  0.6912310E-008  0.4333628E+03  0.7818608E-02  0.1032803E+00
         -2   -1    0    0    0  501 -0.00000000000E+00  0.00000000000E+00  0.18229178349E+04  0.18229178349E+04  0.25500000000E-02 0.  1.
          2   -1    0    0  501    0  0.00000000000E+00 -0.00000000000E+00 -0.19244480278E+03  0.19244480279E+03  0.25500000000E-02 0. -1.
    8880022    1    1    2    0    0 -0.16982250514E+03 -0.36820096928E+03  0.12834093221E+03  0.45196757066E+03  0.15294330000E+03 0.  0.
    8880022    1    1    2    0    0  0.16982250514E+03  0.36820096928E+03  0.15021320999E+04  0.15633950671E+04  0.15294330000E+03 0.  0.
<mgrwt>
<rscale>  0 0.43336277E+03</rscale>
<asrwt>0</asrwt>
<pdfrwt beam="1">  1        2 0.29606892E-01 0.43336277E+03</pdfrwt>
<pdfrwt beam="2">  1       -2 0.28044890E+00 0.43336277E+03</pdfrwt>
<totfact> 0.81837774E+00</totfact>
</mgrwt>
</event>
<event>
 4    1  0.6912310E-008  0.9059149E+03  0.7818608E-02  0.9418218E-01
         -2   -1    0    0    0  501 -0.00000000000E+00  0.00000000000E+00  0.25495247503E+04  0.25495247503E+04  0.25500000000E-02 0.  1.
          2   -1    0    0  501    0  0.00000000000E+00 -0.00000000000E+00 -0.99515672358E+03  0.99515672358E+03  0.25500000000E-02 0. -1.
    8880022    1    1    2    0    0  0.13993514229E+03 -0.88187771808E+03  0.22349678154E+04  0.24115892981E+04  0.15294330000E+03 0.  0.
    8880022    1    1    2    0    0 -0.13993514229E+03  0.88187771808E+03 -0.68059978862E+03  0.11330921759E+04  0.15294330000E+03 0.  0.
<mgrwt>
<rscale>  0 0.90591490E+03</rscale>
<asrwt>0</asrwt>
<pdfrwt beam="1">  1        2 0.15310104E+00 0.90591490E+03</pdfrwt>
<pdfrwt beam="2">  1       -2 0.39223457E+00 0.90591490E+03</pdfrwt>
<totfact> 0.21870564E-01</totfact>
</mgrwt>
</event>
<event>
 4    1  0.6912310E-008  0.5812091E+03  0.7818608E-02  0.9945177E-01
         -2   -1    0    0    0  501 -0.00000000000E+00  0.00000000000E+00  0.28450831115E+03  0.28450831116E+03  0.25500000000E-02 0.  1.
          2   -1    0    0  501    0  0.00000000000E+00 -0.00000000000E+00 -0.16966017580E+04  0.16966017580E+04  0.25500000000E-02 0. -1.
    8880022    1    1    2    0    0 -0.23076210832E+03 -0.51103940286E+03 -0.16333998324E+03  0.60372512376E+03  0.15294330000E+03 0.  0.
    8880022    1    1    2    0    0  0.23076210832E+03  0.51103940286E+03 -0.12487534636E+04  0.13773849454E+04  0.15294330000E+03 0.  0.
<mgrwt>
<rscale>  0 0.58120915E+03</rscale>
<asrwt>0</asrwt>
<pdfrwt beam="1">  1        2 0.26101565E+00 0.58120915E+03</pdfrwt>
<pdfrwt beam="2">  1       -2 0.43770511E-01 0.58120915E+03</pdfrwt>
<totfact> 0.51030449E+01</totfact>
</mgrwt>
</event>
<event>
 4    1  0.6912310E-008  0.7201245E+03  0.7818608E-02  0.9683422E-01
         -2   -1    0    0    0  501 -0.00000000000E+00  0.00000000000E+00  0.65716901468E+03  0.65716901469E+03  0.25500000000E-02 0.  1.
          2   -1    0    0  501    0  0.00000000000E+00 -0.00000000000E+00 -0.21011762133E+04  0.21011762134E+04  0.25500000000E-02 0. -1.
    8880022    1    1    2    0    0 -0.21914213789E+03  0.66870344305E+03  0.36784235477E+03  0.80863293423E+03  0.15294330000E+03 0.  0.
    8880022    1    1    2    0    0  0.21914213789E+03 -0.66870344305E+03 -0.18118495534E+04  0.19497122938E+04  0.15294330000E+03 0.  0.
<mgrwt>
<rscale>  0 0.72012445E+03</rscale>
<asrwt>0</asrwt>
<pdfrwt beam="1">  1        2 0.32325787E+00 0.72012445E+03</pdfrwt>
<pdfrwt beam="2">  1       -2 0.10110293E+00 0.72012445E+03</pdfrwt>
<totfact> 0.49288533E+00</totfact>
</mgrwt>
</event>
<event>
 4    1  0.6912310E-008  0.2775580E+03  0.7818608E-02  0.1097030E+00
          2   -1    0    0  501    0  0.00000000000E+00  0.00000000000E+00  0.85005349248E+03  0.85005349249E+03  0.25500000000E-02 0. -1.
         -2   -1    0    0    0  501 -0.00000000000E+00 -0.00000000000E+00 -0.39123892019E+03  0.39123892020E+03  0.25500000000E-02 0.  1.
    8880022    1    1    2    0    0 -0.20803236333E+03  0.10182994267E+03  0.77344075753E+03  0.82173539527E+03  0.15294330000E+03 0. -1.
    8880022    1    1    2    0    0  0.20803236333E+03 -0.10182994267E+03 -0.31462618524E+03  0.41955701742E+03  0.15294330000E+03 0.  0.
<mgrwt>
<rscale>  0 0.27755802E+03</rscale>
<asrwt>0</asrwt>
<pdfrwt beam="1">  1        2 0.13077746E+00 0.27755802E+03</pdfrwt>
<pdfrwt beam="2">  1       -2 0.60190604E-01 0.27755802E+03</pdfrwt>
<totfact> 0.87158128E+01</totfact>
</mgrwt>
</event>
<event>
 4    1  0.6912310E-008  0.2145548E+03  0.7818608E-02  0.1138009E+00
          2   -1    0    0  501    0  0.00000000000E+00  0.00000000000E+00  0.87278988917E+03  0.87278988917E+03  0.25500000000E-02 0. -1.
         -2   -1    0    0    0  501 -0.00000000000E+00 -0.00000000000E+00 -0.99981351823E+03  0.99981351823E+03  0.25500000000E-02 0.  1.
    8880022    1    1    2    0    0  0.14732714476E+03 -0.30607360024E+02  0.84775891176E+03  0.87448780640E+03  0.15294330000E+03 0.  0.
    8880022    1    1    2    0    0 -0.14732714476E+03  0.30607360024E+02 -0.97478254082E+03  0.99811560100E+03  0.15294330000E+03 0.  1.
<mgrwt>
<rscale>  0 0.21455477E+03</rscale>
<asrwt>0</asrwt>
<pdfrwt beam="1">  1        2 0.13427537E+00 0.21455477E+03</pdfrwt>
<pdfrwt beam="2">  1       -2 0.15381747E+00 0.21455477E+03</pdfrwt>
<totfact> 0.97654514E+00</totfact>
</mgrwt>
</event>
<event>
 4    1  0.6912310E-008  0.5551983E+03  0.7818608E-02  0.1000298E+00
          2   -1    0    0  501    0  0.00000000000E+00  0.00000000000E+00  0.70896292653E+03  0.70896292653E+03  0.25500000000E-02 0. -1.
         -2   -1    0    0    0  501 -0.00000000000E+00 -0.00000000000E+00 -0.71992852471E+03  0.71992852471E+03  0.25500000000E-02 0.  1.
    8880022    1    1    2    0    0 -0.27241725948E+03 -0.45895789057E+03  0.44414969374E+03  0.71099515613E+03  0.15294330000E+03 0.  0.
    8880022    1    1    2    0    0  0.27241725948E+03  0.45895789057E+03 -0.45511529192E+03  0.71789629511E+03  0.15294330000E+03 0.  0.
<mgrwt>
<rscale>  0 0.55519831E+03</rscale>
<asrwt>0</asrwt>
<pdfrwt beam="1">  1        2 0.10907122E+00 0.55519831E+03</pdfrwt>
<pdfrwt beam="2">  1       -2 0.11075824E+00 0.55519831E+03</pdfrwt>
<totfact> 0.26935147E+01</totfact>
</mgrwt>
</event>
<event>
 4    1  0.6912310E-008  0.9405962E+03  0.7818608E-02  0.9376210E-01
          2   -1    0    0  501    0  0.00000000000E+00  0.00000000000E+00  0.22322653238E+04  0.22322653238E+04  0.25500000000E-02 0. -1.
         -2   -1    0    0    0  501 -0.00000000000E+00 -0.00000000000E+00 -0.70217423580E+03  0.70217423581E+03  0.25500000000E-02 0.  1.
    8880022    1    1    2    0    0  0.75790081669E+03  0.53564536604E+03 -0.20327797145E+03  0.96231138037E+03  0.15294330000E+03 0.  0.
    8880022    1    1    2    0    0 -0.75790081669E+03 -0.53564536604E+03  0.17333690595E+04  0.19721281793E+04  0.15294330000E+03 0.  0.
<mgrwt>
<rscale>  0 0.94059623E+03</rscale>
<asrwt>0</asrwt>
<pdfrwt beam="1">  1        2 0.34342544E+00 0.94059623E+03</pdfrwt>
<pdfrwt beam="2">  1       -2 0.10802681E+00 0.94059623E+03</pdfrwt>
<totfact> 0.34382539E+00</totfact>
</mgrwt>
</event>
<event>
 4    1  0.6912310E-008  0.9259678E+03  0.7818608E-02  0.9393690E-01
          2   -1    0    0  501    0  0.00000000000E+00  0.00000000000E+00  0.14849309602E+04  0.14849309602E+04  0.25500000000E-02 0. -1.
         -2   -1    0    0    0  501 -0.00000000000E+00 -0.00000000000E+00 -0.77534856455E+03  0.77534856456E+03  0.25500000000E-02 0.  1.
    8880022    1    1    2    0    0  0.47927730015E+03  0.77737887757E+03 -0.21622333040E+03  0.95087792663E+03  0.15294330000E+03 0.  0.
    8880022    1    1    2    0    0 -0.47927730015E+03 -0.77737887757E+03  0.92580572601E+03  0.13094015981E+04  0.15294330000E+03 0.  0.
<mgrwt>
<rscale>  0 0.92596777E+03</rscale>
<asrwt>0</asrwt>
<pdfrwt beam="1">  1        2 0.22845091E+00 0.92596777E+03</pdfrwt>
<pdfrwt beam="2">  1       -2 0.11928440E+00 0.92596777E+03</pdfrwt>
<totfact> 0.69915304E+00</totfact>
</mgrwt>
</event>
<event>
 4    1  0.6912310E-008  0.9473396E+03  0.7818608E-02  0.9368266E-01
         -2   -1    0    0    0  501 -0.00000000000E+00  0.00000000000E+00  0.19555004144E+04  0.19555004144E+04  0.25500000000E-02 0.  1.
          2   -1    0    0  501    0  0.00000000000E+00 -0.00000000000E+00 -0.51811061225E+03  0.51811061226E+03  0.25500000000E-02 0. -1.
    8880022    1    1    2    0    0 -0.28453973280E+03  0.89056036837E+03  0.11366722331E+04  0.14796878211E+04  0.15294330000E+03 0.  0.
    8880022    1    1    2    0    0  0.28453973280E+03 -0.89056036837E+03  0.30071756902E+03  0.99392320558E+03  0.15294330000E+03 0.  0.
<mgrwt>
<rscale>  0 0.94733958E+03</rscale>
<asrwt>0</asrwt>
<pdfrwt beam="1">  1        2 0.79709325E-01 0.94733958E+03</pdfrwt>
<pdfrwt beam="2">  1       -2 0.30084622E+00 0.94733958E+03</pdfrwt>
<totfact> 0.18802320E+00</totfact>
</mgrwt>
</event>
<event>
 4    1  0.6912310E-008  0.9342300E+03  0.7818608E-02  0.9383776E-01
         -2   -1    0    0    0  501 -0.00000000000E+00  0.00000000000E+00  0.87745847858E+03  0.87745847858E+03  0.25500000000E-02 0.  1.
          2   -1    0    0  501    0  0.00000000000E+00 -0.00000000000E+00 -0.11526991514E+04  0.11526991514E+04  0.25500000000E-02 0. -1.
    8880022    1    1    2    0    0 -0.90095887726E+03 -0.19408030064E+03 -0.51346118219E+03  0.10660338176E+04  0.15294330000E+03 0.  0.
    8880022    1    1    2    0    0  0.90095887726E+03  0.19408030064E+03  0.23822050934E+03  0.96412381243E+03  0.15294330000E+03 0.  0.
<mgrwt>
<rscale>  0 0.93423001E+03</rscale>
<asrwt>0</asrwt>
<pdfrwt beam="1">  1        2 0.17733833E+00 0.93423001E+03</pdfrwt>
<pdfrwt beam="2">  1       -2 0.13499361E+00 0.93423001E+03</pdfrwt>
<totfact> 0.79667830E+00</totfact>
</mgrwt>
</event>
<event>
 4    1  0.6912310E-008  0.6539926E+03  0.7818608E-02  0.9799316E-01
          2   -1    0    0  501    0  0.00000000000E+00  0.00000000000E+00  0.61605415130E+03  0.61605415130E+03  0.25500000000E-02 0. -1.
         -2   -1    0    0    0  501 -0.00000000000E+00 -0.00000000000E+00 -0.13639082615E+04  0.13639082615E+04  0.25500000000E-02 0.  1.
    8880022    1    1    2    0    0 -0.61531437002E+03 -0.16032140033E+03 -0.10676008836E+04  0.12519896266E+04  0.15294330000E+03 0.  0.
    8880022    1    1    2    0    0  0.61531437002E+03  0.16032140033E+03  0.31974677341E+03  0.72797278622E+03  0.15294330000E+03 0.  0.
<mgrwt>
<rscale>  0 0.65399264E+03</rscale>
<asrwt>0</asrwt>
<pdfrwt beam="1">  1        2 0.94777562E-01 0.65399264E+03</pdfrwt>
<pdfrwt beam="2">  1       -2 0.20983204E+00 0.65399264E+03</pdfrwt>
<totfact> 0.57071331E+00</totfact>
</mgrwt>
</event>
<event>
 4    1  0.6912310E-008  0.6526826E+03  0.7818608E-02  0.9801758E-01
          2   -1    0    0  501    0  0.00000000000E+00  0.00000000000E+00  0.11331933235E+04  0.11331933235E+04  0.25500000000E-02 0. -1.
         -2   -1    0    0    0  501 -0.00000000000E+00 -0.00000000000E+00 -0.49094170222E+03  0.49094170223E+03  0.25500000000E-02 0.  1.
    8880022    1    1    2    0    0  0.13009498396E+03  0.62102997248E+03  0.71418638897E+03  0.96750027534E+03  0.15294330000E+03 0.  0.
    8880022    1    1    2    0    0 -0.13009498396E+03 -0.62102997248E+03 -0.71934767712E+02  0.65663475037E+03  0.15294330000E+03 0.  0.
<mgrwt>
<rscale>  0 0.65268261E+03</rscale>
<asrwt>0</asrwt>
<pdfrwt beam="1">  1        2 0.17433743E+00 0.65268261E+03</pdfrwt>
<pdfrwt beam="2">  1       -2 0.75529494E-01 0.65268261E+03</pdfrwt>
<totfact> 0.33602028E+01</totfact>
</mgrwt>
</event>
<event>
 4    1  0.6912310E-008  0.6955776E+03  0.7818608E-02  0.9724825E-01
         -2   -1    0    0    0  501 -0.00000000000E+00  0.00000000000E+00  0.43393414337E+03  0.43393414338E+03  0.25500000000E-02 0.  1.
          2   -1    0    0  501    0  0.00000000000E+00 -0.00000000000E+00 -0.25768579547E+04  0.25768579547E+04  0.25500000000E-02 0. -1.
    8880022    1    1    2    0    0  0.66210580778E+03 -0.14850077020E+03 -0.22053259242E+04  0.23124209531E+04  0.15294330000E+03 0.  0.
    8880022    1    1    2    0    0 -0.66210580778E+03  0.14850077020E+03  0.62402112842E+02  0.69837114499E+03  0.15294330000E+03 0.  0.
<mgrwt>
<rscale>  0 0.69557763E+03</rscale>
<asrwt>0</asrwt>
<pdfrwt beam="1">  1        2 0.39643968E+00 0.69557763E+03</pdfrwt>
<pdfrwt beam="2">  1       -2 0.66759101E-01 0.69557763E+03</pdfrwt>
<totfact> 0.68735272E+00</totfact>
</mgrwt>
</event>
<event>
 4    1  0.6912310E-008  0.8799607E+03  0.7818608E-02  0.9450984E-01
         -2   -1    0    0    0  501 -0.00000000000E+00  0.00000000000E+00  0.10373802740E+04  0.10373802740E+04  0.25500000000E-02 0.  1.
          2   -1    0    0  501    0  0.00000000000E+00 -0.00000000000E+00 -0.15362533211E+04  0.15362533211E+04  0.25500000000E-02 0. -1.
    8880022    1    1    2    0    0  0.56027841537E+03  0.66108042409E+03  0.67324221322E+03  0.11079647831E+04  0.15294330000E+03 0.  0.
    8880022    1    1    2    0    0 -0.56027841537E+03 -0.66108042409E+03 -0.11721152604E+04  0.14656688120E+04  0.15294330000E+03 0.  0.
<mgrwt>
<rscale>  0 0.87996073E+03</rscale>
<asrwt>0</asrwt>
<pdfrwt beam="1">  1        2 0.23634667E+00 0.87996073E+03</pdfrwt>
<pdfrwt beam="2">  1       -2 0.15959696E+00 0.87996073E+03</pdfrwt>
<totfact> 0.30968006E+00</totfact>
</mgrwt>
</event>
<event>
 4    1  0.6912310E-008  0.5470680E+03  0.7818608E-02  0.1002175E+00
         -2   -1    0    0    0  501 -0.00000000000E+00  0.00000000000E+00  0.37104406078E+03  0.37104406079E+03  0.25500000000E-02 0.  1.
          2   -1    0    0  501    0  0.00000000000E+00 -0.00000000000E+00 -0.18241439304E+04  0.18241439304E+04  0.25500000000E-02 0. -1.
    8880022    1    1    2    0    0 -0.23025614637E+03 -0.47209521398E+03  0.93214663600E+02  0.55495262007E+03  0.15294330000E+03 0.  0.
    8880022    1    1    2    0    0  0.23025614637E+03  0.47209521398E+03 -0.15463145333E+04  0.16402353711E+04  0.15294330000E+03 0.  0.
<mgrwt>
<rscale>  0 0.54706804E+03</rscale>
<asrwt>0</asrwt>
<pdfrwt beam="1">  1        2 0.28063752E+00 0.54706804E+03</pdfrwt>
<pdfrwt beam="2">  1       -2 0.57083703E-01 0.54706804E+03</pdfrwt>
<totfact> 0.25553322E+01</totfact>
</mgrwt>
</event>
<event>
 4    1  0.6912310E-008  0.6255356E+03  0.7818608E-02  0.9853800E-01
          2   -1    0    0  501    0  0.00000000000E+00  0.00000000000E+00  0.51773005676E+03  0.51773005676E+03  0.25500000000E-02 0. -1.
         -2   -1    0    0    0  501 -0.00000000000E+00 -0.00000000000E+00 -0.10340646860E+04  0.10340646860E+04  0.25500000000E-02 0.  1.
    8880022    1    1    2    0    0  0.28691810369E+03  0.53439790200E+03 -0.66066920728E+03  0.90982337316E+03  0.15294330000E+03 0.  0.
    8880022    1    1    2    0    0 -0.28691810369E+03 -0.53439790200E+03  0.14433457808E+03  0.64197136956E+03  0.15294330000E+03 0.  0.
<mgrwt>
<rscale>  0 0.62553559E+03</rscale>
<asrwt>0</asrwt>
<pdfrwt beam="1">  1        2 0.79650778E-01 0.62553559E+03</pdfrwt>
<pdfrwt beam="2">  1       -2 0.15908687E+00 0.62553559E+03</pdfrwt>
<totfact> 0.15543441E+01</totfact>
</mgrwt>
</event>
<event>
 4    1  0.6912310E-008  0.4857392E+03  0.7818608E-02  0.1017570E+00
          2   -1    0    0  501    0  0.00000000000E+00  0.00000000000E+00  0.26694911634E+04  0.26694911634E+04  0.25500000000E-02 0. -1.
         -2   -1    0    0    0  501 -0.00000000000E+00 -0.00000000000E+00 -0.15324447778E+03  0.15324447780E+03  0.25500000000E-02 0.  1.
    8880022    1    1    2    0    0 -0.28673517106E+03 -0.36101786513E+03  0.21763184571E+04  0.22298665065E+04  0.15294330000E+03 0. -1.
    8880022    1    1    2    0    0  0.28673517106E+03  0.36101786513E+03  0.33992822852E+03  0.59286913466E+03  0.15294330000E+03 0.  0.
<mgrwt>
<rscale>  0 0.48573924E+03</rscale>
<asrwt>0</asrwt>
<pdfrwt beam="1">  1        2 0.41069095E+00 0.48573924E+03</pdfrwt>
<pdfrwt beam="2">  1       -2 0.23576073E-01 0.48573924E+03</pdfrwt>
<totfact> 0.48284046E+01</totfact>
</mgrwt>
</event>
<event>
 4    1  0.6912310E-008  0.8016968E+03  0.7818608E-02  0.9557564E-01
         -2   -1    0    0    0  501 -0.00000000000E+00  0.00000000000E+00  0.46705692839E+03  0.46705692839E+03  0.25500000000E-02 0.  1.
          2   -1    0    0  501    0  0.00000000000E+00 -0.00000000000E+00 -0.23515762190E+04  0.23515762190E+04  0.25500000000E-02 0. -1.
    8880022    1    1    2    0    0 -0.63479074436E+03  0.46515245817E+03 -0.18499485632E+04  0.20161913198E+04  0.15294330000E+03 0.  0.
    8880022    1    1    2    0    0  0.63479074436E+03 -0.46515245817E+03 -0.34570727388E+02  0.80244182759E+03  0.15294330000E+03 0.  0.
<mgrwt>
<rscale>  0 0.80169680E+03</rscale>
<asrwt>0</asrwt>
<pdfrwt beam="1">  1        2 0.36178095E+00 0.80169680E+03</pdfrwt>
<pdfrwt beam="2">  1       -2 0.71854914E-01 0.80169680E+03</pdfrwt>
<totfact> 0.77075728E+00</totfact>
</mgrwt>
</event>
<event>
 4    1  0.6912310E-008  0.1317333E+04  0.7818608E-02  0.9015931E-01
          2   -1    0    0  501    0  0.00000000000E+00  0.00000000000E+00  0.31263502364E+04  0.31263502364E+04  0.25500000000E-02 0. -1.
         -2   -1    0    0    0  501 -0.00000000000E+00 -0.00000000000E+00 -0.11023587331E+04  0.11023587332E+04  0.25500000000E-02 0.  1.
    8880022    1    1    2    0    0 -0.88479534219E+03  0.96390500238E+03  0.25017736454E+04  0.28274084737E+04  0.15294330000E+03 0.  0.
    8880022    1    1    2    0    0  0.88479534219E+03 -0.96390500238E+03 -0.47778214221E+03  0.14013004958E+04  0.15294330000E+03 0.  0.
<mgrwt>
<rscale>  0 0.13173334E+04</rscale>
<asrwt>0</asrwt>
<pdfrwt beam="1">  1        2 0.48097696E+00 0.13173334E+04</pdfrwt>
<pdfrwt beam="2">  1       -2 0.16959365E+00 0.13173334E+04</pdfrwt>
<totfact> 0.30096618E-01</totfact>
</mgrwt>
</event>
<event>
 4    1  0.6912310E-008  0.6133803E+03  0.7818608E-02  0.9878029E-01
          2   -1    0    0  501    0  0.00000000000E+00  0.00000000000E+00  0.21763181472E+04  0.21763181472E+04  0.25500000000E-02 0. -1.
         -2   -1    0    0    0  501 -0.00000000000E+00 -0.00000000000E+00 -0.22752504295E+03  0.22752504296E+03  0.25500000000E-02 0.  1.
    8880022    1    1    2    0    0 -0.16783805994E+02  0.59376936135E+03  0.38535117909E+03  0.72438314092E+03  0.15294330000E+03 0.  0.
    8880022    1    1    2    0    0  0.16783805994E+02 -0.59376936135E+03  0.15634419252E+04  0.16794600492E+04  0.15294330000E+03 0.  0.
<mgrwt>
<rscale>  0 0.61338031E+03</rscale>
<asrwt>0</asrwt>
<pdfrwt beam="1">  1        2 0.33481816E+00 0.61338031E+03</pdfrwt>
<pdfrwt beam="2">  1       -2 0.35003854E-01 0.61338031E+03</pdfrwt>
<totfact> 0.43005915E+01</totfact>
</mgrwt>
</event>
<event>
 4    1  0.6912310E-008  0.3938374E+03  0.7818608E-02  0.1045935E+00
          2   -1    0    0  501    0  0.00000000000E+00  0.00000000000E+00  0.15399007625E+04  0.15399007625E+04  0.25500000000E-02 0. -1.
         -2   -1    0    0    0  501 -0.00000000000E+00 -0.00000000000E+00 -0.99999318745E+03  0.99999318746E+03  0.25500000000E-02 0.  1.
    8880022    1    1    2    0    0 -0.14915946416E+03 -0.33085904004E+03 -0.93433727396E+03  0.10139497249E+04  0.15294330000E+03 0.  0.
    8880022    1    1    2    0    0  0.14915946416E+03  0.33085904004E+03  0.14742448490E+04  0.15259442251E+04  0.15294330000E+03 0. -1.
<mgrwt>
<rscale>  0 0.39383741E+03</rscale>
<asrwt>0</asrwt>
<pdfrwt beam="1">  1        2 0.23690781E+00 0.39383741E+03</pdfrwt>
<pdfrwt beam="2">  1       -2 0.15384511E+00 0.39383741E+03</pdfrwt>
<totfact> 0.37534941E+00</totfact>
</mgrwt>
</event>
<event>
 4    1  0.6912310E-008  0.2929606E+03  0.7818608E-02  0.1088813E+00
          2   -1    0    0  501    0  0.00000000000E+00  0.00000000000E+00  0.37211721756E+03  0.37211721757E+03  0.25500000000E-02 0. -1.
         -2   -1    0    0    0  501 -0.00000000000E+00 -0.00000000000E+00 -0.12494860525E+04  0.12494860525E+04  0.25500000000E-02 0.  1.
    8880022    1    1    2    0    0  0.24358574368E+03  0.55679607087E+02  0.29347010847E+03  0.41466925465E+03  0.15294330000E+03 0. -1.
    8880022    1    1    2    0    0 -0.24358574368E+03 -0.55679607087E+02 -0.11708389435E+04  0.12069340155E+04  0.15294330000E+03 0.  0.
<mgrwt>
<rscale>  0 0.29296055E+03</rscale>
<asrwt>0</asrwt>
<pdfrwt beam="1">  1        2 0.57248803E-01 0.29296055E+03</pdfrwt>
<pdfrwt beam="2">  1       -2 0.19222862E+00 0.29296055E+03</pdfrwt>
<totfact> 0.14045053E+01</totfact>
</mgrwt>
</event>
<event>
 4    1  0.6912310E-008  0.4209338E+03  0.7818608E-02  0.1036763E+00
         -2   -1    0    0    0  501 -0.00000000000E+00  0.00000000000E+00  0.57111268649E+03  0.57111268649E+03  0.25500000000E-02 0.  1.
          2   -1    0    0  501    0  0.00000000000E+00 -0.00000000000E+00 -0.16461497313E+04  0.16461497313E+04  0.25500000000E-02 0. -1.
    8880022    1    1    2    0    0 -0.24207130097E+02 -0.39141741676E+03  0.46119302000E+03  0.62440710599E+03  0.15294330000E+03 0.  0.
    8880022    1    1    2    0    0  0.24207130097E+02  0.39141741676E+03 -0.15362300648E+04  0.15928553118E+04  0.15294330000E+03 0.  0.
<mgrwt>
<rscale>  0 0.42093376E+03</rscale>
<asrwt>0</asrwt>
<pdfrwt beam="1">  1        2 0.25325380E+00 0.42093376E+03</pdfrwt>
<pdfrwt beam="2">  1       -2 0.87863491E-01 0.42093376E+03</pdfrwt>
<totfact> 0.12803492E+01</totfact>
</mgrwt>
</event>
<event>
 4    1  0.6912310E-008  0.4721632E+03  0.7818608E-02  0.1021311E+00
          2   -1    0    0  501    0  0.00000000000E+00  0.00000000000E+00  0.79371491408E+03  0.79371491409E+03  0.25500000000E-02 0. -1.
         -2   -1    0    0    0  501 -0.00000000000E+00 -0.00000000000E+00 -0.36239806777E+03  0.36239806778E+03  0.25500000000E-02 0.  1.
    8880022    1    1    2    0    0 -0.44392381205E+03 -0.49780423216E+02  0.48981971127E+03  0.68033921245E+03  0.15294330000E+03 0.  0.
    8880022    1    1    2    0    0  0.44392381205E+03  0.49780423216E+02 -0.58502864959E+02  0.47577376941E+03  0.15294330000E+03 0.  0.
<mgrwt>
<rscale>  0 0.47216321E+03</rscale>
<asrwt>0</asrwt>
<pdfrwt beam="1">  1        2 0.12210999E+00 0.47216321E+03</pdfrwt>
<pdfrwt beam="2">  1       -2 0.55753549E-01 0.47216321E+03</pdfrwt>
<totfact> 0.10884719E+02</totfact>
</mgrwt>
</event>
<event>
 4    1  0.6912310E-008  0.1777585E+03  0.7818608E-02  0.1169990E+00
         -2   -1    0    0    0  501 -0.00000000000E+00  0.00000000000E+00  0.66632883663E+02  0.66632883712E+02  0.25500000000E-02 0.  1.
          2   -1    0    0  501    0  0.00000000000E+00 -0.00000000000E+00 -0.20653557003E+04  0.20653557003E+04  0.25500000000E-02 0. -1.
    8880022    1    1    2    0    0  0.54209767670E+02  0.72579082166E+02 -0.63713976309E+02  0.18883205732E+03  0.15294330000E+03 0.  0.
    8880022    1    1    2    0    0 -0.54209767670E+02 -0.72579082166E+02 -0.19350088403E+04  0.19431565267E+04  0.15294330000E+03 0. -1.
<mgrwt>
<rscale>  0 0.17775847E+03</rscale>
<asrwt>0</asrwt>
<pdfrwt beam="1">  1        2 0.31774698E+00 0.17775847E+03</pdfrwt>
<pdfrwt beam="2">  1       -2 0.10251214E-01 0.17775847E+03</pdfrwt>
<totfact> 0.44804117E+02</totfact>
</mgrwt>
</event>
<event>
 4    1  0.6912310E-008  0.8660420E+03  0.7818608E-02  0.9469055E-01
          2   -1    0    0  501    0  0.00000000000E+00  0.00000000000E+00  0.12290958483E+04  0.12290958483E+04  0.25500000000E-02 0. -1.
         -2   -1    0    0    0  501 -0.00000000000E+00 -0.00000000000E+00 -0.96912493321E+03  0.96912493321E+03  0.25500000000E-02 0.  1.
    8880022    1    1    2    0    0 -0.68477981871E+02  0.84967510247E+03  0.79884714590E+03  0.11782128115E+04  0.15294330000E+03 0.  0.
    8880022    1    1    2    0    0  0.68477981871E+02 -0.84967510247E+03 -0.53887623078E+03  0.10200079700E+04  0.15294330000E+03 0.  0.
<mgrwt>
<rscale>  0 0.86604195E+03</rscale>
<asrwt>0</asrwt>
<pdfrwt beam="1">  1        2 0.18909167E+00 0.86604195E+03</pdfrwt>
<pdfrwt beam="2">  1       -2 0.14909614E+00 0.86604195E+03</pdfrwt>
<totfact> 0.55763809E+00</totfact>
</mgrwt>
</event>
<event>
 4    1  0.6912310E-008  0.3729297E+03  0.7818608E-02  0.1053578E+00
          2   -1    0    0  501    0  0.00000000000E+00  0.00000000000E+00  0.12662720146E+04  0.12662720146E+04  0.25500000000E-02 0. -1.
         -2   -1    0    0    0  501 -0.00000000000E+00 -0.00000000000E+00 -0.23478320967E+03  0.23478320968E+03  0.25500000000E-02 0.  1.
    8880022    1    1    2    0    0 -0.33579495872E+03  0.54098622557E+02  0.10632697630E+04  0.11267737827E+04  0.15294330000E+03 0.  0.
    8880022    1    1    2    0    0  0.33579495872E+03 -0.54098622557E+02 -0.31780958082E+02  0.37428144166E+03  0.15294330000E+03 0.  0.
<mgrwt>
<rscale>  0 0.37292971E+03</rscale>
<asrwt>0</asrwt>
<pdfrwt beam="1">  1        2 0.19481108E+00 0.37292971E+03</pdfrwt>
<pdfrwt beam="2">  1       -2 0.36120494E-01 0.37292971E+03</pdfrwt>
<totfact> 0.13178372E+02</totfact>
</mgrwt>
</event>
<event>
 4    1  0.6912310E-008  0.4194969E+03  0.7818608E-02  0.1037230E+00
         -2   -1    0    0    0  501 -0.00000000000E+00  0.00000000000E+00  0.42252933382E+03  0.42252933383E+03  0.25500000000E-02 0.  1.
          2   -1    0    0  501    0  0.00000000000E+00 -0.00000000000E+00 -0.90795937874E+03  0.90795937874E+03  0.25500000000E-02 0. -1.
    8880022    1    1    2    0    0  0.12033011068E+03  0.37162701893E+03  0.24672322833E+03  0.48667235502E+03  0.15294330000E+03 0.  0.
    8880022    1    1    2    0    0 -0.12033011068E+03 -0.37162701893E+03 -0.73215327325E+03  0.84381635755E+03  0.15294330000E+03 0. -1.
<mgrwt>
<rscale>  0 0.41949688E+03</rscale>
<asrwt>0</asrwt>
<pdfrwt beam="1">  1        2 0.13968606E+00 0.41949688E+03</pdfrwt>
<pdfrwt beam="2">  1       -2 0.65004513E-01 0.41949688E+03</pdfrwt>
<totfact> 0.66331861E+01</totfact>
</mgrwt>
</event>
<event>
 4    1  0.6912310E-008  0.2167610E+03  0.7818608E-02  0.1136321E+00
         -2   -1    0    0    0  501 -0.00000000000E+00  0.00000000000E+00  0.18963076062E+03  0.18963076064E+03  0.25500000000E-02 0.  1.
          2   -1    0    0  501    0  0.00000000000E+00 -0.00000000000E+00 -0.40435943983E+03  0.40435943984E+03  0.25500000000E-02 0. -1.
    8880022    1    1    2    0    0 -0.14780210677E+03  0.41811465372E+02  0.77453148750E+02  0.23018319806E+03  0.15294330000E+03 0.  1.
    8880022    1    1    2    0    0  0.14780210677E+03 -0.41811465372E+02 -0.29218182796E+03  0.36380700242E+03  0.15294330000E+03 0. -1.
<mgrwt>
<rscale>  0 0.21676096E+03</rscale>
<asrwt>0</asrwt>
<pdfrwt beam="1">  1        2 0.62209144E-01 0.21676096E+03</pdfrwt>
<pdfrwt beam="2">  1       -2 0.29173963E-01 0.21676096E+03</pdfrwt>
<totfact> 0.84985203E+02</totfact>
</mgrwt>
</event>
<event>
 4    1  0.6912310E-008  0.1125892E+04  0.7818608E-02  0.9180317E-01
         -2   -1    0    0    0  501 -0.00000000000E+00  0.00000000000E+00  0.63265130004E+03  0.63265130005E+03  0.25500000000E-02 0.  1.
          2   -1    0    0  501    0  0.00000000000E+00 -0.00000000000E+00 -0.21745994299E+04  0.21745994299E+04  0.25500000000E-02 0. -1.
    8880022    1    1    2    0    0  0.16695687723E+03  0.11028902309E+04 -0.11644811521E+04  0.16197683374E+04  0.15294330000E+03 0.  0.
    8880022    1    1    2    0    0 -0.16695687723E+03 -0.11028902309E+04 -0.37746697777E+03  0.11874823925E+04  0.15294330000E+03 0.  0.
<mgrwt>
<rscale>  0 0.11258921E+04</rscale>
<asrwt>0</asrwt>
<pdfrwt beam="1">  1        2 0.33455375E+00 0.11258921E+04</pdfrwt>
<pdfrwt beam="2">  1       -2 0.97330970E-01 0.11258921E+04</pdfrwt>
<totfact> 0.46441175E+00</totfact>
</mgrwt>
</event>
<event>
 4    1  0.6912310E-008  0.2831434E+03  0.7818608E-02  0.1093984E+00
         -2   -1    0    0    0  501 -0.00000000000E+00  0.00000000000E+00  0.10952552087E+03  0.10952552090E+03  0.25500000000E-02 0.  1.
          2   -1    0    0  501    0  0.00000000000E+00 -0.00000000000E+00 -0.12272875898E+04  0.12272875898E+04  0.25500000000E-02 0. -1.
    8880022    1    1    2    0    0  0.63679794855E+02 -0.22961578158E+03 -0.98350673753E+03  0.10234528222E+04  0.15294330000E+03 0.  0.
    8880022    1    1    2    0    0 -0.63679794855E+02  0.22961578158E+03 -0.13425533144E+03  0.31336028858E+03  0.15294330000E+03 0.  1.
<mgrwt>
<rscale>  0 0.28314338E+03</rscale>
<asrwt>0</asrwt>
<pdfrwt beam="1">  1        2 0.18881347E+00 0.28314338E+03</pdfrwt>
<pdfrwt beam="2">  1       -2 0.16850081E-01 0.28314338E+03</pdfrwt>
<totfact> 0.54476219E+02</totfact>
</mgrwt>
</event>
<event>
 4    1  0.6912310E-008  0.6736148E+03  0.7818608E-02  0.9763450E-01
          2   -1    0    0  501    0  0.00000000000E+00  0.00000000000E+00  0.35167067903E+04  0.35167067903E+04  0.25500000000E-02 0. -1.
         -2   -1    0    0    0  501 -0.00000000000E+00 -0.00000000000E+00 -0.28121181919E+03  0.28121181920E+03  0.25500000000E-02 0.  1.
    8880022    1    1    2    0    0  0.41690673657E+03  0.50651162233E+03  0.30147004694E+04  0.30890412467E+04  0.15294330000E+03 0. -1.
    8880022    1    1    2    0    0 -0.41690673657E+03 -0.50651162233E+03  0.22079450177E+03  0.70887736287E+03  0.15294330000E+03 0.  0.
<mgrwt>
<rscale>  0 0.67361480E+03</rscale>
<asrwt>0</asrwt>
<pdfrwt beam="1">  1        2 0.54103183E+00 0.67361480E+03</pdfrwt>
<pdfrwt beam="2">  1       -2 0.43263356E-01 0.67361480E+03</pdfrwt>
<totfact> 0.44247041E+00</totfact>
</mgrwt>
</event>
<event>
 4    1  0.6912310E-008  0.8598612E+03  0.7818608E-02  0.9477196E-01
         -2   -1    0    0    0  501 -0.00000000000E+00  0.00000000000E+00  0.29562145717E+03  0.29562145718E+03  0.25500000000E-02 0.  1.
          2   -1    0    0  501    0  0.00000000000E+00 -0.00000000000E+00 -0.45263460909E+04  0.45263460909E+04  0.25500000000E-02 0. -1.
    8880022    1    1    2    0    0  0.21553123544E+03  0.81823950130E+03 -0.37281072480E+04  0.38259828673E+04  0.15294330000E+03 0.  0.
    8880022    1    1    2    0    0 -0.21553123544E+03 -0.81823950130E+03 -0.50261738568E+03  0.99598468078E+03  0.15294330000E+03 0.  0.
<mgrwt>
<rscale>  0 0.85986118E+03</rscale>
<asrwt>0</asrwt>
<pdfrwt beam="1">  1        2 0.69636089E+00 0.85986118E+03</pdfrwt>
<pdfrwt beam="2">  1       -2 0.45480227E-01 0.85986118E+03</pdfrwt>
<totfact> 0.59063973E-01</totfact>
</mgrwt>
</event>
<event>
 4    1  0.6912310E-008  0.4188283E+03  0.7818608E-02  0.1037448E+00
         -2   -1    0    0    0  501 -0.00000000000E+00  0.00000000000E+00  0.88209688887E+02  0.88209688924E+02  0.25500000000E-02 0.  1.
          2   -1    0    0  501    0  0.00000000000E+00 -0.00000000000E+00 -0.29258487092E+04  0.29258487092E+04  0.25500000000E-02 0. -1.
    8880022    1    1    2    0    0 -0.24169047497E+03 -0.30595944206E+03 -0.56588750896E+03  0.70402115855E+03  0.15294330000E+03 0.  0.
    8880022    1    1    2    0    0  0.24169047497E+03  0.30595944206E+03 -0.22717515114E+04  0.23100372396E+04  0.15294330000E+03 0.  0.
<mgrwt>
<rscale>  0 0.41882827E+03</rscale>
<asrwt>0</asrwt>
<pdfrwt beam="1">  1        2 0.45013050E+00 0.41882827E+03</pdfrwt>
<pdfrwt beam="2">  1       -2 0.13570724E-01 0.41882827E+03</pdfrwt>
<totfact> 0.89518788E+01</totfact>
</mgrwt>
</event>
<event>
 4    1  0.6912310E-008  0.8056667E+03  0.7818608E-02  0.9551851E-01
         -2   -1    0    0    0  501 -0.00000000000E+00  0.00000000000E+00  0.62992121547E+03  0.62992121548E+03  0.25500000000E-02 0.  1.
          2   -1    0    0  501    0  0.00000000000E+00 -0.00000000000E+00 -0.12422681007E+04  0.12422681007E+04  0.25500000000E-02 0. -1.
    8880022    1    1    2    0    0 -0.36812127124E+03  0.70013854262E+03  0.80370784304E+02  0.80966558849E+03  0.15294330000E+03 0.  0.
    8880022    1    1    2    0    0  0.36812127124E+03 -0.70013854262E+03 -0.69271766952E+03  0.10625237277E+04  0.15294330000E+03 0.  0.
<mgrwt>
<rscale>  0 0.80566674E+03</rscale>
<asrwt>0</asrwt>
<pdfrwt beam="1">  1        2 0.19111817E+00 0.80566674E+03</pdfrwt>
<pdfrwt beam="2">  1       -2 0.96910957E-01 0.80566674E+03</pdfrwt>
<totfact> 0.16114431E+01</totfact>
</mgrwt>
</event>
<event>
 4    1  0.6912310E-008  0.7132023E+03  0.7818608E-02  0.9694917E-01
          2   -1    0    0  501    0  0.00000000000E+00  0.00000000000E+00  0.29992564927E+04  0.29992564927E+04  0.25500000000E-02 0. -1.
         -2   -1    0    0    0  501 -0.00000000000E+00 -0.00000000000E+00 -0.37265076713E+03  0.37265076714E+03  0.25500000000E-02 0.  1.
    8880022    1    1    2    0    0  0.36757811106E+03  0.59173654358E+03  0.68780238046E+02  0.71651111569E+03  0.15294330000E+03 0.  1.
    8880022    1    1    2    0    0 -0.36757811106E+03 -0.59173654358E+03  0.25578254875E+04  0.26553961441E+04  0.15294330000E+03 0.  0.
<mgrwt>
<rscale>  0 0.71320226E+03</rscale>
<asrwt>0</asrwt>
<pdfrwt beam="1">  1        2 0.46142408E+00 0.71320226E+03</pdfrwt>
<pdfrwt beam="2">  1       -2 0.57330886E-01 0.71320226E+03</pdfrwt>
<totfact> 0.53340437E+00</totfact>
</mgrwt>
</event>
<event>
 4    1  0.6912310E-008  0.5175104E+03  0.7818608E-02  0.1009307E+00
         -2   -1    0    0    0  501 -0.00000000000E+00  0.00000000000E+00  0.34202218843E+03  0.34202218844E+03  0.25500000000E-02 0.  1.
          2   -1    0    0  501    0  0.00000000000E+00 -0.00000000000E+00 -0.10486918798E+04  0.10486918798E+04  0.25500000000E-02 0. -1.
    8880022    1    1    2    0    0  0.24057893595E+03  0.43191097286E+03 -0.33569964323E+01  0.51752124144E+03  0.15294330000E+03 0.  1.
    8880022    1    1    2    0    0 -0.24057893595E+03 -0.43191097286E+03 -0.70331269489E+03  0.87319282676E+03  0.15294330000E+03 0.  0.
<mgrwt>
<rscale>  0 0.51751035E+03</rscale>
<asrwt>0</asrwt>
<pdfrwt beam="1">  1        2 0.16133721E+00 0.51751035E+03</pdfrwt>
<pdfrwt beam="2">  1       -2 0.52618798E-01 0.51751035E+03</pdfrwt>
<totfact> 0.82897682E+01</totfact>
</mgrwt>
</event>
<event>
 4    1  0.6912310E-008  0.4138052E+03  0.7818608E-02  0.1039102E+00
         -2   -1    0    0    0  501 -0.00000000000E+00  0.00000000000E+00  0.43900955601E+03  0.43900955602E+03  0.25500000000E-02 0.  1.
          2   -1    0    0  501    0  0.00000000000E+00 -0.00000000000E+00 -0.77251094274E+03  0.77251094275E+03  0.25500000000E-02 0. -1.
    8880022    1    1    2    0    0 -0.26486830409E+03 -0.27872538853E+03  0.25947854976E+03  0.48842996583E+03  0.15294330000E+03 0.  0.
    8880022    1    1    2    0    0  0.26486830409E+03  0.27872538853E+03 -0.59297993649E+03  0.72309053293E+03  0.15294330000E+03 0.  0.
<mgrwt>
<rscale>  0 0.41380516E+03</rscale>
<asrwt>0</asrwt>
<pdfrwt beam="1">  1        2 0.11884784E+00 0.41380516E+03</pdfrwt>
<pdfrwt beam="2">  1       -2 0.67539932E-01 0.41380516E+03</pdfrwt>
<totfact> 0.75764519E+01</totfact>
</mgrwt>
</event>
<event>
 4    1  0.6912310E-008  0.3055954E+03  0.7818608E-02  0.1082477E+00
          2   -1    0    0  501    0  0.00000000000E+00  0.00000000000E+00  0.23851013406E+04  0.23851013406E+04  0.25500000000E-02 0. -1.
         -2   -1    0    0    0  501 -0.00000000000E+00 -0.00000000000E+00 -0.20122689855E+03  0.20122689857E+03  0.25500000000E-02 0.  1.
    8880022    1    1    2    0    0 -0.19535501597E+03 -0.17841886559E+03 -0.68614645253E+02  0.31320360218E+03  0.15294330000E+03 0.  0.
    8880022    1    1    2    0    0  0.19535501597E+03  0.17841886559E+03  0.22524890873E+04  0.22731246370E+04  0.15294330000E+03 0.  0.
<mgrwt>
<rscale>  0 0.30559536E+03</rscale>
<asrwt>0</asrwt>
<pdfrwt beam="1">  1        2 0.36693867E+00 0.30559536E+03</pdfrwt>
<pdfrwt beam="2">  1       -2 0.30957984E-01 0.30559536E+03</pdfrwt>
<totfact> 0.44651558E+01</totfact>
</mgrwt>
</event>
<event>
 4    1  0.6912310E-008  0.2605953E+03  0.7818608E-02  0.1106786E+00
         -2   -1    0    0    0  501 -0.00000000000E+00  0.00000000000E+00  0.13768789760E+03  0.13768789763E+03  0.25500000000E-02 0.  1.
          2   -1    0    0  501    0  0.00000000000E+00 -0.00000000000E+00 -0.17283254644E+04  0.17283254644E+04  0.25500000000E-02 0. -1.
    8880022    1    1    2    0    0 -0.12382817938E+03 -0.17083577830E+03 -0.15840420229E+04  0.16053345647E+04  0.15294330000E+03 0.  0.
    8880022    1    1    2    0    0  0.12382817938E+03  0.17083577830E+03 -0.65955438443E+01  0.26067879732E+03  0.15294330000E+03 0.  0.
<mgrwt>
<rscale>  0 0.26059535E+03</rscale>
<asrwt>0</asrwt>
<pdfrwt beam="1">  1        2 0.26589621E+00 0.26059535E+03</pdfrwt>
<pdfrwt beam="2">  1       -2 0.21182755E-01 0.26059535E+03</pdfrwt>
<totfact> 0.19835729E+02</totfact>
</mgrwt>
</event>
<event>
 4    1  0.6912310E-008  0.6918054E+03  0.7818608E-02  0.9731350E-01
         -2   -1    0    0    0  501 -0.00000000000E+00  0.00000000000E+00  0.11474283608E+04  0.11474283608E+04  0.25500000000E-02 0.  1.
          2   -1    0    0  501    0  0.00000000000E+00 -0.00000000000E+00 -0.69731784919E+03  0.69731784919E+03  0.25500000000E-02 0. -1.
    8880022    1    1    2    0    0  0.67117620833E+03 -0.68742271430E+02  0.80976131419E+03  0.10650389859E+04  0.15294330000E+03 0.  0.
    8880022    1    1    2    0    0 -0.67117620833E+03  0.68742271430E+02 -0.35965080258E+03  0.77970722410E+03  0.15294330000E+03 0.  0.
<mgrwt>
<rscale>  0 0.69180536E+03</rscale>
<asrwt>0</asrwt>
<pdfrwt beam="1">  1        2 0.10727967E+00 0.69180536E+03</pdfrwt>
<pdfrwt beam="2">  1       -2 0.17652744E+00 0.69180536E+03</pdfrwt>
<totfact> 0.80893025E+00</totfact>
</mgrwt>
</event>
<event>
 4    1  0.6912310E-008  0.4593248E+03  0.7818608E-02  0.1024977E+00
          2   -1    0    0  501    0  0.00000000000E+00  0.00000000000E+00  0.49232411032E+03  0.49232411033E+03  0.25500000000E-02 0. -1.
         -2   -1    0    0    0  501 -0.00000000000E+00 -0.00000000000E+00 -0.91382642905E+03  0.91382642905E+03  0.25500000000E-02 0.  1.
    8880022    1    1    2    0    0  0.43192654156E+03  0.32047881806E+02 -0.72310528238E+03  0.85665658607E+03  0.15294330000E+03 0.  0.
    8880022    1    1    2    0    0 -0.43192654156E+03 -0.32047881806E+02  0.30160296365E+03  0.54949395332E+03  0.15294330000E+03 0.  0.
<mgrwt>
<rscale>  0 0.45932478E+03</rscale>
<asrwt>0</asrwt>
<pdfrwt beam="1">  1        2 0.75742171E-01 0.45932478E+03</pdfrwt>
<pdfrwt beam="2">  1       -2 0.14058868E+00 0.45932478E+03</pdfrwt>
<totfact> 0.23265714E+01</totfact>
</mgrwt>
</event>
<event>
 4    1  0.6912310E-008  0.6787326E+03  0.7818608E-02  0.9754310E-01
         -2   -1    0    0    0  501 -0.00000000000E+00  0.00000000000E+00  0.76384175974E+03  0.76384175975E+03  0.25500000000E-02 0.  1.
          2   -1    0    0  501    0  0.00000000000E+00 -0.00000000000E+00 -0.81682741102E+03  0.81682741103E+03  0.25500000000E-02 0. -1.
    8880022    1    1    2    0    0 -0.55111490966E+03 -0.36545680557E+03 -0.43076075181E+03  0.80388606077E+03  0.15294330000E+03 0.  0.
    8880022    1    1    2    0    0  0.55111490966E+03  0.36545680557E+03  0.37777510053E+03  0.77678311000E+03  0.15294330000E+03 0.  0.
<mgrwt>
<rscale>  0 0.67873262E+03</rscale>
<asrwt>0</asrwt>
<pdfrwt beam="1">  1        2 0.12566576E+00 0.67873262E+03</pdfrwt>
<pdfrwt beam="2">  1       -2 0.11751412E+00 0.67873262E+03</pdfrwt>
<totfact> 0.19152088E+01</totfact>
</mgrwt>
</event>
<event>
 4    1  0.6912310E-008  0.4228871E+03  0.7818608E-02  0.1036131E+00
         -2   -1    0    0    0  501 -0.00000000000E+00  0.00000000000E+00  0.23684582947E+03  0.23684582948E+03  0.25500000000E-02 0.  1.
          2   -1    0    0  501    0  0.00000000000E+00 -0.00000000000E+00 -0.25267293842E+04  0.25267293842E+04  0.25500000000E-02 0. -1.
    8880022    1    1    2    0    0  0.22469800357E+03  0.32396400126E+03  0.12110287031E+02  0.42306049093E+03  0.15294330000E+03 0.  0.
    8880022    1    1    2    0    0 -0.22469800357E+03 -0.32396400126E+03 -0.23019938418E+04  0.23405147228E+04  0.15294330000E+03 0.  0.
<mgrwt>
<rscale>  0 0.42288712E+03</rscale>
<asrwt>0</asrwt>
<pdfrwt beam="1">  1        2 0.38872758E+00 0.42288712E+03</pdfrwt>
<pdfrwt beam="2">  1       -2 0.36437822E-01 0.42288712E+03</pdfrwt>
<totfact> 0.26555589E+01</totfact>
</mgrwt>
</event>
<event>
 4    1  0.6912310E-008  0.3154580E+03  0.7818608E-02  0.1077759E+00
         -2   -1    0    0    0  501 -0.00000000000E+00  0.00000000000E+00  0.17883947995E+03  0.17883947997E+03  0.25500000000E-02 0.  1.
          2   -1    0    0  501    0  0.00000000000E+00 -0.00000000000E+00 -0.15208617262E+04  0.15208617262E+04  0.25500000000E-02 0. -1.
    8880022    1    1    2    0    0 -0.19696093803E+03 -0.19320576574E+03 -0.13477651474E+04  0.13841909639E+04  0.15294330000E+03 0.  0.
    8880022    1    1    2    0    0  0.19696093803E+03  0.19320576574E+03  0.57429011748E+01  0.31551024224E+03  0.15294330000E+03 0.  0.
<mgrwt>
<rscale>  0 0.31545797E+03</rscale>
<asrwt>0</asrwt>
<pdfrwt beam="1">  1        2 0.23397872E+00 0.31545797E+03</pdfrwt>
<pdfrwt beam="2">  1       -2 0.27513767E-01 0.31545797E+03</pdfrwt>
<totfact> 0.15929923E+02</totfact>
</mgrwt>
</event>
<event>
 4    1  0.6912310E-008  0.2414046E+03  0.7818608E-02  0.1118861E+00
          2   -1    0    0  501    0  0.00000000000E+00  0.00000000000E+00  0.53912599081E+03  0.53912599082E+03  0.25500000000E-02 0. -1.
         -2   -1    0    0    0  501 -0.00000000000E+00 -0.00000000000E+00 -0.13306306773E+03  0.13306306776E+03  0.25500000000E-02 0.  1.
    8880022    1    1    2    0    0  0.17910543515E+03  0.52969738028E+02  0.34862267330E+03  0.42404477523E+03  0.15294330000E+03 0.  1.
    8880022    1    1    2    0    0 -0.17910543515E+03 -0.52969738028E+02  0.57440249780E+02  0.24814428334E+03  0.15294330000E+03 0.  0.
<mgrwt>
<rscale>  0 0.24140465E+03</rscale>
<asrwt>0</asrwt>
<pdfrwt beam="1">  1        2 0.82942460E-01 0.24140465E+03</pdfrwt>
<pdfrwt beam="2">  1       -2 0.20471241E-01 0.24140465E+03</pdfrwt>
<totfact> 0.11537019E+03</totfact>
</mgrwt>
</event>
<event>
 4    1  0.6912310E-008  0.8932829E+03  0.7818608E-02  0.9434017E-01
         -2   -1    0    0    0  501 -0.00000000000E+00  0.00000000000E+00  0.69032959688E+03  0.69032959688E+03  0.25500000000E-02 0.  1.
          2   -1    0    0  501    0  0.00000000000E+00 -0.00000000000E+00 -0.17599051131E+04  0.17599051131E+04  0.25500000000E-02 0. -1.
    8880022    1    1    2    0    0 -0.87914637328E+03 -0.40797031973E+02  0.18292739436E+03  0.91182061179E+03  0.15294330000E+03 0.  0.
    8880022    1    1    2    0    0  0.87914637328E+03  0.40797031973E+02 -0.12525029105E+04  0.15384140982E+04  0.15294330000E+03 0.  0.
<mgrwt>
<rscale>  0 0.89328293E+03</rscale>
<asrwt>0</asrwt>
<pdfrwt beam="1">  1        2 0.27075463E+00 0.89328293E+03</pdfrwt>
<pdfrwt beam="2">  1       -2 0.10620455E+00 0.89328293E+03</pdfrwt>
<totfact> 0.65608139E+00</totfact>
</mgrwt>
</event>
<event>
 4    1  0.6912310E-008  0.8305917E+03  0.7818608E-02  0.9516763E-01
         -2   -1    0    0    0  501 -0.00000000000E+00  0.00000000000E+00  0.52939313813E+03  0.52939313813E+03  0.25500000000E-02 0.  1.
          2   -1    0    0  501    0  0.00000000000E+00 -0.00000000000E+00 -0.27323984704E+04  0.27323984704E+04  0.25500000000E-02 0. -1.
    8880022    1    1    2    0    0 -0.81637742334E+03  0.43398899667E+01  0.78021769968E+02  0.83424815348E+03  0.15294330000E+03 0.  0.
    8880022    1    1    2    0    0  0.81637742334E+03 -0.43398899667E+01 -0.22810271022E+04  0.24275434550E+04  0.15294330000E+03 0.  0.
<mgrwt>
<rscale>  0 0.83059171E+03</rscale>
<asrwt>0</asrwt>
<pdfrwt beam="1">  1        2 0.42036899E+00 0.83059171E+03</pdfrwt>
<pdfrwt beam="2">  1       -2 0.81445100E-01 0.83059171E+03</pdfrwt>
<totfact> 0.35138354E+00</totfact>
</mgrwt>
</event>
<event>
 4    1  0.6912310E-008  0.3599035E+03  0.7818608E-02  0.1058622E+00
          2   -1    0    0  501    0  0.00000000000E+00  0.00000000000E+00  0.16414082231E+04  0.16414082231E+04  0.25500000000E-02 0. -1.
         -2   -1    0    0    0  501 -0.00000000000E+00 -0.00000000000E+00 -0.20216865724E+03  0.20216865726E+03  0.25500000000E-02 0.  1.
    8880022    1    1    2    0    0  0.12441185981E+03 -0.30109887581E+03 -0.12011014101E+00  0.35990347500E+03  0.15294330000E+03 0.  1.
    8880022    1    1    2    0    0 -0.12441185981E+03  0.30109887581E+03  0.14393596760E+04  0.14836734053E+04  0.15294330000E+03 0.  0.
<mgrwt>
<rscale>  0 0.35990345E+03</rscale>
<asrwt>0</asrwt>
<pdfrwt beam="1">  1        2 0.25252434E+00 0.35990345E+03</pdfrwt>
<pdfrwt beam="2">  1       -2 0.31102870E-01 0.35990345E+03</pdfrwt>
<totfact> 0.10881842E+02</totfact>
</mgrwt>
</event>
<event>
 4    1  0.6912310E-008  0.3209020E+03  0.7818608E-02  0.1075235E+00
          2   -1    0    0  501    0  0.00000000000E+00  0.00000000000E+00  0.15316138174E+04  0.15316138174E+04  0.25500000000E-02 0. -1.
         -2   -1    0    0    0  501 -0.00000000000E+00 -0.00000000000E+00 -0.17959683989E+03  0.17959683990E+03  0.25500000000E-02 0.  1.
    8880022    1    1    2    0    0  0.87927768401E+02 -0.26805809463E+03 -0.74969346944E+00  0.32090286631E+03  0.15294330000E+03 0.  0.
    8880022    1    1    2    0    0 -0.87927768401E+02  0.26805809463E+03  0.13527666709E+04  0.13903077910E+04  0.15294330000E+03 0. -1.
<mgrwt>
<rscale>  0 0.32090199E+03</rscale>
<asrwt>0</asrwt>
<pdfrwt beam="1">  1        2 0.23563289E+00 0.32090199E+03</pdfrwt>
<pdfrwt beam="2">  1       -2 0.27630283E-01 0.32090199E+03</pdfrwt>
<totfact> 0.15583476E+02</totfact>
</mgrwt>
</event>
<event>
 4    1  0.6912310E-008  0.4176738E+03  0.7818608E-02  0.1037826E+00
         -2   -1    0    0    0  501 -0.00000000000E+00  0.00000000000E+00  0.14139568338E+03  0.14139568340E+03  0.25500000000E-02 0.  1.
          2   -1    0    0  501    0  0.00000000000E+00 -0.00000000000E+00 -0.45684978782E+04  0.45684978782E+04  0.25500000000E-02 0. -1.
    8880022    1    1    2    0    0 -0.29106231402E+03  0.25757027836E+03 -0.42255319226E+04  0.42461242800E+04  0.15294330000E+03 0.  0.
    8880022    1    1    2    0    0  0.29106231402E+03 -0.25757027836E+03 -0.20157027222E+03  0.46376928164E+03  0.15294330000E+03 0.  1.
<mgrwt>
<rscale>  0 0.41767376E+03</rscale>
<asrwt>0</asrwt>
<pdfrwt beam="1">  1        2 0.70284571E+00 0.41767376E+03</pdfrwt>
<pdfrwt beam="2">  1       -2 0.21753186E-01 0.41767376E+03</pdfrwt>
<totfact> 0.24630147E+00</totfact>
</mgrwt>
</event>
<event>
 4    1  0.6912310E-008  0.2007629E+03  0.7818608E-02  0.1149097E+00
          2   -1    0    0  501    0  0.00000000000E+00  0.00000000000E+00  0.25244113713E+03  0.25244113715E+03  0.25500000000E-02 0. -1.
         -2   -1    0    0    0  501 -0.00000000000E+00 -0.00000000000E+00 -0.38790538054E+03  0.38790538054E+03  0.25500000000E-02 0.  1.
    8880022    1    1    2    0    0 -0.34014696386E+02 -0.12552724442E+03 -0.31332706631E+03  0.37212846191E+03  0.15294330000E+03 0.  1.
    8880022    1    1    2    0    0  0.34014696386E+02  0.12552724442E+03  0.17786282291E+03  0.26821805579E+03  0.15294330000E+03 0.  0.
<mgrwt>
<rscale>  0 0.20076290E+03</rscale>
<asrwt>0</asrwt>
<pdfrwt beam="1">  1        2 0.38837098E-01 0.20076290E+03</pdfrwt>
<pdfrwt beam="2">  1       -2 0.59677751E-01 0.20076290E+03</pdfrwt>
<totfact> 0.35511117E+02</totfact>
</mgrwt>
</event>
<event>
 4    1  0.6912310E-008  0.2357751E+03  0.7818608E-02  0.1122640E+00
         -2   -1    0    0    0  501 -0.00000000000E+00  0.00000000000E+00  0.13266323671E+03  0.13266323674E+03  0.25500000000E-02 0.  1.
          2   -1    0    0  501    0  0.00000000000E+00 -0.00000000000E+00 -0.17505556117E+04  0.17505556117E+04  0.25500000000E-02 0. -1.
    8880022    1    1    2    0    0 -0.13640038335E+02  0.17891951227E+03 -0.16301625214E+04  0.16471246892E+04  0.15294330000E+03 0. -1.
    8880022    1    1    2    0    0  0.13640038335E+02 -0.17891951227E+03  0.12270146440E+02  0.23609415923E+03  0.15294330000E+03 0.  0.
<mgrwt>
<rscale>  0 0.23577510E+03</rscale>
<asrwt>0</asrwt>
<pdfrwt beam="1">  1        2 0.26931623E+00 0.23577510E+03</pdfrwt>
<pdfrwt beam="2">  1       -2 0.20409730E-01 0.23577510E+03</pdfrwt>
<totfact> 0.20712696E+02</totfact>
</mgrwt>
</event>
<event>
 4    1  0.6912310E-008  0.6041041E+03  0.7818608E-02  0.9896928E-01
         -2   -1    0    0    0  501 -0.00000000000E+00  0.00000000000E+00  0.51110237892E+03  0.51110237893E+03  0.25500000000E-02 0.  1.
          2   -1    0    0  501    0  0.00000000000E+00 -0.00000000000E+00 -0.19003563896E+04  0.19003563896E+04  0.25500000000E-02 0. -1.
    8880022    1    1    2    0    0  0.32571456037E+03 -0.48524229051E+03  0.25802584672E+03  0.65690109295E+03  0.15294330000E+03 0.  0.
    8880022    1    1    2    0    0 -0.32571456037E+03  0.48524229051E+03 -0.16472798574E+04  0.17545576756E+04  0.15294330000E+03 0. -1.
<mgrwt>
<rscale>  0 0.60410405E+03</rscale>
<asrwt>0</asrwt>
<pdfrwt beam="1">  1        2 0.29236252E+00 0.60410405E+03</pdfrwt>
<pdfrwt beam="2">  1       -2 0.78631136E-01 0.60410405E+03</pdfrwt>
<totfact> 0.11536948E+01</totfact>
</mgrwt>
</event>
<event>
 4    1  0.6912310E-008  0.4886917E+03  0.7818608E-02  0.1016773E+00
         -2   -1    0    0    0  501 -0.00000000000E+00  0.00000000000E+00  0.33419716064E+03  0.33419716065E+03  0.25500000000E-02 0.  1.
          2   -1    0    0  501    0  0.00000000000E+00 -0.00000000000E+00 -0.33359371740E+04  0.33359371740E+04  0.25500000000E-02 0. -1.
    8880022    1    1    2    0    0 -0.29958042658E+03 -0.35451301710E+03  0.12581668352E+03  0.50462798391E+03  0.15294330000E+03 0.  0.
    8880022    1    1    2    0    0  0.29958042658E+03  0.35451301710E+03 -0.31275566969E+04  0.31655063507E+04  0.15294330000E+03 0. -1.
<mgrwt>
<rscale>  0 0.48869169E+03</rscale>
<asrwt>0</asrwt>
<pdfrwt beam="1">  1        2 0.51322108E+00 0.48869169E+03</pdfrwt>
<pdfrwt beam="2">  1       -2 0.51414950E-01 0.48869169E+03</pdfrwt>
<totfact> 0.43446486E+00</totfact>
</mgrwt>
</event>
<event>
 4    1  0.6912310E-008  0.7237313E+03  0.7818608E-02  0.9677488E-01
          2   -1    0    0  501    0  0.00000000000E+00  0.00000000000E+00  0.43380264009E+03  0.43380264010E+03  0.25500000000E-02 0. -1.
         -2   -1    0    0    0  501 -0.00000000000E+00 -0.00000000000E+00 -0.13312967884E+04  0.13312967884E+04  0.25500000000E-02 0.  1.
    8880022    1    1    2    0    0  0.35098277218E+03 -0.61417129788E+03 -0.17954607563E+03  0.74566999121E+03  0.15294330000E+03 0.  1.
    8880022    1    1    2    0    0 -0.35098277218E+03  0.61417129788E+03 -0.71794807265E+03  0.10194294373E+04  0.15294330000E+03 0. -1.
<mgrwt>
<rscale>  0 0.72373126E+03</rscale>
<asrwt>0</asrwt>
<pdfrwt beam="1">  1        2 0.66738868E-01 0.72373126E+03</pdfrwt>
<pdfrwt beam="2">  1       -2 0.20481489E+00 0.72373126E+03</pdfrwt>
<totfact> 0.91736377E+00</totfact>
</mgrwt>
</event>
<event>
 4    1  0.6912310E-008  0.2098188E+03  0.7818608E-02  0.1141710E+00
          2   -1    0    0  501    0  0.00000000000E+00  0.00000000000E+00  0.16710296082E+04  0.16710296082E+04  0.25500000000E-02 0. -1.
         -2   -1    0    0    0  501 -0.00000000000E+00 -0.00000000000E+00 -0.13188787194E+03  0.13188787197E+03  0.25500000000E-02 0.  1.
    8880022    1    1    2    0    0 -0.13338403540E+03 -0.53300645834E+02 -0.36841336566E+02  0.21302862916E+03  0.15294330000E+03 0.  1.
    8880022    1    1    2    0    0  0.13338403540E+03  0.53300645834E+02  0.15759830728E+04  0.15898888510E+04  0.15294330000E+03 0.  0.
<mgrwt>
<rscale>  0 0.20981876E+03</rscale>
<asrwt>0</asrwt>
<pdfrwt beam="1">  1        2 0.25708147E+00 0.20981876E+03</pdfrwt>
<pdfrwt beam="2">  1       -2 0.20290443E-01 0.20981876E+03</pdfrwt>
<totfact> 0.23181699E+02</totfact>
</mgrwt>
</event>
<event>
 4    1  0.6912310E-008  0.6388730E+03  0.7818608E-02  0.9827885E-01
         -2   -1    0    0    0  501 -0.00000000000E+00  0.00000000000E+00  0.13382716955E+03  0.13382716957E+03  0.25500000000E-02 0.  1.
          2   -1    0    0  501    0  0.00000000000E+00 -0.00000000000E+00 -0.39295400626E+04  0.39295400626E+04  0.25500000000E-02 0. -1.
    8880022    1    1    2    0    0 -0.44657189439E+03 -0.43051203773E+03 -0.93660032149E+03  0.11337455123E+04  0.15294330000E+03 0.  0.
    8880022    1    1    2    0    0  0.44657189439E+03  0.43051203773E+03 -0.28591125716E+04  0.29296217198E+04  0.15294330000E+03 0.  0.
<mgrwt>
<rscale>  0 0.63887301E+03</rscale>
<asrwt>0</asrwt>
<pdfrwt beam="1">  1        2 0.60454454E+00 0.63887301E+03</pdfrwt>
<pdfrwt beam="2">  1       -2 0.20588798E-01 0.63887301E+03</pdfrwt>
<totfact> 0.88966511E+00</totfact>
</mgrwt>
</event>
<event>
 4    1  0.6912310E-008  0.1249405E+04  0.7818608E-02  0.9070678E-01
          2   -1    0    0  501    0  0.00000000000E+00  0.00000000000E+00  0.31031375700E+04  0.31031375700E+04  0.25500000000E-02 0. -1.
         -2   -1    0    0    0  501 -0.00000000000E+00 -0.00000000000E+00 -0.64531066826E+03  0.64531066826E+03  0.25500000000E-02 0.  1.
    8880022    1    1    2    0    0 -0.75534579379E+03  0.98339979597E+03  0.34890062266E+03  0.12972068935E+04  0.15294330000E+03 0.  0.
    8880022    1    1    2    0    0  0.75534579379E+03 -0.98339979597E+03  0.21089262791E+04  0.24512413448E+04  0.15294330000E+03 0.  0.
<mgrwt>
<rscale>  0 0.12494055E+04</rscale>
<asrwt>0</asrwt>
<pdfrwt beam="1">  1        2 0.47740579E+00 0.12494055E+04</pdfrwt>
<pdfrwt beam="2">  1       -2 0.99278561E-01 0.12494055E+04</pdfrwt>
<totfact> 0.12410416E+00</totfact>
</mgrwt>
</event>
<event>
 4    1  0.6912310E-008  0.3369777E+03  0.7818608E-02  0.1068091E+00
         -2   -1    0    0    0  501 -0.00000000000E+00  0.00000000000E+00  0.24317176604E+03  0.24317176605E+03  0.25500000000E-02 0.  1.
          2   -1    0    0  501    0  0.00000000000E+00 -0.00000000000E+00 -0.30595374289E+04  0.30595374289E+04  0.25500000000E-02 0. -1.
    8880022    1    1    2    0    0  0.19983739572E+03  0.22411449251E+03 -0.29283014442E+04  0.29476267219E+04  0.15294330000E+03 0. -1.
    8880022    1    1    2    0    0 -0.19983739572E+03 -0.22411449251E+03  0.11193578138E+03  0.35508247303E+03  0.15294330000E+03 0.  0.
<mgrwt>
<rscale>  0 0.33697766E+03</rscale>
<asrwt>0</asrwt>
<pdfrwt beam="1">  1        2 0.47069804E+00 0.33697766E+03</pdfrwt>
<pdfrwt beam="2">  1       -2 0.37411043E-01 0.33697766E+03</pdfrwt>
<totfact> 0.12775759E+01</totfact>
</mgrwt>
</event>
<event>
 4    1  0.6912310E-008  0.2329656E+03  0.7818608E-02  0.1124570E+00
          2   -1    0    0  501    0  0.00000000000E+00  0.00000000000E+00  0.40096490170E+04  0.40096490170E+04  0.25500000000E-02 0. -1.
         -2   -1    0    0    0  501 -0.00000000000E+00 -0.00000000000E+00 -0.58165167503E+02  0.58165167559E+02  0.25500000000E-02 0.  1.
    8880022    1    1    2    0    0  0.13656946591E+03  0.11058978558E+03  0.19413866861E+03  0.30325368152E+03  0.15294330000E+03 0.  1.
    8880022    1    1    2    0    0 -0.13656946591E+03 -0.11058978558E+03  0.37573451809E+04  0.37645605030E+04  0.15294330000E+03 0.  0.
<mgrwt>
<rscale>  0 0.23296560E+03</rscale>
<asrwt>0</asrwt>
<pdfrwt beam="1">  1        2 0.61686911E+00 0.23296560E+03</pdfrwt>
<pdfrwt beam="2">  1       -2 0.89484869E-02 0.23296560E+03</pdfrwt>
<totfact> 0.35651500E+01</totfact>
</mgrwt>
</event>
<event>
 4    1  0.6912310E-008  0.8179448E+03  0.7818608E-02  0.9534400E-01
          2   -1    0    0  501    0  0.00000000000E+00  0.00000000000E+00  0.20422132598E+04  0.20422132598E+04  0.25500000000E-02 0. -1.
         -2   -1    0    0    0  501 -0.00000000000E+00 -0.00000000000E+00 -0.44094606589E+03  0.44094606590E+03  0.25500000000E-02 0.  1.
    8880022    1    1    2    0    0 -0.38503448597E+03  0.70525915190E+03  0.17115531703E+03  0.83566011170E+03  0.15294330000E+03 0.  0.
    8880022    1    1    2    0    0  0.38503448597E+03 -0.70525915190E+03  0.14301118769E+04  0.16474992140E+04  0.15294330000E+03 0.  0.
<mgrwt>
<rscale>  0 0.81794479E+03</rscale>
<asrwt>0</asrwt>
<pdfrwt beam="1">  1        2 0.31418666E+00 0.81794479E+03</pdfrwt>
<pdfrwt beam="2">  1       -2 0.67837856E-01 0.81794479E+03</pdfrwt>
<totfact> 0.12926918E+01</totfact>
</mgrwt>
</event>
<event>
 4    1  0.6912310E-008  0.1617180E+04  0.7818608E-02  0.8810063E-01
          2   -1    0    0  501    0  0.00000000000E+00  0.00000000000E+00  0.22479209883E+04  0.22479209883E+04  0.25500000000E-02 0. -1.
         -2   -1    0    0    0  501 -0.00000000000E+00 -0.00000000000E+00 -0.16175736617E+04  0.16175736617E+04  0.25500000000E-02 0.  1.
    8880022    1    1    2    0    0  0.13243300734E+04 -0.91543875640E+03  0.13392817663E+04  0.20997489285E+04  0.15294330000E+03 0.  0.
    8880022    1    1    2    0    0 -0.13243300734E+04  0.91543875640E+03 -0.70893443970E+03  0.17657457215E+04  0.15294330000E+03 0.  0.
<mgrwt>
<rscale>  0 0.16171796E+04</rscale>
<asrwt>0</asrwt>
<pdfrwt beam="1">  1        2 0.34583399E+00 0.16171796E+04</pdfrwt>
<pdfrwt beam="2">  1       -2 0.24885749E+00 0.16171796E+04</pdfrwt>
<totfact> 0.29321594E-01</totfact>
</mgrwt>
</event>
<event>
 4    1  0.6912310E-008  0.1378571E+04  0.7818608E-02  0.8969478E-01
         -2   -1    0    0    0  501 -0.00000000000E+00  0.00000000000E+00  0.23525702903E+04  0.23525702903E+04  0.25500000000E-02 0.  1.
          2   -1    0    0  501    0  0.00000000000E+00 -0.00000000000E+00 -0.14597174576E+04  0.14597174576E+04  0.25500000000E-02 0. -1.
    8880022    1    1    2    0    0 -0.19300943507E+03  0.13563971014E+04  0.17202531100E+04  0.22044791118E+04  0.15294330000E+03 0.  0.
    8880022    1    1    2    0    0  0.19300943507E+03 -0.13563971014E+04 -0.82740027725E+03  0.16078086362E+04  0.15294330000E+03 0.  0.
<mgrwt>
<rscale>  0 0.13785708E+04</rscale>
<asrwt>0</asrwt>
<pdfrwt beam="1">  1        2 0.22457192E+00 0.13785708E+04</pdfrwt>
<pdfrwt beam="2">  1       -2 0.36193389E+00 0.13785708E+04</pdfrwt>
<totfact> 0.16739726E-01</totfact>
</mgrwt>
</event>
<event>
 4    1  0.6912310E-008  0.3876127E+03  0.7818608E-02  0.1048155E+00
          2   -1    0    0  501    0  0.00000000000E+00  0.00000000000E+00  0.40310365340E+03  0.40310365341E+03  0.25500000000E-02 0. -1.
         -2   -1    0    0    0  501 -0.00000000000E+00 -0.00000000000E+00 -0.12307362460E+04  0.12307362460E+04  0.25500000000E-02 0.  1.
    8880022    1    1    2    0    0 -0.13340507721E+03  0.33023486290E+03  0.26827968542E+03  0.47139964141E+03  0.15294330000E+03 0.  0.
    8880022    1    1    2    0    0  0.13340507721E+03 -0.33023486290E+03 -0.10959122780E+04  0.11624402580E+04  0.15294330000E+03 0.  0.
<mgrwt>
<rscale>  0 0.38761273E+03</rscale>
<asrwt>0</asrwt>
<pdfrwt beam="1">  1        2 0.62015947E-01 0.38761273E+03</pdfrwt>
<pdfrwt beam="2">  1       -2 0.18934404E+00 0.38761273E+03</pdfrwt>
<totfact> 0.13168159E+01</totfact>
</mgrwt>
</event>
<event>
 4    1  0.6912310E-008  0.5145172E+03  0.7818608E-02  0.1010058E+00
          2   -1    0    0  501    0  0.00000000000E+00  0.00000000000E+00  0.26362859849E+04  0.26362859849E+04  0.25500000000E-02 0. -1.
         -2   -1    0    0    0  501 -0.00000000000E+00 -0.00000000000E+00 -0.10341770039E+03  0.10341770042E+03  0.25500000000E-02 0.  1.
    8880022    1    1    2    0    0  0.31396722686E+03 -0.37783706898E+03  0.14997733166E+04  0.15855749508E+04  0.15294330000E+03 0.  0.
    8880022    1    1    2    0    0 -0.31396722686E+03  0.37783706898E+03  0.10330949679E+04  0.11541287346E+04  0.15294330000E+03 0.  0.
<mgrwt>
<rscale>  0 0.51451717E+03</rscale>
<asrwt>0</asrwt>
<pdfrwt beam="1">  1        2 0.40558242E+00 0.51451717E+03</pdfrwt>
<pdfrwt beam="2">  1       -2 0.15910417E-01 0.51451717E+03</pdfrwt>
<totfact> 0.99086377E+01</totfact>
</mgrwt>
</event>
<event>
 4    1  0.6912310E-008  0.5944724E+03  0.7818608E-02  0.9916941E-01
         -2   -1    0    0    0  501 -0.00000000000E+00  0.00000000000E+00  0.39128959984E+03  0.39128959985E+03  0.25500000000E-02 0.  1.
          2   -1    0    0  501    0  0.00000000000E+00 -0.00000000000E+00 -0.24518849240E+04  0.24518849240E+04  0.25500000000E-02 0. -1.
    8880022    1    1    2    0    0 -0.56624241173E+03 -0.96825977341E+02  0.99525636670E+02  0.60274600297E+03  0.15294330000E+03 0.  0.
    8880022    1    1    2    0    0  0.56624241173E+03  0.96825977341E+02 -0.21601209608E+04  0.22404285209E+04  0.15294330000E+03 0.  0.
<mgrwt>
<rscale>  0 0.59447236E+03</rscale>
<asrwt>0</asrwt>
<pdfrwt beam="1">  1        2 0.37721305E+00 0.59447236E+03</pdfrwt>
<pdfrwt beam="2">  1       -2 0.60198402E-01 0.59447236E+03</pdfrwt>
<totfact> 0.10289239E+01</totfact>
</mgrwt>
</event>
<event>
 4    1  0.6912310E-008  0.1533355E+03  0.7818608E-02  0.1196433E+00
         -2   -1    0    0    0  501 -0.00000000000E+00  0.00000000000E+00  0.20124497612E+03  0.20124497614E+03  0.25500000000E-02 0.  1.
          2   -1    0    0  501    0  0.00000000000E+00 -0.00000000000E+00 -0.30482119493E+04  0.30482119493E+04  0.25500000000E-02 0. -1.
    8880022    1    1    2    0    0  0.84455574011E+01  0.69859213191E+01  0.16980453146E+03  0.22879108911E+03  0.15294330000E+03 0.  0.
    8880022    1    1    2    0    0 -0.84455574011E+01 -0.69859213191E+01 -0.30167715047E+04  0.30206658363E+04  0.15294330000E+03 0. -1.
<mgrwt>
<rscale>  0 0.15333553E+03</rscale>
<asrwt>0</asrwt>
<pdfrwt beam="1">  1        2 0.46895565E+00 0.15333553E+03</pdfrwt>
<pdfrwt beam="2">  1       -2 0.30960768E-01 0.15333553E+03</pdfrwt>
<totfact> 0.20581118E+01</totfact>
</mgrwt>
</event>
<event>
 4    1  0.6912310E-008  0.8877014E+03  0.7818608E-02  0.9441087E-01
         -2   -1    0    0    0  501 -0.00000000000E+00  0.00000000000E+00  0.37787862199E+03  0.37787862200E+03  0.25500000000E-02 0.  1.
          2   -1    0    0  501    0  0.00000000000E+00 -0.00000000000E+00 -0.28939754084E+04  0.28939754084E+04  0.25500000000E-02 0. -1.
    8880022    1    1    2    0    0 -0.85694463291E+03  0.17397684735E+03 -0.39330552573E+03  0.97092890413E+03  0.15294330000E+03 0.  0.
    8880022    1    1    2    0    0  0.85694463291E+03 -0.17397684735E+03 -0.21227912607E+04  0.23009251263E+04  0.15294330000E+03 0.  0.
<mgrwt>
<rscale>  0 0.88770136E+03</rscale>
<asrwt>0</asrwt>
<pdfrwt beam="1">  1        2 0.44522697E+00 0.88770136E+03</pdfrwt>
<pdfrwt beam="2">  1       -2 0.58135175E-01 0.88770136E+03</pdfrwt>
<totfact> 0.58183584E+00</totfact>
</mgrwt>
</event>
<event>
 4    1  0.6912310E-008  0.7997551E+03  0.7818608E-02  0.9560372E-01
         -2   -1    0    0    0  501 -0.00000000000E+00  0.00000000000E+00  0.46510821073E+03  0.46510821074E+03  0.25500000000E-02 0.  1.
          2   -1    0    0  501    0  0.00000000000E+00 -0.00000000000E+00 -0.22518174838E+04  0.22518174838E+04  0.25500000000E-02 0. -1.
    8880022    1    1    2    0    0 -0.57148720565E+03 -0.53816263147E+03 -0.45754982817E+02  0.80106292861E+03  0.15294330000E+03 0.  0.
    8880022    1    1    2    0    0  0.57148720565E+03  0.53816263147E+03 -0.17409542902E+04  0.19158627659E+04  0.15294330000E+03 0.  0.
<mgrwt>
<rscale>  0 0.79975515E+03</rscale>
<asrwt>0</asrwt>
<pdfrwt beam="1">  1        2 0.34643345E+00 0.79975515E+03</pdfrwt>
<pdfrwt beam="2">  1       -2 0.71555110E-01 0.79975515E+03</pdfrwt>
<totfact> 0.88425706E+00</totfact>
</mgrwt>
</event>
<event>
 4    1  0.6912310E-008  0.6211824E+03  0.7818608E-02  0.9862408E-01
         -2   -1    0    0    0  501 -0.00000000000E+00  0.00000000000E+00  0.44735754193E+03  0.44735754194E+03  0.25500000000E-02 0.  1.
          2   -1    0    0  501    0  0.00000000000E+00 -0.00000000000E+00 -0.15308349947E+04  0.15308349947E+04  0.25500000000E-02 0. -1.
    8880022    1    1    2    0    0  0.59105870899E+03  0.11456684366E+03  0.11177646753E+03  0.63115892677E+03  0.15294330000E+03 0.  0.
    8880022    1    1    2    0    0 -0.59105870899E+03 -0.11456684366E+03 -0.11952539203E+04  0.13470336099E+04  0.15294330000E+03 0.  0.
<mgrwt>
<rscale>  0 0.62118243E+03</rscale>
<asrwt>0</asrwt>
<pdfrwt beam="1">  1        2 0.23551307E+00 0.62118243E+03</pdfrwt>
<pdfrwt beam="2">  1       -2 0.68824238E-01 0.62118243E+03</pdfrwt>
<totfact> 0.24506560E+01</totfact>
</mgrwt>
</event>
<event>
 4    1  0.6912310E-008  0.4195869E+03  0.7818608E-02  0.1037201E+00
         -2   -1    0    0    0  501 -0.00000000000E+00  0.00000000000E+00  0.34469725284E+03  0.34469725285E+03  0.25500000000E-02 0.  1.
          2   -1    0    0  501    0  0.00000000000E+00 -0.00000000000E+00 -0.17052680323E+04  0.17052680323E+04  0.25500000000E-02 0. -1.
    8880022    1    1    2    0    0  0.27870868855E+03  0.27383015833E+03  0.17757587345E+03  0.45561643137E+03  0.15294330000E+03 0.  0.
    8880022    1    1    2    0    0 -0.27870868855E+03 -0.27383015833E+03 -0.15381466529E+04  0.15943488538E+04  0.15294330000E+03 0.  0.
<mgrwt>
<rscale>  0 0.41958687E+03</rscale>
<asrwt>0</asrwt>
<pdfrwt beam="1">  1        2 0.26234892E+00 0.41958687E+03</pdfrwt>
<pdfrwt beam="2">  1       -2 0.53030348E-01 0.41958687E+03</pdfrwt>
<totfact> 0.35329514E+01</totfact>
</mgrwt>
</event>
<event>
 4    1  0.6912310E-008  0.6228933E+03  0.7818608E-02  0.9859016E-01
         -2   -1    0    0    0  501 -0.00000000000E+00  0.00000000000E+00  0.25430135885E+03  0.25430135886E+03  0.25500000000E-02 0.  1.
          2   -1    0    0  501    0  0.00000000000E+00 -0.00000000000E+00 -0.26190549798E+04  0.26190549798E+04  0.25500000000E-02 0. -1.
    8880022    1    1    2    0    0 -0.59561088165E+03  0.99257876953E+02 -0.25413500103E+03  0.67274118370E+03  0.15294330000E+03 0.  0.
    8880022    1    1    2    0    0  0.59561088165E+03 -0.99257876953E+02 -0.21106186199E+04  0.22006151550E+04  0.15294330000E+03 0. -1.
<mgrwt>
<rscale>  0 0.62289333E+03</rscale>
<asrwt>0</asrwt>
<pdfrwt beam="1">  1        2 0.40293152E+00 0.62289333E+03</pdfrwt>
<pdfrwt beam="2">  1       -2 0.39123288E-01 0.62289333E+03</pdfrwt>
<totfact> 0.19639423E+01</totfact>
</mgrwt>
</event>
<event>
 4    1  0.6912310E-008  0.9238031E+03  0.7818608E-02  0.9396306E-01
          2   -1    0    0  501    0  0.00000000000E+00  0.00000000000E+00  0.95543885963E+03  0.95543885963E+03  0.25500000000E-02 0. -1.
         -2   -1    0    0    0  501 -0.00000000000E+00 -0.00000000000E+00 -0.14864624584E+04  0.14864624584E+04  0.25500000000E-02 0.  1.
    8880022    1    1    2    0    0 -0.62661246624E+03  0.66134512578E+03 -0.10368398512E+04  0.13886861015E+04  0.15294330000E+03 0.  0.
    8880022    1    1    2    0    0  0.62661246624E+03 -0.66134512578E+03  0.50581625244E+03  0.10532152166E+04  0.15294330000E+03 0.  0.
<mgrwt>
<rscale>  0 0.92380312E+03</rscale>
<asrwt>0</asrwt>
<pdfrwt beam="1">  1        2 0.14699059E+00 0.92380312E+03</pdfrwt>
<pdfrwt beam="2">  1       -2 0.22868653E+00 0.92380312E+03</pdfrwt>
<totfact> 0.23552861E+00</totfact>
</mgrwt>
</event>
<event>
 4    1  0.6912310E-008  0.3024378E+03  0.7818608E-02  0.1084028E+00
          2   -1    0    0  501    0  0.00000000000E+00  0.00000000000E+00  0.13171431290E+04  0.13171431290E+04  0.25500000000E-02 0. -1.
         -2   -1    0    0    0  501 -0.00000000000E+00 -0.00000000000E+00 -0.15692462394E+03  0.15692462396E+03  0.25500000000E-02 0.  1.
    8880022    1    1    2    0    0  0.23362666969E+03  0.11617046900E+03  0.29813677731E+02  0.30390377927E+03  0.15294330000E+03 0.  0.
    8880022    1    1    2    0    0 -0.23362666969E+03 -0.11617046900E+03  0.11304048273E+04  0.11701639736E+04  0.15294330000E+03 0.  0.
<mgrwt>
<rscale>  0 0.30243785E+03</rscale>
<asrwt>0</asrwt>
<pdfrwt beam="1">  1        2 0.20263740E+00 0.30243785E+03</pdfrwt>
<pdfrwt beam="2">  1       -2 0.24142250E-01 0.30243785E+03</pdfrwt>
<totfact> 0.26043606E+02</totfact>
</mgrwt>
</event>
<event>
 4    1  0.6912310E-008  0.7496366E+03  0.7818608E-02  0.9635921E-01
         -2   -1    0    0    0  501 -0.00000000000E+00  0.00000000000E+00  0.48255906469E+03  0.48255906470E+03  0.25500000000E-02 0.  1.
          2   -1    0    0  501    0  0.00000000000E+00 -0.00000000000E+00 -0.15927383693E+04  0.15927383693E+04  0.25500000000E-02 0. -1.
    8880022    1    1    2    0    0 -0.64200557217E+03  0.35551683898E+03 -0.10931180000E+04  0.13254667074E+04  0.15294330000E+03 0.  0.
    8880022    1    1    2    0    0  0.64200557217E+03 -0.35551683898E+03 -0.17061304662E+02  0.74983072665E+03  0.15294330000E+03 0.  0.
<mgrwt>
<rscale>  0 0.74963660E+03</rscale>
<asrwt>0</asrwt>
<pdfrwt beam="1">  1        2 0.24503667E+00 0.74963660E+03</pdfrwt>
<pdfrwt beam="2">  1       -2 0.74239857E-01 0.74963660E+03</pdfrwt>
<totfact> 0.18860062E+01</totfact>
</mgrwt>
</event>
<event>
 4    1  0.6912310E-008  0.4531917E+03  0.7818608E-02  0.1026775E+00
         -2   -1    0    0    0  501 -0.00000000000E+00  0.00000000000E+00  0.15337695216E+03  0.15337695218E+03  0.25500000000E-02 0.  1.
          2   -1    0    0  501    0  0.00000000000E+00 -0.00000000000E+00 -0.28839602936E+04  0.28839602936E+04  0.25500000000E-02 0. -1.
    8880022    1    1    2    0    0 -0.38505919226E+03 -0.18363132019E+03 -0.24768109541E+04  0.25179307375E+04  0.15294330000E+03 0.  0.
    8880022    1    1    2    0    0  0.38505919226E+03  0.18363132019E+03 -0.25377238733E+03  0.51940650832E+03  0.15294330000E+03 0.  0.
<mgrwt>
<rscale>  0 0.45319168E+03</rscale>
<asrwt>0</asrwt>
<pdfrwt beam="1">  1        2 0.44368616E+00 0.45319168E+03</pdfrwt>
<pdfrwt beam="2">  1       -2 0.23596456E-01 0.45319168E+03</pdfrwt>
<totfact> 0.36471675E+01</totfact>
</mgrwt>
</event>
<event>
 4    1  0.6912310E-008  0.7721820E+03  0.7818608E-02  0.9601179E-01
         -2   -1    0    0    0  501 -0.00000000000E+00  0.00000000000E+00  0.72932300803E+03  0.72932300804E+03  0.25500000000E-02 0.  1.
          2   -1    0    0  501    0  0.00000000000E+00 -0.00000000000E+00 -0.15110228431E+04  0.15110228431E+04  0.25500000000E-02 0. -1.
    8880022    1    1    2    0    0  0.75578906952E+03 -0.40697510478E+02  0.36800939214E+03  0.85539229052E+03  0.15294330000E+03 0.  0.
    8880022    1    1    2    0    0 -0.75578906952E+03  0.40697510478E+02 -0.11497092272E+04  0.13849535606E+04  0.15294330000E+03 0.  0.
<mgrwt>
<rscale>  0 0.77218201E+03</rscale>
<asrwt>0</asrwt>
<pdfrwt beam="1">  1        2 0.23246505E+00 0.77218201E+03</pdfrwt>
<pdfrwt beam="2">  1       -2 0.11220354E+00 0.77218201E+03</pdfrwt>
<totfact> 0.80069596E+00</totfact>
</mgrwt>
</event>
<event>
 4    1  0.6912310E-008  0.8681439E+03  0.7818608E-02  0.9466303E-01
         -2   -1    0    0    0  501 -0.00000000000E+00  0.00000000000E+00  0.64527323307E+03  0.64527323307E+03  0.25500000000E-02 0.  1.
          2   -1    0    0  501    0  0.00000000000E+00 -0.00000000000E+00 -0.17996386516E+04  0.17996386516E+04  0.25500000000E-02 0. -1.
    8880022    1    1    2    0    0 -0.37933556937E+03 -0.76575895725E+03  0.14704926445E+03  0.88050973531E+03  0.15294330000E+03 0.  0.
    8880022    1    1    2    0    0  0.37933556937E+03  0.76575895725E+03 -0.13014146829E+04  0.15644021493E+04  0.15294330000E+03 0. -1.
<mgrwt>
<rscale>  0 0.86814394E+03</rscale>
<asrwt>0</asrwt>
<pdfrwt beam="1">  1        2 0.27686748E+00 0.86814394E+03</pdfrwt>
<pdfrwt beam="2">  1       -2 0.99272806E-01 0.86814394E+03</pdfrwt>
<totfact> 0.73572261E+00</totfact>
</mgrwt>
</event>
<event>
 4    1  0.6912310E-008  0.1414229E+04  0.7818608E-02  0.8943583E-01
          2   -1    0    0  501    0  0.00000000000E+00  0.00000000000E+00  0.17774284241E+04  0.17774284241E+04  0.25500000000E-02 0. -1.
         -2   -1    0    0    0  501 -0.00000000000E+00 -0.00000000000E+00 -0.17368713515E+04  0.17368713515E+04  0.25500000000E-02 0.  1.
    8880022    1    1    2    0    0  0.12951168295E+04 -0.54710642480E+03  0.10629983556E+04  0.17691834837E+04  0.15294330000E+03 0.  0.
    8880022    1    1    2    0    0 -0.12951168295E+04  0.54710642480E+03 -0.10224412829E+04  0.17451162919E+04  0.15294330000E+03 0.  0.
<mgrwt>
<rscale>  0 0.14142294E+04</rscale>
<asrwt>0</asrwt>
<pdfrwt beam="1">  1        2 0.27345053E+00 0.14142294E+04</pdfrwt>
<pdfrwt beam="2">  1       -2 0.26721098E+00 0.14142294E+04</pdfrwt>
<totfact> 0.42415231E-01</totfact>
</mgrwt>
</event>
<event>
 4    1  0.6912310E-008  0.6125225E+03  0.7818608E-02  0.9879761E-01
         -2   -1    0    0    0  501 -0.00000000000E+00  0.00000000000E+00  0.30497950072E+03  0.30497950073E+03  0.25500000000E-02 0.  1.
          2   -1    0    0  501    0  0.00000000000E+00 -0.00000000000E+00 -0.20184803124E+04  0.20184803124E+04  0.25500000000E-02 0. -1.
    8880022    1    1    2    0    0  0.51133082962E+03 -0.30055438689E+03 -0.15827477498E+04  0.16971370744E+04  0.15294330000E+03 0.  0.
    8880022    1    1    2    0    0 -0.51133082962E+03  0.30055438689E+03 -0.13075306182E+03  0.62632273868E+03  0.15294330000E+03 0.  0.
<mgrwt>
<rscale>  0 0.61252250E+03</rscale>
<asrwt>0</asrwt>
<pdfrwt beam="1">  1        2 0.31053542E+00 0.61252250E+03</pdfrwt>
<pdfrwt beam="2">  1       -2 0.46919924E-01 0.61252250E+03</pdfrwt>
<totfact> 0.29610740E+01</totfact>
</mgrwt>
</event>
<event>
 4    1  0.6912310E-008  0.4635633E+03  0.7818608E-02  0.1023753E+00
          2   -1    0    0  501    0  0.00000000000E+00  0.00000000000E+00  0.22598182547E+04  0.22598182547E+04  0.25500000000E-02 0. -1.
         -2   -1    0    0    0  501 -0.00000000000E+00 -0.00000000000E+00 -0.12789662588E+03  0.12789662590E+03  0.25500000000E-02 0.  1.
    8880022    1    1    2    0    0 -0.38667235959E+03 -0.20489936818E+03  0.16705907567E+04  0.17337140463E+04  0.15294330000E+03 0. -1.
    8880022    1    1    2    0    0  0.38667235959E+03  0.20489936818E+03  0.46133087210E+03  0.65400083434E+03  0.15294330000E+03 0.  0.
<mgrwt>
<rscale>  0 0.46356328E+03</rscale>
<asrwt>0</asrwt>
<pdfrwt beam="1">  1        2 0.34766432E+00 0.46356328E+03</pdfrwt>
<pdfrwt beam="2">  1       -2 0.19676405E-01 0.46356328E+03</pdfrwt>
<totfact> 0.11263379E+02</totfact>
</mgrwt>
</event>
<event>
 4    1  0.6912310E-008  0.2298870E+03  0.7818608E-02  0.1126719E+00
         -2   -1    0    0    0  501 -0.00000000000E+00  0.00000000000E+00  0.18624800275E+03  0.18624800277E+03  0.25500000000E-02 0.  1.
          2   -1    0    0  501    0  0.00000000000E+00 -0.00000000000E+00 -0.19894070008E+04  0.19894070008E+04  0.25500000000E-02 0. -1.
    8880022    1    1    2    0    0 -0.42184448826E+01  0.17157671655E+03  0.10568601044E+03  0.25301689816E+03  0.15294330000E+03 0.  1.
    8880022    1    1    2    0    0  0.42184448826E+01 -0.17157671655E+03 -0.19088450085E+04  0.19226381054E+04  0.15294330000E+03 0.  0.
<mgrwt>
<rscale>  0 0.22988697E+03</rscale>
<asrwt>0</asrwt>
<pdfrwt beam="1">  1        2 0.30606260E+00 0.22988697E+03</pdfrwt>
<pdfrwt beam="2">  1       -2 0.28653540E-01 0.22988697E+03</pdfrwt>
<totfact> 0.85722924E+01</totfact>
</mgrwt>
</event>
<event>
 4    1  0.6912310E-008  0.7486792E+03  0.7818608E-02  0.9637425E-01
         -2   -1    0    0    0  501 -0.00000000000E+00  0.00000000000E+00  0.57796698484E+03  0.57796698484E+03  0.25500000000E-02 0.  1.
          2   -1    0    0  501    0  0.00000000000E+00 -0.00000000000E+00 -0.18462365700E+04  0.18462365700E+04  0.25500000000E-02 0. -1.
    8880022    1    1    2    0    0  0.39477088579E+03  0.61748269624E+03 -0.14692610565E+04  0.16490144443E+04  0.15294330000E+03 0.  0.
    8880022    1    1    2    0    0 -0.39477088579E+03 -0.61748269624E+03  0.20099147138E+03  0.77518911048E+03  0.15294330000E+03 0.  0.
<mgrwt>
<rscale>  0 0.74867923E+03</rscale>
<asrwt>0</asrwt>
<pdfrwt beam="1">  1        2 0.28403639E+00 0.74867923E+03</pdfrwt>
<pdfrwt beam="2">  1       -2 0.88917998E-01 0.74867923E+03</pdfrwt>
<totfact> 0.91224826E+00</totfact>
</mgrwt>
</event>
<event>
 4    1  0.6912310E-008  0.3603526E+03  0.7818608E-02  0.1058444E+00
          2   -1    0    0  501    0  0.00000000000E+00  0.00000000000E+00  0.68458020980E+03  0.68458020980E+03  0.25500000000E-02 0. -1.
         -2   -1    0    0    0  501 -0.00000000000E+00 -0.00000000000E+00 -0.90517085108E+03  0.90517085108E+03  0.25500000000E-02 0.  1.
    8880022    1    1    2    0    0 -0.27976077120E+03 -0.16791731309E+03 -0.81699460649E+03  0.89293569375E+03  0.15294330000E+03 0.  0.
    8880022    1    1    2    0    0  0.27976077120E+03  0.16791731309E+03  0.59640396521E+03  0.69681536713E+03  0.15294330000E+03 0.  0.
<mgrwt>
<rscale>  0 0.36035256E+03</rscale>
<asrwt>0</asrwt>
<pdfrwt beam="1">  1        2 0.10532003E+00 0.36035256E+03</pdfrwt>
<pdfrwt beam="2">  1       -2 0.13925705E+00 0.36035256E+03</pdfrwt>
<totfact> 0.16438827E+01</totfact>
</mgrwt>
</event>
<event>
 4    1  0.6912310E-008  0.8341862E+03  0.7818608E-02  0.9511811E-01
         -2   -1    0    0    0  501 -0.00000000000E+00  0.00000000000E+00  0.50561173923E+03  0.50561173924E+03  0.25500000000E-02 0.  1.
          2   -1    0    0  501    0  0.00000000000E+00 -0.00000000000E+00 -0.19794764014E+04  0.19794764014E+04  0.25500000000E-02 0. -1.
    8880022    1    1    2    0    0  0.62362880432E+03  0.53250546676E+03 -0.14228368561E+04  0.16493426963E+04  0.15294330000E+03 0.  0.
    8880022    1    1    2    0    0 -0.62362880432E+03 -0.53250546676E+03 -0.51027806036E+02  0.83574544432E+03  0.15294330000E+03 0.  0.
<mgrwt>
<rscale>  0 0.83418620E+03</rscale>
<asrwt>0</asrwt>
<pdfrwt beam="1">  1        2 0.30453483E+00 0.83418620E+03</pdfrwt>
<pdfrwt beam="2">  1       -2 0.77786423E-01 0.83418620E+03</pdfrwt>
<totfact> 0.10325475E+01</totfact>
</mgrwt>
</event>
<event>
 4    1  0.6912310E-008  0.1898681E+03  0.7818608E-02  0.1158580E+00
         -2   -1    0    0    0  501 -0.00000000000E+00  0.00000000000E+00  0.38142614687E+03  0.38142614687E+03  0.25500000000E-02 0.  1.
          2   -1    0    0  501    0  0.00000000000E+00 -0.00000000000E+00 -0.31960525672E+04  0.31960525672E+04  0.25500000000E-02 0. -1.
    8880022    1    1    2    0    0 -0.10196441715E+03 -0.47555254318E+02  0.35477943284E+03  0.40239078463E+03  0.15294330000E+03 0.  0.
    8880022    1    1    2    0    0  0.10196441715E+03  0.47555254318E+02 -0.31694058532E+04  0.31750879294E+04  0.15294330000E+03 0. -1.
<mgrwt>
<rscale>  0 0.18986811E+03</rscale>
<asrwt>0</asrwt>
<pdfrwt beam="1">  1        2 0.49170038E+00 0.18986811E+03</pdfrwt>
<pdfrwt beam="2">  1       -2 0.58680948E-01 0.18986811E+03</pdfrwt>
<totfact> 0.47373219E+00</totfact>
</mgrwt>
</event>
<event>
 4    1  0.6912310E-008  0.6496950E+03  0.7818608E-02  0.9807352E-01
         -2   -1    0    0    0  501 -0.00000000000E+00  0.00000000000E+00  0.67216834500E+03  0.67216834501E+03  0.25500000000E-02 0.  1.
          2   -1    0    0  501    0  0.00000000000E+00 -0.00000000000E+00 -0.10777044150E+04  0.10777044150E+04  0.25500000000E-02 0. -1.
    8880022    1    1    2    0    0  0.54043121345E+03 -0.32656702386E+03  0.36243340248E+03  0.74394995919E+03  0.15294330000E+03 0.  0.
    8880022    1    1    2    0    0 -0.54043121345E+03  0.32656702386E+03 -0.76796947247E+03  0.10059228008E+04  0.15294330000E+03 0.  0.
<mgrwt>
<rscale>  0 0.64969498E+03</rscale>
<asrwt>0</asrwt>
<pdfrwt beam="1">  1        2 0.16580068E+00 0.64969498E+03</pdfrwt>
<pdfrwt beam="2">  1       -2 0.10341051E+00 0.64969498E+03</pdfrwt>
<totfact> 0.17659684E+01</totfact>
</mgrwt>
</event>
<event>
 4    1  0.6912310E-008  0.5298460E+03  0.7818608E-02  0.1006269E+00
         -2   -1    0    0    0  501 -0.00000000000E+00  0.00000000000E+00  0.27523173469E+03  0.27523173470E+03  0.25500000000E-02 0.  1.
          2   -1    0    0  501    0  0.00000000000E+00 -0.00000000000E+00 -0.10363643591E+04  0.10363643591E+04  0.25500000000E-02 0. -1.
    8880022    1    1    2    0    0 -0.48980527821E+03 -0.13204522042E+03 -0.29816342288E+03  0.60797880766E+03  0.15294330000E+03 0.  0.
    8880022    1    1    2    0    0  0.48980527821E+03  0.13204522042E+03 -0.46296920155E+03  0.70361728617E+03  0.15294330000E+03 0. -1.
<mgrwt>
<rscale>  0 0.52984602E+03</rscale>
<asrwt>0</asrwt>
<pdfrwt beam="1">  1        2 0.15944067E+00 0.52984602E+03</pdfrwt>
<pdfrwt beam="2">  1       -2 0.42343344E-01 0.52984602E+03</pdfrwt>
<totfact> 0.13016074E+02</totfact>
</mgrwt>
</event>
<event>
 4    1  0.6912310E-008  0.1806421E+03  0.7818608E-02  0.1167183E+00
          2   -1    0    0  501    0  0.00000000000E+00  0.00000000000E+00  0.15705067706E+04  0.15705067706E+04  0.25500000000E-02 0. -1.
         -2   -1    0    0    0  501 -0.00000000000E+00 -0.00000000000E+00 -0.16660906377E+03  0.16660906379E+03  0.25500000000E-02 0.  1.
    8880022    1    1    2    0    0  0.96118378820E+02  0.10786644501E+01  0.15145452673E+04  0.15252799500E+04  0.15294330000E+03 0. -1.
    8880022    1    1    2    0    0 -0.96118378820E+02 -0.10786644501E+01 -0.11064756045E+03  0.21183588438E+03  0.15294330000E+03 0.  0.
<mgrwt>
<rscale>  0 0.18064208E+03</rscale>
<asrwt>0</asrwt>
<pdfrwt beam="1">  1        2 0.24161642E+00 0.18064208E+03</pdfrwt>
<pdfrwt beam="2">  1       -2 0.25632164E-01 0.18064208E+03</pdfrwt>
<totfact> 0.17585403E+02</totfact>
</mgrwt>
</event>
<event>
 4    1  0.6912310E-008  0.4276605E+03  0.7818608E-02  0.1034602E+00
         -2   -1    0    0    0  501 -0.00000000000E+00  0.00000000000E+00  0.28477324604E+03  0.28477324605E+03  0.25500000000E-02 0.  1.
          2   -1    0    0  501    0  0.00000000000E+00 -0.00000000000E+00 -0.12781234433E+04  0.12781234433E+04  0.25500000000E-02 0. -1.
    8880022    1    1    2    0    0 -0.38437759754E+03  0.10842387210E+03 -0.10478656016E+04  0.11317755279E+04  0.15294330000E+03 0.  0.
    8880022    1    1    2    0    0  0.38437759754E+03 -0.10842387210E+03  0.54515404327E+02  0.43112116145E+03  0.15294330000E+03 0.  1.
<mgrwt>
<rscale>  0 0.42766053E+03</rscale>
<asrwt>0</asrwt>
<pdfrwt beam="1">  1        2 0.19663437E+00 0.42766053E+03</pdfrwt>
<pdfrwt beam="2">  1       -2 0.43811269E-01 0.42766053E+03</pdfrwt>
<totfact> 0.88677972E+01</totfact>
</mgrwt>
</event>
<event>
 4    1  0.6912310E-008  0.4970668E+03  0.7818608E-02  0.1014547E+00
         -2   -1    0    0    0  501 -0.00000000000E+00  0.00000000000E+00  0.50599120645E+03  0.50599120645E+03  0.25500000000E-02 0.  1.
          2   -1    0    0  501    0  0.00000000000E+00 -0.00000000000E+00 -0.73910803341E+03  0.73910803341E+03  0.25500000000E-02 0. -1.
    8880022    1    1    2    0    0  0.81321426866E+02  0.46590834602E+03 -0.47921109193E+03  0.69044817692E+03  0.15294330000E+03 0.  0.
    8880022    1    1    2    0    0 -0.81321426866E+02 -0.46590834602E+03  0.24609426497E+03  0.55465106295E+03  0.15294330000E+03 0.  1.
<mgrwt>
<rscale>  0 0.49706681E+03</rscale>
<asrwt>0</asrwt>
<pdfrwt beam="1">  1        2 0.11370893E+00 0.49706681E+03</pdfrwt>
<pdfrwt beam="2">  1       -2 0.77844801E-01 0.49706681E+03</pdfrwt>
<totfact> 0.58211476E+01</totfact>
</mgrwt>
</event>
<event>
 4    1  0.6912310E-008  0.7647160E+03  0.7818608E-02  0.9612542E-01
          2   -1    0    0  501    0  0.00000000000E+00  0.00000000000E+00  0.16303245011E+04  0.16303245011E+04  0.25500000000E-02 0. -1.
         -2   -1    0    0    0  501 -0.00000000000E+00 -0.00000000000E+00 -0.98886142268E+03  0.98886142268E+03  0.25500000000E-02 0.  1.
    8880022    1    1    2    0    0 -0.31828589674E+03 -0.67830156857E+03 -0.72470087646E+03  0.10535568059E+04  0.15294330000E+03 0.  1.
    8880022    1    1    2    0    0  0.31828589674E+03  0.67830156857E+03  0.13661639548E+04  0.15656291178E+04  0.15294330000E+03 0.  0.
<mgrwt>
<rscale>  0 0.76471601E+03</rscale>
<asrwt>0</asrwt>
<pdfrwt beam="1">  1        2 0.25081915E+00 0.76471601E+03</pdfrwt>
<pdfrwt beam="2">  1       -2 0.15213253E+00 0.76471601E+03</pdfrwt>
<totfact> 0.31783850E+00</totfact>
</mgrwt>
</event>
<event>
 4    1  0.6912310E-008  0.2034347E+03  0.7818608E-02  0.1146873E+00
         -2   -1    0    0    0  501 -0.00000000000E+00  0.00000000000E+00  0.45092508762E+03  0.45092508763E+03  0.25500000000E-02 0.  1.
          2   -1    0    0  501    0  0.00000000000E+00 -0.00000000000E+00 -0.11772967635E+04  0.11772967635E+04  0.25500000000E-02 0. -1.
    8880022    1    1    2    0    0  0.12350884829E+03 -0.52341271880E+02 -0.11449197770E+04  0.11628529542E+04  0.15294330000E+03 0. -1.
    8880022    1    1    2    0    0 -0.12350884829E+03  0.52341271880E+02  0.41854810107E+03  0.46536889697E+03  0.15294330000E+03 0.  1.
<mgrwt>
<rscale>  0 0.20343475E+03</rscale>
<asrwt>0</asrwt>
<pdfrwt beam="1">  1        2 0.18112258E+00 0.20343475E+03</pdfrwt>
<pdfrwt beam="2">  1       -2 0.69373091E-01 0.20343475E+03</pdfrwt>
<totfact> 0.41566685E+01</totfact>
</mgrwt>
</event>
<event>
 4    1  0.6912310E-008  0.3117058E+03  0.7818608E-02  0.1079531E+00
          2   -1    0    0  501    0  0.00000000000E+00  0.00000000000E+00  0.10275301988E+04  0.10275301988E+04  0.25500000000E-02 0. -1.
         -2   -1    0    0    0  501 -0.00000000000E+00 -0.00000000000E+00 -0.28939123359E+03  0.28939123360E+03  0.25500000000E-02 0.  1.
    8880022    1    1    2    0    0 -0.23351138940E+03 -0.13871301321E+03  0.90935016492E+03  0.96128988576E+03  0.15294330000E+03 0. -1.
    8880022    1    1    2    0    0  0.23351138940E+03  0.13871301321E+03 -0.17121119974E+03  0.35563154661E+03  0.15294330000E+03 0.  0.
<mgrwt>
<rscale>  0 0.31170583E+03</rscale>
<asrwt>0</asrwt>
<pdfrwt beam="1">  1        2 0.15808157E+00 0.31170583E+03</pdfrwt>
<pdfrwt beam="2">  1       -2 0.44521728E-01 0.31170583E+03</pdfrwt>
<totfact> 0.12276517E+02</totfact>
</mgrwt>
</event>
<event>
 4    1  0.6912310E-008  0.2685305E+03  0.7818608E-02  0.1102124E+00
          2   -1    0    0  501    0  0.00000000000E+00  0.00000000000E+00  0.93718192641E+03  0.93718192641E+03  0.25500000000E-02 0. -1.
         -2   -1    0    0    0  501 -0.00000000000E+00 -0.00000000000E+00 -0.27466771885E+03  0.27466771886E+03  0.25500000000E-02 0.  1.
    8880022    1    1    2    0    0 -0.21869659049E+03 -0.29812789575E+02 -0.18284160477E+03  0.32486875283E+03  0.15294330000E+03 0.  1.
    8880022    1    1    2    0    0  0.21869659049E+03  0.29812789575E+02  0.84535581232E+03  0.88698089244E+03  0.15294330000E+03 0.  0.
<mgrwt>
<rscale>  0 0.26853055E+03</rscale>
<asrwt>0</asrwt>
<pdfrwt beam="1">  1        2 0.14418183E+00 0.26853055E+03</pdfrwt>
<pdfrwt beam="2">  1       -2 0.42256572E-01 0.26853055E+03</pdfrwt>
<totfact> 0.15580541E+02</totfact>
</mgrwt>
</event>
<event>
 4    1  0.6912310E-008  0.9952076E+03  0.7818608E-02  0.9313817E-01
         -2   -1    0    0    0  501 -0.00000000000E+00  0.00000000000E+00  0.10075196531E+04  0.10075196531E+04  0.25500000000E-02 0.  1.
          2   -1    0    0  501    0  0.00000000000E+00 -0.00000000000E+00 -0.19593129717E+04  0.19593129717E+04  0.25500000000E-02 0. -1.
    8880022    1    1    2    0    0  0.96107152951E+03  0.20829790063E+03 -0.15230142237E+04  0.18193434197E+04  0.15294330000E+03 0.  0.
    8880022    1    1    2    0    0 -0.96107152951E+03 -0.20829790063E+03  0.57122090519E+03  0.11474892051E+04  0.15294330000E+03 0.  0.
<mgrwt>
<rscale>  0 0.99520759E+03</rscale>
<asrwt>0</asrwt>
<pdfrwt beam="1">  1        2 0.30143276E+00 0.99520759E+03</pdfrwt>
<pdfrwt beam="2">  1       -2 0.15500302E+00 0.99520759E+03</pdfrwt>
<totfact> 0.19278446E+00</totfact>
</mgrwt>
</event>
<event>
 4    1  0.6912310E-008  0.7363723E+03  0.7818608E-02  0.9656976E-01
          2   -1    0    0  501    0  0.00000000000E+00  0.00000000000E+00  0.24199041603E+04  0.24199041603E+04  0.25500000000E-02 0. -1.
         -2   -1    0    0    0  501 -0.00000000000E+00 -0.00000000000E+00 -0.63623287249E+03  0.63623287249E+03  0.25500000000E-02 0.  1.
    8880022    1    1    2    0    0  0.19226089161E+03 -0.69418167746E+03 -0.33805270463E+03  0.81026152314E+03  0.15294330000E+03 0.  0.
    8880022    1    1    2    0    0 -0.19226089161E+03  0.69418167746E+03  0.21217239925E+04  0.22458755097E+04  0.15294330000E+03 0.  0.
<mgrwt>
<rscale>  0 0.73637226E+03</rscale>
<asrwt>0</asrwt>
<pdfrwt beam="1">  1        2 0.37229295E+00 0.73637226E+03</pdfrwt>
<pdfrwt beam="2">  1       -2 0.97881981E-01 0.73637226E+03</pdfrwt>
<totfact> 0.35341036E+00</totfact>
</mgrwt>
</event>
<event>
 4    1  0.6912310E-008  0.2545452E+03  0.7818608E-02  0.1110466E+00
          2   -1    0    0  501    0  0.00000000000E+00  0.00000000000E+00  0.13949240865E+04  0.13949240865E+04  0.25500000000E-02 0. -1.
         -2   -1    0    0    0  501 -0.00000000000E+00 -0.00000000000E+00 -0.68873737524E+02  0.68873737571E+02  0.25500000000E-02 0.  1.
    8880022    1    1    2    0    0 -0.20000928052E+03  0.37388473107E+02  0.10806486903E+04  0.11102228853E+04  0.15294330000E+03 0.  0.
    8880022    1    1    2    0    0  0.20000928052E+03 -0.37388473107E+02  0.24540165864E+03  0.35357493872E+03  0.15294330000E+03 0.  0.
<mgrwt>
<rscale>  0 0.25454521E+03</rscale>
<asrwt>0</asrwt>
<pdfrwt beam="1">  1        2 0.21460369E+00 0.25454521E+03</pdfrwt>
<pdfrwt beam="2">  1       -2 0.10595960E-01 0.25454521E+03</pdfrwt>
<totfact> 0.94364640E+02</totfact>
</mgrwt>
</event>
<event>
 4    1  0.6912310E-008  0.9024226E+03  0.7818608E-02  0.9422558E-01
          2   -1    0    0  501    0  0.00000000000E+00  0.00000000000E+00  0.36299285006E+04  0.36299285006E+04  0.25500000000E-02 0. -1.
         -2   -1    0    0    0  501 -0.00000000000E+00 -0.00000000000E+00 -0.39758079740E+03  0.39758079741E+03  0.25500000000E-02 0.  1.
    8880022    1    1    2    0    0 -0.48363145886E+03 -0.74637492455E+03  0.29454313925E+04  0.30805734299E+04  0.15294330000E+03 0.  0.
    8880022    1    1    2    0    0  0.48363145886E+03  0.74637492455E+03  0.28691631072E+03  0.94693586814E+03  0.15294330000E+03 0.  0.
<mgrwt>
<rscale>  0 0.90242261E+03</rscale>
<asrwt>0</asrwt>
<pdfrwt beam="1">  1        2 0.55845056E+00 0.90242261E+03</pdfrwt>
<pdfrwt beam="2">  1       -2 0.61166274E-01 0.90242261E+03</pdfrwt>
<totfact> 0.17298313E+00</totfact>
</mgrwt>
</event>
<event>
 4    1  0.6912310E-008  0.2827831E+03  0.7818608E-02  0.1094178E+00
         -2   -1    0    0    0  501 -0.00000000000E+00  0.00000000000E+00  0.11372224238E+04  0.11372224238E+04  0.25500000000E-02 0.  1.
          2   -1    0    0  501    0  0.00000000000E+00 -0.00000000000E+00 -0.15296086065E+04  0.15296086065E+04  0.25500000000E-02 0. -1.
    8880022    1    1    2    0    0 -0.19737026202E+03 -0.13273894479E+03  0.11062128143E+04  0.11417850460E+04  0.15294330000E+03 0.  1.
    8880022    1    1    2    0    0  0.19737026202E+03  0.13273894479E+03 -0.14985989969E+04  0.15250459843E+04  0.15294330000E+03 0.  0.
<mgrwt>
<rscale>  0 0.28278313E+03</rscale>
<asrwt>0</asrwt>
<pdfrwt beam="1">  1        2 0.23532440E+00 0.28278313E+03</pdfrwt>
<pdfrwt beam="2">  1       -2 0.17495730E+00 0.28278313E+03</pdfrwt>
<totfact> 0.28068062E+00</totfact>
</mgrwt>
</event>
<event>
 4    1  0.6912310E-008  0.3489209E+03  0.7818608E-02  0.1063059E+00
          2   -1    0    0  501    0  0.00000000000E+00  0.00000000000E+00  0.16243037265E+04  0.16243037265E+04  0.25500000000E-02 0. -1.
         -2   -1    0    0    0  501 -0.00000000000E+00 -0.00000000000E+00 -0.54706486933E+03  0.54706486934E+03  0.25500000000E-02 0.  1.
    8880022    1    1    2    0    0  0.16257160844E+03  0.26818770756E+03  0.15471911232E+04  0.15860473509E+04  0.15294330000E+03 0. -1.
    8880022    1    1    2    0    0 -0.16257160844E+03 -0.26818770756E+03 -0.46995226610E+03  0.58532124494E+03  0.15294330000E+03 0.  0.
<mgrwt>
<rscale>  0 0.34892095E+03</rscale>
<asrwt>0</asrwt>
<pdfrwt beam="1">  1        2 0.24989288E+00 0.34892095E+03</pdfrwt>
<pdfrwt beam="2">  1       -2 0.84163826E-01 0.34892095E+03</pdfrwt>
<totfact> 0.14782770E+01</totfact>
</mgrwt>
</event>
<event>
 4    1  0.6912310E-008  0.3955920E+03  0.7818608E-02  0.1045317E+00
          2   -1    0    0  501    0  0.00000000000E+00  0.00000000000E+00  0.18601247820E+04  0.18601247820E+04  0.25500000000E-02 0. -1.
         -2   -1    0    0    0  501 -0.00000000000E+00 -0.00000000000E+00 -0.31652946979E+03  0.31652946981E+03  0.25500000000E-02 0.  1.
    8880022    1    1    2    0    0  0.33103059051E+03  0.15336277602E+03 -0.16074685328E+03  0.42700421166E+03  0.15294330000E+03 0.  1.
    8880022    1    1    2    0    0 -0.33103059051E+03 -0.15336277602E+03  0.17043421655E+04  0.17496500402E+04  0.15294330000E+03 0.  0.
<mgrwt>
<rscale>  0 0.39559202E+03</rscale>
<asrwt>0</asrwt>
<pdfrwt beam="1">  1        2 0.28617303E+00 0.39559202E+03</pdfrwt>
<pdfrwt beam="2">  1       -2 0.48696844E-01 0.39559202E+03</pdfrwt>
<totfact> 0.34888898E+01</totfact>
</mgrwt>
</event>
<event>
 4    1  0.6912310E-008  0.4290998E+03  0.7818608E-02  0.1034145E+00
         -2   -1    0    0    0  501 -0.00000000000E+00  0.00000000000E+00  0.17274729768E+03  0.17274729769E+03  0.25500000000E-02 0.  1.
          2   -1    0    0  501    0  0.00000000000E+00 -0.00000000000E+00 -0.12011725092E+04  0.12011725093E+04  0.25500000000E-02 0. -1.
    8880022    1    1    2    0    0 -0.39529771129E+03  0.66893063632E+02 -0.28365608466E+03  0.51438058857E+03  0.15294330000E+03 0.  0.
    8880022    1    1    2    0    0  0.39529771129E+03 -0.66893063632E+02 -0.74476912691E+03  0.85953921838E+03  0.15294330000E+03 0.  0.
<mgrwt>
<rscale>  0 0.42909977E+03</rscale>
<asrwt>0</asrwt>
<pdfrwt beam="1">  1        2 0.18479577E+00 0.42909977E+03</pdfrwt>
<pdfrwt beam="2">  1       -2 0.26576508E-01 0.42909977E+03</pdfrwt>
<totfact> 0.25129903E+02</totfact>
</mgrwt>
</event>
<event>
 4    1  0.6912310E-008  0.6141400E+03  0.7818608E-02  0.9876497E-01
         -2   -1    0    0    0  501 -0.00000000000E+00  0.00000000000E+00  0.55922971157E+03  0.55922971158E+03  0.25500000000E-02 0.  1.
          2   -1    0    0  501    0  0.00000000000E+00 -0.00000000000E+00 -0.15859954660E+04  0.15859954660E+04  0.25500000000E-02 0. -1.
    8880022    1    1    2    0    0  0.59313005576E+03  0.44418927309E+02  0.29979024010E+03  0.68340481797E+03  0.15294330000E+03 0.  0.
    8880022    1    1    2    0    0 -0.59313005576E+03 -0.44418927309E+02 -0.13265559945E+04  0.14618203596E+04  0.15294330000E+03 0.  0.
<mgrwt>
<rscale>  0 0.61414001E+03</rscale>
<asrwt>0</asrwt>
<pdfrwt beam="1">  1        2 0.24399930E+00 0.61414001E+03</pdfrwt>
<pdfrwt beam="2">  1       -2 0.86035341E-01 0.61414001E+03</pdfrwt>
<totfact> 0.13930058E+01</totfact>
</mgrwt>
</event>
<event>
 4    1  0.6912310E-008  0.8592572E+03  0.7818608E-02  0.9477996E-01
          2   -1    0    0  501    0  0.00000000000E+00  0.00000000000E+00  0.94483428828E+03  0.94483428829E+03  0.25500000000E-02 0. -1.
         -2   -1    0    0    0  501 -0.00000000000E+00 -0.00000000000E+00 -0.96494856034E+03  0.96494856034E+03  0.25500000000E-02 0.  1.
    8880022    1    1    2    0    0  0.49627185189E+03  0.68457689306E+03 -0.42648575661E+03  0.95927734629E+03  0.15294330000E+03 0.  0.
    8880022    1    1    2    0    0 -0.49627185189E+03 -0.68457689306E+03  0.40637148455E+03  0.95050550234E+03  0.15294330000E+03 0.  0.
<mgrwt>
<rscale>  0 0.85925719E+03</rscale>
<asrwt>0</asrwt>
<pdfrwt beam="1">  1        2 0.14535912E+00 0.85925719E+03</pdfrwt>
<pdfrwt beam="2">  1       -2 0.14845363E+00 0.85925719E+03</pdfrwt>
<totfact> 0.84702922E+00</totfact>
</mgrwt>
</event>
<event>
 4    1  0.6912310E-008  0.8526896E+03  0.7818608E-02  0.9486734E-01
         -2   -1    0    0    0  501 -0.00000000000E+00  0.00000000000E+00  0.21539051220E+04  0.21539051220E+04  0.25500000000E-02 0.  1.
          2   -1    0    0  501    0  0.00000000000E+00 -0.00000000000E+00 -0.43254429074E+03  0.43254429075E+03  0.25500000000E-02 0. -1.
    8880022    1    1    2    0    0 -0.18952884897E+03 -0.81716998344E+03  0.25467468400E+03  0.88990944152E+03  0.15294330000E+03 0.  0.
    8880022    1    1    2    0    0  0.18952884897E+03  0.81716998344E+03  0.14666861472E+04  0.16965399712E+04  0.15294330000E+03 0.  0.
<mgrwt>
<rscale>  0 0.85268964E+03</rscale>
<asrwt>0</asrwt>
<pdfrwt beam="1">  1        2 0.66545275E-01 0.85268964E+03</pdfrwt>
<pdfrwt beam="2">  1       -2 0.33137002E+00 0.85268964E+03</pdfrwt>
<totfact> 0.15293583E+00</totfact>
</mgrwt>
</event>
<event>
 4    1  0.6912310E-008  0.1922773E+03  0.7818608E-02  0.1156423E+00
          2   -1    0    0  501    0  0.00000000000E+00  0.00000000000E+00  0.21130144625E+04  0.21130144625E+04  0.25500000000E-02 0. -1.
         -2   -1    0    0    0  501 -0.00000000000E+00 -0.00000000000E+00 -0.65713058919E+02  0.65713058968E+02  0.25500000000E-02 0.  1.
    8880022    1    1    2    0    0 -0.89495003003E+01  0.11618434968E+03  0.19567863452E+04  0.19662104034E+04  0.15294330000E+03 0. -1.
    8880022    1    1    2    0    0  0.89495003003E+01 -0.11618434968E+03  0.90515058395E+02  0.21251711808E+03  0.15294330000E+03 0.  0.
<mgrwt>
<rscale>  0 0.19227727E+03</rscale>
<asrwt>0</asrwt>
<pdfrwt beam="1">  1        2 0.32507916E+00 0.19227727E+03</pdfrwt>
<pdfrwt beam="2">  1       -2 0.10109701E-01 0.19227727E+03</pdfrwt>
<totfact> 0.43085072E+02</totfact>
</mgrwt>
</event>
<event>
 4    1  0.6912310E-008  0.3548645E+03  0.7818608E-02  0.1060636E+00
         -2   -1    0    0    0  501 -0.00000000000E+00  0.00000000000E+00  0.15813417289E+03  0.15813417291E+03  0.25500000000E-02 0.  1.
          2   -1    0    0  501    0  0.00000000000E+00 -0.00000000000E+00 -0.19293810188E+04  0.19293810188E+04  0.25500000000E-02 0. -1.
    8880022    1    1    2    0    0 -0.13955966309E+03  0.28820177557E+03 -0.16854819206E+04  0.17224337783E+04  0.15294330000E+03 0.  0.
    8880022    1    1    2    0    0  0.13955966309E+03 -0.28820177557E+03 -0.85764925349E+02  0.36508141344E+03  0.15294330000E+03 0.  1.
<mgrwt>
<rscale>  0 0.35486450E+03</rscale>
<asrwt>0</asrwt>
<pdfrwt beam="1">  1        2 0.29682783E+00 0.35486450E+03</pdfrwt>
<pdfrwt beam="2">  1       -2 0.24328336E-01 0.35486450E+03</pdfrwt>
<totfact> 0.11935074E+02</totfact>
</mgrwt>
</event>
<event>
 4    1  0.6912310E-008  0.5261550E+03  0.7818608E-02  0.1007169E+00
          2   -1    0    0  501    0  0.00000000000E+00  0.00000000000E+00  0.84248288011E+03  0.84248288011E+03  0.25500000000E-02 0. -1.
         -2   -1    0    0    0  501 -0.00000000000E+00 -0.00000000000E+00 -0.41225428535E+03  0.41225428536E+03  0.25500000000E-02 0.  1.
    8880022    1    1    2    0    0 -0.41399338192E+03  0.28645578219E+03  0.49772375745E+03  0.72427068639E+03  0.15294330000E+03 0.  0.
    8880022    1    1    2    0    0  0.41399338192E+03 -0.28645578219E+03 -0.67495162693E+02  0.53046647907E+03  0.15294330000E+03 0.  0.
<mgrwt>
<rscale>  0 0.52615500E+03</rscale>
<asrwt>0</asrwt>
<pdfrwt beam="1">  1        2 0.12961275E+00 0.52615500E+03</pdfrwt>
<pdfrwt beam="2">  1       -2 0.63423737E-01 0.52615500E+03</pdfrwt>
<totfact> 0.76378663E+01</totfact>
</mgrwt>
</event>
<event>
 4    1  0.6912310E-008  0.4415417E+03  0.7818608E-02  0.1030275E+00
         -2   -1    0    0    0  501 -0.00000000000E+00  0.00000000000E+00  0.25488648842E+03  0.25488648844E+03  0.25500000000E-02 0.  1.
          2   -1    0    0  501    0  0.00000000000E+00 -0.00000000000E+00 -0.10144994885E+04  0.10144994885E+04  0.25500000000E-02 0. -1.
    8880022    1    1    2    0    0  0.39281268268E+03  0.13139870208E+03 -0.69463345951E+03  0.82308852420E+03  0.15294330000E+03 0.  0.
    8880022    1    1    2    0    0 -0.39281268268E+03 -0.13139870208E+03 -0.64979540528E+02  0.44629745270E+03  0.15294330000E+03 0.  0.
<mgrwt>
<rscale>  0 0.44154170E+03</rscale>
<asrwt>0</asrwt>
<pdfrwt beam="1">  1        2 0.15607684E+00 0.44154170E+03</pdfrwt>
<pdfrwt beam="2">  1       -2 0.39213306E-01 0.44154170E+03</pdfrwt>
<totfact> 0.15732942E+02</totfact>
</mgrwt>
</event>
<event>
 4    1  0.6912310E-008  0.1108054E+04  0.7818608E-02  0.9197377E-01
         -2   -1    0    0    0  501 -0.00000000000E+00  0.00000000000E+00  0.44699000861E+03  0.44699000862E+03  0.25500000000E-02 0.  1.
          2   -1    0    0  501    0  0.00000000000E+00 -0.00000000000E+00 -0.28055142434E+04  0.28055142434E+04  0.25500000000E-02 0. -1.
    8880022    1    1    2    0    0 -0.17022086935E+03 -0.10841668869E+04 -0.14145586787E+04  0.17968753133E+04  0.15294330000E+03 0.  0.
    8880022    1    1    2    0    0  0.17022086935E+03  0.10841668869E+04 -0.94396555606E+03  0.14556289387E+04  0.15294330000E+03 0.  0.
<mgrwt>
<rscale>  0 0.11080544E+04</rscale>
<asrwt>0</asrwt>
<pdfrwt beam="1">  1        2 0.43161757E+00 0.11080544E+04</pdfrwt>
<pdfrwt beam="2">  1       -2 0.68767695E-01 0.11080544E+04</pdfrwt>
<totfact> 0.44480816E+00</totfact>
</mgrwt>
</event>
<event>
 4    1  0.6912310E-008  0.2629727E+03  0.7818608E-02  0.1105370E+00
          2   -1    0    0  501    0  0.00000000000E+00  0.00000000000E+00  0.18317335194E+04  0.18317335194E+04  0.25500000000E-02 0. -1.
         -2   -1    0    0    0  501 -0.00000000000E+00 -0.00000000000E+00 -0.28846175364E+03  0.28846175365E+03  0.25500000000E-02 0.  1.
    8880022    1    1    2    0    0 -0.18237558835E+03 -0.11181290004E+03  0.17599293609E+04  0.17794678947E+04  0.15294330000E+03 0. -1.
    8880022    1    1    2    0    0  0.18237558835E+03  0.11181290004E+03 -0.21665759512E+03  0.34072737838E+03  0.15294330000E+03 0.  0.
<mgrwt>
<rscale>  0 0.26297268E+03</rscale>
<asrwt>0</asrwt>
<pdfrwt beam="1">  1        2 0.28180515E+00 0.26297268E+03</pdfrwt>
<pdfrwt beam="2">  1       -2 0.44378732E-01 0.26297268E+03</pdfrwt>
<totfact> 0.45092021E+01</totfact>
</mgrwt>
</event>
<event>
 4    1  0.6912310E-008  0.2969618E+03  0.7818608E-02  0.1086769E+00
          2   -1    0    0  501    0  0.00000000000E+00  0.00000000000E+00  0.89228298196E+03  0.89228298196E+03  0.25500000000E-02 0. -1.
         -2   -1    0    0    0  501 -0.00000000000E+00 -0.00000000000E+00 -0.10543377870E+03  0.10543377873E+03  0.25500000000E-02 0.  1.
    8880022    1    1    2    0    0  0.63091145074E+02  0.24660530781E+03  0.26859716235E+03  0.40041323538E+03  0.15294330000E+03 0.  0.
    8880022    1    1    2    0    0 -0.63091145074E+02 -0.24660530781E+03  0.51825204091E+03  0.59730352531E+03  0.15294330000E+03 0.  0.
<mgrwt>
<rscale>  0 0.29696182E+03</rscale>
<asrwt>0</asrwt>
<pdfrwt beam="1">  1        2 0.13727431E+00 0.29696182E+03</pdfrwt>
<pdfrwt beam="2">  1       -2 0.16220581E-01 0.29696182E+03</pdfrwt>
<totfact> 0.92431226E+02</totfact>
</mgrwt>
</event>
<event>
 4    1  0.9160363E-008  0.7923146E+03  0.7818608E-02  0.9571209E-01
          2   -1    0    0  501    0  0.00000000000E+00  0.00000000000E+00  0.18135520471E+04  0.18135520471E+04  0.25500000000E-02 0. -1.
         -2   -1    0    0    0  501 -0.00000000000E+00 -0.00000000000E+00 -0.11765540530E+04  0.11765540530E+04  0.25500000000E-02 0.  1.
    8880022    1    1    2    0    0  0.63650280964E+03  0.44635739232E+03 -0.93751707060E+03  0.12274773558E+04  0.15294330000E+03 0.  0.
    8880022    1    1    2    0    0 -0.63650280964E+03 -0.44635739232E+03  0.15745150646E+04  0.17626287443E+04  0.15294330000E+03 0.  0.
<mgrwt>
<rscale>  0 0.79231458E+03</rscale>
<asrwt>0</asrwt>
<pdfrwt beam="1">  1        2 0.27900801E+00 0.79231458E+03</pdfrwt>
<pdfrwt beam="2">  1       -2 0.18100832E+00 0.79231458E+03</pdfrwt>
<totfact> 0.15564646E+00</totfact>
</mgrwt>
</event>
<event>
 4    1  0.6912310E-008  0.1038733E+04  0.7818608E-02  0.9267054E-01
         -2   -1    0    0    0  501 -0.00000000000E+00  0.00000000000E+00  0.53531986437E+03  0.53531986437E+03  0.25500000000E-02 0.  1.
          2   -1    0    0  501    0  0.00000000000E+00 -0.00000000000E+00 -0.34043646422E+04  0.34043646422E+04  0.25500000000E-02 0. -1.
    8880022    1    1    2    0    0 -0.38460495396E+03  0.95270890710E+03 -0.17636578946E+03  0.10535994386E+04  0.15294330000E+03 0.  0.
    8880022    1    1    2    0    0  0.38460495396E+03 -0.95270890710E+03 -0.26926789884E+04  0.28860850680E+04  0.15294330000E+03 0.  0.
<mgrwt>
<rscale>  0 0.10387333E+04</rscale>
<asrwt>0</asrwt>
<pdfrwt beam="1">  1        2 0.52374839E+00 0.10387333E+04</pdfrwt>
<pdfrwt beam="2">  1       -2 0.82356904E-01 0.10387333E+04</pdfrwt>
<totfact> 0.12569232E+00</totfact>
</mgrwt>
</event>
<event>
 4    1  0.6912310E-008  0.1313214E+04  0.7818608E-02  0.9019152E-01
         -2   -1    0    0    0  501 -0.00000000000E+00  0.00000000000E+00  0.11727620819E+04  0.11727620819E+04  0.25500000000E-02 0.  1.
          2   -1    0    0  501    0  0.00000000000E+00 -0.00000000000E+00 -0.20554097825E+04  0.20554097825E+04  0.25500000000E-02 0. -1.
    8880022    1    1    2    0    0 -0.69872960506E+03  0.11013246744E+04  0.41972326281E+03  0.13786581773E+04  0.15294330000E+03 0.  0.
    8880022    1    1    2    0    0  0.69872960506E+03 -0.11013246744E+04 -0.13023709634E+04  0.18495136871E+04  0.15294330000E+03 0.  0.
<mgrwt>
<rscale>  0 0.13132139E+04</rscale>
<asrwt>0</asrwt>
<pdfrwt beam="1">  1        2 0.31621689E+00 0.13132139E+04</pdfrwt>
<pdfrwt beam="2">  1       -2 0.18042494E+00 0.13132139E+04</pdfrwt>
<totfact> 0.10751135E+00</totfact>
</mgrwt>
</event>
<event>
 4    1  0.6912310E-008  0.3163031E+03  0.7818608E-02  0.1077363E+00
          2   -1    0    0  501    0  0.00000000000E+00  0.00000000000E+00  0.29842662685E+04  0.29842662685E+04  0.25500000000E-02 0. -1.
         -2   -1    0    0    0  501 -0.00000000000E+00 -0.00000000000E+00 -0.12082570017E+03  0.12082570020E+03  0.25500000000E-02 0.  1.
    8880022    1    1    2    0    0  0.25617415005E+03 -0.10502769826E+03  0.11202531942E+03  0.33555526782E+03  0.15294330000E+03 0.  1.
    8880022    1    1    2    0    0 -0.25617415005E+03  0.10502769826E+03  0.27514152489E+04  0.27695367009E+04  0.15294330000E+03 0.  0.
<mgrwt>
<rscale>  0 0.31630312E+03</rscale>
<asrwt>0</asrwt>
<pdfrwt beam="1">  1        2 0.45911786E+00 0.31630312E+03</pdfrwt>
<pdfrwt beam="2">  1       -2 0.18588570E-01 0.31630312E+03</pdfrwt>
<totfact> 0.50195856E+01</totfact>
</mgrwt>
</event>
<event>
 4    1  0.6912310E-008  0.1346620E+04  0.7818608E-02  0.8993391E-01
          2   -1    0    0  501    0  0.00000000000E+00  0.00000000000E+00  0.36319575050E+04  0.36319575050E+04  0.25500000000E-02 0. -1.
         -2   -1    0    0    0  501 -0.00000000000E+00 -0.00000000000E+00 -0.54695914571E+03  0.54695914572E+03  0.25500000000E-02 0.  1.
    8880022    1    1    2    0    0 -0.13053558659E+04 -0.29332387016E+03  0.21593703785E+04  0.25448506663E+04  0.15294330000E+03 0.  0.
    8880022    1    1    2    0    0  0.13053558659E+04  0.29332387016E+03  0.92562798081E+03  0.16340659844E+04  0.15294330000E+03 0.  0.
<mgrwt>
<rscale>  0 0.13466197E+04</rscale>
<asrwt>0</asrwt>
<pdfrwt beam="1">  1        2 0.55876268E+00 0.13466197E+04</pdfrwt>
<pdfrwt beam="2">  1       -2 0.84147562E-01 0.13466197E+04</pdfrwt>
<totfact> 0.79562966E-01</totfact>
</mgrwt>
</event>
<event>
 4    1  0.6912310E-008  0.9763833E+03  0.7818608E-02  0.9334833E-01
         -2   -1    0    0    0  501 -0.00000000000E+00  0.00000000000E+00  0.48608562855E+03  0.48608562855E+03  0.25500000000E-02 0.  1.
          2   -1    0    0  501    0  0.00000000000E+00 -0.00000000000E+00 -0.27029233786E+04  0.27029233786E+04  0.25500000000E-02 0. -1.
    8880022    1    1    2    0    0  0.78325403589E+03 -0.56253522187E+03 -0.19436792312E+04  0.21751352527E+04  0.15294330000E+03 0.  0.
    8880022    1    1    2    0    0 -0.78325403589E+03  0.56253522187E+03 -0.27315851885E+03  0.10138737545E+04  0.15294330000E+03 0.  0.
<mgrwt>
<rscale>  0 0.97638333E+03</rscale>
<asrwt>0</asrwt>
<pdfrwt beam="1">  1        2 0.41583436E+00 0.97638333E+03</pdfrwt>
<pdfrwt beam="2">  1       -2 0.74782406E-01 0.97638333E+03</pdfrwt>
<totfact> 0.43280092E+00</totfact>
</mgrwt>
</event>
<event>
 4    1  0.6912310E-008  0.8450345E+03  0.7818608E-02  0.9497026E-01
         -2   -1    0    0    0  501 -0.00000000000E+00  0.00000000000E+00  0.79170205059E+03  0.79170205060E+03  0.25500000000E-02 0.  1.
          2   -1    0    0  501    0  0.00000000000E+00 -0.00000000000E+00 -0.94989384745E+03  0.94989384745E+03  0.25500000000E-02 0. -1.
    8880022    1    1    2    0    0 -0.16018603595E+03 -0.81549495543E+03 -0.27471125735E+03  0.88856598876E+03  0.15294330000E+03 0.  0.
    8880022    1    1    2    0    0  0.16018603595E+03  0.81549495543E+03  0.11651946050E+03  0.85302990929E+03  0.15294330000E+03 0.  0.
<mgrwt>
<rscale>  0 0.84503446E+03</rscale>
<asrwt>0</asrwt>
<pdfrwt beam="1">  1        2 0.14613752E+00 0.84503446E+03</pdfrwt>
<pdfrwt beam="2">  1       -2 0.12180031E+00 0.84503446E+03</pdfrwt>
<totfact> 0.13982819E+01</totfact>
</mgrwt>
</event>
<event>
 4    1  0.6912310E-008  0.2379734E+03  0.7818608E-02  0.1121150E+00
          2   -1    0    0  501    0  0.00000000000E+00  0.00000000000E+00  0.13471503807E+04  0.13471503807E+04  0.25500000000E-02 0. -1.
         -2   -1    0    0    0  501 -0.00000000000E+00 -0.00000000000E+00 -0.68304373378E+02  0.68304373426E+02  0.25500000000E-02 0.  1.
    8880022    1    1    2    0    0  0.47238544232E+02 -0.17609148442E+03  0.10782999836E+04  0.11042473448E+04  0.15294330000E+03 0.  0.
    8880022    1    1    2    0    0 -0.47238544232E+02  0.17609148442E+03  0.20054602372E+03  0.31120740928E+03  0.15294330000E+03 0.  0.
<mgrwt>
<rscale>  0 0.23797341E+03</rscale>
<asrwt>0</asrwt>
<pdfrwt beam="1">  1        2 0.20725388E+00 0.23797341E+03</pdfrwt>
<pdfrwt beam="2">  1       -2 0.10508366E-01 0.23797341E+03</pdfrwt>
<totfact> 0.10166299E+03</totfact>
</mgrwt>
</event>
<event>
 4    1  0.6912310E-008  0.2677437E+03  0.7818608E-02  0.1102578E+00
          2   -1    0    0  501    0  0.00000000000E+00  0.00000000000E+00  0.17127866292E+04  0.17127866292E+04  0.25500000000E-02 0. -1.
         -2   -1    0    0    0  501 -0.00000000000E+00 -0.00000000000E+00 -0.12792954762E+03  0.12792954765E+03  0.25500000000E-02 0.  1.
    8880022    1    1    2    0    0  0.19050530184E+03  0.10955707340E+03  0.15473673206E+04  0.15703605637E+04  0.15294330000E+03 0.  0.
    8880022    1    1    2    0    0 -0.19050530184E+03 -0.10955707340E+03  0.37489761041E+02  0.27035561315E+03  0.15294330000E+03 0.  0.
<mgrwt>
<rscale>  0 0.26774367E+03</rscale>
<asrwt>0</asrwt>
<pdfrwt beam="1">  1        2 0.26350563E+00 0.26774367E+03</pdfrwt>
<pdfrwt beam="2">  1       -2 0.19681470E-01 0.26774367E+03</pdfrwt>
<totfact> 0.22902589E+02</totfact>
</mgrwt>
</event>
<event>
 4    1  0.6912310E-008  0.2211229E+03  0.7818608E-02  0.1133049E+00
          2   -1    0    0  501    0  0.00000000000E+00  0.00000000000E+00  0.13249352381E+04  0.13249352381E+04  0.25500000000E-02 0. -1.
         -2   -1    0    0    0  501 -0.00000000000E+00 -0.00000000000E+00 -0.10386251952E+03  0.10386251955E+03  0.25500000000E-02 0.  1.
    8880022    1    1    2    0    0 -0.73277416844E+02  0.14189463305E+03  0.36929310020E+02  0.22418540019E+03  0.15294330000E+03 0.  0.
    8880022    1    1    2    0    0  0.73277416844E+02 -0.14189463305E+03  0.11841434086E+04  0.12046123575E+04  0.15294330000E+03 0. -1.
<mgrwt>
<rscale>  0 0.22112286E+03</rscale>
<asrwt>0</asrwt>
<pdfrwt beam="1">  1        2 0.20383619E+00 0.22112286E+03</pdfrwt>
<pdfrwt beam="2">  1       -2 0.15978849E-01 0.22112286E+03</pdfrwt>
<totfact> 0.52909911E+02</totfact>
</mgrwt>
</event>
<event>
 4    1  0.6912310E-008  0.2213734E+03  0.7818608E-02  0.1132863E+00
         -2   -1    0    0    0  501 -0.00000000000E+00  0.00000000000E+00  0.82875618439E+02  0.82875618478E+02  0.25500000000E-02 0.  1.
          2   -1    0    0  501    0  0.00000000000E+00 -0.00000000000E+00 -0.11455401110E+04  0.11455401110E+04  0.25500000000E-02 0. -1.
    8880022    1    1    2    0    0 -0.88293457314E+02 -0.13348711622E+03 -0.95855116725E+03  0.98378175326E+03  0.15294330000E+03 0.  0.
    8880022    1    1    2    0    0  0.88293457314E+02  0.13348711622E+03 -0.10411332532E+03  0.24463397623E+03  0.15294330000E+03 0.  1.
<mgrwt>
<rscale>  0 0.22137344E+03</rscale>
<asrwt>0</asrwt>
<pdfrwt beam="1">  1        2 0.17623693E+00 0.22137344E+03</pdfrwt>
<pdfrwt beam="2">  1       -2 0.12750096E-01 0.22137344E+03</pdfrwt>
<totfact> 0.96639626E+02</totfact>
</mgrwt>
</event>
<event>
 4    1  0.6912310E-008  0.7111787E+03  0.7818608E-02  0.9698304E-01
          2   -1    0    0  501    0  0.00000000000E+00  0.00000000000E+00  0.12412169131E+04  0.12412169131E+04  0.25500000000E-02 0. -1.
         -2   -1    0    0    0  501 -0.00000000000E+00 -0.00000000000E+00 -0.10350830791E+04  0.10350830791E+04  0.25500000000E-02 0.  1.
    8880022    1    1    2    0    0 -0.68811981050E+03  0.94204841087E+02 -0.78317709011E+03  0.10578948120E+04  0.15294330000E+03 0.  0.
    8880022    1    1    2    0    0  0.68811981050E+03 -0.94204841087E+02  0.98931092407E+03  0.12184051802E+04  0.15294330000E+03 0.  0.
<mgrwt>
<rscale>  0 0.71117865E+03</rscale>
<asrwt>0</asrwt>
<pdfrwt beam="1">  1        2 0.19095645E+00 0.71117865E+03</pdfrwt>
<pdfrwt beam="2">  1       -2 0.15924355E+00 0.71117865E+03</pdfrwt>
<totfact> 0.46982992E+00</totfact>
</mgrwt>
</event>
<event>
 4    1  0.6912310E-008  0.2930653E+03  0.7818608E-02  0.1088760E+00
         -2   -1    0    0    0  501 -0.00000000000E+00  0.00000000000E+00  0.20422675790E+04  0.20422675790E+04  0.25500000000E-02 0.  1.
          2   -1    0    0  501    0  0.00000000000E+00 -0.00000000000E+00 -0.38098493014E+03  0.38098493014E+03  0.25500000000E-02 0. -1.
    8880022    1    1    2    0    0  0.13970561496E+02  0.24960051307E+03 -0.31215763766E+03  0.42817010227E+03  0.15294330000E+03 0.  0.
    8880022    1    1    2    0    0 -0.13970561496E+02 -0.24960051307E+03  0.19734402865E+04  0.19950824069E+04  0.15294330000E+03 0.  0.
<mgrwt>
<rscale>  0 0.29306526E+03</rscale>
<asrwt>0</asrwt>
<pdfrwt beam="1">  1        2 0.58613068E-01 0.29306526E+03</pdfrwt>
<pdfrwt beam="2">  1       -2 0.31419500E+00 0.29306526E+03</pdfrwt>
<totfact> 0.25441632E+00</totfact>
</mgrwt>
</event>
<event>
 4    1  0.6912310E-008  0.3196101E+03  0.7818608E-02  0.1075829E+00
          2   -1    0    0  501    0  0.00000000000E+00  0.00000000000E+00  0.15800084354E+04  0.15800084354E+04  0.25500000000E-02 0. -1.
         -2   -1    0    0    0  501 -0.00000000000E+00 -0.00000000000E+00 -0.66836100277E+03  0.66836100277E+03  0.25500000000E-02 0.  1.
    8880022    1    1    2    0    0  0.11325717809E+03  0.25677180244E+03 -0.61260604496E+03  0.69096799221E+03  0.15294330000E+03 0.  1.
    8880022    1    1    2    0    0 -0.11325717809E+03 -0.25677180244E+03  0.15242534776E+04  0.15574014460E+04  0.15294330000E+03 0.  0.
<mgrwt>
<rscale>  0 0.31961007E+03</rscale>
<asrwt>0</asrwt>
<pdfrwt beam="1">  1        2 0.24307822E+00 0.31961007E+03</pdfrwt>
<pdfrwt beam="2">  1       -2 0.10282477E+00 0.31961007E+03</pdfrwt>
<totfact> 0.99453631E+00</totfact>
</mgrwt>
</event>
<event>
 4    1  0.6912310E-008  0.2526604E+03  0.7818608E-02  0.1111635E+00
          2   -1    0    0  501    0  0.00000000000E+00  0.00000000000E+00  0.87427439451E+03  0.87427439451E+03  0.25500000000E-02 0. -1.
         -2   -1    0    0    0  501 -0.00000000000E+00 -0.00000000000E+00 -0.19166045978E+03  0.19166045979E+03  0.25500000000E-02 0.  1.
    8880022    1    1    2    0    0  0.18197330255E+03 -0.85623213894E+02 -0.78022629397E+02  0.26443298076E+03  0.15294330000E+03 0.  0.
    8880022    1    1    2    0    0 -0.18197330255E+03  0.85623213894E+02  0.76063656413E+03  0.80150187355E+03  0.15294330000E+03 0.  0.
<mgrwt>
<rscale>  0 0.25266039E+03</rscale>
<asrwt>0</asrwt>
<pdfrwt beam="1">  1        2 0.13450375E+00 0.25266039E+03</pdfrwt>
<pdfrwt beam="2">  1       -2 0.29486225E-01 0.25266039E+03</pdfrwt>
<totfact> 0.33653825E+02</totfact>
</mgrwt>
</event>
<event>
 4    1  0.6912310E-008  0.6842455E+03  0.7818608E-02  0.9744560E-01
          2   -1    0    0  501    0  0.00000000000E+00  0.00000000000E+00  0.26016415620E+04  0.26016415620E+04  0.25500000000E-02 0. -1.
         -2   -1    0    0    0  501 -0.00000000000E+00 -0.00000000000E+00 -0.23582092204E+03  0.23582092206E+03  0.25500000000E-02 0.  1.
    8880022    1    1    2    0    0  0.18536551509E+03 -0.64065579048E+03  0.49241245800E+03  0.84300764995E+03  0.15294330000E+03 0.  0.
    8880022    1    1    2    0    0 -0.18536551509E+03  0.64065579048E+03  0.18734081820E+04  0.19944548341E+04  0.15294330000E+03 0.  0.
<mgrwt>
<rscale>  0 0.68424547E+03</rscale>
<asrwt>0</asrwt>
<pdfrwt beam="1">  1        2 0.40025254E+00 0.68424547E+03</pdfrwt>
<pdfrwt beam="2">  1       -2 0.36280142E-01 0.68424547E+03</pdfrwt>
<totfact> 0.22983342E+01</totfact>
</mgrwt>
</event>
<event>
 4    1  0.6912310E-008  0.2437323E+03  0.7818608E-02  0.1117331E+00
          2   -1    0    0  501    0  0.00000000000E+00  0.00000000000E+00  0.66860709629E+02  0.66860709678E+02  0.25500000000E-02 0. -1.
         -2   -1    0    0    0  501 -0.00000000000E+00 -0.00000000000E+00 -0.13781321907E+04  0.13781321907E+04  0.25500000000E-02 0.  1.
    8880022    1    1    2    0    0  0.18396736271E+03  0.46580854133E+02 -0.22498282718E+03  0.33169668683E+03  0.15294330000E+03 0.  0.
    8880022    1    1    2    0    0 -0.18396736271E+03 -0.46580854133E+02 -0.10862886539E+04  0.11132962136E+04  0.15294330000E+03 0.  0.
<mgrwt>
<rscale>  0 0.24373227E+03</rscale>
<asrwt>0</asrwt>
<pdfrwt beam="1">  1        2 0.10286264E-01 0.24373227E+03</pdfrwt>
<pdfrwt beam="2">  1       -2 0.21202032E+00 0.24373227E+03</pdfrwt>
<totfact> 0.75222442E+01</totfact>
</mgrwt>
</event>
<event>
 4    1  0.6912310E-008  0.2495301E+03  0.7818608E-02  0.1113602E+00
         -2   -1    0    0    0  501 -0.00000000000E+00  0.00000000000E+00  0.10845892491E+04  0.10845892491E+04  0.25500000000E-02 0.  1.
          2   -1    0    0  501    0  0.00000000000E+00 -0.00000000000E+00 -0.11893009076E+04  0.11893009076E+04  0.25500000000E-02 0. -1.
    8880022    1    1    2    0    0  0.19414446086E+03  0.34373373961E+02 -0.11615206230E+04  0.11880216375E+04  0.15294330000E+03 0.  0.
    8880022    1    1    2    0    0 -0.19414446086E+03 -0.34373373961E+02  0.10568089645E+04  0.10858685192E+04  0.15294330000E+03 0.  1.
<mgrwt>
<rscale>  0 0.24953007E+03</rscale>
<asrwt>0</asrwt>
<pdfrwt beam="1">  1        2 0.18296937E+00 0.24953007E+03</pdfrwt>
<pdfrwt beam="2">  1       -2 0.16685988E+00 0.24953007E+03</pdfrwt>
<totfact> 0.49868129E+00</totfact>
</mgrwt>
</event>
<event>
 4    1  0.8113504E-008  0.6689702E+03  0.7818608E-02  0.9771820E-01
         -2   -1    0    0    0  501 -0.00000000000E+00  0.00000000000E+00  0.65883471499E+03  0.65883471500E+03  0.25500000000E-02 0.  1.
          2   -1    0    0  501    0  0.00000000000E+00 -0.00000000000E+00 -0.32920466992E+04  0.32920466992E+04  0.25500000000E-02 0. -1.
    8880022    1    1    2    0    0  0.13170607500E+03  0.63779541961E+03 -0.30764851512E+04  0.31483776816E+04  0.15294330000E+03 0. -1.
    8880022    1    1    2    0    0 -0.13170607500E+03 -0.63779541961E+03  0.44327316690E+03  0.80250373269E+03  0.15294330000E+03 0.  0.
<mgrwt>
<rscale>  0 0.66897021E+03</rscale>
<asrwt>0</asrwt>
<pdfrwt beam="1">  1        2 0.50646871E+00 0.66897021E+03</pdfrwt>
<pdfrwt beam="2">  1       -2 0.10135919E+00 0.66897021E+03</pdfrwt>
<totfact> 0.99346568E-01</totfact>
</mgrwt>
</event>
<event>
 4    1  0.6912310E-008  0.2731347E+03  0.7818608E-02  0.1099499E+00
         -2   -1    0    0    0  501 -0.00000000000E+00  0.00000000000E+00  0.46728536536E+03  0.46728536537E+03  0.25500000000E-02 0.  1.
          2   -1    0    0  501    0  0.00000000000E+00 -0.00000000000E+00 -0.56493824692E+03  0.56493824693E+03  0.25500000000E-02 0. -1.
    8880022    1    1    2    0    0  0.10676179546E+02  0.22604626782E+03 -0.48597072538E+03  0.55746757300E+03  0.15294330000E+03 0.  0.
    8880022    1    1    2    0    0 -0.10676179546E+02 -0.22604626782E+03  0.38831784382E+03  0.47475603930E+03  0.15294330000E+03 0.  1.
<mgrwt>
<rscale>  0 0.27313467E+03</rscale>
<asrwt>0</asrwt>
<pdfrwt beam="1">  1        2 0.86913577E-01 0.27313467E+03</pdfrwt>
<pdfrwt beam="2">  1       -2 0.71890056E-01 0.27313467E+03</pdfrwt>
<totfact> 0.98581558E+01</totfact>
</mgrwt>
</event>
<event>
 4    1  0.6912310E-008  0.4467979E+03  0.7818608E-02  0.1028681E+00
         -2   -1    0    0    0  501 -0.00000000000E+00  0.00000000000E+00  0.37611922384E+03  0.37611922385E+03  0.25500000000E-02 0.  1.
          2   -1    0    0  501    0  0.00000000000E+00 -0.00000000000E+00 -0.10713152737E+04  0.10713152737E+04  0.25500000000E-02 0. -1.
    8880022    1    1    2    0    0  0.17834412860E+03  0.38003961602E+03 -0.86167839629E+03  0.97062765755E+03  0.15294330000E+03 0.  0.
    8880022    1    1    2    0    0 -0.17834412860E+03 -0.38003961602E+03  0.16648234645E+03  0.47680683997E+03  0.15294330000E+03 0.  0.
<mgrwt>
<rscale>  0 0.44679793E+03</rscale>
<asrwt>0</asrwt>
<pdfrwt beam="1">  1        2 0.16481773E+00 0.44679793E+03</pdfrwt>
<pdfrwt beam="2">  1       -2 0.57864496E-01 0.44679793E+03</pdfrwt>
<totfact> 0.66599888E+01</totfact>
</mgrwt>
</event>
<event>
 4    1  0.6912310E-008  0.3278722E+03  0.7818608E-02  0.1072082E+00
          2   -1    0    0  501    0  0.00000000000E+00  0.00000000000E+00  0.15049986131E+04  0.15049986131E+04  0.25500000000E-02 0. -1.
         -2   -1    0    0    0  501 -0.00000000000E+00 -0.00000000000E+00 -0.84813781078E+02  0.84813781116E+02  0.25500000000E-02 0.  1.
    8880022    1    1    2    0    0  0.12291526706E+03 -0.26267924298E+03  0.39430702876E+03  0.51281403404E+03  0.15294330000E+03 0. -1.
    8880022    1    1    2    0    0 -0.12291526706E+03  0.26267924298E+03  0.10258778033E+04  0.10769983602E+04  0.15294330000E+03 0.  0.
<mgrwt>
<rscale>  0 0.32787223E+03</rscale>
<asrwt>0</asrwt>
<pdfrwt beam="1">  1        2 0.23153825E+00 0.32787223E+03</pdfrwt>
<pdfrwt beam="2">  1       -2 0.13048274E-01 0.32787223E+03</pdfrwt>
<totfact> 0.58290682E+02</totfact>
</mgrwt>
</event>
<event>
 4    1  0.6912310E-008  0.7555524E+03  0.7818608E-02  0.9626680E-01
          2   -1    0    0  501    0  0.00000000000E+00  0.00000000000E+00  0.23940071463E+04  0.23940071463E+04  0.25500000000E-02 0. -1.
         -2   -1    0    0    0  501 -0.00000000000E+00 -0.00000000000E+00 -0.42441397486E+03  0.42441397487E+03  0.25500000000E-02 0.  1.
    8880022    1    1    2    0    0 -0.73898526104E+03  0.36993630811E+02  0.19176026641E+04  0.20610820884E+04  0.15294330000E+03 0.  0.
    8880022    1    1    2    0    0  0.73898526104E+03 -0.36993630811E+02  0.51990507403E+02  0.75733903282E+03  0.15294330000E+03 0.  0.
<mgrwt>
<rscale>  0 0.75555238E+03</rscale>
<asrwt>0</asrwt>
<pdfrwt beam="1">  1        2 0.36830879E+00 0.75555238E+03</pdfrwt>
<pdfrwt beam="2">  1       -2 0.65294457E-01 0.75555238E+03</pdfrwt>
<totfact> 0.90520459E+00</totfact>
</mgrwt>
</event>
<event>
 4    1  0.6912310E-008  0.5040394E+03  0.7818608E-02  0.1012730E+00
          2   -1    0    0  501    0  0.00000000000E+00  0.00000000000E+00  0.30056502431E+04  0.30056502431E+04  0.25500000000E-02 0. -1.
         -2   -1    0    0    0  501 -0.00000000000E+00 -0.00000000000E+00 -0.37794664553E+03  0.37794664553E+03  0.25500000000E-02 0.  1.
    8880022    1    1    2    0    0 -0.27164310835E+03 -0.39607330576E+03  0.28045120897E+04  0.28494462192E+04  0.15294330000E+03 0. -1.
    8880022    1    1    2    0    0  0.27164310835E+03  0.39607330576E+03 -0.17680849206E+03  0.53415066950E+03  0.15294330000E+03 0.  0.
<mgrwt>
<rscale>  0 0.50403938E+03</rscale>
<asrwt>0</asrwt>
<pdfrwt beam="1">  1        2 0.46240772E+00 0.50403938E+03</pdfrwt>
<pdfrwt beam="2">  1       -2 0.58145639E-01 0.50403938E+03</pdfrwt>
<totfact> 0.54011707E+00</totfact>
</mgrwt>
</event>
<event>
 4    1  0.6912310E-008  0.4850380E+03  0.7818608E-02  0.1017760E+00
          2   -1    0    0  501    0  0.00000000000E+00  0.00000000000E+00  0.29546946425E+04  0.29546946425E+04  0.25500000000E-02 0. -1.
         -2   -1    0    0    0  501 -0.00000000000E+00 -0.00000000000E+00 -0.12977682228E+03  0.12977682231E+03  0.25500000000E-02 0.  1.
    8880022    1    1    2    0    0 -0.41059744107E+03  0.20803823191E+03  0.23712058004E+04  0.24203055108E+04  0.15294330000E+03 0.  0.
    8880022    1    1    2    0    0  0.41059744107E+03 -0.20803823191E+03  0.45371201976E+03  0.66416595399E+03  0.15294330000E+03 0.  0.
<mgrwt>
<rscale>  0 0.48503795E+03</rscale>
<asrwt>0</asrwt>
<pdfrwt beam="1">  1        2 0.45456837E+00 0.48503795E+03</pdfrwt>
<pdfrwt beam="2">  1       -2 0.19965667E-01 0.48503795E+03</pdfrwt>
<totfact> 0.44039872E+01</totfact>
</mgrwt>
</event>
<event>
 4    1  0.6912310E-008  0.5383262E+03  0.7818608E-02  0.1004233E+00
         -2   -1    0    0    0  501 -0.00000000000E+00  0.00000000000E+00  0.55053026218E+03  0.55053026218E+03  0.25500000000E-02 0.  1.
          2   -1    0    0  501    0  0.00000000000E+00 -0.00000000000E+00 -0.87175667283E+03  0.87175667284E+03  0.25500000000E-02 0. -1.
    8880022    1    1    2    0    0 -0.51613494593E+03  0.28626854722E+01 -0.60822145127E+03  0.81223670453E+03  0.15294330000E+03 0.  0.
    8880022    1    1    2    0    0  0.51613494593E+03 -0.28626854722E+01  0.28699504061E+03  0.61005023050E+03  0.15294330000E+03 0.  0.
<mgrwt>
<rscale>  0 0.53832623E+03</rscale>
<asrwt>0</asrwt>
<pdfrwt beam="1">  1        2 0.13411641E+00 0.53832623E+03</pdfrwt>
<pdfrwt beam="2">  1       -2 0.84696963E-01 0.53832623E+03</pdfrwt>
<totfact> 0.38609356E+01</totfact>
</mgrwt>
</event>
<event>
 4    1  0.6912310E-008  0.2229783E+03  0.7818608E-02  0.1131682E+00
          2   -1    0    0  501    0  0.00000000000E+00  0.00000000000E+00  0.75641382609E+03  0.75641382610E+03  0.25500000000E-02 0. -1.
         -2   -1    0    0    0  501 -0.00000000000E+00 -0.00000000000E+00 -0.20864763400E+03  0.20864763402E+03  0.25500000000E-02 0.  1.
    8880022    1    1    2    0    0  0.13349558005E+03  0.92231260537E+02  0.67323950294E+03  0.70920431234E+03  0.15294330000E+03 0.  0.
    8880022    1    1    2    0    0 -0.13349558005E+03 -0.92231260537E+02 -0.12547331085E+03  0.25585714777E+03  0.15294330000E+03 0.  1.
<mgrwt>
<rscale>  0 0.22297831E+03</rscale>
<asrwt>0</asrwt>
<pdfrwt beam="1">  1        2 0.11637136E+00 0.22297831E+03</pdfrwt>
<pdfrwt beam="2">  1       -2 0.32099637E-01 0.22297831E+03</pdfrwt>
<totfact> 0.34803335E+02</totfact>
</mgrwt>
</event>
<event>
 4    1  0.6912310E-008  0.4232574E+03  0.7818608E-02  0.1036011E+00
         -2   -1    0    0    0  501 -0.00000000000E+00  0.00000000000E+00  0.38729510523E+03  0.38729510524E+03  0.25500000000E-02 0.  1.
          2   -1    0    0  501    0  0.00000000000E+00 -0.00000000000E+00 -0.17143161747E+04  0.17143161747E+04  0.25500000000E-02 0. -1.
    8880022    1    1    2    0    0 -0.24677060711E+03 -0.30799266014E+03 -0.15614291309E+04  0.16177786607E+04  0.15294330000E+03 0.  0.
    8880022    1    1    2    0    0  0.24677060711E+03  0.30799266014E+03  0.23440806137E+03  0.48383261929E+03  0.15294330000E+03 0.  0.
<mgrwt>
<rscale>  0 0.42325744E+03</rscale>
<asrwt>0</asrwt>
<pdfrwt beam="1">  1        2 0.26374095E+00 0.42325744E+03</pdfrwt>
<pdfrwt beam="2">  1       -2 0.59583863E-01 0.42325744E+03</pdfrwt>
<totfact> 0.27440254E+01</totfact>
</mgrwt>
</event>
<event>
 4    1  0.1101888E-007  0.7676542E+03  0.7818608E-02  0.9608054E-01
         -2   -1    0    0    0  501 -0.00000000000E+00  0.00000000000E+00  0.12266735562E+04  0.12266735562E+04  0.25500000000E-02 0.  1.
          2   -1    0    0  501    0  0.00000000000E+00 -0.00000000000E+00 -0.22513295956E+04  0.22513295956E+04  0.25500000000E-02 0. -1.
    8880022    1    1    2    0    0  0.60014757058E+03 -0.45356831562E+03 -0.20546717884E+04  0.21933921524E+04  0.15294330000E+03 0.  0.
    8880022    1    1    2    0    0 -0.60014757058E+03  0.45356831562E+03  0.10300157490E+04  0.12846109993E+04  0.15294330000E+03 0.  0.
<mgrwt>
<rscale>  0 0.76765420E+03</rscale>
<asrwt>0</asrwt>
<pdfrwt beam="1">  1        2 0.34635840E+00 0.76765420E+03</pdfrwt>
<pdfrwt beam="2">  1       -2 0.18871901E+00 0.76765420E+03</pdfrwt>
<totfact> 0.79822581E-01</totfact>
</mgrwt>
</event>
<event>
 4    1  0.6912310E-008  0.1713854E+04  0.7818608E-02  0.8753502E-01
          2   -1    0    0  501    0  0.00000000000E+00  0.00000000000E+00  0.15832876555E+04  0.15832876555E+04  0.25500000000E-02 0. -1.
         -2   -1    0    0    0  501 -0.00000000000E+00 -0.00000000000E+00 -0.25288197139E+04  0.25288197139E+04  0.25500000000E-02 0.  1.
    8880022    1    1    2    0    0  0.15695056549E+04 -0.67123523523E+03 -0.15339403961E+04  0.23000585935E+04  0.15294330000E+03 0.  0.
    8880022    1    1    2    0    0 -0.15695056549E+04  0.67123523523E+03  0.58840833769E+03  0.18120487760E+04  0.15294330000E+03 0.  0.
<mgrwt>
<rscale>  0 0.17138543E+04</rscale>
<asrwt>0</asrwt>
<pdfrwt beam="1">  1        2 0.24358272E+00 0.17138543E+04</pdfrwt>
<pdfrwt beam="2">  1       -2 0.38904919E+00 0.17138543E+04</pdfrwt>
<totfact> 0.91600888E-02</totfact>
</mgrwt>
</event>
<event>
 4    1  0.6912310E-008  0.5102884E+03  0.7818608E-02  0.1011128E+00
          2   -1    0    0  501    0  0.00000000000E+00  0.00000000000E+00  0.59093818918E+03  0.59093818919E+03  0.25500000000E-02 0. -1.
         -2   -1    0    0    0  501 -0.00000000000E+00 -0.00000000000E+00 -0.16096632815E+04  0.16096632816E+04  0.25500000000E-02 0.  1.
    8880022    1    1    2    0    0 -0.28944257211E+02  0.48596794230E+03  0.42831699387E+03  0.66622046743E+03  0.15294330000E+03 0. -1.
    8880022    1    1    2    0    0  0.28944257211E+02 -0.48596794230E+03 -0.14470420862E+04  0.15343810033E+04  0.15294330000E+03 0.  0.
<mgrwt>
<rscale>  0 0.51028841E+03</rscale>
<asrwt>0</asrwt>
<pdfrwt beam="1">  1        2 0.90913568E-01 0.51028841E+03</pdfrwt>
<pdfrwt beam="2">  1       -2 0.24764050E+00 0.51028841E+03</pdfrwt>
<totfact> 0.35993286E+00</totfact>
</mgrwt>
</event>
<event>
 4    1  0.6912310E-008  0.2701311E+03  0.7818608E-02  0.1101205E+00
         -2   -1    0    0    0  501 -0.00000000000E+00  0.00000000000E+00  0.33030015238E+03  0.33030015239E+03  0.25500000000E-02 0.  1.
          2   -1    0    0  501    0  0.00000000000E+00 -0.00000000000E+00 -0.83772209100E+03  0.83772209101E+03  0.25500000000E-02 0. -1.
    8880022    1    1    2    0    0 -0.52220377618E+02 -0.21645361583E+03  0.24741062239E+03  0.36630971149E+03  0.15294330000E+03 0.  0.
    8880022    1    1    2    0    0  0.52220377618E+02  0.21645361583E+03 -0.75483256101E+03  0.80171253191E+03  0.15294330000E+03 0.  0.
<mgrwt>
<rscale>  0 0.27013106E+03</rscale>
<asrwt>0</asrwt>
<pdfrwt beam="1">  1        2 0.12888032E+00 0.27013106E+03</pdfrwt>
<pdfrwt beam="2">  1       -2 0.50815408E-01 0.27013106E+03</pdfrwt>
<totfact> 0.12575516E+02</totfact>
</mgrwt>
</event>
<event>
 4    1  0.6912310E-008  0.1696450E+03  0.7818608E-02  0.1178219E+00
          2   -1    0    0  501    0  0.00000000000E+00  0.00000000000E+00  0.30795483921E+04  0.30795483921E+04  0.25500000000E-02 0. -1.
         -2   -1    0    0    0  501 -0.00000000000E+00 -0.00000000000E+00 -0.10289101009E+03  0.10289101012E+03  0.25500000000E-02 0.  1.
    8880022    1    1    2    0    0  0.70234844022E+02 -0.21327340658E+02 -0.28907752149E+02  0.17209038301E+03  0.15294330000E+03 0.  0.
    8880022    1    1    2    0    0 -0.70234844022E+02  0.21327340658E+02  0.30055651342E+04  0.30103490193E+04  0.15294330000E+03 0. -1.
<mgrwt>
<rscale>  0 0.16964505E+03</rscale>
<asrwt>0</asrwt>
<pdfrwt beam="1">  1        2 0.47377666E+00 0.16964505E+03</pdfrwt>
<pdfrwt beam="2">  1       -2 0.15829387E-01 0.16964505E+03</pdfrwt>
<totfact> 0.61968568E+01</totfact>
</mgrwt>
</event>
<event>
 4    1  0.6912310E-008  0.6534643E+03  0.7818608E-02  0.9800300E-01
          2   -1    0    0  501    0  0.00000000000E+00  0.00000000000E+00  0.11109942653E+04  0.11109942653E+04  0.25500000000E-02 0. -1.
         -2   -1    0    0    0  501 -0.00000000000E+00 -0.00000000000E+00 -0.92961829300E+03  0.92961829301E+03  0.25500000000E-02 0.  1.
    8880022    1    1    2    0    0  0.36404697422E+03  0.52066657750E+03  0.87210272349E+03  0.10897608443E+04  0.15294330000E+03 0.  0.
    8880022    1    1    2    0    0 -0.36404697422E+03 -0.52066657750E+03 -0.69072675116E+03  0.95085171407E+03  0.15294330000E+03 0.  0.
<mgrwt>
<rscale>  0 0.65346426E+03</rscale>
<asrwt>0</asrwt>
<pdfrwt beam="1">  1        2 0.17092219E+00 0.65346426E+03</pdfrwt>
<pdfrwt beam="2">  1       -2 0.14301820E+00 0.65346426E+03</pdfrwt>
<totfact> 0.75293114E+00</totfact>
</mgrwt>
</event>
<event>
 4    1  0.6912310E-008  0.1984953E+03  0.7818608E-02  0.1151015E+00
          2   -1    0    0  501    0  0.00000000000E+00  0.00000000000E+00  0.41586452765E+03  0.41586452766E+03  0.25500000000E-02 0. -1.
         -2   -1    0    0    0  501 -0.00000000000E+00 -0.00000000000E+00 -0.29781929553E+03  0.29781929554E+03  0.25500000000E-02 0.  1.
    8880022    1    1    2    0    0 -0.74050493286E+02  0.10259259820E+03 -0.23564252180E+03  0.30810350186E+03  0.15294330000E+03 0.  0.
    8880022    1    1    2    0    0  0.74050493286E+02 -0.10259259820E+03  0.35368775393E+03  0.40558032134E+03  0.15294330000E+03 0.  0.
<mgrwt>
<rscale>  0 0.19849526E+03</rscale>
<asrwt>0</asrwt>
<pdfrwt beam="1">  1        2 0.63979159E-01 0.19849526E+03</pdfrwt>
<pdfrwt beam="2">  1       -2 0.45818353E-01 0.19849526E+03</pdfrwt>
<totfact> 0.35307671E+02</totfact>
</mgrwt>
</event>
<event>
 4    1  0.6912310E-008  0.7168068E+03  0.7818608E-02  0.9688914E-01
          2   -1    0    0  501    0  0.00000000000E+00  0.00000000000E+00  0.12839473256E+04  0.12839473256E+04  0.25500000000E-02 0. -1.
         -2   -1    0    0    0  501 -0.00000000000E+00 -0.00000000000E+00 -0.66555481652E+03  0.66555481652E+03  0.25500000000E-02 0.  1.
    8880022    1    1    2    0    0  0.58491890660E+03 -0.38508465116E+03  0.92469961775E+03  0.11699920307E+04  0.15294330000E+03 0.  0.
    8880022    1    1    2    0    0 -0.58491890660E+03  0.38508465116E+03 -0.30630710871E+03  0.77951011137E+03  0.15294330000E+03 0.  0.
<mgrwt>
<rscale>  0 0.71680679E+03</rscale>
<asrwt>0</asrwt>
<pdfrwt beam="1">  1        2 0.19753036E+00 0.71680679E+03</pdfrwt>
<pdfrwt beam="2">  1       -2 0.10239305E+00 0.71680679E+03</pdfrwt>
<totfact> 0.13518174E+01</totfact>
</mgrwt>
</event>
<event>
 4    1  0.6912310E-008  0.5925187E+03  0.7818608E-02  0.9921050E-01
         -2   -1    0    0    0  501 -0.00000000000E+00  0.00000000000E+00  0.21919464602E+03  0.21919464604E+03  0.25500000000E-02 0.  1.
          2   -1    0    0  501    0  0.00000000000E+00 -0.00000000000E+00 -0.19661361783E+04  0.19661361783E+04  0.25500000000E-02 0. -1.
    8880022    1    1    2    0    0  0.54706047082E+03 -0.16855750280E+03 -0.13439131260E+04  0.14687344667E+04  0.15294330000E+03 0.  0.
    8880022    1    1    2    0    0 -0.54706047082E+03  0.16855750280E+03 -0.40302840631E+03  0.71659635765E+03  0.15294330000E+03 0.  0.
<mgrwt>
<rscale>  0 0.59251873E+03</rscale>
<asrwt>0</asrwt>
<pdfrwt beam="1">  1        2 0.30248248E+00 0.59251873E+03</pdfrwt>
<pdfrwt beam="2">  1       -2 0.33722255E-01 0.59251873E+03</pdfrwt>
<totfact> 0.60226429E+01</totfact>
</mgrwt>
</event>
<event>
 4    1  0.6912310E-008  0.7034451E+03  0.7818608E-02  0.9711359E-01
         -2   -1    0    0    0  501 -0.00000000000E+00  0.00000000000E+00  0.10990503236E+04  0.10990503236E+04  0.25500000000E-02 0.  1.
          2   -1    0    0  501    0  0.00000000000E+00 -0.00000000000E+00 -0.52755545381E+03  0.52755545382E+03  0.25500000000E-02 0. -1.
    8880022    1    1    2    0    0 -0.51491183660E+03 -0.45421261762E+03 -0.25607067378E+02  0.70391098613E+03  0.15294330000E+03 0.  0.
    8880022    1    1    2    0    0  0.51491183660E+03  0.45421261762E+03  0.59710193713E+03  0.92269479126E+03  0.15294330000E+03 0.  0.
<mgrwt>
<rscale>  0 0.70344506E+03</rscale>
<asrwt>0</asrwt>
<pdfrwt beam="1">  1        2 0.81162379E-01 0.70344506E+03</pdfrwt>
<pdfrwt beam="2">  1       -2 0.16908466E+00 0.70344506E+03</pdfrwt>
<totfact> 0.12767549E+01</totfact>
</mgrwt>
</event>
<event>
 4    1  0.6912310E-008  0.7423132E+03  0.7818608E-02  0.9647487E-01
         -2   -1    0    0    0  501 -0.00000000000E+00  0.00000000000E+00  0.19856704123E+04  0.19856704123E+04  0.25500000000E-02 0.  1.
          2   -1    0    0  501    0  0.00000000000E+00 -0.00000000000E+00 -0.93324698610E+03  0.93324698611E+03  0.25500000000E-02 0. -1.
    8880022    1    1    2    0    0 -0.71860606794E+03  0.10603114100E+03 -0.69716655923E+03  0.10183664115E+04  0.15294330000E+03 0.  0.
    8880022    1    1    2    0    0  0.71860606794E+03 -0.10603114100E+03  0.17495899854E+04  0.19005509869E+04  0.15294330000E+03 0.  0.
<mgrwt>
<rscale>  0 0.74231323E+03</rscale>
<asrwt>0</asrwt>
<pdfrwt beam="1">  1        2 0.14357646E+00 0.74231323E+03</pdfrwt>
<pdfrwt beam="2">  1       -2 0.30548775E+00 0.74231323E+03</pdfrwt>
<totfact> 0.85902451E-01</totfact>
</mgrwt>
</event>
<event>
 4    1  0.6912310E-008  0.5306894E+03  0.7818608E-02  0.1006065E+00
          2   -1    0    0  501    0  0.00000000000E+00  0.00000000000E+00  0.95510406374E+03  0.95510406374E+03  0.25500000000E-02 0. -1.
         -2   -1    0    0    0  501 -0.00000000000E+00 -0.00000000000E+00 -0.86337386708E+03  0.86337386709E+03  0.25500000000E-02 0.  1.
    8880022    1    1    2    0    0  0.50640688417E+03  0.42327771570E+02 -0.69194640995E+03  0.87202124965E+03  0.15294330000E+03 0.  0.
    8880022    1    1    2    0    0 -0.50640688417E+03 -0.42327771570E+02  0.78367660661E+03  0.94645668118E+03  0.15294330000E+03 0.  0.
<mgrwt>
<rscale>  0 0.53068939E+03</rscale>
<asrwt>0</asrwt>
<pdfrwt beam="1">  1        2 0.14693909E+00 0.53068939E+03</pdfrwt>
<pdfrwt beam="2">  1       -2 0.13282675E+00 0.53068939E+03</pdfrwt>
<totfact> 0.11608411E+01</totfact>
</mgrwt>
</event>
<event>
 4    1  0.6912310E-008  0.1178115E+04  0.7818608E-02  0.9132231E-01
         -2   -1    0    0    0  501 -0.00000000000E+00  0.00000000000E+00  0.69657819384E+03  0.69657819384E+03  0.25500000000E-02 0.  1.
          2   -1    0    0  501    0  0.00000000000E+00 -0.00000000000E+00 -0.20275094237E+04  0.20275094237E+04  0.25500000000E-02 0. -1.
    8880022    1    1    2    0    0 -0.30152531873E+03  0.11285586877E+04 -0.84436450173E+03  0.14494499971E+04  0.15294330000E+03 0.  0.
    8880022    1    1    2    0    0  0.30152531873E+03 -0.11285586877E+04 -0.48656672816E+03  0.12746376204E+04  0.15294330000E+03 0.  0.
<mgrwt>
<rscale>  0 0.11781145E+04</rscale>
<asrwt>0</asrwt>
<pdfrwt beam="1">  1        2 0.31192452E+00 0.11781145E+04</pdfrwt>
<pdfrwt beam="2">  1       -2 0.10716588E+00 0.11781145E+04</pdfrwt>
<totfact> 0.44249068E+00</totfact>
</mgrwt>
</event>
<event>
 4    1  0.6912310E-008  0.5152388E+03  0.7818608E-02  0.1009876E+00
          2   -1    0    0  501    0  0.00000000000E+00  0.00000000000E+00  0.52104728049E+03  0.52104728050E+03  0.25500000000E-02 0. -1.
         -2   -1    0    0    0  501 -0.00000000000E+00 -0.00000000000E+00 -0.82002230781E+03  0.82002230782E+03  0.25500000000E-02 0.  1.
    8880022    1    1    2    0    0  0.26832626069E+03 -0.41240803544E+03 -0.56211516886E+03  0.76252507234E+03  0.15294330000E+03 0.  1.
    8880022    1    1    2    0    0 -0.26832626069E+03  0.41240803544E+03  0.26314014154E+03  0.57854451598E+03  0.15294330000E+03 0.  0.
<mgrwt>
<rscale>  0 0.51523880E+03</rscale>
<asrwt>0</asrwt>
<pdfrwt beam="1">  1        2 0.80161121E-01 0.51523880E+03</pdfrwt>
<pdfrwt beam="2">  1       -2 0.12615728E+00 0.51523880E+03</pdfrwt>
<totfact> 0.28467540E+01</totfact>
</mgrwt>
</event>
<event>
 4    1  0.6912310E-008  0.6732019E+03  0.7818608E-02  0.9764191E-01
         -2   -1    0    0    0  501 -0.00000000000E+00  0.00000000000E+00  0.22484604918E+03  0.22484604920E+03  0.25500000000E-02 0.  1.
          2   -1    0    0  501    0  0.00000000000E+00 -0.00000000000E+00 -0.20356414823E+04  0.20356414823E+04  0.25500000000E-02 0. -1.
    8880022    1    1    2    0    0  0.10879572159E+03 -0.64650799814E+03 -0.10175312364E+04  0.12200699040E+04  0.15294330000E+03 0.  0.
    8880022    1    1    2    0    0 -0.10879572159E+03  0.64650799814E+03 -0.79326419673E+03  0.10404176275E+04  0.15294330000E+03 0.  0.
<mgrwt>
<rscale>  0 0.67320187E+03</rscale>
<asrwt>0</asrwt>
<pdfrwt beam="1">  1        2 0.31317560E+00 0.67320187E+03</pdfrwt>
<pdfrwt beam="2">  1       -2 0.34591701E-01 0.67320187E+03</pdfrwt>
<totfact> 0.52029484E+01</totfact>
</mgrwt>
</event>
<event>
 4    1  0.6912310E-008  0.4836823E+03  0.7818608E-02  0.1018128E+00
         -2   -1    0    0    0  501 -0.00000000000E+00  0.00000000000E+00  0.47568084062E+03  0.47568084062E+03  0.25500000000E-02 0.  1.
          2   -1    0    0  501    0  0.00000000000E+00 -0.00000000000E+00 -0.90638985487E+03  0.90638985487E+03  0.25500000000E-02 0. -1.
    8880022    1    1    2    0    0 -0.14500178838E+03  0.43535199289E+03 -0.68270478959E+03  0.83668055977E+03  0.15294330000E+03 0.  0.
    8880022    1    1    2    0    0  0.14500178838E+03 -0.43535199289E+03  0.25199577534E+03  0.54539013573E+03  0.15294330000E+03 0.  1.
<mgrwt>
<rscale>  0 0.48368226E+03</rscale>
<asrwt>0</asrwt>
<pdfrwt beam="1">  1        2 0.13944459E+00 0.48368226E+03</pdfrwt>
<pdfrwt beam="2">  1       -2 0.73181668E-01 0.48368226E+03</pdfrwt>
<totfact> 0.51037869E+01</totfact>
</mgrwt>
</event>
<event>
 4    1  0.6912310E-008  0.3907001E+03  0.7818608E-02  0.1047048E+00
          2   -1    0    0  501    0  0.00000000000E+00  0.00000000000E+00  0.14370138803E+04  0.14370138803E+04  0.25500000000E-02 0. -1.
         -2   -1    0    0    0  501 -0.00000000000E+00 -0.00000000000E+00 -0.17110373559E+03  0.17110373561E+03  0.25500000000E-02 0.  1.
    8880022    1    1    2    0    0  0.34020049310E+03 -0.11626912324E+03  0.11280743850E+04  0.11938167178E+04  0.15294330000E+03 0.  0.
    8880022    1    1    2    0    0 -0.34020049310E+03  0.11626912324E+03  0.13783575971E+03  0.41430089814E+03  0.15294330000E+03 0.  0.
<mgrwt>
<rscale>  0 0.39070006E+03</rscale>
<asrwt>0</asrwt>
<pdfrwt beam="1">  1        2 0.22107906E+00 0.39070006E+03</pdfrwt>
<pdfrwt beam="2">  1       -2 0.26323652E-01 0.39070006E+03</pdfrwt>
<totfact> 0.18922465E+02</totfact>
</mgrwt>
</event>
<event>
 4    1  0.6912310E-008  0.2053092E+03  0.7818608E-02  0.1145335E+00
         -2   -1    0    0    0  501 -0.00000000000E+00  0.00000000000E+00  0.12075480551E+04  0.12075480551E+04  0.25500000000E-02 0.  1.
          2   -1    0    0  501    0  0.00000000000E+00 -0.00000000000E+00 -0.10803242861E+03  0.10803242864E+03  0.25500000000E-02 0. -1.
    8880022    1    1    2    0    0 -0.12622523566E+03  0.53173355911E+02  0.85742517301E+01  0.20548816682E+03  0.15294330000E+03 0. -1.
    8880022    1    1    2    0    0  0.12622523566E+03 -0.53173355911E+02  0.10909413747E+04  0.11100923169E+04  0.15294330000E+03 0.  0.
<mgrwt>
<rscale>  0 0.20530920E+03</rscale>
<asrwt>0</asrwt>
<pdfrwt beam="1">  1        2 0.16620374E-01 0.20530920E+03</pdfrwt>
<pdfrwt beam="2">  1       -2 0.18577662E+00 0.20530920E+03</pdfrwt>
<totfact> 0.62108721E+01</totfact>
</mgrwt>
</event>
<event>
 4    1  0.6912310E-008  0.2168495E+03  0.7818608E-02  0.1136254E+00
         -2   -1    0    0    0  501 -0.00000000000E+00  0.00000000000E+00  0.12522177205E+03  0.12522177207E+03  0.25500000000E-02 0.  1.
          2   -1    0    0  501    0  0.00000000000E+00 -0.00000000000E+00 -0.12229638803E+04  0.12229638803E+04  0.25500000000E-02 0. -1.
    8880022    1    1    2    0    0 -0.47358523563E+02  0.14625052888E+03 -0.11100062430E+04  0.11309896372E+04  0.15294330000E+03 0. -1.
    8880022    1    1    2    0    0  0.47358523563E+02 -0.14625052888E+03  0.12264134831E+02  0.21719601509E+03  0.15294330000E+03 0.  0.
<mgrwt>
<rscale>  0 0.21684949E+03</rscale>
<asrwt>0</asrwt>
<pdfrwt beam="1">  1        2 0.18814828E+00 0.21684949E+03</pdfrwt>
<pdfrwt beam="2">  1       -2 0.19264889E-01 0.21684949E+03</pdfrwt>
<totfact> 0.44024973E+02</totfact>
</mgrwt>
</event>
<event>
 4    1  0.6912310E-008  0.4172053E+03  0.7818608E-02  0.1037980E+00
         -2   -1    0    0    0  501 -0.00000000000E+00  0.00000000000E+00  0.18854199789E+03  0.18854199791E+03  0.25500000000E-02 0.  1.
          2   -1    0    0  501    0  0.00000000000E+00 -0.00000000000E+00 -0.11919096649E+04  0.11919096649E+04  0.25500000000E-02 0. -1.
    8880022    1    1    2    0    0 -0.27271632986E+03 -0.27621439587E+03 -0.17395202236E+03  0.45201719896E+03  0.15294330000E+03 0.  0.
    8880022    1    1    2    0    0  0.27271632986E+03  0.27621439587E+03 -0.82941564463E+03  0.92843446383E+03  0.15294330000E+03 0.  0.
<mgrwt>
<rscale>  0 0.41720528E+03</rscale>
<asrwt>0</asrwt>
<pdfrwt beam="1">  1        2 0.18337071E+00 0.41720528E+03</pdfrwt>
<pdfrwt beam="2">  1       -2 0.29006462E-01 0.41720528E+03</pdfrwt>
<totfact> 0.21733716E+02</totfact>
</mgrwt>
</event>
<event>
 4    1  0.6912310E-008  0.4347684E+03  0.7818608E-02  0.1032364E+00
         -2   -1    0    0    0  501 -0.00000000000E+00  0.00000000000E+00  0.60477924895E+03  0.60477924895E+03  0.25500000000E-02 0.  1.
          2   -1    0    0  501    0  0.00000000000E+00 -0.00000000000E+00 -0.95593648680E+03  0.95593648680E+03  0.25500000000E-02 0. -1.
    8880022    1    1    2    0    0 -0.23551103950E+03  0.33191337101E+03 -0.81577815379E+03  0.92440120337E+03  0.15294330000E+03 0.  0.
    8880022    1    1    2    0    0  0.23551103950E+03 -0.33191337101E+03  0.46462091594E+03  0.63631453238E+03  0.15294330000E+03 0.  0.
<mgrwt>
<rscale>  0 0.43476843E+03</rscale>
<asrwt>0</asrwt>
<pdfrwt beam="1">  1        2 0.14706715E+00 0.43476843E+03</pdfrwt>
<pdfrwt beam="2">  1       -2 0.93042961E-01 0.43476843E+03</pdfrwt>
<totfact> 0.27827548E+01</totfact>
</mgrwt>
</event>
<event>
 4    1  0.6912310E-008  0.7392924E+03  0.7818608E-02  0.9652300E-01
          2   -1    0    0  501    0  0.00000000000E+00  0.00000000000E+00  0.14569380000E+04  0.14569380000E+04  0.25500000000E-02 0. -1.
         -2   -1    0    0    0  501 -0.00000000000E+00 -0.00000000000E+00 -0.38131137372E+03  0.38131137373E+03  0.25500000000E-02 0.  1.
    8880022    1    1    2    0    0  0.19776409020E+03  0.69573766274E+03  0.65475968458E+03  0.98755426600E+03  0.15294330000E+03 0.  0.
    8880022    1    1    2    0    0 -0.19776409020E+03 -0.69573766274E+03  0.42086694173E+03  0.85069510777E+03  0.15294330000E+03 0.  0.
<mgrwt>
<rscale>  0 0.73929235E+03</rscale>
<asrwt>0</asrwt>
<pdfrwt beam="1">  1        2 0.22414431E+00 0.73929235E+03</pdfrwt>
<pdfrwt beam="2">  1       -2 0.58663289E-01 0.73929235E+03</pdfrwt>
<totfact> 0.37319039E+01</totfact>
</mgrwt>
</event>
<event>
 4    1  0.6912310E-008  0.6649404E+03  0.7818608E-02  0.9779142E-01
          2   -1    0    0  501    0  0.00000000000E+00  0.00000000000E+00  0.26218832162E+04  0.26218832162E+04  0.25500000000E-02 0. -1.
         -2   -1    0    0    0  501 -0.00000000000E+00 -0.00000000000E+00 -0.23710511850E+03  0.23710511851E+03  0.25500000000E-02 0.  1.
    8880022    1    1    2    0    0  0.63134059502E+03  0.14199696232E+03  0.42421953652E+03  0.78873820270E+03  0.15294330000E+03 0.  0.
    8880022    1    1    2    0    0 -0.63134059502E+03 -0.14199696232E+03  0.19605585612E+04  0.20702501320E+04  0.15294330000E+03 0.  0.
<mgrwt>
<rscale>  0 0.66494040E+03</rscale>
<asrwt>0</asrwt>
<pdfrwt beam="1">  1        2 0.40336663E+00 0.66494040E+03</pdfrwt>
<pdfrwt beam="2">  1       -2 0.36477712E-01 0.66494040E+03</pdfrwt>
<totfact> 0.22219787E+01</totfact>
</mgrwt>
</event>
<event>
 4    1  0.6912310E-008  0.1177059E+04  0.7818608E-02  0.9133177E-01
         -2   -1    0    0    0  501 -0.00000000000E+00  0.00000000000E+00  0.68318097020E+03  0.68318097020E+03  0.25500000000E-02 0.  1.
          2   -1    0    0  501    0  0.00000000000E+00 -0.00000000000E+00 -0.26631426273E+04  0.26631426273E+04  0.25500000000E-02 0. -1.
    8880022    1    1    2    0    0  0.11623835285E+04  0.10459590442E+03 -0.17285646479E+03  0.11896834793E+04  0.15294330000E+03 0.  0.
    8880022    1    1    2    0    0 -0.11623835285E+04 -0.10459590442E+03 -0.18071051923E+04  0.21566401183E+04  0.15294330000E+03 0.  0.
<mgrwt>
<rscale>  0 0.11770588E+04</rscale>
<asrwt>0</asrwt>
<pdfrwt beam="1">  1        2 0.40971424E+00 0.11770588E+04</pdfrwt>
<pdfrwt beam="2">  1       -2 0.10510477E+00 0.11770588E+04</pdfrwt>
<totfact> 0.20225874E+00</totfact>
</mgrwt>
</event>
<event>
 4    1  0.8351631E-008  0.7361689E+03  0.7818608E-02  0.9657303E-01
          2   -1    0    0  501    0  0.00000000000E+00  0.00000000000E+00  0.13013094399E+04  0.13013094399E+04  0.25500000000E-02 0. -1.
         -2   -1    0    0    0  501 -0.00000000000E+00 -0.00000000000E+00 -0.21391559352E+04  0.21391559352E+04  0.25500000000E-02 0.  1.
    8880022    1    1    2    0    0  0.15751107765E+02  0.71993396902E+03 -0.19626490332E+04  0.20961717243E+04  0.15294330000E+03 0.  0.
    8880022    1    1    2    0    0 -0.15751107765E+02 -0.71993396902E+03  0.11248025380E+04  0.13442936508E+04  0.15294330000E+03 0.  0.
<mgrwt>
<rscale>  0 0.73616891E+03</rscale>
<asrwt>0</asrwt>
<pdfrwt beam="1">  1        2 0.20020145E+00 0.73616891E+03</pdfrwt>
<pdfrwt beam="2">  1       -2 0.32910091E+00 0.73616891E+03</pdfrwt>
<totfact> 0.36847912E-01</totfact>
</mgrwt>
</event>
<event>
 4    1  0.6912310E-008  0.5722756E+03  0.7818608E-02  0.9964656E-01
         -2   -1    0    0    0  501 -0.00000000000E+00  0.00000000000E+00  0.59901536419E+03  0.59901536420E+03  0.25500000000E-02 0.  1.
          2   -1    0    0  501    0  0.00000000000E+00 -0.00000000000E+00 -0.11854387653E+04  0.11854387653E+04  0.25500000000E-02 0. -1.
    8880022    1    1    2    0    0  0.54680135160E+03  0.71525888671E+02 -0.94813051202E+03  0.11074523880E+04  0.15294330000E+03 0.  0.
    8880022    1    1    2    0    0 -0.54680135160E+03 -0.71525888671E+02  0.36170711092E+03  0.67700174148E+03  0.15294330000E+03 0.  1.
<mgrwt>
<rscale>  0 0.57227557E+03</rscale>
<asrwt>0</asrwt>
<pdfrwt beam="1">  1        2 0.18237519E+00 0.57227557E+03</pdfrwt>
<pdfrwt beam="2">  1       -2 0.92156211E-01 0.57227557E+03</pdfrwt>
<totfact> 0.20152106E+01</totfact>
</mgrwt>
</event>
<event>
 4    1  0.6912310E-008  0.6198652E+03  0.7818608E-02  0.9865028E-01
         -2   -1    0    0    0  501 -0.00000000000E+00  0.00000000000E+00  0.28346292895E+03  0.28346292896E+03  0.25500000000E-02 0.  1.
          2   -1    0    0  501    0  0.00000000000E+00 -0.00000000000E+00 -0.37179899864E+04  0.37179899864E+04  0.25500000000E-02 0. -1.
    8880022    1    1    2    0    0 -0.17189099920E+03  0.57558202007E+03 -0.33121103419E+04  0.33696153708E+04  0.15294330000E+03 0.  0.
    8880022    1    1    2    0    0  0.17189099920E+03 -0.57558202007E+03 -0.12241671557E+03  0.63183754455E+03  0.15294330000E+03 0.  0.
<mgrwt>
<rscale>  0 0.61986517E+03</rscale>
<asrwt>0</asrwt>
<pdfrwt beam="1">  1        2 0.57199843E+00 0.61986517E+03</pdfrwt>
<pdfrwt beam="2">  1       -2 0.43609684E-01 0.61986517E+03</pdfrwt>
<totfact> 0.31904828E+00</totfact>
</mgrwt>
</event>
<event>
 4    1  0.6912310E-008  0.2112411E+03  0.7818608E-02  0.1140587E+00
          2   -1    0    0  501    0  0.00000000000E+00  0.00000000000E+00  0.88826548304E+03  0.88826548305E+03  0.25500000000E-02 0. -1.
         -2   -1    0    0    0  501 -0.00000000000E+00 -0.00000000000E+00 -0.66052294343E+02  0.66052294392E+02  0.25500000000E-02 0.  1.
    8880022    1    1    2    0    0 -0.14205010623E+03  0.32448985623E+02  0.17761421617E+03  0.27598846379E+03  0.15294330000E+03 0.  0.
    8880022    1    1    2    0    0  0.14205010623E+03 -0.32448985623E+02  0.64459897253E+03  0.67832931364E+03  0.15294330000E+03 0.  0.
<mgrwt>
<rscale>  0 0.21124115E+03</rscale>
<asrwt>0</asrwt>
<pdfrwt beam="1">  1        2 0.13665621E+00 0.21124115E+03</pdfrwt>
<pdfrwt beam="2">  1       -2 0.10161892E-01 0.21124115E+03</pdfrwt>
<totfact> 0.19931970E+03</totfact>
</mgrwt>
</event>
<event>
 4    1  0.6912310E-008  0.3917409E+03  0.7818608E-02  0.1046678E+00
          2   -1    0    0  501    0  0.00000000000E+00  0.00000000000E+00  0.98428072290E+03  0.98428072290E+03  0.25500000000E-02 0. -1.
         -2   -1    0    0    0  501 -0.00000000000E+00 -0.00000000000E+00 -0.57700328411E+03  0.57700328411E+03  0.25500000000E-02 0.  1.
    8880022    1    1    2    0    0 -0.25922682880E+03  0.25074039653E+03  0.87052382581E+03  0.95460603369E+03  0.15294330000E+03 0. -1.
    8880022    1    1    2    0    0  0.25922682880E+03 -0.25074039653E+03 -0.46324638702E+03  0.60667797333E+03  0.15294330000E+03 0.  0.
<mgrwt>
<rscale>  0 0.39174092E+03</rscale>
<asrwt>0</asrwt>
<pdfrwt beam="1">  1        2 0.15142780E+00 0.39174092E+03</pdfrwt>
<pdfrwt beam="2">  1       -2 0.88769737E-01 0.39174092E+03</pdfrwt>
<totfact> 0.29964335E+01</totfact>
</mgrwt>
</event>
<event>
 4    1  0.6912310E-008  0.9746494E+03  0.7818608E-02  0.9336794E-01
          2   -1    0    0  501    0  0.00000000000E+00  0.00000000000E+00  0.20309692700E+04  0.20309692700E+04  0.25500000000E-02 0. -1.
         -2   -1    0    0    0  501 -0.00000000000E+00 -0.00000000000E+00 -0.79259846622E+03  0.79259846622E+03  0.25500000000E-02 0.  1.
    8880022    1    1    2    0    0 -0.95001561001E+03  0.15498411955E+03 -0.28466520299E+03  0.10153697196E+04  0.15294330000E+03 0.  0.
    8880022    1    1    2    0    0  0.95001561001E+03 -0.15498411955E+03  0.15230360068E+04  0.18081980167E+04  0.15294330000E+03 0.  0.
<mgrwt>
<rscale>  0 0.97464937E+03</rscale>
<asrwt>0</asrwt>
<pdfrwt beam="1">  1        2 0.31245681E+00 0.97464937E+03</pdfrwt>
<pdfrwt beam="2">  1       -2 0.12193823E+00 0.97464937E+03</pdfrwt>
<totfact> 0.32848069E+00</totfact>
</mgrwt>
</event>
<event>
 4    1  0.6912310E-008  0.6682816E+03  0.7818608E-02  0.9773067E-01
          2   -1    0    0  501    0  0.00000000000E+00  0.00000000000E+00  0.12905647989E+04  0.12905647989E+04  0.25500000000E-02 0. -1.
         -2   -1    0    0    0  501 -0.00000000000E+00 -0.00000000000E+00 -0.49877600456E+03  0.49877600457E+03  0.25500000000E-02 0.  1.
    8880022    1    1    2    0    0  0.27110169040E+03  0.59136493578E+03 -0.99175407445E+02  0.67560049457E+03  0.15294330000E+03 0.  0.
    8880022    1    1    2    0    0 -0.27110169040E+03 -0.59136493578E+03  0.89096420183E+03  0.11137403089E+04  0.15294330000E+03 0.  0.
<mgrwt>
<rscale>  0 0.66828158E+03</rscale>
<asrwt>0</asrwt>
<pdfrwt beam="1">  1        2 0.19854842E+00 0.66828158E+03</pdfrwt>
<pdfrwt beam="2">  1       -2 0.76734773E-01 0.66828158E+03</pdfrwt>
<totfact> 0.26169739E+01</totfact>
</mgrwt>
</event>
<event>
 4    1  0.6912310E-008  0.3275872E+03  0.7818608E-02  0.1072209E+00
         -2   -1    0    0    0  501 -0.00000000000E+00  0.00000000000E+00  0.79357976967E+02  0.79357977008E+02  0.25500000000E-02 0.  1.
          2   -1    0    0  501    0  0.00000000000E+00 -0.00000000000E+00 -0.47064920195E+04  0.47064920195E+04  0.25500000000E-02 0. -1.
    8880022    1    1    2    0    0  0.26885990963E+03 -0.10787055876E+03 -0.43336832940E+04  0.43460469687E+04  0.15294330000E+03 0. -1.
    8880022    1    1    2    0    0 -0.26885990963E+03  0.10787055876E+03 -0.29345074859E+03  0.43980302786E+03  0.15294330000E+03 0.  0.
<mgrwt>
<rscale>  0 0.32758718E+03</rscale>
<asrwt>0</asrwt>
<pdfrwt beam="1">  1        2 0.72407548E+00 0.32758718E+03</pdfrwt>
<pdfrwt beam="2">  1       -2 0.12208923E-01 0.32758718E+03</pdfrwt>
<totfact> 0.49801127E+00</totfact>
</mgrwt>
</event>
<event>
 4    1  0.6912310E-008  0.4552565E+03  0.7818608E-02  0.1026166E+00
          2   -1    0    0  501    0  0.00000000000E+00  0.00000000000E+00  0.15301345445E+04  0.15301345445E+04  0.25500000000E-02 0. -1.
         -2   -1    0    0    0  501 -0.00000000000E+00 -0.00000000000E+00 -0.23425534210E+03  0.23425534212E+03  0.25500000000E-02 0.  1.
    8880022    1    1    2    0    0  0.20077887025E+03 -0.37888607560E+03  0.75001738809E+02  0.46139324536E+03  0.15294330000E+03 0.  0.
    8880022    1    1    2    0    0 -0.20077887025E+03  0.37888607560E+03  0.12208774636E+04  0.13029966413E+04  0.15294330000E+03 0.  0.
<mgrwt>
<rscale>  0 0.45525648E+03</rscale>
<asrwt>0</asrwt>
<pdfrwt beam="1">  1        2 0.23540531E+00 0.45525648E+03</pdfrwt>
<pdfrwt beam="2">  1       -2 0.36039284E-01 0.45525648E+03</pdfrwt>
<totfact> 0.93308457E+01</totfact>
</mgrwt>
</event>
<event>
 4    1  0.6912310E-008  0.3410818E+03  0.7818608E-02  0.1066336E+00
          2   -1    0    0  501    0  0.00000000000E+00  0.00000000000E+00  0.32417012755E+04  0.32417012755E+04  0.25500000000E-02 0. -1.
         -2   -1    0    0    0  501 -0.00000000000E+00 -0.00000000000E+00 -0.13270859386E+03  0.13270859388E+03  0.25500000000E-02 0.  1.
    8880022    1    1    2    0    0 -0.23353791246E+03  0.19597246660E+03  0.11336645735E+03  0.35942839466E+03  0.15294330000E+03 0.  0.
    8880022    1    1    2    0    0  0.23353791246E+03 -0.19597246660E+03  0.29956262243E+04  0.30149814748E+04  0.15294330000E+03 0.  0.
<mgrwt>
<rscale>  0 0.34108183E+03</rscale>
<asrwt>0</asrwt>
<pdfrwt beam="1">  1        2 0.49872329E+00 0.34108183E+03</pdfrwt>
<pdfrwt beam="2">  1       -2 0.20416706E-01 0.34108183E+03</pdfrwt>
<totfact> 0.29483687E+01</totfact>
</mgrwt>
</event>
<event>
 4    1  0.6912310E-008  0.1317314E+04  0.7818608E-02  0.9015947E-01
         -2   -1    0    0    0  501 -0.00000000000E+00  0.00000000000E+00  0.13175159158E+04  0.13175159158E+04  0.25500000000E-02 0.  1.
          2   -1    0    0  501    0  0.00000000000E+00 -0.00000000000E+00 -0.21374090410E+04  0.21374090410E+04  0.25500000000E-02 0. -1.
    8880022    1    1    2    0    0 -0.29980375380E+03 -0.12735943272E+04 -0.14801104405E+04  0.19814245810E+04  0.15294330000E+03 0.  0.
    8880022    1    1    2    0    0  0.29980375380E+03  0.12735943272E+04  0.66021731528E+03  0.14735003758E+04  0.15294330000E+03 0.  0.
<mgrwt>
<rscale>  0 0.13173141E+04</rscale>
<asrwt>0</asrwt>
<pdfrwt beam="1">  1        2 0.32883216E+00 0.13173141E+04</pdfrwt>
<pdfrwt beam="2">  1       -2 0.20269476E+00 0.13173141E+04</pdfrwt>
<totfact> 0.68513600E-01</totfact>
</mgrwt>
</event>
<event>
 4    1  0.6912310E-008  0.7303615E+03  0.7818608E-02  0.9666674E-01
         -2   -1    0    0    0  501 -0.00000000000E+00  0.00000000000E+00  0.34669045112E+03  0.34669045113E+03  0.25500000000E-02 0.  1.
          2   -1    0    0  501    0  0.00000000000E+00 -0.00000000000E+00 -0.35178692278E+04  0.35178692278E+04  0.25500000000E-02 0. -1.
    8880022    1    1    2    0    0  0.18484774740E+00 -0.71416818299E+03 -0.30349600428E+04  0.31216038093E+04  0.15294330000E+03 0.  0.
    8880022    1    1    2    0    0 -0.18484774740E+00  0.71416818299E+03 -0.13621873389E+03  0.74295586965E+03  0.15294330000E+03 0.  1.
<mgrwt>
<rscale>  0 0.73036147E+03</rscale>
<asrwt>0</asrwt>
<pdfrwt beam="1">  1        2 0.54121063E+00 0.73036147E+03</pdfrwt>
<pdfrwt beam="2">  1       -2 0.53336995E-01 0.73036147E+03</pdfrwt>
<totfact> 0.28572971E+00</totfact>
</mgrwt>
</event>
<event>
 4    1  0.6912310E-008  0.5694211E+03  0.7818608E-02  0.9970960E-01
          2   -1    0    0  501    0  0.00000000000E+00  0.00000000000E+00  0.16323456171E+04  0.16323456171E+04  0.25500000000E-02 0. -1.
         -2   -1    0    0    0  501 -0.00000000000E+00 -0.00000000000E+00 -0.32938893594E+03  0.32938893595E+03  0.25500000000E-02 0.  1.
    8880022    1    1    2    0    0  0.52137381959E+03  0.17034686556E+03  0.12694716062E+04  0.13913297691E+04  0.15294330000E+03 0.  0.
    8880022    1    1    2    0    0 -0.52137381959E+03 -0.17034686556E+03  0.33485075001E+02  0.57040478401E+03  0.15294330000E+03 0.  0.
<mgrwt>
<rscale>  0 0.56942108E+03</rscale>
<asrwt>0</asrwt>
<pdfrwt beam="1">  1        2 0.25113009E+00 0.56942108E+03</pdfrwt>
<pdfrwt beam="2">  1       -2 0.50675221E-01 0.56942108E+03</pdfrwt>
<totfact> 0.41309467E+01</totfact>
</mgrwt>
</event>
<event>
 4    1  0.6912310E-008  0.6013163E+03  0.7818608E-02  0.9902679E-01
          2   -1    0    0  501    0  0.00000000000E+00  0.00000000000E+00  0.40217138429E+04  0.40217138429E+04  0.25500000000E-02 0. -1.
         -2   -1    0    0    0  501 -0.00000000000E+00 -0.00000000000E+00 -0.13219869105E+03  0.13219869108E+03  0.25500000000E-02 0.  1.
    8880022    1    1    2    0    0 -0.49783453130E+03 -0.30058349519E+03  0.77002255730E+03  0.97699337250E+03  0.15294330000E+03 0.  0.
    8880022    1    1    2    0    0  0.49783453130E+03  0.30058349519E+03  0.31194925946E+04  0.31769191615E+04  0.15294330000E+03 0.  0.
<mgrwt>
<rscale>  0 0.60131632E+03</rscale>
<asrwt>0</asrwt>
<pdfrwt beam="1">  1        2 0.61872510E+00 0.60131632E+03</pdfrwt>
<pdfrwt beam="2">  1       -2 0.20338264E-01 0.60131632E+03</pdfrwt>
<totfact> 0.77778006E+00</totfact>
</mgrwt>
</event>
<event>
 4    1  0.6912310E-008  0.9802298E+03  0.7818608E-02  0.9330498E-01
         -2   -1    0    0    0  501 -0.00000000000E+00  0.00000000000E+00  0.59822942775E+03  0.59822942775E+03  0.25500000000E-02 0.  1.
          2   -1    0    0  501    0  0.00000000000E+00 -0.00000000000E+00 -0.20532514385E+04  0.20532514385E+04  0.25500000000E-02 0. -1.
    8880022    1    1    2    0    0 -0.10271480180E+03 -0.96276087262E+03 -0.13461495676E+04  0.16652234504E+04  0.15294330000E+03 0.  0.
    8880022    1    1    2    0    0  0.10271480180E+03  0.96276087262E+03 -0.10887244308E+03  0.98625741580E+03  0.15294330000E+03 0.  0.
<mgrwt>
<rscale>  0 0.98022981E+03</rscale>
<asrwt>0</asrwt>
<pdfrwt beam="1">  1        2 0.31588483E+00 0.98022981E+03</pdfrwt>
<pdfrwt beam="2">  1       -2 0.92035298E-01 0.98022981E+03</pdfrwt>
<totfact> 0.62884814E+00</totfact>
</mgrwt>
</event>
<event>
 4    1  0.6912310E-008  0.9181867E+03  0.7818608E-02  0.9403128E-01
          2   -1    0    0  501    0  0.00000000000E+00  0.00000000000E+00  0.13149164835E+04  0.13149164835E+04  0.25500000000E-02 0. -1.
         -2   -1    0    0    0  501 -0.00000000000E+00 -0.00000000000E+00 -0.73530308668E+03  0.73530308668E+03  0.25500000000E-02 0.  1.
    8880022    1    1    2    0    0  0.28966521698E+03 -0.85776996102E+03  0.65661579220E+03  0.11288096365E+04  0.15294330000E+03 0.  0.
    8880022    1    1    2    0    0 -0.28966521698E+03  0.85776996102E+03 -0.77002395370E+02  0.92140993366E+03  0.15294330000E+03 0.  0.
<mgrwt>
<rscale>  0 0.91818674E+03</rscale>
<asrwt>0</asrwt>
<pdfrwt beam="1">  1        2 0.20229484E+00 0.91818674E+03</pdfrwt>
<pdfrwt beam="2">  1       -2 0.11312355E+00 0.91818674E+03</pdfrwt>
<totfact> 0.99628681E+00</totfact>
</mgrwt>
</event>
<event>
 4    1  0.6912310E-008  0.2668738E+03  0.7818608E-02  0.1103082E+00
         -2   -1    0    0    0  501 -0.00000000000E+00  0.00000000000E+00  0.14651519099E+03  0.14651519101E+03  0.25500000000E-02 0.  1.
          2   -1    0    0  501    0  0.00000000000E+00 -0.00000000000E+00 -0.96759883639E+03  0.96759883639E+03  0.25500000000E-02 0. -1.
    8880022    1    1    2    0    0 -0.18456144113E+02 -0.21792050911E+03 -0.80350129663E+03  0.84666165866E+03  0.15294330000E+03 0.  0.
    8880022    1    1    2    0    0  0.18456144113E+02  0.21792050911E+03 -0.17582348773E+02  0.26745236875E+03  0.15294330000E+03 0.  0.
<mgrwt>
<rscale>  0 0.26687381E+03</rscale>
<asrwt>0</asrwt>
<pdfrwt beam="1">  1        2 0.14886136E+00 0.26687381E+03</pdfrwt>
<pdfrwt beam="2">  1       -2 0.22540799E-01 0.26687381E+03</pdfrwt>
<totfact> 0.47228250E+02</totfact>
</mgrwt>
</event>
<event>
 4    1  0.6912310E-008  0.8023490E+03  0.7818608E-02  0.9556623E-01
          2   -1    0    0  501    0  0.00000000000E+00  0.00000000000E+00  0.29294827668E+04  0.29294827668E+04  0.25500000000E-02 0. -1.
         -2   -1    0    0    0  501 -0.00000000000E+00 -0.00000000000E+00 -0.38759872948E+03  0.38759872949E+03  0.25500000000E-02 0.  1.
    8880022    1    1    2    0    0  0.74570390064E+03  0.25357027700E+03  0.17952786100E+03  0.82218860288E+03  0.15294330000E+03 0.  0.
    8880022    1    1    2    0    0 -0.74570390064E+03 -0.25357027700E+03  0.23623561764E+04  0.24948928934E+04  0.15294330000E+03 0.  0.
<mgrwt>
<rscale>  0 0.80234896E+03</rscale>
<asrwt>0</asrwt>
<pdfrwt beam="1">  1        2 0.45068965E+00 0.80234896E+03</pdfrwt>
<pdfrwt beam="2">  1       -2 0.59630574E-01 0.80234896E+03</pdfrwt>
<totfact> 0.53247752E+00</totfact>
</mgrwt>
</event>
<event>
 4    1  0.6912310E-008  0.5909394E+03  0.7818608E-02  0.9924384E-01
         -2   -1    0    0    0  501 -0.00000000000E+00  0.00000000000E+00  0.16879376149E+03  0.16879376151E+03  0.25500000000E-02 0.  1.
          2   -1    0    0  501    0  0.00000000000E+00 -0.00000000000E+00 -0.22801157391E+04  0.22801157391E+04  0.25500000000E-02 0. -1.
    8880022    1    1    2    0    0 -0.55811761110E+03 -0.11967652579E+03 -0.68294649260E+03  0.90311976139E+03  0.15294330000E+03 0.  0.
    8880022    1    1    2    0    0  0.55811761110E+03  0.11967652579E+03 -0.14283754850E+04  0.15457897392E+04  0.15294330000E+03 0.  0.
<mgrwt>
<rscale>  0 0.59093941E+03</rscale>
<asrwt>0</asrwt>
<pdfrwt beam="1">  1        2 0.35078702E+00 0.59093941E+03</pdfrwt>
<pdfrwt beam="2">  1       -2 0.25968273E-01 0.59093941E+03</pdfrwt>
<totfact> 0.65798858E+01</totfact>
</mgrwt>
</event>
<event>
 4    1  0.6912310E-008  0.2151850E+03  0.7818608E-02  0.1137525E+00
         -2   -1    0    0    0  501 -0.00000000000E+00  0.00000000000E+00  0.12059533469E+04  0.12059533469E+04  0.25500000000E-02 0.  1.
          2   -1    0    0  501    0  0.00000000000E+00 -0.00000000000E+00 -0.53045405335E+03  0.53045405335E+03  0.25500000000E-02 0. -1.
    8880022    1    1    2    0    0  0.40307414819E+02  0.14590495531E+03 -0.49844160792E+03  0.54290757334E+03  0.15294330000E+03 0.  0.
    8880022    1    1    2    0    0 -0.40307414819E+02 -0.14590495531E+03  0.11739409014E+04  0.11934998269E+04  0.15294330000E+03 0.  1.
<mgrwt>
<rscale>  0 0.21518503E+03</rscale>
<asrwt>0</asrwt>
<pdfrwt beam="1">  1        2 0.81608316E-01 0.21518503E+03</pdfrwt>
<pdfrwt beam="2">  1       -2 0.18553128E+00 0.21518503E+03</pdfrwt>
<totfact> 0.10738687E+01</totfact>
</mgrwt>
</event>
<event>
 4    1  0.6912310E-008  0.1777249E+03  0.7818608E-02  0.1170023E+00
         -2   -1    0    0    0  501 -0.00000000000E+00  0.00000000000E+00  0.30383626655E+03  0.30383626656E+03  0.25500000000E-02 0.  1.
          2   -1    0    0  501    0  0.00000000000E+00 -0.00000000000E+00 -0.27974022675E+03  0.27974022676E+03  0.25500000000E-02 0. -1.
    8880022    1    1    2    0    0 -0.89560249569E+02 -0.13170566555E+02 -0.21925326185E+03  0.28223775079E+03  0.15294330000E+03 0.  0.
    8880022    1    1    2    0    0  0.89560249569E+02  0.13170566555E+02  0.24334930165E+03  0.30133874254E+03  0.15294330000E+03 0.  1.
<mgrwt>
<rscale>  0 0.17772494E+03</rscale>
<asrwt>0</asrwt>
<pdfrwt beam="1">  1        2 0.43036958E-01 0.17772494E+03</pdfrwt>
<pdfrwt beam="2">  1       -2 0.46744041E-01 0.17772494E+03</pdfrwt>
<totfact> 0.51992373E+02</totfact>
</mgrwt>
</event>
<event>
 4    1  0.6912310E-008  0.2679805E+03  0.7818608E-02  0.1102441E+00
         -2   -1    0    0    0  501 -0.00000000000E+00  0.00000000000E+00  0.14502057562E+03  0.14502057565E+03  0.25500000000E-02 0.  1.
          2   -1    0    0  501    0  0.00000000000E+00 -0.00000000000E+00 -0.17537912733E+04  0.17537912734E+04  0.25500000000E-02 0. -1.
    8880022    1    1    2    0    0  0.76446144019E+02  0.20634406287E+03 -0.10748184867E+00  0.26798050262E+03  0.15294330000E+03 0.  0.
    8880022    1    1    2    0    0 -0.76446144019E+02 -0.20634406287E+03 -0.16086632159E+04  0.16308313464E+04  0.15294330000E+03 0.  0.
<mgrwt>
<rscale>  0 0.26798048E+03</rscale>
<asrwt>0</asrwt>
<pdfrwt beam="1">  1        2 0.26981403E+00 0.26798048E+03</pdfrwt>
<pdfrwt beam="2">  1       -2 0.22310859E-01 0.26798048E+03</pdfrwt>
<totfact> 0.17545992E+02</totfact>
</mgrwt>
</event>
<event>
 4    1  0.6912310E-008  0.1587733E+03  0.7818608E-02  0.1190089E+00
         -2   -1    0    0    0  501 -0.00000000000E+00  0.00000000000E+00  0.28376962442E+03  0.28376962443E+03  0.25500000000E-02 0.  1.
          2   -1    0    0  501    0  0.00000000000E+00 -0.00000000000E+00 -0.63594131037E+03  0.63594131037E+03  0.25500000000E-02 0. -1.
    8880022    1    1    2    0    0  0.28210891407E+02 -0.31960019073E+02 -0.60261459511E+03  0.62317999042E+03  0.15294330000E+03 0.  0.
    8880022    1    1    2    0    0 -0.28210891407E+02  0.31960019073E+02  0.25044290916E+03  0.29653094438E+03  0.15294330000E+03 0.  1.
<mgrwt>
<rscale>  0 0.15877327E+03</rscale>
<asrwt>0</asrwt>
<pdfrwt beam="1">  1        2 0.97837124E-01 0.15877327E+03</pdfrwt>
<pdfrwt beam="2">  1       -2 0.43656866E-01 0.15877327E+03</pdfrwt>
<totfact> 0.24212442E+02</totfact>
</mgrwt>
</event>
<event>
 4    1  0.6912310E-008  0.3827969E+03  0.7818608E-02  0.1049905E+00
          2   -1    0    0  501    0  0.00000000000E+00  0.00000000000E+00  0.22620858994E+04  0.22620858994E+04  0.25500000000E-02 0. -1.
         -2   -1    0    0    0  501 -0.00000000000E+00 -0.00000000000E+00 -0.36551072011E+03  0.36551072012E+03  0.25500000000E-02 0.  1.
    8880022    1    1    2    0    0 -0.22445432574E+03 -0.26974445805E+03 -0.24341795047E+03  0.45363616326E+03  0.15294330000E+03 0.  0.
    8880022    1    1    2    0    0  0.22445432574E+03  0.26974445805E+03  0.21399931297E+04  0.21739604562E+04  0.15294330000E+03 0.  0.
<mgrwt>
<rscale>  0 0.38279690E+03</rscale>
<asrwt>0</asrwt>
<pdfrwt beam="1">  1        2 0.34801321E+00 0.38279690E+03</pdfrwt>
<pdfrwt beam="2">  1       -2 0.56232419E-01 0.38279690E+03</pdfrwt>
<totfact> 0.15915737E+01</totfact>
</mgrwt>
</event>
<event>
 4    1  0.6912310E-008  0.4892838E+03  0.7818608E-02  0.1016614E+00
         -2   -1    0    0    0  501 -0.00000000000E+00  0.00000000000E+00  0.49543242248E+03  0.49543242249E+03  0.25500000000E-02 0.  1.
          2   -1    0    0  501    0  0.00000000000E+00 -0.00000000000E+00 -0.13499235888E+04  0.13499235888E+04  0.25500000000E-02 0. -1.
    8880022    1    1    2    0    0  0.46395767420E+03  0.27391519725E+02  0.31207532454E+03  0.58033583381E+03  0.15294330000E+03 0.  0.
    8880022    1    1    2    0    0 -0.46395767420E+03 -0.27391519725E+02 -0.11665664908E+04  0.12650201774E+04  0.15294330000E+03 0.  0.
<mgrwt>
<rscale>  0 0.48928384E+03</rscale>
<asrwt>0</asrwt>
<pdfrwt beam="1">  1        2 0.20768055E+00 0.48928384E+03</pdfrwt>
<pdfrwt beam="2">  1       -2 0.76220373E-01 0.48928384E+03</pdfrwt>
<totfact> 0.25230427E+01</totfact>
</mgrwt>
</event>
<event>
 4    1  0.6912310E-008  0.3153369E+03  0.7818608E-02  0.1077816E+00
          2   -1    0    0  501    0  0.00000000000E+00  0.00000000000E+00  0.29316277660E+03  0.29316277661E+03  0.25500000000E-02 0. -1.
         -2   -1    0    0    0  501 -0.00000000000E+00 -0.00000000000E+00 -0.37240173344E+03  0.37240173345E+03  0.25500000000E-02 0.  1.
    8880022    1    1    2    0    0  0.17265576873E+03  0.21502482061E+03  0.59763533787E+02  0.32095018452E+03  0.15294330000E+03 0. -1.
    8880022    1    1    2    0    0 -0.17265576873E+03 -0.21502482061E+03 -0.13900249063E+03  0.34461432555E+03  0.15294330000E+03 0.  1.
<mgrwt>
<rscale>  0 0.31533687E+03</rscale>
<asrwt>0</asrwt>
<pdfrwt beam="1">  1        2 0.45101966E-01 0.31533687E+03</pdfrwt>
<pdfrwt beam="2">  1       -2 0.57292574E-01 0.31533687E+03</pdfrwt>
<totfact> 0.32775563E+02</totfact>
</mgrwt>
</event>
<event>
 4    1  0.6912310E-008  0.6041963E+03  0.7818608E-02  0.9896738E-01
          2   -1    0    0  501    0  0.00000000000E+00  0.00000000000E+00  0.19509301720E+04  0.19509301720E+04  0.25500000000E-02 0. -1.
         -2   -1    0    0    0  501 -0.00000000000E+00 -0.00000000000E+00 -0.30118963937E+03  0.30118963938E+03  0.25500000000E-02 0.  1.
    8880022    1    1    2    0    0  0.54254124783E+03  0.21750967915E+03  0.15178672277E+04  0.16336994950E+04  0.15294330000E+03 0.  0.
    8880022    1    1    2    0    0 -0.54254124783E+03 -0.21750967915E+03  0.13187330496E+03  0.61842031637E+03  0.15294330000E+03 0.  0.
<mgrwt>
<rscale>  0 0.60419626E+03</rscale>
<asrwt>0</asrwt>
<pdfrwt beam="1">  1        2 0.30014311E+00 0.60419626E+03</pdfrwt>
<pdfrwt beam="2">  1       -2 0.46336867E-01 0.60419626E+03</pdfrwt>
<totfact> 0.33074711E+01</totfact>
</mgrwt>
</event>
<event>
 4    1  0.6912310E-008  0.3870523E+03  0.7818608E-02  0.1048358E+00
          2   -1    0    0  501    0  0.00000000000E+00  0.00000000000E+00  0.13102878720E+04  0.13102878720E+04  0.25500000000E-02 0. -1.
         -2   -1    0    0    0  501 -0.00000000000E+00 -0.00000000000E+00 -0.26614494993E+03  0.26614494994E+03  0.25500000000E-02 0.  1.
    8880022    1    1    2    0    0  0.35552445876E+03  0.44969143743E+01  0.11173756386E+04  0.11825133546E+04  0.15294330000E+03 0.  0.
    8880022    1    1    2    0    0 -0.35552445876E+03 -0.44969143743E+01 -0.73232716481E+02  0.39391946740E+03  0.15294330000E+03 0.  0.
<mgrwt>
<rscale>  0 0.38705234E+03</rscale>
<asrwt>0</asrwt>
<pdfrwt beam="1">  1        2 0.20158275E+00 0.38705234E+03</pdfrwt>
<pdfrwt beam="2">  1       -2 0.40945377E-01 0.38705234E+03</pdfrwt>
<totfact> 0.97672660E+01</totfact>
</mgrwt>
</event>
<event>
 4    1  0.6912310E-008  0.3184947E+03  0.7818608E-02  0.1076344E+00
          2   -1    0    0  501    0  0.00000000000E+00  0.00000000000E+00  0.74252238010E+03  0.74252238011E+03  0.25500000000E-02 0. -1.
         -2   -1    0    0    0  501 -0.00000000000E+00 -0.00000000000E+00 -0.44258559002E+03  0.44258559003E+03  0.25500000000E-02 0.  1.
    8880022    1    1    2    0    0  0.16253790002E+03  0.22721943976E+03 -0.34271723341E+03  0.46786108819E+03  0.15294330000E+03 0.  1.
    8880022    1    1    2    0    0 -0.16253790002E+03 -0.22721943976E+03  0.64265402349E+03  0.71724688195E+03  0.15294330000E+03 0.  0.
<mgrwt>
<rscale>  0 0.31849473E+03</rscale>
<asrwt>0</asrwt>
<pdfrwt beam="1">  1        2 0.11423421E+00 0.31849473E+03</pdfrwt>
<pdfrwt beam="2">  1       -2 0.68090090E-01 0.31849473E+03</pdfrwt>
<totfact> 0.79331944E+01</totfact>
</mgrwt>
</event>
<event>
 4    1  0.6912310E-008  0.4952708E+03  0.7818608E-02  0.1015021E+00
         -2   -1    0    0    0  501 -0.00000000000E+00  0.00000000000E+00  0.73142925200E+03  0.73142925201E+03  0.25500000000E-02 0.  1.
          2   -1    0    0  501    0  0.00000000000E+00 -0.00000000000E+00 -0.10203760577E+04  0.10203760577E+04  0.25500000000E-02 0. -1.
    8880022    1    1    2    0    0 -0.42414996770E+03 -0.20493488923E+03  0.57319799284E+03  0.75752828062E+03  0.15294330000E+03 0.  0.
    8880022    1    1    2    0    0  0.42414996770E+03  0.20493488923E+03 -0.86214479856E+03  0.99427702911E+03  0.15294330000E+03 0.  0.
<mgrwt>
<rscale>  0 0.49527079E+03</rscale>
<asrwt>0</asrwt>
<pdfrwt beam="1">  1        2 0.15698093E+00 0.49527079E+03</pdfrwt>
<pdfrwt beam="2">  1       -2 0.11252758E+00 0.49527079E+03</pdfrwt>
<totfact> 0.15999530E+01</totfact>
</mgrwt>
</event>
<event>
 4    1  0.6912310E-008  0.2431694E+03  0.7818608E-02  0.1117699E+00
          2   -1    0    0  501    0  0.00000000000E+00  0.00000000000E+00  0.81329801998E+03  0.81329801999E+03  0.25500000000E-02 0. -1.
         -2   -1    0    0    0  501 -0.00000000000E+00 -0.00000000000E+00 -0.13291863731E+03  0.13291863733E+03  0.25500000000E-02 0.  1.
    8880022    1    1    2    0    0  0.18885271781E+03 -0.86241869136E+01  0.21760654602E+02  0.24414115738E+03  0.15294330000E+03 0.  0.
    8880022    1    1    2    0    0 -0.18885271781E+03  0.86241869136E+01  0.65861872808E+03  0.70207549994E+03  0.15294330000E+03 0.  0.
<mgrwt>
<rscale>  0 0.24316944E+03</rscale>
<asrwt>0</asrwt>
<pdfrwt beam="1">  1        2 0.12512277E+00 0.24316944E+03</pdfrwt>
<pdfrwt beam="2">  1       -2 0.20449022E-01 0.24316944E+03</pdfrwt>
<totfact> 0.70595837E+02</totfact>
</mgrwt>
</event>
<event>
 4    1  0.6912310E-008  0.5512591E+03  0.7818608E-02  0.1001203E+00
         -2   -1    0    0    0  501 -0.00000000000E+00  0.00000000000E+00  0.16168991059E+04  0.16168991059E+04  0.25500000000E-02 0.  1.
          2   -1    0    0  501    0  0.00000000000E+00 -0.00000000000E+00 -0.34859341133E+03  0.34859341134E+03  0.25500000000E-02 0. -1.
    8880022    1    1    2    0    0  0.46518305344E+03 -0.25317913813E+03 -0.32993762874E+02  0.55224558902E+03  0.15294330000E+03 0.  0.
    8880022    1    1    2    0    0 -0.46518305344E+03  0.25317913813E+03  0.13012994575E+04  0.14132469283E+04  0.15294330000E+03 0.  0.
<mgrwt>
<rscale>  0 0.55125911E+03</rscale>
<asrwt>0</asrwt>
<pdfrwt beam="1">  1        2 0.53629756E-01 0.55125911E+03</pdfrwt>
<pdfrwt beam="2">  1       -2 0.24875371E+00 0.55125911E+03</pdfrwt>
<totfact> 0.64125789E+00</totfact>
</mgrwt>
</event>
<event>
 4    1  0.6912310E-008  0.5421768E+03  0.7818608E-02  0.1003321E+00
         -2   -1    0    0    0  501 -0.00000000000E+00  0.00000000000E+00  0.38631775241E+03  0.38631775241E+03  0.25500000000E-02 0.  1.
          2   -1    0    0  501    0  0.00000000000E+00 -0.00000000000E+00 -0.31676015558E+04  0.31676015558E+04  0.25500000000E-02 0. -1.
    8880022    1    1    2    0    0  0.41929569109E+03 -0.30782316554E+03  0.15825284102E+03  0.56480048912E+03  0.15294330000E+03 0.  0.
    8880022    1    1    2    0    0 -0.41929569109E+03  0.30782316554E+03 -0.29395366444E+04  0.29891188191E+04  0.15294330000E+03 0.  0.
<mgrwt>
<rscale>  0 0.54217675E+03</rscale>
<asrwt>0</asrwt>
<pdfrwt beam="1">  1        2 0.48732330E+00 0.54217675E+03</pdfrwt>
<pdfrwt beam="2">  1       -2 0.59433503E-01 0.54217675E+03</pdfrwt>
<totfact> 0.40561162E+00</totfact>
</mgrwt>
</event>
<event>
 4    1  0.6912310E-008  0.9717267E+03  0.7818608E-02  0.9340110E-01
         -2   -1    0    0    0  501 -0.00000000000E+00  0.00000000000E+00  0.72070853722E+03  0.72070853722E+03  0.25500000000E-02 0.  1.
          2   -1    0    0  501    0  0.00000000000E+00 -0.00000000000E+00 -0.20940610178E+04  0.20940610178E+04  0.25500000000E-02 0. -1.
    8880022    1    1    2    0    0 -0.55453706481E+03 -0.78316649480E+03  0.17440719366E+03  0.98725408940E+03  0.15294330000E+03 0.  1.
    8880022    1    1    2    0    0  0.55453706481E+03  0.78316649480E+03 -0.15477596742E+04  0.18275154656E+04  0.15294330000E+03 0.  0.
<mgrwt>
<rscale>  0 0.97172669E+03</rscale>
<asrwt>0</asrwt>
<pdfrwt beam="1">  1        2 0.32216323E+00 0.97172669E+03</pdfrwt>
<pdfrwt beam="2">  1       -2 0.11087824E+00 0.97172669E+03</pdfrwt>
<totfact> 0.38336846E+00</totfact>
</mgrwt>
</event>
<event>
 4    1  0.6912310E-008  0.7065955E+03  0.7818608E-02  0.9706019E-01
         -2   -1    0    0    0  501 -0.00000000000E+00  0.00000000000E+00  0.36627958638E+03  0.36627958639E+03  0.25500000000E-02 0.  1.
          2   -1    0    0  501    0  0.00000000000E+00 -0.00000000000E+00 -0.15185461888E+04  0.15185461888E+04  0.25500000000E-02 0. -1.
    8880022    1    1    2    0    0  0.54971014682E+03  0.41677850159E+03 -0.27461652604E+03  0.75808406809E+03  0.15294330000E+03 0.  0.
    8880022    1    1    2    0    0 -0.54971014682E+03 -0.41677850159E+03 -0.87765007635E+03  0.11267417071E+04  0.15294330000E+03 0.  0.
<mgrwt>
<rscale>  0 0.70659551E+03</rscale>
<asrwt>0</asrwt>
<pdfrwt beam="1">  1        2 0.23362249E+00 0.70659551E+03</pdfrwt>
<pdfrwt beam="2">  1       -2 0.56350707E-01 0.70659551E+03</pdfrwt>
<totfact> 0.37650502E+01</totfact>
</mgrwt>
</event>
<event>
 4    1  0.6912310E-008  0.5339221E+03  0.7818608E-02  0.1005285E+00
         -2   -1    0    0    0  501 -0.00000000000E+00  0.00000000000E+00  0.23616865010E+03  0.23616865012E+03  0.25500000000E-02 0.  1.
          2   -1    0    0  501    0  0.00000000000E+00 -0.00000000000E+00 -0.12102020186E+04  0.12102020186E+04  0.25500000000E-02 0. -1.
    8880022    1    1    2    0    0  0.31596316957E+03 -0.40230387249E+03 -0.52378975773E+03  0.74794952615E+03  0.15294330000E+03 0.  1.
    8880022    1    1    2    0    0 -0.31596316957E+03  0.40230387249E+03 -0.45024361079E+03  0.69842114259E+03  0.15294330000E+03 0.  0.
<mgrwt>
<rscale>  0 0.53392208E+03</rscale>
<asrwt>0</asrwt>
<pdfrwt beam="1">  1        2 0.18618492E+00 0.53392208E+03</pdfrwt>
<pdfrwt beam="2">  1       -2 0.36333639E-01 0.53392208E+03</pdfrwt>
<totfact> 0.13754756E+02</totfact>
</mgrwt>
</event>
<event>
 4    1  0.6912310E-008  0.8329108E+03  0.7818608E-02  0.9513565E-01
         -2   -1    0    0    0  501 -0.00000000000E+00  0.00000000000E+00  0.62003403066E+03  0.62003403066E+03  0.25500000000E-02 0.  1.
          2   -1    0    0  501    0  0.00000000000E+00 -0.00000000000E+00 -0.18636694473E+04  0.18636694473E+04  0.25500000000E-02 0. -1.
    8880022    1    1    2    0    0 -0.65887813300E+03  0.48603324748E+03 -0.14068791029E+04  0.16349462300E+04  0.15294330000E+03 0.  0.
    8880022    1    1    2    0    0  0.65887813300E+03 -0.48603324748E+03  0.16324368628E+03  0.84875724794E+03  0.15294330000E+03 0.  0.
<mgrwt>
<rscale>  0 0.83291078E+03</rscale>
<asrwt>0</asrwt>
<pdfrwt beam="1">  1        2 0.28671837E+00 0.83291078E+03</pdfrwt>
<pdfrwt beam="2">  1       -2 0.95389852E-01 0.83291078E+03</pdfrwt>
<totfact> 0.74908294E+00</totfact>
</mgrwt>
</event>
<event>
 4    1  0.6912310E-008  0.4602659E+03  0.7818608E-02  0.1024704E+00
          2   -1    0    0  501    0  0.00000000000E+00  0.00000000000E+00  0.16383786119E+04  0.16383786119E+04  0.25500000000E-02 0. -1.
         -2   -1    0    0    0  501 -0.00000000000E+00 -0.00000000000E+00 -0.18760544754E+03  0.18760544756E+03  0.25500000000E-02 0.  1.
    8880022    1    1    2    0    0  0.21341673819E+03 -0.37802958414E+03  0.12343580591E+04  0.13173779039E+04  0.15294330000E+03 0.  0.
    8880022    1    1    2    0    0 -0.21341673819E+03  0.37802958414E+03  0.21641510519E+03  0.50860615549E+03  0.15294330000E+03 0.  1.
<mgrwt>
<rscale>  0 0.46026593E+03</rscale>
<asrwt>0</asrwt>
<pdfrwt beam="1">  1        2 0.25205824E+00 0.46026593E+03</pdfrwt>
<pdfrwt beam="2">  1       -2 0.28862378E-01 0.46026593E+03</pdfrwt>
<totfact> 0.12319109E+02</totfact>
</mgrwt>
</event>
<event>
 4    1  0.6912310E-008  0.2652191E+03  0.7818608E-02  0.1104047E+00
          2   -1    0    0  501    0  0.00000000000E+00  0.00000000000E+00  0.48361465288E+03  0.48361465288E+03  0.25500000000E-02 0. -1.
         -2   -1    0    0    0  501 -0.00000000000E+00 -0.00000000000E+00 -0.54476450831E+03  0.54476450832E+03  0.25500000000E-02 0.  1.
    8880022    1    1    2    0    0 -0.21505860715E+03 -0.26444474435E+02 -0.47080232824E+03  0.54036654229E+03  0.15294330000E+03 0.  1.
    8880022    1    1    2    0    0  0.21505860715E+03  0.26444474435E+02  0.40965247280E+03  0.48801261892E+03  0.15294330000E+03 0.  0.
<mgrwt>
<rscale>  0 0.26521909E+03</rscale>
<asrwt>0</asrwt>
<pdfrwt beam="1">  1        2 0.74402254E-01 0.26521909E+03</pdfrwt>
<pdfrwt beam="2">  1       -2 0.83809924E-01 0.26521909E+03</pdfrwt>
<totfact> 0.84015426E+01</totfact>
</mgrwt>
</event>
<event>
 4    1  0.6912310E-008  0.1807681E+04  0.7818608E-02  0.8702225E-01
          2   -1    0    0  501    0  0.00000000000E+00  0.00000000000E+00  0.17101759476E+04  0.17101759476E+04  0.25500000000E-02 0. -1.
         -2   -1    0    0    0  501 -0.00000000000E+00 -0.00000000000E+00 -0.23309927604E+04  0.23309927604E+04  0.25500000000E-02 0.  1.
    8880022    1    1    2    0    0 -0.14335304876E+04  0.10905544297E+04 -0.11683528906E+04  0.21523844343E+04  0.15294330000E+03 0.  0.
    8880022    1    1    2    0    0  0.14335304876E+04 -0.10905544297E+04  0.54753607780E+03  0.18887842737E+04  0.15294330000E+03 0.  0.
<mgrwt>
<rscale>  0 0.18076809E+04</rscale>
<asrwt>0</asrwt>
<pdfrwt beam="1">  1        2 0.26310399E+00 0.18076809E+04</pdfrwt>
<pdfrwt beam="2">  1       -2 0.35861427E+00 0.18076809E+04</pdfrwt>
<totfact> 0.12072653E-01</totfact>
</mgrwt>
</event>
<event>
 4    1  0.6912310E-008  0.2008372E+03  0.7818608E-02  0.1149035E+00
          2   -1    0    0  501    0  0.00000000000E+00  0.00000000000E+00  0.32865102847E+03  0.32865102848E+03  0.25500000000E-02 0. -1.
         -2   -1    0    0    0  501 -0.00000000000E+00 -0.00000000000E+00 -0.24906452246E+03  0.24906452247E+03  0.25500000000E-02 0.  1.
    8880022    1    1    2    0    0  0.12954327590E+03 -0.12746928888E+02 -0.16593209514E+03  0.26051690490E+03  0.15294330000E+03 0.  1.
    8880022    1    1    2    0    0 -0.12954327590E+03  0.12746928888E+02  0.24551860115E+03  0.31719864605E+03  0.15294330000E+03 0. -1.
<mgrwt>
<rscale>  0 0.20083724E+03</rscale>
<asrwt>0</asrwt>
<pdfrwt beam="1">  1        2 0.50561697E-01 0.20083724E+03</pdfrwt>
<pdfrwt beam="2">  1       -2 0.38317619E-01 0.20083724E+03</pdfrwt>
<totfact> 0.64195724E+02</totfact>
</mgrwt>
</event>
<event>
 4    1  0.6912310E-008  0.2824775E+03  0.7818608E-02  0.1094343E+00
         -2   -1    0    0    0  501 -0.00000000000E+00  0.00000000000E+00  0.11583220073E+04  0.11583220073E+04  0.25500000000E-02 0.  1.
          2   -1    0    0  501    0  0.00000000000E+00 -0.00000000000E+00 -0.32638312821E+03  0.32638312822E+03  0.25500000000E-02 0. -1.
    8880022    1    1    2    0    0 -0.21047947972E+03  0.11000130302E+03 -0.24340415926E+03  0.37287951916E+03  0.15294330000E+03 0. -1.
    8880022    1    1    2    0    0  0.21047947972E+03 -0.11000130302E+03  0.10753430383E+04  0.11118256163E+04  0.15294330000E+03 0.  0.
<mgrwt>
<rscale>  0 0.28247752E+03</rscale>
<asrwt>0</asrwt>
<pdfrwt beam="1">  1        2 0.50212790E-01 0.28247752E+03</pdfrwt>
<pdfrwt beam="2">  1       -2 0.17820338E+00 0.28247752E+03</pdfrwt>
<totfact> 0.20100834E+01</totfact>
</mgrwt>
</event>
<event>
 4    1  0.6912310E-008  0.7953982E+03  0.7818608E-02  0.9566702E-01
         -2   -1    0    0    0  501 -0.00000000000E+00  0.00000000000E+00  0.16508538973E+04  0.16508538973E+04  0.25500000000E-02 0.  1.
          2   -1    0    0  501    0  0.00000000000E+00 -0.00000000000E+00 -0.57481058249E+03  0.57481058249E+03  0.25500000000E-02 0. -1.
    8880022    1    1    2    0    0 -0.68398346181E+03 -0.37607610013E+03  0.11804756324E+04  0.14234398410E+04  0.15294330000E+03 0.  0.
    8880022    1    1    2    0    0  0.68398346181E+03  0.37607610013E+03 -0.10443231762E+03  0.80222463880E+03  0.15294330000E+03 0.  0.
<mgrwt>
<rscale>  0 0.79539818E+03</rscale>
<asrwt>0</asrwt>
<pdfrwt beam="1">  1        2 0.88432397E-01 0.79539818E+03</pdfrwt>
<pdfrwt beam="2">  1       -2 0.25397752E+00 0.79539818E+03</pdfrwt>
<totfact> 0.32494954E+00</totfact>
</mgrwt>
</event>
<event>
 4    1  0.6912310E-008  0.3951179E+03  0.7818608E-02  0.1045483E+00
         -2   -1    0    0    0  501 -0.00000000000E+00  0.00000000000E+00  0.46949050240E+03  0.46949050241E+03  0.25500000000E-02 0.  1.
          2   -1    0    0  501    0  0.00000000000E+00 -0.00000000000E+00 -0.69365427018E+03  0.69365427019E+03  0.25500000000E-02 0. -1.
    8880022    1    1    2    0    0  0.39501924300E+02  0.36216862518E+03  0.30754423889E+03  0.50070113539E+03  0.15294330000E+03 0.  0.
    8880022    1    1    2    0    0 -0.39501924300E+02 -0.36216862518E+03 -0.53170800668E+03  0.66244363720E+03  0.15294330000E+03 0.  0.
<mgrwt>
<rscale>  0 0.39511792E+03</rscale>
<asrwt>0</asrwt>
<pdfrwt beam="1">  1        2 0.10671604E+00 0.39511792E+03</pdfrwt>
<pdfrwt beam="2">  1       -2 0.72229308E-01 0.39511792E+03</pdfrwt>
<totfact> 0.75195479E+01</totfact>
</mgrwt>
</event>
<event>
 4    1  0.6912310E-008  0.2106282E+03  0.7818608E-02  0.1141070E+00
          2   -1    0    0  501    0  0.00000000000E+00  0.00000000000E+00  0.20030653515E+04  0.20030653515E+04  0.25500000000E-02 0. -1.
         -2   -1    0    0    0  501 -0.00000000000E+00 -0.00000000000E+00 -0.57314249214E+02  0.57314249271E+02  0.25500000000E-02 0.  1.
    8880022    1    1    2    0    0 -0.61890630366E+02 -0.13092793970E+03  0.17798279693E+04  0.17922477030E+04  0.15294330000E+03 0. -1.
    8880022    1    1    2    0    0  0.61890630366E+02  0.13092793970E+03  0.16592313289E+03  0.26813189770E+03  0.15294330000E+03 0.  0.
<mgrwt>
<rscale>  0 0.21062818E+03</rscale>
<asrwt>0</asrwt>
<pdfrwt beam="1">  1        2 0.30816390E+00 0.21062818E+03</pdfrwt>
<pdfrwt beam="2">  1       -2 0.88175767E-02 0.21062818E+03</pdfrwt>
<totfact> 0.60756565E+02</totfact>
</mgrwt>
</event>
<event>
 4    1  0.6912310E-008  0.9398747E+03  0.7818608E-02  0.9377064E-01
          2   -1    0    0  501    0  0.00000000000E+00  0.00000000000E+00  0.79091884566E+03  0.79091884567E+03  0.25500000000E-02 0. -1.
         -2   -1    0    0    0  501 -0.00000000000E+00 -0.00000000000E+00 -0.14270388465E+04  0.14270388465E+04  0.25500000000E-02 0.  1.
    8880022    1    1    2    0    0 -0.51199335138E+03 -0.77319829072E+03 -0.83506506080E+03  0.12572581666E+04  0.15294330000E+03 0.  0.
    8880022    1    1    2    0    0  0.51199335138E+03  0.77319829072E+03  0.19894505995E+03  0.96069952561E+03  0.15294330000E+03 0.  0.
<mgrwt>
<rscale>  0 0.93987469E+03</rscale>
<asrwt>0</asrwt>
<pdfrwt beam="1">  1        2 0.12167982E+00 0.93987469E+03</pdfrwt>
<pdfrwt beam="2">  1       -2 0.21954444E+00 0.93987469E+03</pdfrwt>
<totfact> 0.34827723E+00</totfact>
</mgrwt>
</event>
<event>
 4    1  0.6912310E-008  0.3340727E+03  0.7818608E-02  0.1069349E+00
         -2   -1    0    0    0  501 -0.00000000000E+00  0.00000000000E+00  0.11741806601E+03  0.11741806604E+03  0.25500000000E-02 0.  1.
          2   -1    0    0  501    0  0.00000000000E+00 -0.00000000000E+00 -0.15286610053E+04  0.15286610053E+04  0.25500000000E-02 0. -1.
    8880022    1    1    2    0    0  0.16117015937E+03 -0.24947370387E+03 -0.12117881616E+04  0.12569944911E+04  0.15294330000E+03 0.  0.
    8880022    1    1    2    0    0 -0.16117015937E+03  0.24947370387E+03 -0.19945477771E+03  0.38908458021E+03  0.15294330000E+03 0.  0.
<mgrwt>
<rscale>  0 0.33407275E+03</rscale>
<asrwt>0</asrwt>
<pdfrwt beam="1">  1        2 0.23517860E+00 0.33407275E+03</pdfrwt>
<pdfrwt beam="2">  1       -2 0.18064319E-01 0.33407275E+03</pdfrwt>
<totfact> 0.32845597E+02</totfact>
</mgrwt>
</event>
<event>
 4    1  0.6912310E-008  0.6571585E+03  0.7818608E-02  0.9793439E-01
         -2   -1    0    0    0  501 -0.00000000000E+00  0.00000000000E+00  0.40103243296E+03  0.40103243297E+03  0.25500000000E-02 0.  1.
          2   -1    0    0  501    0  0.00000000000E+00 -0.00000000000E+00 -0.18532777938E+04  0.18532777938E+04  0.25500000000E-02 0. -1.
    8880022    1    1    2    0    0  0.42109003253E+03  0.48077937751E+03  0.34358227039E+01  0.65716746969E+03  0.15294330000E+03 0.  0.
    8880022    1    1    2    0    0 -0.42109003253E+03 -0.48077937751E+03 -0.14556811836E+04  0.15971427571E+04  0.15294330000E+03 0.  0.
<mgrwt>
<rscale>  0 0.65715849E+03</rscale>
<asrwt>0</asrwt>
<pdfrwt beam="1">  1        2 0.28511966E+00 0.65715849E+03</pdfrwt>
<pdfrwt beam="2">  1       -2 0.61697298E-01 0.65715849E+03</pdfrwt>
<totfact> 0.20554316E+01</totfact>
</mgrwt>
</event>
<event>
 4    1  0.1231950E-007  0.1203889E+04  0.7818608E-02  0.9109459E-01
          2   -1    0    0  501    0  0.00000000000E+00  0.00000000000E+00  0.42423126013E+04  0.42423126013E+04  0.25500000000E-02 0. -1.
         -2   -1    0    0    0  501 -0.00000000000E+00 -0.00000000000E+00 -0.11735683841E+04  0.11735683841E+04  0.25500000000E-02 0.  1.
    8880022    1    1    2    0    0  0.11123122771E+04  0.43441845598E+03  0.38143336399E+04  0.39998113413E+04  0.15294330000E+03 0.  0.
    8880022    1    1    2    0    0 -0.11123122771E+04 -0.43441845598E+03 -0.74558942269E+03  0.14160696441E+04  0.15294330000E+03 0.  0.
<mgrwt>
<rscale>  0 0.12038894E+04</rscale>
<asrwt>0</asrwt>
<pdfrwt beam="1">  1        2 0.65266346E+00 0.12038894E+04</pdfrwt>
<pdfrwt beam="2">  1       -2 0.18054899E+00 0.12038894E+04</pdfrwt>
<totfact> 0.38869255E-02</totfact>
</mgrwt>
</event>
<event>
 4    1  0.6912310E-008  0.2178539E+03  0.7818608E-02  0.1135493E+00
          2   -1    0    0  501    0  0.00000000000E+00  0.00000000000E+00  0.19771412978E+04  0.19771412978E+04  0.25500000000E-02 0. -1.
         -2   -1    0    0    0  501 -0.00000000000E+00 -0.00000000000E+00 -0.22087934956E+03  0.22087934958E+03  0.25500000000E-02 0.  1.
    8880022    1    1    2    0    0 -0.13229504701E+03 -0.81035237886E+02  0.19157055087E+04  0.19280528878E+04  0.15294330000E+03 0.  0.
    8880022    1    1    2    0    0  0.13229504701E+03  0.81035237886E+02 -0.15944356041E+03  0.26996775958E+03  0.15294330000E+03 0.  1.
<mgrwt>
<rscale>  0 0.21785395E+03</rscale>
<asrwt>0</asrwt>
<pdfrwt beam="1">  1        2 0.30417558E+00 0.21785395E+03</pdfrwt>
<pdfrwt beam="2">  1       -2 0.33981439E-01 0.21785395E+03</pdfrwt>
<totfact> 0.63987229E+01</totfact>
</mgrwt>
</event>
<event>
 4    1  0.6912310E-008  0.5911800E+03  0.7818608E-02  0.9923876E-01
         -2   -1    0    0    0  501 -0.00000000000E+00  0.00000000000E+00  0.38825065762E+03  0.38825065763E+03  0.25500000000E-02 0.  1.
          2   -1    0    0  501    0  0.00000000000E+00 -0.00000000000E+00 -0.16969309999E+04  0.16969309999E+04  0.25500000000E-02 0. -1.
    8880022    1    1    2    0    0  0.10072165618E+02 -0.57096470100E+03 -0.13687448668E+04  0.14909581824E+04  0.15294330000E+03 0.  0.
    8880022    1    1    2    0    0 -0.10072165618E+02  0.57096470100E+03  0.60064524474E+02  0.59422347516E+03  0.15294330000E+03 0.  0.
<mgrwt>
<rscale>  0 0.59118000E+03</rscale>
<asrwt>0</asrwt>
<pdfrwt beam="1">  1        2 0.26106630E+00 0.59118000E+03</pdfrwt>
<pdfrwt beam="2">  1       -2 0.59730872E-01 0.59118000E+03</pdfrwt>
<totfact> 0.27030743E+01</totfact>
</mgrwt>
</event>
<event>
 4    1  0.6912310E-008  0.5260776E+03  0.7818608E-02  0.1007188E+00
         -2   -1    0    0    0  501 -0.00000000000E+00  0.00000000000E+00  0.52913527156E+03  0.52913527156E+03  0.25500000000E-02 0.  1.
          2   -1    0    0  501    0  0.00000000000E+00 -0.00000000000E+00 -0.15800703218E+04  0.15800703218E+04  0.25500000000E-02 0. -1.
    8880022    1    1    2    0    0 -0.50170889725E+03  0.40671092759E+02 -0.13880386978E+04  0.14843884380E+04  0.15294330000E+03 0.  0.
    8880022    1    1    2    0    0  0.50170889725E+03 -0.40671092759E+02  0.33710364757E+03  0.62481715532E+03  0.15294330000E+03 0.  0.
<mgrwt>
<rscale>  0 0.52607757E+03</rscale>
<asrwt>0</asrwt>
<pdfrwt beam="1">  1        2 0.24308774E+00 0.52607757E+03</pdfrwt>
<pdfrwt beam="2">  1       -2 0.81405427E-01 0.52607757E+03</pdfrwt>
<totfact> 0.16150535E+01</totfact>
</mgrwt>
</event>
<event>
 4    1  0.6912310E-008  0.5241415E+03  0.7818608E-02  0.1007663E+00
          2   -1    0    0  501    0  0.00000000000E+00  0.00000000000E+00  0.33437048071E+03  0.33437048071E+03  0.25500000000E-02 0. -1.
         -2   -1    0    0    0  501 -0.00000000000E+00 -0.00000000000E+00 -0.15180095476E+04  0.15180095476E+04  0.25500000000E-02 0.  1.
    8880022    1    1    2    0    0  0.27500964928E+03 -0.41916858737E+03  0.35501851618E+02  0.52534240864E+03  0.15294330000E+03 0.  0.
    8880022    1    1    2    0    0 -0.27500964928E+03  0.41916858737E+03 -0.12191409185E+04  0.13270376197E+04  0.15294330000E+03 0.  0.
<mgrwt>
<rscale>  0 0.52414145E+03</rscale>
<asrwt>0</asrwt>
<pdfrwt beam="1">  1        2 0.51441613E-01 0.52414145E+03</pdfrwt>
<pdfrwt beam="2">  1       -2 0.23353993E+00 0.52414145E+03</pdfrwt>
<totfact> 0.83358443E+00</totfact>
</mgrwt>
</event>
<event>
 4    1  0.6912310E-008  0.6922408E+03  0.7818608E-02  0.9730594E-01
          2   -1    0    0  501    0  0.00000000000E+00  0.00000000000E+00  0.42096770529E+03  0.42096770530E+03  0.25500000000E-02 0. -1.
         -2   -1    0    0    0  501 -0.00000000000E+00 -0.00000000000E+00 -0.15071278369E+04  0.15071278369E+04  0.25500000000E-02 0.  1.
    8880022    1    1    2    0    0 -0.62780827522E-01 -0.67513378979E+03 -0.66186222688E+02  0.69539766116E+03  0.15294330000E+03 0.  0.
    8880022    1    1    2    0    0  0.62780827522E-01  0.67513378979E+03 -0.10199739090E+04  0.12326978811E+04  0.15294330000E+03 0.  0.
<mgrwt>
<rscale>  0 0.69224078E+03</rscale>
<asrwt>0</asrwt>
<pdfrwt beam="1">  1        2 0.64764263E-01 0.69224078E+03</pdfrwt>
<pdfrwt beam="2">  1       -2 0.23186582E+00 0.69224078E+03</pdfrwt>
<totfact> 0.64453940E+00</totfact>
</mgrwt>
</event>
<event>
 4    1  0.6912310E-008  0.4583235E+03  0.7818608E-02  0.1025269E+00
         -2   -1    0    0    0  501 -0.00000000000E+00  0.00000000000E+00  0.64254158964E+03  0.64254158965E+03  0.25500000000E-02 0.  1.
          2   -1    0    0  501    0  0.00000000000E+00 -0.00000000000E+00 -0.50905341066E+03  0.50905341067E+03  0.25500000000E-02 0. -1.
    8880022    1    1    2    0    0  0.35168809593E+03  0.25096661499E+03  0.41115871260E+03  0.61572063359E+03  0.15294330000E+03 0.  0.
    8880022    1    1    2    0    0 -0.35168809593E+03 -0.25096661499E+03 -0.27767053362E+03  0.53587436673E+03  0.15294330000E+03 0.  0.
<mgrwt>
<rscale>  0 0.45832348E+03</rscale>
<asrwt>0</asrwt>
<pdfrwt beam="1">  1        2 0.78315909E-01 0.45832348E+03</pdfrwt>
<pdfrwt beam="2">  1       -2 0.98852552E-01 0.45832348E+03</pdfrwt>
<totfact> 0.53063219E+01</totfact>
</mgrwt>
</event>
<event>
 4    1  0.6912310E-008  0.8183089E+03  0.7818608E-02  0.9533887E-01
         -2   -1    0    0    0  501 -0.00000000000E+00  0.00000000000E+00  0.97085388255E+03  0.97085388255E+03  0.25500000000E-02 0.  1.
          2   -1    0    0  501    0  0.00000000000E+00 -0.00000000000E+00 -0.10732884295E+04  0.10732884295E+04  0.25500000000E-02 0. -1.
    8880022    1    1    2    0    0  0.54252444940E+03 -0.59321588588E+03 -0.66221167931E+03  0.10526888556E+04  0.15294330000E+03 0.  0.
    8880022    1    1    2    0    0 -0.54252444940E+03  0.59321588588E+03  0.55977713234E+03  0.99145345648E+03  0.15294330000E+03 0.  0.
<mgrwt>
<rscale>  0 0.81830894E+03</rscale>
<asrwt>0</asrwt>
<pdfrwt beam="1">  1        2 0.16512130E+00 0.81830894E+03</pdfrwt>
<pdfrwt beam="2">  1       -2 0.14936214E+00 0.81830894E+03</pdfrwt>
<totfact> 0.69325602E+00</totfact>
</mgrwt>
</event>
<event>
 4    1  0.6912310E-008  0.2704993E+03  0.7818608E-02  0.1100994E+00
         -2   -1    0    0    0  501 -0.00000000000E+00  0.00000000000E+00  0.48746915999E+03  0.48746916000E+03  0.25500000000E-02 0.  1.
          2   -1    0    0  501    0  0.00000000000E+00 -0.00000000000E+00 -0.11168269010E+04  0.11168269010E+04  0.25500000000E-02 0. -1.
    8880022    1    1    2    0    0 -0.19854742542E+03  0.10176999295E+03 -0.10609783653E+04  0.10949177852E+04  0.15294330000E+03 0. -1.
    8880022    1    1    2    0    0  0.19854742542E+03 -0.10176999295E+03  0.43162062428E+03  0.50937827586E+03  0.15294330000E+03 0.  0.
<mgrwt>
<rscale>  0 0.27049929E+03</rscale>
<asrwt>0</asrwt>
<pdfrwt beam="1">  1        2 0.17181952E+00 0.27049929E+03</pdfrwt>
<pdfrwt beam="2">  1       -2 0.74995256E-01 0.27049929E+03</pdfrwt>
<totfact> 0.37271216E+01</totfact>
</mgrwt>
</event>
<event>
 4    1  0.6912310E-008  0.9132828E+03  0.7818608E-02  0.9409128E-01
          2   -1    0    0  501    0  0.00000000000E+00  0.00000000000E+00  0.15609460310E+04  0.15609460310E+04  0.25500000000E-02 0. -1.
         -2   -1    0    0    0  501 -0.00000000000E+00 -0.00000000000E+00 -0.75766656002E+03  0.75766656003E+03  0.25500000000E-02 0.  1.
    8880022    1    1    2    0    0 -0.62981642244E+03  0.64344779447E+03 -0.22775539605E+03  0.94125340033E+03  0.15294330000E+03 0.  0.
    8880022    1    1    2    0    0  0.62981642244E+03 -0.64344779447E+03  0.10310348671E+04  0.13773591907E+04  0.15294330000E+03 0.  0.
<mgrwt>
<rscale>  0 0.91328278E+03</rscale>
<asrwt>0</asrwt>
<pdfrwt beam="1">  1        2 0.24014554E+00 0.91328278E+03</pdfrwt>
<pdfrwt beam="2">  1       -2 0.11656409E+00 0.91328278E+03</pdfrwt>
<totfact> 0.67209091E+00</totfact>
</mgrwt>
</event>
<event>
 4    1  0.6912310E-008  0.1036485E+04  0.7818608E-02  0.9269410E-01
          2   -1    0    0  501    0  0.00000000000E+00  0.00000000000E+00  0.16902096482E+04  0.16902096482E+04  0.25500000000E-02 0. -1.
         -2   -1    0    0    0  501 -0.00000000000E+00 -0.00000000000E+00 -0.85900706546E+03  0.85900706546E+03  0.25500000000E-02 0.  1.
    8880022    1    1    2    0    0 -0.83765684693E+03 -0.59096499576E+03  0.10656188808E+04  0.14865543621E+04  0.15294330000E+03 0.  0.
    8880022    1    1    2    0    0  0.83765684693E+03  0.59096499576E+03 -0.23441629812E+03  0.10626623515E+04  0.15294330000E+03 0.  0.
<mgrwt>
<rscale>  0 0.10364846E+04</rscale>
<asrwt>0</asrwt>
<pdfrwt beam="1">  1        2 0.26003225E+00 0.10364846E+04</pdfrwt>
<pdfrwt beam="2">  1       -2 0.13215493E+00 0.10364846E+04</pdfrwt>
<totfact> 0.40978625E+00</totfact>
</mgrwt>
</event>
<event>
 4    1  0.6912310E-008  0.8680410E+03  0.7818608E-02  0.9466438E-01
          2   -1    0    0  501    0  0.00000000000E+00  0.00000000000E+00  0.21610693660E+04  0.21610693660E+04  0.25500000000E-02 0. -1.
         -2   -1    0    0    0  501 -0.00000000000E+00 -0.00000000000E+00 -0.50883484014E+03  0.50883484015E+03  0.25500000000E-02 0.  1.
    8880022    1    1    2    0    0 -0.35852275705E+03 -0.77560617269E+03  0.77148111242E+02  0.87146255601E+03  0.15294330000E+03 0.  0.
    8880022    1    1    2    0    0  0.35852275705E+03  0.77560617269E+03  0.15750864146E+04  0.17984416501E+04  0.15294330000E+03 0.  0.
<mgrwt>
<rscale>  0 0.86804099E+03</rscale>
<asrwt>0</asrwt>
<pdfrwt beam="1">  1        2 0.33247221E+00 0.86804099E+03</pdfrwt>
<pdfrwt beam="2">  1       -2 0.78282283E-01 0.86804099E+03</pdfrwt>
<totfact> 0.80520085E+00</totfact>
</mgrwt>
</event>
<event>
 4    1  0.6912310E-008  0.7724140E+03  0.7818608E-02  0.9600828E-01
          2   -1    0    0  501    0  0.00000000000E+00  0.00000000000E+00  0.24895646535E+04  0.24895646535E+04  0.25500000000E-02 0. -1.
         -2   -1    0    0    0  501 -0.00000000000E+00 -0.00000000000E+00 -0.44180454695E+03  0.44180454696E+03  0.25500000000E-02 0.  1.
    8880022    1    1    2    0    0  0.51866642996E+03 -0.55155857026E+03  0.20153225582E+04  0.21582744007E+04  0.15294330000E+03 0.  0.
    8880022    1    1    2    0    0 -0.51866642996E+03  0.55155857026E+03  0.32437548415E+02  0.77309479985E+03  0.15294330000E+03 0.  0.
<mgrwt>
<rscale>  0 0.77241399E+03</rscale>
<asrwt>0</asrwt>
<pdfrwt beam="1">  1        2 0.38300996E+00 0.77241399E+03</pdfrwt>
<pdfrwt beam="2">  1       -2 0.67969929E-01 0.77241399E+03</pdfrwt>
<totfact> 0.73115660E+00</totfact>
</mgrwt>
</event>
<event>
 4    1  0.6912310E-008  0.2762155E+03  0.7818608E-02  0.1097774E+00
         -2   -1    0    0    0  501 -0.00000000000E+00  0.00000000000E+00  0.12920024285E+03  0.12920024288E+03  0.25500000000E-02 0.  1.
          2   -1    0    0  501    0  0.00000000000E+00 -0.00000000000E+00 -0.24289361009E+04  0.24289361009E+04  0.25500000000E-02 0. -1.
    8880022    1    1    2    0    0  0.23143300032E+02  0.22883995284E+03 -0.22626442196E+04  0.22794415663E+04  0.15294330000E+03 0.  0.
    8880022    1    1    2    0    0 -0.23143300032E+02 -0.22883995284E+03 -0.37091638391E+02  0.27869477750E+03  0.15294330000E+03 0.  1.
<mgrwt>
<rscale>  0 0.27621548E+03</rscale>
<asrwt>0</asrwt>
<pdfrwt beam="1">  1        2 0.37368244E+00 0.27621548E+03</pdfrwt>
<pdfrwt beam="2">  1       -2 0.19876962E-01 0.27621548E+03</pdfrwt>
<totfact> 0.93663957E+01</totfact>
</mgrwt>
</event>
<event>
 4    1  0.6912310E-008  0.6060429E+03  0.7818608E-02  0.9892948E-01
          2   -1    0    0  501    0  0.00000000000E+00  0.00000000000E+00  0.48937621196E+03  0.48937621197E+03  0.25500000000E-02 0. -1.
         -2   -1    0    0    0  501 -0.00000000000E+00 -0.00000000000E+00 -0.18653768342E+04  0.18653768342E+04  0.25500000000E-02 0.  1.
    8880022    1    1    2    0    0  0.36618103576E+03  0.45804779325E+03 -0.15982092474E+04  0.17092573778E+04  0.15294330000E+03 0.  0.
    8880022    1    1    2    0    0 -0.36618103576E+03 -0.45804779325E+03  0.22220862516E+03  0.64549566843E+03  0.15294330000E+03 0.  0.
<mgrwt>
<rscale>  0 0.60604289E+03</rscale>
<asrwt>0</asrwt>
<pdfrwt beam="1">  1        2 0.75288649E-01 0.60604289E+03</pdfrwt>
<pdfrwt beam="2">  1       -2 0.28698105E+00 0.60604289E+03</pdfrwt>
<totfact> 0.25631137E+00</totfact>
</mgrwt>
</event>
<event>
 4    1  0.6912310E-008  0.7970611E+03  0.7818608E-02  0.9564281E-01
         -2   -1    0    0    0  501 -0.00000000000E+00  0.00000000000E+00  0.59503552743E+03  0.59503552744E+03  0.25500000000E-02 0.  1.
          2   -1    0    0  501    0  0.00000000000E+00 -0.00000000000E+00 -0.11347509404E+04  0.11347509404E+04  0.25500000000E-02 0. -1.
    8880022    1    1    2    0    0  0.40254889832E+03  0.67072288358E+03 -0.48013156345E+03  0.93050135590E+03  0.15294330000E+03 0.  0.
    8880022    1    1    2    0    0 -0.40254889832E+03 -0.67072288358E+03 -0.59583849555E+02  0.79928511198E+03  0.15294330000E+03 0.  0.
<mgrwt>
<rscale>  0 0.79706114E+03</rscale>
<asrwt>0</asrwt>
<pdfrwt beam="1">  1        2 0.17457707E+00 0.79706114E+03</pdfrwt>
<pdfrwt beam="2">  1       -2 0.91543927E-01 0.79706114E+03</pdfrwt>
<totfact> 0.21350290E+01</totfact>
</mgrwt>
</event>
<event>
 4    1  0.6912310E-008  0.3386434E+03  0.7818608E-02  0.1067375E+00
          2   -1    0    0  501    0  0.00000000000E+00  0.00000000000E+00  0.41058597302E+03  0.41058597303E+03  0.25500000000E-02 0. -1.
         -2   -1    0    0    0  501 -0.00000000000E+00 -0.00000000000E+00 -0.52385047614E+03  0.52385047615E+03  0.25500000000E-02 0.  1.
    8880022    1    1    2    0    0 -0.10707317887E+03  0.28252973378E+03 -0.37585549484E+03  0.50591177305E+03  0.15294330000E+03 0.  0.
    8880022    1    1    2    0    0  0.10707317887E+03 -0.28252973378E+03  0.26259099171E+03  0.42852467612E+03  0.15294330000E+03 0.  0.
<mgrwt>
<rscale>  0 0.33864342E+03</rscale>
<asrwt>0</asrwt>
<pdfrwt beam="1">  1        2 0.63167073E-01 0.33864342E+03</pdfrwt>
<pdfrwt beam="2">  1       -2 0.80592381E-01 0.33864342E+03</pdfrwt>
<totfact> 0.10901204E+02</totfact>
</mgrwt>
</event>
<event>
 4    1  0.6912310E-008  0.6480037E+03  0.7818608E-02  0.9810532E-01
         -2   -1    0    0    0  501 -0.00000000000E+00  0.00000000000E+00  0.54000887407E+03  0.54000887408E+03  0.25500000000E-02 0.  1.
          2   -1    0    0  501    0  0.00000000000E+00 -0.00000000000E+00 -0.13343364635E+04  0.13343364635E+04  0.25500000000E-02 0. -1.
    8880022    1    1    2    0    0 -0.29949547511E+03 -0.55391294564E+03 -0.10025232474E+04  0.11937175568E+04  0.15294330000E+03 0.  0.
    8880022    1    1    2    0    0  0.29949547511E+03  0.55391294564E+03  0.20819565792E+03  0.68062778077E+03  0.15294330000E+03 0.  0.
<mgrwt>
<rscale>  0 0.64800366E+03</rscale>
<asrwt>0</asrwt>
<pdfrwt beam="1">  1        2 0.20528253E+00 0.64800366E+03</pdfrwt>
<pdfrwt beam="2">  1       -2 0.83078289E-01 0.64800366E+03</pdfrwt>
<totfact> 0.20724785E+01</totfact>
</mgrwt>
</event>
<event>
 4    1  0.6912310E-008  0.9960455E+03  0.7818608E-02  0.9312893E-01
         -2   -1    0    0    0  501 -0.00000000000E+00  0.00000000000E+00  0.20182852545E+04  0.20182852545E+04  0.25500000000E-02 0.  1.
          2   -1    0    0  501    0  0.00000000000E+00 -0.00000000000E+00 -0.84519073091E+03  0.84519073092E+03  0.25500000000E-02 0. -1.
    8880022    1    1    2    0    0 -0.98423305434E+03 -0.58214883208E+00 -0.33956081905E+03  0.10523346649E+04  0.15294330000E+03 0.  0.
    8880022    1    1    2    0    0  0.98423305434E+03  0.58214883208E+00  0.15126553426E+04  0.18111413205E+04  0.15294330000E+03 0.  0.
<mgrwt>
<rscale>  0 0.99604553E+03</rscale>
<asrwt>0</asrwt>
<pdfrwt beam="1">  1        2 0.13002934E+00 0.99604553E+03</pdfrwt>
<pdfrwt beam="2">  1       -2 0.31050542E+00 0.99604553E+03</pdfrwt>
<totfact> 0.88205577E-01</totfact>
</mgrwt>
</event>
<event>
 4    1  0.6912310E-008  0.8502408E+03  0.7818608E-02  0.9490014E-01
          2   -1    0    0  501    0  0.00000000000E+00  0.00000000000E+00  0.20536201058E+04  0.20536201058E+04  0.25500000000E-02 0. -1.
         -2   -1    0    0    0  501 -0.00000000000E+00 -0.00000000000E+00 -0.56582583972E+03  0.56582583973E+03  0.25500000000E-02 0.  1.
    8880022    1    1    2    0    0  0.37267338370E+03  0.74875384313E+03 -0.61204616022E+02  0.85244086397E+03  0.15294330000E+03 0.  0.
    8880022    1    1    2    0    0 -0.37267338370E+03 -0.74875384313E+03  0.15489988821E+04  0.17670050816E+04  0.15294330000E+03 0.  0.
<mgrwt>
<rscale>  0 0.85024080E+03</rscale>
<asrwt>0</asrwt>
<pdfrwt beam="1">  1        2 0.31594155E+00 0.85024080E+03</pdfrwt>
<pdfrwt beam="2">  1       -2 0.87050131E-01 0.85024080E+03</pdfrwt>
<totfact> 0.72708049E+00</totfact>
</mgrwt>
</event>
<event>
 4    1  0.6912310E-008  0.4526416E+03  0.7818608E-02  0.1026937E+00
         -2   -1    0    0    0  501 -0.00000000000E+00  0.00000000000E+00  0.89877704682E+03  0.89877704682E+03  0.25500000000E-02 0.  1.
          2   -1    0    0  501    0  0.00000000000E+00 -0.00000000000E+00 -0.48869570632E+03  0.48869570632E+03  0.25500000000E-02 0. -1.
    8880022    1    1    2    0    0  0.41812398815E+03 -0.81640122157E+02 -0.30168882820E+03  0.54396744488E+03  0.15294330000E+03 0.  0.
    8880022    1    1    2    0    0 -0.41812398815E+03  0.81640122157E+02  0.71177016871E+03  0.84350530827E+03  0.15294330000E+03 0.  0.
<mgrwt>
<rscale>  0 0.45264162E+03</rscale>
<asrwt>0</asrwt>
<pdfrwt beam="1">  1        2 0.75183955E-01 0.45264162E+03</pdfrwt>
<pdfrwt beam="2">  1       -2 0.13827339E+00 0.45264162E+03</pdfrwt>
<totfact> 0.24506563E+01</totfact>
</mgrwt>
</event>
<event>
 4    1  0.6912310E-008  0.2859386E+03  0.7818608E-02  0.1092489E+00
         -2   -1    0    0    0  501 -0.00000000000E+00  0.00000000000E+00  0.62851315069E+02  0.62851315121E+02  0.25500000000E-02 0.  1.
          2   -1    0    0  501    0  0.00000000000E+00 -0.00000000000E+00 -0.26794145241E+04  0.26794145241E+04  0.25500000000E-02 0. -1.
    8880022    1    1    2    0    0  0.68096987773E+02  0.23180166857E+03 -0.32478850695E+03  0.43272212857E+03  0.15294330000E+03 0.  0.
    8880022    1    1    2    0    0 -0.68096987773E+02 -0.23180166857E+03 -0.22917747021E+04  0.23095437107E+04  0.15294330000E+03 0.  0.
<mgrwt>
<rscale>  0 0.28593857E+03</rscale>
<asrwt>0</asrwt>
<pdfrwt beam="1">  1        2 0.41221753E+00 0.28593857E+03</pdfrwt>
<pdfrwt beam="2">  1       -2 0.96694352E-02 0.28593857E+03</pdfrwt>
<totfact> 0.22283577E+02</totfact>
</mgrwt>
</event>
<event>
 4    1  0.6912310E-008  0.6876580E+03  0.7818608E-02  0.9738575E-01
         -2   -1    0    0    0  501 -0.00000000000E+00  0.00000000000E+00  0.69907142715E+03  0.69907142716E+03  0.25500000000E-02 0.  1.
          2   -1    0    0  501    0  0.00000000000E+00 -0.00000000000E+00 -0.83941991109E+03  0.83941991109E+03  0.25500000000E-02 0. -1.
    8880022    1    1    2    0    0 -0.65503671355E+03  0.14285930547E+03  0.26879052540E+03  0.73832369379E+03  0.15294330000E+03 0.  0.
    8880022    1    1    2    0    0  0.65503671355E+03 -0.14285930547E+03 -0.40913900934E+03  0.80016764446E+03  0.15294330000E+03 0.  0.
<mgrwt>
<rscale>  0 0.68765800E+03</rscale>
<asrwt>0</asrwt>
<pdfrwt beam="1">  1        2 0.12914152E+00 0.68765800E+03</pdfrwt>
<pdfrwt beam="2">  1       -2 0.10754945E+00 0.68765800E+03</pdfrwt>
<totfact> 0.22874365E+01</totfact>
</mgrwt>
</event>
<event>
 4    1  0.6912310E-008  0.9373455E+03  0.7818608E-02  0.9380065E-01
         -2   -1    0    0    0  501 -0.00000000000E+00  0.00000000000E+00  0.83678747707E+03  0.83678747707E+03  0.25500000000E-02 0.  1.
          2   -1    0    0  501    0  0.00000000000E+00 -0.00000000000E+00 -0.15600045394E+04  0.15600045394E+04  0.25500000000E-02 0. -1.
    8880022    1    1    2    0    0  0.45777081765E+03  0.80353645258E+03 -0.10468279414E+04  0.14051566973E+04  0.15294330000E+03 0.  0.
    8880022    1    1    2    0    0 -0.45777081765E+03 -0.80353645258E+03  0.32361087907E+03  0.99163531915E+03  0.15294330000E+03 0.  0.
<mgrwt>
<rscale>  0 0.93734551E+03</rscale>
<asrwt>0</asrwt>
<pdfrwt beam="1">  1        2 0.24000070E+00 0.93734551E+03</pdfrwt>
<pdfrwt beam="2">  1       -2 0.12873654E+00 0.93734551E+03</pdfrwt>
<totfact> 0.52338626E+00</totfact>
</mgrwt>
</event>
<event>
 4    1  0.6912310E-008  0.3707379E+03  0.7818608E-02  0.1054411E+00
          2   -1    0    0  501    0  0.00000000000E+00  0.00000000000E+00  0.11260457191E+04  0.11260457191E+04  0.25500000000E-02 0. -1.
         -2   -1    0    0    0  501 -0.00000000000E+00 -0.00000000000E+00 -0.20117525920E+04  0.20117525921E+04  0.25500000000E-02 0.  1.
    8880022    1    1    2    0    0 -0.33730846151E+03  0.16671054440E+02 -0.19634120942E+04  0.19981075113E+04  0.15294330000E+03 0.  0.
    8880022    1    1    2    0    0  0.33730846151E+03 -0.16671054440E+02  0.10777052212E+04  0.11396907998E+04  0.15294330000E+03 0. -1.
<mgrwt>
<rscale>  0 0.37073788E+03</rscale>
<asrwt>0</asrwt>
<pdfrwt beam="1">  1        2 0.17323780E+00 0.37073788E+03</pdfrwt>
<pdfrwt beam="2">  1       -2 0.30950040E+00 0.37073788E+03</pdfrwt>
<totfact> 0.68554100E-01</totfact>
</mgrwt>
</event>
<event>
 4    1  0.6912310E-008  0.1124771E+04  0.7818608E-02  0.9181379E-01
          2   -1    0    0  501    0  0.00000000000E+00  0.00000000000E+00  0.16338961483E+04  0.16338961483E+04  0.25500000000E-02 0. -1.
         -2   -1    0    0    0  501 -0.00000000000E+00 -0.00000000000E+00 -0.86703034799E+03  0.86703034799E+03  0.25500000000E-02 0.  1.
    8880022    1    1    2    0    0  0.55002780022E+03  0.96911706174E+03 -0.25533087441E+02  0.11250609103E+04  0.15294330000E+03 0.  0.
    8880022    1    1    2    0    0 -0.55002780022E+03 -0.96911706174E+03  0.79239888778E+03  0.13758655860E+04  0.15294330000E+03 0.  0.
<mgrwt>
<rscale>  0 0.11247711E+04</rscale>
<asrwt>0</asrwt>
<pdfrwt beam="1">  1        2 0.25136864E+00 0.11247711E+04</pdfrwt>
<pdfrwt beam="2">  1       -2 0.13338929E+00 0.11247711E+04</pdfrwt>
<totfact> 0.42596208E+00</totfact>
</mgrwt>
</event>
<event>
 4    1  0.6912310E-008  0.4651006E+03  0.7818608E-02  0.1023312E+00
         -2   -1    0    0    0  501 -0.00000000000E+00  0.00000000000E+00  0.18979639346E+03  0.18979639348E+03  0.25500000000E-02 0.  1.
          2   -1    0    0  501    0  0.00000000000E+00 -0.00000000000E+00 -0.22616599869E+04  0.22616599869E+04  0.25500000000E-02 0. -1.
    8880022    1    1    2    0    0  0.18582541840E+03  0.39798978430E+03 -0.18992311037E+04  0.19553509641E+04  0.15294330000E+03 0.  0.
    8880022    1    1    2    0    0 -0.18582541840E+03 -0.39798978430E+03 -0.17263248972E+03  0.49610541627E+03  0.15294330000E+03 0.  0.
<mgrwt>
<rscale>  0 0.46510064E+03</rscale>
<asrwt>0</asrwt>
<pdfrwt beam="1">  1        2 0.34794767E+00 0.46510064E+03</pdfrwt>
<pdfrwt beam="2">  1       -2 0.29199447E-01 0.46510064E+03</pdfrwt>
<totfact> 0.55641813E+01</totfact>
</mgrwt>
</event>
<event>
 4    1  0.6912310E-008  0.6085517E+03  0.7818608E-02  0.9887821E-01
          2   -1    0    0  501    0  0.00000000000E+00  0.00000000000E+00  0.40150843356E+04  0.40150843356E+04  0.25500000000E-02 0. -1.
         -2   -1    0    0    0  501 -0.00000000000E+00 -0.00000000000E+00 -0.12071852586E+03  0.12071852589E+03  0.25500000000E-02 0.  1.
    8880022    1    1    2    0    0 -0.54665472851E+03  0.21934482084E+03  0.94272357731E+03  0.11220797382E+04  0.15294330000E+03 0.  0.
    8880022    1    1    2    0    0  0.54665472851E+03 -0.21934482084E+03  0.29516422324E+04  0.30137231233E+04  0.15294330000E+03 0.  0.
<mgrwt>
<rscale>  0 0.60855172E+03</rscale>
<asrwt>0</asrwt>
<pdfrwt beam="1">  1        2 0.61770520E+00 0.60855172E+03</pdfrwt>
<pdfrwt beam="2">  1       -2 0.18572083E-01 0.60855172E+03</pdfrwt>
<totfact> 0.92009453E+00</totfact>
</mgrwt>
</event>
<event>
 4    1  0.6912310E-008  0.4404323E+03  0.7818608E-02  0.1030614E+00
          2   -1    0    0  501    0  0.00000000000E+00  0.00000000000E+00  0.17697721036E+04  0.17697721036E+04  0.25500000000E-02 0. -1.
         -2   -1    0    0    0  501 -0.00000000000E+00 -0.00000000000E+00 -0.23087077861E+03  0.23087077862E+03  0.25500000000E-02 0.  1.
    8880022    1    1    2    0    0 -0.21510483125E+03  0.35258887027E+03  0.44481747064E+02  0.44267288002E+03  0.15294330000E+03 0.  0.
    8880022    1    1    2    0    0  0.21510483125E+03 -0.35258887027E+03  0.14944195779E+04  0.15579700022E+04  0.15294330000E+03 0.  0.
<mgrwt>
<rscale>  0 0.44043235E+03</rscale>
<asrwt>0</asrwt>
<pdfrwt beam="1">  1        2 0.27227264E+00 0.44043235E+03</pdfrwt>
<pdfrwt beam="2">  1       -2 0.35518580E-01 0.44043235E+03</pdfrwt>
<totfact> 0.71397208E+01</totfact>
</mgrwt>
</event>
<event>
 4    1  0.6912310E-008  0.3712157E+03  0.7818608E-02  0.1054229E+00
          2   -1    0    0  501    0  0.00000000000E+00  0.00000000000E+00  0.13393412624E+04  0.13393412624E+04  0.25500000000E-02 0. -1.
         -2   -1    0    0    0  501 -0.00000000000E+00 -0.00000000000E+00 -0.29189228038E+03  0.29189228040E+03  0.25500000000E-02 0.  1.
    8880022    1    1    2    0    0  0.21744032320E+03  0.25909290766E+03 -0.13258936564E+03  0.39418399492E+03  0.15294330000E+03 0.  0.
    8880022    1    1    2    0    0 -0.21744032320E+03 -0.25909290766E+03  0.11800383477E+04  0.12370495479E+04  0.15294330000E+03 0.  0.
<mgrwt>
<rscale>  0 0.37121568E+03</rscale>
<asrwt>0</asrwt>
<pdfrwt beam="1">  1        2 0.20605250E+00 0.37121568E+03</pdfrwt>
<pdfrwt beam="2">  1       -2 0.44906504E-01 0.37121568E+03</pdfrwt>
<totfact> 0.78765653E+01</totfact>
</mgrwt>
</event>
<event>
 4    1  0.6912310E-008  0.3659927E+03  0.7818608E-02  0.1056236E+00
         -2   -1    0    0    0  501 -0.00000000000E+00  0.00000000000E+00  0.30800531990E+03  0.30800531991E+03  0.25500000000E-02 0.  1.
          2   -1    0    0  501    0  0.00000000000E+00 -0.00000000000E+00 -0.10448884839E+04  0.10448884840E+04  0.25500000000E-02 0. -1.
    8880022    1    1    2    0    0 -0.18149136330E+03 -0.27860345427E+03  0.14840369710E+03  0.39493583024E+03  0.15294330000E+03 0.  1.
    8880022    1    1    2    0    0  0.18149136330E+03  0.27860345427E+03 -0.88528686115E+03  0.95795797362E+03  0.15294330000E+03 0.  0.
<mgrwt>
<rscale>  0 0.36599269E+03</rscale>
<asrwt>0</asrwt>
<pdfrwt beam="1">  1        2 0.16075207E+00 0.36599269E+03</pdfrwt>
<pdfrwt beam="2">  1       -2 0.47385434E-01 0.36599269E+03</pdfrwt>
<totfact> 0.10501919E+02</totfact>
</mgrwt>
</event>
<event>
 4    1  0.6912310E-008  0.6637140E+03  0.7818608E-02  0.9781381E-01
         -2   -1    0    0    0  501 -0.00000000000E+00  0.00000000000E+00  0.53759470080E+03  0.53759470080E+03  0.25500000000E-02 0.  1.
          2   -1    0    0  501    0  0.00000000000E+00 -0.00000000000E+00 -0.12730268706E+04  0.12730268706E+04  0.25500000000E-02 0. -1.
    8880022    1    1    2    0    0  0.46388783843E+03 -0.44936919430E+03  0.17268767570E+03  0.68581140687E+03  0.15294330000E+03 0.  0.
    8880022    1    1    2    0    0 -0.46388783843E+03  0.44936919430E+03 -0.90811984548E+03  0.11248101645E+04  0.15294330000E+03 0.  0.
<mgrwt>
<rscale>  0 0.66371398E+03</rscale>
<asrwt>0</asrwt>
<pdfrwt beam="1">  1        2 0.19585029E+00 0.66371398E+03</pdfrwt>
<pdfrwt beam="2">  1       -2 0.82706878E-01 0.66371398E+03</pdfrwt>
<totfact> 0.22655039E+01</totfact>
</mgrwt>
</event>
<event>
 4    1  0.6912310E-008  0.2326116E+03  0.7818608E-02  0.1124815E+00
          2   -1    0    0  501    0  0.00000000000E+00  0.00000000000E+00  0.13431933106E+04  0.13431933106E+04  0.25500000000E-02 0. -1.
         -2   -1    0    0    0  501 -0.00000000000E+00 -0.00000000000E+00 -0.17177762769E+03  0.17177762771E+03  0.25500000000E-02 0.  1.
    8880022    1    1    2    0    0 -0.10323537873E+03  0.14162966248E+03  0.12484500640E+04  0.12699353212E+04  0.15294330000E+03 0.  0.
    8880022    1    1    2    0    0  0.10323537873E+03 -0.14162966248E+03 -0.77034381171E+02  0.24503561703E+03  0.15294330000E+03 0.  1.
<mgrwt>
<rscale>  0 0.23261160E+03</rscale>
<asrwt>0</asrwt>
<pdfrwt beam="1">  1        2 0.20664512E+00 0.23261160E+03</pdfrwt>
<pdfrwt beam="2">  1       -2 0.26427328E-01 0.23261160E+03</pdfrwt>
<totfact> 0.21731311E+02</totfact>
</mgrwt>
</event>
<event>
 4    1  0.6912310E-008  0.4672999E+03  0.7818608E-02  0.1022685E+00
         -2   -1    0    0    0  501 -0.00000000000E+00  0.00000000000E+00  0.12087284458E+03  0.12087284461E+03  0.25500000000E-02 0.  1.
          2   -1    0    0  501    0  0.00000000000E+00 -0.00000000000E+00 -0.33589336476E+04  0.33589336476E+04  0.25500000000E-02 0. -1.
    8880022    1    1    2    0    0 -0.26993703167E+03 -0.34944460680E+03 -0.43621609975E+03  0.63926025450E+03  0.15294330000E+03 0.  0.
    8880022    1    1    2    0    0  0.26993703167E+03  0.34944460680E+03 -0.28018447033E+04  0.28405462378E+04  0.15294330000E+03 0.  0.
<mgrwt>
<rscale>  0 0.46729989E+03</rscale>
<asrwt>0</asrwt>
<pdfrwt beam="1">  1        2 0.51675895E+00 0.46729989E+03</pdfrwt>
<pdfrwt beam="2">  1       -2 0.18595825E-01 0.46729989E+03</pdfrwt>
<totfact> 0.28003075E+01</totfact>
</mgrwt>
</event>
<event>
 4    1  0.6912310E-008  0.3144890E+03  0.7818608E-02  0.1078214E+00
          2   -1    0    0  501    0  0.00000000000E+00  0.00000000000E+00  0.24152468781E+04  0.24152468781E+04  0.25500000000E-02 0. -1.
         -2   -1    0    0    0  501 -0.00000000000E+00 -0.00000000000E+00 -0.44780285412E+02  0.44780285485E+02  0.25500000000E-02 0.  1.
    8880022    1    1    2    0    0 -0.43904177755E+02  0.27126395242E+03  0.15449871638E+04  0.15766701297E+04  0.15294330000E+03 0.  0.
    8880022    1    1    2    0    0  0.43904177755E+02 -0.27126395242E+03  0.82547942893E+03  0.88335703389E+03  0.15294330000E+03 0.  0.
<mgrwt>
<rscale>  0 0.31448905E+03</rscale>
<asrwt>0</asrwt>
<pdfrwt beam="1">  1        2 0.37157647E+00 0.31448905E+03</pdfrwt>
<pdfrwt beam="2">  1       -2 0.68892741E-02 0.31448905E+03</pdfrwt>
<totfact> 0.52901453E+02</totfact>
</mgrwt>
</event>
<event>
 4    1  0.6912310E-008  0.5085884E+03  0.7818608E-02  0.1011561E+00
         -2   -1    0    0    0  501 -0.00000000000E+00  0.00000000000E+00  0.70131595388E+03  0.70131595389E+03  0.25500000000E-02 0.  1.
          2   -1    0    0  501    0  0.00000000000E+00 -0.00000000000E+00 -0.14047947280E+04  0.14047947280E+04  0.25500000000E-02 0. -1.
    8880022    1    1    2    0    0  0.26621250282E+02 -0.48431582273E+03 -0.12560518195E+04  0.13551119265E+04  0.15294330000E+03 0.  0.
    8880022    1    1    2    0    0 -0.26621250282E+02  0.48431582273E+03  0.55257304537E+03  0.75099875539E+03  0.15294330000E+03 0.  0.
<mgrwt>
<rscale>  0 0.50858840E+03</rscale>
<asrwt>0</asrwt>
<pdfrwt beam="1">  1        2 0.21612227E+00 0.50858840E+03</pdfrwt>
<pdfrwt beam="2">  1       -2 0.10789476E+00 0.50858840E+03</pdfrwt>
<totfact> 0.10528641E+01</totfact>
</mgrwt>
</event>
<event>
 4    1  0.6912310E-008  0.6073996E+03  0.7818608E-02  0.9890172E-01
         -2   -1    0    0    0  501 -0.00000000000E+00  0.00000000000E+00  0.89344402576E+03  0.89344402576E+03  0.25500000000E-02 0.  1.
          2   -1    0    0  501    0  0.00000000000E+00 -0.00000000000E+00 -0.13003246489E+04  0.13003246490E+04  0.25500000000E-02 0. -1.
    8880022    1    1    2    0    0  0.58483799939E+03 -0.59221338213E+02  0.70269304461E+03  0.92882281432E+03  0.15294330000E+03 0.  0.
    8880022    1    1    2    0    0 -0.58483799939E+03  0.59221338213E+02 -0.11095736678E+04  0.12649458604E+04  0.15294330000E+03 0.  0.
<mgrwt>
<rscale>  0 0.60739963E+03</rscale>
<asrwt>0</asrwt>
<pdfrwt beam="1">  1        2 0.20004995E+00 0.60739963E+03</pdfrwt>
<pdfrwt beam="2">  1       -2 0.13745293E+00 0.60739963E+03</pdfrwt>
<totfact> 0.65043748E+00</totfact>
</mgrwt>
</event>
<event>
 4    1  0.6912310E-008  0.2523787E+03  0.7818608E-02  0.1111811E+00
          2   -1    0    0  501    0  0.00000000000E+00  0.00000000000E+00  0.34893725638E+04  0.34893725638E+04  0.25500000000E-02 0. -1.
         -2   -1    0    0    0  501 -0.00000000000E+00 -0.00000000000E+00 -0.39677395833E+02  0.39677395915E+02  0.25500000000E-02 0.  1.
    8880022    1    1    2    0    0  0.19094198623E+03  0.62003939652E+02  0.42826419225E+03  0.49709677329E+03  0.15294330000E+03 0.  0.
    8880022    1    1    2    0    0 -0.19094198623E+03 -0.62003939652E+02  0.30214309757E+04  0.30319531864E+04  0.15294330000E+03 0.  0.
<mgrwt>
<rscale>  0 0.25237865E+03</rscale>
<asrwt>0</asrwt>
<pdfrwt beam="1">  1        2 0.53682655E+00 0.25237865E+03</pdfrwt>
<pdfrwt beam="2">  1       -2 0.61042147E-02 0.25237865E+03</pdfrwt>
<totfact> 0.14974210E+02</totfact>
</mgrwt>
</event>
<event>
 4    1  0.6912310E-008  0.2995355E+03  0.7818608E-02  0.1085473E+00
          2   -1    0    0  501    0  0.00000000000E+00  0.00000000000E+00  0.98363139338E+03  0.98363139338E+03  0.25500000000E-02 0. -1.
         -2   -1    0    0    0  501 -0.00000000000E+00 -0.00000000000E+00 -0.13189677161E+03  0.13189677163E+03  0.25500000000E-02 0.  1.
    8880022    1    1    2    0    0 -0.13463209074E+03  0.21955421232E+03  0.11609989187E+03  0.32124864189E+03  0.15294330000E+03 0.  0.
    8880022    1    1    2    0    0  0.13463209074E+03 -0.21955421232E+03  0.73563472990E+03  0.79427952313E+03  0.15294330000E+03 0.  0.
<mgrwt>
<rscale>  0 0.29953548E+03</rscale>
<asrwt>0</asrwt>
<pdfrwt beam="1">  1        2 0.15132791E+00 0.29953548E+03</pdfrwt>
<pdfrwt beam="2">  1       -2 0.20291811E-01 0.29953548E+03</pdfrwt>
<totfact> 0.55236685E+02</totfact>
</mgrwt>
</event>
<event>
 4    1  0.6912310E-008  0.4435288E+03  0.7818608E-02  0.1029670E+00
          2   -1    0    0  501    0  0.00000000000E+00  0.00000000000E+00  0.56198656516E+03  0.56198656516E+03  0.25500000000E-02 0. -1.
         -2   -1    0    0    0  501 -0.00000000000E+00 -0.00000000000E+00 -0.13987435902E+04  0.13987435902E+04  0.25500000000E-02 0.  1.
    8880022    1    1    2    0    0  0.15699124481E+03  0.38559029401E+03  0.43049924583E+03  0.61809981351E+03  0.15294330000E+03 0.  0.
    8880022    1    1    2    0    0 -0.15699124481E+03 -0.38559029401E+03 -0.12672562709E+04  0.13426303419E+04  0.15294330000E+03 0.  0.
<mgrwt>
<rscale>  0 0.44352878E+03</rscale>
<asrwt>0</asrwt>
<pdfrwt beam="1">  1        2 0.86459472E-01 0.44352878E+03</pdfrwt>
<pdfrwt beam="2">  1       -2 0.21519132E+00 0.44352878E+03</pdfrwt>
<totfact> 0.61086579E+00</totfact>
</mgrwt>
</event>
<event>
 4    1  0.6912310E-008  0.6850524E+03  0.7818608E-02  0.9743142E-01
          2   -1    0    0  501    0  0.00000000000E+00  0.00000000000E+00  0.32686718636E+03  0.32686718637E+03  0.25500000000E-02 0. -1.
         -2   -1    0    0    0  501 -0.00000000000E+00 -0.00000000000E+00 -0.19001873324E+04  0.19001873324E+04  0.25500000000E-02 0.  1.
    8880022    1    1    2    0    0 -0.58313067264E+03  0.32536713343E+03 -0.13371763298E+04  0.15024437903E+04  0.15294330000E+03 0.  0.
    8880022    1    1    2    0    0  0.58313067264E+03 -0.32536713343E+03 -0.23614381621E+03  0.72461072849E+03  0.15294330000E+03 0.  0.
<mgrwt>
<rscale>  0 0.68505241E+03</rscale>
<asrwt>0</asrwt>
<pdfrwt beam="1">  1        2 0.50287260E-01 0.68505241E+03</pdfrwt>
<pdfrwt beam="2">  1       -2 0.29233651E+00 0.68505241E+03</pdfrwt>
<totfact> 0.37003649E+00</totfact>
</mgrwt>
</event>
<event>
 4    1  0.6912310E-008  0.2949870E+03  0.7818608E-02  0.1087774E+00
         -2   -1    0    0    0  501 -0.00000000000E+00  0.00000000000E+00  0.73141804105E+03  0.73141804105E+03  0.25500000000E-02 0.  1.
          2   -1    0    0  501    0  0.00000000000E+00 -0.00000000000E+00 -0.11133418491E+04  0.11133418491E+04  0.25500000000E-02 0. -1.
    8880022    1    1    2    0    0  0.23736493836E+03  0.85343856714E+02  0.68074369392E+03  0.74190923816E+03  0.15294330000E+03 0.  0.
    8880022    1    1    2    0    0 -0.23736493836E+03 -0.85343856714E+02 -0.10626675020E+04  0.11028506520E+04  0.15294330000E+03 0.  0.
<mgrwt>
<rscale>  0 0.29498702E+03</rscale>
<asrwt>0</asrwt>
<pdfrwt beam="1">  1        2 0.17128336E+00 0.29498702E+03</pdfrwt>
<pdfrwt beam="2">  1       -2 0.11252585E+00 0.29498702E+03</pdfrwt>
<totfact> 0.14699291E+01</totfact>
</mgrwt>
</event>
<event>
 4    1  0.6912310E-008  0.3689517E+03  0.7818608E-02  0.1055095E+00
         -2   -1    0    0    0  501 -0.00000000000E+00  0.00000000000E+00  0.43278470784E+03  0.43278470785E+03  0.25500000000E-02 0.  1.
          2   -1    0    0  501    0  0.00000000000E+00 -0.00000000000E+00 -0.35973318810E+03  0.35973318811E+03  0.25500000000E-02 0. -1.
    8880022    1    1    2    0    0  0.53987636033E+02 -0.33138956317E+03  0.17698675918E+03  0.40920615020E+03  0.15294330000E+03 0.  0.
    8880022    1    1    2    0    0 -0.53987636033E+02  0.33138956317E+03 -0.10393523944E+03  0.38331174576E+03  0.15294330000E+03 0.  0.
<mgrwt>
<rscale>  0 0.36895170E+03</rscale>
<asrwt>0</asrwt>
<pdfrwt beam="1">  1        2 0.55343567E-01 0.36895170E+03</pdfrwt>
<pdfrwt beam="2">  1       -2 0.66582263E-01 0.36895170E+03</pdfrwt>
<totfact> 0.19074446E+02</totfact>
</mgrwt>
</event>
<event>
 4    1  0.6912310E-008  0.1157170E+04  0.7818608E-02  0.9151194E-01
         -2   -1    0    0    0  501 -0.00000000000E+00  0.00000000000E+00  0.14730455456E+04  0.14730455456E+04  0.25500000000E-02 0.  1.
          2   -1    0    0  501    0  0.00000000000E+00 -0.00000000000E+00 -0.14466894648E+04  0.14466894648E+04  0.25500000000E-02 0. -1.
    8880022    1    1    2    0    0  0.99231279383E+03  0.57529697986E+03 -0.87680008509E+03  0.14518337846E+04  0.15294330000E+03 0.  0.
    8880022    1    1    2    0    0 -0.99231279383E+03 -0.57529697986E+03  0.90315616582E+03  0.14679012258E+04  0.15294330000E+03 0.  0.
<mgrwt>
<rscale>  0 0.11571702E+04</rscale>
<asrwt>0</asrwt>
<pdfrwt beam="1">  1        2 0.22256761E+00 0.11571702E+04</pdfrwt>
<pdfrwt beam="2">  1       -2 0.22662239E+00 0.11571702E+04</pdfrwt>
<totfact> 0.11917586E+00</totfact>
</mgrwt>
</event>
<event>
 4    1  0.6912310E-008  0.6459306E+03  0.7818608E-02  0.9814445E-01
         -2   -1    0    0    0  501 -0.00000000000E+00  0.00000000000E+00  0.56521500203E+03  0.56521500203E+03  0.25500000000E-02 0.  1.
          2   -1    0    0  501    0  0.00000000000E+00 -0.00000000000E+00 -0.16777924074E+04  0.16777924074E+04  0.25500000000E-02 0. -1.
    8880022    1    1    2    0    0 -0.61136516891E+03 -0.14165933390E+03  0.28299273031E+03  0.70520300273E+03  0.15294330000E+03 0.  0.
    8880022    1    1    2    0    0  0.61136516891E+03  0.14165933390E+03 -0.13955701357E+04  0.15378044067E+04  0.15294330000E+03 0.  0.
<mgrwt>
<rscale>  0 0.64593064E+03</rscale>
<asrwt>0</asrwt>
<pdfrwt beam="1">  1        2 0.25812191E+00 0.64593064E+03</pdfrwt>
<pdfrwt beam="2">  1       -2 0.86956155E-01 0.64593064E+03</pdfrwt>
<totfact> 0.12050676E+01</totfact>
</mgrwt>
</event>
<event>
 4    1  0.6912310E-008  0.3565059E+03  0.7818608E-02  0.1059976E+00
          2   -1    0    0  501    0  0.00000000000E+00  0.00000000000E+00  0.16077052429E+04  0.16077052429E+04  0.25500000000E-02 0. -1.
         -2   -1    0    0    0  501 -0.00000000000E+00 -0.00000000000E+00 -0.22775232020E+03  0.22775232022E+03  0.25500000000E-02 0.  1.
    8880022    1    1    2    0    0  0.25577453702E+03 -0.19566343470E+03  0.14315174236E+04  0.14752418719E+04  0.15294330000E+03 0.  0.
    8880022    1    1    2    0    0 -0.25577453702E+03  0.19566343470E+03 -0.51564500880E+02  0.36021569126E+03  0.15294330000E+03 0.  1.
<mgrwt>
<rscale>  0 0.35650589E+03</rscale>
<asrwt>0</asrwt>
<pdfrwt beam="1">  1        2 0.24733927E+00 0.35650589E+03</pdfrwt>
<pdfrwt beam="2">  1       -2 0.35038818E-01 0.35650589E+03</pdfrwt>
<totfact> 0.90923270E+01</totfact>
</mgrwt>
</event>
<event>
 4    1  0.6912310E-008  0.4124421E+03  0.7818608E-02  0.1039555E+00
         -2   -1    0    0    0  501 -0.00000000000E+00  0.00000000000E+00  0.89718288121E+03  0.89718288122E+03  0.25500000000E-02 0.  1.
          2   -1    0    0  501    0  0.00000000000E+00 -0.00000000000E+00 -0.30932872072E+03  0.30932872073E+03  0.25500000000E-02 0. -1.
    8880022    1    1    2    0    0  0.17926430157E+03 -0.33849832778E+03  0.66923292388E+03  0.78611778198E+03  0.15294330000E+03 0. -1.
    8880022    1    1    2    0    0 -0.17926430157E+03  0.33849832778E+03 -0.81378763385E+02  0.42039381997E+03  0.15294330000E+03 0.  0.
<mgrwt>
<rscale>  0 0.41244207E+03</rscale>
<asrwt>0</asrwt>
<pdfrwt beam="1">  1        2 0.47589035E-01 0.41244207E+03</pdfrwt>
<pdfrwt beam="2">  1       -2 0.13802813E+00 0.41244207E+03</pdfrwt>
<totfact> 0.41119471E+01</totfact>
</mgrwt>
</event>
<event>
 4    1  0.6912310E-008  0.3696465E+03  0.7818608E-02  0.1054828E+00
          2   -1    0    0  501    0  0.00000000000E+00  0.00000000000E+00  0.19185345994E+04  0.19185345994E+04  0.25500000000E-02 0. -1.
         -2   -1    0    0    0  501 -0.00000000000E+00 -0.00000000000E+00 -0.58027160604E+03  0.58027160605E+03  0.25500000000E-02 0.  1.
    8880022    1    1    2    0    0 -0.69981459520E+02 -0.32916485155E+03 -0.50108902468E+03  0.62267870354E+03  0.15294330000E+03 0.  1.
    8880022    1    1    2    0    0  0.69981459520E+02  0.32916485155E+03  0.18393520181E+04  0.18761275019E+04  0.15294330000E+03 0.  0.
<mgrwt>
<rscale>  0 0.36964653E+03</rscale>
<asrwt>0</asrwt>
<pdfrwt beam="1">  1        2 0.29515917E+00 0.36964653E+03</pdfrwt>
<pdfrwt beam="2">  1       -2 0.89272555E-01 0.36964653E+03</pdfrwt>
<totfact> 0.89636715E+00</totfact>
</mgrwt>
</event>
<event>
 4    1  0.6912310E-008  0.7654222E+03  0.7818608E-02  0.9611461E-01
         -2   -1    0    0    0  501 -0.00000000000E+00  0.00000000000E+00  0.55333211711E+03  0.55333211712E+03  0.25500000000E-02 0.  1.
          2   -1    0    0  501    0  0.00000000000E+00 -0.00000000000E+00 -0.13428613061E+04  0.13428613061E+04  0.25500000000E-02 0. -1.
    8880022    1    1    2    0    0  0.51914786700E+03  0.54126237883E+03  0.41287972762E+02  0.76653494392E+03  0.15294330000E+03 0.  0.
    8880022    1    1    2    0    0 -0.51914786700E+03 -0.54126237883E+03 -0.83081716172E+03  0.11296584793E+04  0.15294330000E+03 0.  0.
<mgrwt>
<rscale>  0 0.76542219E+03</rscale>
<asrwt>0</asrwt>
<pdfrwt beam="1">  1        2 0.20659405E+00 0.76542219E+03</pdfrwt>
<pdfrwt beam="2">  1       -2 0.85128018E-01 0.76542219E+03</pdfrwt>
<totfact> 0.19109381E+01</totfact>
</mgrwt>
</event>
<event>
 4    1  0.6912310E-008  0.4651815E+03  0.7818608E-02  0.1023289E+00
          2   -1    0    0  501    0  0.00000000000E+00  0.00000000000E+00  0.36161601510E+03  0.36161601511E+03  0.25500000000E-02 0. -1.
         -2   -1    0    0    0  501 -0.00000000000E+00 -0.00000000000E+00 -0.94308725676E+03  0.94308725676E+03  0.25500000000E-02 0.  1.
    8880022    1    1    2    0    0 -0.42709456309E+03 -0.10291963967E+03 -0.68511433831E+03  0.82811564871E+03  0.15294330000E+03 0.  0.
    8880022    1    1    2    0    0  0.42709456309E+03  0.10291963967E+03  0.10364309666E+03  0.47658762316E+03  0.15294330000E+03 0.  0.
<mgrwt>
<rscale>  0 0.46518155E+03</rscale>
<asrwt>0</asrwt>
<pdfrwt beam="1">  1        2 0.55633234E-01 0.46518155E+03</pdfrwt>
<pdfrwt beam="2">  1       -2 0.14509035E+00 0.46518155E+03</pdfrwt>
<totfact> 0.30271923E+01</totfact>
</mgrwt>
</event>
<event>
 4    1  0.6912310E-008  0.4094627E+03  0.7818608E-02  0.1040551E+00
         -2   -1    0    0    0  501 -0.00000000000E+00  0.00000000000E+00  0.49466071552E+03  0.49466071552E+03  0.25500000000E-02 0.  1.
          2   -1    0    0  501    0  0.00000000000E+00 -0.00000000000E+00 -0.14508332517E+04  0.14508332517E+04  0.25500000000E-02 0. -1.
    8880022    1    1    2    0    0  0.37053424817E+03  0.83500851011E+02  0.37348879991E+03  0.55421436093E+03  0.15294330000E+03 0.  0.
    8880022    1    1    2    0    0 -0.37053424817E+03 -0.83500851011E+02 -0.13296613361E+04  0.13912796063E+04  0.15294330000E+03 0. -1.
<mgrwt>
<rscale>  0 0.40946267E+03</rscale>
<asrwt>0</asrwt>
<pdfrwt beam="1">  1        2 0.22320511E+00 0.40946267E+03</pdfrwt>
<pdfrwt beam="2">  1       -2 0.76101649E-01 0.40946267E+03</pdfrwt>
<totfact> 0.22606822E+01</totfact>
</mgrwt>
</event>
<event>
 4    1  0.6912310E-008  0.2006886E+03  0.7818608E-02  0.1149159E+00
          2   -1    0    0  501    0  0.00000000000E+00  0.00000000000E+00  0.42469420772E+03  0.42469420773E+03  0.25500000000E-02 0. -1.
         -2   -1    0    0    0  501 -0.00000000000E+00 -0.00000000000E+00 -0.24780947231E+03  0.24780947232E+03  0.25500000000E-02 0.  1.
    8880022    1    1    2    0    0  0.55486055741E+02 -0.11749698986E+03  0.35263160657E+03  0.40574000047E+03  0.15294330000E+03 0.  0.
    8880022    1    1    2    0    0 -0.55486055741E+02  0.11749698986E+03 -0.17574687116E+03  0.26676367959E+03  0.15294330000E+03 0.  1.
<mgrwt>
<rscale>  0 0.20068856E+03</rscale>
<asrwt>0</asrwt>
<pdfrwt beam="1">  1        2 0.65337569E-01 0.20068856E+03</pdfrwt>
<pdfrwt beam="2">  1       -2 0.38124535E-01 0.20068856E+03</pdfrwt>
<totfact> 0.49138386E+02</totfact>
</mgrwt>
</event>
<event>
 4    1  0.6912310E-008  0.6343019E+03  0.7818608E-02  0.9836690E-01
         -2   -1    0    0    0  501 -0.00000000000E+00  0.00000000000E+00  0.48488159358E+03  0.48488159359E+03  0.25500000000E-02 0.  1.
          2   -1    0    0  501    0  0.00000000000E+00 -0.00000000000E+00 -0.90967382499E+03  0.90967382500E+03  0.25500000000E-02 0. -1.
    8880022    1    1    2    0    0  0.54109868259E+03  0.29352922533E+03 -0.41905511391E+03  0.76022761850E+03  0.15294330000E+03 0.  0.
    8880022    1    1    2    0    0 -0.54109868259E+03 -0.29352922533E+03 -0.57371175025E+01  0.63432780008E+03  0.15294330000E+03 0.  0.
<mgrwt>
<rscale>  0 0.63430186E+03</rscale>
<asrwt>0</asrwt>
<pdfrwt beam="1">  1        2 0.13994982E+00 0.63430186E+03</pdfrwt>
<pdfrwt beam="2">  1       -2 0.74597168E-01 0.63430186E+03</pdfrwt>
<totfact> 0.47865714E+01</totfact>
</mgrwt>
</event>
<event>
 4    1  0.6912310E-008  0.6979544E+03  0.7818608E-02  0.9720737E-01
          2   -1    0    0  501    0  0.00000000000E+00  0.00000000000E+00  0.17296996025E+04  0.17296996025E+04  0.25500000000E-02 0. -1.
         -2   -1    0    0    0  501 -0.00000000000E+00 -0.00000000000E+00 -0.39785575014E+03  0.39785575015E+03  0.25500000000E-02 0.  1.
    8880022    1    1    2    0    0 -0.20749144469E+03 -0.64861077956E+03  0.90966953917E+02  0.70385743066E+03  0.15294330000E+03 0.  0.
    8880022    1    1    2    0    0  0.20749144469E+03  0.64861077956E+03  0.12408768984E+04  0.14236979219E+04  0.15294330000E+03 0.  0.
<mgrwt>
<rscale>  0 0.69795437E+03</rscale>
<asrwt>0</asrwt>
<pdfrwt beam="1">  1        2 0.26610763E+00 0.69795437E+03</pdfrwt>
<pdfrwt beam="2">  1       -2 0.61208578E-01 0.69795437E+03</pdfrwt>
<totfact> 0.24257476E+01</totfact>
</mgrwt>
</event>
<event>
 4    1  0.6912310E-008  0.7343131E+03  0.7818608E-02  0.9660287E-01
         -2   -1    0    0    0  501 -0.00000000000E+00  0.00000000000E+00  0.17001975887E+04  0.17001975887E+04  0.25500000000E-02 0.  1.
          2   -1    0    0  501    0  0.00000000000E+00 -0.00000000000E+00 -0.42120465301E+03  0.42120465301E+03  0.25500000000E-02 0. -1.
    8880022    1    1    2    0    0  0.46372637304E+03 -0.54843585300E+03  0.11667015991E+04  0.13785529762E+04  0.15294330000E+03 0.  0.
    8880022    1    1    2    0    0 -0.46372637304E+03  0.54843585300E+03  0.11229133656E+03  0.74284926546E+03  0.15294330000E+03 0.  0.
<mgrwt>
<rscale>  0 0.73431307E+03</rscale>
<asrwt>0</asrwt>
<pdfrwt beam="1">  1        2 0.64800716E-01 0.73431307E+03</pdfrwt>
<pdfrwt beam="2">  1       -2 0.26156886E+00 0.73431307E+03</pdfrwt>
<totfact> 0.42295700E+00</totfact>
</mgrwt>
</event>
<event>
 4    1  0.9925694E-008  0.9280937E+03  0.7818608E-02  0.9391129E-01
          2   -1    0    0  501    0  0.00000000000E+00  0.00000000000E+00  0.39353338240E+04  0.39353338240E+04  0.25500000000E-02 0. -1.
         -2   -1    0    0    0  501 -0.00000000000E+00 -0.00000000000E+00 -0.10758805871E+04  0.10758805871E+04  0.25500000000E-02 0.  1.
    8880022    1    1    2    0    0  0.91771328667E+02 -0.91079325464E+03 -0.80653196770E+03  0.12295738275E+04  0.15294330000E+03 0.  0.
    8880022    1    1    2    0    0 -0.91771328667E+02  0.91079325464E+03  0.36659852046E+04  0.37816405835E+04  0.15294330000E+03 0.  0.
<mgrwt>
<rscale>  0 0.92809374E+03</rscale>
<asrwt>0</asrwt>
<pdfrwt beam="1">  1        2 0.60543596E+00 0.92809374E+03</pdfrwt>
<pdfrwt beam="2">  1       -2 0.16552009E+00 0.92809374E+03</pdfrwt>
<totfact> 0.94043845E-02</totfact>
</mgrwt>
</event>
<event>
 4    1  0.6912310E-008  0.4668519E+03  0.7818608E-02  0.1022813E+00
          2   -1    0    0  501    0  0.00000000000E+00  0.00000000000E+00  0.23395251505E+04  0.23395251505E+04  0.25500000000E-02 0. -1.
         -2   -1    0    0    0  501 -0.00000000000E+00 -0.00000000000E+00 -0.17535963144E+03  0.17535963145E+03  0.25500000000E-02 0.  1.
    8880022    1    1    2    0    0 -0.44048241541E+03  0.23114357774E+02  0.19429925191E+04  0.19982919241E+04  0.15294330000E+03 0.  0.
    8880022    1    1    2    0    0  0.44048241541E+03 -0.23114357774E+02  0.22117299998E+03  0.51659285782E+03  0.15294330000E+03 0.  0.
<mgrwt>
<rscale>  0 0.46685189E+03</rscale>
<asrwt>0</asrwt>
<pdfrwt beam="1">  1        2 0.35992694E+00 0.46685189E+03</pdfrwt>
<pdfrwt beam="2">  1       -2 0.26978406E-01 0.46685189E+03</pdfrwt>
<totfact> 0.58244201E+01</totfact>
</mgrwt>
</event>
<event>
 4    1  0.6912310E-008  0.9222460E+03  0.7818608E-02  0.9398192E-01
          2   -1    0    0  501    0  0.00000000000E+00  0.00000000000E+00  0.19351489363E+04  0.19351489363E+04  0.25500000000E-02 0. -1.
         -2   -1    0    0    0  501 -0.00000000000E+00 -0.00000000000E+00 -0.70664135221E+03  0.70664135222E+03  0.25500000000E-02 0.  1.
    8880022    1    1    2    0    0  0.16250458899E+03 -0.89483982431E+03 -0.19787083934E+03  0.94323410386E+03  0.15294330000E+03 0.  0.
    8880022    1    1    2    0    0 -0.16250458899E+03  0.89483982431E+03  0.14263784234E+04  0.16985561846E+04  0.15294330000E+03 0.  0.
<mgrwt>
<rscale>  0 0.92224601E+03</rscale>
<asrwt>0</asrwt>
<pdfrwt beam="1">  1        2 0.29771522E+00 0.92224601E+03</pdfrwt>
<pdfrwt beam="2">  1       -2 0.10871406E+00 0.92224601E+03</pdfrwt>
<totfact> 0.49508838E+00</totfact>
</mgrwt>
</event>
<event>
 4    1  0.6912310E-008  0.4867119E+03  0.7818608E-02  0.1017307E+00
          2   -1    0    0  501    0  0.00000000000E+00  0.00000000000E+00  0.21076245574E+04  0.21076245574E+04  0.25500000000E-02 0. -1.
         -2   -1    0    0    0  501 -0.00000000000E+00 -0.00000000000E+00 -0.27575549162E+03  0.27575549164E+03  0.25500000000E-02 0.  1.
    8880022    1    1    2    0    0  0.44095074882E+03 -0.13805510955E+03 -0.12854210823E+01  0.48671355177E+03  0.15294330000E+03 0.  0.
    8880022    1    1    2    0    0 -0.44095074882E+03  0.13805510955E+03  0.18331544869E+04  0.18966664973E+04  0.15294330000E+03 0. -1.
<mgrwt>
<rscale>  0 0.48671185E+03</rscale>
<asrwt>0</asrwt>
<pdfrwt beam="1">  1        2 0.32424993E+00 0.48671185E+03</pdfrwt>
<pdfrwt beam="2">  1       -2 0.42423922E-01 0.48671185E+03</pdfrwt>
<totfact> 0.33101160E+01</totfact>
</mgrwt>
</event>
<event>
 4    1  0.6912310E-008  0.2029301E+03  0.7818608E-02  0.1147290E+00
          2   -1    0    0  501    0  0.00000000000E+00  0.00000000000E+00  0.73609084699E+03  0.73609084700E+03  0.25500000000E-02 0. -1.
         -2   -1    0    0    0  501 -0.00000000000E+00 -0.00000000000E+00 -0.11591138866E+03  0.11591138869E+03  0.25500000000E-02 0.  1.
    8880022    1    1    2    0    0 -0.66973524886E+02  0.11534085194E+03  0.61649875528E+03  0.64903877653E+03  0.15294330000E+03 0.  0.
    8880022    1    1    2    0    0  0.66973524886E+02 -0.11534085194E+03  0.36807030548E+01  0.20296345915E+03  0.15294330000E+03 0.  1.
<mgrwt>
<rscale>  0 0.20293008E+03</rscale>
<asrwt>0</asrwt>
<pdfrwt beam="1">  1        2 0.11324474E+00 0.20293008E+03</pdfrwt>
<pdfrwt beam="2">  1       -2 0.17832522E-01 0.20293008E+03</pdfrwt>
<totfact> 0.10105447E+03</totfact>
</mgrwt>
</event>
<event>
 4    1  0.1692845E-007  0.1444851E+04  0.7818608E-02  0.8921978E-01
          2   -1    0    0  501    0  0.00000000000E+00  0.00000000000E+00  0.33012747085E+04  0.33012747085E+04  0.25500000000E-02 0. -1.
         -2   -1    0    0    0  501 -0.00000000000E+00 -0.00000000000E+00 -0.14835126221E+04  0.14835126221E+04  0.25500000000E-02 0.  1.
    8880022    1    1    2    0    0  0.32191082818E+03 -0.14002056767E+04  0.27210168178E+04  0.30808321431E+04  0.15294330000E+03 0.  0.
    8880022    1    1    2    0    0 -0.32191082818E+03  0.14002056767E+04 -0.90325473133E+03  0.17039551875E+04  0.15294330000E+03 0.  0.
<mgrwt>
<rscale>  0 0.14448509E+04</rscale>
<asrwt>0</asrwt>
<pdfrwt beam="1">  1        2 0.50788841E+00 0.14448509E+04</pdfrwt>
<pdfrwt beam="2">  1       -2 0.22823271E+00 0.14448509E+04</pdfrwt>
<totfact> 0.92770100E-02</totfact>
</mgrwt>
</event>
<event>
 4    1  0.6912310E-008  0.2052572E+03  0.7818608E-02  0.1145378E+00
         -2   -1    0    0    0  501 -0.00000000000E+00  0.00000000000E+00  0.79097427487E+02  0.79097427528E+02  0.25500000000E-02 0.  1.
          2   -1    0    0  501    0  0.00000000000E+00 -0.00000000000E+00 -0.86785120055E+03  0.86785120056E+03  0.25500000000E-02 0. -1.
    8880022    1    1    2    0    0 -0.48208687158E+02 -0.12812016352E+03 -0.10011594817E+03  0.22837186760E+03  0.15294330000E+03 0.  1.
    8880022    1    1    2    0    0  0.48208687158E+02  0.12812016352E+03 -0.68863782489E+03  0.71857676048E+03  0.15294330000E+03 0. -1.
<mgrwt>
<rscale>  0 0.20525717E+03</rscale>
<asrwt>0</asrwt>
<pdfrwt beam="1">  1        2 0.13351556E+00 0.20525717E+03</pdfrwt>
<pdfrwt beam="2">  1       -2 0.12168836E-01 0.20525717E+03</pdfrwt>
<totfact> 0.15394332E+03</totfact>
</mgrwt>
</event>
<event>
 4    1  0.6912310E-008  0.3857690E+03  0.7818608E-02  0.1048822E+00
          2   -1    0    0  501    0  0.00000000000E+00  0.00000000000E+00  0.25848737049E+04  0.25848737049E+04  0.25500000000E-02 0. -1.
         -2   -1    0    0    0  501 -0.00000000000E+00 -0.00000000000E+00 -0.69899609997E+02  0.69899610043E+02  0.25500000000E-02 0.  1.
    8880022    1    1    2    0    0 -0.35385266729E+03  0.14640320660E+02  0.70005710474E+03  0.79931073560E+03  0.15294330000E+03 0.  1.
    8880022    1    1    2    0    0  0.35385266729E+03 -0.14640320660E+02  0.18149169902E+04  0.18554625794E+04  0.15294330000E+03 0.  0.
<mgrwt>
<rscale>  0 0.38576898E+03</rscale>
<asrwt>0</asrwt>
<pdfrwt beam="1">  1        2 0.39767282E+00 0.38576898E+03</pdfrwt>
<pdfrwt beam="2">  1       -2 0.10753788E-01 0.38576898E+03</pdfrwt>
<totfact> 0.20743703E+02</totfact>
</mgrwt>
</event>
<event>
 4    1  0.6912310E-008  0.3009045E+03  0.7818608E-02  0.1084789E+00
         -2   -1    0    0    0  501 -0.00000000000E+00  0.00000000000E+00  0.10357101531E+03  0.10357101534E+03  0.25500000000E-02 0.  1.
          2   -1    0    0  501    0  0.00000000000E+00 -0.00000000000E+00 -0.15678513966E+04  0.15678513966E+04  0.25500000000E-02 0. -1.
    8880022    1    1    2    0    0 -0.79260357866E+02  0.24671773393E+03 -0.12880050540E+04  0.13226868551E+04  0.15294330000E+03 0.  0.
    8880022    1    1    2    0    0  0.79260357866E+02 -0.24671773393E+03 -0.17627532727E+03  0.34873555681E+03  0.15294330000E+03 0.  0.
<mgrwt>
<rscale>  0 0.30090447E+03</rscale>
<asrwt>0</asrwt>
<pdfrwt beam="1">  1        2 0.24120789E+00 0.30090447E+03</pdfrwt>
<pdfrwt beam="2">  1       -2 0.15934004E-01 0.30090447E+03</pdfrwt>
<totfact> 0.38857299E+02</totfact>
</mgrwt>
</event>
<event>
 4    1  0.6912310E-008  0.1557266E+03  0.7818608E-02  0.1193608E+00
          2   -1    0    0  501    0  0.00000000000E+00  0.00000000000E+00  0.34393906988E+04  0.34393906988E+04  0.25500000000E-02 0. -1.
         -2   -1    0    0    0  501 -0.00000000000E+00 -0.00000000000E+00 -0.61357516396E+02  0.61357516449E+02  0.25500000000E-02 0.  1.
    8880022    1    1    2    0    0  0.32051021647E+01  0.29135047880E+02  0.33357503683E+04  0.33393833706E+04  0.15294330000E+03 0. -1.
    8880022    1    1    2    0    0 -0.32051021647E+01 -0.29135047880E+02  0.42282814158E+02  0.16136484463E+03  0.15294330000E+03 0.  0.
<mgrwt>
<rscale>  0 0.15572661E+03</rscale>
<asrwt>0</asrwt>
<pdfrwt beam="1">  1        2 0.52913689E+00 0.15572661E+03</pdfrwt>
<pdfrwt beam="2">  1       -2 0.94396204E-02 0.15572661E+03</pdfrwt>
<totfact> 0.86297895E+01</totfact>
</mgrwt>
</event>
<event>
 4    1  0.6912310E-008  0.3635111E+03  0.7818608E-02  0.1057202E+00
          2   -1    0    0  501    0  0.00000000000E+00  0.00000000000E+00  0.15843553675E+04  0.15843553675E+04  0.25500000000E-02 0. -1.
         -2   -1    0    0    0  501 -0.00000000000E+00 -0.00000000000E+00 -0.22413048062E+03  0.22413048064E+03  0.25500000000E-02 0.  1.
    8880022    1    1    2    0    0 -0.30402163910E+03  0.12774780379E+03 -0.36400106842E+02  0.36532900133E+03  0.15294330000E+03 0.  0.
    8880022    1    1    2    0    0  0.30402163910E+03 -0.12774780379E+03  0.13966249937E+04  0.14431568468E+04  0.15294330000E+03 0.  0.
<mgrwt>
<rscale>  0 0.36351109E+03</rscale>
<asrwt>0</asrwt>
<pdfrwt beam="1">  1        2 0.24374697E+00 0.36351109E+03</pdfrwt>
<pdfrwt beam="2">  1       -2 0.34481613E-01 0.36351109E+03</pdfrwt>
<totfact> 0.96313671E+01</totfact>
</mgrwt>
</event>
<event>
 4    1  0.6912310E-008  0.3957861E+03  0.7818608E-02  0.1045249E+00
         -2   -1    0    0    0  501 -0.00000000000E+00  0.00000000000E+00  0.23436107944E+03  0.23436107946E+03  0.25500000000E-02 0.  1.
          2   -1    0    0  501    0  0.00000000000E+00 -0.00000000000E+00 -0.98320153930E+03  0.98320153930E+03  0.25500000000E-02 0. -1.
    8880022    1    1    2    0    0  0.32473286978E+03 -0.16674390393E+03 -0.29943873069E+02  0.39691718879E+03  0.15294330000E+03 0.  0.
    8880022    1    1    2    0    0 -0.32473286978E+03  0.16674390393E+03 -0.71889658679E+03  0.82064542997E+03  0.15294330000E+03 0.  0.
<mgrwt>
<rscale>  0 0.39578608E+03</rscale>
<asrwt>0</asrwt>
<pdfrwt beam="1">  1        2 0.15126177E+00 0.39578608E+03</pdfrwt>
<pdfrwt beam="2">  1       -2 0.36055551E-01 0.39578608E+03</pdfrwt>
<totfact> 0.19417206E+02</totfact>
</mgrwt>
</event>
<event>
 4    1  0.6912310E-008  0.6055648E+03  0.7818608E-02  0.9893928E-01
         -2   -1    0    0    0  501 -0.00000000000E+00  0.00000000000E+00  0.40231235964E+03  0.40231235965E+03  0.25500000000E-02 0.  1.
          2   -1    0    0  501    0  0.00000000000E+00 -0.00000000000E+00 -0.15475207925E+04  0.15475207925E+04  0.25500000000E-02 0. -1.
    8880022    1    1    2    0    0  0.28415789768E+03  0.51241716723E+03  0.52401536995E+02  0.60782780306E+03  0.15294330000E+03 0.  0.
    8880022    1    1    2    0    0 -0.28415789768E+03 -0.51241716723E+03 -0.11976099698E+04  0.13420053491E+04  0.15294330000E+03 0.  0.
<mgrwt>
<rscale>  0 0.60556479E+03</rscale>
<asrwt>0</asrwt>
<pdfrwt beam="1">  1        2 0.23808012E+00 0.60556479E+03</pdfrwt>
<pdfrwt beam="2">  1       -2 0.61894210E-01 0.60556479E+03</pdfrwt>
<totfact> 0.30191640E+01</totfact>
</mgrwt>
</event>
<event>
 4    1  0.6912310E-008  0.4894689E+03  0.7818608E-02  0.1016565E+00
          2   -1    0    0  501    0  0.00000000000E+00  0.00000000000E+00  0.25573720728E+04  0.25573720728E+04  0.25500000000E-02 0. -1.
         -2   -1    0    0    0  501 -0.00000000000E+00 -0.00000000000E+00 -0.10356648745E+03  0.10356648748E+03  0.25500000000E-02 0.  1.
    8880022    1    1    2    0    0  0.45615123588E+03 -0.90079061782E+02  0.81587483630E+03  0.95143659215E+03  0.15294330000E+03 0.  0.
    8880022    1    1    2    0    0 -0.45615123588E+03  0.90079061782E+02  0.16379307491E+04  0.17095019682E+04  0.15294330000E+03 0.  0.
<mgrwt>
<rscale>  0 0.48946894E+03</rscale>
<asrwt>0</asrwt>
<pdfrwt beam="1">  1        2 0.39344181E+00 0.48946894E+03</pdfrwt>
<pdfrwt beam="2">  1       -2 0.15933308E-01 0.48946894E+03</pdfrwt>
<totfact> 0.11005876E+02</totfact>
</mgrwt>
</event>
<event>
 4    1  0.6912310E-008  0.9531592E+03  0.7818608E-02  0.9361466E-01
         -2   -1    0    0    0  501 -0.00000000000E+00  0.00000000000E+00  0.13144813072E+04  0.13144813072E+04  0.25500000000E-02 0.  1.
          2   -1    0    0  501    0  0.00000000000E+00 -0.00000000000E+00 -0.13559955152E+04  0.13559955152E+04  0.25500000000E-02 0. -1.
    8880022    1    1    2    0    0 -0.40285860741E+03 -0.85019155953E+03  0.91419188205E+03  0.13207040530E+04  0.15294330000E+03 0.  0.
    8880022    1    1    2    0    0  0.40285860741E+03  0.85019155953E+03 -0.95570609001E+03  0.13497727694E+04  0.15294330000E+03 0.  0.
<mgrwt>
<rscale>  0 0.95315917E+03</rscale>
<asrwt>0</asrwt>
<pdfrwt beam="1">  1        2 0.20861470E+00 0.95315917E+03</pdfrwt>
<pdfrwt beam="2">  1       -2 0.20222789E+00 0.95315917E+03</pdfrwt>
<totfact> 0.19706660E+00</totfact>
</mgrwt>
</event>
<event>
 4    1  0.6912310E-008  0.7167808E+03  0.7818608E-02  0.9688958E-01
          2   -1    0    0  501    0  0.00000000000E+00  0.00000000000E+00  0.16184472872E+04  0.16184472872E+04  0.25500000000E-02 0. -1.
         -2   -1    0    0    0  501 -0.00000000000E+00 -0.00000000000E+00 -0.45784730248E+03  0.45784730249E+03  0.25500000000E-02 0.  1.
    8880022    1    1    2    0    0  0.66875657848E+03 -0.20772011196E+03  0.54170837779E+01  0.71680123045E+03  0.15294330000E+03 0.  0.
    8880022    1    1    2    0    0 -0.66875657848E+03  0.20772011196E+03  0.11551829010E+04  0.13594933593E+04  0.15294330000E+03 0. -1.
<mgrwt>
<rscale>  0 0.71678076E+03</rscale>
<asrwt>0</asrwt>
<pdfrwt beam="1">  1        2 0.24899189E+00 0.71678076E+03</pdfrwt>
<pdfrwt beam="2">  1       -2 0.70438048E-01 0.71678076E+03</pdfrwt>
<totfact> 0.20578091E+01</totfact>
</mgrwt>
</event>
<event>
 4    1  0.6912310E-008  0.2399318E+03  0.7818608E-02  0.1119838E+00
          2   -1    0    0  501    0  0.00000000000E+00  0.00000000000E+00  0.75874939384E+03  0.75874939384E+03  0.25500000000E-02 0. -1.
         -2   -1    0    0    0  501 -0.00000000000E+00 -0.00000000000E+00 -0.80654241548E+02  0.80654241588E+02  0.25500000000E-02 0.  1.
    8880022    1    1    2    0    0 -0.10403697946E+01  0.18486360076E+03  0.23684172101E+03  0.33713689665E+03  0.15294330000E+03 0.  0.
    8880022    1    1    2    0    0  0.10403697946E+01 -0.18486360076E+03  0.44125343128E+03  0.50226673878E+03  0.15294330000E+03 0.  0.
<mgrwt>
<rscale>  0 0.23993184E+03</rscale>
<asrwt>0</asrwt>
<pdfrwt beam="1">  1        2 0.11673068E+00 0.23993184E+03</pdfrwt>
<pdfrwt beam="2">  1       -2 0.12408345E-01 0.23993184E+03</pdfrwt>
<totfact> 0.17731113E+03</totfact>
</mgrwt>
</event>
<event>
 4    1  0.6912310E-008  0.3754621E+03  0.7818608E-02  0.1052624E+00
          2   -1    0    0  501    0  0.00000000000E+00  0.00000000000E+00  0.23877292516E+04  0.23877292516E+04  0.25500000000E-02 0. -1.
         -2   -1    0    0    0  501 -0.00000000000E+00 -0.00000000000E+00 -0.38331862484E+03  0.38331862485E+03  0.25500000000E-02 0.  1.
    8880022    1    1    2    0    0 -0.96773453681E+02  0.32896058285E+03 -0.27215768919E+03  0.46372581037E+03  0.15294330000E+03 0.  0.
    8880022    1    1    2    0    0  0.96773453681E+02 -0.32896058285E+03  0.22765683160E+04  0.23073220661E+04  0.15294330000E+03 0.  0.
<mgrwt>
<rscale>  0 0.37546214E+03</rscale>
<asrwt>0</asrwt>
<pdfrwt beam="1">  1        2 0.36734297E+00 0.37546214E+03</pdfrwt>
<pdfrwt beam="2">  1       -2 0.58972095E-01 0.37546214E+03</pdfrwt>
<totfact> 0.12349069E+01</totfact>
</mgrwt>
</event>
<event>
 4    1  0.6912310E-008  0.2419279E+03  0.7818608E-02  0.1118515E+00
         -2   -1    0    0    0  501 -0.00000000000E+00  0.00000000000E+00  0.22158967612E+03  0.22158967614E+03  0.25500000000E-02 0.  1.
          2   -1    0    0  501    0  0.00000000000E+00 -0.00000000000E+00 -0.10066099805E+04  0.10066099805E+04  0.25500000000E-02 0. -1.
    8880022    1    1    2    0    0  0.17012332662E+03 -0.78711644691E+02  0.13490170325E+03  0.27699745816E+03  0.15294330000E+03 0.  0.
    8880022    1    1    2    0    0 -0.17012332662E+03  0.78711644691E+02 -0.91992200760E+03  0.95120219846E+03  0.15294330000E+03 0.  0.
<mgrwt>
<rscale>  0 0.24192793E+03</rscale>
<asrwt>0</asrwt>
<pdfrwt beam="1">  1        2 0.15486307E+00 0.24192793E+03</pdfrwt>
<pdfrwt beam="2">  1       -2 0.34090720E-01 0.24192793E+03</pdfrwt>
<totfact> 0.21292374E+02</totfact>
</mgrwt>
</event>
<event>
 4    1  0.6912310E-008  0.6064035E+03  0.7818608E-02  0.9892209E-01
         -2   -1    0    0    0  501 -0.00000000000E+00  0.00000000000E+00  0.37512561783E+03  0.37512561784E+03  0.25500000000E-02 0.  1.
          2   -1    0    0  501    0  0.00000000000E+00 -0.00000000000E+00 -0.15603079792E+04  0.15603079792E+04  0.25500000000E-02 0. -1.
    8880022    1    1    2    0    0  0.16043932767E+02  0.58658006608E+03 -0.11826162806E+04  0.13290246430E+04  0.15294330000E+03 0.  0.
    8880022    1    1    2    0    0 -0.16043932767E+02 -0.58658006608E+03 -0.25660807794E+01  0.60640895400E+03  0.15294330000E+03 0.  1.
<mgrwt>
<rscale>  0 0.60640352E+03</rscale>
<asrwt>0</asrwt>
<pdfrwt beam="1">  1        2 0.24004738E+00 0.60640352E+03</pdfrwt>
<pdfrwt beam="2">  1       -2 0.57711634E-01 0.60640352E+03</pdfrwt>
<totfact> 0.34413424E+01</totfact>
</mgrwt>
</event>
<event>
 4    1  0.6912310E-008  0.5402053E+03  0.7818608E-02  0.1003787E+00
          2   -1    0    0  501    0  0.00000000000E+00  0.00000000000E+00  0.66847732224E+03  0.66847732224E+03  0.25500000000E-02 0. -1.
         -2   -1    0    0    0  501 -0.00000000000E+00 -0.00000000000E+00 -0.61041095695E+03  0.61041095696E+03  0.25500000000E-02 0.  1.
    8880022    1    1    2    0    0 -0.36956238720E+03  0.36311672564E+03 -0.31223534190E+03  0.62394925773E+03  0.15294330000E+03 0.  0.
    8880022    1    1    2    0    0  0.36956238720E+03 -0.36311672564E+03  0.37030170718E+03  0.65493902146E+03  0.15294330000E+03 0.  0.
<mgrwt>
<rscale>  0 0.54020530E+03</rscale>
<asrwt>0</asrwt>
<pdfrwt beam="1">  1        2 0.10284267E+00 0.54020530E+03</pdfrwt>
<pdfrwt beam="2">  1       -2 0.93909377E-01 0.54020530E+03</pdfrwt>
<totfact> 0.42914740E+01</totfact>
</mgrwt>
</event>
<event>
 4    1  0.6912310E-008  0.4276633E+03  0.7818608E-02  0.1034601E+00
         -2   -1    0    0    0  501 -0.00000000000E+00  0.00000000000E+00  0.86126439175E+03  0.86126439176E+03  0.25500000000E-02 0.  1.
          2   -1    0    0  501    0  0.00000000000E+00 -0.00000000000E+00 -0.93593025475E+03  0.93593025476E+03  0.25500000000E-02 0. -1.
    8880022    1    1    2    0    0  0.62136100274E+02 -0.39451663111E+03  0.75277148908E+03  0.86577181460E+03  0.15294330000E+03 0.  0.
    8880022    1    1    2    0    0 -0.62136100274E+02  0.39451663111E+03 -0.82743735207E+03  0.93142283191E+03  0.15294330000E+03 0.  0.
<mgrwt>
<rscale>  0 0.42766333E+03</rscale>
<asrwt>0</asrwt>
<pdfrwt beam="1">  1        2 0.14398927E+00 0.42766333E+03</pdfrwt>
<pdfrwt beam="2">  1       -2 0.13250221E+00 0.42766333E+03</pdfrwt>
<totfact> 0.12244923E+01</totfact>
</mgrwt>
</event>
<event>
 4    1  0.6912310E-008  0.3864984E+03  0.7818608E-02  0.1048558E+00
          2   -1    0    0  501    0  0.00000000000E+00  0.00000000000E+00  0.31563517479E+03  0.31563517480E+03  0.25500000000E-02 0. -1.
         -2   -1    0    0    0  501 -0.00000000000E+00 -0.00000000000E+00 -0.79194963276E+03  0.79194963276E+03  0.25500000000E-02 0.  1.
    8880022    1    1    2    0    0  0.28273049525E+03 -0.21459915002E+03  0.11313995818E+03  0.40271780602E+03  0.15294330000E+03 0.  0.
    8880022    1    1    2    0    0 -0.28273049525E+03  0.21459915002E+03 -0.58945441615E+03  0.70486700154E+03  0.15294330000E+03 0.  0.
<mgrwt>
<rscale>  0 0.38649836E+03</rscale>
<asrwt>0</asrwt>
<pdfrwt beam="1">  1        2 0.48559258E-01 0.38649836E+03</pdfrwt>
<pdfrwt beam="2">  1       -2 0.12183840E+00 0.38649836E+03</pdfrwt>
<totfact> 0.55111333E+01</totfact>
</mgrwt>
</event>
<event>
 4    1  0.6912310E-008  0.4261057E+03  0.7818608E-02  0.1035097E+00
         -2   -1    0    0    0  501 -0.00000000000E+00  0.00000000000E+00  0.39382960811E+03  0.39382960812E+03  0.25500000000E-02 0.  1.
          2   -1    0    0  501    0  0.00000000000E+00 -0.00000000000E+00 -0.26799103854E+04  0.26799103854E+04  0.25500000000E-02 0. -1.
    8880022    1    1    2    0    0  0.23183359038E+03 -0.32315254843E+03 -0.25414817068E+04  0.25769546566E+04  0.15294330000E+03 0. -1.
    8880022    1    1    2    0    0 -0.23183359038E+03  0.32315254843E+03  0.25540092950E+03  0.49678533693E+03  0.15294330000E+03 0.  0.
<mgrwt>
<rscale>  0 0.42610566E+03</rscale>
<asrwt>0</asrwt>
<pdfrwt beam="1">  1        2 0.41229389E+00 0.42610566E+03</pdfrwt>
<pdfrwt beam="2">  1       -2 0.60589172E-01 0.42610566E+03</pdfrwt>
<totfact> 0.78838583E+00</totfact>
</mgrwt>
</event>
<event>
 4    1  0.6912310E-008  0.4869844E+03  0.7818608E-02  0.1017233E+00
          2   -1    0    0  501    0  0.00000000000E+00  0.00000000000E+00  0.17630691310E+04  0.17630691310E+04  0.25500000000E-02 0. -1.
         -2   -1    0    0    0  501 -0.00000000000E+00 -0.00000000000E+00 -0.44723678472E+03  0.44723678473E+03  0.25500000000E-02 0.  1.
    8880022    1    1    2    0    0  0.46131304864E+03  0.30861835066E+02 -0.26621757534E+03  0.55500056950E+03  0.15294330000E+03 0.  0.
    8880022    1    1    2    0    0 -0.46131304864E+03 -0.30861835066E+02  0.15820499216E+04  0.16553053462E+04  0.15294330000E+03 0.  0.
<mgrwt>
<rscale>  0 0.48698443E+03</rscale>
<asrwt>0</asrwt>
<pdfrwt beam="1">  1        2 0.27124141E+00 0.48698443E+03</pdfrwt>
<pdfrwt beam="2">  1       -2 0.68805659E-01 0.48698443E+03</pdfrwt>
<totfact> 0.18767065E+01</totfact>
</mgrwt>
</event>
<event>
 4    1  0.6912310E-008  0.8520050E+03  0.7818608E-02  0.9487650E-01
         -2   -1    0    0    0  501 -0.00000000000E+00  0.00000000000E+00  0.60122421132E+03  0.60122421133E+03  0.25500000000E-02 0.  1.
          2   -1    0    0  501    0  0.00000000000E+00 -0.00000000000E+00 -0.13041018884E+04  0.13041018884E+04  0.25500000000E-02 0. -1.
    8880022    1    1    2    0    0  0.74274737642E+03 -0.38839059937E+03 -0.61086974641E+03  0.10483675038E+04  0.15294330000E+03 0.  0.
    8880022    1    1    2    0    0 -0.74274737642E+03  0.38839059937E+03 -0.92007930655E+02  0.85695859595E+03  0.15294330000E+03 0.  0.
<mgrwt>
<rscale>  0 0.85200503E+03</rscale>
<asrwt>0</asrwt>
<pdfrwt beam="1">  1        2 0.20063106E+00 0.85200503E+03</pdfrwt>
<pdfrwt beam="2">  1       -2 0.92496033E-01 0.85200503E+03</pdfrwt>
<totfact> 0.16459052E+01</totfact>
</mgrwt>
</event>
<event>
 4    1  0.6912310E-008  0.7115106E+03  0.7818608E-02  0.9697748E-01
          2   -1    0    0  501    0  0.00000000000E+00  0.00000000000E+00  0.20083956692E+04  0.20083956692E+04  0.25500000000E-02 0. -1.
         -2   -1    0    0    0  501 -0.00000000000E+00 -0.00000000000E+00 -0.87005070414E+03  0.87005070415E+03  0.25500000000E-02 0.  1.
    8880022    1    1    2    0    0 -0.69171272162E+03 -0.66251086755E+02  0.17821280397E+04  0.19189131555E+04  0.15294330000E+03 0.  0.
    8880022    1    1    2    0    0  0.69171272162E+03  0.66251086755E+02 -0.64378307466E+03  0.95953321776E+03  0.15294330000E+03 0.  0.
<mgrwt>
<rscale>  0 0.71151061E+03</rscale>
<asrwt>0</asrwt>
<pdfrwt beam="1">  1        2 0.30898394E+00 0.71151061E+03</pdfrwt>
<pdfrwt beam="2">  1       -2 0.13385396E+00 0.71151061E+03</pdfrwt>
<totfact> 0.27836917E+00</totfact>
</mgrwt>
</event>
<event>
 4    1  0.6912310E-008  0.4078071E+03  0.7818608E-02  0.1041109E+00
         -2   -1    0    0    0  501 -0.00000000000E+00  0.00000000000E+00  0.29062338486E+03  0.29062338487E+03  0.25500000000E-02 0.  1.
          2   -1    0    0  501    0  0.00000000000E+00 -0.00000000000E+00 -0.64590618583E+03  0.64590618584E+03  0.25500000000E-02 0. -1.
    8880022    1    1    2    0    0  0.83567492935E+02 -0.36868881213E+03 -0.19502798868E+02  0.40827316621E+03  0.15294330000E+03 0.  0.
    8880022    1    1    2    0    0 -0.83567492935E+02  0.36868881213E+03 -0.33578000210E+03  0.52825640450E+03  0.15294330000E+03 0.  0.
<mgrwt>
<rscale>  0 0.40780709E+03</rscale>
<asrwt>0</asrwt>
<pdfrwt beam="1">  1        2 0.99370182E-01 0.40780709E+03</pdfrwt>
<pdfrwt beam="2">  1       -2 0.44711290E-01 0.40780709E+03</pdfrwt>
<totfact> 0.22119736E+02</totfact>
</mgrwt>
</event>
<event>
 4    1  0.6912310E-008  0.5056331E+03  0.7818608E-02  0.1012319E+00
         -2   -1    0    0    0  501 -0.00000000000E+00  0.00000000000E+00  0.20546197039E+03  0.20546197041E+03  0.25500000000E-02 0.  1.
          2   -1    0    0  501    0  0.00000000000E+00 -0.00000000000E+00 -0.18658348336E+04  0.18658348336E+04  0.25500000000E-02 0. -1.
    8880022    1    1    2    0    0  0.20160793717E+03 -0.43775267245E+03 -0.14279012842E+04  0.15147827874E+04  0.15294330000E+03 0.  0.
    8880022    1    1    2    0    0 -0.20160793717E+03  0.43775267245E+03 -0.23247157893E+03  0.55651401653E+03  0.15294330000E+03 0.  0.
<mgrwt>
<rscale>  0 0.50563308E+03</rscale>
<asrwt>0</asrwt>
<pdfrwt beam="1">  1        2 0.28705150E+00 0.50563308E+03</pdfrwt>
<pdfrwt beam="2">  1       -2 0.31609535E-01 0.50563308E+03</pdfrwt>
<totfact> 0.78033583E+01</totfact>
</mgrwt>
</event>
<event>
 4    1  0.6912310E-008  0.7869557E+03  0.7818608E-02  0.9579092E-01
          2   -1    0    0  501    0  0.00000000000E+00  0.00000000000E+00  0.14454679429E+04  0.14454679429E+04  0.25500000000E-02 0. -1.
         -2   -1    0    0    0  501 -0.00000000000E+00 -0.00000000000E+00 -0.91955012561E+03  0.91955012562E+03  0.25500000000E-02 0.  1.
    8880022    1    1    2    0    0 -0.42633841038E+03  0.64353957575E+03  0.11271410594E+04  0.13746804162E+04  0.15294330000E+03 0.  0.
    8880022    1    1    2    0    0  0.42633841038E+03 -0.64353957575E+03 -0.60122324216E+03  0.99033765234E+03  0.15294330000E+03 0.  0.
<mgrwt>
<rscale>  0 0.78695570E+03</rscale>
<asrwt>0</asrwt>
<pdfrwt beam="1">  1        2 0.22237968E+00 0.78695570E+03</pdfrwt>
<pdfrwt beam="2">  1       -2 0.14146925E+00 0.78695570E+03</pdfrwt>
<totfact> 0.48571478E+00</totfact>
</mgrwt>
</event>
<event>
 4    1  0.6912310E-008  0.6218509E+03  0.7818608E-02  0.9861082E-01
          2   -1    0    0  501    0  0.00000000000E+00  0.00000000000E+00  0.11631888294E+04  0.11631888294E+04  0.25500000000E-02 0. -1.
         -2   -1    0    0    0  501 -0.00000000000E+00 -0.00000000000E+00 -0.43286429465E+03  0.43286429465E+03  0.25500000000E-02 0.  1.
    8880022    1    1    2    0    0 -0.42052870498E+03 -0.43181298462E+03  0.74952916694E+03  0.97390578112E+03  0.15294330000E+03 0.  0.
    8880022    1    1    2    0    0  0.42052870498E+03  0.43181298462E+03 -0.19204632195E+02  0.62214734292E+03  0.15294330000E+03 0.  0.
<mgrwt>
<rscale>  0 0.62185087E+03</rscale>
<asrwt>0</asrwt>
<pdfrwt beam="1">  1        2 0.17895213E+00 0.62185087E+03</pdfrwt>
<pdfrwt beam="2">  1       -2 0.66594508E-01 0.62185087E+03</pdfrwt>
<totfact> 0.42598917E+01</totfact>
</mgrwt>
</event>
<event>
 4    1  0.6912310E-008  0.1869093E+03  0.7818608E-02  0.1161279E+00
          2   -1    0    0  501    0  0.00000000000E+00  0.00000000000E+00  0.84087179786E+03  0.84087179787E+03  0.25500000000E-02 0. -1.
         -2   -1    0    0    0  501 -0.00000000000E+00 -0.00000000000E+00 -0.20009752374E+03  0.20009752376E+03  0.25500000000E-02 0.  1.
    8880022    1    1    2    0    0 -0.85651573016E+02  0.64863363195E+02 -0.14292309885E+03  0.23529154903E+03  0.15294330000E+03 0.  0.
    8880022    1    1    2    0    0  0.85651573016E+02 -0.64863363195E+02  0.78369737297E+03  0.80567777260E+03  0.15294330000E+03 0. -1.
<mgrwt>
<rscale>  0 0.18690934E+03</rscale>
<asrwt>0</asrwt>
<pdfrwt beam="1">  1        2 0.12936489E+00 0.18690934E+03</pdfrwt>
<pdfrwt beam="2">  1       -2 0.30784235E-01 0.18690934E+03</pdfrwt>
<totfact> 0.33002352E+02</totfact>
</mgrwt>
</event>
<event>
 4    1  0.6912310E-008  0.6748395E+03  0.7818608E-02  0.9761254E-01
          2   -1    0    0  501    0  0.00000000000E+00  0.00000000000E+00  0.17425900905E+04  0.17425900905E+04  0.25500000000E-02 0. -1.
         -2   -1    0    0    0  501 -0.00000000000E+00 -0.00000000000E+00 -0.43816143960E+03  0.43816143961E+03  0.25500000000E-02 0.  1.
    8880022    1    1    2    0    0 -0.58046170059E+03 -0.30835201560E+03 -0.40456087171E+02  0.67605110708E+03  0.15294330000E+03 0.  1.
    8880022    1    1    2    0    0  0.58046170059E+03  0.30835201560E+03  0.13448847381E+04  0.15047004230E+04  0.15294330000E+03 0.  0.
<mgrwt>
<rscale>  0 0.67483954E+03</rscale>
<asrwt>0</asrwt>
<pdfrwt beam="1">  1        2 0.26809078E+00 0.67483954E+03</pdfrwt>
<pdfrwt beam="2">  1       -2 0.67409452E-01 0.67483954E+03</pdfrwt>
<totfact> 0.19478802E+01</totfact>
</mgrwt>
</event>
<event>
 4    1  0.6912310E-008  0.2760137E+03  0.7818608E-02  0.1097886E+00
         -2   -1    0    0    0  501 -0.00000000000E+00  0.00000000000E+00  0.63588149259E+03  0.63588149260E+03  0.25500000000E-02 0.  1.
          2   -1    0    0  501    0  0.00000000000E+00 -0.00000000000E+00 -0.15047417858E+04  0.15047417858E+04  0.25500000000E-02 0. -1.
    8880022    1    1    2    0    0 -0.10610770015E+03  0.20379660795E+03 -0.14612489099E+04  0.14870884073E+04  0.15294330000E+03 0.  0.
    8880022    1    1    2    0    0  0.10610770015E+03 -0.20379660795E+03  0.59238861673E+03  0.65353487106E+03  0.15294330000E+03 0.  0.
<mgrwt>
<rscale>  0 0.27601369E+03</rscale>
<asrwt>0</asrwt>
<pdfrwt beam="1">  1        2 0.23149873E+00 0.27601369E+03</pdfrwt>
<pdfrwt beam="2">  1       -2 0.97827923E-01 0.27601369E+03</pdfrwt>
<totfact> 0.12453295E+01</totfact>
</mgrwt>
</event>
<event>
 4    1  0.6912310E-008  0.7874795E+03  0.7818608E-02  0.9578319E-01
         -2   -1    0    0    0  501 -0.00000000000E+00  0.00000000000E+00  0.11532762417E+04  0.11532762417E+04  0.25500000000E-02 0.  1.
          2   -1    0    0  501    0  0.00000000000E+00 -0.00000000000E+00 -0.11001410492E+04  0.11001410492E+04  0.25500000000E-02 0. -1.
    8880022    1    1    2    0    0 -0.77093328593E+03 -0.48931021037E+02 -0.77903984946E+03  0.11077125603E+04  0.15294330000E+03 0.  0.
    8880022    1    1    2    0    0  0.77093328593E+03  0.48931021037E+02  0.83217504201E+03  0.11457047306E+04  0.15294330000E+03 0.  0.
<mgrwt>
<rscale>  0 0.78747954E+03</rscale>
<asrwt>0</asrwt>
<pdfrwt beam="1">  1        2 0.16925247E+00 0.78747954E+03</pdfrwt>
<pdfrwt beam="2">  1       -2 0.17742711E+00 0.78747954E+03</pdfrwt>
<totfact> 0.41856992E+00</totfact>
</mgrwt>
</event>
<event>
 4    1  0.6912310E-008  0.6296072E+03  0.7818608E-02  0.9845816E-01
         -2   -1    0    0    0  501 -0.00000000000E+00  0.00000000000E+00  0.73805593846E+03  0.73805593847E+03  0.25500000000E-02 0.  1.
          2   -1    0    0  501    0  0.00000000000E+00 -0.00000000000E+00 -0.16997363181E+04  0.16997363181E+04  0.25500000000E-02 0. -1.
    8880022    1    1    2    0    0  0.60922264077E+03 -0.43143011730E+02 -0.14889295682E+04  0.16165755341E+04  0.15294330000E+03 0.  0.
    8880022    1    1    2    0    0 -0.60922264077E+03  0.43143011730E+02  0.52724918851E+03  0.82121672248E+03  0.15294330000E+03 0.  0.
<mgrwt>
<rscale>  0 0.62960718E+03</rscale>
<asrwt>0</asrwt>
<pdfrwt beam="1">  1        2 0.26149789E+00 0.62960718E+03</pdfrwt>
<pdfrwt beam="2">  1       -2 0.11354707E+00 0.62960718E+03</pdfrwt>
<totfact> 0.62648994E+00</totfact>
</mgrwt>
</event>
<event>
 4    1  0.6912310E-008  0.1142287E+04  0.7818608E-02  0.9164928E-01
         -2   -1    0    0    0  501 -0.00000000000E+00  0.00000000000E+00  0.11074333327E+04  0.11074333327E+04  0.25500000000E-02 0.  1.
          2   -1    0    0  501    0  0.00000000000E+00 -0.00000000000E+00 -0.24948792428E+04  0.24948792428E+04  0.25500000000E-02 0. -1.
    8880022    1    1    2    0    0  0.11311923408E+04  0.42810527376E+02 -0.20021824739E+04  0.23051150003E+04  0.15294330000E+03 0.  0.
    8880022    1    1    2    0    0 -0.11311923408E+04 -0.42810527376E+02  0.61473656374E+03  0.12971975752E+04  0.15294330000E+03 0.  0.
<mgrwt>
<rscale>  0 0.11422874E+04</rscale>
<asrwt>0</asrwt>
<pdfrwt beam="1">  1        2 0.38382757E+00 0.11422874E+04</pdfrwt>
<pdfrwt beam="2">  1       -2 0.17037436E+00 0.11422874E+04</pdfrwt>
<totfact> 0.73075196E-01</totfact>
</mgrwt>
</event>
<event>
 4    1  0.6912310E-008  0.1397893E+04  0.7818608E-02  0.8955345E-01
          2   -1    0    0  501    0  0.00000000000E+00  0.00000000000E+00  0.26702039582E+04  0.26702039582E+04  0.25500000000E-02 0. -1.
         -2   -1    0    0    0  501 -0.00000000000E+00 -0.00000000000E+00 -0.92075885741E+03  0.92075885742E+03  0.25500000000E-02 0.  1.
    8880022    1    1    2    0    0 -0.13802268269E+04  0.16027383898E+03  0.16880585286E+04  0.21917223926E+04  0.15294330000E+03 0.  0.
    8880022    1    1    2    0    0  0.13802268269E+04 -0.16027383898E+03  0.61386572162E+02  0.13992404230E+04  0.15294330000E+03 0.  0.
<mgrwt>
<rscale>  0 0.13978932E+04</rscale>
<asrwt>0</asrwt>
<pdfrwt beam="1">  1        2 0.41080061E+00 0.13978932E+04</pdfrwt>
<pdfrwt beam="2">  1       -2 0.14165521E+00 0.13978932E+04</pdfrwt>
<totfact> 0.92243156E-01</totfact>
</mgrwt>
</event>
<event>
 4    1  0.6912310E-008  0.2664849E+03  0.7818608E-02  0.1103308E+00
         -2   -1    0    0    0  501 -0.00000000000E+00  0.00000000000E+00  0.13684775615E+03  0.13684775617E+03  0.25500000000E-02 0.  1.
          2   -1    0    0  501    0  0.00000000000E+00 -0.00000000000E+00 -0.35444084484E+04  0.35444084484E+04  0.25500000000E-02 0. -1.
    8880022    1    1    2    0    0  0.21005074232E+03  0.59171282608E+02 -0.34043377738E+04  0.34147518045E+04  0.15294330000E+03 0.  0.
    8880022    1    1    2    0    0 -0.21005074232E+03 -0.59171282608E+02 -0.32229184188E+01  0.26650440006E+03  0.15294330000E+03 0.  1.
<mgrwt>
<rscale>  0 0.26648491E+03</rscale>
<asrwt>0</asrwt>
<pdfrwt beam="1">  1        2 0.54529354E+00 0.26648491E+03</pdfrwt>
<pdfrwt beam="2">  1       -2 0.21053504E-01 0.26648491E+03</pdfrwt>
<totfact> 0.18412557E+01</totfact>
</mgrwt>
</event>
<event>
 4    1  0.6912310E-008  0.2797028E+03  0.7818608E-02  0.1095851E+00
         -2   -1    0    0    0  501 -0.00000000000E+00  0.00000000000E+00  0.28081120448E+03  0.28081120450E+03  0.25500000000E-02 0.  1.
          2   -1    0    0  501    0  0.00000000000E+00 -0.00000000000E+00 -0.11409982378E+04  0.11409982378E+04  0.25500000000E-02 0. -1.
    8880022    1    1    2    0    0  0.11554316474E+03 -0.20369537147E+03 -0.10481428322E+04  0.10848212189E+04  0.15294330000E+03 0.  0.
    8880022    1    1    2    0    0 -0.11554316474E+03  0.20369537147E+03  0.18795579896E+03  0.33698822332E+03  0.15294330000E+03 0.  1.
<mgrwt>
<rscale>  0 0.27970284E+03</rscale>
<asrwt>0</asrwt>
<pdfrwt beam="1">  1        2 0.17553819E+00 0.27970284E+03</pdfrwt>
<pdfrwt beam="2">  1       -2 0.43201725E-01 0.27970284E+03</pdfrwt>
<totfact> 0.11209932E+02</totfact>
</mgrwt>
</event>
<event>
 4    1  0.6912310E-008  0.5988089E+03  0.7818608E-02  0.9907880E-01
          2   -1    0    0  501    0  0.00000000000E+00  0.00000000000E+00  0.90576962818E+03  0.90576962818E+03  0.25500000000E-02 0. -1.
         -2   -1    0    0    0  501 -0.00000000000E+00 -0.00000000000E+00 -0.10497256216E+04  0.10497256216E+04  0.25500000000E-02 0.  1.
    8880022    1    1    2    0    0  0.44313569577E+03  0.37257374533E+03 -0.84364146860E+03  0.10345545037E+04  0.15294330000E+03 0.  0.
    8880022    1    1    2    0    0 -0.44313569577E+03 -0.37257374533E+03  0.69968547519E+03  0.92094074607E+03  0.15294330000E+03 0.  0.
<mgrwt>
<rscale>  0 0.59880890E+03</rscale>
<asrwt>0</asrwt>
<pdfrwt beam="1">  1        2 0.13934917E+00 0.59880890E+03</pdfrwt>
<pdfrwt beam="2">  1       -2 0.16149625E+00 0.59880890E+03</pdfrwt>
<totfact> 0.74209940E+00</totfact>
</mgrwt>
</event>
<event>
 4    1  0.6912310E-008  0.3329475E+03  0.7818608E-02  0.1069840E+00
         -2   -1    0    0    0  501 -0.00000000000E+00  0.00000000000E+00  0.56468094173E+03  0.56468094173E+03  0.25500000000E-02 0.  1.
          2   -1    0    0  501    0  0.00000000000E+00 -0.00000000000E+00 -0.35638079520E+03  0.35638079521E+03  0.25500000000E-02 0. -1.
    8880022    1    1    2    0    0 -0.27161773555E+03 -0.11698800557E+03 -0.20449118910E+03  0.39073096517E+03  0.15294330000E+03 0.  0.
    8880022    1    1    2    0    0  0.27161773555E+03  0.11698800557E+03  0.41279133562E+03  0.53033077177E+03  0.15294330000E+03 0.  0.
<mgrwt>
<rscale>  0 0.33294750E+03</rscale>
<asrwt>0</asrwt>
<pdfrwt beam="1">  1        2 0.54827815E-01 0.33294750E+03</pdfrwt>
<pdfrwt beam="2">  1       -2 0.86873991E-01 0.33294750E+03</pdfrwt>
<totfact> 0.10767837E+02</totfact>
</mgrwt>
</event>
<event>
 4    1  0.6912310E-008  0.7388813E+03  0.7818608E-02  0.9652957E-01
          2   -1    0    0  501    0  0.00000000000E+00  0.00000000000E+00  0.68890534526E+03  0.68890534526E+03  0.25500000000E-02 0. -1.
         -2   -1    0    0    0  501 -0.00000000000E+00 -0.00000000000E+00 -0.94167906433E+03  0.94167906433E+03  0.25500000000E-02 0.  1.
    8880022    1    1    2    0    0 -0.71662697739E+03  0.94866599815E+02  0.19813278507E+03  0.76498506522E+03  0.15294330000E+03 0.  0.
    8880022    1    1    2    0    0  0.71662697739E+03 -0.94866599815E+02 -0.45090650414E+03  0.86559934437E+03  0.15294330000E+03 0.  0.
<mgrwt>
<rscale>  0 0.73888128E+03</rscale>
<asrwt>0</asrwt>
<pdfrwt beam="1">  1        2 0.10598544E+00 0.73888128E+03</pdfrwt>
<pdfrwt beam="2">  1       -2 0.14487370E+00 0.73888128E+03</pdfrwt>
<totfact> 0.13950721E+01</totfact>
</mgrwt>
</event>
<event>
 4    1  0.6912310E-008  0.1101903E+04  0.7818608E-02  0.9203339E-01
          2   -1    0    0  501    0  0.00000000000E+00  0.00000000000E+00  0.90920056222E+03  0.90920056223E+03  0.25500000000E-02 0. -1.
         -2   -1    0    0    0  501 -0.00000000000E+00 -0.00000000000E+00 -0.28789911004E+04  0.28789911004E+04  0.25500000000E-02 0.  1.
    8880022    1    1    2    0    0  0.11852110619E+03  0.10847820345E+04 -0.23717821144E+04  0.26152516832E+04  0.15294330000E+03 0.  0.
    8880022    1    1    2    0    0 -0.11852110619E+03 -0.10847820345E+04  0.40199157624E+03  0.11729399795E+04  0.15294330000E+03 0.  0.
<mgrwt>
<rscale>  0 0.11019033E+04</rscale>
<asrwt>0</asrwt>
<pdfrwt beam="1">  1        2 0.13987701E+00 0.11019033E+04</pdfrwt>
<pdfrwt beam="2">  1       -2 0.44292170E+00 0.11019033E+04</pdfrwt>
<totfact> 0.11188335E-01</totfact>
</mgrwt>
</event>
<event>
 4    1  0.6912310E-008  0.6045427E+03  0.7818608E-02  0.9896026E-01
          2   -1    0    0  501    0  0.00000000000E+00  0.00000000000E+00  0.16771742835E+04  0.16771742835E+04  0.25500000000E-02 0. -1.
         -2   -1    0    0    0  501 -0.00000000000E+00 -0.00000000000E+00 -0.22280016704E+03  0.22280016706E+03  0.25500000000E-02 0.  1.
    8880022    1    1    2    0    0  0.31105226788E+03  0.49530465338E+03  0.86793859697E+03  0.10577283555E+04  0.15294330000E+03 0.  0.
    8880022    1    1    2    0    0 -0.31105226788E+03 -0.49530465338E+03  0.58643551948E+03  0.84224609499E+03  0.15294330000E+03 0.  0.
<mgrwt>
<rscale>  0 0.60454269E+03</rscale>
<asrwt>0</asrwt>
<pdfrwt beam="1">  1        2 0.25802681E+00 0.60454269E+03</pdfrwt>
<pdfrwt beam="2">  1       -2 0.34276950E-01 0.60454269E+03</pdfrwt>
<totfact> 0.83596266E+01</totfact>
</mgrwt>
</event>
<event>
 4    1  0.6912310E-008  0.6543750E+03  0.7818608E-02  0.9798604E-01
          2   -1    0    0  501    0  0.00000000000E+00  0.00000000000E+00  0.11179578420E+04  0.11179578420E+04  0.25500000000E-02 0. -1.
         -2   -1    0    0    0  501 -0.00000000000E+00 -0.00000000000E+00 -0.60614862592E+03  0.60614862592E+03  0.25500000000E-02 0.  1.
    8880022    1    1    2    0    0  0.30700027199E+03  0.55728434904E+03 -0.26711328989E+03  0.70679288008E+03  0.15294330000E+03 0.  0.
    8880022    1    1    2    0    0 -0.30700027199E+03 -0.55728434904E+03  0.77892250597E+03  0.10173135878E+04  0.15294330000E+03 0.  0.
<mgrwt>
<rscale>  0 0.65437502E+03</rscale>
<asrwt>0</asrwt>
<pdfrwt beam="1">  1        2 0.17199351E+00 0.65437502E+03</pdfrwt>
<pdfrwt beam="2">  1       -2 0.93253635E-01 0.65437502E+03</pdfrwt>
<totfact> 0.21274924E+01</totfact>
</mgrwt>
</event>
<event>
 4    1  0.6912310E-008  0.3806530E+03  0.7818608E-02  0.1050693E+00
         -2   -1    0    0    0  501 -0.00000000000E+00  0.00000000000E+00  0.38717718332E+03  0.38717718333E+03  0.25500000000E-02 0.  1.
          2   -1    0    0  501    0  0.00000000000E+00 -0.00000000000E+00 -0.22338902741E+04  0.22338902741E+04  0.25500000000E-02 0. -1.
    8880022    1    1    2    0    0 -0.29371639074E+03 -0.18771190306E+03 -0.21190863700E+04  0.21530034309E+04  0.15294330000E+03 0. -1.
    8880022    1    1    2    0    0  0.29371639074E+03  0.18771190306E+03  0.27237327921E+03  0.46806402658E+03  0.15294330000E+03 0.  0.
<mgrwt>
<rscale>  0 0.38065303E+03</rscale>
<asrwt>0</asrwt>
<pdfrwt beam="1">  1        2 0.34367542E+00 0.38065303E+03</pdfrwt>
<pdfrwt beam="2">  1       -2 0.59565722E-01 0.38065303E+03</pdfrwt>
<totfact> 0.14637705E+01</totfact>
</mgrwt>
</event>
<event>
 4    1  0.6912310E-008  0.2692224E+03  0.7818608E-02  0.1101725E+00
         -2   -1    0    0    0  501 -0.00000000000E+00  0.00000000000E+00  0.30337292081E+03  0.30337292082E+03  0.25500000000E-02 0.  1.
          2   -1    0    0  501    0  0.00000000000E+00 -0.00000000000E+00 -0.70362585619E+03  0.70362585619E+03  0.25500000000E-02 0. -1.
    8880022    1    1    2    0    0 -0.14000580150E+03 -0.17171895606E+03 -0.60931075084E+03  0.66613832529E+03  0.15294330000E+03 0.  0.
    8880022    1    1    2    0    0  0.14000580150E+03  0.17171895606E+03  0.20905781546E+03  0.34086045172E+03  0.15294330000E+03 0.  0.
<mgrwt>
<rscale>  0 0.26922236E+03</rscale>
<asrwt>0</asrwt>
<pdfrwt beam="1">  1        2 0.10825013E+00 0.26922236E+03</pdfrwt>
<pdfrwt beam="2">  1       -2 0.46672757E-01 0.26922236E+03</pdfrwt>
<totfact> 0.18560603E+02</totfact>
</mgrwt>
</event>
<event>
 4    1  0.6912310E-008  0.5500795E+03  0.7818608E-02  0.1001476E+00
          2   -1    0    0  501    0  0.00000000000E+00  0.00000000000E+00  0.40501280118E+03  0.40501280119E+03  0.25500000000E-02 0. -1.
         -2   -1    0    0    0  501 -0.00000000000E+00 -0.00000000000E+00 -0.20268766616E+04  0.20268766616E+04  0.25500000000E-02 0.  1.
    8880022    1    1    2    0    0 -0.68457038985E+02 -0.52393645493E+03  0.15526638708E+03  0.57157246169E+03  0.15294330000E+03 0.  0.
    8880022    1    1    2    0    0  0.68457038985E+02  0.52393645493E+03 -0.17771302475E+04  0.18603170011E+04  0.15294330000E+03 0.  0.
<mgrwt>
<rscale>  0 0.55007947E+03</rscale>
<asrwt>0</asrwt>
<pdfrwt beam="1">  1        2 0.62309663E-01 0.55007947E+03</pdfrwt>
<pdfrwt beam="2">  1       -2 0.31182717E+00 0.55007947E+03</pdfrwt>
<totfact> 0.22810983E+00</totfact>
</mgrwt>
</event>
<event>
 4    1  0.6912310E-008  0.4068645E+03  0.7818608E-02  0.1041428E+00
          2   -1    0    0  501    0  0.00000000000E+00  0.00000000000E+00  0.26855583071E+04  0.26855583071E+04  0.25500000000E-02 0. -1.
         -2   -1    0    0    0  501 -0.00000000000E+00 -0.00000000000E+00 -0.78371133040E+02  0.78371133081E+02  0.25500000000E-02 0.  1.
    8880022    1    1    2    0    0 -0.36994716489E+03 -0.72705755860E+02  0.19421177875E+04  0.19842782530E+04  0.15294330000E+03 0.  0.
    8880022    1    1    2    0    0  0.36994716489E+03  0.72705755860E+02  0.66506938659E+03  0.77965118722E+03  0.15294330000E+03 0.  0.
<mgrwt>
<rscale>  0 0.40686446E+03</rscale>
<asrwt>0</asrwt>
<pdfrwt beam="1">  1        2 0.41316275E+00 0.40686446E+03</pdfrwt>
<pdfrwt beam="2">  1       -2 0.12057099E-01 0.40686446E+03</pdfrwt>
<totfact> 0.15039516E+02</totfact>
</mgrwt>
</event>
<event>
 4    1  0.6912310E-008  0.7173945E+03  0.7818608E-02  0.9687939E-01
         -2   -1    0    0    0  501 -0.00000000000E+00  0.00000000000E+00  0.59008453260E+03  0.59008453260E+03  0.25500000000E-02 0.  1.
          2   -1    0    0  501    0  0.00000000000E+00 -0.00000000000E+00 -0.12146460108E+04  0.12146460108E+04  0.25500000000E-02 0. -1.
    8880022    1    1    2    0    0  0.29565890184E+03 -0.63549120480E+03  0.16686942040E+03  0.73654620636E+03  0.15294330000E+03 0.  1.
    8880022    1    1    2    0    0 -0.29565890184E+03  0.63549120480E+03 -0.79143089857E+03  0.10681843370E+04  0.15294330000E+03 0. -1.
<mgrwt>
<rscale>  0 0.71739453E+03</rscale>
<asrwt>0</asrwt>
<pdfrwt beam="1">  1        2 0.18686862E+00 0.71739453E+03</pdfrwt>
<pdfrwt beam="2">  1       -2 0.90782236E-01 0.71739453E+03</pdfrwt>
<totfact> 0.19674533E+01</totfact>
</mgrwt>
</event>
<event>
 4    1  0.6912310E-008  0.8209400E+03  0.7818608E-02  0.9530192E-01
         -2   -1    0    0    0  501 -0.00000000000E+00  0.00000000000E+00  0.52713333661E+03  0.52713333662E+03  0.25500000000E-02 0.  1.
          2   -1    0    0  501    0  0.00000000000E+00 -0.00000000000E+00 -0.27481419064E+04  0.27481419064E+04  0.25500000000E-02 0. -1.
    8880022    1    1    2    0    0 -0.36850905339E+03 -0.71746212144E+03  0.87072289541E+02  0.82554470185E+03  0.15294330000E+03 0.  0.
    8880022    1    1    2    0    0  0.36850905339E+03  0.71746212144E+03 -0.23080808593E+04  0.24497305411E+04  0.15294330000E+03 0.  0.
<mgrwt>
<rscale>  0 0.82093999E+03</rscale>
<asrwt>0</asrwt>
<pdfrwt beam="1">  1        2 0.42279105E+00 0.82093999E+03</pdfrwt>
<pdfrwt beam="2">  1       -2 0.81097438E-01 0.82093999E+03</pdfrwt>
<totfact> 0.34791196E+00</totfact>
</mgrwt>
</event>
<event>
 4    1  0.6912310E-008  0.6321597E+03  0.7818608E-02  0.9840843E-01
          2   -1    0    0  501    0  0.00000000000E+00  0.00000000000E+00  0.47507538778E+04  0.47507538778E+04  0.25500000000E-02 0. -1.
         -2   -1    0    0    0  501 -0.00000000000E+00 -0.00000000000E+00 -0.17962987171E+03  0.17962987172E+03  0.25500000000E-02 0.  1.
    8880022    1    1    2    0    0  0.55415542882E+03 -0.26295620679E+03  0.40831460088E+04  0.41317922489E+04  0.15294330000E+03 0.  0.
    8880022    1    1    2    0    0 -0.55415542882E+03  0.26295620679E+03  0.48797799728E+03  0.79859150060E+03  0.15294330000E+03 0.  0.
<mgrwt>
<rscale>  0 0.63215968E+03</rscale>
<asrwt>0</asrwt>
<pdfrwt beam="1">  1        2 0.73088518E+00 0.63215968E+03</pdfrwt>
<pdfrwt beam="2">  1       -2 0.27635366E-01 0.63215968E+03</pdfrwt>
<totfact> 0.96416770E-01</totfact>
</mgrwt>
</event>
<event>
 4    1  0.6912310E-008  0.7526784E+03  0.7818608E-02  0.9631158E-01
         -2   -1    0    0    0  501 -0.00000000000E+00  0.00000000000E+00  0.24983297204E+03  0.24983297205E+03  0.25500000000E-02 0.  1.
          2   -1    0    0  501    0  0.00000000000E+00 -0.00000000000E+00 -0.26813422360E+04  0.26813422360E+04  0.25500000000E-02 0. -1.
    8880022    1    1    2    0    0  0.68091580307E+03 -0.28193402759E+03 -0.17914505715E+04  0.19431469141E+04  0.15294330000E+03 0.  0.
    8880022    1    1    2    0    0 -0.68091580307E+03  0.28193402759E+03 -0.64005869247E+03  0.98802829393E+03  0.15294330000E+03 0.  0.
<mgrwt>
<rscale>  0 0.75267840E+03</rscale>
<asrwt>0</asrwt>
<pdfrwt beam="1">  1        2 0.41251417E+00 0.75267840E+03</pdfrwt>
<pdfrwt beam="2">  1       -2 0.38435844E-01 0.75267840E+03</pdfrwt>
<totfact> 0.18296076E+01</totfact>
</mgrwt>
</event>
<event>
 4    1  0.6912310E-008  0.1201334E+04  0.7818608E-02  0.9111689E-01
          2   -1    0    0  501    0  0.00000000000E+00  0.00000000000E+00  0.13668876831E+04  0.13668876831E+04  0.25500000000E-02 0. -1.
         -2   -1    0    0    0  501 -0.00000000000E+00 -0.00000000000E+00 -0.20341177671E+04  0.20341177671E+04  0.25500000000E-02 0.  1.
    8880022    1    1    2    0    0 -0.70751528133E+03 -0.95876742093E+03  0.84567880724E+03  0.14691416333E+04  0.15294330000E+03 0.  0.
    8880022    1    1    2    0    0  0.70751528133E+03  0.95876742093E+03 -0.15129088913E+04  0.19318638169E+04  0.15294330000E+03 0.  0.
<mgrwt>
<rscale>  0 0.12013345E+04</rscale>
<asrwt>0</asrwt>
<pdfrwt beam="1">  1        2 0.21029041E+00 0.12013345E+04</pdfrwt>
<pdfrwt beam="2">  1       -2 0.31294120E+00 0.12013345E+04</pdfrwt>
<totfact> 0.39093585E-01</totfact>
</mgrwt>
</event>
<event>
 4    1  0.6912310E-008  0.5274089E+03  0.7818608E-02  0.1006862E+00
         -2   -1    0    0    0  501 -0.00000000000E+00  0.00000000000E+00  0.27165007790E+03  0.27165007791E+03  0.25500000000E-02 0.  1.
          2   -1    0    0  501    0  0.00000000000E+00 -0.00000000000E+00 -0.14663222658E+04  0.14663222658E+04  0.25500000000E-02 0. -1.
    8880022    1    1    2    0    0  0.34231220821E+03 -0.37093236461E+03 -0.12004335507E+03  0.54089788973E+03  0.15294330000E+03 0.  0.
    8880022    1    1    2    0    0 -0.34231220821E+03  0.37093236461E+03 -0.10746288328E+04  0.11970744539E+04  0.15294330000E+03 0.  0.
<mgrwt>
<rscale>  0 0.52740887E+03</rscale>
<asrwt>0</asrwt>
<pdfrwt beam="1">  1        2 0.22558804E+00 0.52740887E+03</pdfrwt>
<pdfrwt beam="2">  1       -2 0.41792320E-01 0.52740887E+03</pdfrwt>
<totfact> 0.75246941E+01</totfact>
</mgrwt>
</event>
<event>
 4    1  0.6912310E-008  0.3125716E+03  0.7818608E-02  0.1079120E+00
         -2   -1    0    0    0  501 -0.00000000000E+00  0.00000000000E+00  0.16036931965E+03  0.16036931967E+03  0.25500000000E-02 0.  1.
          2   -1    0    0  501    0  0.00000000000E+00 -0.00000000000E+00 -0.29179444727E+04  0.29179444727E+04  0.25500000000E-02 0. -1.
    8880022    1    1    2    0    0 -0.45857209017E+02  0.26871266589E+03 -0.27478710990E+04  0.27655915480E+04  0.15294330000E+03 0.  0.
    8880022    1    1    2    0    0  0.45857209017E+02 -0.26871266589E+03 -0.97040539958E+01  0.31272224435E+03  0.15294330000E+03 0.  0.
<mgrwt>
<rscale>  0 0.31257165E+03</rscale>
<asrwt>0</asrwt>
<pdfrwt beam="1">  1        2 0.44891449E+00 0.31257165E+03</pdfrwt>
<pdfrwt beam="2">  1       -2 0.24672205E-01 0.31257165E+03</pdfrwt>
<totfact> 0.33621215E+01</totfact>
</mgrwt>
</event>
<event>
 4    1  0.6912310E-008  0.6870705E+03  0.7818608E-02  0.9739602E-01
         -2   -1    0    0    0  501 -0.00000000000E+00  0.00000000000E+00  0.12843091378E+04  0.12843091378E+04  0.25500000000E-02 0.  1.
          2   -1    0    0  501    0  0.00000000000E+00 -0.00000000000E+00 -0.86634897311E+03  0.86634897311E+03  0.25500000000E-02 0. -1.
    8880022    1    1    2    0    0  0.66698259412E+03  0.61712835678E+02  0.10249076248E+04  0.12338968949E+04  0.15294330000E+03 0.  0.
    8880022    1    1    2    0    0 -0.66698259412E+03 -0.61712835678E+02 -0.60694746005E+03  0.91676121603E+03  0.15294330000E+03 0.  0.
<mgrwt>
<rscale>  0 0.68707053E+03</rscale>
<asrwt>0</asrwt>
<pdfrwt beam="1">  1        2 0.13328446E+00 0.68707053E+03</pdfrwt>
<pdfrwt beam="2">  1       -2 0.19758602E+00 0.68707053E+03</pdfrwt>
<totfact> 0.44001804E+00</totfact>
</mgrwt>
</event>
<event>
 4    1  0.6912310E-008  0.5220194E+03  0.7818608E-02  0.1008186E+00
         -2   -1    0    0    0  501 -0.00000000000E+00  0.00000000000E+00  0.41190559009E+03  0.41190559010E+03  0.25500000000E-02 0.  1.
          2   -1    0    0  501    0  0.00000000000E+00 -0.00000000000E+00 -0.14701690405E+04  0.14701690405E+04  0.25500000000E-02 0. -1.
    8880022    1    1    2    0    0  0.46960632036E+03 -0.16906349821E+03  0.16876301851E+03  0.54862115524E+03  0.15294330000E+03 0.  0.
    8880022    1    1    2    0    0 -0.46960632036E+03  0.16906349821E+03 -0.12270264690E+04  0.13334534754E+04  0.15294330000E+03 0.  0.
<mgrwt>
<rscale>  0 0.52201936E+03</rscale>
<asrwt>0</asrwt>
<pdfrwt beam="1">  1        2 0.22617985E+00 0.52201936E+03</pdfrwt>
<pdfrwt beam="2">  1       -2 0.63370092E-01 0.52201936E+03</pdfrwt>
<totfact> 0.32089799E+01</totfact>
</mgrwt>
</event>
<event>
 4    1  0.6912310E-008  0.4254712E+03  0.7818608E-02  0.1035300E+00
          2   -1    0    0  501    0  0.00000000000E+00  0.00000000000E+00  0.16633237589E+04  0.16633237589E+04  0.25500000000E-02 0. -1.
         -2   -1    0    0    0  501 -0.00000000000E+00 -0.00000000000E+00 -0.17383577756E+03  0.17383577758E+03  0.25500000000E-02 0.  1.
    8880022    1    1    2    0    0 -0.39150280162E+03 -0.66027533692E+02  0.13064522452E+04  0.13739880644E+04  0.15294330000E+03 0.  0.
    8880022    1    1    2    0    0  0.39150280162E+03  0.66027533692E+02  0.18303573609E+03  0.46317147211E+03  0.15294330000E+03 0.  0.
<mgrwt>
<rscale>  0 0.42547119E+03</rscale>
<asrwt>0</asrwt>
<pdfrwt beam="1">  1        2 0.25589596E+00 0.42547119E+03</pdfrwt>
<pdfrwt beam="2">  1       -2 0.26743966E-01 0.42547119E+03</pdfrwt>
<totfact> 0.13791019E+02</totfact>
</mgrwt>
</event>
<event>
 4    1  0.6912310E-008  0.6270360E+03  0.7818608E-02  0.9850850E-01
          2   -1    0    0  501    0  0.00000000000E+00  0.00000000000E+00  0.10052760990E+04  0.10052760990E+04  0.25500000000E-02 0. -1.
         -2   -1    0    0    0  501 -0.00000000000E+00 -0.00000000000E+00 -0.43842367612E+03  0.43842367612E+03  0.25500000000E-02 0.  1.
    8880022    1    1    2    0    0  0.46406307345E+03 -0.39297325384E+03  0.52055831457E+03  0.81495713155E+03  0.15294330000E+03 0.  0.
    8880022    1    1    2    0    0 -0.46406307345E+03  0.39297325384E+03  0.46294108308E+02  0.62874264358E+03  0.15294330000E+03 0.  0.
<mgrwt>
<rscale>  0 0.62703602E+03</rscale>
<asrwt>0</asrwt>
<pdfrwt beam="1">  1        2 0.15465786E+00 0.62703602E+03</pdfrwt>
<pdfrwt beam="2">  1       -2 0.67449798E-01 0.62703602E+03</pdfrwt>
<totfact> 0.51748729E+01</totfact>
</mgrwt>
</event>
<event>
 4    1  0.6912310E-008  0.8693722E+03  0.7818608E-02  0.9464699E-01
         -2   -1    0    0    0  501 -0.00000000000E+00  0.00000000000E+00  0.17636303348E+04  0.17636303348E+04  0.25500000000E-02 0.  1.
          2   -1    0    0  501    0  0.00000000000E+00 -0.00000000000E+00 -0.89919298207E+03  0.89919298207E+03  0.25500000000E-02 0. -1.
    8880022    1    1    2    0    0 -0.77208620870E+03 -0.36918739034E+03 -0.53101257749E+03  0.10187160808E+04  0.15294330000E+03 0.  0.
    8880022    1    1    2    0    0  0.77208620870E+03  0.36918739034E+03  0.13954499303E+04  0.16441072361E+04  0.15294330000E+03 0.  0.
<mgrwt>
<rscale>  0 0.86937224E+03</rscale>
<asrwt>0</asrwt>
<pdfrwt beam="1">  1        2 0.13833738E+00 0.86937224E+03</pdfrwt>
<pdfrwt beam="2">  1       -2 0.27132774E+00 0.86937224E+03</pdfrwt>
<totfact> 0.14218376E+00</totfact>
</mgrwt>
</event>
<event>
 4    1  0.6912310E-008  0.5156996E+03  0.7818608E-02  0.1009760E+00
         -2   -1    0    0    0  501 -0.00000000000E+00  0.00000000000E+00  0.48007753488E+03  0.48007753489E+03  0.25500000000E-02 0.  1.
          2   -1    0    0  501    0  0.00000000000E+00 -0.00000000000E+00 -0.12124297643E+04  0.12124297643E+04  0.25500000000E-02 0. -1.
    8880022    1    1    2    0    0  0.24235961372E+02 -0.49190146777E+03  0.25747050548E+03  0.57640016484E+03  0.15294330000E+03 0.  1.
    8880022    1    1    2    0    0 -0.24235961372E+02  0.49190146777E+03 -0.98982273486E+03  0.11161071343E+04  0.15294330000E+03 0.  0.
<mgrwt>
<rscale>  0 0.51569961E+03</rscale>
<asrwt>0</asrwt>
<pdfrwt beam="1">  1        2 0.18652766E+00 0.51569961E+03</pdfrwt>
<pdfrwt beam="2">  1       -2 0.73858083E-01 0.51569961E+03</pdfrwt>
<totfact> 0.32266761E+01</totfact>
</mgrwt>
</event>
<event>
 4    1  0.6912310E-008  0.1594337E+03  0.7818608E-02  0.1189338E+00
         -2   -1    0    0    0  501 -0.00000000000E+00  0.00000000000E+00  0.47223988365E+02  0.47223988433E+02  0.25500000000E-02 0.  1.
          2   -1    0    0  501    0  0.00000000000E+00 -0.00000000000E+00 -0.17051101254E+04  0.17051101254E+04  0.25500000000E-02 0. -1.
    8880022    1    1    2    0    0 -0.42665882845E+02  0.14390222519E+02 -0.15537410262E+04  0.15618995761E+04  0.15294330000E+03 0.  0.
    8880022    1    1    2    0    0  0.42665882845E+02 -0.14390222519E+02 -0.10414511081E+03  0.19043453779E+03  0.15294330000E+03 0.  1.
<mgrwt>
<rscale>  0 0.15943371E+03</rscale>
<asrwt>0</asrwt>
<pdfrwt beam="1">  1        2 0.26232459E+00 0.15943371E+03</pdfrwt>
<pdfrwt beam="2">  1       -2 0.72652303E-02 0.15943371E+03</pdfrwt>
<totfact> 0.11811656E+03</totfact>
</mgrwt>
</event>
<event>
 4    1  0.6912310E-008  0.6277730E+03  0.7818608E-02  0.9849404E-01
         -2   -1    0    0    0  501 -0.00000000000E+00  0.00000000000E+00  0.31202395720E+03  0.31202395721E+03  0.25500000000E-02 0.  1.
          2   -1    0    0  501    0  0.00000000000E+00 -0.00000000000E+00 -0.21198255225E+04  0.21198255225E+04  0.25500000000E-02 0. -1.
    8880022    1    1    2    0    0 -0.51956334434E+03 -0.31742916360E+03 -0.13087765468E+03  0.64127057955E+03  0.15294330000E+03 0.  0.
    8880022    1    1    2    0    0  0.51956334434E+03  0.31742916360E+03 -0.16769239106E+04  0.17905789002E+04  0.15294330000E+03 0. -1.
<mgrwt>
<rscale>  0 0.62777304E+03</rscale>
<asrwt>0</asrwt>
<pdfrwt beam="1">  1        2 0.32612699E+00 0.62777304E+03</pdfrwt>
<pdfrwt beam="2">  1       -2 0.48003687E-01 0.62777304E+03</pdfrwt>
<totfact> 0.24850357E+01</totfact>
</mgrwt>
</event>
<event>
 4    1  0.6912310E-008  0.1729302E+03  0.7818608E-02  0.1174826E+00
         -2   -1    0    0    0  501 -0.00000000000E+00  0.00000000000E+00  0.10423362171E+03  0.10423362174E+03  0.25500000000E-02 0.  1.
          2   -1    0    0  501    0  0.00000000000E+00 -0.00000000000E+00 -0.94510308187E+03  0.94510308187E+03  0.25500000000E-02 0. -1.
    8880022    1    1    2    0    0  0.75398503721E+01  0.80351379438E+02 -0.85828390578E+03  0.87553190088E+03  0.15294330000E+03 0. -1.
    8880022    1    1    2    0    0 -0.75398503721E+01 -0.80351379438E+02  0.17414445620E+02  0.17380480273E+03  0.15294330000E+03 0.  0.
<mgrwt>
<rscale>  0 0.17293018E+03</rscale>
<asrwt>0</asrwt>
<pdfrwt beam="1">  1        2 0.14540047E+00 0.17293018E+03</pdfrwt>
<pdfrwt beam="2">  1       -2 0.16035942E-01 0.17293018E+03</pdfrwt>
<totfact> 0.87558087E+02</totfact>
</mgrwt>
</event>
<event>
 4    1  0.6912310E-008  0.3991746E+03  0.7818608E-02  0.1044066E+00
         -2   -1    0    0    0  501 -0.00000000000E+00  0.00000000000E+00  0.47558180326E+03  0.47558180326E+03  0.25500000000E-02 0.  1.
          2   -1    0    0  501    0  0.00000000000E+00 -0.00000000000E+00 -0.70542468487E+03  0.70542468488E+03  0.25500000000E-02 0. -1.
    8880022    1    1    2    0    0 -0.24186950809E+03  0.27829446671E+03  0.31295832784E+03  0.50723095048E+03  0.15294330000E+03 0.  0.
    8880022    1    1    2    0    0  0.24186950809E+03 -0.27829446671E+03 -0.54280120946E+03  0.67377553766E+03  0.15294330000E+03 0.  0.
<mgrwt>
<rscale>  0 0.39917455E+03</rscale>
<asrwt>0</asrwt>
<pdfrwt beam="1">  1        2 0.10852687E+00 0.39917455E+03</pdfrwt>
<pdfrwt beam="2">  1       -2 0.73166432E-01 0.39917455E+03</pdfrwt>
<totfact> 0.71569787E+01</totfact>
</mgrwt>
</event>
<event>
 4    1  0.6912310E-008  0.4291080E+03  0.7818608E-02  0.1034142E+00
         -2   -1    0    0    0  501 -0.00000000000E+00  0.00000000000E+00  0.19509131661E+04  0.19509131661E+04  0.25500000000E-02 0.  1.
          2   -1    0    0  501    0  0.00000000000E+00 -0.00000000000E+00 -0.14342002172E+03  0.14342002174E+03  0.25500000000E-02 0. -1.
    8880022    1    1    2    0    0  0.34020946527E+03 -0.21213086367E+03  0.15160568788E+04  0.15756148312E+04  0.15294330000E+03 0.  0.
    8880022    1    1    2    0    0 -0.34020946527E+03  0.21213086367E+03  0.29143626556E+03  0.51871835660E+03  0.15294330000E+03 0.  0.
<mgrwt>
<rscale>  0 0.42910795E+03</rscale>
<asrwt>0</asrwt>
<pdfrwt beam="1">  1        2 0.22064619E-01 0.42910795E+03</pdfrwt>
<pdfrwt beam="2">  1       -2 0.30014048E+00 0.42910795E+03</pdfrwt>
<totfact> 0.87442598E+00</totfact>
</mgrwt>
</event>
<event>
 4    1  0.6912310E-008  0.6520992E+03  0.7818608E-02  0.9802848E-01
         -2   -1    0    0    0  501 -0.00000000000E+00  0.00000000000E+00  0.35793277579E+03  0.35793277580E+03  0.25500000000E-02 0.  1.
          2   -1    0    0  501    0  0.00000000000E+00 -0.00000000000E+00 -0.38754911906E+04  0.38754911906E+04  0.25500000000E-02 0. -1.
    8880022    1    1    2    0    0 -0.48398056045E+03 -0.40939534781E+03 -0.35214443986E+04  0.35813131724E+04  0.15294330000E+03 0. -1.
    8880022    1    1    2    0    0  0.48398056045E+03  0.40939534781E+03  0.38859837834E+01  0.65211079395E+03  0.15294330000E+03 0.  0.
<mgrwt>
<rscale>  0 0.65209922E+03</rscale>
<asrwt>0</asrwt>
<pdfrwt beam="1">  1        2 0.59622938E+00 0.65209922E+03</pdfrwt>
<pdfrwt beam="2">  1       -2 0.55066584E-01 0.65209922E+03</pdfrwt>
<totfact> 0.15102729E+00</totfact>
</mgrwt>
</event>
<event>
 4    1  0.6912310E-008  0.6502199E+03  0.7818608E-02  0.9806367E-01
          2   -1    0    0  501    0  0.00000000000E+00  0.00000000000E+00  0.13705663661E+04  0.13705663661E+04  0.25500000000E-02 0. -1.
         -2   -1    0    0    0  501 -0.00000000000E+00 -0.00000000000E+00 -0.44283448220E+03  0.44283448220E+03  0.25500000000E-02 0.  1.
    8880022    1    1    2    0    0  0.32025170854E+03  0.54482394366E+03 -0.35566441346E+02  0.65119191577E+03  0.15294330000E+03 0.  0.
    8880022    1    1    2    0    0 -0.32025170854E+03 -0.54482394366E+03  0.96329832522E+03  0.11622089325E+04  0.15294330000E+03 0.  0.
<mgrwt>
<rscale>  0 0.65021992E+03</rscale>
<asrwt>0</asrwt>
<pdfrwt beam="1">  1        2 0.21085636E+00 0.65021992E+03</pdfrwt>
<pdfrwt beam="2">  1       -2 0.68128382E-01 0.65021992E+03</pdfrwt>
<totfact> 0.30657447E+01</totfact>
</mgrwt>
</event>
<event>
 4    1  0.6912310E-008  0.9759204E+03  0.7818608E-02  0.9335356E-01
         -2   -1    0    0    0  501 -0.00000000000E+00  0.00000000000E+00  0.13176967279E+04  0.13176967279E+04  0.25500000000E-02 0.  1.
          2   -1    0    0  501    0  0.00000000000E+00 -0.00000000000E+00 -0.97337004398E+03  0.97337004398E+03  0.25500000000E-02 0. -1.
    8880022    1    1    2    0    0  0.78278654729E+03  0.56238252696E+03 -0.40905638464E+03  0.10581813002E+04  0.15294330000E+03 0.  0.
    8880022    1    1    2    0    0 -0.78278654729E+03 -0.56238252696E+03  0.75338306854E+03  0.12328854717E+04  0.15294330000E+03 0.  0.
<mgrwt>
<rscale>  0 0.97592035E+03</rscale>
<asrwt>0</asrwt>
<pdfrwt beam="1">  1        2 0.14974924E+00 0.97592035E+03</pdfrwt>
<pdfrwt beam="2">  1       -2 0.20272257E+00 0.97592035E+03</pdfrwt>
<totfact> 0.33289648E+00</totfact>
</mgrwt>
</event>
<event>
 4    1  0.6912310E-008  0.3942459E+03  0.7818608E-02  0.1045791E+00
          2   -1    0    0  501    0  0.00000000000E+00  0.00000000000E+00  0.46311523256E+03  0.46311523256E+03  0.25500000000E-02 0. -1.
         -2   -1    0    0    0  501 -0.00000000000E+00 -0.00000000000E+00 -0.47121772251E+03  0.47121772252E+03  0.25500000000E-02 0.  1.
    8880022    1    1    2    0    0 -0.35726527319E+03  0.66330496098E+02  0.24655395240E+03  0.46499324145E+03  0.15294330000E+03 0.  0.
    8880022    1    1    2    0    0  0.35726527319E+03 -0.66330496098E+02 -0.25465644236E+03  0.46933971363E+03  0.15294330000E+03 0.  0.
<mgrwt>
<rscale>  0 0.39424594E+03</rscale>
<asrwt>0</asrwt>
<pdfrwt beam="1">  1        2 0.71248498E-01 0.39424594E+03</pdfrwt>
<pdfrwt beam="2">  1       -2 0.72495034E-01 0.39424594E+03</pdfrwt>
<totfact> 0.11975126E+02</totfact>
</mgrwt>
</event>
<event>
 4    1  0.1967386E-007  0.1150271E+04  0.7818608E-02  0.9157534E-01
         -2   -1    0    0    0  501 -0.00000000000E+00  0.00000000000E+00  0.23123892954E+04  0.23123892954E+04  0.25500000000E-02 0.  1.
          2   -1    0    0  501    0  0.00000000000E+00 -0.00000000000E+00 -0.17123341124E+04  0.17123341124E+04  0.25500000000E-02 0. -1.
    8880022    1    1    2    0    0 -0.95167963364E+03  0.62772363126E+03 -0.13420434246E+04  0.17675415947E+04  0.15294330000E+03 0.  0.
    8880022    1    1    2    0    0  0.95167963364E+03 -0.62772363126E+03  0.19420986077E+04  0.22571818131E+04  0.15294330000E+03 0.  0.
<mgrwt>
<rscale>  0 0.11502707E+04</rscale>
<asrwt>0</asrwt>
<pdfrwt beam="1">  1        2 0.26343602E+00 0.11502707E+04</pdfrwt>
<pdfrwt beam="2">  1       -2 0.35575220E+00 0.11502707E+04</pdfrwt>
<totfact> 0.13656642E-01</totfact>
</mgrwt>
</event>
<event>
 4    1  0.6912310E-008  0.9136958E+03  0.7818608E-02  0.9408621E-01
         -2   -1    0    0    0  501 -0.00000000000E+00  0.00000000000E+00  0.12822561791E+04  0.12822561791E+04  0.25500000000E-02 0.  1.
          2   -1    0    0  501    0  0.00000000000E+00 -0.00000000000E+00 -0.69433820094E+03  0.69433820094E+03  0.25500000000E-02 0. -1.
    8880022    1    1    2    0    0 -0.78167729335E+03  0.44769290220E+03  0.47252381260E+02  0.91491680833E+03  0.15294330000E+03 0.  0.
    8880022    1    1    2    0    0  0.78167729335E+03 -0.44769290220E+03  0.54066559694E+03  0.10616775717E+04  0.15294330000E+03 0.  0.
<mgrwt>
<rscale>  0 0.91369578E+03</rscale>
<asrwt>0</asrwt>
<pdfrwt beam="1">  1        2 0.10682126E+00 0.91369578E+03</pdfrwt>
<pdfrwt beam="2">  1       -2 0.19727018E+00 0.91369578E+03</pdfrwt>
<totfact> 0.57490615E+00</totfact>
</mgrwt>
</event>
<event>
 4    1  0.6912310E-008  0.5213064E+03  0.7818608E-02  0.1008363E+00
          2   -1    0    0  501    0  0.00000000000E+00  0.00000000000E+00  0.30643977944E+04  0.30643977944E+04  0.25500000000E-02 0. -1.
         -2   -1    0    0    0  501 -0.00000000000E+00 -0.00000000000E+00 -0.94257033708E+02  0.94257033743E+02  0.25500000000E-02 0.  1.
    8880022    1    1    2    0    0 -0.31055122270E+03  0.38977770557E+03  0.18691269427E+04  0.19404628063E+04  0.15294330000E+03 0.  0.
    8880022    1    1    2    0    0  0.31055122270E+03 -0.38977770557E+03  0.11010138181E+04  0.12181920219E+04  0.15294330000E+03 0.  0.
<mgrwt>
<rscale>  0 0.52130641E+03</rscale>
<asrwt>0</asrwt>
<pdfrwt beam="1">  1        2 0.47144584E+00 0.52130641E+03</pdfrwt>
<pdfrwt beam="2">  1       -2 0.14501081E-01 0.52130641E+03</pdfrwt>
<totfact> 0.64659400E+01</totfact>
</mgrwt>
</event>
<event>
 4    1  0.6912310E-008  0.8528814E+03  0.7818608E-02  0.9486478E-01
         -2   -1    0    0    0  501 -0.00000000000E+00  0.00000000000E+00  0.87846174320E+03  0.87846174320E+03  0.25500000000E-02 0.  1.
          2   -1    0    0  501    0  0.00000000000E+00 -0.00000000000E+00 -0.11834923101E+04  0.11834923101E+04  0.25500000000E-02 0. -1.
    8880022    1    1    2    0    0 -0.76248690049E+03  0.35018389885E+03 -0.71752159973E+03  0.11145599739E+04  0.15294330000E+03 0.  0.
    8880022    1    1    2    0    0  0.76248690049E+03 -0.35018389885E+03  0.41249103283E+03  0.94739407936E+03  0.15294330000E+03 0.  0.
<mgrwt>
<rscale>  0 0.85288140E+03</rscale>
<asrwt>0</asrwt>
<pdfrwt beam="1">  1        2 0.18207574E+00 0.85288140E+03</pdfrwt>
<pdfrwt beam="2">  1       -2 0.13514796E+00 0.85288140E+03</pdfrwt>
<totfact> 0.76793944E+00</totfact>
</mgrwt>
</event>
<event>
 4    1  0.6912310E-008  0.1369507E+04  0.7818608E-02  0.8976192E-01
         -2   -1    0    0    0  501 -0.00000000000E+00  0.00000000000E+00  0.25096194740E+04  0.25096194740E+04  0.25500000000E-02 0.  1.
          2   -1    0    0  501    0  0.00000000000E+00 -0.00000000000E+00 -0.10506663441E+04  0.10506663441E+04  0.25500000000E-02 0. -1.
    8880022    1    1    2    0    0  0.13605101508E+04  0.34199870395E+02  0.16859537871E+04  0.21720933052E+04  0.15294330000E+03 0.  0.
    8880022    1    1    2    0    0 -0.13605101508E+04 -0.34199870395E+02 -0.22700065713E+03  0.13881925129E+04  0.15294330000E+03 0.  0.
<mgrwt>
<rscale>  0 0.13695069E+04</rscale>
<asrwt>0</asrwt>
<pdfrwt beam="1">  1        2 0.16164097E+00 0.13695069E+04</pdfrwt>
<pdfrwt beam="2">  1       -2 0.38609531E+00 0.13695069E+04</pdfrwt>
<totfact> 0.20598994E-01</totfact>
</mgrwt>
</event>
<event>
 4    1  0.6912310E-008  0.7018046E+03  0.7818608E-02  0.9714151E-01
          2   -1    0    0  501    0  0.00000000000E+00  0.00000000000E+00  0.97622866324E+03  0.97622866324E+03  0.25500000000E-02 0. -1.
         -2   -1    0    0    0  501 -0.00000000000E+00 -0.00000000000E+00 -0.90744987015E+03  0.90744987015E+03  0.25500000000E-02 0.  1.
    8880022    1    1    2    0    0 -0.11356009786E+03 -0.67545700704E+03  0.66198318997E+03  0.96475461180E+03  0.15294330000E+03 0.  0.
    8880022    1    1    2    0    0  0.11356009786E+03  0.67545700704E+03 -0.59320439688E+03  0.91892392159E+03  0.15294330000E+03 0.  0.
<mgrwt>
<rscale>  0 0.70180461E+03</rscale>
<asrwt>0</asrwt>
<pdfrwt beam="1">  1        2 0.15018903E+00 0.70180461E+03</pdfrwt>
<pdfrwt beam="2">  1       -2 0.13960767E+00 0.70180461E+03</pdfrwt>
<totfact> 0.96639959E+00</totfact>
</mgrwt>
</event>
<event>
 4    1  0.6912310E-008  0.1097323E+04  0.7818608E-02  0.9207804E-01
          2   -1    0    0  501    0  0.00000000000E+00  0.00000000000E+00  0.19377533739E+04  0.19377533739E+04  0.25500000000E-02 0. -1.
         -2   -1    0    0    0  501 -0.00000000000E+00 -0.00000000000E+00 -0.99375656793E+03  0.99375656793E+03  0.25500000000E-02 0.  1.
    8880022    1    1    2    0    0  0.10544463390E+03 -0.10814844610E+04  0.13692230703E+04  0.17546768020E+04  0.15294330000E+03 0.  0.
    8880022    1    1    2    0    0 -0.10544463390E+03  0.10814844610E+04 -0.42522626436E+03  0.11768331398E+04  0.15294330000E+03 0.  0.
<mgrwt>
<rscale>  0 0.10973235E+04</rscale>
<asrwt>0</asrwt>
<pdfrwt beam="1">  1        2 0.29811590E+00 0.10973235E+04</pdfrwt>
<pdfrwt beam="2">  1       -2 0.15288563E+00 0.10973235E+04</pdfrwt>
<totfact> 0.20287330E+00</totfact>
</mgrwt>
</event>
<event>
 4    1  0.6912310E-008  0.7342407E+03  0.7818608E-02  0.9660404E-01
          2   -1    0    0  501    0  0.00000000000E+00  0.00000000000E+00  0.72530406491E+03  0.72530406491E+03  0.25500000000E-02 0. -1.
         -2   -1    0    0    0  501 -0.00000000000E+00 -0.00000000000E+00 -0.14869852473E+04  0.14869852473E+04  0.25500000000E-02 0.  1.
    8880022    1    1    2    0    0  0.34507140335E+03  0.62979639515E+03 -0.11631108813E+04  0.13754767712E+04  0.15294330000E+03 0.  0.
    8880022    1    1    2    0    0 -0.34507140335E+03 -0.62979639515E+03  0.40142969889E+03  0.83681254108E+03  0.15294330000E+03 0.  0.
<mgrwt>
<rscale>  0 0.73424071E+03</rscale>
<asrwt>0</asrwt>
<pdfrwt beam="1">  1        2 0.11158524E+00 0.73424071E+03</pdfrwt>
<pdfrwt beam="2">  1       -2 0.22876696E+00 0.73424071E+03</pdfrwt>
<totfact> 0.35059243E+00</totfact>
</mgrwt>
</event>
<event>
 4    1  0.6912310E-008  0.4652454E+03  0.7818608E-02  0.1023271E+00
          2   -1    0    0  501    0  0.00000000000E+00  0.00000000000E+00  0.72613139115E+03  0.72613139115E+03  0.25500000000E-02 0. -1.
         -2   -1    0    0    0  501 -0.00000000000E+00 -0.00000000000E+00 -0.20427882656E+04  0.20427882656E+04  0.25500000000E-02 0.  1.
    8880022    1    1    2    0    0  0.42855656104E+03  0.96958357491E+02  0.62113744541E+03  0.77605736141E+03  0.15294330000E+03 0. -1.
    8880022    1    1    2    0    0 -0.42855656104E+03 -0.96958357491E+02 -0.19377943199E+04  0.19928622953E+04  0.15294330000E+03 0.  0.
<mgrwt>
<rscale>  0 0.46524542E+03</rscale>
<asrwt>0</asrwt>
<pdfrwt beam="1">  1        2 0.11171252E+00 0.46524542E+03</pdfrwt>
<pdfrwt beam="2">  1       -2 0.31427512E+00 0.46524542E+03</pdfrwt>
<totfact> 0.11357456E+00</totfact>
</mgrwt>
</event>
<event>
 4    1  0.6912310E-008  0.8390194E+03  0.7818608E-02  0.9505194E-01
          2   -1    0    0  501    0  0.00000000000E+00  0.00000000000E+00  0.35470687822E+03  0.35470687823E+03  0.25500000000E-02 0. -1.
         -2   -1    0    0    0  501 -0.00000000000E+00 -0.00000000000E+00 -0.34050284632E+04  0.34050284632E+04  0.25500000000E-02 0.  1.
    8880022    1    1    2    0    0 -0.78679891712E+03 -0.24801089684E+03 -0.31100172497E+03  0.89480482055E+03  0.15294330000E+03 0.  0.
    8880022    1    1    2    0    0  0.78679891712E+03  0.24801089684E+03 -0.27393198600E+04  0.28649305208E+04  0.15294330000E+03 0.  0.
<mgrwt>
<rscale>  0 0.83901942E+03</rscale>
<asrwt>0</asrwt>
<pdfrwt beam="1">  1        2 0.54570291E-01 0.83901942E+03</pdfrwt>
<pdfrwt beam="2">  1       -2 0.52385051E+00 0.83901942E+03</pdfrwt>
<totfact> 0.11145091E-01</totfact>
</mgrwt>
</event>
<event>
 4    1  0.1326595E-007  0.7856566E+03  0.7818608E-02  0.9581014E-01
          2   -1    0    0  501    0  0.00000000000E+00  0.00000000000E+00  0.16390892907E+04  0.16390892907E+04  0.25500000000E-02 0. -1.
         -2   -1    0    0    0  501 -0.00000000000E+00 -0.00000000000E+00 -0.15232031773E+04  0.15232031773E+04  0.25500000000E-02 0.  1.
    8880022    1    1    2    0    0  0.56273130502E+03  0.52649602806E+03 -0.13138940744E+04  0.15308735679E+04  0.15294330000E+03 0.  0.
    8880022    1    1    2    0    0 -0.56273130502E+03 -0.52649602806E+03  0.14297801877E+04  0.16314189001E+04  0.15294330000E+03 0.  0.
<mgrwt>
<rscale>  0 0.78565657E+03</rscale>
<asrwt>0</asrwt>
<pdfrwt beam="1">  1        2 0.25216758E+00 0.78565657E+03</pdfrwt>
<pdfrwt beam="2">  1       -2 0.23433895E+00 0.78565657E+03</pdfrwt>
<totfact> 0.88113621E-01</totfact>
</mgrwt>
</event>
<event>
 4    1  0.6912310E-008  0.2491271E+03  0.7818608E-02  0.1113858E+00
         -2   -1    0    0    0  501 -0.00000000000E+00  0.00000000000E+00  0.45011171389E+03  0.45011171390E+03  0.25500000000E-02 0.  1.
          2   -1    0    0  501    0  0.00000000000E+00 -0.00000000000E+00 -0.32492890436E+03  0.32492890437E+03  0.25500000000E-02 0. -1.
    8880022    1    1    2    0    0 -0.52561431100E+02  0.18949918214E+03  0.35660703253E+03  0.43500904903E+03  0.15294330000E+03 0.  0.
    8880022    1    1    2    0    0  0.52561431100E+02 -0.18949918214E+03 -0.23142422301E+03  0.34003156924E+03  0.15294330000E+03 0.  0.
<mgrwt>
<rscale>  0 0.24912707E+03</rscale>
<asrwt>0</asrwt>
<pdfrwt beam="1">  1        2 0.49989063E-01 0.24912707E+03</pdfrwt>
<pdfrwt beam="2">  1       -2 0.69247955E-01 0.24912707E+03</pdfrwt>
<totfact> 0.19747321E+02</totfact>
</mgrwt>
</event>
<event>
 4    1  0.6912310E-008  0.5039262E+03  0.7818608E-02  0.1012759E+00
         -2   -1    0    0    0  501 -0.00000000000E+00  0.00000000000E+00  0.10631267685E+04  0.10631267685E+04  0.25500000000E-02 0.  1.
          2   -1    0    0  501    0  0.00000000000E+00 -0.00000000000E+00 -0.46263159090E+03  0.46263159091E+03  0.25500000000E-02 0. -1.
    8880022    1    1    2    0    0 -0.34808431730E+03  0.33073742767E+03 -0.23031635954E+03  0.55406427109E+03  0.15294330000E+03 0.  0.
    8880022    1    1    2    0    0  0.34808431730E+03 -0.33073742767E+03  0.83081153712E+03  0.97169408830E+03  0.15294330000E+03 0.  0.
<mgrwt>
<rscale>  0 0.50392618E+03</rscale>
<asrwt>0</asrwt>
<pdfrwt beam="1">  1        2 0.71174092E-01 0.50392618E+03</pdfrwt>
<pdfrwt beam="2">  1       -2 0.16355796E+00 0.50392618E+03</pdfrwt>
<totfact> 0.16656678E+01</totfact>
</mgrwt>
</event>
<event>
 4    1  0.6912310E-008  0.5843435E+03  0.7818608E-02  0.9938431E-01
         -2   -1    0    0    0  501 -0.00000000000E+00  0.00000000000E+00  0.18373392165E+04  0.18373392165E+04  0.25500000000E-02 0.  1.
          2   -1    0    0  501    0  0.00000000000E+00 -0.00000000000E+00 -0.29585455832E+03  0.29585455833E+03  0.25500000000E-02 0. -1.
    8880022    1    1    2    0    0  0.38465347435E+03 -0.41244079897E+03  0.12034379369E+03  0.59660706472E+03  0.15294330000E+03 0.  0.
    8880022    1    1    2    0    0 -0.38465347435E+03  0.41244079897E+03  0.14211408645E+04  0.15365867102E+04  0.15294330000E+03 0.  0.
<mgrwt>
<rscale>  0 0.58434353E+03</rscale>
<asrwt>0</asrwt>
<pdfrwt beam="1">  1        2 0.45516086E-01 0.58434353E+03</pdfrwt>
<pdfrwt beam="2">  1       -2 0.28266757E+00 0.58434353E+03</pdfrwt>
<totfact> 0.47958921E+00</totfact>
</mgrwt>
</event>
<event>
 4    1  0.6912310E-008  0.6642054E+03  0.7818608E-02  0.9780483E-01
         -2   -1    0    0    0  501 -0.00000000000E+00  0.00000000000E+00  0.61206867844E+03  0.61206867844E+03  0.25500000000E-02 0.  1.
          2   -1    0    0  501    0  0.00000000000E+00 -0.00000000000E+00 -0.19497367486E+04  0.19497367486E+04  0.25500000000E-02 0. -1.
    8880022    1    1    2    0    0 -0.64611526188E+03  0.17668603394E+02  0.34810731651E+03  0.74989830511E+03  0.15294330000E+03 0.  1.
    8880022    1    1    2    0    0  0.64611526188E+03 -0.17668603394E+02 -0.16857753867E+04  0.18119071220E+04  0.15294330000E+03 0.  0.
<mgrwt>
<rscale>  0 0.66420536E+03</rscale>
<asrwt>0</asrwt>
<pdfrwt beam="1">  1        2 0.29995950E+00 0.66420536E+03</pdfrwt>
<pdfrwt beam="2">  1       -2 0.94164413E-01 0.66420536E+03</pdfrwt>
<totfact> 0.71152192E+00</totfact>
</mgrwt>
</event>
<event>
 4    1  0.6912310E-008  0.4482862E+03  0.7818608E-02  0.1028234E+00
         -2   -1    0    0    0  501 -0.00000000000E+00  0.00000000000E+00  0.11542786842E+03  0.11542786845E+03  0.25500000000E-02 0.  1.
          2   -1    0    0  501    0  0.00000000000E+00 -0.00000000000E+00 -0.30142270646E+04  0.30142270646E+04  0.25500000000E-02 0. -1.
    8880022    1    1    2    0    0  0.19914811257E+03 -0.37136081375E+03 -0.24664221496E+04  0.25068304087E+04  0.15294330000E+03 0.  0.
    8880022    1    1    2    0    0 -0.19914811257E+03  0.37136081375E+03 -0.43237704650E+03  0.62282452431E+03  0.15294330000E+03 0.  0.
<mgrwt>
<rscale>  0 0.44828616E+03</rscale>
<asrwt>0</asrwt>
<pdfrwt beam="1">  1        2 0.46372718E+00 0.44828616E+03</pdfrwt>
<pdfrwt beam="2">  1       -2 0.17758136E-01 0.44828616E+03</pdfrwt>
<totfact> 0.50065766E+01</totfact>
</mgrwt>
</event>
<event>
 4    1  0.6912310E-008  0.5070914E+03  0.7818608E-02  0.1011944E+00
          2   -1    0    0  501    0  0.00000000000E+00  0.00000000000E+00  0.90492122013E+03  0.90492122013E+03  0.25500000000E-02 0. -1.
         -2   -1    0    0    0  501 -0.00000000000E+00 -0.00000000000E+00 -0.34021313003E+03  0.34021313004E+03  0.25500000000E-02 0.  1.
    8880022    1    1    2    0    0 -0.34521281035E+03 -0.33849396907E+03  0.29649149928E+02  0.50795745553E+03  0.15294330000E+03 0.  0.
    8880022    1    1    2    0    0  0.34521281035E+03  0.33849396907E+03  0.53505894016E+03  0.73717689464E+03  0.15294330000E+03 0.  0.
<mgrwt>
<rscale>  0 0.50709142E+03</rscale>
<asrwt>0</asrwt>
<pdfrwt beam="1">  1        2 0.13921865E+00 0.50709142E+03</pdfrwt>
<pdfrwt beam="2">  1       -2 0.52340482E-01 0.50709142E+03</pdfrwt>
<totfact> 0.10361395E+02</totfact>
</mgrwt>
</event>
<event>
 4    1  0.6912310E-008  0.2937895E+03  0.7818608E-02  0.1088387E+00
         -2   -1    0    0    0  501 -0.00000000000E+00  0.00000000000E+00  0.55500076299E+02  0.55500076358E+02  0.25500000000E-02 0.  1.
          2   -1    0    0  501    0  0.00000000000E+00 -0.00000000000E+00 -0.19777516593E+04  0.19777516593E+04  0.25500000000E-02 0. -1.
    8880022    1    1    2    0    0  0.21784539976E+03 -0.12435428245E+03 -0.14310509544E+04  0.14608966743E+04  0.15294330000E+03 0.  0.
    8880022    1    1    2    0    0 -0.21784539976E+03  0.12435428245E+03 -0.49120062861E+03  0.57235506141E+03  0.15294330000E+03 0.  0.
<mgrwt>
<rscale>  0 0.29378948E+03</rscale>
<asrwt>0</asrwt>
<pdfrwt beam="1">  1        2 0.30426943E+00 0.29378948E+03</pdfrwt>
<pdfrwt beam="2">  1       -2 0.85384748E-02 0.29378948E+03</pdfrwt>
<totfact> 0.64981933E+02</totfact>
</mgrwt>
</event>
<event>
 4    1  0.6912310E-008  0.2436389E+03  0.7818608E-02  0.1117392E+00
          2   -1    0    0  501    0  0.00000000000E+00  0.00000000000E+00  0.18666498892E+04  0.18666498892E+04  0.25500000000E-02 0. -1.
         -2   -1    0    0    0  501 -0.00000000000E+00 -0.00000000000E+00 -0.26002204601E+03  0.26002204602E+03  0.25500000000E-02 0.  1.
    8880022    1    1    2    0    0 -0.10295395580E+01 -0.18965015490E+03  0.17995080963E+04  0.18159265632E+04  0.15294330000E+03 0.  0.
    8880022    1    1    2    0    0  0.10295395580E+01  0.18965015490E+03 -0.19288025309E+03  0.31074537206E+03  0.15294330000E+03 0.  1.
<mgrwt>
<rscale>  0 0.24363886E+03</rscale>
<asrwt>0</asrwt>
<pdfrwt beam="1">  1        2 0.28717690E+00 0.24363886E+03</pdfrwt>
<pdfrwt beam="2">  1       -2 0.40003393E-01 0.24363886E+03</pdfrwt>
<totfact> 0.53209959E+01</totfact>
</mgrwt>
</event>
<event>
 4    1  0.6912310E-008  0.4400902E+03  0.7818608E-02  0.1030719E+00
          2   -1    0    0  501    0  0.00000000000E+00  0.00000000000E+00  0.18242031289E+04  0.18242031289E+04  0.25500000000E-02 0. -1.
         -2   -1    0    0    0  501 -0.00000000000E+00 -0.00000000000E+00 -0.48264139643E+03  0.48264139644E+03  0.25500000000E-02 0.  1.
    8880022    1    1    2    0    0 -0.23276680583E+03 -0.34074532936E+03 -0.34790632380E+03  0.56099752988E+03  0.15294330000E+03 0.  0.
    8880022    1    1    2    0    0  0.23276680583E+03  0.34074532936E+03  0.16894680563E+04  0.17458469954E+04  0.15294330000E+03 0.  0.
<mgrwt>
<rscale>  0 0.44009024E+03</rscale>
<asrwt>0</asrwt>
<pdfrwt beam="1">  1        2 0.28064663E+00 0.44009024E+03</pdfrwt>
<pdfrwt beam="2">  1       -2 0.74252523E-01 0.44009024E+03</pdfrwt>
<totfact> 0.14898754E+01</totfact>
</mgrwt>
</event>
<event>
 4    1  0.6912310E-008  0.3903679E+03  0.7818608E-02  0.1047167E+00
          2   -1    0    0  501    0  0.00000000000E+00  0.00000000000E+00  0.14591682478E+04  0.14591682478E+04  0.25500000000E-02 0. -1.
         -2   -1    0    0    0  501 -0.00000000000E+00 -0.00000000000E+00 -0.21077220891E+03  0.21077220893E+03  0.25500000000E-02 0.  1.
    8880022    1    1    2    0    0 -0.13263621508E+03  0.33377099348E+03  0.12172715518E+04  0.12783337301E+04  0.15294330000E+03 0.  0.
    8880022    1    1    2    0    0  0.13263621508E+03 -0.33377099348E+03  0.31124487080E+02  0.39160672664E+03  0.15294330000E+03 0.  0.
<mgrwt>
<rscale>  0 0.39036790E+03</rscale>
<asrwt>0</asrwt>
<pdfrwt beam="1">  1        2 0.22448741E+00 0.39036790E+03</pdfrwt>
<pdfrwt beam="2">  1       -2 0.32426495E-01 0.39036790E+03</pdfrwt>
<totfact> 0.12569484E+02</totfact>
</mgrwt>
</event>
<event>
 4    1  0.6912310E-008  0.4990271E+03  0.7818608E-02  0.1014033E+00
         -2   -1    0    0    0  501 -0.00000000000E+00  0.00000000000E+00  0.14252320752E+03  0.14252320754E+03  0.25500000000E-02 0.  1.
          2   -1    0    0  501    0  0.00000000000E+00 -0.00000000000E+00 -0.23761354949E+04  0.23761354949E+04  0.25500000000E-02 0. -1.
    8880022    1    1    2    0    0  0.40033959233E+03 -0.25566495979E+03 -0.17646629117E+04  0.18338656455E+04  0.15294330000E+03 0.  0.
    8880022    1    1    2    0    0 -0.40033959233E+03  0.25566495979E+03 -0.46894937568E+03  0.68479305693E+03  0.15294330000E+03 0.  0.
<mgrwt>
<rscale>  0 0.49902707E+03</rscale>
<asrwt>0</asrwt>
<pdfrwt beam="1">  1        2 0.36555928E+00 0.49902707E+03</pdfrwt>
<pdfrwt beam="2">  1       -2 0.21926649E-01 0.49902707E+03</pdfrwt>
<totfact> 0.79982049E+01</totfact>
</mgrwt>
</event>
<event>
 4    1  0.6912310E-008  0.1381189E+04  0.7818608E-02  0.8967549E-01
          2   -1    0    0  501    0  0.00000000000E+00  0.00000000000E+00  0.16650011111E+04  0.16650011111E+04  0.25500000000E-02 0. -1.
         -2   -1    0    0    0  501 -0.00000000000E+00 -0.00000000000E+00 -0.11461878668E+04  0.11461878668E+04  0.25500000000E-02 0.  1.
    8880022    1    1    2    0    0  0.13705857990E+04 -0.76056567421E+02  0.23205965076E+03  0.14005475245E+04  0.15294330000E+03 0. -1.
    8880022    1    1    2    0    0 -0.13705857990E+04  0.76056567421E+02  0.28675359348E+03  0.14106414534E+04  0.15294330000E+03 0.  1.
<mgrwt>
<rscale>  0 0.13811885E+04</rscale>
<asrwt>0</asrwt>
<pdfrwt beam="1">  1        2 0.25615402E+00 0.13811885E+04</pdfrwt>
<pdfrwt beam="2">  1       -2 0.17633660E+00 0.13811885E+04</pdfrwt>
<totfact> 0.18797817E+00</totfact>
</mgrwt>
</event>
<event>
 4    1  0.6912310E-008  0.5538169E+03  0.7818608E-02  0.1000614E+00
          2   -1    0    0  501    0  0.00000000000E+00  0.00000000000E+00  0.52313626587E+03  0.52313626588E+03  0.25500000000E-02 0. -1.
         -2   -1    0    0    0  501 -0.00000000000E+00 -0.00000000000E+00 -0.94933688422E+03  0.94933688422E+03  0.25500000000E-02 0.  1.
    8880022    1    1    2    0    0  0.25410839377E+03  0.46770759676E+03 -0.66838651664E+03  0.86801708537E+03  0.15294330000E+03 0.  0.
    8880022    1    1    2    0    0 -0.25410839377E+03 -0.46770759676E+03  0.24218589829E+03  0.60445606474E+03  0.15294330000E+03 0.  0.
<mgrwt>
<rscale>  0 0.55381687E+03</rscale>
<asrwt>0</asrwt>
<pdfrwt beam="1">  1        2 0.80482503E-01 0.55381687E+03</pdfrwt>
<pdfrwt beam="2">  1       -2 0.14605183E+00 0.55381687E+03</pdfrwt>
<totfact> 0.19420267E+01</totfact>
</mgrwt>
</event>
<event>
 4    1  0.6912310E-008  0.1660012E+03  0.7818608E-02  0.1182083E+00
         -2   -1    0    0    0  501 -0.00000000000E+00  0.00000000000E+00  0.37520467537E+03  0.37520467538E+03  0.25500000000E-02 0.  1.
          2   -1    0    0  501    0  0.00000000000E+00 -0.00000000000E+00 -0.19138323857E+03  0.19138323858E+03  0.25500000000E-02 0. -1.
    8880022    1    1    2    0    0 -0.63449081839E+02 -0.11788686313E+02  0.31430064412E+03  0.35544522366E+03  0.15294330000E+03 0.  1.
    8880022    1    1    2    0    0  0.63449081839E+02  0.11788686313E+02 -0.13047920732E+03  0.21114269030E+03  0.15294330000E+03 0.  0.
<mgrwt>
<rscale>  0 0.16600124E+03</rscale>
<asrwt>0</asrwt>
<pdfrwt beam="1">  1        2 0.29443575E-01 0.16600124E+03</pdfrwt>
<pdfrwt beam="2">  1       -2 0.57723796E-01 0.16600124E+03</pdfrwt>
<totfact> 0.51290860E+02</totfact>
</mgrwt>
</event>
<event>
 4    1  0.6912310E-008  0.5278189E+03  0.7818608E-02  0.1006762E+00
          2   -1    0    0  501    0  0.00000000000E+00  0.00000000000E+00  0.15196418506E+04  0.15196418506E+04  0.25500000000E-02 0. -1.
         -2   -1    0    0    0  501 -0.00000000000E+00 -0.00000000000E+00 -0.56701552411E+03  0.56701552411E+03  0.25500000000E-02 0.  1.
    8880022    1    1    2    0    0 -0.27383721761E+03  0.42451654326E+03 -0.38193436622E+03  0.65151103626E+03  0.15294330000E+03 0.  0.
    8880022    1    1    2    0    0  0.27383721761E+03 -0.42451654326E+03  0.13345606927E+04  0.14351463385E+04  0.15294330000E+03 0.  0.
<mgrwt>
<rscale>  0 0.52781888E+03</rscale>
<asrwt>0</asrwt>
<pdfrwt beam="1">  1        2 0.23379106E+00 0.52781888E+03</pdfrwt>
<pdfrwt beam="2">  1       -2 0.87233156E-01 0.52781888E+03</pdfrwt>
<totfact> 0.14900126E+01</totfact>
</mgrwt>
</event>
<event>
 4    1  0.6912310E-008  0.3330455E+03  0.7818608E-02  0.1069797E+00
         -2   -1    0    0    0  501 -0.00000000000E+00  0.00000000000E+00  0.77124798057E+03  0.77124798058E+03  0.25500000000E-02 0.  1.
          2   -1    0    0  501    0  0.00000000000E+00 -0.00000000000E+00 -0.93243546521E+03  0.93243546521E+03  0.25500000000E-02 0. -1.
    8880022    1    1    2    0    0 -0.90348438899E+02 -0.28171758879E+03  0.70280474565E+03  0.77772347513E+03  0.15294330000E+03 0.  0.
    8880022    1    1    2    0    0  0.90348438899E+02  0.28171758879E+03 -0.86399223029E+03  0.92595997066E+03  0.15294330000E+03 0.  0.
<mgrwt>
<rscale>  0 0.33304548E+03</rscale>
<asrwt>0</asrwt>
<pdfrwt beam="1">  1        2 0.14345161E+00 0.33304548E+03</pdfrwt>
<pdfrwt beam="2">  1       -2 0.11865354E+00 0.33304548E+03</pdfrwt>
<totfact> 0.16526595E+01</totfact>
</mgrwt>
</event>
<event>
 4    1  0.6912310E-008  0.7206801E+03  0.7818608E-02  0.9682506E-01
         -2   -1    0    0    0  501 -0.00000000000E+00  0.00000000000E+00  0.14121597307E+04  0.14121597307E+04  0.25500000000E-02 0.  1.
          2   -1    0    0  501    0  0.00000000000E+00 -0.00000000000E+00 -0.43437264478E+03  0.43437264479E+03  0.25500000000E-02 0. -1.
    8880022    1    1    2    0    0  0.64207408658E+03 -0.28935969817E+03  0.85036377580E+03  0.11146741101E+04  0.15294330000E+03 0.  0.
    8880022    1    1    2    0    0 -0.64207408658E+03  0.28935969817E+03  0.12742331010E+03  0.73185826535E+03  0.15294330000E+03 0.  0.
<mgrwt>
<rscale>  0 0.72068011E+03</rscale>
<asrwt>0</asrwt>
<pdfrwt beam="1">  1        2 0.66826561E-01 0.72068011E+03</pdfrwt>
<pdfrwt beam="2">  1       -2 0.21725534E+00 0.72068011E+03</pdfrwt>
<totfact> 0.76386711E+00</totfact>
</mgrwt>
</event>
<event>
 4    1  0.6912310E-008  0.2197992E+03  0.7818608E-02  0.1134033E+00
          2   -1    0    0  501    0  0.00000000000E+00  0.00000000000E+00  0.18399872060E+04  0.18399872060E+04  0.25500000000E-02 0. -1.
         -2   -1    0    0    0  501 -0.00000000000E+00 -0.00000000000E+00 -0.13751327319E+03  0.13751327321E+03  0.25500000000E-02 0.  1.
    8880022    1    1    2    0    0 -0.49664183393E+02  0.14984486246E+03  0.17405967283E+04  0.17544197439E+04  0.15294330000E+03 0.  0.
    8880022    1    1    2    0    0  0.49664183393E+02 -0.14984486246E+03 -0.38122795556E+02  0.22308073532E+03  0.15294330000E+03 0.  1.
<mgrwt>
<rscale>  0 0.21979915E+03</rscale>
<asrwt>0</asrwt>
<pdfrwt beam="1">  1        2 0.28307494E+00 0.21979915E+03</pdfrwt>
<pdfrwt beam="2">  1       -2 0.21155889E-01 0.21979915E+03</pdfrwt>
<totfact> 0.17564939E+02</totfact>
</mgrwt>
</event>
<event>
 4    1  0.6912310E-008  0.1386942E+04  0.7818608E-02  0.8963325E-01
         -2   -1    0    0    0  501 -0.00000000000E+00  0.00000000000E+00  0.24409171102E+04  0.24409171102E+04  0.25500000000E-02 0.  1.
          2   -1    0    0  501    0  0.00000000000E+00 -0.00000000000E+00 -0.87137110875E+03  0.87137110876E+03  0.25500000000E-02 0. -1.
    8880022    1    1    2    0    0  0.57086851853E+03 -0.12547210997E+04  0.12968418234E+04  0.18987907392E+04  0.15294330000E+03 0.  0.
    8880022    1    1    2    0    0 -0.57086851853E+03  0.12547210997E+04  0.27270417810E+03  0.14134974798E+04  0.15294330000E+03 0.  0.
<mgrwt>
<rscale>  0 0.13869418E+04</rscale>
<asrwt>0</asrwt>
<pdfrwt beam="1">  1        2 0.13405710E+00 0.13869418E+04</pdfrwt>
<pdfrwt beam="2">  1       -2 0.37552571E+00 0.13869418E+04</pdfrwt>
<totfact> 0.31642055E-01</totfact>
</mgrwt>
</event>
<event>
 4    1  0.6912310E-008  0.1569783E+04  0.7818608E-02  0.8839329E-01
          2   -1    0    0  501    0  0.00000000000E+00  0.00000000000E+00  0.17204997976E+04  0.17204997976E+04  0.25500000000E-02 0. -1.
         -2   -1    0    0    0  501 -0.00000000000E+00 -0.00000000000E+00 -0.16582177831E+04  0.16582177831E+04  0.25500000000E-02 0.  1.
    8880022    1    1    2    0    0  0.26035845873E+03 -0.15404676901E+04  0.65474073096E+03  0.17008539941E+04  0.15294330000E+03 0.  0.
    8880022    1    1    2    0    0 -0.26035845873E+03  0.15404676901E+04 -0.59245871645E+03  0.16778635866E+04  0.15294330000E+03 0.  0.
<mgrwt>
<rscale>  0 0.15697831E+04</rscale>
<asrwt>0</asrwt>
<pdfrwt beam="1">  1        2 0.26469227E+00 0.15697831E+04</pdfrwt>
<pdfrwt beam="2">  1       -2 0.25511043E+00 0.15697831E+04</pdfrwt>
<totfact> 0.53227424E-01</totfact>
</mgrwt>
</event>
<event>
 4    1  0.6912310E-008  0.1115058E+04  0.7818608E-02  0.9190639E-01
         -2   -1    0    0    0  501 -0.00000000000E+00  0.00000000000E+00  0.61491851262E+03  0.61491851262E+03  0.25500000000E-02 0.  1.
          2   -1    0    0  501    0  0.00000000000E+00 -0.00000000000E+00 -0.42709482681E+04  0.42709482681E+04  0.25500000000E-02 0. -1.
    8880022    1    1    2    0    0 -0.80604436457E+03  0.75515199539E+03 -0.55291334254E+02  0.11164277130E+04  0.15294330000E+03 0.  0.
    8880022    1    1    2    0    0  0.80604436457E+03 -0.75515199539E+03 -0.36007384212E+04  0.37694390677E+04  0.15294330000E+03 0.  0.
<mgrwt>
<rscale>  0 0.11150577E+04</rscale>
<asrwt>0</asrwt>
<pdfrwt beam="1">  1        2 0.65706895E+00 0.11150577E+04</pdfrwt>
<pdfrwt beam="2">  1       -2 0.94602851E-01 0.11150577E+04</pdfrwt>
<totfact> 0.19686970E-01</totfact>
</mgrwt>
</event>
<event>
 4    1  0.6912310E-008  0.7530945E+03  0.7818608E-02  0.9630508E-01
         -2   -1    0    0    0  501 -0.00000000000E+00  0.00000000000E+00  0.14792598785E+03  0.14792598787E+03  0.25500000000E-02 0.  1.
          2   -1    0    0  501    0  0.00000000000E+00 -0.00000000000E+00 -0.44226520892E+04  0.44226520892E+04  0.25500000000E-02 0. -1.
    8880022    1    1    2    0    0  0.15251307812E+02 -0.73724291489E+03 -0.29710850835E+04  0.30650445257E+04  0.15294330000E+03 0.  0.
    8880022    1    1    2    0    0 -0.15251307812E+02  0.73724291489E+03 -0.13036410178E+04  0.15055335514E+04  0.15294330000E+03 0.  0.
<mgrwt>
<rscale>  0 0.75309453E+03</rscale>
<asrwt>0</asrwt>
<pdfrwt beam="1">  1        2 0.68040791E+00 0.75309453E+03</pdfrwt>
<pdfrwt beam="2">  1       -2 0.22757848E-01 0.75309453E+03</pdfrwt>
<totfact> 0.27970671E+00</totfact>
</mgrwt>
</event>
<event>
 4    1  0.6912310E-008  0.7825755E+03  0.7818608E-02  0.9585586E-01
         -2   -1    0    0    0  501 -0.00000000000E+00  0.00000000000E+00  0.90189987319E+03  0.90189987319E+03  0.25500000000E-02 0.  1.
          2   -1    0    0  501    0  0.00000000000E+00 -0.00000000000E+00 -0.11764761125E+04  0.11764761125E+04  0.25500000000E-02 0. -1.
    8880022    1    1    2    0    0 -0.28854080384E+03  0.71118002928E+03  0.53844000726E+03  0.94991690371E+03  0.15294330000E+03 0.  0.
    8880022    1    1    2    0    0  0.28854080384E+03 -0.71118002928E+03 -0.81301624659E+03  0.11284590820E+04  0.15294330000E+03 0. -1.
<mgrwt>
<rscale>  0 0.78257554E+03</rscale>
<asrwt>0</asrwt>
<pdfrwt beam="1">  1        2 0.18099633E+00 0.78257554E+03</pdfrwt>
<pdfrwt beam="2">  1       -2 0.13875383E+00 0.78257554E+03</pdfrwt>
<totfact> 0.73075427E+00</totfact>
</mgrwt>
</event>
<event>
 4    1  0.6912310E-008  0.1165921E+04  0.7818608E-02  0.9143220E-01
          2   -1    0    0  501    0  0.00000000000E+00  0.00000000000E+00  0.12797139487E+04  0.12797139487E+04  0.25500000000E-02 0. -1.
         -2   -1    0    0    0  501 -0.00000000000E+00 -0.00000000000E+00 -0.13159170447E+04  0.13159170447E+04  0.25500000000E-02 0.  1.
    8880022    1    1    2    0    0 -0.11111716686E+04 -0.31824135735E+03 -0.58791631642E+03  0.13057631051E+04  0.15294330000E+03 0.  0.
    8880022    1    1    2    0    0  0.11111716686E+04  0.31824135735E+03  0.55171322051E+03  0.12898678883E+04  0.15294330000E+03 0.  0.
<mgrwt>
<rscale>  0 0.11659210E+04</rscale>
<asrwt>0</asrwt>
<pdfrwt beam="1">  1        2 0.19687907E+00 0.11659210E+04</pdfrwt>
<pdfrwt beam="2">  1       -2 0.20244878E+00 0.11659210E+04</pdfrwt>
<totfact> 0.21212471E+00</totfact>
</mgrwt>
</event>
<event>
 4    1  0.6912310E-008  0.8261797E+03  0.7818608E-02  0.9522877E-01
          2   -1    0    0  501    0  0.00000000000E+00  0.00000000000E+00  0.71600034081E+03  0.71600034082E+03  0.25500000000E-02 0. -1.
         -2   -1    0    0    0  501 -0.00000000000E+00 -0.00000000000E+00 -0.97262003214E+03  0.97262003215E+03  0.25500000000E-02 0.  1.
    8880022    1    1    2    0    0 -0.73778296740E+03  0.33890648913E+03 -0.93556478732E+01  0.82623271329E+03  0.15294330000E+03 0.  0.
    8880022    1    1    2    0    0  0.73778296740E+03 -0.33890648913E+03 -0.24726404346E+03  0.86238765967E+03  0.15294330000E+03 0.  0.
<mgrwt>
<rscale>  0 0.82617974E+03</rscale>
<asrwt>0</asrwt>
<pdfrwt beam="1">  1        2 0.11015390E+00 0.82617974E+03</pdfrwt>
<pdfrwt beam="2">  1       -2 0.14963385E+00 0.82617974E+03</pdfrwt>
<totfact> 0.12096951E+01</totfact>
</mgrwt>
</event>
<event>
 4    1  0.6912310E-008  0.3719509E+03  0.7818608E-02  0.1053949E+00
          2   -1    0    0  501    0  0.00000000000E+00  0.00000000000E+00  0.15066227446E+04  0.15066227446E+04  0.25500000000E-02 0. -1.
         -2   -1    0    0    0  501 -0.00000000000E+00 -0.00000000000E+00 -0.21130880981E+03  0.21130880983E+03  0.25500000000E-02 0.  1.
    8880022    1    1    2    0    0 -0.13836608355E+03 -0.30953295626E+03  0.17508968903E+01  0.37195502785E+03  0.15294330000E+03 0.  0.
    8880022    1    1    2    0    0  0.13836608355E+03  0.30953295626E+03  0.12935630379E+04  0.13459765266E+04  0.15294330000E+03 0.  0.
<mgrwt>
<rscale>  0 0.37195091E+03</rscale>
<asrwt>0</asrwt>
<pdfrwt beam="1">  1        2 0.23178810E+00 0.37195091E+03</pdfrwt>
<pdfrwt beam="2">  1       -2 0.32509049E-01 0.37195091E+03</pdfrwt>
<totfact> 0.11824024E+02</totfact>
</mgrwt>
</event>
<event>
 4    1  0.6912310E-008  0.2812928E+03  0.7818608E-02  0.1094985E+00
          2   -1    0    0  501    0  0.00000000000E+00  0.00000000000E+00  0.72053576534E+03  0.72053576535E+03  0.25500000000E-02 0. -1.
         -2   -1    0    0    0  501 -0.00000000000E+00 -0.00000000000E+00 -0.25233919280E+03  0.25233919282E+03  0.25500000000E-02 0.  1.
    8880022    1    1    2    0    0 -0.86561655139E+01 -0.23592168090E+03 -0.13147882567E+03  0.31050330648E+03  0.15294330000E+03 0.  0.
    8880022    1    1    2    0    0  0.86561655139E+01  0.23592168090E+03  0.59967539821E+03  0.66237165168E+03  0.15294330000E+03 0.  0.
<mgrwt>
<rscale>  0 0.28129277E+03</rscale>
<asrwt>0</asrwt>
<pdfrwt beam="1">  1        2 0.11085165E+00 0.28129277E+03</pdfrwt>
<pdfrwt beam="2">  1       -2 0.38821415E-01 0.28129277E+03</pdfrwt>
<totfact> 0.25740429E+02</totfact>
</mgrwt>
</event>
<event>
 4    1  0.6912310E-008  0.1038542E+04  0.7818608E-02  0.9267254E-01
          2   -1    0    0  501    0  0.00000000000E+00  0.00000000000E+00  0.33056455130E+04  0.33056455130E+04  0.25500000000E-02 0. -1.
         -2   -1    0    0    0  501 -0.00000000000E+00 -0.00000000000E+00 -0.50170706098E+03  0.50170706099E+03  0.25500000000E-02 0.  1.
    8880022    1    1    2    0    0 -0.97206593337E+03 -0.33206290243E+03  0.25276492125E+04  0.27326873485E+04  0.15294330000E+03 0.  0.
    8880022    1    1    2    0    0  0.97206593337E+03  0.33206290243E+03  0.27628923947E+03  0.10746652255E+04  0.15294330000E+03 0.  0.
<mgrwt>
<rscale>  0 0.10385421E+04</rscale>
<asrwt>0</asrwt>
<pdfrwt beam="1">  1        2 0.50856087E+00 0.10385421E+04</pdfrwt>
<pdfrwt beam="2">  1       -2 0.77185698E-01 0.10385421E+04</pdfrwt>
<totfact> 0.16924235E+00</totfact>
</mgrwt>
</event>
<event>
 4    1  0.6912310E-008  0.2346546E+03  0.7818608E-02  0.1123406E+00
          2   -1    0    0  501    0  0.00000000000E+00  0.00000000000E+00  0.72926151557E+03  0.72926151557E+03  0.25500000000E-02 0. -1.
         -2   -1    0    0    0  501 -0.00000000000E+00 -0.00000000000E+00 -0.31396178665E+03  0.31396178666E+03  0.25500000000E-02 0.  1.
    8880022    1    1    2    0    0  0.97515963960E+02  0.14886835330E+03  0.66223354545E+03  0.70257816047E+03  0.15294330000E+03 0.  0.
    8880022    1    1    2    0    0 -0.97515963960E+02 -0.14886835330E+03 -0.24693381653E+03  0.34064514176E+03  0.15294330000E+03 0.  1.
<mgrwt>
<rscale>  0 0.23465465E+03</rscale>
<asrwt>0</asrwt>
<pdfrwt beam="1">  1        2 0.11219408E+00 0.23465465E+03</pdfrwt>
<pdfrwt beam="2">  1       -2 0.48301814E-01 0.23465465E+03</pdfrwt>
<totfact> 0.16676906E+02</totfact>
</mgrwt>
</event>
<event>
 4    1  0.6912310E-008  0.8252931E+03  0.7818608E-02  0.9524111E-01
          2   -1    0    0  501    0  0.00000000000E+00  0.00000000000E+00  0.10701832062E+04  0.10701832062E+04  0.25500000000E-02 0. -1.
         -2   -1    0    0    0  501 -0.00000000000E+00 -0.00000000000E+00 -0.95333920160E+03  0.95333920160E+03  0.25500000000E-02 0.  1.
    8880022    1    1    2    0    0  0.75922995372E+03 -0.28510866783E+03 -0.52490760304E+03  0.97807807451E+03  0.15294330000E+03 0.  0.
    8880022    1    1    2    0    0 -0.75922995372E+03  0.28510866783E+03  0.64175160766E+03  0.10454443333E+04  0.15294330000E+03 0. -1.
<mgrwt>
<rscale>  0 0.82529312E+03</rscale>
<asrwt>0</asrwt>
<pdfrwt beam="1">  1        2 0.16464357E+00 0.82529312E+03</pdfrwt>
<pdfrwt beam="2">  1       -2 0.14666757E+00 0.82529312E+03</pdfrwt>
<totfact> 0.72999000E+00</totfact>
</mgrwt>
</event>
<event>
 4    1  0.6912310E-008  0.6010426E+03  0.7818608E-02  0.9903245E-01
          2   -1    0    0  501    0  0.00000000000E+00  0.00000000000E+00  0.61799438547E+03  0.61799438548E+03  0.25500000000E-02 0. -1.
         -2   -1    0    0    0  501 -0.00000000000E+00 -0.00000000000E+00 -0.70102398007E+03  0.70102398007E+03  0.25500000000E-02 0.  1.
    8880022    1    1    2    0    0 -0.18882107505E+03  0.54973370193E+03 -0.31033263192E+03  0.67643073323E+03  0.15294330000E+03 0.  0.
    8880022    1    1    2    0    0  0.18882107505E+03 -0.54973370193E+03  0.22730303732E+03  0.64258763232E+03  0.15294330000E+03 0.  0.
<mgrwt>
<rscale>  0 0.60104259E+03</rscale>
<asrwt>0</asrwt>
<pdfrwt beam="1">  1        2 0.95076059E-01 0.60104259E+03</pdfrwt>
<pdfrwt beam="2">  1       -2 0.10784984E+00 0.60104259E+03</pdfrwt>
<totfact> 0.33838869E+01</totfact>
</mgrwt>
</event>
<event>
 4    1  0.6912310E-008  0.7988687E+03  0.7818608E-02  0.9561656E-01
         -2   -1    0    0    0  501 -0.00000000000E+00  0.00000000000E+00  0.88421365510E+03  0.88421365510E+03  0.25500000000E-02 0.  1.
          2   -1    0    0  501    0  0.00000000000E+00 -0.00000000000E+00 -0.10786353132E+04  0.10786353132E+04  0.25500000000E-02 0. -1.
    8880022    1    1    2    0    0  0.77751309898E+03 -0.10135542673E+03 -0.66172784256E+03  0.10373403165E+04  0.15294330000E+03 0.  0.
    8880022    1    1    2    0    0 -0.77751309898E+03  0.10135542673E+03  0.46730618442E+03  0.92550865184E+03  0.15294330000E+03 0.  0.
<mgrwt>
<rscale>  0 0.79886870E+03</rscale>
<asrwt>0</asrwt>
<pdfrwt beam="1">  1        2 0.16594389E+00 0.79886870E+03</pdfrwt>
<pdfrwt beam="2">  1       -2 0.13603287E+00 0.79886870E+03</pdfrwt>
<totfact> 0.88000045E+00</totfact>
</mgrwt>
</event>
<event>
 4    1  0.6912310E-008  0.4912749E+03  0.7818608E-02  0.1016082E+00
          2   -1    0    0  501    0  0.00000000000E+00  0.00000000000E+00  0.12763437813E+04  0.12763437813E+04  0.25500000000E-02 0. -1.
         -2   -1    0    0    0  501 -0.00000000000E+00 -0.00000000000E+00 -0.30236646956E+03  0.30236646957E+03  0.25500000000E-02 0.  1.
    8880022    1    1    2    0    0  0.27849548457E+02 -0.46602977360E+03  0.97011945624E+03  0.10874202314E+04  0.15294330000E+03 0.  0.
    8880022    1    1    2    0    0 -0.27849548457E+02  0.46602977360E+03  0.38578555533E+01  0.49129001954E+03  0.15294330000E+03 0.  0.
<mgrwt>
<rscale>  0 0.49127487E+03</rscale>
<asrwt>0</asrwt>
<pdfrwt beam="1">  1        2 0.19636058E+00 0.49127487E+03</pdfrwt>
<pdfrwt beam="2">  1       -2 0.46517918E-01 0.49127487E+03</pdfrwt>
<totfact> 0.78224308E+01</totfact>
</mgrwt>
</event>
<event>
 4    1  0.6912310E-008  0.6808261E+03  0.7818608E-02  0.9750596E-01
          2   -1    0    0  501    0  0.00000000000E+00  0.00000000000E+00  0.17112567719E+04  0.17112567719E+04  0.25500000000E-02 0. -1.
         -2   -1    0    0    0  501 -0.00000000000E+00 -0.00000000000E+00 -0.31491146319E+03  0.31491146320E+03  0.25500000000E-02 0.  1.
    8880022    1    1    2    0    0 -0.28204497939E+03  0.60048575731E+03  0.31929976272E+03  0.75198171960E+03  0.15294330000E+03 0.  0.
    8880022    1    1    2    0    0  0.28204497939E+03 -0.60048575731E+03  0.10770455460E+04  0.12741865155E+04  0.15294330000E+03 0.  0.
<mgrwt>
<rscale>  0 0.68082609E+03</rscale>
<asrwt>0</asrwt>
<pdfrwt beam="1">  1        2 0.26327027E+00 0.68082609E+03</pdfrwt>
<pdfrwt beam="2">  1       -2 0.48447918E-01 0.68082609E+03</pdfrwt>
<totfact> 0.40357211E+01</totfact>
</mgrwt>
</event>
<event>
 4    1  0.6912310E-008  0.4086906E+03  0.7818608E-02  0.1040811E+00
          2   -1    0    0  501    0  0.00000000000E+00  0.00000000000E+00  0.53000833983E+03  0.53000833984E+03  0.25500000000E-02 0. -1.
         -2   -1    0    0    0  501 -0.00000000000E+00 -0.00000000000E+00 -0.72517625178E+03  0.72517625179E+03  0.25500000000E-02 0.  1.
    8880022    1    1    2    0    0 -0.18674257589E+03  0.32979315756E+03  0.37433324158E+03  0.55421416906E+03  0.15294330000E+03 0. -1.
    8880022    1    1    2    0    0  0.18674257589E+03 -0.32979315756E+03 -0.56950115353E+03  0.70097042256E+03  0.15294330000E+03 0.  0.
<mgrwt>
<rscale>  0 0.40869055E+03</rscale>
<asrwt>0</asrwt>
<pdfrwt beam="1">  1        2 0.81539745E-01 0.40869055E+03</pdfrwt>
<pdfrwt beam="2">  1       -2 0.11156558E+00 0.40869055E+03</pdfrwt>
<totfact> 0.38217494E+01</totfact>
</mgrwt>
</event>
<event>
 4    1  0.6912310E-008  0.3801685E+03  0.7818608E-02  0.1050872E+00
         -2   -1    0    0    0  501 -0.00000000000E+00  0.00000000000E+00  0.33697322241E+03  0.33697322242E+03  0.25500000000E-02 0.  1.
          2   -1    0    0  501    0  0.00000000000E+00 -0.00000000000E+00 -0.20614786357E+04  0.20614786357E+04  0.25500000000E-02 0. -1.
    8880022    1    1    2    0    0 -0.12040999394E+03  0.32655448491E+03  0.20495401550E+03  0.43189605201E+03  0.15294330000E+03 0.  0.
    8880022    1    1    2    0    0  0.12040999394E+03 -0.32655448491E+03 -0.19294594288E+04  0.19665558061E+04  0.15294330000E+03 0.  0.
<mgrwt>
<rscale>  0 0.38016845E+03</rscale>
<asrwt>0</asrwt>
<pdfrwt beam="1">  1        2 0.31715055E+00 0.38016845E+03</pdfrwt>
<pdfrwt beam="2">  1       -2 0.51842036E-01 0.38016845E+03</pdfrwt>
<totfact> 0.24112660E+01</totfact>
</mgrwt>
</event>
<event>
 4    1  0.6912310E-008  0.7177111E+03  0.7818608E-02  0.9687414E-01
         -2   -1    0    0    0  501 -0.00000000000E+00  0.00000000000E+00  0.67420544216E+03  0.67420544217E+03  0.25500000000E-02 0.  1.
          2   -1    0    0  501    0  0.00000000000E+00 -0.00000000000E+00 -0.22806315734E+04  0.22806315734E+04  0.25500000000E-02 0. -1.
    8880022    1    1    2    0    0  0.68045010437E+03  0.16942603194E+03  0.40158030962E+03  0.82242077000E+03  0.15294330000E+03 0.  0.
    8880022    1    1    2    0    0 -0.68045010437E+03 -0.16942603194E+03 -0.20080064409E+04  0.21324162456E+04  0.15294330000E+03 0.  0.
<mgrwt>
<rscale>  0 0.71771107E+03</rscale>
<asrwt>0</asrwt>
<pdfrwt beam="1">  1        2 0.35086639E+00 0.71771107E+03</pdfrwt>
<pdfrwt beam="2">  1       -2 0.10372392E+00 0.71771107E+03</pdfrwt>
<totfact> 0.36954111E+00</totfact>
</mgrwt>
</event>
<event>
 4    1  0.6912310E-008  0.4381953E+03  0.7818608E-02  0.1031302E+00
         -2   -1    0    0    0  501 -0.00000000000E+00  0.00000000000E+00  0.24957905798E+03  0.24957905799E+03  0.25500000000E-02 0.  1.
          2   -1    0    0  501    0  0.00000000000E+00 -0.00000000000E+00 -0.19606461480E+04  0.19606461480E+04  0.25500000000E-02 0. -1.
    8880022    1    1    2    0    0  0.36893656344E+03  0.18030333378E+03 -0.17169550428E+04  0.17719903363E+04  0.15294330000E+03 0.  0.
    8880022    1    1    2    0    0 -0.36893656344E+03 -0.18030333378E+03  0.58879527470E+01  0.43823486970E+03  0.15294330000E+03 0.  1.
<mgrwt>
<rscale>  0 0.43819531E+03</rscale>
<asrwt>0</asrwt>
<pdfrwt beam="1">  1        2 0.30163786E+00 0.43819531E+03</pdfrwt>
<pdfrwt beam="2">  1       -2 0.38396779E-01 0.43819531E+03</pdfrwt>
<totfact> 0.48667434E+01</totfact>
</mgrwt>
</event>
<event>
 4    1  0.6912310E-008  0.3290868E+03  0.7818608E-02  0.1071542E+00
          2   -1    0    0  501    0  0.00000000000E+00  0.00000000000E+00  0.44504788659E+03  0.44504788660E+03  0.25500000000E-02 0. -1.
         -2   -1    0    0    0  501 -0.00000000000E+00 -0.00000000000E+00 -0.76707062062E+03  0.76707062063E+03  0.25500000000E-02 0.  1.
    8880022    1    1    2    0    0 -0.13877822577E+03 -0.25621686542E+03 -0.66179627129E+03  0.73910245284E+03  0.15294330000E+03 0.  0.
    8880022    1    1    2    0    0  0.13877822577E+03  0.25621686542E+03  0.33977353726E+03  0.47301605439E+03  0.15294330000E+03 0.  0.
<mgrwt>
<rscale>  0 0.32908681E+03</rscale>
<asrwt>0</asrwt>
<pdfrwt beam="1">  1        2 0.68468906E-01 0.32908681E+03</pdfrwt>
<pdfrwt beam="2">  1       -2 0.11801086E+00 0.32908681E+03</pdfrwt>
<totfact> 0.41133108E+01</totfact>
</mgrwt>
</event>
<event>
 4    1  0.6912310E-008  0.4866504E+03  0.7818608E-02  0.1017323E+00
          2   -1    0    0  501    0  0.00000000000E+00  0.00000000000E+00  0.79247620549E+03  0.79247620549E+03  0.25500000000E-02 0. -1.
         -2   -1    0    0    0  501 -0.00000000000E+00 -0.00000000000E+00 -0.13992323007E+04  0.13992323007E+04  0.25500000000E-02 0.  1.
    8880022    1    1    2    0    0 -0.32557799033E+03  0.32777420574E+03 -0.12751859081E+04  0.13648910986E+04  0.15294330000E+03 0.  0.
    8880022    1    1    2    0    0  0.32557799033E+03 -0.32777420574E+03  0.66842981290E+03  0.82681740761E+03  0.15294330000E+03 0.  0.
<mgrwt>
<rscale>  0 0.48665040E+03</rscale>
<asrwt>0</asrwt>
<pdfrwt beam="1">  1        2 0.12191942E+00 0.48665040E+03</pdfrwt>
<pdfrwt beam="2">  1       -2 0.21526651E+00 0.48665040E+03</pdfrwt>
<totfact> 0.39636359E+00</totfact>
</mgrwt>
</event>
<event>
 4    1  0.6912310E-008  0.9246717E+03  0.7818608E-02  0.9395255E-01
          2   -1    0    0  501    0  0.00000000000E+00  0.00000000000E+00  0.26627180734E+04  0.26627180734E+04  0.25500000000E-02 0. -1.
         -2   -1    0    0    0  501 -0.00000000000E+00 -0.00000000000E+00 -0.80277860285E+03  0.80277860285E+03  0.25500000000E-02 0.  1.
    8880022    1    1    2    0    0 -0.55927323768E+03  0.72030522686E+03 -0.41221732668E+03  0.10123936742E+04  0.15294330000E+03 0.  0.
    8880022    1    1    2    0    0  0.55927323768E+03 -0.72030522686E+03  0.22721567972E+04  0.24531030020E+04  0.15294330000E+03 0.  0.
<mgrwt>
<rscale>  0 0.92467174E+03</rscale>
<asrwt>0</asrwt>
<pdfrwt beam="1">  1        2 0.40964894E+00 0.92467174E+03</pdfrwt>
<pdfrwt beam="2">  1       -2 0.12350440E+00 0.92467174E+03</pdfrwt>
<totfact> 0.14120303E+00</totfact>
</mgrwt>
</event>
<event>
 4    1  0.6912310E-008  0.9572610E+03  0.7818608E-02  0.9356704E-01
          2   -1    0    0  501    0  0.00000000000E+00  0.00000000000E+00  0.34310514584E+04  0.34310514584E+04  0.25500000000E-02 0. -1.
         -2   -1    0    0    0  501 -0.00000000000E+00 -0.00000000000E+00 -0.37258931668E+03  0.37258931669E+03  0.25500000000E-02 0.  1.
    8880022    1    1    2    0    0 -0.39498314975E+03  0.85845520117E+03  0.25412989271E+04  0.27156120693E+04  0.15294330000E+03 0.  0.
    8880022    1    1    2    0    0  0.39498314975E+03 -0.85845520117E+03  0.51716321457E+03  0.10880287057E+04  0.15294330000E+03 0.  0.
<mgrwt>
<rscale>  0 0.95726103E+03</rscale>
<asrwt>0</asrwt>
<pdfrwt beam="1">  1        2 0.52785407E+00 0.95726103E+03</pdfrwt>
<pdfrwt beam="2">  1       -2 0.57321434E-01 0.95726103E+03</pdfrwt>
<totfact> 0.26973406E+00</totfact>
</mgrwt>
</event>
<event>
 4    1  0.6912310E-008  0.5434421E+03  0.7818608E-02  0.1003023E+00
          2   -1    0    0  501    0  0.00000000000E+00  0.00000000000E+00  0.95817048893E+03  0.95817048893E+03  0.25500000000E-02 0. -1.
         -2   -1    0    0    0  501 -0.00000000000E+00 -0.00000000000E+00 -0.41039237464E+03  0.41039237465E+03  0.25500000000E-02 0.  1.
    8880022    1    1    2    0    0  0.51067376497E+03  0.10559328340E+03 -0.67537630195E+02  0.54762269880E+03  0.15294330000E+03 0.  0.
    8880022    1    1    2    0    0 -0.51067376497E+03 -0.10559328340E+03  0.61531574448E+03  0.82094016478E+03  0.15294330000E+03 0.  0.
<mgrwt>
<rscale>  0 0.54344207E+03</rscale>
<asrwt>0</asrwt>
<pdfrwt beam="1">  1        2 0.14741084E+00 0.54344207E+03</pdfrwt>
<pdfrwt beam="2">  1       -2 0.63137289E-01 0.54344207E+03</pdfrwt>
<totfact> 0.64466166E+01</totfact>
</mgrwt>
</event>
<event>
 4    1  0.6912310E-008  0.5042477E+03  0.7818608E-02  0.1012676E+00
          2   -1    0    0  501    0  0.00000000000E+00  0.00000000000E+00  0.40224143573E+04  0.40224143573E+04  0.25500000000E-02 0. -1.
         -2   -1    0    0    0  501 -0.00000000000E+00 -0.00000000000E+00 -0.90565940214E+02  0.90565940250E+02  0.25500000000E-02 0.  1.
    8880022    1    1    2    0    0  0.29975398494E+03 -0.37552848903E+03  0.30961165638E+04  0.31369098691E+04  0.15294330000E+03 0.  0.
    8880022    1    1    2    0    0 -0.29975398494E+03  0.37552848903E+03  0.83573185325E+03  0.97607042836E+03  0.15294330000E+03 0.  0.
<mgrwt>
<rscale>  0 0.50424771E+03</rscale>
<asrwt>0</asrwt>
<pdfrwt beam="1">  1        2 0.61883310E+00 0.50424771E+03</pdfrwt>
<pdfrwt beam="2">  1       -2 0.13933219E-01 0.50424771E+03</pdfrwt>
<totfact> 0.15211596E+01</totfact>
</mgrwt>
</event>
<event>
 4    1  0.6912310E-008  0.2180321E+03  0.7818608E-02  0.1135359E+00
         -2   -1    0    0    0  501 -0.00000000000E+00  0.00000000000E+00  0.18855500160E+03  0.18855500162E+03  0.25500000000E-02 0.  1.
          2   -1    0    0  501    0  0.00000000000E+00 -0.00000000000E+00 -0.80691384864E+03  0.80691384864E+03  0.25500000000E-02 0. -1.
    8880022    1    1    2    0    0 -0.14215893074E+03  0.62747106584E+02  0.10353618622E+03  0.24136643479E+03  0.15294330000E+03 0.  0.
    8880022    1    1    2    0    0  0.14215893074E+03 -0.62747106584E+02 -0.72189503325E+03  0.75410241547E+03  0.15294330000E+03 0.  0.
<mgrwt>
<rscale>  0 0.21803214E+03</rscale>
<asrwt>0</asrwt>
<pdfrwt beam="1">  1        2 0.12414059E+00 0.21803214E+03</pdfrwt>
<pdfrwt beam="2">  1       -2 0.29008462E-01 0.21803214E+03</pdfrwt>
<totfact> 0.38604208E+02</totfact>
</mgrwt>
</event>
<event>
 4    1  0.6912310E-008  0.9764002E+03  0.7818608E-02  0.9334814E-01
          2   -1    0    0  501    0  0.00000000000E+00  0.00000000000E+00  0.19312386286E+04  0.19312386286E+04  0.25500000000E-02 0. -1.
         -2   -1    0    0    0  501 -0.00000000000E+00 -0.00000000000E+00 -0.90988452096E+03  0.90988452096E+03  0.25500000000E-02 0.  1.
    8880022    1    1    2    0    0 -0.93815982026E+03 -0.22320799414E+03  0.14714828296E+04  0.17659612193E+04  0.15294330000E+03 0.  0.
    8880022    1    1    2    0    0  0.93815982026E+03  0.22320799414E+03 -0.45012872199E+03  0.10751619303E+04  0.15294330000E+03 0.  0.
<mgrwt>
<rscale>  0 0.97640018E+03</rscale>
<asrwt>0</asrwt>
<pdfrwt beam="1">  1        2 0.29711363E+00 0.97640018E+03</pdfrwt>
<pdfrwt beam="2">  1       -2 0.13998224E+00 0.97640018E+03</pdfrwt>
<totfact> 0.26220343E+00</totfact>
</mgrwt>
</event>
<event>
 4    1  0.6912310E-008  0.3076706E+03  0.7818608E-02  0.1081468E+00
          2   -1    0    0  501    0  0.00000000000E+00  0.00000000000E+00  0.24173268746E+04  0.24173268746E+04  0.25500000000E-02 0. -1.
         -2   -1    0    0    0  501 -0.00000000000E+00 -0.00000000000E+00 -0.99899613882E+02  0.99899613915E+02  0.25500000000E-02 0.  1.
    8880022    1    1    2    0    0  0.23597985307E+03 -0.12483204522E+03  0.21401188944E+04  0.21621216585E+04  0.15294330000E+03 0. -1.
    8880022    1    1    2    0    0 -0.23597985307E+03  0.12483204522E+03  0.17730836626E+03  0.35510483006E+03  0.15294330000E+03 0.  0.
<mgrwt>
<rscale>  0 0.30767058E+03</rscale>
<asrwt>0</asrwt>
<pdfrwt beam="1">  1        2 0.37189645E+00 0.30767058E+03</pdfrwt>
<pdfrwt beam="2">  1       -2 0.15369171E-01 0.30767058E+03</pdfrwt>
<totfact> 0.14547052E+02</totfact>
</mgrwt>
</event>
<event>
 4    1  0.6912310E-008  0.4834062E+03  0.7818608E-02  0.1018203E+00
          2   -1    0    0  501    0  0.00000000000E+00  0.00000000000E+00  0.17840633523E+04  0.17840633523E+04  0.25500000000E-02 0. -1.
         -2   -1    0    0    0  501 -0.00000000000E+00 -0.00000000000E+00 -0.37209783554E+03  0.37209783554E+03  0.25500000000E-02 0.  1.
    8880022    1    1    2    0    0  0.45384719456E+03  0.65670597414E+02  0.15738131036E+04  0.16463806490E+04  0.15294330000E+03 0.  0.
    8880022    1    1    2    0    0 -0.45384719456E+03 -0.65670597414E+02 -0.16184758685E+03  0.50978053882E+03  0.15294330000E+03 0.  1.
<mgrwt>
<rscale>  0 0.48340620E+03</rscale>
<asrwt>0</asrwt>
<pdfrwt beam="1">  1        2 0.27447129E+00 0.48340620E+03</pdfrwt>
<pdfrwt beam="2">  1       -2 0.57245820E-01 0.48340620E+03</pdfrwt>
<totfact> 0.27018640E+01</totfact>
</mgrwt>
</event>
<event>
 4    1  0.6912310E-008  0.2059663E+03  0.7818608E-02  0.1144801E+00
         -2   -1    0    0    0  501 -0.00000000000E+00  0.00000000000E+00  0.85377740460E+02  0.85377740498E+02  0.25500000000E-02 0.  1.
          2   -1    0    0  501    0  0.00000000000E+00 -0.00000000000E+00 -0.13640590346E+04  0.13640590346E+04  0.25500000000E-02 0. -1.
    8880022    1    1    2    0    0  0.29991188600E+02 -0.13465139815E+03 -0.12171813924E+04  0.12344847774E+04  0.15294330000E+03 0.  0.
    8880022    1    1    2    0    0 -0.29991188600E+02  0.13465139815E+03 -0.61499901725E+02  0.21495199777E+03  0.15294330000E+03 0.  1.
<mgrwt>
<rscale>  0 0.20596632E+03</rscale>
<asrwt>0</asrwt>
<pdfrwt beam="1">  1        2 0.20985522E+00 0.20596632E+03</pdfrwt>
<pdfrwt beam="2">  1       -2 0.13135038E-01 0.20596632E+03</pdfrwt>
<totfact> 0.69672458E+02</totfact>
</mgrwt>
</event>
<event>
 4    1  0.6912310E-008  0.5471560E+03  0.7818608E-02  0.1002154E+00
         -2   -1    0    0    0  501 -0.00000000000E+00  0.00000000000E+00  0.87378597679E+03  0.87378597679E+03  0.25500000000E-02 0.  1.
          2   -1    0    0  501    0  0.00000000000E+00 -0.00000000000E+00 -0.37812987480E+03  0.37812987481E+03  0.25500000000E-02 0. -1.
    8880022    1    1    2    0    0 -0.10525184685E+03 -0.51469421720E+03  0.56015557575E+02  0.55001589449E+03  0.15294330000E+03 0.  0.
    8880022    1    1    2    0    0  0.10525184685E+03  0.51469421720E+03  0.43964054441E+03  0.70189995711E+03  0.15294330000E+03 0.  0.
<mgrwt>
<rscale>  0 0.54715605E+03</rscale>
<asrwt>0</asrwt>
<pdfrwt beam="1">  1        2 0.58173828E-01 0.54715605E+03</pdfrwt>
<pdfrwt beam="2">  1       -2 0.13442861E+00 0.54715605E+03</pdfrwt>
<totfact> 0.34752435E+01</totfact>
</mgrwt>
</event>
<event>
 4    1  0.6912310E-008  0.1026683E+04  0.7818608E-02  0.9279754E-01
         -2   -1    0    0    0  501 -0.00000000000E+00  0.00000000000E+00  0.72015723787E+03  0.72015723787E+03  0.25500000000E-02 0.  1.
          2   -1    0    0  501    0  0.00000000000E+00 -0.00000000000E+00 -0.17497607422E+04  0.17497607422E+04  0.25500000000E-02 0. -1.
    8880022    1    1    2    0    0 -0.33021861757E+03  0.96002144717E+03 -0.15445799427E+02  0.10267987827E+04  0.15294330000E+03 0.  0.
    8880022    1    1    2    0    0  0.33021861757E+03 -0.96002144717E+03 -0.10141577049E+04  0.14431191974E+04  0.15294330000E+03 0.  0.
<mgrwt>
<rscale>  0 0.10266826E+04</rscale>
<asrwt>0</asrwt>
<pdfrwt beam="1">  1        2 0.26919396E+00 0.10266826E+04</pdfrwt>
<pdfrwt beam="2">  1       -2 0.11079342E+00 0.10266826E+04</pdfrwt>
<totfact> 0.59040458E+00</totfact>
</mgrwt>
</event>
<event>
 4    1  0.6912310E-008  0.4878543E+03  0.7818608E-02  0.1016999E+00
         -2   -1    0    0    0  501 -0.00000000000E+00  0.00000000000E+00  0.18094174046E+03  0.18094174048E+03  0.25500000000E-02 0.  1.
          2   -1    0    0  501    0  0.00000000000E+00 -0.00000000000E+00 -0.15093551601E+04  0.15093551601E+04  0.25500000000E-02 0. -1.
    8880022    1    1    2    0    0 -0.43642014991E+03  0.15539518187E+03 -0.36120643357E+03  0.60701890453E+03  0.15294330000E+03 0.  1.
    8880022    1    1    2    0    0  0.43642014991E+03 -0.15539518187E+03 -0.96720698611E+03  0.10832779961E+04  0.15294330000E+03 0. -1.
<mgrwt>
<rscale>  0 0.48785435E+03</rscale>
<asrwt>0</asrwt>
<pdfrwt beam="1">  1        2 0.23220848E+00 0.48785435E+03</pdfrwt>
<pdfrwt beam="2">  1       -2 0.27837192E-01 0.48785435E+03</pdfrwt>
<totfact> 0.15408784E+02</totfact>
</mgrwt>
</event>
<event>
 4    1  0.6912310E-008  0.1945773E+03  0.7818608E-02  0.1154396E+00
         -2   -1    0    0    0  501 -0.00000000000E+00  0.00000000000E+00  0.18205132599E+03  0.18205132600E+03  0.25500000000E-02 0.  1.
          2   -1    0    0  501    0  0.00000000000E+00 -0.00000000000E+00 -0.12646573506E+04  0.12646573506E+04  0.25500000000E-02 0. -1.
    8880022    1    1    2    0    0  0.66988592590E+02 -0.99906007217E+02  0.11990620824E+03  0.22855597477E+03  0.15294330000E+03 0.  1.
    8880022    1    1    2    0    0 -0.66988592590E+02  0.99906007217E+02 -0.12025122328E+04  0.12181527018E+04  0.15294330000E+03 0.  0.
<mgrwt>
<rscale>  0 0.19457732E+03</rscale>
<asrwt>0</asrwt>
<pdfrwt beam="1">  1        2 0.19456266E+00 0.19457732E+03</pdfrwt>
<pdfrwt beam="2">  1       -2 0.28007897E-01 0.19457732E+03</pdfrwt>
<totfact> 0.21820462E+02</totfact>
</mgrwt>
</event>
<event>
 4    1  0.6912310E-008  0.3722905E+03  0.7818608E-02  0.1053821E+00
          2   -1    0    0  501    0  0.00000000000E+00  0.00000000000E+00  0.19331832553E+04  0.19331832553E+04  0.25500000000E-02 0. -1.
         -2   -1    0    0    0  501 -0.00000000000E+00 -0.00000000000E+00 -0.30113589240E+03  0.30113589241E+03  0.25500000000E-02 0.  1.
    8880022    1    1    2    0    0 -0.15977521060E+03 -0.29946698270E+03  0.17911683117E+04  0.18294491426E+04  0.15294330000E+03 0. -1.
    8880022    1    1    2    0    0  0.15977521060E+03  0.29946698270E+03 -0.15912094879E+03  0.40487000508E+03  0.15294330000E+03 0.  0.
<mgrwt>
<rscale>  0 0.37229054E+03</rscale>
<asrwt>0</asrwt>
<pdfrwt beam="1">  1        2 0.29741281E+00 0.37229054E+03</pdfrwt>
<pdfrwt beam="2">  1       -2 0.46328598E-01 0.37229054E+03</pdfrwt>
<totfact> 0.35440601E+01</totfact>
</mgrwt>
</event>
<event>
 4    1  0.6912310E-008  0.3004020E+03  0.7818608E-02  0.1085040E+00
         -2   -1    0    0    0  501 -0.00000000000E+00  0.00000000000E+00  0.98397579875E+02  0.98397579908E+02  0.25500000000E-02 0.  1.
          2   -1    0    0  501    0  0.00000000000E+00 -0.00000000000E+00 -0.22051766246E+04  0.22051766246E+04  0.25500000000E-02 0. -1.
    8880022    1    1    2    0    0 -0.20604782238E+03 -0.15618579564E+03 -0.17311170240E+03  0.34671172808E+03  0.15294330000E+03 0.  0.
    8880022    1    1    2    0    0  0.20604782238E+03  0.15618579564E+03 -0.19336673424E+04  0.19568624765E+04  0.15294330000E+03 0.  0.
<mgrwt>
<rscale>  0 0.30040200E+03</rscale>
<asrwt>0</asrwt>
<pdfrwt beam="1">  1        2 0.33925790E+00 0.30040200E+03</pdfrwt>
<pdfrwt beam="2">  1       -2 0.15138091E-01 0.30040200E+03</pdfrwt>
<totfact> 0.19453577E+02</totfact>
</mgrwt>
</event>
<event>
 4    1  0.6912310E-008  0.6228571E+03  0.7818608E-02  0.9859088E-01
         -2   -1    0    0    0  501 -0.00000000000E+00  0.00000000000E+00  0.83862245886E+03  0.83862245886E+03  0.25500000000E-02 0.  1.
          2   -1    0    0  501    0  0.00000000000E+00 -0.00000000000E+00 -0.94492684490E+03  0.94492684491E+03  0.25500000000E-02 0. -1.
    8880022    1    1    2    0    0  0.59518532337E+03 -0.10155686551E+03  0.58397252586E+03  0.85380028699E+03  0.15294330000E+03 0.  0.
    8880022    1    1    2    0    0 -0.59518532337E+03  0.10155686551E+03 -0.69027691191E+03  0.92974901678E+03  0.15294330000E+03 0.  0.
<mgrwt>
<rscale>  0 0.62285714E+03</rscale>
<asrwt>0</asrwt>
<pdfrwt beam="1">  1        2 0.14537336E+00 0.62285714E+03</pdfrwt>
<pdfrwt beam="2">  1       -2 0.12901884E+00 0.62285714E+03</pdfrwt>
<totfact> 0.12509482E+01</totfact>
</mgrwt>
</event>
<event>
 4    1  0.6912310E-008  0.5134216E+03  0.7818608E-02  0.1010334E+00
          2   -1    0    0  501    0  0.00000000000E+00  0.00000000000E+00  0.76604713763E+03  0.76604713763E+03  0.25500000000E-02 0. -1.
         -2   -1    0    0    0  501 -0.00000000000E+00 -0.00000000000E+00 -0.49201233555E+03  0.49201233556E+03  0.25500000000E-02 0.  1.
    8880022    1    1    2    0    0 -0.31530961115E+03 -0.37521983538E+03 -0.20786892102E+03  0.55390542251E+03  0.15294330000E+03 0.  0.
    8880022    1    1    2    0    0  0.31530961115E+03  0.37521983538E+03  0.48190372309E+03  0.70415405068E+03  0.15294330000E+03 0.  0.
<mgrwt>
<rscale>  0 0.51342159E+03</rscale>
<asrwt>0</asrwt>
<pdfrwt beam="1">  1        2 0.11785341E+00 0.51342159E+03</pdfrwt>
<pdfrwt beam="2">  1       -2 0.75694206E-01 0.51342159E+03</pdfrwt>
<totfact> 0.59062997E+01</totfact>
</mgrwt>
</event>
<event>
 4    1  0.6912310E-008  0.7401227E+03  0.7818608E-02  0.9650975E-01
          2   -1    0    0  501    0  0.00000000000E+00  0.00000000000E+00  0.19904585774E+04  0.19904585774E+04  0.25500000000E-02 0. -1.
         -2   -1    0    0    0  501 -0.00000000000E+00 -0.00000000000E+00 -0.28303890689E+03  0.28303890690E+03  0.25500000000E-02 0.  1.
    8880022    1    1    2    0    0 -0.46696182698E+02  0.72264055789E+03  0.66457710738E+03  0.99470814516E+03  0.15294330000E+03 0.  0.
    8880022    1    1    2    0    0  0.46696182698E+02 -0.72264055789E+03  0.10428425631E+04  0.12787893391E+04  0.15294330000E+03 0.  0.
<mgrwt>
<rscale>  0 0.74012267E+03</rscale>
<asrwt>0</asrwt>
<pdfrwt beam="1">  1        2 0.30622440E+00 0.74012267E+03</pdfrwt>
<pdfrwt beam="2">  1       -2 0.43544447E-01 0.74012267E+03</pdfrwt>
<totfact> 0.34937974E+01</totfact>
</mgrwt>
</event>
<event>
 4    1  0.6912310E-008  0.5604096E+03  0.7818608E-02  0.9991128E-01
         -2   -1    0    0    0  501 -0.00000000000E+00  0.00000000000E+00  0.51700185167E+03  0.51700185168E+03  0.25500000000E-02 0.  1.
          2   -1    0    0  501    0  0.00000000000E+00 -0.00000000000E+00 -0.25476781364E+04  0.25476781364E+04  0.25500000000E-02 0. -1.
    8880022    1    1    2    0    0 -0.50620488235E+03  0.18553669113E+03  0.32189745795E+03  0.64627925320E+03  0.15294330000E+03 0.  0.
    8880022    1    1    2    0    0  0.50620488235E+03 -0.18553669113E+03 -0.23525737427E+04  0.24184007349E+04  0.15294330000E+03 0.  0.
<mgrwt>
<rscale>  0 0.56040958E+03</rscale>
<asrwt>0</asrwt>
<pdfrwt beam="1">  1        2 0.39195048E+00 0.56040958E+03</pdfrwt>
<pdfrwt beam="2">  1       -2 0.79538747E-01 0.56040958E+03</pdfrwt>
<totfact> 0.50047911E+00</totfact>
</mgrwt>
</event>
<event>
 4    1  0.6912310E-008  0.6281663E+03  0.7818608E-02  0.9848634E-01
          2   -1    0    0  501    0  0.00000000000E+00  0.00000000000E+00  0.16551095060E+04  0.16551095060E+04  0.25500000000E-02 0. -1.
         -2   -1    0    0    0  501 -0.00000000000E+00 -0.00000000000E+00 -0.76310755516E+03  0.76310755516E+03  0.25500000000E-02 0.  1.
    8880022    1    1    2    0    0  0.56196610300E+03  0.23536207393E+03  0.14486002322E+04  0.15789349235E+04  0.15294330000E+03 0.  0.
    8880022    1    1    2    0    0 -0.56196610300E+03 -0.23536207393E+03 -0.55659828139E+03  0.83928213768E+03  0.15294330000E+03 0.  0.
<mgrwt>
<rscale>  0 0.62816627E+03</rscale>
<asrwt>0</asrwt>
<pdfrwt beam="1">  1        2 0.25463223E+00 0.62816627E+03</pdfrwt>
<pdfrwt beam="2">  1       -2 0.11740116E+00 0.62816627E+03</pdfrwt>
<totfact> 0.61096264E+00</totfact>
</mgrwt>
</event>
<event>
 4    1  0.6912310E-008  0.9670076E+03  0.7818608E-02  0.9345489E-01
          2   -1    0    0  501    0  0.00000000000E+00  0.00000000000E+00  0.29248208324E+04  0.29248208324E+04  0.25500000000E-02 0. -1.
         -2   -1    0    0    0  501 -0.00000000000E+00 -0.00000000000E+00 -0.43064456399E+03  0.43064456400E+03  0.25500000000E-02 0.  1.
    8880022    1    1    2    0    0  0.74137537870E+03 -0.60172637505E+03  0.39557662520E+03  0.10447892620E+04  0.15294330000E+03 0.  0.
    8880022    1    1    2    0    0 -0.74137537870E+03  0.60172637505E+03  0.20985996432E+04  0.23106761344E+04  0.15294330000E+03 0.  0.
<mgrwt>
<rscale>  0 0.96700762E+03</rscale>
<asrwt>0</asrwt>
<pdfrwt beam="1">  1        2 0.44997243E+00 0.96700762E+03</pdfrwt>
<pdfrwt beam="2">  1       -2 0.66253011E-01 0.96700762E+03</pdfrwt>
<totfact> 0.41665975E+00</totfact>
</mgrwt>
</event>
<event>
 4    1  0.6912310E-008  0.3289172E+03  0.7818608E-02  0.1071617E+00
         -2   -1    0    0    0  501 -0.00000000000E+00  0.00000000000E+00  0.25591940495E+03  0.25591940496E+03  0.25500000000E-02 0.  1.
          2   -1    0    0  501    0  0.00000000000E+00 -0.00000000000E+00 -0.13906247571E+04  0.13906247571E+04  0.25500000000E-02 0. -1.
    8880022    1    1    2    0    0 -0.94211290756E+02 -0.27553419707E+03 -0.12541854086E+04  0.12965984548E+04  0.15294330000E+03 0.  0.
    8880022    1    1    2    0    0  0.94211290756E+02  0.27553419707E+03  0.11948005645E+03  0.34994570717E+03  0.15294330000E+03 0.  0.
<mgrwt>
<rscale>  0 0.32891718E+03</rscale>
<asrwt>0</asrwt>
<pdfrwt beam="1">  1        2 0.21394227E+00 0.32891718E+03</pdfrwt>
<pdfrwt beam="2">  1       -2 0.39372217E-01 0.32891718E+03</pdfrwt>
<totfact> 0.96060758E+01</totfact>
</mgrwt>
</event>
<event>
 4    1  0.6912310E-008  0.2593513E+03  0.7818608E-02  0.1107534E+00
          2   -1    0    0  501    0  0.00000000000E+00  0.00000000000E+00  0.64881769058E+03  0.64881769058E+03  0.25500000000E-02 0. -1.
         -2   -1    0    0    0  501 -0.00000000000E+00 -0.00000000000E+00 -0.23131204854E+03  0.23131204855E+03  0.25500000000E-02 0.  1.
    8880022    1    1    2    0    0  0.19572064552E+03 -0.74598068113E+02  0.53565214361E+03  0.59513554323E+03  0.15294330000E+03 0.  0.
    8880022    1    1    2    0    0 -0.19572064552E+03  0.74598068113E+02 -0.11814650157E+03  0.28499419590E+03  0.15294330000E+03 0.  0.
<mgrwt>
<rscale>  0 0.25935130E+03</rscale>
<asrwt>0</asrwt>
<pdfrwt beam="1">  1        2 0.99818106E-01 0.25935130E+03</pdfrwt>
<pdfrwt beam="2">  1       -2 0.35586469E-01 0.25935130E+03</pdfrwt>
<totfact> 0.34520774E+02</totfact>
</mgrwt>
</event>
<event>
 4    1  0.6912310E-008  0.2676928E+03  0.7818608E-02  0.1102607E+00
         -2   -1    0    0    0  501 -0.00000000000E+00  0.00000000000E+00  0.30374482627E+03  0.30374482629E+03  0.25500000000E-02 0.  1.
          2   -1    0    0  501    0  0.00000000000E+00 -0.00000000000E+00 -0.98707715562E+03  0.98707715563E+03  0.25500000000E-02 0. -1.
    8880022    1    1    2    0    0 -0.17275063677E+03  0.13573872830E+03 -0.90468931220E+03  0.94346287128E+03  0.15294330000E+03 0. -1.
    8880022    1    1    2    0    0  0.17275063677E+03 -0.13573872830E+03  0.22135698285E+03  0.34735911063E+03  0.15294330000E+03 0.  0.
<mgrwt>
<rscale>  0 0.26769281E+03</rscale>
<asrwt>0</asrwt>
<pdfrwt beam="1">  1        2 0.15185802E+00 0.26769281E+03</pdfrwt>
<pdfrwt beam="2">  1       -2 0.46729974E-01 0.26769281E+03</pdfrwt>
<totfact> 0.11909954E+02</totfact>
</mgrwt>
</event>
<event>
 4    1  0.6912310E-008  0.2350975E+03  0.7818608E-02  0.1123103E+00
         -2   -1    0    0    0  501 -0.00000000000E+00  0.00000000000E+00  0.92931587923E+02  0.92931587958E+02  0.25500000000E-02 0.  1.
          2   -1    0    0  501    0  0.00000000000E+00 -0.00000000000E+00 -0.16042694508E+04  0.16042694508E+04  0.25500000000E-02 0. -1.
    8880022    1    1    2    0    0  0.17816959936E+03 -0.11608410625E+02 -0.14288355241E+04  0.14480475715E+04  0.15294330000E+03 0.  0.
    8880022    1    1    2    0    0 -0.17816959936E+03  0.11608410625E+02 -0.82502338764E+02  0.24915346726E+03  0.15294330000E+03 0.  1.
<mgrwt>
<rscale>  0 0.23509746E+03</rscale>
<asrwt>0</asrwt>
<pdfrwt beam="1">  1        2 0.24681067E+00 0.23509746E+03</pdfrwt>
<pdfrwt beam="2">  1       -2 0.14297168E-01 0.23509746E+03</pdfrwt>
<totfact> 0.44956019E+02</totfact>
</mgrwt>
</event>
<event>
 4    1  0.6912310E-008  0.3749124E+03  0.7818608E-02  0.1052830E+00
          2   -1    0    0  501    0  0.00000000000E+00  0.00000000000E+00  0.24221490395E+04  0.24221490395E+04  0.25500000000E-02 0. -1.
         -2   -1    0    0    0  501 -0.00000000000E+00 -0.00000000000E+00 -0.15376162485E+03  0.15376162487E+03  0.25500000000E-02 0.  1.
    8880022    1    1    2    0    0 -0.33096703115E+03 -0.87341183136E+02  0.21504486285E+04  0.21828853875E+04  0.15294330000E+03 0.  0.
    8880022    1    1    2    0    0  0.33096703115E+03  0.87341183136E+02  0.11793878613E+03  0.39302527688E+03  0.15294330000E+03 0.  1.
<mgrwt>
<rscale>  0 0.37491240E+03</rscale>
<asrwt>0</asrwt>
<pdfrwt beam="1">  1        2 0.37263831E+00 0.37491240E+03</pdfrwt>
<pdfrwt beam="2">  1       -2 0.23655635E-01 0.37491240E+03</pdfrwt>
<totfact> 0.67791144E+01</totfact>
</mgrwt>
</event>
<event>
 4    1  0.6912310E-008  0.3697001E+03  0.7818608E-02  0.1054808E+00
          2   -1    0    0  501    0  0.00000000000E+00  0.00000000000E+00  0.13803482281E+04  0.13803482281E+04  0.25500000000E-02 0. -1.
         -2   -1    0    0    0  501 -0.00000000000E+00 -0.00000000000E+00 -0.34366687247E+03  0.34366687248E+03  0.25500000000E-02 0.  1.
    8880022    1    1    2    0    0  0.28313956103E+03 -0.18198487560E+03  0.12456423580E+04  0.12993471603E+04  0.15294330000E+03 0. -1.
    8880022    1    1    2    0    0 -0.28313956103E+03  0.18198487560E+03 -0.20896100237E+03  0.42466794027E+03  0.15294330000E+03 0.  0.
<mgrwt>
<rscale>  0 0.36970009E+03</rscale>
<asrwt>0</asrwt>
<pdfrwt beam="1">  1        2 0.21236127E+00 0.36970009E+03</pdfrwt>
<pdfrwt beam="2">  1       -2 0.52871826E-01 0.36970009E+03</pdfrwt>
<totfact> 0.53908385E+01</totfact>
</mgrwt>
</event>
<event>
 4    1  0.6912310E-008  0.3336098E+03  0.7818608E-02  0.1069551E+00
         -2   -1    0    0    0  501 -0.00000000000E+00  0.00000000000E+00  0.18820623401E+04  0.18820623401E+04  0.25500000000E-02 0.  1.
          2   -1    0    0  501    0  0.00000000000E+00 -0.00000000000E+00 -0.38126095645E+03  0.38126095646E+03  0.25500000000E-02 0. -1.
    8880022    1    1    2    0    0 -0.78639532985E+01  0.29638156521E+03  0.17906043439E+04  0.18214168780E+04  0.15294330000E+03 0.  0.
    8880022    1    1    2    0    0  0.78639532985E+01 -0.29638156521E+03 -0.28980296028E+03  0.44190641856E+03  0.15294330000E+03 0.  0.
<mgrwt>
<rscale>  0 0.33360984E+03</rscale>
<asrwt>0</asrwt>
<pdfrwt beam="1">  1        2 0.58655532E-01 0.33360984E+03</pdfrwt>
<pdfrwt beam="2">  1       -2 0.28954805E+00 0.33360984E+03</pdfrwt>
<totfact> 0.34986890E+00</totfact>
</mgrwt>
</event>
<event>
 4    1  0.6912310E-008  0.4555928E+03  0.7818608E-02  0.1026067E+00
         -2   -1    0    0    0  501 -0.00000000000E+00  0.00000000000E+00  0.59989352880E+03  0.59989352881E+03  0.25500000000E-02 0.  1.
          2   -1    0    0  501    0  0.00000000000E+00 -0.00000000000E+00 -0.66801836052E+03  0.66801836052E+03  0.25500000000E-02 0. -1.
    8880022    1    1    2    0    0  0.35225328925E+03 -0.24513425512E+03 -0.47421505841E+03  0.65760532042E+03  0.15294330000E+03 0.  0.
    8880022    1    1    2    0    0 -0.35225328925E+03  0.24513425512E+03  0.40609022669E+03  0.61030656890E+03  0.15294330000E+03 0.  1.
<mgrwt>
<rscale>  0 0.45559284E+03</rscale>
<asrwt>0</asrwt>
<pdfrwt beam="1">  1        2 0.10277206E+00 0.45559284E+03</pdfrwt>
<pdfrwt beam="2">  1       -2 0.92291312E-01 0.45559284E+03</pdfrwt>
<totfact> 0.45147796E+01</totfact>
</mgrwt>
</event>
<event>
 4    1  0.6912310E-008  0.3923004E+03  0.7818608E-02  0.1046479E+00
          2   -1    0    0  501    0  0.00000000000E+00  0.00000000000E+00  0.18898814179E+04  0.18898814179E+04  0.25500000000E-02 0. -1.
         -2   -1    0    0    0  501 -0.00000000000E+00 -0.00000000000E+00 -0.28210974569E+03  0.28210974570E+03  0.25500000000E-02 0.  1.
    8880022    1    1    2    0    0  0.33400436550E+03  0.13765555766E+03 -0.11205414903E+03  0.40798989456E+03  0.15294330000E+03 0.  0.
    8880022    1    1    2    0    0 -0.33400436550E+03 -0.13765555766E+03  0.17198258212E+04  0.17640012690E+04  0.15294330000E+03 0.  0.
<mgrwt>
<rscale>  0 0.39230042E+03</rscale>
<asrwt>0</asrwt>
<pdfrwt beam="1">  1        2 0.29075099E+00 0.39230042E+03</pdfrwt>
<pdfrwt beam="2">  1       -2 0.43401499E-01 0.39230042E+03</pdfrwt>
<totfact> 0.42292994E+01</totfact>
</mgrwt>
</event>
<event>
 4    1  0.6912310E-008  0.6480291E+03  0.7818608E-02  0.9810484E-01
         -2   -1    0    0    0  501 -0.00000000000E+00  0.00000000000E+00  0.86269785871E+03  0.86269785872E+03  0.25500000000E-02 0.  1.
          2   -1    0    0  501    0  0.00000000000E+00 -0.00000000000E+00 -0.90881090845E+03  0.90881090845E+03  0.25500000000E-02 0. -1.
    8880022    1    1    2    0    0  0.58462060453E+03 -0.23402749535E+03 -0.62665764961E+03  0.90146635137E+03  0.15294330000E+03 0.  0.
    8880022    1    1    2    0    0 -0.58462060453E+03  0.23402749535E+03  0.58054459988E+03  0.87004241580E+03  0.15294330000E+03 0.  0.
<mgrwt>
<rscale>  0 0.64802915E+03</rscale>
<asrwt>0</asrwt>
<pdfrwt beam="1">  1        2 0.13981706E+00 0.64802915E+03</pdfrwt>
<pdfrwt beam="2">  1       -2 0.13272275E+00 0.64802915E+03</pdfrwt>
<totfact> 0.12261189E+01</totfact>
</mgrwt>
</event>
<event>
 4    1  0.6912310E-008  0.7489911E+03  0.7818608E-02  0.9636934E-01
         -2   -1    0    0    0  501 -0.00000000000E+00  0.00000000000E+00  0.66022664034E+03  0.66022664034E+03  0.25500000000E-02 0.  1.
          2   -1    0    0  501    0  0.00000000000E+00 -0.00000000000E+00 -0.10276132030E+04  0.10276132030E+04  0.25500000000E-02 0. -1.
    8880022    1    1    2    0    0 -0.20547218963E+03 -0.70383041258E+03 -0.53485175975E+03  0.92035543586E+03  0.15294330000E+03 0.  0.
    8880022    1    1    2    0    0  0.20547218963E+03  0.70383041258E+03  0.16746519714E+03  0.76748440744E+03  0.15294330000E+03 0.  0.
<mgrwt>
<rscale>  0 0.74899114E+03</rscale>
<asrwt>0</asrwt>
<pdfrwt beam="1">  1        2 0.15809434E+00 0.74899114E+03</pdfrwt>
<pdfrwt beam="2">  1       -2 0.10157333E+00 0.74899114E+03</pdfrwt>
<totfact> 0.19574340E+01</totfact>
</mgrwt>
</event>
<event>
 4    1  0.6912310E-008  0.2393992E+03  0.7818608E-02  0.1120194E+00
         -2   -1    0    0    0  501 -0.00000000000E+00  0.00000000000E+00  0.31508485980E+03  0.31508485981E+03  0.25500000000E-02 0.  1.
          2   -1    0    0  501    0  0.00000000000E+00 -0.00000000000E+00 -0.67760671868E+03  0.67760671868E+03  0.25500000000E-02 0. -1.
    8880022    1    1    2    0    0 -0.12303386554E+03  0.13705105740E+03 -0.60579310934E+03  0.65138104727E+03  0.15294330000E+03 0.  0.
    8880022    1    1    2    0    0  0.12303386554E+03 -0.13705105740E+03  0.24327125046E+03  0.34131053122E+03  0.15294330000E+03 0.  1.
<mgrwt>
<rscale>  0 0.23939920E+03</rscale>
<asrwt>0</asrwt>
<pdfrwt beam="1">  1        2 0.10424719E+00 0.23939920E+03</pdfrwt>
<pdfrwt beam="2">  1       -2 0.48474594E-01 0.23939920E+03</pdfrwt>
<totfact> 0.18093383E+02</totfact>
</mgrwt>
</event>
<event>
 4    1  0.6912310E-008  0.8320025E+03  0.7818608E-02  0.9514816E-01
          2   -1    0    0  501    0  0.00000000000E+00  0.00000000000E+00  0.24876131235E+04  0.24876131235E+04  0.25500000000E-02 0. -1.
         -2   -1    0    0    0  501 -0.00000000000E+00 -0.00000000000E+00 -0.49147789564E+03  0.49147789565E+03  0.25500000000E-02 0.  1.
    8880022    1    1    2    0    0 -0.29851140762E+03  0.76139834150E+03  0.19791453164E+04  0.21469150732E+04  0.15294330000E+03 0.  0.
    8880022    1    1    2    0    0  0.29851140762E+03 -0.76139834150E+03  0.16989911422E+02  0.83217594596E+03  0.15294330000E+03 0.  0.
<mgrwt>
<rscale>  0 0.83200249E+03</rscale>
<asrwt>0</asrwt>
<pdfrwt beam="1">  1        2 0.38270972E+00 0.83200249E+03</pdfrwt>
<pdfrwt beam="2">  1       -2 0.75611983E-01 0.83200249E+03</pdfrwt>
<totfact> 0.57445724E+00</totfact>
</mgrwt>
</event>
<event>
 4    1  0.6912310E-008  0.8152161E+03  0.7818608E-02  0.9538250E-01
         -2   -1    0    0    0  501 -0.00000000000E+00  0.00000000000E+00  0.33744554681E+03  0.33744554682E+03  0.25500000000E-02 0.  1.
          2   -1    0    0  501    0  0.00000000000E+00 -0.00000000000E+00 -0.22717387452E+04  0.22717387452E+04  0.25500000000E-02 0. -1.
    8880022    1    1    2    0    0 -0.36070308869E+03  0.71489782391E+03 -0.49124528230E+03  0.95178736975E+03  0.15294330000E+03 0.  0.
    8880022    1    1    2    0    0  0.36070308869E+03 -0.71489782391E+03 -0.14430479161E+04  0.16573969223E+04  0.15294330000E+03 0.  0.
<mgrwt>
<rscale>  0 0.81521609E+03</rscale>
<asrwt>0</asrwt>
<pdfrwt beam="1">  1        2 0.34949826E+00 0.81521609E+03</pdfrwt>
<pdfrwt beam="2">  1       -2 0.51914701E-01 0.81521609E+03</pdfrwt>
<totfact> 0.16994714E+01</totfact>
</mgrwt>
</event>
<event>
 4    1  0.6912310E-008  0.5744853E+03  0.7818608E-02  0.9959802E-01
          2   -1    0    0  501    0  0.00000000000E+00  0.00000000000E+00  0.10225291394E+04  0.10225291394E+04  0.25500000000E-02 0. -1.
         -2   -1    0    0    0  501 -0.00000000000E+00 -0.00000000000E+00 -0.58476101366E+03  0.58476101366E+03  0.25500000000E-02 0.  1.
    8880022    1    1    2    0    0 -0.53577372723E+03  0.13995793741E+03 -0.31904506631E+03  0.65713249682E+03  0.15294330000E+03 0.  0.
    8880022    1    1    2    0    0  0.53577372723E+03 -0.13995793741E+03  0.75681319206E+03  0.95015765625E+03  0.15294330000E+03 0.  0.
<mgrwt>
<rscale>  0 0.57448530E+03</rscale>
<asrwt>0</asrwt>
<pdfrwt beam="1">  1        2 0.15731217E+00 0.57448530E+03</pdfrwt>
<pdfrwt beam="2">  1       -2 0.89963233E-01 0.57448530E+03</pdfrwt>
<totfact> 0.26730853E+01</totfact>
</mgrwt>
</event>
<event>
 4    1  0.6912310E-008  0.7400848E+03  0.7818608E-02  0.9651035E-01
          2   -1    0    0  501    0  0.00000000000E+00  0.00000000000E+00  0.80292551299E+03  0.80292551299E+03  0.25500000000E-02 0. -1.
         -2   -1    0    0    0  501 -0.00000000000E+00 -0.00000000000E+00 -0.10889633426E+04  0.10889633426E+04  0.25500000000E-02 0.  1.
    8880022    1    1    2    0    0  0.64218231729E+03 -0.33456804243E+03 -0.72118151354E+03  0.10333577948E+04  0.15294330000E+03 0.  0.
    8880022    1    1    2    0    0 -0.64218231729E+03  0.33456804243E+03  0.43514368391E+03  0.85853106078E+03  0.15294330000E+03 0.  0.
<mgrwt>
<rscale>  0 0.74008483E+03</rscale>
<asrwt>0</asrwt>
<pdfrwt beam="1">  1        2 0.12352700E+00 0.74008483E+03</pdfrwt>
<pdfrwt beam="2">  1       -2 0.16753282E+00 0.74008483E+03</pdfrwt>
<totfact> 0.77530691E+00</totfact>
</mgrwt>
</event>
<event>
 4    1  0.6912310E-008  0.6461175E+03  0.7818608E-02  0.9814092E-01
          2   -1    0    0  501    0  0.00000000000E+00  0.00000000000E+00  0.22966197921E+04  0.22966197921E+04  0.25500000000E-02 0. -1.
         -2   -1    0    0    0  501 -0.00000000000E+00 -0.00000000000E+00 -0.23377721671E+03  0.23377721672E+03  0.25500000000E-02 0.  1.
    8880022    1    1    2    0    0 -0.48955315821E+02 -0.62584310023E+03  0.43470365500E+03  0.77873944920E+03  0.15294330000E+03 0.  0.
    8880022    1    1    2    0    0  0.48955315821E+02  0.62584310023E+03  0.16281389204E+04  0.17516575596E+04  0.15294330000E+03 0.  0.
<mgrwt>
<rscale>  0 0.64611753E+03</rscale>
<asrwt>0</asrwt>
<pdfrwt beam="1">  1        2 0.35332611E+00 0.64611753E+03</pdfrwt>
<pdfrwt beam="2">  1       -2 0.35965726E-01 0.64611753E+03</pdfrwt>
<totfact> 0.34894524E+01</totfact>
</mgrwt>
</event>
<event>
 4    1  0.6912310E-008  0.5883483E+03  0.7818608E-02  0.9929879E-01
          2   -1    0    0  501    0  0.00000000000E+00  0.00000000000E+00  0.12648368893E+04  0.12648368893E+04  0.25500000000E-02 0. -1.
         -2   -1    0    0    0  501 -0.00000000000E+00 -0.00000000000E+00 -0.92331361529E+03  0.92331361530E+03  0.25500000000E-02 0.  1.
    8880022    1    1    2    0    0  0.55255874127E+03 -0.13206398458E+03  0.10884783251E+04  0.12373111071E+04  0.15294330000E+03 0.  0.
    8880022    1    1    2    0    0 -0.55255874127E+03  0.13206398458E+03 -0.74695505105E+03  0.95083939752E+03  0.15294330000E+03 0.  0.
<mgrwt>
<rscale>  0 0.58834829E+03</rscale>
<asrwt>0</asrwt>
<pdfrwt beam="1">  1        2 0.19459029E+00 0.58834829E+03</pdfrwt>
<pdfrwt beam="2">  1       -2 0.14204825E+00 0.58834829E+03</pdfrwt>
<totfact> 0.62832942E+00</totfact>
</mgrwt>
</event>
<event>
 4    1  0.6912310E-008  0.5505136E+03  0.7818608E-02  0.1001375E+00
         -2   -1    0    0    0  501 -0.00000000000E+00  0.00000000000E+00  0.59455092661E+03  0.59455092661E+03  0.25500000000E-02 0.  1.
          2   -1    0    0  501    0  0.00000000000E+00 -0.00000000000E+00 -0.72400981431E+03  0.72400981432E+03  0.25500000000E-02 0. -1.
    8880022    1    1    2    0    0  0.20725201402E+03 -0.48653896410E+03 -0.42338735819E+03  0.69449411013E+03  0.15294330000E+03 0.  0.
    8880022    1    1    2    0    0 -0.20725201402E+03  0.48653896410E+03  0.29392847049E+03  0.62406663080E+03  0.15294330000E+03 0.  0.
<mgrwt>
<rscale>  0 0.55051359E+03</rscale>
<asrwt>0</asrwt>
<pdfrwt beam="1">  1        2 0.11138612E+00 0.55051359E+03</pdfrwt>
<pdfrwt beam="2">  1       -2 0.91469374E-01 0.55051359E+03</pdfrwt>
<totfact> 0.41240827E+01</totfact>
</mgrwt>
</event>
<event>
 4    1  0.6912310E-008  0.1085168E+04  0.7818608E-02  0.9219769E-01
         -2   -1    0    0    0  501 -0.00000000000E+00  0.00000000000E+00  0.49411033278E+03  0.49411033278E+03  0.25500000000E-02 0.  1.
          2   -1    0    0  501    0  0.00000000000E+00 -0.00000000000E+00 -0.34568269484E+04  0.34568269484E+04  0.25500000000E-02 0. -1.
    8880022    1    1    2    0    0 -0.66767838549E+03  0.84166770971E+03 -0.38046045632E+03  0.11499307683E+04  0.15294330000E+03 0.  0.
    8880022    1    1    2    0    0  0.66767838549E+03 -0.84166770971E+03 -0.25822561593E+04  0.28010065129E+04  0.15294330000E+03 0.  0.
<mgrwt>
<rscale>  0 0.10851685E+04</rscale>
<asrwt>0</asrwt>
<pdfrwt beam="1">  1        2 0.53181952E+00 0.10851685E+04</pdfrwt>
<pdfrwt beam="2">  1       -2 0.76016976E-01 0.10851685E+04</pdfrwt>
<totfact> 0.13773668E+00</totfact>
</mgrwt>
</event>
<event>
 4    1  0.6912310E-008  0.3155477E+03  0.7818608E-02  0.1077717E+00
         -2   -1    0    0    0  501 -0.00000000000E+00  0.00000000000E+00  0.29353573163E+03  0.29353573164E+03  0.25500000000E-02 0.  1.
          2   -1    0    0  501    0  0.00000000000E+00 -0.00000000000E+00 -0.10468253963E+04  0.10468253963E+04  0.25500000000E-02 0. -1.
    8880022    1    1    2    0    0  0.97303370617E+02 -0.25828420243E+03 -0.92764694548E+03  0.97984651024E+03  0.15294330000E+03 0.  0.
    8880022    1    1    2    0    0 -0.97303370617E+02  0.25828420243E+03  0.17435728084E+03  0.36051461767E+03  0.15294330000E+03 0.  0.
<mgrwt>
<rscale>  0 0.31554766E+03</rscale>
<asrwt>0</asrwt>
<pdfrwt beam="1">  1        2 0.16105006E+00 0.31554766E+03</pdfrwt>
<pdfrwt beam="2">  1       -2 0.45159344E-01 0.31554766E+03</pdfrwt>
<totfact> 0.11612657E+02</totfact>
</mgrwt>
</event>
<event>
 4    1  0.6912310E-008  0.6555965E+03  0.7818608E-02  0.9796334E-01
         -2   -1    0    0    0  501 -0.00000000000E+00  0.00000000000E+00  0.26119979736E+03  0.26119979737E+03  0.25500000000E-02 0.  1.
          2   -1    0    0  501    0  0.00000000000E+00 -0.00000000000E+00 -0.19537246427E+04  0.19537246427E+04  0.25500000000E-02 0. -1.
    8880022    1    1    2    0    0 -0.20976302408E+03 -0.60200877387E+03 -0.12861323197E+04  0.14435868823E+04  0.15294330000E+03 0.  0.
    8880022    1    1    2    0    0  0.20976302408E+03  0.60200877387E+03 -0.40639252570E+03  0.77133755778E+03  0.15294330000E+03 0.  0.
<mgrwt>
<rscale>  0 0.65559648E+03</rscale>
<asrwt>0</asrwt>
<pdfrwt beam="1">  1        2 0.30057301E+00 0.65559648E+03</pdfrwt>
<pdfrwt beam="2">  1       -2 0.40184585E-01 0.65559648E+03</pdfrwt>
<totfact> 0.43323592E+01</totfact>
</mgrwt>
</event>
<event>
 4    1  0.6912310E-008  0.2621136E+03  0.7818608E-02  0.1105880E+00
         -2   -1    0    0    0  501 -0.00000000000E+00  0.00000000000E+00  0.83886971654E+02  0.83886971693E+02  0.25500000000E-02 0.  1.
          2   -1    0    0  501    0  0.00000000000E+00 -0.00000000000E+00 -0.97166772947E+03  0.97166772947E+03  0.25500000000E-02 0. -1.
    8880022    1    1    2    0    0 -0.21055056323E+03 -0.31310295207E+02 -0.23468934357E+03  0.35182753625E+03  0.15294330000E+03 0.  1.
    8880022    1    1    2    0    0  0.21055056323E+03  0.31310295207E+02 -0.65309141425E+03  0.70372716492E+03  0.15294330000E+03 0. -1.
<mgrwt>
<rscale>  0 0.26211358E+03</rscale>
<asrwt>0</asrwt>
<pdfrwt beam="1">  1        2 0.14948734E+00 0.26211358E+03</pdfrwt>
<pdfrwt beam="2">  1       -2 0.12905689E-01 0.26211358E+03</pdfrwt>
<totfact> 0.12016692E+03</totfact>
</mgrwt>
</event>
<event>
 4    1  0.6912310E-008  0.6536309E+03  0.7818608E-02  0.9799990E-01
         -2   -1    0    0    0  501 -0.00000000000E+00  0.00000000000E+00  0.80313679606E+03  0.80313679606E+03  0.25500000000E-02 0.  1.
          2   -1    0    0  501    0  0.00000000000E+00 -0.00000000000E+00 -0.13145635461E+04  0.13145635461E+04  0.25500000000E-02 0. -1.
    8880022    1    1    2    0    0  0.17727769069E+03 -0.61025762012E+03 -0.10727015089E+04  0.12561536223E+04  0.15294330000E+03 0.  0.
    8880022    1    1    2    0    0 -0.17727769069E+03  0.61025762012E+03  0.56127475889E+03  0.86154671987E+03  0.15294330000E+03 0.  0.
<mgrwt>
<rscale>  0 0.65363093E+03</rscale>
<asrwt>0</asrwt>
<pdfrwt beam="1">  1        2 0.20224055E+00 0.65363093E+03</pdfrwt>
<pdfrwt beam="2">  1       -2 0.12355951E+00 0.65363093E+03</pdfrwt>
<totfact> 0.82910691E+00</totfact>
</mgrwt>
</event>
<event>
 4    1  0.6912310E-008  0.7319730E+03  0.7818608E-02  0.9664064E-01
         -2   -1    0    0    0  501 -0.00000000000E+00  0.00000000000E+00  0.11341912003E+03  0.11341912006E+03  0.25500000000E-02 0.  1.
          2   -1    0    0  501    0  0.00000000000E+00 -0.00000000000E+00 -0.48976437186E+04  0.48976437186E+04  0.25500000000E-02 0. -1.
    8880022    1    1    2    0    0  0.68201477363E+03 -0.21736762769E+03 -0.19202473298E+04  0.20550265930E+04  0.15294330000E+03 0.  0.
    8880022    1    1    2    0    0 -0.68201477363E+03  0.21736762769E+03 -0.28639772687E+04  0.29560362457E+04  0.15294330000E+03 0.  0.
<mgrwt>
<rscale>  0 0.73197301E+03</rscale>
<asrwt>0</asrwt>
<pdfrwt beam="1">  1        2 0.75348349E+00 0.73197301E+03</pdfrwt>
<pdfrwt beam="2">  1       -2 0.17449099E-01 0.73197301E+03</pdfrwt>
<totfact> 0.14495236E+00</totfact>
</mgrwt>
</event>
<event>
 4    1  0.6912310E-008  0.7372153E+03  0.7818608E-02  0.9655624E-01
          2   -1    0    0  501    0  0.00000000000E+00  0.00000000000E+00  0.23293255643E+04  0.23293255643E+04  0.25500000000E-02 0. -1.
         -2   -1    0    0    0  501 -0.00000000000E+00 -0.00000000000E+00 -0.57885701061E+03  0.57885701061E+03  0.25500000000E-02 0.  1.
    8880022    1    1    2    0    0  0.60739692259E+01  0.72115040115E+03  0.19986774133E+04  0.21303046377E+04  0.15294330000E+03 0.  0.
    8880022    1    1    2    0    0 -0.60739692259E+01 -0.72115040115E+03 -0.24820885958E+03  0.77787793719E+03  0.15294330000E+03 0.  0.
<mgrwt>
<rscale>  0 0.73721533E+03</rscale>
<asrwt>0</asrwt>
<pdfrwt beam="1">  1        2 0.35835778E+00 0.73721533E+03</pdfrwt>
<pdfrwt beam="2">  1       -2 0.89054925E-01 0.73721533E+03</pdfrwt>
<totfact> 0.49472689E+00</totfact>
</mgrwt>
</event>
<event>
 4    1  0.6912310E-008  0.5905699E+03  0.7818608E-02  0.9925166E-01
         -2   -1    0    0    0  501 -0.00000000000E+00  0.00000000000E+00  0.86686359452E+03  0.86686359453E+03  0.25500000000E-02 0.  1.
          2   -1    0    0  501    0  0.00000000000E+00 -0.00000000000E+00 -0.14977464835E+04  0.14977464836E+04  0.25500000000E-02 0. -1.
    8880022    1    1    2    0    0  0.43456079947E+03  0.36951057551E+03  0.69566828508E+03  0.91253885930E+03  0.15294330000E+03 0.  1.
    8880022    1    1    2    0    0 -0.43456079947E+03 -0.36951057551E+03 -0.13265511741E+04  0.14520712188E+04  0.15294330000E+03 0.  0.
<mgrwt>
<rscale>  0 0.59056990E+03</rscale>
<asrwt>0</asrwt>
<pdfrwt beam="1">  1        2 0.23042254E+00 0.59056990E+03</pdfrwt>
<pdfrwt beam="2">  1       -2 0.13336363E+00 0.59056990E+03</pdfrwt>
<totfact> 0.54586365E+00</totfact>
</mgrwt>
</event>
<event>
 4    1  0.6912310E-008  0.6453451E+03  0.7818608E-02  0.9815553E-01
         -2   -1    0    0    0  501 -0.00000000000E+00  0.00000000000E+00  0.29909637526E+03  0.29909637527E+03  0.25500000000E-02 0.  1.
          2   -1    0    0  501    0  0.00000000000E+00 -0.00000000000E+00 -0.23351878982E+04  0.23351878982E+04  0.25500000000E-02 0. -1.
    8880022    1    1    2    0    0  0.38217041699E+02  0.62579394609E+03 -0.18549431419E+04  0.19639970259E+04  0.15294330000E+03 0.  0.
    8880022    1    1    2    0    0 -0.38217041699E+02 -0.62579394609E+03 -0.18114838105E+03  0.67028724753E+03  0.15294330000E+03 0.  0.
<mgrwt>
<rscale>  0 0.64534507E+03</rscale>
<asrwt>0</asrwt>
<pdfrwt beam="1">  1        2 0.35925966E+00 0.64534507E+03</pdfrwt>
<pdfrwt beam="2">  1       -2 0.46014829E-01 0.64534507E+03</pdfrwt>
<totfact> 0.20537295E+01</totfact>
</mgrwt>
</event>
<event>
 4    1  0.6912310E-008  0.4186851E+03  0.7818608E-02  0.1037495E+00
         -2   -1    0    0    0  501 -0.00000000000E+00  0.00000000000E+00  0.55652153966E+03  0.55652153967E+03  0.25500000000E-02 0.  1.
          2   -1    0    0  501    0  0.00000000000E+00 -0.00000000000E+00 -0.54878805901E+03  0.54878805902E+03  0.25500000000E-02 0. -1.
    8880022    1    1    2    0    0  0.15538791103E+03  0.35743549688E+03 -0.35685691443E+03  0.55013093688E+03  0.15294330000E+03 0. -1.
    8880022    1    1    2    0    0 -0.15538791103E+03 -0.35743549688E+03  0.36459039508E+03  0.55517866180E+03  0.15294330000E+03 0.  0.
<mgrwt>
<rscale>  0 0.41868507E+03</rscale>
<asrwt>0</asrwt>
<pdfrwt beam="1">  1        2 0.84428932E-01 0.41868507E+03</pdfrwt>
<pdfrwt beam="2">  1       -2 0.85618698E-01 0.41868507E+03</pdfrwt>
<totfact> 0.68010969E+01</totfact>
</mgrwt>
</event>
<event>
 4    1  0.6912310E-008  0.1805794E+03  0.7818608E-02  0.1167244E+00
         -2   -1    0    0    0  501 -0.00000000000E+00  0.00000000000E+00  0.31051410627E+02  0.31051410732E+02  0.25500000000E-02 0.  1.
          2   -1    0    0  501    0  0.00000000000E+00 -0.00000000000E+00 -0.34290350346E+04  0.34290350346E+04  0.25500000000E-02 0. -1.
    8880022    1    1    2    0    0 -0.64268185305E+02 -0.71322180541E+02 -0.31399684308E+04  0.31451566976E+04  0.15294330000E+03 0.  0.
    8880022    1    1    2    0    0  0.64268185305E+02  0.71322180541E+02 -0.25801519318E+03  0.31492974773E+03  0.15294330000E+03 0.  1.
<mgrwt>
<rscale>  0 0.18057936E+03</rscale>
<asrwt>0</asrwt>
<pdfrwt beam="1">  1        2 0.52754355E+00 0.18057936E+03</pdfrwt>
<pdfrwt beam="2">  1       -2 0.47771428E-02 0.18057936E+03</pdfrwt>
<totfact> 0.24574584E+02</totfact>
</mgrwt>
</event>
<event>
 4    1  0.6912310E-008  0.4781905E+03  0.7818608E-02  0.1019634E+00
         -2   -1    0    0    0  501 -0.00000000000E+00  0.00000000000E+00  0.18349046644E+03  0.18349046645E+03  0.25500000000E-02 0.  1.
          2   -1    0    0  501    0  0.00000000000E+00 -0.00000000000E+00 -0.14850543012E+04  0.14850543013E+04  0.25500000000E-02 0. -1.
    8880022    1    1    2    0    0 -0.17666395248E+01 -0.45306888023E+03 -0.98536303360E+03  0.10952654894E+04  0.15294330000E+03 0.  0.
    8880022    1    1    2    0    0  0.17666395248E+01  0.45306888023E+03 -0.31620080121E+03  0.57327927831E+03  0.15294330000E+03 0.  0.
<mgrwt>
<rscale>  0 0.47819053E+03</rscale>
<asrwt>0</asrwt>
<pdfrwt beam="1">  1        2 0.22846988E+00 0.47819053E+03</pdfrwt>
<pdfrwt beam="2">  1       -2 0.28229304E-01 0.47819053E+03</pdfrwt>
<totfact> 0.15507957E+02</totfact>
</mgrwt>
</event>
<event>
 4    1  0.6912310E-008  0.5954940E+03  0.7818608E-02  0.9914799E-01
         -2   -1    0    0    0  501 -0.00000000000E+00  0.00000000000E+00  0.77909374035E+03  0.77909374036E+03  0.25500000000E-02 0.  1.
          2   -1    0    0  501    0  0.00000000000E+00 -0.00000000000E+00 -0.59098513790E+03  0.59098513790E+03  0.25500000000E-02 0. -1.
    8880022    1    1    2    0    0 -0.14681285664E+02  0.57533117550E+03  0.42246374205E+03  0.73012928171E+03  0.15294330000E+03 0.  0.
    8880022    1    1    2    0    0  0.14681285664E+02 -0.57533117550E+03 -0.23435513960E+03  0.63994959655E+03  0.15294330000E+03 0. -1.
<mgrwt>
<rscale>  0 0.59549404E+03</rscale>
<asrwt>0</asrwt>
<pdfrwt beam="1">  1        2 0.90920790E-01 0.59549404E+03</pdfrwt>
<pdfrwt beam="2">  1       -2 0.11986058E+00 0.59549404E+03</pdfrwt>
<totfact> 0.27639162E+01</totfact>
</mgrwt>
</event>
<event>
 4    1  0.6912310E-008  0.6815465E+03  0.7818608E-02  0.9749321E-01
         -2   -1    0    0    0  501 -0.00000000000E+00  0.00000000000E+00  0.44439180854E+03  0.44439180855E+03  0.25500000000E-02 0.  1.
          2   -1    0    0  501    0  0.00000000000E+00 -0.00000000000E+00 -0.17030272438E+04  0.17030272438E+04  0.25500000000E-02 0. -1.
    8880022    1    1    2    0    0  0.40091765927E+03 -0.52950828956E+03 -0.12966031324E+04  0.14648158021E+04  0.15294330000E+03 0.  0.
    8880022    1    1    2    0    0 -0.40091765927E+03  0.52950828956E+03  0.37967697089E+02  0.68260325026E+03  0.15294330000E+03 0.  0.
<mgrwt>
<rscale>  0 0.68154651E+03</rscale>
<asrwt>0</asrwt>
<pdfrwt beam="1">  1        2 0.26200419E+00 0.68154651E+03</pdfrwt>
<pdfrwt beam="2">  1       -2 0.68367972E-01 0.68154651E+03</pdfrwt>
<totfact> 0.19834478E+01</totfact>
</mgrwt>
</event>
<event>
 4    1  0.6912310E-008  0.2811755E+03  0.7818608E-02  0.1095049E+00
         -2   -1    0    0    0  501 -0.00000000000E+00  0.00000000000E+00  0.52648150384E+02  0.52648150446E+02  0.25500000000E-02 0.  1.
          2   -1    0    0  501    0  0.00000000000E+00 -0.00000000000E+00 -0.17559208442E+04  0.17559208442E+04  0.25500000000E-02 0. -1.
    8880022    1    1    2    0    0  0.19146177625E+03 -0.13787825989E+03 -0.11957416957E+04  0.12283557637E+04  0.15294330000E+03 0.  0.
    8880022    1    1    2    0    0 -0.19146177625E+03  0.13787825989E+03 -0.50753099804E+03  0.58021323090E+03  0.15294330000E+03 0.  0.
<mgrwt>
<rscale>  0 0.28117553E+03</rscale>
<asrwt>0</asrwt>
<pdfrwt beam="1">  1        2 0.27014162E+00 0.28117553E+03</pdfrwt>
<pdfrwt beam="2">  1       -2 0.80997168E-02 0.28117553E+03</pdfrwt>
<totfact> 0.92562379E+02</totfact>
</mgrwt>
</event>
<event>
 4    1  0.6912310E-008  0.6371243E+03  0.7818608E-02  0.9831244E-01
          2   -1    0    0  501    0  0.00000000000E+00  0.00000000000E+00  0.21287322760E+04  0.21287322760E+04  0.25500000000E-02 0. -1.
         -2   -1    0    0    0  501 -0.00000000000E+00 -0.00000000000E+00 -0.19283796234E+03  0.19283796235E+03  0.25500000000E-02 0.  1.
    8880022    1    1    2    0    0  0.78027359064E+02 -0.61355318875E+03  0.10904633840E+04  0.12629480706E+04  0.15294330000E+03 0.  0.
    8880022    1    1    2    0    0 -0.78027359064E+02  0.61355318875E+03  0.84543092964E+03  0.10586221677E+04  0.15294330000E+03 0.  0.
<mgrwt>
<rscale>  0 0.63712435E+03</rscale>
<asrwt>0</asrwt>
<pdfrwt beam="1">  1        2 0.32749727E+00 0.63712435E+03</pdfrwt>
<pdfrwt beam="2">  1       -2 0.29667379E-01 0.63712435E+03</pdfrwt>
<totfact> 0.62018750E+01</totfact>
</mgrwt>
</event>
<event>
 4    1  0.2373682E-007  0.9594308E+03  0.7818608E-02  0.9354195E-01
         -2   -1    0    0    0  501 -0.00000000000E+00  0.00000000000E+00  0.13569976197E+04  0.13569976197E+04  0.25500000000E-02 0.  1.
          2   -1    0    0  501    0  0.00000000000E+00 -0.00000000000E+00 -0.24823399306E+04  0.24823399306E+04  0.25500000000E-02 0. -1.
    8880022    1    1    2    0    0 -0.94686326748E+03 -0.23786132322E+02 -0.21991627547E+04  0.23993383051E+04  0.15294330000E+03 0.  0.
    8880022    1    1    2    0    0  0.94686326748E+03  0.23786132322E+02  0.10738204439E+04  0.14399992452E+04  0.15294330000E+03 0.  1.
<mgrwt>
<rscale>  0 0.95943081E+03</rscale>
<asrwt>0</asrwt>
<pdfrwt beam="1">  1        2 0.38189845E+00 0.95943081E+03</pdfrwt>
<pdfrwt beam="2">  1       -2 0.20876886E+00 0.95943081E+03</pdfrwt>
<totfact> 0.42158764E-01</totfact>
</mgrwt>
</event>
<event>
 4    1  0.6912310E-008  0.6272056E+03  0.7818608E-02  0.9850517E-01
          2   -1    0    0  501    0  0.00000000000E+00  0.00000000000E+00  0.15972805750E+04  0.15972805750E+04  0.25500000000E-02 0. -1.
         -2   -1    0    0    0  501 -0.00000000000E+00 -0.00000000000E+00 -0.59528830308E+03  0.59528830309E+03  0.25500000000E-02 0.  1.
    8880022    1    1    2    0    0  0.27369298469E+03  0.54321949882E+03  0.13404060200E+04  0.14798902747E+04  0.15294330000E+03 0.  0.
    8880022    1    1    2    0    0 -0.27369298469E+03 -0.54321949882E+03 -0.33841374809E+03  0.71267860336E+03  0.15294330000E+03 0.  0.
<mgrwt>
<rscale>  0 0.62720565E+03</rscale>
<asrwt>0</asrwt>
<pdfrwt beam="1">  1        2 0.24573547E+00 0.62720565E+03</pdfrwt>
<pdfrwt beam="2">  1       -2 0.91582816E-01 0.62720565E+03</pdfrwt>
<totfact> 0.11874166E+01</totfact>
</mgrwt>
</event>
<event>
 4    1  0.6912310E-008  0.6539621E+03  0.7818608E-02  0.9799373E-01
          2   -1    0    0  501    0  0.00000000000E+00  0.00000000000E+00  0.45993460633E+03  0.45993460634E+03  0.25500000000E-02 0. -1.
         -2   -1    0    0    0  501 -0.00000000000E+00 -0.00000000000E+00 -0.14514933901E+04  0.14514933901E+04  0.25500000000E-02 0.  1.
    8880022    1    1    2    0    0 -0.32785479484E+03 -0.54478073245E+03 -0.10687213713E+04  0.12529293018E+04  0.15294330000E+03 0.  0.
    8880022    1    1    2    0    0  0.32785479484E+03  0.54478073245E+03  0.77162587452E+02  0.65849869466E+03  0.15294330000E+03 0.  0.
<mgrwt>
<rscale>  0 0.65396213E+03</rscale>
<asrwt>0</asrwt>
<pdfrwt beam="1">  1        2 0.70759171E-01 0.65396213E+03</pdfrwt>
<pdfrwt beam="2">  1       -2 0.22330667E+00 0.65396213E+03</pdfrwt>
<totfact> 0.66165258E+00</totfact>
</mgrwt>
</event>
<event>
 4    1  0.6912310E-008  0.7914424E+03  0.7818608E-02  0.9572487E-01
         -2   -1    0    0    0  501 -0.00000000000E+00  0.00000000000E+00  0.52887867635E+03  0.52887867636E+03  0.25500000000E-02 0.  1.
          2   -1    0    0  501    0  0.00000000000E+00 -0.00000000000E+00 -0.15827688097E+04  0.15827688097E+04  0.25500000000E-02 0. -1.
    8880022    1    1    2    0    0  0.70455046320E+03  0.32649353468E+03  0.27780357953E+01  0.79144725274E+03  0.15294330000E+03 0.  0.
    8880022    1    1    2    0    0 -0.70455046320E+03 -0.32649353468E+03 -0.10566681692E+04  0.13202002334E+04  0.15294330000E+03 0.  0.
<mgrwt>
<rscale>  0 0.79144238E+03</rscale>
<asrwt>0</asrwt>
<pdfrwt beam="1">  1        2 0.24350289E+00 0.79144238E+03</pdfrwt>
<pdfrwt beam="2">  1       -2 0.81365951E-01 0.79144238E+03</pdfrwt>
<totfact> 0.15481773E+01</totfact>
</mgrwt>
</event>
<event>
 4    1  0.6912310E-008  0.6361029E+03  0.7818608E-02  0.9833211E-01
          2   -1    0    0  501    0  0.00000000000E+00  0.00000000000E+00  0.13255083509E+04  0.13255083509E+04  0.25500000000E-02 0. -1.
         -2   -1    0    0    0  501 -0.00000000000E+00 -0.00000000000E+00 -0.64284530947E+03  0.64284530948E+03  0.25500000000E-02 0.  1.
    8880022    1    1    2    0    0  0.59522683824E+03  0.16413477099E+03 -0.37186728257E+03  0.73682571947E+03  0.15294330000E+03 0.  0.
    8880022    1    1    2    0    0 -0.59522683824E+03 -0.16413477099E+03  0.10545303240E+04  0.12315279409E+04  0.15294330000E+03 0.  0.
<mgrwt>
<rscale>  0 0.63610287E+03</rscale>
<asrwt>0</asrwt>
<pdfrwt beam="1">  1        2 0.20392436E+00 0.63610287E+03</pdfrwt>
<pdfrwt beam="2">  1       -2 0.98899280E-01 0.63610287E+03</pdfrwt>
<totfact> 0.14048722E+01</totfact>
</mgrwt>
</event>
<event>
 4    1  0.6912310E-008  0.4941681E+03  0.7818608E-02  0.1015312E+00
         -2   -1    0    0    0  501 -0.00000000000E+00  0.00000000000E+00  0.78762273839E+03  0.78762273840E+03  0.25500000000E-02 0.  1.
          2   -1    0    0  501    0  0.00000000000E+00 -0.00000000000E+00 -0.61374532550E+03  0.61374532550E+03  0.25500000000E-02 0. -1.
    8880022    1    1    2    0    0  0.21649737681E+03 -0.41706034129E+03  0.57982583736E+03  0.76183994193E+03  0.15294330000E+03 0.  0.
    8880022    1    1    2    0    0 -0.21649737681E+03  0.41706034129E+03 -0.40594842446E+03  0.63952812196E+03  0.15294330000E+03 0.  0.
<mgrwt>
<rscale>  0 0.49416808E+03</rscale>
<asrwt>0</asrwt>
<pdfrwt beam="1">  1        2 0.94422358E-01 0.49416808E+03</pdfrwt>
<pdfrwt beam="2">  1       -2 0.12117273E+00 0.49416808E+03</pdfrwt>
<totfact> 0.26018656E+01</totfact>
</mgrwt>
</event>
<event>
 4    1  0.6912310E-008  0.3756032E+03  0.7818608E-02  0.1052571E+00
          2   -1    0    0  501    0  0.00000000000E+00  0.00000000000E+00  0.23312741789E+04  0.23312741789E+04  0.25500000000E-02 0. -1.
         -2   -1    0    0    0  501 -0.00000000000E+00 -0.00000000000E+00 -0.10290983608E+03  0.10290983611E+03  0.25500000000E-02 0.  1.
    8880022    1    1    2    0    0  0.33468242337E+03 -0.75324771378E+02  0.33300450631E+03  0.50196593504E+03  0.15294330000E+03 0.  0.
    8880022    1    1    2    0    0 -0.33468242337E+03  0.75324771378E+02  0.18953598365E+04  0.19322180800E+04  0.15294330000E+03 0.  0.
<mgrwt>
<rscale>  0 0.37560325E+03</rscale>
<asrwt>0</asrwt>
<pdfrwt beam="1">  1        2 0.35865758E+00 0.37560325E+03</pdfrwt>
<pdfrwt beam="2">  1       -2 0.15832282E-01 0.37560325E+03</pdfrwt>
<totfact> 0.15174340E+02</totfact>
</mgrwt>
</event>
<event>
 4    1  0.6912310E-008  0.3327597E+03  0.7818608E-02  0.1069922E+00
          2   -1    0    0  501    0  0.00000000000E+00  0.00000000000E+00  0.89600892214E+03  0.89600892214E+03  0.25500000000E-02 0. -1.
         -2   -1    0    0    0  501 -0.00000000000E+00 -0.00000000000E+00 -0.41786616716E+03  0.41786616717E+03  0.25500000000E-02 0.  1.
    8880022    1    1    2    0    0 -0.14367571453E+03  0.25825309451E+03 -0.31223142866E+03  0.45630854674E+03  0.15294330000E+03 0.  1.
    8880022    1    1    2    0    0  0.14367571453E+03 -0.25825309451E+03  0.79037418364E+03  0.85756654257E+03  0.15294330000E+03 0. -1.
<mgrwt>
<rscale>  0 0.33275971E+03</rscale>
<asrwt>0</asrwt>
<pdfrwt beam="1">  1        2 0.13784753E+00 0.33275971E+03</pdfrwt>
<pdfrwt beam="2">  1       -2 0.64287103E-01 0.33275971E+03</pdfrwt>
<totfact> 0.70077712E+01</totfact>
</mgrwt>
</event>
<event>
 4    1  0.6912310E-008  0.9116032E+03  0.7818608E-02  0.9411192E-01
         -2   -1    0    0    0  501 -0.00000000000E+00  0.00000000000E+00  0.52873628009E+03  0.52873628010E+03  0.25500000000E-02 0.  1.
          2   -1    0    0  501    0  0.00000000000E+00 -0.00000000000E+00 -0.24405656140E+04  0.24405656140E+04  0.25500000000E-02 0. -1.
    8880022    1    1    2    0    0  0.89718362617E+03 -0.51867412343E+02 -0.70079724931E+02  0.91429290076E+03  0.15294330000E+03 0.  0.
    8880022    1    1    2    0    0 -0.89718362617E+03  0.51867412343E+02 -0.18417496090E+04  0.20550089933E+04  0.15294330000E+03 0.  0.
<mgrwt>
<rscale>  0 0.91160317E+03</rscale>
<asrwt>0</asrwt>
<pdfrwt beam="1">  1        2 0.37547163E+00 0.91160317E+03</pdfrwt>
<pdfrwt beam="2">  1       -2 0.81344045E-01 0.91160317E+03</pdfrwt>
<totfact> 0.51230909E+00</totfact>
</mgrwt>
</event>
<event>
 4    1  0.6912310E-008  0.3999135E+03  0.7818608E-02  0.1043810E+00
         -2   -1    0    0    0  501 -0.00000000000E+00  0.00000000000E+00  0.29461548834E+04  0.29461548834E+04  0.25500000000E-02 0.  1.
          2   -1    0    0  501    0  0.00000000000E+00 -0.00000000000E+00 -0.65484613179E+03  0.65484613180E+03  0.25500000000E-02 0. -1.
    8880022    1    1    2    0    0  0.11007840477E+03  0.35273490322E+03 -0.57860411217E+03  0.70335875539E+03  0.15294330000E+03 0.  0.
    8880022    1    1    2    0    0 -0.11007840477E+03 -0.35273490322E+03  0.28699128637E+04  0.28976422598E+04  0.15294330000E+03 0.  1.
<mgrwt>
<rscale>  0 0.39991352E+03</rscale>
<asrwt>0</asrwt>
<pdfrwt beam="1">  1        2 0.10074556E+00 0.39991352E+03</pdfrwt>
<pdfrwt beam="2">  1       -2 0.45325459E+00 0.39991352E+03</pdfrwt>
<totfact> 0.17475556E-01</totfact>
</mgrwt>
</event>
<event>
 4    1  0.6912310E-008  0.5100520E+03  0.7818608E-02  0.1011188E+00
         -2   -1    0    0    0  501 -0.00000000000E+00  0.00000000000E+00  0.12218698083E+04  0.12218698083E+04  0.25500000000E-02 0.  1.
          2   -1    0    0  501    0  0.00000000000E+00 -0.00000000000E+00 -0.70190692840E+03  0.70190692840E+03  0.25500000000E-02 0. -1.
    8880022    1    1    2    0    0  0.34796669577E+03  0.34011846219E+03  0.10628348395E+04  0.11788854646E+04  0.15294330000E+03 0.  0.
    8880022    1    1    2    0    0 -0.34796669577E+03 -0.34011846219E+03 -0.54287195958E+03  0.74489127207E+03  0.15294330000E+03 0.  0.
<mgrwt>
<rscale>  0 0.51005200E+03</rscale>
<asrwt>0</asrwt>
<pdfrwt beam="1">  1        2 0.10798568E+00 0.51005200E+03</pdfrwt>
<pdfrwt beam="2">  1       -2 0.18797997E+00 0.51005200E+03</pdfrwt>
<totfact> 0.68952409E+00</totfact>
</mgrwt>
</event>
<event>
 4    1  0.1533816E-007  0.4278513E+03  0.7818608E-02  0.1034541E+00
          2   -1    0    0  501    0  0.00000000000E+00  0.00000000000E+00  0.21467855445E+04  0.21467855445E+04  0.25500000000E-02 0. -1.
         -2   -1    0    0    0  501 -0.00000000000E+00 -0.00000000000E+00 -0.14696910500E+04  0.14696910500E+04  0.25500000000E-02 0.  1.
    8880022    1    1    2    0    0  0.19855111720E+03  0.34676011331E+03  0.20935455799E+04  0.21368176970E+04  0.15294330000E+03 0.  0.
    8880022    1    1    2    0    0 -0.19855111720E+03 -0.34676011331E+03 -0.14164510854E+04  0.14796588974E+04  0.15294330000E+03 0.  0.
<mgrwt>
<rscale>  0 0.42785135E+03</rscale>
<asrwt>0</asrwt>
<pdfrwt beam="1">  1        2 0.33027470E+00 0.42785135E+03</pdfrwt>
<pdfrwt beam="2">  1       -2 0.22610632E+00 0.42785135E+03</pdfrwt>
<totfact> 0.58047700E-01</totfact>
</mgrwt>
</event>
<event>
 4    1  0.6912310E-008  0.4348043E+03  0.7818608E-02  0.1032353E+00
         -2   -1    0    0    0  501 -0.00000000000E+00  0.00000000000E+00  0.57168505537E+03  0.57168505538E+03  0.25500000000E-02 0.  1.
          2   -1    0    0  501    0  0.00000000000E+00 -0.00000000000E+00 -0.10609390508E+04  0.10609390508E+04  0.25500000000E-02 0. -1.
    8880022    1    1    2    0    0  0.39002841082E+03  0.11636566088E+03  0.43261562240E+03  0.61336046338E+03  0.15294330000E+03 0.  0.
    8880022    1    1    2    0    0 -0.39002841082E+03 -0.11636566088E+03 -0.92186961786E+03  0.10192636428E+04  0.15294330000E+03 0.  0.
<mgrwt>
<rscale>  0 0.43480430E+03</rscale>
<asrwt>0</asrwt>
<pdfrwt beam="1">  1        2 0.16322139E+00 0.43480430E+03</pdfrwt>
<pdfrwt beam="2">  1       -2 0.87951547E-01 0.43480430E+03</pdfrwt>
<totfact> 0.27224177E+01</totfact>
</mgrwt>
</event>
<event>
 4    1  0.6912311E-008  0.3400182E+03  0.7818608E-02  0.1066788E+00
         -2   -1    0    0    0  501 -0.00000000000E+00  0.00000000000E+00  0.92164100381E+03  0.92164100381E+03  0.25500000000E-02 0.  1.
          2   -1    0    0  501    0  0.00000000000E+00 -0.00000000000E+00 -0.24924883149E+04  0.24924883149E+04  0.25500000000E-02 0. -1.
    8880022    1    1    2    0    0 -0.80775965532E+02 -0.29273875977E+03 -0.24489772372E+04  0.24724687864E+04  0.15294330000E+03 0. -1.
    8880022    1    1    2    0    0  0.80775965532E+02  0.29273875977E+03  0.87812992611E+03  0.94166053237E+03  0.15294330000E+03 0.  0.
<mgrwt>
<rscale>  0 0.34001822E+03</rscale>
<asrwt>0</asrwt>
<pdfrwt beam="1">  1        2 0.38345974E+00 0.34001822E+03</pdfrwt>
<pdfrwt beam="2">  1       -2 0.14179093E+00 0.34001822E+03</pdfrwt>
<totfact> 0.14578141E+00</totfact>
</mgrwt>
</event>
<event>
 4    1  0.6912310E-008  0.3004788E+03  0.7818608E-02  0.1085001E+00
          2   -1    0    0  501    0  0.00000000000E+00  0.00000000000E+00  0.24723154951E+03  0.24723154952E+03  0.25500000000E-02 0. -1.
         -2   -1    0    0    0  501 -0.00000000000E+00 -0.00000000000E+00 -0.40981334605E+03  0.40981334605E+03  0.25500000000E-02 0.  1.
    8880022    1    1    2    0    0  0.64376913062E+02 -0.25050247321E+03 -0.18969172811E+03  0.35534557933E+03  0.15294330000E+03 0.  0.
    8880022    1    1    2    0    0 -0.64376913062E+02  0.25050247321E+03  0.27109931574E+02  0.30169931625E+03  0.15294330000E+03 0.  1.
<mgrwt>
<rscale>  0 0.30047883E+03</rscale>
<asrwt>0</asrwt>
<pdfrwt beam="1">  1        2 0.38035623E-01 0.30047883E+03</pdfrwt>
<pdfrwt beam="2">  1       -2 0.63048207E-01 0.30047883E+03</pdfrwt>
<totfact> 0.32331352E+02</totfact>
</mgrwt>
</event>
<event>
 4    1  0.6912310E-008  0.1178466E+04  0.7818608E-02  0.9131916E-01
          2   -1    0    0  501    0  0.00000000000E+00  0.00000000000E+00  0.20433829295E+04  0.20433829295E+04  0.25500000000E-02 0. -1.
         -2   -1    0    0    0  501 -0.00000000000E+00 -0.00000000000E+00 -0.92829045857E+03  0.92829045858E+03  0.25500000000E-02 0.  1.
    8880022    1    1    2    0    0  0.19627524680E+03 -0.11518973564E+04 -0.21143530893E+03  0.11972836068E+04  0.15294330000E+03 0.  0.
    8880022    1    1    2    0    0 -0.19627524680E+03  0.11518973564E+04  0.13265277799E+04  0.17743897813E+04  0.15294330000E+03 0.  0.
<mgrwt>
<rscale>  0 0.11784664E+04</rscale>
<asrwt>0</asrwt>
<pdfrwt beam="1">  1        2 0.31436660E+00 0.11784664E+04</pdfrwt>
<pdfrwt beam="2">  1       -2 0.14281392E+00 0.11784664E+04</pdfrwt>
<totfact> 0.21044807E+00</totfact>
</mgrwt>
</event>
<event>
 4    1  0.6912310E-008  0.8238107E+03  0.7818608E-02  0.9526177E-01
         -2   -1    0    0    0  501 -0.00000000000E+00  0.00000000000E+00  0.52195583971E+03  0.52195583972E+03  0.25500000000E-02 0.  1.
          2   -1    0    0  501    0  0.00000000000E+00 -0.00000000000E+00 -0.20340535760E+04  0.20340535760E+04  0.25500000000E-02 0. -1.
    8880022    1    1    2    0    0 -0.79527641733E+03  0.15102269208E+03  0.11571112755E+02  0.82389196934E+03  0.15294330000E+03 0.  0.
    8880022    1    1    2    0    0  0.79527641733E+03 -0.15102269208E+03 -0.15236688490E+04  0.17321174463E+04  0.15294330000E+03 0.  0.
<mgrwt>
<rscale>  0 0.82381071E+03</rscale>
<asrwt>0</asrwt>
<pdfrwt beam="1">  1        2 0.31293132E+00 0.82381071E+03</pdfrwt>
<pdfrwt beam="2">  1       -2 0.80300899E-01 0.82381071E+03</pdfrwt>
<totfact> 0.89868879E+00</totfact>
</mgrwt>
</event>
<event>
 4    1  0.6912310E-008  0.1565550E+03  0.7818608E-02  0.1192642E+00
          2   -1    0    0  501    0  0.00000000000E+00  0.00000000000E+00  0.25847609134E+03  0.25847609136E+03  0.25500000000E-02 0. -1.
         -2   -1    0    0    0  501 -0.00000000000E+00 -0.00000000000E+00 -0.33498655639E+03  0.33498655640E+03  0.25500000000E-02 0.  1.
    8880022    1    1    2    0    0  0.27835145292E+02  0.18520423050E+02 -0.28950365410E+03  0.32912280403E+03  0.15294330000E+03 0.  1.
    8880022    1    1    2    0    0 -0.27835145292E+02 -0.18520423050E+02  0.21299318905E+03  0.26433984372E+03  0.15294330000E+03 0.  0.
<mgrwt>
<rscale>  0 0.15655496E+03</rscale>
<asrwt>0</asrwt>
<pdfrwt beam="1">  1        2 0.39765553E-01 0.15655496E+03</pdfrwt>
<pdfrwt beam="2">  1       -2 0.51536393E-01 0.15655496E+03</pdfrwt>
<totfact> 0.46611741E+02</totfact>
</mgrwt>
</event>
<event>
 4    1  0.6912310E-008  0.4833426E+03  0.7818608E-02  0.1018221E+00
         -2   -1    0    0    0  501 -0.00000000000E+00  0.00000000000E+00  0.26160670878E+03  0.26160670880E+03  0.25500000000E-02 0.  1.
          2   -1    0    0  501    0  0.00000000000E+00 -0.00000000000E+00 -0.18002324230E+04  0.18002324230E+04  0.25500000000E-02 0. -1.
    8880022    1    1    2    0    0 -0.31525327612E+03  0.33293208927E+03 -0.15011508564E+04  0.15770459571E+04  0.15294330000E+03 0.  0.
    8880022    1    1    2    0    0  0.31525327612E+03 -0.33293208927E+03 -0.37474857738E+02  0.48479317461E+03  0.15294330000E+03 0.  0.
<mgrwt>
<rscale>  0 0.48334259E+03</rscale>
<asrwt>0</asrwt>
<pdfrwt beam="1">  1        2 0.27695883E+00 0.48334259E+03</pdfrwt>
<pdfrwt beam="2">  1       -2 0.40247187E-01 0.48334259E+03</pdfrwt>
<totfact> 0.53703671E+01</totfact>
</mgrwt>
</event>
<event>
 4    1  0.6912310E-008  0.1064983E+04  0.7818608E-02  0.9240010E-01
         -2   -1    0    0    0  501 -0.00000000000E+00  0.00000000000E+00  0.10576513933E+04  0.10576513933E+04  0.25500000000E-02 0.  1.
          2   -1    0    0  501    0  0.00000000000E+00 -0.00000000000E+00 -0.21141455003E+04  0.21141455003E+04  0.25500000000E-02 0. -1.
    8880022    1    1    2    0    0  0.22595685442E+03 -0.10294375316E+04 -0.16415048977E+04  0.19567136003E+04  0.15294330000E+03 0.  0.
    8880022    1    1    2    0    0 -0.22595685442E+03  0.10294375316E+04  0.58501079070E+03  0.12150832934E+04  0.15294330000E+03 0.  0.
<mgrwt>
<rscale>  0 0.10649835E+04</rscale>
<asrwt>0</asrwt>
<pdfrwt beam="1">  1        2 0.32525315E+00 0.10649835E+04</pdfrwt>
<pdfrwt beam="2">  1       -2 0.16271560E+00 0.10649835E+04</pdfrwt>
<totfact> 0.13741992E+00</totfact>
</mgrwt>
</event>
<event>
 4    1  0.6912310E-008  0.6332200E+03  0.7818608E-02  0.9838785E-01
         -2   -1    0    0    0  501 -0.00000000000E+00  0.00000000000E+00  0.33267621821E+03  0.33267621822E+03  0.25500000000E-02 0.  1.
          2   -1    0    0  501    0  0.00000000000E+00 -0.00000000000E+00 -0.21151182677E+04  0.21151182677E+04  0.25500000000E-02 0. -1.
    8880022    1    1    2    0    0 -0.61441575696E+03  0.83198189497E+01 -0.88508548336E+02  0.63937575645E+03  0.15294330000E+03 0.  0.
    8880022    1    1    2    0    0  0.61441575696E+03 -0.83198189497E+01 -0.16939335011E+04  0.18084187295E+04  0.15294330000E+03 0.  0.
<mgrwt>
<rscale>  0 0.63322002E+03</rscale>
<asrwt>0</asrwt>
<pdfrwt beam="1">  1        2 0.32540280E+00 0.63322002E+03</pdfrwt>
<pdfrwt beam="2">  1       -2 0.51180958E-01 0.63322002E+03</pdfrwt>
<totfact> 0.21932901E+01</totfact>
</mgrwt>
</event>
<event>
 4    1  0.6912310E-008  0.7835656E+03  0.7818608E-02  0.9584115E-01
          2   -1    0    0  501    0  0.00000000000E+00  0.00000000000E+00  0.87453704176E+03  0.87453704177E+03  0.25500000000E-02 0. -1.
         -2   -1    0    0    0  501 -0.00000000000E+00 -0.00000000000E+00 -0.14109491121E+04  0.14109491121E+04  0.25500000000E-02 0.  1.
    8880022    1    1    2    0    0 -0.58035424423E+03 -0.50375829429E+03 -0.10782020858E+04  0.13328521519E+04  0.15294330000E+03 0.  0.
    8880022    1    1    2    0    0  0.58035424423E+03  0.50375829429E+03  0.54179001548E+03  0.95263400200E+03  0.15294330000E+03 0.  0.
<mgrwt>
<rscale>  0 0.78356565E+03</rscale>
<asrwt>0</asrwt>
<pdfrwt beam="1">  1        2 0.13454416E+00 0.78356565E+03</pdfrwt>
<pdfrwt beam="2">  1       -2 0.21706909E+00 0.78356565E+03</pdfrwt>
<totfact> 0.32137317E+00</totfact>
</mgrwt>
</event>
<event>
 4    1  0.6912310E-008  0.7486596E+03  0.7818608E-02  0.9637456E-01
          2   -1    0    0  501    0  0.00000000000E+00  0.00000000000E+00  0.31226647974E+04  0.31226647974E+04  0.25500000000E-02 0. -1.
         -2   -1    0    0    0  501 -0.00000000000E+00 -0.00000000000E+00 -0.48890673977E+03  0.48890673977E+03  0.25500000000E-02 0.  1.
    8880022    1    1    2    0    0  0.72826975074E+03  0.81992516538E+02  0.27534403990E+04  0.28534059099E+04  0.15294330000E+03 0.  0.
    8880022    1    1    2    0    0 -0.72826975074E+03 -0.81992516538E+02 -0.11968234135E+03  0.75816562732E+03  0.15294330000E+03 0.  0.
<mgrwt>
<rscale>  0 0.74865964E+03</rscale>
<asrwt>0</asrwt>
<pdfrwt beam="1">  1        2 0.48040999E+00 0.74865964E+03</pdfrwt>
<pdfrwt beam="2">  1       -2 0.75216419E-01 0.74865964E+03</pdfrwt>
<totfact> 0.24757315E+00</totfact>
</mgrwt>
</event>
<event>
 4    1  0.6912310E-008  0.7317945E+03  0.7818608E-02  0.9664353E-01
          2   -1    0    0  501    0  0.00000000000E+00  0.00000000000E+00  0.10486465071E+04  0.10486465071E+04  0.25500000000E-02 0. -1.
         -2   -1    0    0    0  501 -0.00000000000E+00 -0.00000000000E+00 -0.97092004975E+03  0.97092004975E+03  0.25500000000E-02 0.  1.
    8880022    1    1    2    0    0 -0.83638076870E+02 -0.71072933313E+03  0.73409318761E+03  0.10365403870E+04  0.15294330000E+03 0.  0.
    8880022    1    1    2    0    0  0.83638076870E+02  0.71072933313E+03 -0.65636673027E+03  0.98302616979E+03  0.15294330000E+03 0.  0.
<mgrwt>
<rscale>  0 0.73179448E+03</rscale>
<asrwt>0</asrwt>
<pdfrwt beam="1">  1        2 0.16133023E+00 0.73179448E+03</pdfrwt>
<pdfrwt beam="2">  1       -2 0.14937232E+00 0.73179448E+03</pdfrwt>
<totfact> 0.72584241E+00</totfact>
</mgrwt>
</event>
<event>
 4    1  0.6912310E-008  0.5895254E+03  0.7818608E-02  0.9927379E-01
         -2   -1    0    0    0  501 -0.00000000000E+00  0.00000000000E+00  0.38771860391E+03  0.38771860391E+03  0.25500000000E-02 0.  1.
          2   -1    0    0  501    0  0.00000000000E+00 -0.00000000000E+00 -0.11994885080E+04  0.11994885081E+04  0.25500000000E-02 0. -1.
    8880022    1    1    2    0    0  0.31215904199E+03 -0.47613580520E+03 -0.80482728487E+03  0.99764080910E+03  0.15294330000E+03 0.  0.
    8880022    1    1    2    0    0 -0.31215904199E+03  0.47613580520E+03 -0.69426192690E+01  0.58956630286E+03  0.15294330000E+03 0.  0.
<mgrwt>
<rscale>  0 0.58952542E+03</rscale>
<asrwt>0</asrwt>
<pdfrwt beam="1">  1        2 0.18453669E+00 0.58952542E+03</pdfrwt>
<pdfrwt beam="2">  1       -2 0.59649016E-01 0.58952542E+03</pdfrwt>
<totfact> 0.51448030E+01</totfact>
</mgrwt>
</event>
<event>
 4    1  0.6912310E-008  0.1637074E+04  0.7818608E-02  0.8798090E-01
         -2   -1    0    0    0  501 -0.00000000000E+00  0.00000000000E+00  0.14309556454E+04  0.14309556454E+04  0.25500000000E-02 0.  1.
          2   -1    0    0  501    0  0.00000000000E+00 -0.00000000000E+00 -0.20565512386E+04  0.20565512386E+04  0.25500000000E-02 0. -1.
    8880022    1    1    2    0    0  0.11293142057E+03  0.16259966330E+04 -0.83391359020E+03  0.18372321805E+04  0.15294330000E+03 0.  0.
    8880022    1    1    2    0    0 -0.11293142057E+03 -0.16259966330E+04  0.20831799701E+03  0.16502747035E+04  0.15294330000E+03 0.  0.
<mgrwt>
<rscale>  0 0.16370737E+04</rscale>
<asrwt>0</asrwt>
<pdfrwt beam="1">  1        2 0.31639250E+00 0.16370737E+04</pdfrwt>
<pdfrwt beam="2">  1       -2 0.22014702E+00 0.16370737E+04</pdfrwt>
<totfact> 0.56711633E-01</totfact>
</mgrwt>
</event>
<event>
 4    1  0.6912310E-008  0.4376800E+03  0.7818608E-02  0.1031461E+00
         -2   -1    0    0    0  501 -0.00000000000E+00  0.00000000000E+00  0.31941383218E+03  0.31941383219E+03  0.25500000000E-02 0.  1.
          2   -1    0    0  501    0  0.00000000000E+00 -0.00000000000E+00 -0.25331838680E+04  0.25331838681E+04  0.25500000000E-02 0. -1.
    8880022    1    1    2    0    0  0.37572369086E+03 -0.16432847679E+03 -0.23529579788E+04  0.23933188344E+04  0.15294330000E+03 0.  0.
    8880022    1    1    2    0    0 -0.37572369086E+03  0.16432847679E+03  0.13918794291E+03  0.45927886586E+03  0.15294330000E+03 0.  0.
<mgrwt>
<rscale>  0 0.43768001E+03</rscale>
<asrwt>0</asrwt>
<pdfrwt beam="1">  1        2 0.38972058E+00 0.43768001E+03</pdfrwt>
<pdfrwt beam="2">  1       -2 0.49140591E-01 0.43768001E+03</pdfrwt>
<totfact> 0.14620294E+01</totfact>
</mgrwt>
</event>
<event>
 4    1  0.6912310E-008  0.5757186E+03  0.7818608E-02  0.9957103E-01
          2   -1    0    0  501    0  0.00000000000E+00  0.00000000000E+00  0.18799103414E+04  0.18799103414E+04  0.25500000000E-02 0. -1.
         -2   -1    0    0    0  501 -0.00000000000E+00 -0.00000000000E+00 -0.55416557589E+03  0.55416557590E+03  0.25500000000E-02 0.  1.
    8880022    1    1    2    0    0 -0.51603309916E+03 -0.20437736388E+03 -0.34208064525E+03  0.66967983930E+03  0.15294330000E+03 0.  0.
    8880022    1    1    2    0    0  0.51603309916E+03  0.20437736388E+03  0.16678254108E+04  0.17643960780E+04  0.15294330000E+03 0.  0.
<mgrwt>
<rscale>  0 0.57571861E+03</rscale>
<asrwt>0</asrwt>
<pdfrwt beam="1">  1        2 0.28921698E+00 0.57571861E+03</pdfrwt>
<pdfrwt beam="2">  1       -2 0.85256241E-01 0.57571861E+03</pdfrwt>
<totfact> 0.99170614E+00</totfact>
</mgrwt>
</event>
<event>
 4    1  0.6912310E-008  0.8830028E+03  0.7818608E-02  0.9447082E-01
          2   -1    0    0  501    0  0.00000000000E+00  0.00000000000E+00  0.18964082148E+04  0.18964082148E+04  0.25500000000E-02 0. -1.
         -2   -1    0    0    0  501 -0.00000000000E+00 -0.00000000000E+00 -0.93592186752E+03  0.93592186752E+03  0.25500000000E-02 0.  1.
    8880022    1    1    2    0    0 -0.78286245230E+03 -0.37871975195E+03  0.15406743026E+04  0.17757734173E+04  0.15294330000E+03 0.  0.
    8880022    1    1    2    0    0  0.78286245230E+03  0.37871975195E+03 -0.58018795539E+03  0.10565566650E+04  0.15294330000E+03 0.  0.
<mgrwt>
<rscale>  0 0.88300279E+03</rscale>
<asrwt>0</asrwt>
<pdfrwt beam="1">  1        2 0.29175511E+00 0.88300279E+03</pdfrwt>
<pdfrwt beam="2">  1       -2 0.14398798E+00 0.88300279E+03</pdfrwt>
<totfact> 0.25788920E+00</totfact>
</mgrwt>
</event>
<event>
 4    1  0.6912310E-008  0.1065448E+04  0.7818608E-02  0.9239539E-01
          2   -1    0    0  501    0  0.00000000000E+00  0.00000000000E+00  0.23515174753E+04  0.23515174753E+04  0.25500000000E-02 0. -1.
         -2   -1    0    0    0  501 -0.00000000000E+00 -0.00000000000E+00 -0.87249538482E+03  0.87249538482E+03  0.25500000000E-02 0.  1.
    8880022    1    1    2    0    0  0.97329038043E+03 -0.40557731101E+03 -0.33789535330E+03  0.11177441758E+04  0.15294330000E+03 0.  0.
    8880022    1    1    2    0    0 -0.97329038043E+03  0.40557731101E+03  0.18169174438E+04  0.21062686843E+04  0.15294330000E+03 0.  0.
<mgrwt>
<rscale>  0 0.10654477E+04</rscale>
<asrwt>0</asrwt>
<pdfrwt beam="1">  1        2 0.36177192E+00 0.10654477E+04</pdfrwt>
<pdfrwt beam="2">  1       -2 0.13423006E+00 0.10654477E+04</pdfrwt>
<totfact> 0.16869532E+00</totfact>
</mgrwt>
</event>
<event>
 4    1  0.6912310E-008  0.3278547E+03  0.7818608E-02  0.1072090E+00
          2   -1    0    0  501    0  0.00000000000E+00  0.00000000000E+00  0.10064408476E+04  0.10064408476E+04  0.25500000000E-02 0. -1.
         -2   -1    0    0    0  501 -0.00000000000E+00 -0.00000000000E+00 -0.10114508452E+04  0.10114508452E+04  0.25500000000E-02 0.  1.
    8880022    1    1    2    0    0  0.28183657330E+03 -0.68302329614E+02 -0.95669698316E+03  0.10113149029E+04  0.15294330000E+03 0.  1.
    8880022    1    1    2    0    0 -0.28183657330E+03  0.68302329614E+02  0.95168698558E+03  0.10065767898E+04  0.15294330000E+03 0.  0.
<mgrwt>
<rscale>  0 0.32785472E+03</rscale>
<asrwt>0</asrwt>
<pdfrwt beam="1">  1        2 0.15483705E+00 0.32785472E+03</pdfrwt>
<pdfrwt beam="2">  1       -2 0.15560782E+00 0.32785472E+03</pdfrwt>
<totfact> 0.74868256E+00</totfact>
</mgrwt>
</event>
<event>
 4    1  0.6912310E-008  0.6940369E+03  0.7818608E-02  0.9727485E-01
         -2   -1    0    0    0  501 -0.00000000000E+00  0.00000000000E+00  0.32806755798E+03  0.32806755799E+03  0.25500000000E-02 0.  1.
          2   -1    0    0  501    0  0.00000000000E+00 -0.00000000000E+00 -0.27206831112E+04  0.27206831112E+04  0.25500000000E-02 0. -1.
    8880022    1    1    2    0    0  0.65043606617E+03 -0.18769241730E+03 -0.16204913987E+03  0.71270407354E+03  0.15294330000E+03 0.  0.
    8880022    1    1    2    0    0 -0.65043606617E+03  0.18769241730E+03 -0.22305664134E+04  0.23360465957E+04  0.15294330000E+03 0.  0.
<mgrwt>
<rscale>  0 0.69403687E+03</rscale>
<asrwt>0</asrwt>
<pdfrwt beam="1">  1        2 0.41856662E+00 0.69403687E+03</pdfrwt>
<pdfrwt beam="2">  1       -2 0.50471934E-01 0.69403687E+03</pdfrwt>
<totfact> 0.10208721E+01</totfact>
</mgrwt>
</event>
<event>
 4    1  0.6912310E-008  0.7792985E+03  0.7818608E-02  0.9590475E-01
          2   -1    0    0  501    0  0.00000000000E+00  0.00000000000E+00  0.61360760007E+03  0.61360760007E+03  0.25500000000E-02 0. -1.
         -2   -1    0    0    0  501 -0.00000000000E+00 -0.00000000000E+00 -0.11621839581E+04  0.11621839581E+04  0.25500000000E-02 0.  1.
    8880022    1    1    2    0    0  0.73503345157E+03  0.20890279939E+03  0.67738830196E+02  0.78223702076E+03  0.15294330000E+03 0.  0.
    8880022    1    1    2    0    0 -0.73503345157E+03 -0.20890279939E+03 -0.61631518818E+03  0.99355453737E+03  0.15294330000E+03 0.  0.
<mgrwt>
<rscale>  0 0.77929854E+03</rscale>
<asrwt>0</asrwt>
<pdfrwt beam="1">  1        2 0.94401170E-01 0.77929854E+03</pdfrwt>
<pdfrwt beam="2">  1       -2 0.17879753E+00 0.77929854E+03</pdfrwt>
<totfact> 0.90463946E+00</totfact>
</mgrwt>
</event>
<event>
 4    1  0.6912310E-008  0.6989337E+03  0.7818608E-02  0.9719058E-01
          2   -1    0    0  501    0  0.00000000000E+00  0.00000000000E+00  0.25974584343E+04  0.25974584343E+04  0.25500000000E-02 0. -1.
         -2   -1    0    0    0  501 -0.00000000000E+00 -0.00000000000E+00 -0.27330962115E+03  0.27330962117E+03  0.25500000000E-02 0.  1.
    8880022    1    1    2    0    0  0.61694169342E+03  0.29068806970E+03  0.19636735311E+04  0.20843516969E+04  0.15294330000E+03 0.  0.
    8880022    1    1    2    0    0 -0.61694169342E+03 -0.29068806970E+03  0.36047528207E+03  0.78641635852E+03  0.15294330000E+03 0.  0.
<mgrwt>
<rscale>  0 0.69893366E+03</rscale>
<asrwt>0</asrwt>
<pdfrwt beam="1">  1        2 0.39960898E+00 0.69893366E+03</pdfrwt>
<pdfrwt beam="2">  1       -2 0.42047635E-01 0.69893366E+03</pdfrwt>
<totfact> 0.17316095E+01</totfact>
</mgrwt>
</event>
<event>
 4    1  0.6912310E-008  0.7752449E+03  0.7818608E-02  0.9596557E-01
          2   -1    0    0  501    0  0.00000000000E+00  0.00000000000E+00  0.15250405490E+04  0.15250405490E+04  0.25500000000E-02 0. -1.
         -2   -1    0    0    0  501 -0.00000000000E+00 -0.00000000000E+00 -0.70554876423E+03  0.70554876423E+03  0.25500000000E-02 0.  1.
    8880022    1    1    2    0    0 -0.12621353625E+03 -0.74945519430E+03  0.11507587717E+04  0.13875339090E+04  0.15294330000E+03 0.  0.
    8880022    1    1    2    0    0  0.12621353625E+03  0.74945519430E+03 -0.33126698691E+03  0.84305540425E+03  0.15294330000E+03 0.  0.
<mgrwt>
<rscale>  0 0.77524486E+03</rscale>
<asrwt>0</asrwt>
<pdfrwt beam="1">  1        2 0.23462162E+00 0.77524486E+03</pdfrwt>
<pdfrwt beam="2">  1       -2 0.10854597E+00 0.77524486E+03</pdfrwt>
<totfact> 0.85187954E+00</totfact>
</mgrwt>
</event>
<event>
 4    1  0.6912310E-008  0.2610267E+03  0.7818608E-02  0.1106528E+00
          2   -1    0    0  501    0  0.00000000000E+00  0.00000000000E+00  0.11440407071E+04  0.11440407071E+04  0.25500000000E-02 0. -1.
         -2   -1    0    0    0  501 -0.00000000000E+00 -0.00000000000E+00 -0.26060714623E+03  0.26060714624E+03  0.25500000000E-02 0.  1.
    8880022    1    1    2    0    0  0.60149253169E+02  0.20279381465E+03  0.10585917889E+04  0.10902988088E+04  0.15294330000E+03 0.  0.
    8880022    1    1    2    0    0 -0.60149253169E+02 -0.20279381465E+03 -0.17515822807E+03  0.31434904452E+03  0.15294330000E+03 0.  1.
<mgrwt>
<rscale>  0 0.26102666E+03</rscale>
<asrwt>0</asrwt>
<pdfrwt beam="1">  1        2 0.17600626E+00 0.26102666E+03</pdfrwt>
<pdfrwt beam="2">  1       -2 0.40093407E-01 0.26102666E+03</pdfrwt>
<totfact> 0.12945834E+02</totfact>
</mgrwt>
</event>
<event>
 4    1  0.6916105E-008  0.6421089E+03  0.7818608E-02  0.9821700E-01
         -2   -1    0    0    0  501 -0.00000000000E+00  0.00000000000E+00  0.88938463453E+03  0.88938463453E+03  0.25500000000E-02 0.  1.
          2   -1    0    0  501    0  0.00000000000E+00 -0.00000000000E+00 -0.22518518241E+04  0.22518518241E+04  0.25500000000E-02 0. -1.
    8880022    1    1    2    0    0  0.59997041251E+03  0.17014013039E+03 -0.20808760327E+04  0.21776934762E+04  0.15294330000E+03 0.  0.
    8880022    1    1    2    0    0 -0.59997041251E+03 -0.17014013039E+03  0.71840884319E+03  0.96354298235E+03  0.15294330000E+03 0.  0.
<mgrwt>
<rscale>  0 0.64210888E+03</rscale>
<asrwt>0</asrwt>
<pdfrwt beam="1">  1        2 0.34643874E+00 0.64210888E+03</pdfrwt>
<pdfrwt beam="2">  1       -2 0.13682841E+00 0.64210888E+03</pdfrwt>
<totfact> 0.19647988E+00</totfact>
</mgrwt>
</event>
<event>
 4    1  0.6912310E-008  0.4129834E+03  0.7818608E-02  0.1039374E+00
          2   -1    0    0  501    0  0.00000000000E+00  0.00000000000E+00  0.80722785908E+03  0.80722785909E+03  0.25500000000E-02 0. -1.
         -2   -1    0    0    0  501 -0.00000000000E+00 -0.00000000000E+00 -0.35089588192E+03  0.35089588193E+03  0.25500000000E-02 0.  1.
    8880022    1    1    2    0    0 -0.36999465014E+03 -0.10132899767E+03  0.59342020156E+03  0.72298187773E+03  0.15294330000E+03 0.  0.
    8880022    1    1    2    0    0  0.36999465014E+03  0.10132899767E+03 -0.13708822439E+03  0.43514186328E+03  0.15294330000E+03 0.  0.
<mgrwt>
<rscale>  0 0.41298337E+03</rscale>
<asrwt>0</asrwt>
<pdfrwt beam="1">  1        2 0.12418890E+00 0.41298337E+03</pdfrwt>
<pdfrwt beam="2">  1       -2 0.53983983E-01 0.41298337E+03</pdfrwt>
<totfact> 0.11450235E+02</totfact>
</mgrwt>
</event>
<event>
 4    1  0.6912310E-008  0.1592487E+03  0.7818608E-02  0.1189548E+00
         -2   -1    0    0    0  501 -0.00000000000E+00  0.00000000000E+00  0.99474928550E+03  0.99474928550E+03  0.25500000000E-02 0.  1.
          2   -1    0    0  501    0  0.00000000000E+00 -0.00000000000E+00 -0.30792708337E+03  0.30792708338E+03  0.25500000000E-02 0. -1.
    8880022    1    1    2    0    0  0.44136811249E+02 -0.45200916892E+01 -0.28038172459E+03  0.32245007960E+03  0.15294330000E+03 0. -1.
    8880022    1    1    2    0    0 -0.44136811249E+02  0.45200916892E+01  0.96720392671E+03  0.98022628928E+03  0.15294330000E+03 0.  0.
<mgrwt>
<rscale>  0 0.15924868E+03</rscale>
<asrwt>0</asrwt>
<pdfrwt beam="1">  1        2 0.47373398E-01 0.15924868E+03</pdfrwt>
<pdfrwt beam="2">  1       -2 0.15303835E+00 0.15924868E+03</pdfrwt>
<totfact> 0.33133147E+01</totfact>
</mgrwt>
</event>
<event>
 4    1  0.6912310E-008  0.1058494E+04  0.7818608E-02  0.9246618E-01
         -2   -1    0    0    0  501 -0.00000000000E+00  0.00000000000E+00  0.18357434215E+04  0.18357434215E+04  0.25500000000E-02 0.  1.
          2   -1    0    0  501    0  0.00000000000E+00 -0.00000000000E+00 -0.11528767149E+04  0.11528767149E+04  0.25500000000E-02 0. -1.
    8880022    1    1    2    0    0 -0.81584262936E+03 -0.65682434787E+03 -0.68367058860E+03  0.12600851346E+04  0.15294330000E+03 0.  0.
    8880022    1    1    2    0    0  0.81584262936E+03  0.65682434787E+03  0.13665372952E+04  0.17285350017E+04  0.15294330000E+03 0.  0.
<mgrwt>
<rscale>  0 0.10584938E+04</rscale>
<asrwt>0</asrwt>
<pdfrwt beam="1">  1        2 0.17736565E+00 0.10584938E+04</pdfrwt>
<pdfrwt beam="2">  1       -2 0.28242206E+00 0.10584938E+04</pdfrwt>
<totfact> 0.81732662E-01</totfact>
</mgrwt>
</event>
<event>
 4    1  0.6912310E-008  0.2283899E+03  0.7818608E-02  0.1127778E+00
         -2   -1    0    0    0  501 -0.00000000000E+00  0.00000000000E+00  0.14158195734E+03  0.14158195736E+03  0.25500000000E-02 0.  1.
          2   -1    0    0  501    0  0.00000000000E+00 -0.00000000000E+00 -0.21785622491E+04  0.21785622491E+04  0.25500000000E-02 0. -1.
    8880022    1    1    2    0    0 -0.89741713291E+01  0.16938048230E+03  0.38950706670E+02  0.23168749233E+03  0.15294330000E+03 0.  0.
    8880022    1    1    2    0    0  0.89741713291E+01 -0.16938048230E+03 -0.20759309985E+04  0.20884567142E+04  0.15294330000E+03 0. -1.
<mgrwt>
<rscale>  0 0.22838988E+03</rscale>
<asrwt>0</asrwt>
<pdfrwt beam="1">  1        2 0.33516340E+00 0.22838988E+03</pdfrwt>
<pdfrwt beam="2">  1       -2 0.21781841E-01 0.22838988E+03</pdfrwt>
<totfact> 0.11074611E+02</totfact>
</mgrwt>
</event>
<event>
 4    1  0.6912310E-008  0.6372526E+03  0.7818608E-02  0.9830997E-01
         -2   -1    0    0    0  501 -0.00000000000E+00  0.00000000000E+00  0.64796216722E+03  0.64796216722E+03  0.25500000000E-02 0.  1.
          2   -1    0    0  501    0  0.00000000000E+00 -0.00000000000E+00 -0.28286661301E+04  0.28286661301E+04  0.25500000000E-02 0. -1.
    8880022    1    1    2    0    0 -0.41979140682E+03  0.45439460911E+03 -0.26240531596E+04  0.27003232998E+04  0.15294330000E+03 0.  0.
    8880022    1    1    2    0    0  0.41979140682E+03 -0.45439460911E+03  0.44334919668E+03  0.77630499756E+03  0.15294330000E+03 0.  0.
<mgrwt>
<rscale>  0 0.63725265E+03</rscale>
<asrwt>0</asrwt>
<pdfrwt beam="1">  1        2 0.43517940E+00 0.63725265E+03</pdfrwt>
<pdfrwt beam="2">  1       -2 0.99686489E-01 0.63725265E+03</pdfrwt>
<totfact> 0.20129450E+00</totfact>
</mgrwt>
</event>
<event>
 4    1  0.6912310E-008  0.3376114E+03  0.7818608E-02  0.1067818E+00
          2   -1    0    0  501    0  0.00000000000E+00  0.00000000000E+00  0.28549930319E+04  0.28549930319E+04  0.25500000000E-02 0. -1.
         -2   -1    0    0    0  501 -0.00000000000E+00 -0.00000000000E+00 -0.31458321128E+03  0.31458321129E+03  0.25500000000E-02 0.  1.
    8880022    1    1    2    0    0  0.94491890565E+02  0.28576409242E+03 -0.21061030622E+03  0.39791731302E+03  0.15294330000E+03 0.  0.
    8880022    1    1    2    0    0 -0.94491890565E+02 -0.28576409242E+03  0.27510201268E+04  0.27716589301E+04  0.15294330000E+03 0.  0.
<mgrwt>
<rscale>  0 0.33761144E+03</rscale>
<asrwt>0</asrwt>
<pdfrwt beam="1">  1        2 0.43922968E+00 0.33761144E+03</pdfrwt>
<pdfrwt beam="2">  1       -2 0.48397419E-01 0.33761144E+03</pdfrwt>
<totfact> 0.10224468E+01</totfact>
</mgrwt>
</event>
<event>
 4    1  0.6912310E-008  0.5951940E+03  0.7818608E-02  0.9915427E-01
         -2   -1    0    0    0  501 -0.00000000000E+00  0.00000000000E+00  0.10239965927E+04  0.10239965927E+04  0.25500000000E-02 0.  1.
          2   -1    0    0  501    0  0.00000000000E+00 -0.00000000000E+00 -0.14724112831E+04  0.14724112831E+04  0.25500000000E-02 0. -1.
    8880022    1    1    2    0    0 -0.36783012035E+03 -0.44222761922E+03  0.86755548884E+03  0.10520971647E+04  0.15294330000E+03 0.  0.
    8880022    1    1    2    0    0  0.36783012035E+03  0.44222761922E+03 -0.13159701792E+04  0.14443107111E+04  0.15294330000E+03 0.  0.
<mgrwt>
<rscale>  0 0.59519402E+03</rscale>
<asrwt>0</asrwt>
<pdfrwt beam="1">  1        2 0.22652481E+00 0.59519402E+03</pdfrwt>
<pdfrwt beam="2">  1       -2 0.15753794E+00 0.59519402E+03</pdfrwt>
<totfact> 0.36486137E+00</totfact>
</mgrwt>
</event>
<event>
 4    1  0.6912310E-008  0.6656040E+03  0.7818608E-02  0.9777932E-01
          2   -1    0    0  501    0  0.00000000000E+00  0.00000000000E+00  0.10063956207E+04  0.10063956207E+04  0.25500000000E-02 0. -1.
         -2   -1    0    0    0  501 -0.00000000000E+00 -0.00000000000E+00 -0.18355081637E+04  0.18355081637E+04  0.25500000000E-02 0.  1.
    8880022    1    1    2    0    0 -0.20335572752E+03  0.61504752612E+03  0.82433793919E+03  0.10595101237E+04  0.15294330000E+03 0. -1.
    8880022    1    1    2    0    0  0.20335572752E+03 -0.61504752612E+03 -0.16534504823E+04  0.17823936607E+04  0.15294330000E+03 0.  0.
<mgrwt>
<rscale>  0 0.66560398E+03</rscale>
<asrwt>0</asrwt>
<pdfrwt beam="1">  1        2 0.15483010E+00 0.66560398E+03</pdfrwt>
<pdfrwt beam="2">  1       -2 0.28238587E+00 0.66560398E+03</pdfrwt>
<totfact> 0.10767039E+00</totfact>
</mgrwt>
</event>
<event>
 4    1  0.6912310E-008  0.6092012E+03  0.7818608E-02  0.9886498E-01
         -2   -1    0    0    0  501 -0.00000000000E+00  0.00000000000E+00  0.18919220535E+03  0.18919220537E+03  0.25500000000E-02 0.  1.
          2   -1    0    0  501    0  0.00000000000E+00 -0.00000000000E+00 -0.25455029328E+04  0.25455029328E+04  0.25500000000E-02 0. -1.
    8880022    1    1    2    0    0  0.39485508505E+03 -0.43797710097E+03 -0.18330165880E+04  0.19315993229E+04  0.15294330000E+03 0.  0.
    8880022    1    1    2    0    0 -0.39485508505E+03  0.43797710097E+03 -0.52329413938E+03  0.80309581526E+03  0.15294330000E+03 0.  0.
<mgrwt>
<rscale>  0 0.60920122E+03</rscale>
<asrwt>0</asrwt>
<pdfrwt beam="1">  1        2 0.39161581E+00 0.60920122E+03</pdfrwt>
<pdfrwt beam="2">  1       -2 0.29106495E-01 0.60920122E+03</pdfrwt>
<totfact> 0.37887346E+01</totfact>
</mgrwt>
</event>
<event>
 4    1  0.6912310E-008  0.7745621E+03  0.7818608E-02  0.9597585E-01
          2   -1    0    0  501    0  0.00000000000E+00  0.00000000000E+00  0.37168527855E+04  0.37168527855E+04  0.25500000000E-02 0. -1.
         -2   -1    0    0    0  501 -0.00000000000E+00 -0.00000000000E+00 -0.25086755748E+03  0.25086755749E+03  0.25500000000E-02 0.  1.
    8880022    1    1    2    0    0  0.18992582229E+00 -0.75931202543E+03  0.29176459890E+04  0.30187090880E+04  0.15294330000E+03 0.  0.
    8880022    1    1    2    0    0 -0.18992582229E+00  0.75931202543E+03  0.54833923910E+03  0.94901125504E+03  0.15294330000E+03 0.  0.
<mgrwt>
<rscale>  0 0.77456210E+03</rscale>
<asrwt>0</asrwt>
<pdfrwt beam="1">  1        2 0.57182352E+00 0.77456210E+03</pdfrwt>
<pdfrwt beam="2">  1       -2 0.38595008E-01 0.77456210E+03</pdfrwt>
<totfact> 0.39133665E+00</totfact>
</mgrwt>
</event>
<event>
 4    1  0.6912310E-008  0.9392691E+03  0.7818608E-02  0.9377782E-01
          2   -1    0    0  501    0  0.00000000000E+00  0.00000000000E+00  0.16920385693E+04  0.16920385693E+04  0.25500000000E-02 0. -1.
         -2   -1    0    0    0  501 -0.00000000000E+00 -0.00000000000E+00 -0.92844559490E+03  0.92844559491E+03  0.25500000000E-02 0.  1.
    8880022    1    1    2    0    0  0.67075541760E+03 -0.63947010545E+03  0.12493486635E+04  0.15630414524E+04  0.15294330000E+03 0.  0.
    8880022    1    1    2    0    0 -0.67075541760E+03  0.63947010545E+03 -0.48575568916E+03  0.10574427117E+04  0.15294330000E+03 0.  0.
<mgrwt>
<rscale>  0 0.93926913E+03</rscale>
<asrwt>0</asrwt>
<pdfrwt beam="1">  1        2 0.26031362E+00 0.93926913E+03</pdfrwt>
<pdfrwt beam="2">  1       -2 0.14283779E+00 0.93926913E+03</pdfrwt>
<totfact> 0.33839417E+00</totfact>
</mgrwt>
</event>
<event>
 4    1  0.6912310E-008  0.3302156E+03  0.7818608E-02  0.1071042E+00
          2   -1    0    0  501    0  0.00000000000E+00  0.00000000000E+00  0.43795568226E+04  0.43795568226E+04  0.25500000000E-02 0. -1.
         -2   -1    0    0    0  501 -0.00000000000E+00 -0.00000000000E+00 -0.20291926871E+03  0.20291926873E+03  0.25500000000E-02 0.  1.
    8880022    1    1    2    0    0  0.57894131871E+02 -0.28687792089E+03 -0.57754172869E+02  0.33522808578E+03  0.15294330000E+03 0.  0.
    8880022    1    1    2    0    0 -0.57894131871E+02  0.28687792089E+03  0.42343917267E+04  0.42472480055E+04  0.15294330000E+03 0.  0.
<mgrwt>
<rscale>  0 0.33021557E+03</rscale>
<asrwt>0</asrwt>
<pdfrwt beam="1">  1        2 0.67377791E+00 0.33021557E+03</pdfrwt>
<pdfrwt beam="2">  1       -2 0.31218352E-01 0.33021557E+03</pdfrwt>
<totfact> 0.20182135E+00</totfact>
</mgrwt>
</event>
<event>
 4    1  0.6912310E-008  0.8171915E+03  0.7818608E-02  0.9535461E-01
         -2   -1    0    0    0  501 -0.00000000000E+00  0.00000000000E+00  0.39934784851E+03  0.39934784852E+03  0.25500000000E-02 0.  1.
          2   -1    0    0  501    0  0.00000000000E+00 -0.00000000000E+00 -0.20067865755E+04  0.20067865755E+04  0.25500000000E-02 0. -1.
    8880022    1    1    2    0    0 -0.37447700371E+02  0.80187772716E+03 -0.31250235052E+03  0.87490547585E+03  0.15294330000E+03 0.  0.
    8880022    1    1    2    0    0  0.37447700371E+02 -0.80187772716E+03 -0.12949363764E+04  0.15312289481E+04  0.15294330000E+03 0. -1.
<mgrwt>
<rscale>  0 0.81719145E+03</rscale>
<asrwt>0</asrwt>
<pdfrwt beam="1">  1        2 0.30873639E+00 0.81719145E+03</pdfrwt>
<pdfrwt beam="2">  1       -2 0.61438132E-01 0.81719145E+03</pdfrwt>
<totfact> 0.16725158E+01</totfact>
</mgrwt>
</event>
<event>
 4    1  0.6912310E-008  0.6547820E+03  0.7818608E-02  0.9797847E-01
         -2   -1    0    0    0  501 -0.00000000000E+00  0.00000000000E+00  0.83034731555E+03  0.83034731556E+03  0.25500000000E-02 0.  1.
          2   -1    0    0  501    0  0.00000000000E+00 -0.00000000000E+00 -0.80489956845E+03  0.80489956845E+03  0.25500000000E-02 0. -1.
    8880022    1    1    2    0    0 -0.47770048834E+03  0.42089191175E+03  0.50227961725E+03  0.82524191899E+03  0.15294330000E+03 0.  0.
    8880022    1    1    2    0    0  0.47770048834E+03 -0.42089191175E+03 -0.47683187015E+03  0.81000496501E+03  0.15294330000E+03 0.  0.
<mgrwt>
<rscale>  0 0.65478196E+03</rscale>
<asrwt>0</asrwt>
<pdfrwt beam="1">  1        2 0.12383070E+00 0.65478196E+03</pdfrwt>
<pdfrwt beam="2">  1       -2 0.12774574E+00 0.65478196E+03</pdfrwt>
<totfact> 0.15908442E+01</totfact>
</mgrwt>
</event>
<event>
 4    1  0.6912310E-008  0.9467606E+03  0.7818608E-02  0.9368945E-01
          2   -1    0    0  501    0  0.00000000000E+00  0.00000000000E+00  0.95831864847E+03  0.95831864848E+03  0.25500000000E-02 0. -1.
         -2   -1    0    0    0  501 -0.00000000000E+00 -0.00000000000E+00 -0.12125249070E+04  0.12125249070E+04  0.25500000000E-02 0.  1.
    8880022    1    1    2    0    0  0.87046975147E+03  0.33947952179E+03 -0.64606625000E+03  0.11461924735E+04  0.15294330000E+03 0.  0.
    8880022    1    1    2    0    0 -0.87046975147E+03 -0.33947952179E+03  0.39185999143E+03  0.10246510820E+04  0.15294330000E+03 0.  0.
<mgrwt>
<rscale>  0 0.94676058E+03</rscale>
<asrwt>0</asrwt>
<pdfrwt beam="1">  1        2 0.14743364E+00 0.94676058E+03</pdfrwt>
<pdfrwt beam="2">  1       -2 0.18654229E+00 0.94676058E+03</pdfrwt>
<totfact> 0.43729407E+00</totfact>
</mgrwt>
</event>
<event>
 4    1  0.6912310E-008  0.3883385E+03  0.7818608E-02  0.1047894E+00
         -2   -1    0    0    0  501 -0.00000000000E+00  0.00000000000E+00  0.16797601329E+03  0.16797601331E+03  0.25500000000E-02 0.  1.
          2   -1    0    0  501    0  0.00000000000E+00 -0.00000000000E+00 -0.14577252352E+04  0.14577252352E+04  0.25500000000E-02 0. -1.
    8880022    1    1    2    0    0  0.17040599281E+02  0.35654555457E+03 -0.11486567545E+04  0.12125259202E+04  0.15294330000E+03 0.  0.
    8880022    1    1    2    0    0 -0.17040599281E+02 -0.35654555457E+03 -0.14109246734E+03  0.41317532824E+03  0.15294330000E+03 0.  0.
<mgrwt>
<rscale>  0 0.38833847E+03</rscale>
<asrwt>0</asrwt>
<pdfrwt beam="1">  1        2 0.22426541E+00 0.38833847E+03</pdfrwt>
<pdfrwt beam="2">  1       -2 0.25842465E-01 0.38833847E+03</pdfrwt>
<totfact> 0.19061495E+02</totfact>
</mgrwt>
</event>
<event>
 4    1  0.6912310E-008  0.5611714E+03  0.7818608E-02  0.9989408E-01
          2   -1    0    0  501    0  0.00000000000E+00  0.00000000000E+00  0.79143883334E+03  0.79143883335E+03  0.25500000000E-02 0. -1.
         -2   -1    0    0    0  501 -0.00000000000E+00 -0.00000000000E+00 -0.47334423368E+03  0.47334423369E+03  0.25500000000E-02 0.  1.
    8880022    1    1    2    0    0 -0.52824280874E+03  0.11171958182E+03 -0.93423406948E+02  0.56889481974E+03  0.15294330000E+03 0.  0.
    8880022    1    1    2    0    0  0.52824280874E+03 -0.11171958182E+03  0.41151800661E+03  0.69588824730E+03  0.15294330000E+03 0.  0.
<mgrwt>
<rscale>  0 0.56117144E+03</rscale>
<asrwt>0</asrwt>
<pdfrwt beam="1">  1        2 0.12175982E+00 0.56117144E+03</pdfrwt>
<pdfrwt beam="2">  1       -2 0.72822190E-01 0.56117144E+03</pdfrwt>
<totfact> 0.61342358E+01</totfact>
</mgrwt>
</event>
<event>
 4    1  0.6912310E-008  0.1278259E+04  0.7818608E-02  0.9046986E-01
         -2   -1    0    0    0  501 -0.00000000000E+00  0.00000000000E+00  0.73726222642E+03  0.73726222643E+03  0.25500000000E-02 0.  1.
          2   -1    0    0  501    0  0.00000000000E+00 -0.00000000000E+00 -0.27528851221E+04  0.27528851221E+04  0.25500000000E-02 0. -1.
    8880022    1    1    2    0    0 -0.66506770804E+03 -0.10808512133E+04 -0.23732411853E+03  0.13001033774E+04  0.15294330000E+03 0.  0.
    8880022    1    1    2    0    0  0.66506770804E+03  0.10808512133E+04 -0.17782987771E+04  0.21900439711E+04  0.15294330000E+03 0.  0.
<mgrwt>
<rscale>  0 0.12782590E+04</rscale>
<asrwt>0</asrwt>
<pdfrwt beam="1">  1        2 0.42352078E+00 0.12782590E+04</pdfrwt>
<pdfrwt beam="2">  1       -2 0.11342496E+00 0.12782590E+04</pdfrwt>
<totfact> 0.14685338E+00</totfact>
</mgrwt>
</event>
<event>
 4    1  0.6912310E-008  0.4159243E+03  0.7818608E-02  0.1038401E+00
         -2   -1    0    0    0  501 -0.00000000000E+00  0.00000000000E+00  0.27973982981E+03  0.27973982982E+03  0.25500000000E-02 0.  1.
          2   -1    0    0  501    0  0.00000000000E+00 -0.00000000000E+00 -0.78432172523E+03  0.78432172523E+03  0.25500000000E-02 0. -1.
    8880022    1    1    2    0    0  0.38015352017E+03  0.71307150251E+02 -0.49698991394E+03  0.64806792557E+03  0.15294330000E+03 0.  0.
    8880022    1    1    2    0    0 -0.38015352017E+03 -0.71307150251E+02 -0.75919814761E+01  0.41599362949E+03  0.15294330000E+03 0.  0.
<mgrwt>
<rscale>  0 0.41592435E+03</rscale>
<asrwt>0</asrwt>
<pdfrwt beam="1">  1        2 0.12066488E+00 0.41592435E+03</pdfrwt>
<pdfrwt beam="2">  1       -2 0.43036897E-01 0.41592435E+03</pdfrwt>
<totfact> 0.18706594E+02</totfact>
</mgrwt>
</event>
<event>
 4    1  0.6912310E-008  0.4493864E+03  0.7818608E-02  0.1027905E+00
         -2   -1    0    0    0  501 -0.00000000000E+00  0.00000000000E+00  0.24145360510E+03  0.24145360512E+03  0.25500000000E-02 0.  1.
          2   -1    0    0  501    0  0.00000000000E+00 -0.00000000000E+00 -0.28476096550E+04  0.28476096550E+04  0.25500000000E-02 0. -1.
    8880022    1    1    2    0    0  0.41513393670E+03  0.78868836999E+02 -0.26011144776E+04  0.26396485860E+04  0.15294330000E+03 0.  0.
    8880022    1    1    2    0    0 -0.41513393670E+03 -0.78868836999E+02 -0.50415722778E+01  0.44941467412E+03  0.15294330000E+03 0.  0.
<mgrwt>
<rscale>  0 0.44938639E+03</rscale>
<asrwt>0</asrwt>
<pdfrwt beam="1">  1        2 0.43809377E+00 0.44938639E+03</pdfrwt>
<pdfrwt beam="2">  1       -2 0.37146710E-01 0.44938639E+03</pdfrwt>
<totfact> 0.16656745E+01</totfact>
</mgrwt>
</event>
<event>
 4    1  0.6912310E-008  0.3075545E+03  0.7818608E-02  0.1081524E+00
          2   -1    0    0  501    0  0.00000000000E+00  0.00000000000E+00  0.19017336403E+04  0.19017336403E+04  0.25500000000E-02 0. -1.
         -2   -1    0    0    0  501 -0.00000000000E+00 -0.00000000000E+00 -0.12994987296E+03  0.12994987298E+03  0.25500000000E-02 0.  1.
    8880022    1    1    2    0    0 -0.16799132230E+03  0.20730909578E+03  0.87795195895E+02  0.31984026481E+03  0.15294330000E+03 0.  0.
    8880022    1    1    2    0    0  0.16799132230E+03 -0.20730909578E+03  0.16839885714E+04  0.17118432484E+04  0.15294330000E+03 0.  0.
<mgrwt>
<rscale>  0 0.30755455E+03</rscale>
<asrwt>0</asrwt>
<pdfrwt beam="1">  1        2 0.29257440E+00 0.30755455E+03</pdfrwt>
<pdfrwt beam="2">  1       -2 0.19992289E-01 0.30755455E+03</pdfrwt>
<totfact> 0.17573484E+02</totfact>
</mgrwt>
</event>
<event>
 4    1  0.6912310E-008  0.9283498E+03  0.7818608E-02  0.9390821E-01
         -2   -1    0    0    0  501 -0.00000000000E+00  0.00000000000E+00  0.30313494149E+03  0.30313494150E+03  0.25500000000E-02 0.  1.
          2   -1    0    0  501    0  0.00000000000E+00 -0.00000000000E+00 -0.41130692087E+04  0.41130692087E+04  0.25500000000E-02 0. -1.
    8880022    1    1    2    0    0  0.32667797223E+03  0.85540821932E+03 -0.31319489779E+04  0.32666401351E+04  0.15294330000E+03 0.  0.
    8880022    1    1    2    0    0 -0.32667797223E+03 -0.85540821932E+03 -0.67798528930E+03  0.11495640151E+04  0.15294330000E+03 0.  0.
<mgrwt>
<rscale>  0 0.92834981E+03</rscale>
<asrwt>0</asrwt>
<pdfrwt beam="1">  1        2 0.63277984E+00 0.92834981E+03</pdfrwt>
<pdfrwt beam="2">  1       -2 0.46636148E-01 0.92834981E+03</pdfrwt>
<totfact> 0.12916553E+00</totfact>
</mgrwt>
</event>
<event>
 4    1  0.6912310E-008  0.1055963E+04  0.7818608E-02  0.9249209E-01
          2   -1    0    0  501    0  0.00000000000E+00  0.00000000000E+00  0.11117176276E+04  0.11117176276E+04  0.25500000000E-02 0. -1.
         -2   -1    0    0    0  501 -0.00000000000E+00 -0.00000000000E+00 -0.11299974783E+04  0.11299974783E+04  0.25500000000E-02 0.  1.
    8880022    1    1    2    0    0  0.27031483055E+03 -0.10092553046E+04 -0.38489180311E+03  0.11239215856E+04  0.15294330000E+03 0.  0.
    8880022    1    1    2    0    0 -0.27031483055E+03  0.10092553046E+04  0.36661195243E+03  0.11177935203E+04  0.15294330000E+03 0.  0.
<mgrwt>
<rscale>  0 0.10559631E+04</rscale>
<asrwt>0</asrwt>
<pdfrwt beam="1">  1        2 0.17103348E+00 0.10559631E+04</pdfrwt>
<pdfrwt beam="2">  1       -2 0.17384577E+00 0.10559631E+04</pdfrwt>
<totfact> 0.42269155E+00</totfact>
</mgrwt>
</event>
<event>
 4    1  0.6912310E-008  0.4812534E+03  0.7818608E-02  0.1018791E+00
          2   -1    0    0  501    0  0.00000000000E+00  0.00000000000E+00  0.23999342072E+04  0.23999342072E+04  0.25500000000E-02 0. -1.
         -2   -1    0    0    0  501 -0.00000000000E+00 -0.00000000000E+00 -0.35385125703E+03  0.35385125704E+03  0.25500000000E-02 0.  1.
    8880022    1    1    2    0    0  0.30196527110E+03 -0.34209665073E+03 -0.15117714945E+03  0.50443961672E+03  0.15294330000E+03 0.  0.
    8880022    1    1    2    0    0 -0.30196527110E+03  0.34209665073E+03  0.21972600996E+04  0.22493458475E+04  0.15294330000E+03 0.  0.
<mgrwt>
<rscale>  0 0.48125336E+03</rscale>
<asrwt>0</asrwt>
<pdfrwt beam="1">  1        2 0.36922065E+00 0.48125336E+03</pdfrwt>
<pdfrwt beam="2">  1       -2 0.54438655E-01 0.48125336E+03</pdfrwt>
<totfact> 0.13916359E+01</totfact>
</mgrwt>
</event>
<event>
 4    1  0.6912310E-008  0.8943796E+03  0.7818608E-02  0.9432635E-01
         -2   -1    0    0    0  501 -0.00000000000E+00  0.00000000000E+00  0.69125486202E+03  0.69125486202E+03  0.25500000000E-02 0.  1.
          2   -1    0    0  501    0  0.00000000000E+00 -0.00000000000E+00 -0.37351351580E+04  0.37351351580E+04  0.25500000000E-02 0. -1.
    8880022    1    1    2    0    0 -0.35940599381E+03 -0.80458094350E+03  0.31672719854E+03  0.94880500333E+03  0.15294330000E+03 0.  0.
    8880022    1    1    2    0    0  0.35940599381E+03  0.80458094350E+03 -0.33606074946E+04  0.34775850167E+04  0.15294330000E+03 0.  0.
<mgrwt>
<rscale>  0 0.89437957E+03</rscale>
<asrwt>0</asrwt>
<pdfrwt beam="1">  1        2 0.57463617E+00 0.89437957E+03</pdfrwt>
<pdfrwt beam="2">  1       -2 0.10634690E+00 0.89437957E+03</pdfrwt>
<totfact> 0.41664263E-01</totfact>
</mgrwt>
</event>
<event>
 4    1  0.6912310E-008  0.3503530E+03  0.7818608E-02  0.1062470E+00
         -2   -1    0    0    0  501 -0.00000000000E+00  0.00000000000E+00  0.19173076964E+03  0.19173076966E+03  0.25500000000E-02 0.  1.
          2   -1    0    0  501    0  0.00000000000E+00 -0.00000000000E+00 -0.12427361437E+04  0.12427361437E+04  0.25500000000E-02 0. -1.
    8880022    1    1    2    0    0  0.11411177362E+03  0.29382664581E+03 -0.26089099003E+02  0.35132305471E+03  0.15294330000E+03 0.  0.
    8880022    1    1    2    0    0 -0.11411177362E+03 -0.29382664581E+03 -0.10249162751E+04  0.10831438587E+04  0.15294330000E+03 0.  0.
<mgrwt>
<rscale>  0 0.35035303E+03</rscale>
<asrwt>0</asrwt>
<pdfrwt beam="1">  1        2 0.19119017E+00 0.35035303E+03</pdfrwt>
<pdfrwt beam="2">  1       -2 0.29497042E-01 0.35035303E+03</pdfrwt>
<totfact> 0.19872043E+02</totfact>
</mgrwt>
</event>
<event>
 4    1  0.6912310E-008  0.5216847E+03  0.7818608E-02  0.1008269E+00
         -2   -1    0    0    0  501 -0.00000000000E+00  0.00000000000E+00  0.21035318637E+03  0.21035318639E+03  0.25500000000E-02 0.  1.
          2   -1    0    0  501    0  0.00000000000E+00 -0.00000000000E+00 -0.42259310466E+04  0.42259310466E+04  0.25500000000E-02 0. -1.
    8880022    1    1    2    0    0 -0.23523322621E+03  0.43980517289E+03 -0.38554396118E+04  0.38905744453E+04  0.15294330000E+03 0.  0.
    8880022    1    1    2    0    0  0.23523322621E+03 -0.43980517289E+03 -0.16013824843E+03  0.54570978774E+03  0.15294330000E+03 0.  0.
<mgrwt>
<rscale>  0 0.52168469E+03</rscale>
<asrwt>0</asrwt>
<pdfrwt beam="1">  1        2 0.65014317E+00 0.52168469E+03</pdfrwt>
<pdfrwt beam="2">  1       -2 0.32362032E-01 0.52168469E+03</pdfrwt>
<totfact> 0.23485558E+00</totfact>
</mgrwt>
</event>
<event>
 4    1  0.6912310E-008  0.3736911E+03  0.7818608E-02  0.1053291E+00
          2   -1    0    0  501    0  0.00000000000E+00  0.00000000000E+00  0.16799561723E+04  0.16799561723E+04  0.25500000000E-02 0. -1.
         -2   -1    0    0    0  501 -0.00000000000E+00 -0.00000000000E+00 -0.22614241767E+03  0.22614241768E+03  0.25500000000E-02 0.  1.
    8880022    1    1    2    0    0 -0.19285130403E+03 -0.28117918171E+03 -0.31007301295E+02  0.37497528377E+03  0.15294330000E+03 0.  0.
    8880022    1    1    2    0    0  0.19285130403E+03  0.28117918171E+03  0.14848210559E+04  0.15311233062E+04  0.15294330000E+03 0.  0.
<mgrwt>
<rscale>  0 0.37369106E+03</rscale>
<asrwt>0</asrwt>
<pdfrwt beam="1">  1        2 0.25845480E+00 0.37369106E+03</pdfrwt>
<pdfrwt beam="2">  1       -2 0.34791140E-01 0.37369106E+03</pdfrwt>
<totfact> 0.83999524E+01</totfact>
</mgrwt>
</event>
<event>
 4    1  0.6912310E-008  0.4618412E+03  0.7818608E-02  0.1024249E+00
         -2   -1    0    0    0  501 -0.00000000000E+00  0.00000000000E+00  0.67402694615E+03  0.67402694615E+03  0.25500000000E-02 0.  1.
          2   -1    0    0  501    0  0.00000000000E+00 -0.00000000000E+00 -0.96501607238E+03  0.96501607239E+03  0.25500000000E-02 0. -1.
    8880022    1    1    2    0    0 -0.34089238330E+03 -0.27147388446E+03 -0.81734011313E+03  0.93879827465E+03  0.15294330000E+03 0.  0.
    8880022    1    1    2    0    0  0.34089238330E+03  0.27147388446E+03  0.52635098690E+03  0.70024474390E+03  0.15294330000E+03 0.  0.
<mgrwt>
<rscale>  0 0.46184125E+03</rscale>
<asrwt>0</asrwt>
<pdfrwt beam="1">  1        2 0.14846401E+00 0.46184125E+03</pdfrwt>
<pdfrwt beam="2">  1       -2 0.10369645E+00 0.46184125E+03</pdfrwt>
<totfact> 0.21208895E+01</totfact>
</mgrwt>
</event>
<event>
 4    1  0.6912310E-008  0.7141481E+03  0.7818608E-02  0.9693338E-01
          2   -1    0    0  501    0  0.00000000000E+00  0.00000000000E+00  0.70304154284E+03  0.70304154285E+03  0.25500000000E-02 0. -1.
         -2   -1    0    0    0  501 -0.00000000000E+00 -0.00000000000E+00 -0.79180116154E+03  0.79180116155E+03  0.25500000000E-02 0.  1.
    8880022    1    1    2    0    0 -0.50841880861E+03  0.47762550223E+03  0.17201507708E+03  0.73457242331E+03  0.15294330000E+03 0.  0.
    8880022    1    1    2    0    0  0.50841880861E+03 -0.47762550223E+03 -0.26077469578E+03  0.76027028109E+03  0.15294330000E+03 0.  0.
<mgrwt>
<rscale>  0 0.71414806E+03</rscale>
<asrwt>0</asrwt>
<pdfrwt beam="1">  1        2 0.10816024E+00 0.71414806E+03</pdfrwt>
<pdfrwt beam="2">  1       -2 0.12181556E+00 0.71414806E+03</pdfrwt>
<totfact> 0.21202756E+01</totfact>
</mgrwt>
</event>
<event>
 4    1  0.6912310E-008  0.9117395E+03  0.7818608E-02  0.9411024E-01
         -2   -1    0    0    0  501 -0.00000000000E+00  0.00000000000E+00  0.36364947057E+03  0.36364947057E+03  0.25500000000E-02 0.  1.
          2   -1    0    0  501    0  0.00000000000E+00 -0.00000000000E+00 -0.25451270781E+04  0.25451270781E+04  0.25500000000E-02 0. -1.
    8880022    1    1    2    0    0  0.71034281974E+03  0.55071801680E+03 -0.62658719602E+03  0.11062912920E+04  0.15294330000E+03 0.  0.
    8880022    1    1    2    0    0 -0.71034281974E+03 -0.55071801680E+03 -0.15548904115E+04  0.18024852566E+04  0.15294330000E+03 0.  0.
<mgrwt>
<rscale>  0 0.91173950E+03</rscale>
<asrwt>0</asrwt>
<pdfrwt beam="1">  1        2 0.39155800E+00 0.91173950E+03</pdfrwt>
<pdfrwt beam="2">  1       -2 0.55946074E-01 0.91173950E+03</pdfrwt>
<totfact> 0.10072642E+01</totfact>
</mgrwt>
</event>
<event>
 4    1  0.6912310E-008  0.4439459E+03  0.7818608E-02  0.1029543E+00
         -2   -1    0    0    0  501 -0.00000000000E+00  0.00000000000E+00  0.29122750605E+03  0.29122750606E+03  0.25500000000E-02 0.  1.
          2   -1    0    0  501    0  0.00000000000E+00 -0.00000000000E+00 -0.13433079948E+04  0.13433079948E+04  0.25500000000E-02 0. -1.
    8880022    1    1    2    0    0 -0.33529808740E+03  0.24753078099E+03  0.49659228018E+02  0.44671465937E+03  0.15294330000E+03 0.  0.
    8880022    1    1    2    0    0  0.33529808740E+03 -0.24753078099E+03 -0.11017397167E+04  0.11878208415E+04  0.15294330000E+03 0.  0.
<mgrwt>
<rscale>  0 0.44394588E+03</rscale>
<asrwt>0</asrwt>
<pdfrwt beam="1">  1        2 0.20666276E+00 0.44394588E+03</pdfrwt>
<pdfrwt beam="2">  1       -2 0.44804233E-01 0.44394588E+03</pdfrwt>
<totfact> 0.77762466E+01</totfact>
</mgrwt>
</event>
<event>
 4    1  0.6912310E-008  0.2972964E+03  0.7818608E-02  0.1086600E+00
         -2   -1    0    0    0  501 -0.00000000000E+00  0.00000000000E+00  0.76893536043E+03  0.76893536043E+03  0.25500000000E-02 0.  1.
          2   -1    0    0  501    0  0.00000000000E+00 -0.00000000000E+00 -0.14208446111E+04  0.14208446111E+04  0.25500000000E-02 0. -1.
    8880022    1    1    2    0    0  0.86220932593E+02 -0.23991554386E+03  0.72371374366E+03  0.78239807846E+03  0.15294330000E+03 0.  0.
    8880022    1    1    2    0    0 -0.86220932593E+02  0.23991554386E+03 -0.13756229944E+04  0.14073818931E+04  0.15294330000E+03 0.  0.
<mgrwt>
<rscale>  0 0.29729644E+03</rscale>
<asrwt>0</asrwt>
<pdfrwt beam="1">  1        2 0.21859148E+00 0.29729644E+03</pdfrwt>
<pdfrwt beam="2">  1       -2 0.11829775E+00 0.29729644E+03</pdfrwt>
<totfact> 0.87394428E+00</totfact>
</mgrwt>
</event>
<event>
 4    1  0.6912310E-008  0.1072048E+04  0.7818608E-02  0.9232872E-01
          2   -1    0    0  501    0  0.00000000000E+00  0.00000000000E+00  0.19105787930E+04  0.19105787930E+04  0.25500000000E-02 0. -1.
         -2   -1    0    0    0  501 -0.00000000000E+00 -0.00000000000E+00 -0.81644985597E+03  0.81644985598E+03  0.25500000000E-02 0.  1.
    8880022    1    1    2    0    0 -0.10016020369E+04 -0.35027005075E+03  0.12466233233E+04  0.16441888918E+04  0.15294330000E+03 0.  0.
    8880022    1    1    2    0    0  0.10016020369E+04  0.35027005075E+03 -0.15249438633E+03  0.10828397571E+04  0.15294330000E+03 0.  0.
<mgrwt>
<rscale>  0 0.10720482E+04</rscale>
<asrwt>0</asrwt>
<pdfrwt beam="1">  1        2 0.29393520E+00 0.10720482E+04</pdfrwt>
<pdfrwt beam="2">  1       -2 0.12560767E+00 0.10720482E+04</pdfrwt>
<totfact> 0.35091985E+00</totfact>
</mgrwt>
</event>
<event>
 4    1  0.6912310E-008  0.4470398E+03  0.7818608E-02  0.1028608E+00
          2   -1    0    0  501    0  0.00000000000E+00  0.00000000000E+00  0.25040743408E+04  0.25040743408E+04  0.25500000000E-02 0. -1.
         -2   -1    0    0    0  501 -0.00000000000E+00 -0.00000000000E+00 -0.29759557112E+03  0.29759557113E+03  0.25500000000E-02 0.  1.
    8880022    1    1    2    0    0  0.30913638522E+03  0.28440747598E+03 -0.95129491738E+02  0.45704943963E+03  0.15294330000E+03 0.  0.
    8880022    1    1    2    0    0 -0.30913638522E+03 -0.28440747598E+03  0.23016082614E+04  0.23446204723E+04  0.15294330000E+03 0.  0.
<mgrwt>
<rscale>  0 0.44703979E+03</rscale>
<asrwt>0</asrwt>
<pdfrwt beam="1">  1        2 0.38524220E+00 0.44703979E+03</pdfrwt>
<pdfrwt beam="2">  1       -2 0.45783935E-01 0.44703979E+03</pdfrwt>
<totfact> 0.17437757E+01</totfact>
</mgrwt>
</event>
<event>
 4    1  0.6912310E-008  0.6621688E+03  0.7818608E-02  0.9784209E-01
         -2   -1    0    0    0  501 -0.00000000000E+00  0.00000000000E+00  0.67635525454E+03  0.67635525454E+03  0.25500000000E-02 0.  1.
          2   -1    0    0  501    0  0.00000000000E+00 -0.00000000000E+00 -0.13747205823E+04  0.13747205823E+04  0.25500000000E-02 0. -1.
    8880022    1    1    2    0    0 -0.35925740515E+03  0.53479903841E+03  0.39631205353E+03  0.77170641531E+03  0.15294330000E+03 0.  0.
    8880022    1    1    2    0    0  0.35925740515E+03 -0.53479903841E+03 -0.10946773813E+04  0.12793694216E+04  0.15294330000E+03 0.  0.
<mgrwt>
<rscale>  0 0.66216882E+03</rscale>
<asrwt>0</asrwt>
<pdfrwt beam="1">  1        2 0.21149547E+00 0.66216882E+03</pdfrwt>
<pdfrwt beam="2">  1       -2 0.10405465E+00 0.66216882E+03</pdfrwt>
<totfact> 0.11630982E+01</totfact>
</mgrwt>
</event>
<event>
 4    1  0.6912310E-008  0.7548156E+03  0.7818608E-02  0.9627826E-01
          2   -1    0    0  501    0  0.00000000000E+00  0.00000000000E+00  0.42109734632E+03  0.42109734633E+03  0.25500000000E-02 0. -1.
         -2   -1    0    0    0  501 -0.00000000000E+00 -0.00000000000E+00 -0.47483301056E+04  0.47483301056E+04  0.25500000000E-02 0.  1.
    8880022    1    1    2    0    0 -0.70534073822E+03  0.22101897391E+03  0.22044166602E+02  0.75513743260E+03  0.15294330000E+03 0.  0.
    8880022    1    1    2    0    0  0.70534073822E+03 -0.22101897391E+03 -0.43492769259E+04  0.44142900194E+04  0.15294330000E+03 0.  0.
<mgrwt>
<rscale>  0 0.75481560E+03</rscale>
<asrwt>0</asrwt>
<pdfrwt beam="1">  1        2 0.64784210E-01 0.75481560E+03</pdfrwt>
<pdfrwt beam="2">  1       -2 0.73051229E+00 0.75481560E+03</pdfrwt>
<totfact> 0.14155222E-02</totfact>
</mgrwt>
</event>
<event>
 4    1  0.6912310E-008  0.1962497E+03  0.7818608E-02  0.1152942E+00
          2   -1    0    0  501    0  0.00000000000E+00  0.00000000000E+00  0.77371727993E+03  0.77371727993E+03  0.25500000000E-02 0. -1.
         -2   -1    0    0    0  501 -0.00000000000E+00 -0.00000000000E+00 -0.20728106914E+03  0.20728106916E+03  0.25500000000E-02 0.  1.
    8880022    1    1    2    0    0 -0.11942582273E+03  0.29321622185E+02 -0.14434798862E+03  0.24361912793E+03  0.15294330000E+03 0.  0.
    8880022    1    1    2    0    0  0.11942582273E+03 -0.29321622185E+02  0.71078419940E+03  0.73737922116E+03  0.15294330000E+03 0. -1.
<mgrwt>
<rscale>  0 0.19624968E+03</rscale>
<asrwt>0</asrwt>
<pdfrwt beam="1">  1        2 0.11903343E+00 0.19624968E+03</pdfrwt>
<pdfrwt beam="2">  1       -2 0.31889395E-01 0.19624968E+03</pdfrwt>
<totfact> 0.34345415E+02</totfact>
</mgrwt>
</event>
<event>
 4    1  0.6912310E-008  0.4230288E+03  0.7818608E-02  0.1036085E+00
          2   -1    0    0  501    0  0.00000000000E+00  0.00000000000E+00  0.45454979052E+03  0.45454979053E+03  0.25500000000E-02 0. -1.
         -2   -1    0    0    0  501 -0.00000000000E+00 -0.00000000000E+00 -0.13047088826E+04  0.13047088826E+04  0.25500000000E-02 0.  1.
    8880022    1    1    2    0    0  0.58080719899E+02 -0.39011326016E+03 -0.11601106347E+04  0.12348319981E+04  0.15294330000E+03 0.  1.
    8880022    1    1    2    0    0 -0.58080719899E+02  0.39011326016E+03  0.30995154258E+03  0.52442667508E+03  0.15294330000E+03 0.  0.
<mgrwt>
<rscale>  0 0.42302882E+03</rscale>
<asrwt>0</asrwt>
<pdfrwt beam="1">  1        2 0.69930737E-01 0.42302882E+03</pdfrwt>
<pdfrwt beam="2">  1       -2 0.20072444E+00 0.42302882E+03</pdfrwt>
<totfact> 0.96513154E+00</totfact>
</mgrwt>
</event>
<event>
 4    1  0.6912310E-008  0.7379949E+03  0.7818608E-02  0.9654375E-01
         -2   -1    0    0    0  501 -0.00000000000E+00  0.00000000000E+00  0.38500711566E+03  0.38500711567E+03  0.25500000000E-02 0.  1.
          2   -1    0    0  501    0  0.00000000000E+00 -0.00000000000E+00 -0.17634416183E+04  0.17634416183E+04  0.25500000000E-02 0. -1.
    8880022    1    1    2    0    0 -0.22802218124E+03  0.68501873663E+03 -0.21144610612E+03  0.76768866963E+03  0.15294330000E+03 0.  0.
    8880022    1    1    2    0    0  0.22802218124E+03 -0.68501873663E+03 -0.11669883965E+04  0.13807600644E+04  0.15294330000E+03 0.  0.
<mgrwt>
<rscale>  0 0.73799488E+03</rscale>
<asrwt>0</asrwt>
<pdfrwt beam="1">  1        2 0.27129871E+00 0.73799488E+03</pdfrwt>
<pdfrwt beam="2">  1       -2 0.59231865E-01 0.73799488E+03</pdfrwt>
<totfact> 0.24788386E+01</totfact>
</mgrwt>
</event>
<event>
 4    1  0.6912310E-008  0.4360705E+03  0.7818608E-02  0.1031959E+00
          2   -1    0    0  501    0  0.00000000000E+00  0.00000000000E+00  0.17394982356E+04  0.17394982356E+04  0.25500000000E-02 0. -1.
         -2   -1    0    0    0  501 -0.00000000000E+00 -0.00000000000E+00 -0.47131240198E+03  0.47131240199E+03  0.25500000000E-02 0.  1.
    8880022    1    1    2    0    0 -0.27304975136E+03 -0.30366042387E+03  0.16028577974E+04  0.16611172720E+04  0.15294330000E+03 0.  0.
    8880022    1    1    2    0    0  0.27304975136E+03  0.30366042387E+03 -0.33467196380E+03  0.54969336553E+03  0.15294330000E+03 0.  0.
<mgrwt>
<rscale>  0 0.43607049E+03</rscale>
<asrwt>0</asrwt>
<pdfrwt beam="1">  1        2 0.26761511E+00 0.43607049E+03</pdfrwt>
<pdfrwt beam="2">  1       -2 0.72509601E-01 0.43607049E+03</pdfrwt>
<totfact> 0.17438213E+01</totfact>
</mgrwt>
</event>
<event>
 4    1  0.6912310E-008  0.5171949E+03  0.7818608E-02  0.1009386E+00
          2   -1    0    0  501    0  0.00000000000E+00  0.00000000000E+00  0.14687254750E+04  0.14687254750E+04  0.25500000000E-02 0. -1.
         -2   -1    0    0    0  501 -0.00000000000E+00 -0.00000000000E+00 -0.42559133564E+03  0.42559133565E+03  0.25500000000E-02 0.  1.
    8880022    1    1    2    0    0 -0.44155199257E+03 -0.22165457307E+03  0.12379518216E+04  0.13416464801E+04  0.15294330000E+03 0.  0.
    8880022    1    1    2    0    0  0.44155199257E+03  0.22165457307E+03 -0.19481768228E+03  0.55267033053E+03  0.15294330000E+03 0.  0.
<mgrwt>
<rscale>  0 0.51719490E+03</rscale>
<asrwt>0</asrwt>
<pdfrwt beam="1">  1        2 0.22595776E+00 0.51719490E+03</pdfrwt>
<pdfrwt beam="2">  1       -2 0.65475590E-01 0.51719490E+03</pdfrwt>
<totfact> 0.30008199E+01</totfact>
</mgrwt>
</event>
<event>
 4    1  0.6912310E-008  0.2728415E+03  0.7818608E-02  0.1099664E+00
          2   -1    0    0  501    0  0.00000000000E+00  0.00000000000E+00  0.10679473581E+04  0.10679473581E+04  0.25500000000E-02 0. -1.
         -2   -1    0    0    0  501 -0.00000000000E+00 -0.00000000000E+00 -0.21790804858E+03  0.21790804859E+03  0.25500000000E-02 0.  1.
    8880022    1    1    2    0    0  0.15082182391E+03 -0.16823677944E+03 -0.10519582166E+03  0.29241862190E+03  0.15294330000E+03 0.  0.
    8880022    1    1    2    0    0 -0.15082182391E+03  0.16823677944E+03  0.95523513119E+03  0.99343678480E+03  0.15294330000E+03 0. -1.
<mgrwt>
<rscale>  0 0.27284151E+03</rscale>
<asrwt>0</asrwt>
<pdfrwt beam="1">  1        2 0.16429959E+00 0.27284151E+03</pdfrwt>
<pdfrwt beam="2">  1       -2 0.33524316E-01 0.27284151E+03</pdfrwt>
<totfact> 0.20070446E+02</totfact>
</mgrwt>
</event>
<event>
 4    1  0.6912310E-008  0.7029852E+03  0.7818608E-02  0.9712141E-01
         -2   -1    0    0    0  501 -0.00000000000E+00  0.00000000000E+00  0.25746458020E+03  0.25746458021E+03  0.25500000000E-02 0.  1.
          2   -1    0    0  501    0  0.00000000000E+00 -0.00000000000E+00 -0.23399905207E+04  0.23399905207E+04  0.25500000000E-02 0. -1.
    8880022    1    1    2    0    0  0.65811862517E+03  0.19410403000E+03 -0.15918416794E+04  0.17401574884E+04  0.15294330000E+03 0.  0.
    8880022    1    1    2    0    0 -0.65811862517E+03 -0.19410403000E+03 -0.49068426113E+03  0.85729761250E+03  0.15294330000E+03 0.  0.
<mgrwt>
<rscale>  0 0.70298517E+03</rscale>
<asrwt>0</asrwt>
<pdfrwt beam="1">  1        2 0.35999853E+00 0.70298517E+03</pdfrwt>
<pdfrwt beam="2">  1       -2 0.39609937E-01 0.70298517E+03</pdfrwt>
<totfact> 0.27170738E+01</totfact>
</mgrwt>
</event>
<event>
 4    1  0.6912310E-008  0.4318094E+03  0.7818608E-02  0.1033290E+00
         -2   -1    0    0    0  501 -0.00000000000E+00  0.00000000000E+00  0.83646944037E+03  0.83646944037E+03  0.25500000000E-02 0.  1.
          2   -1    0    0  501    0  0.00000000000E+00 -0.00000000000E+00 -0.21283252263E+04  0.21283252263E+04  0.25500000000E-02 0. -1.
    8880022    1    1    2    0    0  0.37981195909E+03 -0.13715161810E+03  0.75669260059E+03  0.87123075899E+03  0.15294330000E+03 0.  0.
    8880022    1    1    2    0    0 -0.37981195909E+03  0.13715161810E+03 -0.20485483865E+04  0.20935639077E+04  0.15294330000E+03 0.  0.
<mgrwt>
<rscale>  0 0.43180938E+03</rscale>
<asrwt>0</asrwt>
<pdfrwt beam="1">  1        2 0.32743465E+00 0.43180938E+03</pdfrwt>
<pdfrwt beam="2">  1       -2 0.12868761E+00 0.43180938E+03</pdfrwt>
<totfact> 0.28354284E+00</totfact>
</mgrwt>
</event>
<event>
 4    1  0.6912310E-008  0.5337860E+03  0.7818608E-02  0.1005318E+00
         -2   -1    0    0    0  501 -0.00000000000E+00  0.00000000000E+00  0.70823291094E+03  0.70823291095E+03  0.25500000000E-02 0.  1.
          2   -1    0    0  501    0  0.00000000000E+00 -0.00000000000E+00 -0.14333760568E+04  0.14333760568E+04  0.25500000000E-02 0. -1.
    8880022    1    1    2    0    0  0.12200998801E+03 -0.49663804808E+03 -0.12707556244E+04  0.13783132075E+04  0.15294330000E+03 0.  0.
    8880022    1    1    2    0    0 -0.12200998801E+03  0.49663804808E+03  0.54561247851E+03  0.76329576030E+03  0.15294330000E+03 0.  0.
<mgrwt>
<rscale>  0 0.53378595E+03</rscale>
<asrwt>0</asrwt>
<pdfrwt beam="1">  1        2 0.22051939E+00 0.53378595E+03</pdfrwt>
<pdfrwt beam="2">  1       -2 0.10895891E+00 0.53378595E+03</pdfrwt>
<totfact> 0.98653668E+00</totfact>
</mgrwt>
</event>
<event>
 4    1  0.6912310E-008  0.8493163E+03  0.7818608E-02  0.9491255E-01
          2   -1    0    0  501    0  0.00000000000E+00  0.00000000000E+00  0.60075634073E+03  0.60075634073E+03  0.25500000000E-02 0. -1.
         -2   -1    0    0    0  501 -0.00000000000E+00 -0.00000000000E+00 -0.18955135140E+04  0.18955135140E+04  0.25500000000E-02 0.  1.
    8880022    1    1    2    0    0  0.83062539160E+03  0.89487457335E+02  0.10828237816E+03  0.85619114257E+03  0.15294330000E+03 0.  0.
    8880022    1    1    2    0    0 -0.83062539160E+03 -0.89487457335E+02 -0.14030395514E+04  0.16400787121E+04  0.15294330000E+03 0.  0.
<mgrwt>
<rscale>  0 0.84931631E+03</rscale>
<asrwt>0</asrwt>
<pdfrwt beam="1">  1        2 0.92424053E-01 0.84931631E+03</pdfrwt>
<pdfrwt beam="2">  1       -2 0.29161746E+00 0.84931631E+03</pdfrwt>
<totfact> 0.18147893E+00</totfact>
</mgrwt>
</event>
<event>
 4    1  0.6912310E-008  0.2178358E+03  0.7818608E-02  0.1135507E+00
          2   -1    0    0  501    0  0.00000000000E+00  0.00000000000E+00  0.78582619206E+03  0.78582619207E+03  0.25500000000E-02 0. -1.
         -2   -1    0    0    0  501 -0.00000000000E+00 -0.00000000000E+00 -0.20839718465E+03  0.20839718466E+03  0.25500000000E-02 0.  1.
    8880022    1    1    2    0    0  0.90940167129E+02  0.12566092250E+03  0.70765870935E+03  0.74042777053E+03  0.15294330000E+03 0.  0.
    8880022    1    1    2    0    0 -0.90940167129E+02 -0.12566092250E+03 -0.13022970194E+03  0.25379560619E+03  0.15294330000E+03 0.  1.
<mgrwt>
<rscale>  0 0.21783580E+03</rscale>
<asrwt>0</asrwt>
<pdfrwt beam="1">  1        2 0.12089633E+00 0.21783580E+03</pdfrwt>
<pdfrwt beam="2">  1       -2 0.32061106E-01 0.21783580E+03</pdfrwt>
<totfact> 0.33272475E+02</totfact>
</mgrwt>
</event>
<event>
 4    1  0.6912310E-008  0.8699485E+03  0.7818608E-02  0.9463947E-01
         -2   -1    0    0    0  501 -0.00000000000E+00  0.00000000000E+00  0.46690436585E+03  0.46690436586E+03  0.25500000000E-02 0.  1.
          2   -1    0    0  501    0  0.00000000000E+00 -0.00000000000E+00 -0.21498504834E+04  0.21498504834E+04  0.25500000000E-02 0. -1.
    8880022    1    1    2    0    0  0.11893686963E+02 -0.85631606197E+03 -0.14904540930E+04  0.17257646751E+04  0.15294330000E+03 0.  0.
    8880022    1    1    2    0    0 -0.11893686963E+02  0.85631606197E+03 -0.19249202457E+03  0.89099017409E+03  0.15294330000E+03 0.  0.
<mgrwt>
<rscale>  0 0.86994845E+03</rscale>
<asrwt>0</asrwt>
<pdfrwt beam="1">  1        2 0.33074622E+00 0.86994845E+03</pdfrwt>
<pdfrwt beam="2">  1       -2 0.71831442E-01 0.86994845E+03</pdfrwt>
<totfact> 0.98843190E+00</totfact>
</mgrwt>
</event>
<event>
 4    1  0.6912310E-008  0.3170329E+03  0.7818608E-02  0.1077023E+00
          2   -1    0    0  501    0  0.00000000000E+00  0.00000000000E+00  0.58998466594E+03  0.58998466594E+03  0.25500000000E-02 0. -1.
         -2   -1    0    0    0  501 -0.00000000000E+00 -0.00000000000E+00 -0.26851550385E+03  0.26851550386E+03  0.25500000000E-02 0.  1.
    8880022    1    1    2    0    0  0.26380775768E+03  0.86739145935E+02 -0.98792536472E+02  0.33206901500E+03  0.15294330000E+03 0.  0.
    8880022    1    1    2    0    0 -0.26380775768E+03 -0.86739145935E+02  0.42026169856E+03  0.52643115480E+03  0.15294330000E+03 0.  0.
<mgrwt>
<rscale>  0 0.31703291E+03</rscale>
<asrwt>0</asrwt>
<pdfrwt beam="1">  1        2 0.90766871E-01 0.31703291E+03</pdfrwt>
<pdfrwt beam="2">  1       -2 0.41310078E-01 0.31703291E+03</pdfrwt>
<totfact> 0.28943084E+02</totfact>
</mgrwt>
</event>
<event>
 4    1  0.6912310E-008  0.1153257E+04  0.7818608E-02  0.9154784E-01
          2   -1    0    0  501    0  0.00000000000E+00  0.00000000000E+00  0.20106436483E+04  0.20106436483E+04  0.25500000000E-02 0. -1.
         -2   -1    0    0    0  501 -0.00000000000E+00 -0.00000000000E+00 -0.11768055185E+04  0.11768055185E+04  0.25500000000E-02 0.  1.
    8880022    1    1    2    0    0  0.87033526708E+03 -0.74103129606E+03  0.14715520226E+04  0.18696170375E+04  0.15294330000E+03 0.  0.
    8880022    1    1    2    0    0 -0.87033526708E+03  0.74103129606E+03 -0.63771389274E+03  0.13178321292E+04  0.15294330000E+03 0.  0.
<mgrwt>
<rscale>  0 0.11532573E+04</rscale>
<asrwt>0</asrwt>
<pdfrwt beam="1">  1        2 0.30932979E+00 0.11532573E+04</pdfrwt>
<pdfrwt beam="2">  1       -2 0.18104700E+00 0.11532573E+04</pdfrwt>
<totfact> 0.11487714E+00</totfact>
</mgrwt>
</event>
<event>
 4    1  0.6912310E-008  0.1022744E+04  0.7818608E-02  0.9283945E-01
          2   -1    0    0  501    0  0.00000000000E+00  0.00000000000E+00  0.18725559277E+04  0.18725559277E+04  0.25500000000E-02 0. -1.
         -2   -1    0    0    0  501 -0.00000000000E+00 -0.00000000000E+00 -0.77053903977E+03  0.77053903978E+03  0.25500000000E-02 0.  1.
    8880022    1    1    2    0    0  0.81390583552E+03 -0.60014235322E+03 -0.14208758554E+03  0.10325667476E+04  0.15294330000E+03 0.  0.
    8880022    1    1    2    0    0 -0.81390583552E+03  0.60014235322E+03  0.12441044735E+04  0.16105282199E+04  0.15294330000E+03 0.  0.
<mgrwt>
<rscale>  0 0.10227440E+04</rscale>
<asrwt>0</asrwt>
<pdfrwt beam="1">  1        2 0.28808553E+00 0.10227440E+04</pdfrwt>
<pdfrwt beam="2">  1       -2 0.11854447E+00 0.10227440E+04</pdfrwt>
<totfact> 0.42823000E+00</totfact>
</mgrwt>
</event>
<event>
 4    1  0.6912310E-008  0.5570386E+03  0.7818608E-02  0.9998778E-01
         -2   -1    0    0    0  501 -0.00000000000E+00  0.00000000000E+00  0.41102301820E+03  0.41102301821E+03  0.25500000000E-02 0.  1.
          2   -1    0    0  501    0  0.00000000000E+00 -0.00000000000E+00 -0.25350706498E+04  0.25350706498E+04  0.25500000000E-02 0. -1.
    8880022    1    1    2    0    0  0.19713970910E+03  0.49803237675E+03  0.17235701040E+03  0.58309425074E+03  0.15294330000E+03 0.  0.
    8880022    1    1    2    0    0 -0.19713970910E+03 -0.49803237675E+03 -0.22964046420E+04  0.23629994173E+04  0.15294330000E+03 0.  0.
<mgrwt>
<rscale>  0 0.55703857E+03</rscale>
<asrwt>0</asrwt>
<pdfrwt beam="1">  1        2 0.39001086E+00 0.55703857E+03</pdfrwt>
<pdfrwt beam="2">  1       -2 0.63234312E-01 0.55703857E+03</pdfrwt>
<totfact> 0.83960697E+00</totfact>
</mgrwt>
</event>
<event>
 4    1  0.6912310E-008  0.5110121E+03  0.7818608E-02  0.1010944E+00
         -2   -1    0    0    0  501 -0.00000000000E+00  0.00000000000E+00  0.40739966731E+03  0.40739966732E+03  0.25500000000E-02 0.  1.
          2   -1    0    0  501    0  0.00000000000E+00 -0.00000000000E+00 -0.11032932538E+04  0.11032932538E+04  0.25500000000E-02 0. -1.
    8880022    1    1    2    0    0  0.37422204368E+03  0.31256925883E+03 -0.83690400539E+03  0.98058229985E+03  0.15294330000E+03 0.  0.
    8880022    1    1    2    0    0 -0.37422204368E+03 -0.31256925883E+03  0.14101041889E+03  0.53011062128E+03  0.15294330000E+03 0.  0.
<mgrwt>
<rscale>  0 0.51101207E+03</rscale>
<asrwt>0</asrwt>
<pdfrwt beam="1">  1        2 0.16973742E+00 0.51101207E+03</pdfrwt>
<pdfrwt beam="2">  1       -2 0.62676872E-01 0.51101207E+03</pdfrwt>
<totfact> 0.53391501E+01</totfact>
</mgrwt>
</event>
<event>
 4    1  0.6912310E-008  0.2918290E+03  0.7818608E-02  0.1089398E+00
         -2   -1    0    0    0  501 -0.00000000000E+00  0.00000000000E+00  0.10581121258E+03  0.10581121261E+03  0.25500000000E-02 0.  1.
          2   -1    0    0  501    0  0.00000000000E+00 -0.00000000000E+00 -0.22683193978E+04  0.22683193978E+04  0.25500000000E-02 0. -1.
    8880022    1    1    2    0    0 -0.29577513339E+02 -0.24677461352E+03 -0.12777434305E+03  0.31857569733E+03  0.15294330000E+03 0.  1.
    8880022    1    1    2    0    0  0.29577513339E+02  0.24677461352E+03 -0.20347338422E+04  0.20555549131E+04  0.15294330000E+03 0.  0.
<mgrwt>
<rscale>  0 0.29182905E+03</rscale>
<asrwt>0</asrwt>
<pdfrwt beam="1">  1        2 0.34897218E+00 0.29182905E+03</pdfrwt>
<pdfrwt beam="2">  1       -2 0.16278650E-01 0.29182905E+03</pdfrwt>
<totfact> 0.15974269E+02</totfact>
</mgrwt>
</event>
<event>
 4    1  0.6912310E-008  0.7301113E+03  0.7818608E-02  0.9667080E-01
          2   -1    0    0  501    0  0.00000000000E+00  0.00000000000E+00  0.11815075648E+04  0.11815075648E+04  0.25500000000E-02 0. -1.
         -2   -1    0    0    0  501 -0.00000000000E+00 -0.00000000000E+00 -0.50244981451E+03  0.50244981452E+03  0.25500000000E-02 0.  1.
    8880022    1    1    2    0    0 -0.56289229743E+03  0.43911632788E+03  0.60850988709E+03  0.95044559214E+03  0.15294330000E+03 0.  0.
    8880022    1    1    2    0    0  0.56289229743E+03 -0.43911632788E+03  0.70547863202E+02  0.73351178718E+03  0.15294330000E+03 0.  0.
<mgrwt>
<rscale>  0 0.73011132E+03</rscale>
<asrwt>0</asrwt>
<pdfrwt beam="1">  1        2 0.18177039E+00 0.73011132E+03</pdfrwt>
<pdfrwt beam="2">  1       -2 0.77299973E-01 0.73011132E+03</pdfrwt>
<totfact> 0.29605751E+01</totfact>
</mgrwt>
</event>
<event>
 4    1  0.6912310E-008  0.4317036E+03  0.7818608E-02  0.1033323E+00
         -2   -1    0    0    0  501 -0.00000000000E+00  0.00000000000E+00  0.30843780359E+03  0.30843780360E+03  0.25500000000E-02 0.  1.
          2   -1    0    0  501    0  0.00000000000E+00 -0.00000000000E+00 -0.75695015733E+03  0.75695015733E+03  0.25500000000E-02 0. -1.
    8880022    1    1    2    0    0 -0.23246193065E+03  0.33005722713E+03 -0.46352689702E+03  0.63342336526E+03  0.15294330000E+03 0.  0.
    8880022    1    1    2    0    0  0.23246193065E+03 -0.33005722713E+03  0.15014543281E+02  0.43196459566E+03  0.15294330000E+03 0.  0.
<mgrwt>
<rscale>  0 0.43170357E+03</rscale>
<asrwt>0</asrwt>
<pdfrwt beam="1">  1        2 0.11645387E+00 0.43170357E+03</pdfrwt>
<pdfrwt beam="2">  1       -2 0.47451970E-01 0.43170357E+03</pdfrwt>
<totfact> 0.16115777E+02</totfact>
</mgrwt>
</event>
<event>
 4    1  0.6912310E-008  0.3407081E+03  0.7818608E-02  0.1066495E+00
          2   -1    0    0  501    0  0.00000000000E+00  0.00000000000E+00  0.17198525493E+03  0.17198525495E+03  0.25500000000E-02 0. -1.
         -2   -1    0    0    0  501 -0.00000000000E+00 -0.00000000000E+00 -0.91740046026E+03  0.91740046026E+03  0.25500000000E-02 0.  1.
    8880022    1    1    2    0    0  0.22627871727E+02 -0.30360885664E+03 -0.65272226649E+03  0.73629367008E+03  0.15294330000E+03 0.  0.
    8880022    1    1    2    0    0 -0.22627871727E+02  0.30360885664E+03 -0.92692938843E+02  0.35309204513E+03  0.15294330000E+03 0.  0.
<mgrwt>
<rscale>  0 0.34070810E+03</rscale>
<asrwt>0</asrwt>
<pdfrwt beam="1">  1        2 0.26459271E-01 0.34070810E+03</pdfrwt>
<pdfrwt beam="2">  1       -2 0.14113853E+00 0.34070810E+03</pdfrwt>
<totfact> 0.74792773E+01</totfact>
</mgrwt>
</event>
<event>
 4    1  0.6912310E-008  0.8621061E+03  0.7818608E-02  0.9474231E-01
         -2   -1    0    0    0  501 -0.00000000000E+00  0.00000000000E+00  0.84809613795E+03  0.84809613796E+03  0.25500000000E-02 0.  1.
          2   -1    0    0  501    0  0.00000000000E+00 -0.00000000000E+00 -0.91652947722E+03  0.91652947722E+03  0.25500000000E-02 0. -1.
    8880022    1    1    2    0    0  0.20350318744E+03 -0.82366361366E+03  0.15052501449E+03  0.87514840386E+03  0.15294330000E+03 0. -1.
    8880022    1    1    2    0    0 -0.20350318744E+03  0.82366361366E+03 -0.21895835376E+03  0.88947721133E+03  0.15294330000E+03 0.  1.
<mgrwt>
<rscale>  0 0.86210611E+03</rscale>
<asrwt>0</asrwt>
<pdfrwt beam="1">  1        2 0.14100454E+00 0.86210611E+03</pdfrwt>
<pdfrwt beam="2">  1       -2 0.13047633E+00 0.86210611E+03</pdfrwt>
<totfact> 0.12352811E+01</totfact>
</mgrwt>
</event>
<event>
 4    1  0.6912310E-008  0.3336172E+03  0.7818608E-02  0.1069547E+00
         -2   -1    0    0    0  501 -0.00000000000E+00  0.00000000000E+00  0.14408969135E+03  0.14408969137E+03  0.25500000000E-02 0.  1.
          2   -1    0    0  501    0  0.00000000000E+00 -0.00000000000E+00 -0.15668096146E+04  0.15668096146E+04  0.25500000000E-02 0. -1.
    8880022    1    1    2    0    0 -0.16104277312E+02 -0.29605644760E+03 -0.13204732445E+04  0.13619654953E+04  0.15294330000E+03 0.  0.
    8880022    1    1    2    0    0  0.16104277312E+02  0.29605644760E+03 -0.10224667876E+03  0.34893381069E+03  0.15294330000E+03 0.  0.
<mgrwt>
<rscale>  0 0.33361718E+03</rscale>
<asrwt>0</asrwt>
<pdfrwt beam="1">  1        2 0.24104762E+00 0.33361718E+03</pdfrwt>
<pdfrwt beam="2">  1       -2 0.22167646E-01 0.33361718E+03</pdfrwt>
<totfact> 0.22011171E+02</totfact>
</mgrwt>
</event>
<event>
 4    1  0.6912310E-008  0.5199083E+03  0.7818608E-02  0.1008709E+00
          2   -1    0    0  501    0  0.00000000000E+00  0.00000000000E+00  0.44994084795E+03  0.44994084795E+03  0.25500000000E-02 0. -1.
         -2   -1    0    0    0  501 -0.00000000000E+00 -0.00000000000E+00 -0.10427752253E+04  0.10427752253E+04  0.25500000000E-02 0.  1.
    8880022    1    1    2    0    0  0.49679751234E+03 -0.10259944743E+02 -0.78234573737E+03  0.93934527227E+03  0.15294330000E+03 0.  0.
    8880022    1    1    2    0    0 -0.49679751234E+03  0.10259944743E+02  0.18951136007E+03  0.55337080095E+03  0.15294330000E+03 0.  0.
<mgrwt>
<rscale>  0 0.51990835E+03</rscale>
<asrwt>0</asrwt>
<pdfrwt beam="1">  1        2 0.69221669E-01 0.51990835E+03</pdfrwt>
<pdfrwt beam="2">  1       -2 0.16042696E+00 0.51990835E+03</pdfrwt>
<totfact> 0.18073394E+01</totfact>
</mgrwt>
</event>
<event>
 4    1  0.6912310E-008  0.5844782E+03  0.7818608E-02  0.9938143E-01
          2   -1    0    0  501    0  0.00000000000E+00  0.00000000000E+00  0.15169635334E+04  0.15169635334E+04  0.25500000000E-02 0. -1.
         -2   -1    0    0    0  501 -0.00000000000E+00 -0.00000000000E+00 -0.34311539027E+03  0.34311539028E+03  0.25500000000E-02 0.  1.
    8880022    1    1    2    0    0  0.45825286850E+03  0.32897942410E+03  0.41702467118E+02  0.58596407889E+03  0.15294330000E+03 0.  0.
    8880022    1    1    2    0    0 -0.45825286850E+03 -0.32897942410E+03  0.11321456760E+04  0.12741148448E+04  0.15294330000E+03 0.  0.
<mgrwt>
<rscale>  0 0.58447823E+03</rscale>
<asrwt>0</asrwt>
<pdfrwt beam="1">  1        2 0.23337901E+00 0.58447823E+03</pdfrwt>
<pdfrwt beam="2">  1       -2 0.52786982E-01 0.58447823E+03</pdfrwt>
<totfact> 0.43860892E+01</totfact>
</mgrwt>
</event>
<event>
 4    1  0.6912310E-008  0.1142902E+04  0.7818608E-02  0.9164357E-01
         -2   -1    0    0    0  501 -0.00000000000E+00  0.00000000000E+00  0.98986721933E+03  0.98986721934E+03  0.25500000000E-02 0.  1.
          2   -1    0    0  501    0  0.00000000000E+00 -0.00000000000E+00 -0.20636854457E+04  0.20636854457E+04  0.25500000000E-02 0. -1.
    8880022    1    1    2    0    0  0.85204660026E+03 -0.74622410300E+03  0.37987282557E+03  0.12043790257E+04  0.15294330000E+03 0.  0.
    8880022    1    1    2    0    0 -0.85204660026E+03  0.74622410300E+03 -0.14536910519E+04  0.18491736393E+04  0.15294330000E+03 0.  0.
<mgrwt>
<rscale>  0 0.11429022E+04</rscale>
<asrwt>0</asrwt>
<pdfrwt beam="1">  1        2 0.31749007E+00 0.11429022E+04</pdfrwt>
<pdfrwt beam="2">  1       -2 0.15228726E+00 0.11429022E+04</pdfrwt>
<totfact> 0.17368002E+00</totfact>
</mgrwt>
</event>
<event>
 4    1  0.6912310E-008  0.4792358E+03  0.7818608E-02  0.1019345E+00
         -2   -1    0    0    0  501 -0.00000000000E+00  0.00000000000E+00  0.98548510888E+02  0.98548510921E+02  0.25500000000E-02 0.  1.
          2   -1    0    0  501    0  0.00000000000E+00 -0.00000000000E+00 -0.31531407739E+04  0.31531407739E+04  0.25500000000E-02 0. -1.
    8880022    1    1    2    0    0  0.29451244514E+03  0.34574229551E+03 -0.69684633943E+03  0.84573151120E+03  0.15294330000E+03 0.  1.
    8880022    1    1    2    0    0 -0.29451244514E+03 -0.34574229551E+03 -0.23577459235E+04  0.24059577736E+04  0.15294330000E+03 0. -1.
<mgrwt>
<rscale>  0 0.47923582E+03</rscale>
<asrwt>0</asrwt>
<pdfrwt beam="1">  1        2 0.48509850E+00 0.47923582E+03</pdfrwt>
<pdfrwt beam="2">  1       -2 0.15161312E-01 0.47923582E+03</pdfrwt>
<totfact> 0.53383414E+01</totfact>
</mgrwt>
</event>
<event>
 4    1  0.6912310E-008  0.7161207E+03  0.7818608E-02  0.9690054E-01
         -2   -1    0    0    0  501 -0.00000000000E+00  0.00000000000E+00  0.96239372776E+03  0.96239372776E+03  0.25500000000E-02 0.  1.
          2   -1    0    0  501    0  0.00000000000E+00 -0.00000000000E+00 -0.98343917550E+03  0.98343917550E+03  0.25500000000E-02 0. -1.
    8880022    1    1    2    0    0  0.67722704137E+03  0.17550145938E+03 -0.66906470748E+03  0.98003901127E+03  0.15294330000E+03 0.  0.
    8880022    1    1    2    0    0 -0.67722704137E+03 -0.17550145938E+03  0.64801925974E+03  0.96579389199E+03  0.15294330000E+03 0.  0.
<mgrwt>
<rscale>  0 0.71612072E+03</rscale>
<asrwt>0</asrwt>
<pdfrwt beam="1">  1        2 0.15129833E+00 0.71612072E+03</pdfrwt>
<pdfrwt beam="2">  1       -2 0.14806057E+00 0.71612072E+03</pdfrwt>
<totfact> 0.81863479E+00</totfact>
</mgrwt>
</event>
<event>
 4    1  0.6912310E-008  0.4658127E+03  0.7818608E-02  0.1023109E+00
          2   -1    0    0  501    0  0.00000000000E+00  0.00000000000E+00  0.14016294691E+04  0.14016294691E+04  0.25500000000E-02 0. -1.
         -2   -1    0    0    0  501 -0.00000000000E+00 -0.00000000000E+00 -0.15831056590E+03  0.15831056592E+03  0.25500000000E-02 0.  1.
    8880022    1    1    2    0    0  0.42053922926E+03 -0.12936974747E+03  0.73769892576E+03  0.87245695194E+03  0.15294330000E+03 0.  1.
    8880022    1    1    2    0    0 -0.42053922926E+03  0.12936974747E+03  0.50561997739E+03  0.68748308303E+03  0.15294330000E+03 0. -1.
<mgrwt>
<rscale>  0 0.46581265E+03</rscale>
<asrwt>0</asrwt>
<pdfrwt beam="1">  1        2 0.21563531E+00 0.46581265E+03</pdfrwt>
<pdfrwt beam="2">  1       -2 0.24355471E-01 0.46581265E+03</pdfrwt>
<totfact> 0.22534638E+02</totfact>
</mgrwt>
</event>
<event>
 4    1  0.6912310E-008  0.5999663E+03  0.7818608E-02  0.9905476E-01
          2   -1    0    0  501    0  0.00000000000E+00  0.00000000000E+00  0.18204874202E+04  0.18204874202E+04  0.25500000000E-02 0. -1.
         -2   -1    0    0    0  501 -0.00000000000E+00 -0.00000000000E+00 -0.45038864308E+03  0.45038864309E+03  0.25500000000E-02 0.  1.
    8880022    1    1    2    0    0 -0.56240637697E+03  0.14236232821E+03 -0.16538209797E+03  0.62234303780E+03  0.15294330000E+03 0.  0.
    8880022    1    1    2    0    0  0.56240637697E+03 -0.14236232821E+03  0.15354808750E+04  0.16485330254E+04  0.15294330000E+03 0.  0.
<mgrwt>
<rscale>  0 0.59996635E+03</rscale>
<asrwt>0</asrwt>
<pdfrwt beam="1">  1        2 0.28007499E+00 0.59996635E+03</pdfrwt>
<pdfrwt beam="2">  1       -2 0.69290560E-01 0.59996635E+03</pdfrwt>
<totfact> 0.16847578E+01</totfact>
</mgrwt>
</event>
<event>
 4    1  0.6912310E-008  0.2743071E+03  0.7818608E-02  0.1098840E+00
          2   -1    0    0  501    0  0.00000000000E+00  0.00000000000E+00  0.20654450678E+04  0.20654450678E+04  0.25500000000E-02 0. -1.
         -2   -1    0    0    0  501 -0.00000000000E+00 -0.00000000000E+00 -0.27866756307E+03  0.27866756308E+03  0.25500000000E-02 0.  1.
    8880022    1    1    2    0    0  0.50698085631E+02  0.22199643384E+03 -0.19937410818E+03  0.33910824311E+03  0.15294330000E+03 0.  0.
    8880022    1    1    2    0    0 -0.50698085631E+02 -0.22199643384E+03  0.19861516129E+04  0.20050043878E+04  0.15294330000E+03 0.  0.
<mgrwt>
<rscale>  0 0.27430706E+03</rscale>
<asrwt>0</asrwt>
<pdfrwt beam="1">  1        2 0.31776078E+00 0.27430706E+03</pdfrwt>
<pdfrwt beam="2">  1       -2 0.42871933E-01 0.27430706E+03</pdfrwt>
<totfact> 0.36195090E+01</totfact>
</mgrwt>
</event>
<event>
 4    1  0.6912310E-008  0.5623681E+03  0.7818608E-02  0.9986711E-01
         -2   -1    0    0    0  501 -0.00000000000E+00  0.00000000000E+00  0.65988082892E+03  0.65988082892E+03  0.25500000000E-02 0.  1.
          2   -1    0    0  501    0  0.00000000000E+00 -0.00000000000E+00 -0.28394069100E+04  0.28394069100E+04  0.25500000000E-02 0. -1.
    8880022    1    1    2    0    0  0.44643157002E+03 -0.30588413346E+03 -0.26849253664E+04  0.27431883140E+04  0.15294330000E+03 0. -1.
    8880022    1    1    2    0    0 -0.44643157002E+03  0.30588413346E+03  0.50539928531E+03  0.75609942495E+03  0.15294330000E+03 0.  0.
<mgrwt>
<rscale>  0 0.56236812E+03</rscale>
<asrwt>0</asrwt>
<pdfrwt beam="1">  1        2 0.43683182E+00 0.56236812E+03</pdfrwt>
<pdfrwt beam="2">  1       -2 0.10152013E+00 0.56236812E+03</pdfrwt>
<totfact> 0.19378558E+00</totfact>
</mgrwt>
</event>
<event>
 4    1  0.6912310E-008  0.1059302E+04  0.7818608E-02  0.9245793E-01
          2   -1    0    0  501    0  0.00000000000E+00  0.00000000000E+00  0.25489212641E+04  0.25489212641E+04  0.25500000000E-02 0. -1.
         -2   -1    0    0    0  501 -0.00000000000E+00 -0.00000000000E+00 -0.53143006487E+03  0.53143006487E+03  0.25500000000E-02 0.  1.
    8880022    1    1    2    0    0 -0.92211803067E+03  0.49842511693E+03  0.37072297587E+03  0.11222996202E+04  0.15294330000E+03 0.  0.
    8880022    1    1    2    0    0  0.92211803067E+03 -0.49842511693E+03  0.16467682234E+04  0.19580517088E+04  0.15294330000E+03 0.  0.
<mgrwt>
<rscale>  0 0.10593021E+04</rscale>
<asrwt>0</asrwt>
<pdfrwt beam="1">  1        2 0.39214174E+00 0.10593021E+04</pdfrwt>
<pdfrwt beam="2">  1       -2 0.81758471E-01 0.10593021E+04</pdfrwt>
<totfact> 0.43046043E+00</totfact>
</mgrwt>
</event>
<event>
 4    1  0.6912310E-008  0.4904054E+03  0.7818608E-02  0.1016314E+00
         -2   -1    0    0    0  501 -0.00000000000E+00  0.00000000000E+00  0.28972123785E+03  0.28972123786E+03  0.25500000000E-02 0.  1.
          2   -1    0    0  501    0  0.00000000000E+00 -0.00000000000E+00 -0.99535647438E+03  0.99535647439E+03  0.25500000000E-02 0. -1.
    8880022    1    1    2    0    0 -0.18859280195E+03 -0.42607336940E+03 -0.91005252072E+02  0.49877787639E+03  0.15294330000E+03 0.  1.
    8880022    1    1    2    0    0  0.18859280195E+03  0.42607336940E+03 -0.61462998446E+03  0.78629983586E+03  0.15294330000E+03 0. -1.
<mgrwt>
<rscale>  0 0.49040536E+03</rscale>
<asrwt>0</asrwt>
<pdfrwt beam="1">  1        2 0.15313176E+00 0.49040536E+03</pdfrwt>
<pdfrwt beam="2">  1       -2 0.44572499E-01 0.49040536E+03</pdfrwt>
<totfact> 0.12530627E+02</totfact>
</mgrwt>
</event>
<event>
 4    1  0.6912310E-008  0.6995008E+03  0.7818608E-02  0.9718086E-01
          2   -1    0    0  501    0  0.00000000000E+00  0.00000000000E+00  0.23237729393E+04  0.23237729393E+04  0.25500000000E-02 0. -1.
         -2   -1    0    0    0  501 -0.00000000000E+00 -0.00000000000E+00 -0.24123303098E+03  0.24123303100E+03  0.25500000000E-02 0.  1.
    8880022    1    1    2    0    0 -0.37558254052E+03  0.56995388941E+03  0.58397661690E+03  0.91122446351E+03  0.15294330000E+03 0.  0.
    8880022    1    1    2    0    0  0.37558254052E+03 -0.56995388941E+03  0.14985632914E+04  0.16537815068E+04  0.15294330000E+03 0.  0.
<mgrwt>
<rscale>  0 0.69950077E+03</rscale>
<asrwt>0</asrwt>
<pdfrwt beam="1">  1        2 0.35750351E+00 0.69950077E+03</pdfrwt>
<pdfrwt beam="2">  1       -2 0.37112776E-01 0.69950077E+03</pdfrwt>
<totfact> 0.31478879E+01</totfact>
</mgrwt>
</event>
<event>
 4    1  0.6912310E-008  0.4037855E+03  0.7818608E-02  0.1042477E+00
         -2   -1    0    0    0  501 -0.00000000000E+00  0.00000000000E+00  0.13398922027E+03  0.13398922029E+03  0.25500000000E-02 0.  1.
          2   -1    0    0  501    0  0.00000000000E+00 -0.00000000000E+00 -0.30231374864E+04  0.30231374864E+04  0.25500000000E-02 0. -1.
    8880022    1    1    2    0    0  0.36951615588E+03 -0.55757292904E+02 -0.22438161960E+03  0.46194137008E+03  0.15294330000E+03 0.  0.
    8880022    1    1    2    0    0 -0.36951615588E+03  0.55757292904E+02 -0.26647666465E+04  0.26951853366E+04  0.15294330000E+03 0.  0.
<mgrwt>
<rscale>  0 0.40378549E+03</rscale>
<asrwt>0</asrwt>
<pdfrwt beam="1">  1        2 0.46509802E+00 0.40378549E+03</pdfrwt>
<pdfrwt beam="2">  1       -2 0.20613728E-01 0.40378549E+03</pdfrwt>
<totfact> 0.38705288E+01</totfact>
</mgrwt>
</event>
<event>
 4    1  0.6912310E-008  0.8072258E+03  0.7818608E-02  0.9549617E-01
         -2   -1    0    0    0  501 -0.00000000000E+00  0.00000000000E+00  0.31719288855E+03  0.31719288856E+03  0.25500000000E-02 0.  1.
          2   -1    0    0  501    0  0.00000000000E+00 -0.00000000000E+00 -0.29741844242E+04  0.29741844242E+04  0.25500000000E-02 0. -1.
    8880022    1    1    2    0    0 -0.67453670953E+03 -0.41619951171E+03 -0.41327197156E+03  0.90686668344E+03  0.15294330000E+03 0.  1.
    8880022    1    1    2    0    0  0.67453670953E+03  0.41619951171E+03 -0.22437195641E+04  0.23845106293E+04  0.15294330000E+03 0.  0.
<mgrwt>
<rscale>  0 0.80722578E+03</rscale>
<asrwt>0</asrwt>
<pdfrwt beam="1">  1        2 0.45756681E+00 0.80722578E+03</pdfrwt>
<pdfrwt beam="2">  1       -2 0.48798908E-01 0.80722578E+03</pdfrwt>
<totfact> 0.75668024E+00</totfact>
</mgrwt>
</event>
<event>
 4    1  0.6912310E-008  0.7747183E+03  0.7818608E-02  0.9597350E-01
         -2   -1    0    0    0  501 -0.00000000000E+00  0.00000000000E+00  0.52362005880E+03  0.52362005881E+03  0.25500000000E-02 0.  1.
          2   -1    0    0  501    0  0.00000000000E+00 -0.00000000000E+00 -0.25279956154E+04  0.25279956154E+04  0.25500000000E-02 0. -1.
    8880022    1    1    2    0    0  0.25493486501E+03  0.71540547436E+03  0.12586404140E+03  0.78487590616E+03  0.15294330000E+03 0.  0.
    8880022    1    1    2    0    0 -0.25493486501E+03 -0.71540547436E+03 -0.21302395980E+04  0.22667397680E+04  0.15294330000E+03 0.  0.
<mgrwt>
<rscale>  0 0.77471829E+03</rscale>
<asrwt>0</asrwt>
<pdfrwt beam="1">  1        2 0.38892240E+00 0.77471829E+03</pdfrwt>
<pdfrwt beam="2">  1       -2 0.80556934E-01 0.77471829E+03</pdfrwt>
<totfact> 0.47737171E+00</totfact>
</mgrwt>
</event>
<event>
 4    1  0.6912310E-008  0.1056639E+04  0.7818608E-02  0.9248516E-01
          2   -1    0    0  501    0  0.00000000000E+00  0.00000000000E+00  0.16217125136E+04  0.16217125136E+04  0.25500000000E-02 0. -1.
         -2   -1    0    0    0  501 -0.00000000000E+00 -0.00000000000E+00 -0.73092110243E+03  0.73092110244E+03  0.25500000000E-02 0.  1.
    8880022    1    1    2    0    0 -0.13702764832E+03  0.10364932254E+04  0.72891174019E+03  0.12836661406E+04  0.15294330000E+03 0.  0.
    8880022    1    1    2    0    0  0.13702764832E+03 -0.10364932254E+04  0.16187967098E+03  0.10689674754E+04  0.15294330000E+03 0.  0.
<mgrwt>
<rscale>  0 0.10566392E+04</rscale>
<asrwt>0</asrwt>
<pdfrwt beam="1">  1        2 0.24949423E+00 0.10566392E+04</pdfrwt>
<pdfrwt beam="2">  1       -2 0.11244940E+00 0.10566392E+04</pdfrwt>
<totfact> 0.66827822E+00</totfact>
</mgrwt>
</event>
<event>
 4    1  0.6912310E-008  0.5207061E+03  0.7818608E-02  0.1008511E+00
          2   -1    0    0  501    0  0.00000000000E+00  0.00000000000E+00  0.23521135286E+04  0.23521135286E+04  0.25500000000E-02 0. -1.
         -2   -1    0    0    0  501 -0.00000000000E+00 -0.00000000000E+00 -0.14712398015E+03  0.14712398017E+03  0.25500000000E-02 0.  1.
    8880022    1    1    2    0    0 -0.45887869512E+03 -0.19280437167E+03  0.52106373980E+03  0.73664255682E+03  0.15294330000E+03 0.  0.
    8880022    1    1    2    0    0  0.45887869512E+03  0.19280437167E+03  0.16839258087E+04  0.17625949520E+04  0.15294330000E+03 0.  0.
<mgrwt>
<rscale>  0 0.52070609E+03</rscale>
<asrwt>0</asrwt>
<pdfrwt beam="1">  1        2 0.36186361E+00 0.52070609E+03</pdfrwt>
<pdfrwt beam="2">  1       -2 0.22634459E-01 0.52070609E+03</pdfrwt>
<totfact> 0.77669491E+01</totfact>
</mgrwt>
</event>
<event>
 4    1  0.6912310E-008  0.6954574E+03  0.7818608E-02  0.9725032E-01
          2   -1    0    0  501    0  0.00000000000E+00  0.00000000000E+00  0.41984649857E+03  0.41984649857E+03  0.25500000000E-02 0. -1.
         -2   -1    0    0    0  501 -0.00000000000E+00 -0.00000000000E+00 -0.23094274671E+04  0.23094274671E+04  0.25500000000E-02 0.  1.
    8880022    1    1    2    0    0 -0.46180166160E+03  0.49699952667E+03  0.21288985300E+02  0.69578314012E+03  0.15294330000E+03 0.  0.
    8880022    1    1    2    0    0  0.46180166160E+03 -0.49699952667E+03 -0.19108699539E+04  0.20334908256E+04  0.15294330000E+03 0.  0.
<mgrwt>
<rscale>  0 0.69545737E+03</rscale>
<asrwt>0</asrwt>
<pdfrwt beam="1">  1        2 0.64591770E-01 0.69545737E+03</pdfrwt>
<pdfrwt beam="2">  1       -2 0.35529653E+00 0.69545737E+03</pdfrwt>
<totfact> 0.11547501E+00</totfact>
</mgrwt>
</event>
<event>
 4    1  0.6912310E-008  0.7680475E+03  0.7818608E-02  0.9607455E-01
          2   -1    0    0  501    0  0.00000000000E+00  0.00000000000E+00  0.25579070986E+04  0.25579070986E+04  0.25500000000E-02 0. -1.
         -2   -1    0    0    0  501 -0.00000000000E+00 -0.00000000000E+00 -0.37883403378E+03  0.37883403378E+03  0.25500000000E-02 0.  1.
    8880022    1    1    2    0    0 -0.67918279534E+03 -0.32437014795E+03  0.20079964417E+04  0.21498713043E+04  0.15294330000E+03 0.  0.
    8880022    1    1    2    0    0  0.67918279534E+03  0.32437014795E+03  0.17107662320E+03  0.78686982811E+03  0.15294330000E+03 0.  0.
<mgrwt>
<rscale>  0 0.76804747E+03</rscale>
<asrwt>0</asrwt>
<pdfrwt beam="1">  1        2 0.39352415E+00 0.76804747E+03</pdfrwt>
<pdfrwt beam="2">  1       -2 0.58282162E-01 0.76804747E+03</pdfrwt>
<totfact> 0.92890098E+00</totfact>
</mgrwt>
</event>
<event>
 4    1  0.6912310E-008  0.5499925E+03  0.7818608E-02  0.1001496E+00
         -2   -1    0    0    0  501 -0.00000000000E+00  0.00000000000E+00  0.23548244931E+03  0.23548244933E+03  0.25500000000E-02 0.  1.
          2   -1    0    0  501    0  0.00000000000E+00 -0.00000000000E+00 -0.16668108952E+04  0.16668108952E+04  0.25500000000E-02 0. -1.
    8880022    1    1    2    0    0  0.38769446810E+03  0.35887748628E+03 -0.11711530137E+04  0.12938667185E+04  0.15294330000E+03 0.  0.
    8880022    1    1    2    0    0 -0.38769446810E+03 -0.35887748628E+03 -0.26017543224E+03  0.60842662607E+03  0.15294330000E+03 0.  0.
<mgrwt>
<rscale>  0 0.54999246E+03</rscale>
<asrwt>0</asrwt>
<pdfrwt beam="1">  1        2 0.25643244E+00 0.54999246E+03</pdfrwt>
<pdfrwt beam="2">  1       -2 0.36228070E-01 0.54999246E+03</pdfrwt>
<totfact> 0.76787305E+01</totfact>
</mgrwt>
</event>
<event>
 4    1  0.6912310E-008  0.3462587E+03  0.7818608E-02  0.1064161E+00
          2   -1    0    0  501    0  0.00000000000E+00  0.00000000000E+00  0.22285992707E+03  0.22285992708E+03  0.25500000000E-02 0. -1.
         -2   -1    0    0    0  501 -0.00000000000E+00 -0.00000000000E+00 -0.95538431016E+03  0.95538431016E+03  0.25500000000E-02 0.  1.
    8880022    1    1    2    0    0  0.73704753080E+02  0.30177977122E+03 -0.75565924635E+03  0.83121355292E+03  0.15294330000E+03 0.  1.
    8880022    1    1    2    0    0 -0.73704753080E+02 -0.30177977122E+03  0.23134863263E+02  0.34703068432E+03  0.15294330000E+03 0.  0.
<mgrwt>
<rscale>  0 0.34625868E+03</rscale>
<asrwt>0</asrwt>
<pdfrwt beam="1">  1        2 0.34286143E-01 0.34625868E+03</pdfrwt>
<pdfrwt beam="2">  1       -2 0.14698220E+00 0.34625868E+03</pdfrwt>
<totfact> 0.50481256E+01</totfact>
</mgrwt>
</event>
<event>
 4    1  0.8564415E-008  0.9816298E+03  0.7818608E-02  0.9328926E-01
         -2   -1    0    0    0  501 -0.00000000000E+00  0.00000000000E+00  0.10229273190E+04  0.10229273190E+04  0.25500000000E-02 0.  1.
          2   -1    0    0  501    0  0.00000000000E+00 -0.00000000000E+00 -0.21506265665E+04  0.21506265665E+04  0.25500000000E-02 0. -1.
    8880022    1    1    2    0    0 -0.61118717760E+03  0.75276535338E+03  0.62569167091E+03  0.11640821120E+04  0.15294330000E+03 0.  0.
    8880022    1    1    2    0    0  0.61118717760E+03 -0.75276535338E+03 -0.17533909184E+04  0.20094717736E+04  0.15294330000E+03 0.  0.
<mgrwt>
<rscale>  0 0.98162982E+03</rscale>
<asrwt>0</asrwt>
<pdfrwt beam="1">  1        2 0.33086562E+00 0.98162982E+03</pdfrwt>
<pdfrwt beam="2">  1       -2 0.15737343E+00 0.98162982E+03</pdfrwt>
<totfact> 0.14538509E+00</totfact>
</mgrwt>
</event>
<event>
 4    1  0.6912310E-008  0.1207592E+04  0.7818608E-02  0.9106237E-01
         -2   -1    0    0    0  501 -0.00000000000E+00  0.00000000000E+00  0.71407319190E+03  0.71407319191E+03  0.25500000000E-02 0.  1.
          2   -1    0    0  501    0  0.00000000000E+00 -0.00000000000E+00 -0.31300475019E+04  0.31300475019E+04  0.25500000000E-02 0. -1.
    8880022    1    1    2    0    0 -0.68679202326E+03 -0.98142917278E+03 -0.23411078084E+04  0.26342103044E+04  0.15294330000E+03 0.  0.
    8880022    1    1    2    0    0  0.68679202326E+03  0.98142917278E+03 -0.74866501662E+02  0.12099103894E+04  0.15294330000E+03 0.  0.
<mgrwt>
<rscale>  0 0.12075919E+04</rscale>
<asrwt>0</asrwt>
<pdfrwt beam="1">  1        2 0.48154576E+00 0.12075919E+04</pdfrwt>
<pdfrwt beam="2">  1       -2 0.10985742E+00 0.12075919E+04</pdfrwt>
<totfact> 0.93973068E-01</totfact>
</mgrwt>
</event>
<event>
 4    1  0.6912310E-008  0.3588178E+03  0.7818608E-02  0.1059053E+00
         -2   -1    0    0    0  501 -0.00000000000E+00  0.00000000000E+00  0.62659859325E+02  0.62659859377E+02  0.25500000000E-02 0.  1.
          2   -1    0    0  501    0  0.00000000000E+00 -0.00000000000E+00 -0.23383278074E+04  0.23383278074E+04  0.25500000000E-02 0. -1.
    8880022    1    1    2    0    0 -0.99002892863E+02 -0.30912293817E+03 -0.15559000581E+04  0.15967389291E+04  0.15294330000E+03 0.  0.
    8880022    1    1    2    0    0  0.99002892863E+02  0.30912293817E+03 -0.71976788993E+03  0.80424873770E+03  0.15294330000E+03 0.  0.
<mgrwt>
<rscale>  0 0.35881780E+03</rscale>
<asrwt>0</asrwt>
<pdfrwt beam="1">  1        2 0.35974267E+00 0.35881780E+03</pdfrwt>
<pdfrwt beam="2">  1       -2 0.96399801E-02 0.35881780E+03</pdfrwt>
<totfact> 0.34010093E+02</totfact>
</mgrwt>
</event>
<event>
 4    1  0.6912310E-008  0.1130945E+04  0.7818608E-02  0.9175545E-01
         -2   -1    0    0    0  501 -0.00000000000E+00  0.00000000000E+00  0.97714829589E+03  0.97714829589E+03  0.25500000000E-02 0.  1.
          2   -1    0    0  501    0  0.00000000000E+00 -0.00000000000E+00 -0.16352009875E+04  0.16352009875E+04  0.25500000000E-02 0. -1.
    8880022    1    1    2    0    0  0.66650904131E+03  0.90078290306E+03  0.25440972585E+03  0.11592066693E+04  0.15294330000E+03 0.  0.
    8880022    1    1    2    0    0 -0.66650904131E+03 -0.90078290306E+03 -0.91246241750E+03  0.14531426141E+04  0.15294330000E+03 0.  0.
<mgrwt>
<rscale>  0 0.11309446E+04</rscale>
<asrwt>0</asrwt>
<pdfrwt beam="1">  1        2 0.25156938E+00 0.11309446E+04</pdfrwt>
<pdfrwt beam="2">  1       -2 0.15033051E+00 0.11309446E+04</pdfrwt>
<totfact> 0.31080407E+00</totfact>
</mgrwt>
</event>
<event>
 4    1  0.6912310E-008  0.6978666E+03  0.7818608E-02  0.9720888E-01
         -2   -1    0    0    0  501 -0.00000000000E+00  0.00000000000E+00  0.11998919932E+04  0.11998919932E+04  0.25500000000E-02 0.  1.
          2   -1    0    0  501    0  0.00000000000E+00 -0.00000000000E+00 -0.87053924964E+03  0.87053924965E+03  0.25500000000E-02 0. -1.
    8880022    1    1    2    0    0  0.68072555232E+03  0.15453532019E+02  0.92098970829E+03  0.11555257613E+04  0.15294330000E+03 0.  1.
    8880022    1    1    2    0    0 -0.68072555232E+03 -0.15453532019E+02 -0.59163696470E+03  0.91490548159E+03  0.15294330000E+03 0. -1.
<mgrwt>
<rscale>  0 0.69786656E+03</rscale>
<asrwt>0</asrwt>
<pdfrwt beam="1">  1        2 0.13392912E+00 0.69786656E+03</pdfrwt>
<pdfrwt beam="2">  1       -2 0.18459877E+00 0.69786656E+03</pdfrwt>
<totfact> 0.53222670E+00</totfact>
</mgrwt>
</event>
<event>
 4    1  0.6912310E-008  0.1564587E+03  0.7818608E-02  0.1192754E+00
         -2   -1    0    0    0  501 -0.00000000000E+00  0.00000000000E+00  0.18520929320E+03  0.18520929322E+03  0.25500000000E-02 0.  1.
          2   -1    0    0  501    0  0.00000000000E+00 -0.00000000000E+00 -0.32655777464E+03  0.32655777465E+03  0.25500000000E-02 0. -1.
    8880022    1    1    2    0    0  0.31878622976E+02  0.84508907913E+01  0.12674776703E+03  0.20135618595E+03  0.15294330000E+03 0.  0.
    8880022    1    1    2    0    0 -0.31878622976E+02 -0.84508907913E+01 -0.26809624846E+03  0.31041088192E+03  0.15294330000E+03 0. -1.
<mgrwt>
<rscale>  0 0.15645868E+03</rscale>
<asrwt>0</asrwt>
<pdfrwt beam="1">  1        2 0.50239658E-01 0.15645868E+03</pdfrwt>
<pdfrwt beam="2">  1       -2 0.28493737E-01 0.15645868E+03</pdfrwt>
<totfact> 0.11108517E+03</totfact>
</mgrwt>
</event>
<event>
 4    1  0.6912310E-008  0.5970949E+03  0.7818608E-02  0.9911452E-01
         -2   -1    0    0    0  501 -0.00000000000E+00  0.00000000000E+00  0.12896781624E+04  0.12896781624E+04  0.25500000000E-02 0.  1.
          2   -1    0    0  501    0  0.00000000000E+00 -0.00000000000E+00 -0.28070864612E+03  0.28070864613E+03  0.25500000000E-02 0. -1.
    8880022    1    1    2    0    0 -0.29277376682E+03 -0.49740750038E+03  0.60127843152E+03  0.84738309235E+03  0.15294330000E+03 0.  1.
    8880022    1    1    2    0    0  0.29277376682E+03  0.49740750038E+03  0.40769108472E+03  0.72300371614E+03  0.15294330000E+03 0.  0.
<mgrwt>
<rscale>  0 0.59709493E+03</rscale>
<asrwt>0</asrwt>
<pdfrwt beam="1">  1        2 0.43185946E-01 0.59709493E+03</pdfrwt>
<pdfrwt beam="2">  1       -2 0.19841202E+00 0.59709493E+03</pdfrwt>
<totfact> 0.16628572E+01</totfact>
</mgrwt>
</event>
<event>
 4    1  0.6912310E-008  0.6937924E+03  0.7818608E-02  0.9727907E-01
          2   -1    0    0  501    0  0.00000000000E+00  0.00000000000E+00  0.28241787700E+04  0.28241787700E+04  0.25500000000E-02 0. -1.
         -2   -1    0    0    0  501 -0.00000000000E+00 -0.00000000000E+00 -0.57105497376E+03  0.57105497377E+03  0.25500000000E-02 0.  1.
    8880022    1    1    2    0    0 -0.45673229034E+03 -0.49935147723E+03 -0.29532577817E+03  0.75403265919E+03  0.15294330000E+03 0.  0.
    8880022    1    1    2    0    0  0.45673229034E+03  0.49935147723E+03  0.25484495744E+04  0.26412010846E+04  0.15294330000E+03 0.  0.
<mgrwt>
<rscale>  0 0.69379243E+03</rscale>
<asrwt>0</asrwt>
<pdfrwt beam="1">  1        2 0.43448904E+00 0.69379243E+03</pdfrwt>
<pdfrwt beam="2">  1       -2 0.87854612E-01 0.69379243E+03</pdfrwt>
<totfact> 0.26813283E+00</totfact>
</mgrwt>
</event>
<event>
 4    1  0.6912310E-008  0.3233712E+03  0.7818608E-02  0.1074108E+00
          2   -1    0    0  501    0  0.00000000000E+00  0.00000000000E+00  0.99875524297E+03  0.99875524297E+03  0.25500000000E-02 0. -1.
         -2   -1    0    0    0  501 -0.00000000000E+00 -0.00000000000E+00 -0.10953494635E+03  0.10953494638E+03  0.25500000000E-02 0.  1.
    8880022    1    1    2    0    0  0.14342688971E+03 -0.24618290310E+03  0.32817726872E+03  0.46072689002E+03  0.15294330000E+03 0.  1.
    8880022    1    1    2    0    0 -0.14342688971E+03  0.24618290310E+03  0.56104302790E+03  0.64756329933E+03  0.15294330000E+03 0. -1.
<mgrwt>
<rscale>  0 0.32337122E+03</rscale>
<asrwt>0</asrwt>
<pdfrwt beam="1">  1        2 0.15365465E+00 0.32337122E+03</pdfrwt>
<pdfrwt beam="2">  1       -2 0.16851531E-01 0.32337122E+03</pdfrwt>
<totfact> 0.74088432E+02</totfact>
</mgrwt>
</event>
<event>
 4    1  0.6912310E-008  0.5436939E+03  0.7818608E-02  0.1002964E+00
          2   -1    0    0  501    0  0.00000000000E+00  0.00000000000E+00  0.21362046405E+04  0.21362046405E+04  0.25500000000E-02 0. -1.
         -2   -1    0    0    0  501 -0.00000000000E+00 -0.00000000000E+00 -0.40606210774E+03  0.40606210774E+03  0.25500000000E-02 0.  1.
    8880022    1    1    2    0    0 -0.12104704633E+03  0.50750270772E+03 -0.16699229313E+03  0.56876134253E+03  0.15294330000E+03 0.  0.
    8880022    1    1    2    0    0  0.12104704633E+03 -0.50750270772E+03  0.18971348259E+04  0.19735054057E+04  0.15294330000E+03 0.  0.
<mgrwt>
<rscale>  0 0.54369388E+03</rscale>
<asrwt>0</asrwt>
<pdfrwt beam="1">  1        2 0.32864687E+00 0.54369388E+03</pdfrwt>
<pdfrwt beam="2">  1       -2 0.62471093E-01 0.54369388E+03</pdfrwt>
<totfact> 0.14351421E+01</totfact>
</mgrwt>
</event>
<event>
 4    1  0.6912310E-008  0.7512727E+03  0.7818608E-02  0.9633356E-01
          2   -1    0    0  501    0  0.00000000000E+00  0.00000000000E+00  0.15837234677E+04  0.15837234677E+04  0.25500000000E-02 0. -1.
         -2   -1    0    0    0  501 -0.00000000000E+00 -0.00000000000E+00 -0.42056351651E+03  0.42056351652E+03  0.25500000000E-02 0.  1.
    8880022    1    1    2    0    0 -0.71946670305E+03 -0.15292700852E+03  0.97306832100E+03  0.12293382842E+04  0.15294330000E+03 0.  0.
    8880022    1    1    2    0    0  0.71946670305E+03  0.15292700852E+03  0.19009163017E+03  0.77494869998E+03  0.15294330000E+03 0.  0.
<mgrwt>
<rscale>  0 0.75127269E+03</rscale>
<asrwt>0</asrwt>
<pdfrwt beam="1">  1        2 0.24364976E+00 0.75127269E+03</pdfrwt>
<pdfrwt beam="2">  1       -2 0.64702081E-01 0.75127269E+03</pdfrwt>
<totfact> 0.25735038E+01</totfact>
</mgrwt>
</event>
<event>
 4    1  0.6912310E-008  0.2503927E+03  0.7818608E-02  0.1113057E+00
          2   -1    0    0  501    0  0.00000000000E+00  0.00000000000E+00  0.21714380411E+04  0.21714380411E+04  0.25500000000E-02 0. -1.
         -2   -1    0    0    0  501 -0.00000000000E+00 -0.00000000000E+00 -0.43787573505E+02  0.43787573579E+02  0.25500000000E-02 0.  1.
    8880022    1    1    2    0    0  0.11295697332E+03  0.16292810486E+03  0.41740618919E+03  0.48674883150E+03  0.15294330000E+03 0.  0.
    8880022    1    1    2    0    0 -0.11295697332E+03 -0.16292810486E+03  0.17102442784E+04  0.17284767831E+04  0.15294330000E+03 0. -1.
<mgrwt>
<rscale>  0 0.25039269E+03</rscale>
<asrwt>0</asrwt>
<pdfrwt beam="1">  1        2 0.33406742E+00 0.25039269E+03</pdfrwt>
<pdfrwt beam="2">  1       -2 0.67365493E-02 0.25039269E+03</pdfrwt>
<totfact> 0.74879110E+02</totfact>
</mgrwt>
</event>
<event>
 4    1  0.6912310E-008  0.4462934E+03  0.7818608E-02  0.1028833E+00
         -2   -1    0    0    0  501 -0.00000000000E+00  0.00000000000E+00  0.13404217461E+03  0.13404217463E+03  0.25500000000E-02 0.  1.
          2   -1    0    0  501    0  0.00000000000E+00 -0.00000000000E+00 -0.17360152226E+04  0.17360152226E+04  0.25500000000E-02 0. -1.
    8880022    1    1    2    0    0 -0.40278475601E+03 -0.11640702479E+03 -0.11558724902E+04  0.12390395562E+04  0.15294330000E+03 0.  0.
    8880022    1    1    2    0    0  0.40278475601E+03  0.11640702479E+03 -0.44610055781E+03  0.63101784110E+03  0.15294330000E+03 0.  0.
<mgrwt>
<rscale>  0 0.44629341E+03</rscale>
<asrwt>0</asrwt>
<pdfrwt beam="1">  1        2 0.26707925E+00 0.44629341E+03</pdfrwt>
<pdfrwt beam="2">  1       -2 0.20621874E-01 0.44629341E+03</pdfrwt>
<totfact> 0.19919312E+02</totfact>
</mgrwt>
</event>
<event>
 4    1  0.6912310E-008  0.1864081E+04  0.7818608E-02  0.8672945E-01
          2   -1    0    0  501    0  0.00000000000E+00  0.00000000000E+00  0.44969087714E+04  0.44969087714E+04  0.25500000000E-02 0. -1.
         -2   -1    0    0    0  501 -0.00000000000E+00 -0.00000000000E+00 -0.21326320087E+04  0.21326320087E+04  0.25500000000E-02 0.  1.
    8880022    1    1    2    0    0 -0.67325084703E+03 -0.17315133744E+04 -0.14648548212E+04  0.23707797386E+04  0.15294330000E+03 0.  0.
    8880022    1    1    2    0    0  0.67325084703E+03  0.17315133744E+04  0.38291315839E+04  0.42587610415E+04  0.15294330000E+03 0.  0.
<mgrwt>
<rscale>  0 0.18640807E+04</rscale>
<asrwt>0</asrwt>
<pdfrwt beam="1">  1        2 0.69183211E+00 0.18640807E+04</pdfrwt>
<pdfrwt beam="2">  1       -2 0.32809723E+00 0.18640807E+04</pdfrwt>
<totfact> 0.23977210E-03</totfact>
</mgrwt>
</event>
<event>
 4    1  0.6912310E-008  0.2535423E+03  0.7818608E-02  0.1111086E+00
          2   -1    0    0  501    0  0.00000000000E+00  0.00000000000E+00  0.60947188632E+03  0.60947188632E+03  0.25500000000E-02 0. -1.
         -2   -1    0    0    0  501 -0.00000000000E+00 -0.00000000000E+00 -0.15713166466E+03  0.15713166468E+03  0.25500000000E-02 0.  1.
    8880022    1    1    2    0    0  0.20034584584E+03  0.27451512843E+02  0.44594323140E+03  0.51298056703E+03  0.15294330000E+03 0.  0.
    8880022    1    1    2    0    0 -0.20034584584E+03 -0.27451512843E+02  0.63969902603E+01  0.25362298398E+03  0.15294330000E+03 0.  0.
<mgrwt>
<rscale>  0 0.25354230E+03</rscale>
<asrwt>0</asrwt>
<pdfrwt beam="1">  1        2 0.93764905E-01 0.25354230E+03</pdfrwt>
<pdfrwt beam="2">  1       -2 0.24174102E-01 0.25354230E+03</pdfrwt>
<totfact> 0.75020348E+02</totfact>
</mgrwt>
</event>
<event>
 4    1  0.6912310E-008  0.5286899E+03  0.7818608E-02  0.1006550E+00
         -2   -1    0    0    0  501 -0.00000000000E+00  0.00000000000E+00  0.44098315949E+03  0.44098315949E+03  0.25500000000E-02 0.  1.
          2   -1    0    0  501    0  0.00000000000E+00 -0.00000000000E+00 -0.16236323248E+04  0.16236323248E+04  0.25500000000E-02 0. -1.
    8880022    1    1    2    0    0 -0.35107203080E+03  0.36451313993E+03  0.21467949321E+03  0.57061400072E+03  0.15294330000E+03 0.  1.
    8880022    1    1    2    0    0  0.35107203080E+03 -0.36451313993E+03 -0.13973286585E+04  0.14940014835E+04  0.15294330000E+03 0.  0.
<mgrwt>
<rscale>  0 0.52868994E+03</rscale>
<asrwt>0</asrwt>
<pdfrwt beam="1">  1        2 0.24978959E+00 0.52868994E+03</pdfrwt>
<pdfrwt beam="2">  1       -2 0.67843564E-01 0.52868994E+03</pdfrwt>
<totfact> 0.22827467E+01</totfact>
</mgrwt>
</event>
<event>
 4    1  0.6912310E-008  0.4909697E+03  0.7818608E-02  0.1016163E+00
         -2   -1    0    0    0  501 -0.00000000000E+00  0.00000000000E+00  0.42547638300E+03  0.42547638300E+03  0.25500000000E-02 0.  1.
          2   -1    0    0  501    0  0.00000000000E+00 -0.00000000000E+00 -0.97704109996E+03  0.97704109997E+03  0.25500000000E-02 0. -1.
    8880022    1    1    2    0    0 -0.14643509914E+03  0.44296316332E+03 -0.73032718063E+03  0.88001650331E+03  0.15294330000E+03 0.  0.
    8880022    1    1    2    0    0  0.14643509914E+03 -0.44296316332E+03  0.17876246366E+03  0.52250097966E+03  0.15294330000E+03 0.  0.
<mgrwt>
<rscale>  0 0.49096971E+03</rscale>
<asrwt>0</asrwt>
<pdfrwt beam="1">  1        2 0.15031401E+00 0.49096971E+03</pdfrwt>
<pdfrwt beam="2">  1       -2 0.65457906E-01 0.49096971E+03</pdfrwt>
<totfact> 0.58418031E+01</totfact>
</mgrwt>
</event>
<event>
 4    1  0.6912310E-008  0.6646260E+03  0.7818608E-02  0.9779715E-01
         -2   -1    0    0    0  501 -0.00000000000E+00  0.00000000000E+00  0.12895681897E+04  0.12895681897E+04  0.25500000000E-02 0.  1.
          2   -1    0    0  501    0  0.00000000000E+00 -0.00000000000E+00 -0.52603936462E+03  0.52603936463E+03  0.25500000000E-02 0. -1.
    8880022    1    1    2    0    0  0.54053712087E+03  0.35518406300E+03  0.91793255439E+03  0.11332819266E+04  0.15294330000E+03 0.  0.
    8880022    1    1    2    0    0 -0.54053712087E+03 -0.35518406300E+03 -0.15440372932E+03  0.68232562776E+03  0.15294330000E+03 0.  0.
<mgrwt>
<rscale>  0 0.66462602E+03</rscale>
<asrwt>0</asrwt>
<pdfrwt beam="1">  1        2 0.80929133E-01 0.66462602E+03</pdfrwt>
<pdfrwt beam="2">  1       -2 0.19839511E+00 0.66462602E+03</pdfrwt>
<totfact> 0.81429770E+00</totfact>
</mgrwt>
</event>
<event>
 4    1  0.6912310E-008  0.1532407E+03  0.7818608E-02  0.1196546E+00
          2   -1    0    0  501    0  0.00000000000E+00  0.00000000000E+00  0.25031337326E+04  0.25031337326E+04  0.25500000000E-02 0. -1.
         -2   -1    0    0    0  501 -0.00000000000E+00 -0.00000000000E+00 -0.36752134457E+02  0.36752134545E+02  0.25500000000E-02 0.  1.
    8880022    1    1    2    0    0 -0.70882893209E+01  0.63894333367E+01  0.23291306255E+04  0.23341662735E+04  0.15294330000E+03 0. -1.
    8880022    1    1    2    0    0  0.70882893209E+01 -0.63894333367E+01  0.13725097266E+03  0.20571959366E+03  0.15294330000E+03 0.  0.
<mgrwt>
<rscale>  0 0.15324073E+03</rscale>
<asrwt>0</asrwt>
<pdfrwt beam="1">  1        2 0.38509754E+00 0.15324073E+03</pdfrwt>
<pdfrwt beam="2">  1       -2 0.56541739E-02 0.15324073E+03</pdfrwt>
<totfact> 0.66671498E+02</totfact>
</mgrwt>
</event>
<event>
 4    1  0.6912310E-008  0.5435920E+03  0.7818608E-02  0.1002988E+00
         -2   -1    0    0    0  501 -0.00000000000E+00  0.00000000000E+00  0.52536459010E+03  0.52536459010E+03  0.25500000000E-02 0.  1.
          2   -1    0    0  501    0  0.00000000000E+00 -0.00000000000E+00 -0.10526481750E+04  0.10526481751E+04  0.25500000000E-02 0. -1.
    8880022    1    1    2    0    0 -0.14575163194E+03  0.50085630913E+03 -0.80206524044E+03  0.96891737705E+03  0.15294330000E+03 0.  0.
    8880022    1    1    2    0    0  0.14575163194E+03 -0.50085630913E+03  0.27478165549E+03  0.60909538811E+03  0.15294330000E+03 0.  1.
<mgrwt>
<rscale>  0 0.54359197E+03</rscale>
<asrwt>0</asrwt>
<pdfrwt beam="1">  1        2 0.16194587E+00 0.54359197E+03</pdfrwt>
<pdfrwt beam="2">  1       -2 0.80825322E-01 0.54359197E+03</pdfrwt>
<totfact> 0.32784833E+01</totfact>
</mgrwt>
</event>
<event>
 4    1  0.6912310E-008  0.3684879E+03  0.7818608E-02  0.1055273E+00
         -2   -1    0    0    0  501 -0.00000000000E+00  0.00000000000E+00  0.22270120809E+03  0.22270120810E+03  0.25500000000E-02 0.  1.
          2   -1    0    0  501    0  0.00000000000E+00 -0.00000000000E+00 -0.93386012532E+03  0.93386012532E+03  0.25500000000E-02 0. -1.
    8880022    1    1    2    0    0 -0.32991808607E+03 -0.59545944356E+02 -0.14880845723E+02  0.36878822594E+03  0.15294330000E+03 0.  0.
    8880022    1    1    2    0    0  0.32991808607E+03  0.59545944356E+02 -0.69627807151E+03  0.78777310749E+03  0.15294330000E+03 0.  0.
<mgrwt>
<rscale>  0 0.36848788E+03</rscale>
<asrwt>0</asrwt>
<pdfrwt beam="1">  1        2 0.14367079E+00 0.36848788E+03</pdfrwt>
<pdfrwt beam="2">  1       -2 0.34261725E-01 0.36848788E+03</pdfrwt>
<totfact> 0.23046172E+02</totfact>
</mgrwt>
</event>
<event>
 4    1  0.6912310E-008  0.6532935E+03  0.7818608E-02  0.9800619E-01
         -2   -1    0    0    0  501 -0.00000000000E+00  0.00000000000E+00  0.29316087926E+03  0.29316087927E+03  0.25500000000E-02 0.  1.
          2   -1    0    0  501    0  0.00000000000E+00 -0.00000000000E+00 -0.19307565855E+04  0.19307565855E+04  0.25500000000E-02 0. -1.
    8880022    1    1    2    0    0 -0.62337936574E+03 -0.12165072710E+03 -0.26730717720E+03  0.70586508133E+03  0.15294330000E+03 0.  0.
    8880022    1    1    2    0    0  0.62337936574E+03  0.12165072710E+03 -0.13702885290E+04  0.15180523834E+04  0.15294330000E+03 0.  0.
<mgrwt>
<rscale>  0 0.65329349E+03</rscale>
<asrwt>0</asrwt>
<pdfrwt beam="1">  1        2 0.29703947E+00 0.65329349E+03</pdfrwt>
<pdfrwt beam="2">  1       -2 0.45101675E-01 0.65329349E+03</pdfrwt>
<totfact> 0.35531899E+01</totfact>
</mgrwt>
</event>
<event>
 4    1  0.6912310E-008  0.5429753E+03  0.7818608E-02  0.1003133E+00
         -2   -1    0    0    0  501 -0.00000000000E+00  0.00000000000E+00  0.38576499303E+03  0.38576499304E+03  0.25500000000E-02 0.  1.
          2   -1    0    0  501    0  0.00000000000E+00 -0.00000000000E+00 -0.98271379622E+03  0.98271379623E+03  0.25500000000E-02 0. -1.
    8880022    1    1    2    0    0 -0.19179579288E+03 -0.48440154410E+03 -0.62108682933E+03  0.82496726279E+03  0.15294330000E+03 0.  0.
    8880022    1    1    2    0    0  0.19179579288E+03  0.48440154410E+03  0.24138026138E+02  0.54351152647E+03  0.15294330000E+03 0.  0.
<mgrwt>
<rscale>  0 0.54297526E+03</rscale>
<asrwt>0</asrwt>
<pdfrwt beam="1">  1        2 0.15118674E+00 0.54297526E+03</pdfrwt>
<pdfrwt beam="2">  1       -2 0.59348461E-01 0.54297526E+03</pdfrwt>
<totfact> 0.70854445E+01</totfact>
</mgrwt>
</event>
<event>
 4    1  0.6912310E-008  0.9599233E+03  0.7818608E-02  0.9353626E-01
          2   -1    0    0  501    0  0.00000000000E+00  0.00000000000E+00  0.19763294786E+04  0.19763294786E+04  0.25500000000E-02 0. -1.
         -2   -1    0    0    0  501 -0.00000000000E+00 -0.00000000000E+00 -0.53480500203E+03  0.53480500204E+03  0.25500000000E-02 0.  1.
    8880022    1    1    2    0    0 -0.90771551979E+03 -0.27223809493E+03  0.11703136050E+04  0.15136335859E+04  0.15294330000E+03 0.  0.
    8880022    1    1    2    0    0  0.90771551979E+03  0.27223809493E+03  0.27121087156E+03  0.99750089477E+03  0.15294330000E+03 0.  0.
<mgrwt>
<rscale>  0 0.95992328E+03</rscale>
<asrwt>0</asrwt>
<pdfrwt beam="1">  1        2 0.30405069E+00 0.95992328E+03</pdfrwt>
<pdfrwt beam="2">  1       -2 0.82277692E-01 0.95992328E+03</pdfrwt>
<totfact> 0.89913663E+00</totfact>
</mgrwt>
</event>
<event>
 4    1  0.6912310E-008  0.3512180E+03  0.7818608E-02  0.1062116E+00
         -2   -1    0    0    0  501 -0.00000000000E+00  0.00000000000E+00  0.31060111019E+03  0.31060111020E+03  0.25500000000E-02 0.  1.
          2   -1    0    0  501    0  0.00000000000E+00 -0.00000000000E+00 -0.83316581611E+03  0.83316581612E+03  0.25500000000E-02 0. -1.
    8880022    1    1    2    0    0 -0.14520869227E+03  0.28085024436E+03  0.15242647541E+03  0.38286800270E+03  0.15294330000E+03 0.  0.
    8880022    1    1    2    0    0  0.14520869227E+03 -0.28085024436E+03 -0.67499118133E+03  0.76089892362E+03  0.15294330000E+03 0.  0.
<mgrwt>
<rscale>  0 0.35121799E+03</rscale>
<asrwt>0</asrwt>
<pdfrwt beam="1">  1        2 0.12817936E+00 0.35121799E+03</pdfrwt>
<pdfrwt beam="2">  1       -2 0.47784787E-01 0.35121799E+03</pdfrwt>
<totfact> 0.14159519E+02</totfact>
</mgrwt>
</event>
<event>
 4    1  0.6912310E-008  0.3578877E+03  0.7818608E-02  0.1059423E+00
          2   -1    0    0  501    0  0.00000000000E+00  0.00000000000E+00  0.66142889016E+03  0.66142889016E+03  0.25500000000E-02 0. -1.
         -2   -1    0    0    0  501 -0.00000000000E+00 -0.00000000000E+00 -0.63978084349E+03  0.63978084350E+03  0.25500000000E-02 0.  1.
    8880022    1    1    2    0    0 -0.26400779917E+03 -0.18706113695E+03 -0.53246925960E+03  0.64156617150E+03  0.15294330000E+03 0.  1.
    8880022    1    1    2    0    0  0.26400779917E+03  0.18706113695E+03  0.55411730626E+03  0.65964356216E+03  0.15294330000E+03 0.  0.
<mgrwt>
<rscale>  0 0.35788775E+03</rscale>
<asrwt>0</asrwt>
<pdfrwt beam="1">  1        2 0.10175829E+00 0.35788775E+03</pdfrwt>
<pdfrwt beam="2">  1       -2 0.98427822E-01 0.35788775E+03</pdfrwt>
<totfact> 0.39912185E+01</totfact>
</mgrwt>
</event>
<event>
 4    1  0.6912310E-008  0.2606123E+03  0.7818608E-02  0.1106776E+00
         -2   -1    0    0    0  501 -0.00000000000E+00  0.00000000000E+00  0.21268840634E+03  0.21268840636E+03  0.25500000000E-02 0.  1.
          2   -1    0    0  501    0  0.00000000000E+00 -0.00000000000E+00 -0.21778305070E+04  0.21778305070E+04  0.25500000000E-02 0. -1.
    8880022    1    1    2    0    0  0.11920824397E+02  0.21067755469E+03  0.12158623224E+03  0.28757955940E+03  0.15294330000E+03 0.  1.
    8880022    1    1    2    0    0 -0.11920824397E+02 -0.21067755469E+03 -0.20867283329E+04  0.21029393540E+04  0.15294330000E+03 0.  0.
<mgrwt>
<rscale>  0 0.26061234E+03</rscale>
<asrwt>0</asrwt>
<pdfrwt beam="1">  1        2 0.33505083E+00 0.26061234E+03</pdfrwt>
<pdfrwt beam="2">  1       -2 0.32721295E-01 0.26061234E+03</pdfrwt>
<totfact> 0.52929887E+01</totfact>
</mgrwt>
</event>
<event>
 4    1  0.7603320E-008  0.7912496E+03  0.7818608E-02  0.9572770E-01
         -2   -1    0    0    0  501 -0.00000000000E+00  0.00000000000E+00  0.62124283584E+03  0.62124283584E+03  0.25500000000E-02 0.  1.
          2   -1    0    0  501    0  0.00000000000E+00 -0.00000000000E+00 -0.35476982411E+04  0.35476982411E+04  0.25500000000E-02 0. -1.
    8880022    1    1    2    0    0  0.27637535555E+03 -0.72546603568E+03  0.30050315635E+03  0.84639122518E+03  0.15294330000E+03 0.  0.
    8880022    1    1    2    0    0 -0.27637535555E+03  0.72546603568E+03 -0.32269585617E+04  0.33225498518E+04  0.15294330000E+03 0.  0.
<mgrwt>
<rscale>  0 0.79124962E+03</rscale>
<asrwt>0</asrwt>
<pdfrwt beam="1">  1        2 0.54579972E+00 0.79124962E+03</pdfrwt>
<pdfrwt beam="2">  1       -2 0.95575823E-01 0.79124962E+03</pdfrwt>
<totfact> 0.74692627E-01</totfact>
</mgrwt>
</event>
<event>
 4    1  0.6912310E-008  0.1006086E+04  0.7818608E-02  0.9301895E-01
         -2   -1    0    0    0  501 -0.00000000000E+00  0.00000000000E+00  0.70422155290E+03  0.70422155291E+03  0.25500000000E-02 0.  1.
          2   -1    0    0  501    0  0.00000000000E+00 -0.00000000000E+00 -0.24289617021E+04  0.24289617021E+04  0.25500000000E-02 0. -1.
    8880022    1    1    2    0    0 -0.86732936158E+03  0.48637186475E+03 -0.18633315005E+04  0.21175962189E+04  0.15294330000E+03 0.  0.
    8880022    1    1    2    0    0  0.86732936158E+03 -0.48637186475E+03  0.13859135133E+03  0.10155870361E+04  0.15294330000E+03 0.  0.
<mgrwt>
<rscale>  0 0.10060862E+04</rscale>
<asrwt>0</asrwt>
<pdfrwt beam="1">  1        2 0.37368641E+00 0.10060862E+04</pdfrwt>
<pdfrwt beam="2">  1       -2 0.10834178E+00 0.10060862E+04</pdfrwt>
<totfact> 0.26230458E+00</totfact>
</mgrwt>
</event>
<event>
 4    1  0.6912310E-008  0.5082492E+03  0.7818608E-02  0.1011648E+00
         -2   -1    0    0    0  501 -0.00000000000E+00  0.00000000000E+00  0.48195763758E+03  0.48195763758E+03  0.25500000000E-02 0.  1.
          2   -1    0    0  501    0  0.00000000000E+00 -0.00000000000E+00 -0.16876100378E+04  0.16876100378E+04  0.25500000000E-02 0. -1.
    8880022    1    1    2    0    0  0.46776710111E+03  0.12696257138E+03  0.29329057035E+03  0.58680198286E+03  0.15294330000E+03 0.  0.
    8880022    1    1    2    0    0 -0.46776710111E+03 -0.12696257138E+03 -0.14989429706E+04  0.15827656925E+04  0.15294330000E+03 0.  0.
<mgrwt>
<rscale>  0 0.50824916E+03</rscale>
<asrwt>0</asrwt>
<pdfrwt beam="1">  1        2 0.25963231E+00 0.50824916E+03</pdfrwt>
<pdfrwt beam="2">  1       -2 0.74147329E-01 0.50824916E+03</pdfrwt>
<totfact> 0.17435247E+01</totfact>
</mgrwt>
</event>
<event>
 4    1  0.6912310E-008  0.3660435E+03  0.7818608E-02  0.1056216E+00
          2   -1    0    0  501    0  0.00000000000E+00  0.00000000000E+00  0.10112092639E+04  0.10112092639E+04  0.25500000000E-02 0. -1.
         -2   -1    0    0    0  501 -0.00000000000E+00 -0.00000000000E+00 -0.27526931978E+03  0.27526931979E+03  0.25500000000E-02 0.  1.
    8880022    1    1    2    0    0 -0.41007774418E+02  0.33002205659E+03 -0.95271212265E+02  0.37823861820E+03  0.15294330000E+03 0.  0.
    8880022    1    1    2    0    0  0.41007774418E+02 -0.33002205659E+03  0.83121115638E+03  0.90823996549E+03  0.15294330000E+03 0.  0.
<mgrwt>
<rscale>  0 0.36604351E+03</rscale>
<asrwt>0</asrwt>
<pdfrwt beam="1">  1        2 0.15557066E+00 0.36604351E+03</pdfrwt>
<pdfrwt beam="2">  1       -2 0.42349126E-01 0.36604351E+03</pdfrwt>
<totfact> 0.13742555E+02</totfact>
</mgrwt>
</event>
<event>
 4    1  0.6912310E-008  0.7702742E+03  0.7818608E-02  0.9604070E-01
         -2   -1    0    0    0  501 -0.00000000000E+00  0.00000000000E+00  0.48980105468E+03  0.48980105469E+03  0.25500000000E-02 0.  1.
          2   -1    0    0  501    0  0.00000000000E+00 -0.00000000000E+00 -0.23122365210E+04  0.23122365210E+04  0.25500000000E-02 0. -1.
    8880022    1    1    2    0    0  0.18224642716E+03 -0.73260964239E+03  0.55497107698E+02  0.77227082705E+03  0.15294330000E+03 0.  0.
    8880022    1    1    2    0    0 -0.18224642716E+03  0.73260964239E+03 -0.18779325740E+04  0.20297667487E+04  0.15294330000E+03 0.  0.
<mgrwt>
<rscale>  0 0.77027417E+03</rscale>
<asrwt>0</asrwt>
<pdfrwt beam="1">  1        2 0.35572869E+00 0.77027417E+03</pdfrwt>
<pdfrwt beam="2">  1       -2 0.75354009E-01 0.77027417E+03</pdfrwt>
<totfact> 0.73353838E+00</totfact>
</mgrwt>
</event>
<event>
 4    1  0.6912310E-008  0.4938886E+03  0.7818608E-02  0.1015386E+00
         -2   -1    0    0    0  501 -0.00000000000E+00  0.00000000000E+00  0.93436474058E+02  0.93436474092E+02  0.25500000000E-02 0.  1.
          2   -1    0    0  501    0  0.00000000000E+00 -0.00000000000E+00 -0.37844175483E+04  0.37844175483E+04  0.25500000000E-02 0. -1.
    8880022    1    1    2    0    0  0.31498019707E+03 -0.34831280688E+03 -0.29253339691E+04  0.29667330213E+04  0.15294330000E+03 0.  0.
    8880022    1    1    2    0    0 -0.31498019707E+03  0.34831280688E+03 -0.76564710517E+03  0.91112100110E+03  0.15294330000E+03 0.  0.
<mgrwt>
<rscale>  0 0.49388864E+03</rscale>
<asrwt>0</asrwt>
<pdfrwt beam="1">  1        2 0.58221796E+00 0.49388864E+03</pdfrwt>
<pdfrwt beam="2">  1       -2 0.14374845E-01 0.49388864E+03</pdfrwt>
<totfact> 0.21921727E+01</totfact>
</mgrwt>
</event>
<event>
 4    1  0.6912310E-008  0.5292513E+03  0.7818608E-02  0.1006414E+00
          2   -1    0    0  501    0  0.00000000000E+00  0.00000000000E+00  0.11882363187E+04  0.11882363187E+04  0.25500000000E-02 0. -1.
         -2   -1    0    0    0  501 -0.00000000000E+00 -0.00000000000E+00 -0.31991550795E+03  0.31991550796E+03  0.25500000000E-02 0.  1.
    8880022    1    1    2    0    0  0.38725515546E+03 -0.32672427935E+03  0.82097902704E+03  0.97678734943E+03  0.15294330000E+03 0.  0.
    8880022    1    1    2    0    0 -0.38725515546E+03  0.32672427935E+03  0.47341783693E+02  0.53136447721E+03  0.15294330000E+03 0.  0.
<mgrwt>
<rscale>  0 0.52925132E+03</rscale>
<asrwt>0</asrwt>
<pdfrwt beam="1">  1        2 0.18280559E+00 0.52925132E+03</pdfrwt>
<pdfrwt beam="2">  1       -2 0.49217770E-01 0.52925132E+03</pdfrwt>
<totfact> 0.78177467E+01</totfact>
</mgrwt>
</event>
<event>
 4    1  0.6912310E-008  0.8713443E+03  0.7818608E-02  0.9462129E-01
          2   -1    0    0  501    0  0.00000000000E+00  0.00000000000E+00  0.13501773855E+04  0.13501773855E+04  0.25500000000E-02 0. -1.
         -2   -1    0    0    0  501 -0.00000000000E+00 -0.00000000000E+00 -0.93820349894E+03  0.93820349895E+03  0.25500000000E-02 0.  1.
    8880022    1    1    2    0    0  0.16280010769E+03 -0.84222648098E+03  0.93021021235E+03  0.12745713054E+04  0.15294330000E+03 0.  0.
    8880022    1    1    2    0    0 -0.16280010769E+03  0.84222648098E+03 -0.51823632576E+03  0.10138095791E+04  0.15294330000E+03 0.  0.
<mgrwt>
<rscale>  0 0.87134435E+03</rscale>
<asrwt>0</asrwt>
<pdfrwt beam="1">  1        2 0.20771960E+00 0.87134435E+03</pdfrwt>
<pdfrwt beam="2">  1       -2 0.14433900E+00 0.87134435E+03</pdfrwt>
<totfact> 0.51616198E+00</totfact>
</mgrwt>
</event>
<event>
 4    1  0.6912310E-008  0.2852851E+03  0.7818608E-02  0.1092837E+00
         -2   -1    0    0    0  501 -0.00000000000E+00  0.00000000000E+00  0.15320218425E+03  0.15320218427E+03  0.25500000000E-02 0.  1.
          2   -1    0    0  501    0  0.00000000000E+00 -0.00000000000E+00 -0.10804986812E+04  0.10804986812E+04  0.25500000000E-02 0. -1.
    8880022    1    1    2    0    0 -0.46881392551E+02  0.23621609297E+03 -0.23848372285E+02  0.28628011705E+03  0.15294330000E+03 0.  0.
    8880022    1    1    2    0    0  0.46881392551E+02 -0.23621609297E+03 -0.90344812463E+03  0.94742074838E+03  0.15294330000E+03 0. -1.
<mgrwt>
<rscale>  0 0.28528505E+03</rscale>
<asrwt>0</asrwt>
<pdfrwt beam="1">  1        2 0.16623056E+00 0.28528505E+03</pdfrwt>
<pdfrwt beam="2">  1       -2 0.23569567E-01 0.28528505E+03</pdfrwt>
<totfact> 0.37212791E+02</totfact>
</mgrwt>
</event>
<event>
 4    1  0.6912310E-008  0.5241189E+03  0.7818608E-02  0.1007668E+00
          2   -1    0    0  501    0  0.00000000000E+00  0.00000000000E+00  0.65946545281E+03  0.65946545282E+03  0.25500000000E-02 0. -1.
         -2   -1    0    0    0  501 -0.00000000000E+00 -0.00000000000E+00 -0.83851415533E+03  0.83851415534E+03  0.25500000000E-02 0.  1.
    8880022    1    1    2    0    0 -0.99776278763E+02  0.49127761404E+03 -0.62084688883E+03  0.81249708445E+03  0.15294330000E+03 0.  0.
    8880022    1    1    2    0    0  0.99776278763E+02 -0.49127761404E+03  0.44179818631E+03  0.68548252370E+03  0.15294330000E+03 0.  0.
<mgrwt>
<rscale>  0 0.52411893E+03</rscale>
<asrwt>0</asrwt>
<pdfrwt beam="1">  1        2 0.10145622E+00 0.52411893E+03</pdfrwt>
<pdfrwt beam="2">  1       -2 0.12900218E+00 0.52411893E+03</pdfrwt>
<totfact> 0.20325265E+01</totfact>
</mgrwt>
</event>
<event>
 4    1  0.6912310E-008  0.1568136E+04  0.7818608E-02  0.8840366E-01
          2   -1    0    0  501    0  0.00000000000E+00  0.00000000000E+00  0.30570170418E+04  0.30570170418E+04  0.25500000000E-02 0. -1.
         -2   -1    0    0    0  501 -0.00000000000E+00 -0.00000000000E+00 -0.16899604212E+04  0.16899604212E+04  0.25500000000E-02 0.  1.
    8880022    1    1    2    0    0 -0.15452785165E+04  0.21856795717E+03 -0.10346143710E+04  0.18786900210E+04  0.15294330000E+03 0.  0.
    8880022    1    1    2    0    0  0.15452785165E+04 -0.21856795717E+03  0.24016709916E+04  0.28682874420E+04  0.15294330000E+03 0.  0.
<mgrwt>
<rscale>  0 0.15681356E+04</rscale>
<asrwt>0</asrwt>
<pdfrwt beam="1">  1        2 0.47031031E+00 0.15681356E+04</pdfrwt>
<pdfrwt beam="2">  1       -2 0.25999392E+00 0.15681356E+04</pdfrwt>
<totfact> 0.83396123E-02</totfact>
</mgrwt>
</event>
<event>
 4    1  0.6912310E-008  0.4954767E+03  0.7818608E-02  0.1014966E+00
         -2   -1    0    0    0  501 -0.00000000000E+00  0.00000000000E+00  0.45244619707E+03  0.45244619707E+03  0.25500000000E-02 0.  1.
          2   -1    0    0  501    0  0.00000000000E+00 -0.00000000000E+00 -0.18908697287E+04  0.18908697287E+04  0.25500000000E-02 0. -1.
    8880022    1    1    2    0    0  0.47035035858E+03 -0.29598716845E+02 -0.17085811676E+04  0.17789735251E+04  0.15294330000E+03 0. -1.
    8880022    1    1    2    0    0 -0.47035035858E+03  0.29598716845E+02  0.27015763597E+03  0.56434240063E+03  0.15294330000E+03 0.  0.
<mgrwt>
<rscale>  0 0.49547674E+03</rscale>
<asrwt>0</asrwt>
<pdfrwt beam="1">  1        2 0.29090303E+00 0.49547674E+03</pdfrwt>
<pdfrwt beam="2">  1       -2 0.69607109E-01 0.49547674E+03</pdfrwt>
<totfact> 0.15597332E+01</totfact>
</mgrwt>
</event>
<event>
 4    1  0.6912310E-008  0.7563685E+03  0.7818608E-02  0.9625412E-01
         -2   -1    0    0    0  501 -0.00000000000E+00  0.00000000000E+00  0.47524891640E+03  0.47524891641E+03  0.25500000000E-02 0.  1.
          2   -1    0    0  501    0  0.00000000000E+00 -0.00000000000E+00 -0.13802071155E+04  0.13802071155E+04  0.25500000000E-02 0. -1.
    8880022    1    1    2    0    0  0.24945870101E+03 -0.69747540617E+03 -0.12078623191E+03  0.76595205631E+03  0.15294330000E+03 0.  0.
    8880022    1    1    2    0    0 -0.24945870101E+03  0.69747540617E+03 -0.78417196722E+03  0.10895039756E+04  0.15294330000E+03 0.  0.
<mgrwt>
<rscale>  0 0.75636845E+03</rscale>
<asrwt>0</asrwt>
<pdfrwt beam="1">  1        2 0.21233955E+00 0.75636845E+03</pdfrwt>
<pdfrwt beam="2">  1       -2 0.73115218E-01 0.75636845E+03</pdfrwt>
<totfact> 0.25617178E+01</totfact>
</mgrwt>
</event>
<event>
 4    1  0.6912310E-008  0.6891915E+03  0.7818608E-02  0.9735897E-01
         -2   -1    0    0    0  501 -0.00000000000E+00  0.00000000000E+00  0.69477839223E+03  0.69477839223E+03  0.25500000000E-02 0.  1.
          2   -1    0    0  501    0  0.00000000000E+00 -0.00000000000E+00 -0.10991147263E+04  0.10991147263E+04  0.25500000000E-02 0. -1.
    8880022    1    1    2    0    0  0.28893951738E+03 -0.60671843104E+03 -0.75362605842E+03  0.10212429624E+04  0.15294330000E+03 0.  0.
    8880022    1    1    2    0    0 -0.28893951738E+03  0.60671843104E+03  0.34928972434E+03  0.77265015616E+03  0.15294330000E+03 0.  0.
<mgrwt>
<rscale>  0 0.68919152E+03</rscale>
<asrwt>0</asrwt>
<pdfrwt beam="1">  1        2 0.16909457E+00 0.68919152E+03</pdfrwt>
<pdfrwt beam="2">  1       -2 0.10688898E+00 0.68919152E+03</pdfrwt>
<totfact> 0.15750217E+01</totfact>
</mgrwt>
</event>
<event>
 4    1  0.6912310E-008  0.7091469E+03  0.7818608E-02  0.9701716E-01
          2   -1    0    0  501    0  0.00000000000E+00  0.00000000000E+00  0.20704167747E+04  0.20704167747E+04  0.25500000000E-02 0. -1.
         -2   -1    0    0    0  501 -0.00000000000E+00 -0.00000000000E+00 -0.31338510629E+03  0.31338510630E+03  0.25500000000E-02 0.  1.
    8880022    1    1    2    0    0 -0.11007844489E+03  0.68365228152E+03  0.14438064801E+04  0.16085603847E+04  0.15294330000E+03 0.  0.
    8880022    1    1    2    0    0  0.11007844489E+03 -0.68365228152E+03  0.31322518829E+03  0.77524149635E+03  0.15294330000E+03 0.  0.
<mgrwt>
<rscale>  0 0.70914692E+03</rscale>
<asrwt>0</asrwt>
<pdfrwt beam="1">  1        2 0.31852566E+00 0.70914692E+03</pdfrwt>
<pdfrwt beam="2">  1       -2 0.48213093E-01 0.70914692E+03</pdfrwt>
<totfact> 0.25883319E+01</totfact>
</mgrwt>
</event>
<event>
 4    1  0.6912310E-008  0.7925536E+03  0.7818608E-02  0.9570858E-01
         -2   -1    0    0    0  501 -0.00000000000E+00  0.00000000000E+00  0.87544763482E+03  0.87544763482E+03  0.25500000000E-02 0.  1.
          2   -1    0    0  501    0  0.00000000000E+00 -0.00000000000E+00 -0.79404777218E+03  0.79404777218E+03  0.25500000000E-02 0. -1.
    8880022    1    1    2    0    0  0.72266969838E+03  0.28722465428E+03 -0.21846365922E+03  0.82211162162E+03  0.15294330000E+03 0.  0.
    8880022    1    1    2    0    0 -0.72266969838E+03 -0.28722465428E+03  0.29986352186E+03  0.84738378539E+03  0.15294330000E+03 0.  0.
<mgrwt>
<rscale>  0 0.79255356E+03</rscale>
<asrwt>0</asrwt>
<pdfrwt beam="1">  1        2 0.12216120E+00 0.79255356E+03</pdfrwt>
<pdfrwt beam="2">  1       -2 0.13468425E+00 0.79255356E+03</pdfrwt>
<totfact> 0.13956805E+01</totfact>
</mgrwt>
</event>
<event>
 4    1  0.6912310E-008  0.4936186E+03  0.7818608E-02  0.1015458E+00
         -2   -1    0    0    0  501 -0.00000000000E+00  0.00000000000E+00  0.22128323312E+03  0.22128323314E+03  0.25500000000E-02 0.  1.
          2   -1    0    0  501    0  0.00000000000E+00 -0.00000000000E+00 -0.14495224704E+04  0.14495224704E+04  0.25500000000E-02 0. -1.
    8880022    1    1    2    0    0  0.26331068546E+03 -0.38850379288E+03 -0.20455336566E+03  0.53432335395E+03  0.15294330000E+03 0.  0.
    8880022    1    1    2    0    0 -0.26331068546E+03  0.38850379288E+03 -0.10236858717E+04  0.11364823496E+04  0.15294330000E+03 0.  0.
<mgrwt>
<rscale>  0 0.49361865E+03</rscale>
<asrwt>0</asrwt>
<pdfrwt beam="1">  1        2 0.22300345E+00 0.49361865E+03</pdfrwt>
<pdfrwt beam="2">  1       -2 0.34043575E-01 0.49361865E+03</pdfrwt>
<totfact> 0.11443432E+02</totfact>
</mgrwt>
</event>
<event>
 4    1  0.6912310E-008  0.1264676E+04  0.7818608E-02  0.9058056E-01
          2   -1    0    0  501    0  0.00000000000E+00  0.00000000000E+00  0.13116132316E+04  0.13116132316E+04  0.25500000000E-02 0. -1.
         -2   -1    0    0    0  501 -0.00000000000E+00 -0.00000000000E+00 -0.13472177982E+04  0.13472177982E+04  0.25500000000E-02 0.  1.
    8880022    1    1    2    0    0  0.26559280170E+03  0.12269777173E+04 -0.42725709823E+03  0.13348985490E+04  0.15294330000E+03 0.  0.
    8880022    1    1    2    0    0 -0.26559280170E+03 -0.12269777173E+04  0.39165253159E+03  0.13239324808E+04  0.15294330000E+03 0.  0.
<mgrwt>
<rscale>  0 0.12646760E+04</rscale>
<asrwt>0</asrwt>
<pdfrwt beam="1">  1        2 0.20178665E+00 0.12646760E+04</pdfrwt>
<pdfrwt beam="2">  1       -2 0.20726428E+00 0.12646760E+04</pdfrwt>
<totfact> 0.18714640E+00</totfact>
</mgrwt>
</event>
<event>
 4    1  0.6912310E-008  0.5333273E+03  0.7818608E-02  0.1005428E+00
         -2   -1    0    0    0  501 -0.00000000000E+00  0.00000000000E+00  0.50767589224E+03  0.50767589224E+03  0.25500000000E-02 0.  1.
          2   -1    0    0  501    0  0.00000000000E+00 -0.00000000000E+00 -0.22252933513E+04  0.22252933513E+04  0.25500000000E-02 0. -1.
    8880022    1    1    2    0    0 -0.15471809765E+03 -0.48693800865E+03  0.32319994162E+03  0.62361540174E+03  0.15294330000E+03 0.  0.
    8880022    1    1    2    0    0  0.15471809765E+03  0.48693800865E+03 -0.20408174007E+04  0.21093538418E+04  0.15294330000E+03 0.  0.
<mgrwt>
<rscale>  0 0.53332726E+03</rscale>
<asrwt>0</asrwt>
<pdfrwt beam="1">  1        2 0.34235282E+00 0.53332726E+03</pdfrwt>
<pdfrwt beam="2">  1       -2 0.78103984E-01 0.53332726E+03</pdfrwt>
<totfact> 0.79198634E+00</totfact>
</mgrwt>
</event>
<event>
 4    1  0.6912310E-008  0.6287817E+03  0.7818608E-02  0.9847429E-01
         -2   -1    0    0    0  501 -0.00000000000E+00  0.00000000000E+00  0.18669395137E+04  0.18669395137E+04  0.25500000000E-02 0.  1.
          2   -1    0    0  501    0  0.00000000000E+00 -0.00000000000E+00 -0.26154062199E+03  0.26154062200E+03  0.25500000000E-02 0. -1.
    8880022    1    1    2    0    0  0.37885304973E+03  0.47795933464E+03  0.33845604298E+03  0.71408606267E+03  0.15294330000E+03 0.  0.
    8880022    1    1    2    0    0 -0.37885304973E+03 -0.47795933464E+03  0.12669428487E+04  0.14143940730E+04  0.15294330000E+03 0.  0.
<mgrwt>
<rscale>  0 0.62878169E+03</rscale>
<asrwt>0</asrwt>
<pdfrwt beam="1">  1        2 0.40237018E-01 0.62878169E+03</pdfrwt>
<pdfrwt beam="2">  1       -2 0.28722147E+00 0.62878169E+03</pdfrwt>
<totfact> 0.51274653E+00</totfact>
</mgrwt>
</event>
<event>
 4    1  0.6912310E-008  0.4928755E+03  0.7818608E-02  0.1015655E+00
          2   -1    0    0  501    0  0.00000000000E+00  0.00000000000E+00  0.33850958027E+04  0.33850958027E+04  0.25500000000E-02 0. -1.
         -2   -1    0    0    0  501 -0.00000000000E+00 -0.00000000000E+00 -0.89972746748E+02  0.89972746784E+02  0.25500000000E-02 0.  1.
    8880022    1    1    2    0    0  0.26206099050E+03 -0.38840523245E+03  0.86589021958E+03  0.99633935620E+03  0.15294330000E+03 0.  0.
    8880022    1    1    2    0    0 -0.26206099050E+03  0.38840523245E+03  0.24292328364E+04  0.24787291933E+04  0.15294330000E+03 0.  0.
<mgrwt>
<rscale>  0 0.49287548E+03</rscale>
<asrwt>0</asrwt>
<pdfrwt beam="1">  1        2 0.52078389E+00 0.49287548E+03</pdfrwt>
<pdfrwt beam="2">  1       -2 0.13841963E-01 0.49287548E+03</pdfrwt>
<totfact> 0.44056802E+01</totfact>
</mgrwt>
</event>
<event>
 4    1  0.6912310E-008  0.1463796E+04  0.7818608E-02  0.8908892E-01
          2   -1    0    0  501    0  0.00000000000E+00  0.00000000000E+00  0.45629836762E+04  0.45629836762E+04  0.25500000000E-02 0. -1.
         -2   -1    0    0    0  501 -0.00000000000E+00 -0.00000000000E+00 -0.97813878603E+03  0.97813878604E+03  0.25500000000E-02 0.  1.
    8880022    1    1    2    0    0  0.13257505561E+04  0.60140836547E+03 -0.20530823355E+03  0.14781237035E+04  0.15294330000E+03 0.  0.
    8880022    1    1    2    0    0 -0.13257505561E+04 -0.60140836547E+03  0.37901531237E+04  0.40629987587E+04  0.15294330000E+03 0.  0.
<mgrwt>
<rscale>  0 0.14637958E+04</rscale>
<asrwt>0</asrwt>
<pdfrwt beam="1">  1        2 0.70199749E+00 0.14637958E+04</pdfrwt>
<pdfrwt beam="2">  1       -2 0.15048289E+00 0.14637958E+04</pdfrwt>
<totfact> 0.30980606E-02</totfact>
</mgrwt>
</event>
<event>
 4    1  0.6912310E-008  0.5831330E+03  0.7818608E-02  0.9941031E-01
         -2   -1    0    0    0  501 -0.00000000000E+00  0.00000000000E+00  0.46270414480E+03  0.46270414480E+03  0.25500000000E-02 0.  1.
          2   -1    0    0  501    0  0.00000000000E+00 -0.00000000000E+00 -0.13870947723E+04  0.13870947723E+04  0.25500000000E-02 0. -1.
    8880022    1    1    2    0    0  0.52101710869E+03 -0.21258788649E+03  0.17200739046E+03  0.60797255893E+03  0.15294330000E+03 0.  0.
    8880022    1    1    2    0    0 -0.52101710869E+03  0.21258788649E+03 -0.10963980179E+04  0.12418263581E+04  0.15294330000E+03 0.  0.
<mgrwt>
<rscale>  0 0.58313300E+03</rscale>
<asrwt>0</asrwt>
<pdfrwt beam="1">  1        2 0.21339919E+00 0.58313300E+03</pdfrwt>
<pdfrwt beam="2">  1       -2 0.71185254E-01 0.58313300E+03</pdfrwt>
<totfact> 0.27525408E+01</totfact>
</mgrwt>
</event>
<event>
 4    1  0.6912310E-008  0.8027406E+03  0.7818608E-02  0.9556059E-01
          2   -1    0    0  501    0  0.00000000000E+00  0.00000000000E+00  0.12535037766E+04  0.12535037766E+04  0.25500000000E-02 0. -1.
         -2   -1    0    0    0  501 -0.00000000000E+00 -0.00000000000E+00 -0.10498078725E+04  0.10498078725E+04  0.25500000000E-02 0.  1.
    8880022    1    1    2    0    0  0.70422638656E+03 -0.35364674802E+03 -0.72085440923E+03  0.10788992345E+04  0.15294330000E+03 0.  0.
    8880022    1    1    2    0    0 -0.70422638656E+03  0.35364674802E+03  0.92455031334E+03  0.12244124145E+04  0.15294330000E+03 0.  0.
<mgrwt>
<rscale>  0 0.80274061E+03</rscale>
<asrwt>0</asrwt>
<pdfrwt beam="1">  1        2 0.19284674E+00 0.80274061E+03</pdfrwt>
<pdfrwt beam="2">  1       -2 0.16150890E+00 0.80274061E+03</pdfrwt>
<totfact> 0.43890044E+00</totfact>
</mgrwt>
</event>
<event>
 4    1  0.6912310E-008  0.7244186E+03  0.7818608E-02  0.9676361E-01
          2   -1    0    0  501    0  0.00000000000E+00  0.00000000000E+00  0.30658812452E+04  0.30658812452E+04  0.25500000000E-02 0. -1.
         -2   -1    0    0    0  501 -0.00000000000E+00 -0.00000000000E+00 -0.63582386355E+03  0.63582386355E+03  0.25500000000E-02 0.  1.
    8880022    1    1    2    0    0  0.41814957805E+03  0.57143820589E+03  0.27972560148E+04  0.28895369107E+04  0.15294330000E+03 0.  0.
    8880022    1    1    2    0    0 -0.41814957805E+03 -0.57143820589E+03 -0.36719863315E+03  0.81216819808E+03  0.15294330000E+03 0.  0.
<mgrwt>
<rscale>  0 0.72441863E+03</rscale>
<asrwt>0</asrwt>
<pdfrwt beam="1">  1        2 0.47167404E+00 0.72441863E+03</pdfrwt>
<pdfrwt beam="2">  1       -2 0.97819056E-01 0.72441863E+03</pdfrwt>
<totfact> 0.14818388E+00</totfact>
</mgrwt>
</event>
<event>
 4    1  0.6912310E-008  0.7292660E+03  0.7818608E-02  0.9668452E-01
          2   -1    0    0  501    0  0.00000000000E+00  0.00000000000E+00  0.69800133537E+03  0.69800133537E+03  0.25500000000E-02 0. -1.
         -2   -1    0    0    0  501 -0.00000000000E+00 -0.00000000000E+00 -0.94095155632E+03  0.94095155632E+03  0.25500000000E-02 0.  1.
    8880022    1    1    2    0    0  0.48219610573E+03 -0.52528479543E+03  0.23596583237E+03  0.76649117917E+03  0.15294330000E+03 0.  0.
    8880022    1    1    2    0    0 -0.48219610573E+03  0.52528479543E+03 -0.47891605332E+03  0.87246171253E+03  0.15294330000E+03 0.  0.
<mgrwt>
<rscale>  0 0.72926597E+03</rscale>
<asrwt>0</asrwt>
<pdfrwt beam="1">  1        2 0.10738482E+00 0.72926597E+03</pdfrwt>
<pdfrwt beam="2">  1       -2 0.14476178E+00 0.72926597E+03</pdfrwt>
<totfact> 0.13763915E+01</totfact>
</mgrwt>
</event>
<event>
 4    1  0.6912310E-008  0.7805813E+03  0.7818608E-02  0.9588558E-01
         -2   -1    0    0    0  501 -0.00000000000E+00  0.00000000000E+00  0.13909974300E+04  0.13909974300E+04  0.25500000000E-02 0.  1.
          2   -1    0    0  501    0  0.00000000000E+00 -0.00000000000E+00 -0.13190770861E+04  0.13190770861E+04  0.25500000000E-02 0. -1.
    8880022    1    1    2    0    0 -0.72226112111E+03  0.25348435385E+03  0.11433848656E+04  0.13844262525E+04  0.15294330000E+03 0.  1.
    8880022    1    1    2    0    0  0.72226112111E+03 -0.25348435385E+03 -0.10714645216E+04  0.13256482636E+04  0.15294330000E+03 0.  0.
<mgrwt>
<rscale>  0 0.78058126E+03</rscale>
<asrwt>0</asrwt>
<pdfrwt beam="1">  1        2 0.20293494E+00 0.78058126E+03</pdfrwt>
<pdfrwt beam="2">  1       -2 0.21399960E+00 0.78058126E+03</pdfrwt>
<totfact> 0.17844778E+00</totfact>
</mgrwt>
</event>
<event>
 4    1  0.6912310E-008  0.1959431E+03  0.7818608E-02  0.1153208E+00
          2   -1    0    0  501    0  0.00000000000E+00  0.00000000000E+00  0.54342873292E+03  0.54342873293E+03  0.25500000000E-02 0. -1.
         -2   -1    0    0    0  501 -0.00000000000E+00 -0.00000000000E+00 -0.96618315991E+03  0.96618315992E+03  0.25500000000E-02 0.  1.
    8880022    1    1    2    0    0 -0.48923890674E+02 -0.11228754633E+03 -0.93806224519E+03  0.95830812843E+03  0.15294330000E+03 0.  0.
    8880022    1    1    2    0    0  0.48923890674E+02  0.11228754633E+03  0.51530781820E+03  0.55130376441E+03  0.15294330000E+03 0. -1.
<mgrwt>
<rscale>  0 0.19594309E+03</rscale>
<asrwt>0</asrwt>
<pdfrwt beam="1">  1        2 0.83604420E-01 0.19594309E+03</pdfrwt>
<pdfrwt beam="2">  1       -2 0.14864356E+00 0.19594309E+03</pdfrwt>
<totfact> 0.19038988E+01</totfact>
</mgrwt>
</event>
<event>
 4    1  0.6912310E-008  0.2504573E+03  0.7818608E-02  0.1113016E+00
          2   -1    0    0  501    0  0.00000000000E+00  0.00000000000E+00  0.11735510665E+04  0.11735510665E+04  0.25500000000E-02 0. -1.
         -2   -1    0    0    0  501 -0.00000000000E+00 -0.00000000000E+00 -0.61850446710E+02  0.61850446763E+02  0.25500000000E-02 0.  1.
    8880022    1    1    2    0    0  0.12022809195E+03  0.15774154938E+03  0.32823473754E+03  0.41287635733E+03  0.15294330000E+03 0.  1.
    8880022    1    1    2    0    0 -0.12022809195E+03 -0.15774154938E+03  0.78346588227E+03  0.82252515596E+03  0.15294330000E+03 0.  0.
<mgrwt>
<rscale>  0 0.25045727E+03</rscale>
<asrwt>0</asrwt>
<pdfrwt beam="1">  1        2 0.18054632E+00 0.25045727E+03</pdfrwt>
<pdfrwt beam="2">  1       -2 0.95154533E-02 0.25045727E+03</pdfrwt>
<totfact> 0.14879294E+03</totfact>
</mgrwt>
</event>
<event>
 4    1  0.6912310E-008  0.4964067E+03  0.7818608E-02  0.1014721E+00
         -2   -1    0    0    0  501 -0.00000000000E+00  0.00000000000E+00  0.44327363102E+03  0.44327363103E+03  0.25500000000E-02 0.  1.
          2   -1    0    0  501    0  0.00000000000E+00 -0.00000000000E+00 -0.15054494814E+04  0.15054494814E+04  0.25500000000E-02 0. -1.
    8880022    1    1    2    0    0  0.21309833304E+03 -0.42144640252E+03  0.24273907936E+03  0.55257749086E+03  0.15294330000E+03 0.  0.
    8880022    1    1    2    0    0 -0.21309833304E+03  0.42144640252E+03 -0.13049149298E+04  0.13961456216E+04  0.15294330000E+03 0.  0.
<mgrwt>
<rscale>  0 0.49640671E+03</rscale>
<asrwt>0</asrwt>
<pdfrwt beam="1">  1        2 0.23160761E+00 0.49640671E+03</pdfrwt>
<pdfrwt beam="2">  1       -2 0.68195944E-01 0.49640671E+03</pdfrwt>
<totfact> 0.26339303E+01</totfact>
</mgrwt>
</event>
<event>
 4    1  0.8884366E-008  0.7649743E+03  0.7818608E-02  0.9612147E-01
         -2   -1    0    0    0  501 -0.00000000000E+00  0.00000000000E+00  0.11078556808E+04  0.11078556808E+04  0.25500000000E-02 0.  1.
          2   -1    0    0  501    0  0.00000000000E+00 -0.00000000000E+00 -0.24104779744E+04  0.24104779744E+04  0.25500000000E-02 0. -1.
    8880022    1    1    2    0    0  0.13877980481E+03 -0.73656924151E+03 -0.22058286607E+04  0.23347089359E+04  0.15294330000E+03 0.  0.
    8880022    1    1    2    0    0 -0.13877980481E+03  0.73656924151E+03  0.90320636712E+03  0.11836247194E+04  0.15294330000E+03 0.  0.
<mgrwt>
<rscale>  0 0.76497434E+03</rscale>
<asrwt>0</asrwt>
<pdfrwt beam="1">  1        2 0.37084276E+00 0.76497434E+03</pdfrwt>
<pdfrwt beam="2">  1       -2 0.17043934E+00 0.76497434E+03</pdfrwt>
<totfact> 0.86960203E-01</totfact>
</mgrwt>
</event>
<event>
 4    1  0.6912310E-008  0.1255790E+04  0.7818608E-02  0.9065378E-01
         -2   -1    0    0    0  501 -0.00000000000E+00  0.00000000000E+00  0.10536607078E+04  0.10536607078E+04  0.25500000000E-02 0.  1.
          2   -1    0    0  501    0  0.00000000000E+00 -0.00000000000E+00 -0.19672050808E+04  0.19672050808E+04  0.25500000000E-02 0. -1.
    8880022    1    1    2    0    0  0.12426832468E+04  0.96717417003E+02  0.28191673581E+03  0.12870449136E+04  0.15294330000E+03 0.  0.
    8880022    1    1    2    0    0 -0.12426832468E+04 -0.96717417003E+02 -0.11954611088E+04  0.17338208749E+04  0.15294330000E+03 0.  0.
<mgrwt>
<rscale>  0 0.12557896E+04</rscale>
<asrwt>0</asrwt>
<pdfrwt beam="1">  1        2 0.30264694E+00 0.12557896E+04</pdfrwt>
<pdfrwt beam="2">  1       -2 0.16210165E+00 0.12557896E+04</pdfrwt>
<totfact> 0.16364902E+00</totfact>
</mgrwt>
</event>
<event>
 4    1  0.6912310E-008  0.3784298E+03  0.7818608E-02  0.1051516E+00
         -2   -1    0    0    0  501 -0.00000000000E+00  0.00000000000E+00  0.94046482251E+02  0.94046482285E+02  0.25500000000E-02 0.  1.
          2   -1    0    0  501    0  0.00000000000E+00 -0.00000000000E+00 -0.24507066569E+04  0.24507066569E+04  0.25500000000E-02 0. -1.
    8880022    1    1    2    0    0  0.30002585920E+03 -0.17263230863E+03 -0.39537953361E+03  0.54729704803E+03  0.15294330000E+03 0.  0.
    8880022    1    1    2    0    0 -0.30002585920E+03  0.17263230863E+03 -0.19612806410E+04  0.19974560911E+04  0.15294330000E+03 0.  0.
<mgrwt>
<rscale>  0 0.37842976E+03</rscale>
<asrwt>0</asrwt>
<pdfrwt beam="1">  1        2 0.37703174E+00 0.37842976E+03</pdfrwt>
<pdfrwt beam="2">  1       -2 0.14468691E-01 0.37842976E+03</pdfrwt>
<totfact> 0.15164125E+02</totfact>
</mgrwt>
</event>
<event>
 4    1  0.6912310E-008  0.3027936E+03  0.7818608E-02  0.1083852E+00
         -2   -1    0    0    0  501 -0.00000000000E+00  0.00000000000E+00  0.33113098668E+03  0.33113098669E+03  0.25500000000E-02 0.  1.
          2   -1    0    0  501    0  0.00000000000E+00 -0.00000000000E+00 -0.12565685601E+04  0.12565685601E+04  0.25500000000E-02 0. -1.
    8880022    1    1    2    0    0 -0.20416250037E+03  0.16312572190E+03  0.23823431041E+03  0.38527855816E+03  0.15294330000E+03 0.  0.
    8880022    1    1    2    0    0  0.20416250037E+03 -0.16312572190E+03 -0.11636718838E+04  0.12024209887E+04  0.15294330000E+03 0. -1.
<mgrwt>
<rscale>  0 0.30279363E+03</rscale>
<asrwt>0</asrwt>
<pdfrwt beam="1">  1        2 0.19331824E+00 0.30279363E+03</pdfrwt>
<pdfrwt beam="2">  1       -2 0.50943229E-01 0.30279363E+03</pdfrwt>
<totfact> 0.69122179E+01</totfact>
</mgrwt>
</event>
<event>
 4    1  0.6912310E-008  0.1759848E+03  0.7818608E-02  0.1171747E+00
          2   -1    0    0  501    0  0.00000000000E+00  0.00000000000E+00  0.91493402774E+03  0.91493402775E+03  0.25500000000E-02 0. -1.
         -2   -1    0    0    0  501 -0.00000000000E+00 -0.00000000000E+00 -0.13634095323E+03  0.13634095325E+03  0.25500000000E-02 0.  1.
    8880022    1    1    2    0    0  0.86244806097E+02 -0.11866514118E+02  0.84503498172E+03  0.86316554268E+03  0.15294330000E+03 0. -1.
    8880022    1    1    2    0    0 -0.86244806097E+02  0.11866514118E+02 -0.66441907198E+02  0.18810943831E+03  0.15294330000E+03 0.  0.
<mgrwt>
<rscale>  0 0.17598475E+03</rscale>
<asrwt>0</asrwt>
<pdfrwt beam="1">  1        2 0.14075908E+00 0.17598475E+03</pdfrwt>
<pdfrwt beam="2">  1       -2 0.20975531E-01 0.17598475E+03</pdfrwt>
<totfact> 0.58188262E+02</totfact>
</mgrwt>
</event>
<event>
 4    1  0.6912310E-008  0.3293172E+03  0.7818608E-02  0.1071439E+00
          2   -1    0    0  501    0  0.00000000000E+00  0.00000000000E+00  0.36537768689E+04  0.36537768689E+04  0.25500000000E-02 0. -1.
         -2   -1    0    0    0  501 -0.00000000000E+00 -0.00000000000E+00 -0.12920099560E+03  0.12920099562E+03  0.25500000000E-02 0.  1.
    8880022    1    1    2    0    0  0.20099271595E+03 -0.21132928415E+03  0.10222394219E+03  0.34481810506E+03  0.15294330000E+03 0.  0.
    8880022    1    1    2    0    0 -0.20099271595E+03  0.21132928415E+03  0.34223519311E+04  0.34381597595E+04  0.15294330000E+03 0.  0.
<mgrwt>
<rscale>  0 0.32931716E+03</rscale>
<asrwt>0</asrwt>
<pdfrwt beam="1">  1        2 0.56211948E+00 0.32931716E+03</pdfrwt>
<pdfrwt beam="2">  1       -2 0.19877077E-01 0.32931716E+03</pdfrwt>
<totfact> 0.16605536E+01</totfact>
</mgrwt>
</event>
<event>
 4    1  0.6912310E-008  0.5814211E+03  0.7818608E-02  0.9944719E-01
          2   -1    0    0  501    0  0.00000000000E+00  0.00000000000E+00  0.81701070343E+03  0.81701070344E+03  0.25500000000E-02 0. -1.
         -2   -1    0    0    0  501 -0.00000000000E+00 -0.00000000000E+00 -0.46787595227E+03  0.46787595228E+03  0.25500000000E-02 0.  1.
    8880022    1    1    2    0    0  0.92189774890E+02  0.55331717434E+03  0.39304738660E+03  0.70180962600E+03  0.15294330000E+03 0.  0.
    8880022    1    1    2    0    0 -0.92189774890E+02 -0.55331717434E+03 -0.43912635439E+02  0.58307702972E+03  0.15294330000E+03 0.  0.
<mgrwt>
<rscale>  0 0.58142111E+03</rscale>
<asrwt>0</asrwt>
<pdfrwt beam="1">  1        2 0.12569395E+00 0.58142111E+03</pdfrwt>
<pdfrwt beam="2">  1       -2 0.71980916E-01 0.58142111E+03</pdfrwt>
<totfact> 0.60223567E+01</totfact>
</mgrwt>
</event>
<event>
 4    1  0.6912310E-008  0.6851257E+03  0.7818608E-02  0.9743013E-01
         -2   -1    0    0    0  501 -0.00000000000E+00  0.00000000000E+00  0.90009142662E+03  0.90009142662E+03  0.25500000000E-02 0.  1.
          2   -1    0    0  501    0  0.00000000000E+00 -0.00000000000E+00 -0.10335097236E+04  0.10335097236E+04  0.25500000000E-02 0. -1.
    8880022    1    1    2    0    0 -0.12249821383E+03 -0.65650574851E+03 -0.74719471324E+03  0.10137540149E+04  0.15294330000E+03 0.  0.
    8880022    1    1    2    0    0  0.12249821383E+03  0.65650574851E+03  0.61377641625E+03  0.91984713533E+03  0.15294330000E+03 0.  0.
<mgrwt>
<rscale>  0 0.68512573E+03</rscale>
<asrwt>0</asrwt>
<pdfrwt beam="1">  1        2 0.15900150E+00 0.68512573E+03</pdfrwt>
<pdfrwt beam="2">  1       -2 0.13847560E+00 0.68512573E+03</pdfrwt>
<totfact> 0.90964318E+00</totfact>
</mgrwt>
</event>
<event>
 4    1  0.6912310E-008  0.3904767E+03  0.7818608E-02  0.1047128E+00
          2   -1    0    0  501    0  0.00000000000E+00  0.00000000000E+00  0.12789197913E+04  0.12789197913E+04  0.25500000000E-02 0. -1.
         -2   -1    0    0    0  501 -0.00000000000E+00 -0.00000000000E+00 -0.26203199434E+03  0.26203199435E+03  0.25500000000E-02 0.  1.
    8880022    1    1    2    0    0 -0.34315833017E+03  0.10640852364E+03 -0.60363358443E+02  0.39511492192E+03  0.15294330000E+03 0.  0.
    8880022    1    1    2    0    0  0.34315833017E+03 -0.10640852364E+03  0.10772511554E+04  0.11458368637E+04  0.15294330000E+03 0.  0.
<mgrwt>
<rscale>  0 0.39047672E+03</rscale>
<asrwt>0</asrwt>
<pdfrwt beam="1">  1        2 0.19675689E+00 0.39047672E+03</pdfrwt>
<pdfrwt beam="2">  1       -2 0.40312614E-01 0.39047672E+03</pdfrwt>
<totfact> 0.10478798E+02</totfact>
</mgrwt>
</event>
<event>
 4    1  0.6912310E-008  0.6098934E+03  0.7818608E-02  0.9885090E-01
         -2   -1    0    0    0  501 -0.00000000000E+00  0.00000000000E+00  0.34266602119E+03  0.34266602120E+03  0.25500000000E-02 0.  1.
          2   -1    0    0  501    0  0.00000000000E+00 -0.00000000000E+00 -0.28524578991E+04  0.28524578991E+04  0.25500000000E-02 0. -1.
    8880022    1    1    2    0    0 -0.34714641888E+03  0.47756429088E+03 -0.25122542227E+04  0.25852255647E+04  0.15294330000E+03 0.  0.
    8880022    1    1    2    0    0  0.34714641888E+03 -0.47756429088E+03  0.24623447157E+01  0.60989835565E+03  0.15294330000E+03 0.  0.
<mgrwt>
<rscale>  0 0.60989339E+03</rscale>
<asrwt>0</asrwt>
<pdfrwt beam="1">  1        2 0.43883966E+00 0.60989339E+03</pdfrwt>
<pdfrwt beam="2">  1       -2 0.52717851E-01 0.60989339E+03</pdfrwt>
<totfact> 0.79507655E+00</totfact>
</mgrwt>
</event>
<event>
 4    1  0.6912310E-008  0.3691598E+03  0.7818608E-02  0.1055015E+00
          2   -1    0    0  501    0  0.00000000000E+00  0.00000000000E+00  0.42821382596E+04  0.42821382596E+04  0.25500000000E-02 0. -1.
         -2   -1    0    0    0  501 -0.00000000000E+00 -0.00000000000E+00 -0.37115461454E+03  0.37115461455E+03  0.25500000000E-02 0.  1.
    8880022    1    1    2    0    0 -0.18136857217E+03  0.28282994807E+03  0.41801528681E+04  0.41964219273E+04  0.15294330000E+03 0.  0.
    8880022    1    1    2    0    0  0.18136857217E+03 -0.28282994807E+03 -0.26916922297E+03  0.45687094688E+03  0.15294330000E+03 0.  0.
<mgrwt>
<rscale>  0 0.36915985E+03</rscale>
<asrwt>0</asrwt>
<pdfrwt beam="1">  1        2 0.65879053E+00 0.36915985E+03</pdfrwt>
<pdfrwt beam="2">  1       -2 0.57100708E-01 0.36915985E+03</pdfrwt>
<totfact> 0.73930743E-01</totfact>
</mgrwt>
</event>
<event>
 4    1  0.6912310E-008  0.4176730E+03  0.7818608E-02  0.1037826E+00
         -2   -1    0    0    0  501 -0.00000000000E+00  0.00000000000E+00  0.26523526673E+03  0.26523526675E+03  0.25500000000E-02 0.  1.
          2   -1    0    0  501    0  0.00000000000E+00 -0.00000000000E+00 -0.32720171201E+04  0.32720171201E+04  0.25500000000E-02 0. -1.
    8880022    1    1    2    0    0  0.34243217407E+03  0.18384576177E+03  0.77513762210E+02  0.42480477199E+03  0.15294330000E+03 0.  0.
    8880022    1    1    2    0    0 -0.34243217407E+03 -0.18384576177E+03 -0.30842956156E+04  0.31124476149E+04  0.15294330000E+03 0.  0.
<mgrwt>
<rscale>  0 0.41767297E+03</rscale>
<asrwt>0</asrwt>
<pdfrwt beam="1">  1        2 0.50338722E+00 0.41767297E+03</pdfrwt>
<pdfrwt beam="2">  1       -2 0.40805428E-01 0.41767297E+03</pdfrwt>
<totfact> 0.77414875E+00</totfact>
</mgrwt>
</event>
<event>
 4    1  0.6912310E-008  0.9736364E+03  0.7818608E-02  0.9337942E-01
         -2   -1    0    0    0  501 -0.00000000000E+00  0.00000000000E+00  0.61357670519E+03  0.61357670519E+03  0.25500000000E-02 0.  1.
          2   -1    0    0  501    0  0.00000000000E+00 -0.00000000000E+00 -0.25057385264E+04  0.25057385264E+04  0.25500000000E-02 0. -1.
    8880022    1    1    2    0    0  0.18152768107E+03 -0.94425836117E+03 -0.19118360338E+04  0.21454800919E+04  0.15294330000E+03 0.  0.
    8880022    1    1    2    0    0 -0.18152768107E+03  0.94425836117E+03  0.19674212582E+02  0.97383513969E+03  0.15294330000E+03 0.  0.
<mgrwt>
<rscale>  0 0.97363638E+03</rscale>
<asrwt>0</asrwt>
<pdfrwt beam="1">  1        2 0.38549823E+00 0.97363638E+03</pdfrwt>
<pdfrwt beam="2">  1       -2 0.94396417E-01 0.97363638E+03</pdfrwt>
<totfact> 0.33102167E+00</totfact>
</mgrwt>
</event>
<event>
 4    1  0.6912310E-008  0.9039420E+03  0.7818608E-02  0.9420667E-01
         -2   -1    0    0    0  501 -0.00000000000E+00  0.00000000000E+00  0.10004513326E+04  0.10004513326E+04  0.25500000000E-02 0.  1.
          2   -1    0    0  501    0  0.00000000000E+00 -0.00000000000E+00 -0.20285598905E+04  0.20285598905E+04  0.25500000000E-02 0. -1.
    8880022    1    1    2    0    0  0.88886013327E+03 -0.60391943363E+02  0.65651076384E+03  0.11171918185E+04  0.15294330000E+03 0.  0.
    8880022    1    1    2    0    0 -0.88886013327E+03  0.60391943363E+02 -0.16846193217E+04  0.19118194045E+04  0.15294330000E+03 0.  0.
<mgrwt>
<rscale>  0 0.90394202E+03</rscale>
<asrwt>0</asrwt>
<pdfrwt beam="1">  1        2 0.31208614E+00 0.90394202E+03</pdfrwt>
<pdfrwt beam="2">  1       -2 0.15391559E+00 0.90394202E+03</pdfrwt>
<totfact> 0.18236565E+00</totfact>
</mgrwt>
</event>
<event>
 4    1  0.6912310E-008  0.3096183E+03  0.7818608E-02  0.1080529E+00
          2   -1    0    0  501    0  0.00000000000E+00  0.00000000000E+00  0.22125585698E+04  0.22125585698E+04  0.25500000000E-02 0. -1.
         -2   -1    0    0    0  501 -0.00000000000E+00 -0.00000000000E+00 -0.18667053554E+03  0.18667053555E+03  0.25500000000E-02 0.  1.
    8880022    1    1    2    0    0 -0.16952334758E+03 -0.20912592566E+03 -0.38274329424E+02  0.31197499173E+03  0.15294330000E+03 0.  1.
    8880022    1    1    2    0    0  0.16952334758E+03  0.20912592566E+03  0.20641623637E+04  0.20872541136E+04  0.15294330000E+03 0.  0.
<mgrwt>
<rscale>  0 0.30961827E+03</rscale>
<asrwt>0</asrwt>
<pdfrwt beam="1">  1        2 0.34039363E+00 0.30961827E+03</pdfrwt>
<pdfrwt beam="2">  1       -2 0.28718543E-01 0.30961827E+03</pdfrwt>
<totfact> 0.63363622E+01</totfact>
</mgrwt>
</event>
<event>
 4    1  0.6912310E-008  0.8523720E+03  0.7818608E-02  0.9487159E-01
          2   -1    0    0  501    0  0.00000000000E+00  0.00000000000E+00  0.97393151949E+03  0.97393151950E+03  0.25500000000E-02 0. -1.
         -2   -1    0    0    0  501 -0.00000000000E+00 -0.00000000000E+00 -0.30015982296E+04  0.30015982296E+04  0.25500000000E-02 0.  1.
    8880022    1    1    2    0    0  0.29419254975E+02 -0.83802196570E+03  0.70930870130E+03  0.11088989108E+04  0.15294330000E+03 0.  0.
    8880022    1    1    2    0    0 -0.29419254975E+02  0.83802196570E+03 -0.27369754114E+04  0.28666308383E+04  0.15294330000E+03 0.  0.
<mgrwt>
<rscale>  0 0.85237196E+03</rscale>
<asrwt>0</asrwt>
<pdfrwt beam="1">  1        2 0.14983562E+00 0.85237196E+03</pdfrwt>
<pdfrwt beam="2">  1       -2 0.46178434E+00 0.85237196E+03</pdfrwt>
<totfact> 0.79494603E-02</totfact>
</mgrwt>
</event>
<event>
 4    1  0.6912310E-008  0.4072662E+03  0.7818608E-02  0.1041292E+00
         -2   -1    0    0    0  501 -0.00000000000E+00  0.00000000000E+00  0.40309268228E+03  0.40309268228E+03  0.25500000000E-02 0.  1.
          2   -1    0    0  501    0  0.00000000000E+00 -0.00000000000E+00 -0.22483064380E+04  0.22483064380E+04  0.25500000000E-02 0. -1.
    8880022    1    1    2    0    0 -0.19627879307E+03 -0.32241079524E+03  0.27565317253E+03  0.49178288913E+03  0.15294330000E+03 0.  0.
    8880022    1    1    2    0    0  0.19627879307E+03  0.32241079524E+03 -0.21208669282E+04  0.21596162311E+04  0.15294330000E+03 0.  0.
<mgrwt>
<rscale>  0 0.40726618E+03</rscale>
<asrwt>0</asrwt>
<pdfrwt beam="1">  1        2 0.34589329E+00 0.40726618E+03</pdfrwt>
<pdfrwt beam="2">  1       -2 0.62014260E-01 0.40726618E+03</pdfrwt>
<totfact> 0.13105606E+01</totfact>
</mgrwt>
</event>
<event>
 4    1  0.6912310E-008  0.3508429E+03  0.7818608E-02  0.1062270E+00
         -2   -1    0    0    0  501 -0.00000000000E+00  0.00000000000E+00  0.31783108359E+03  0.31783108360E+03  0.25500000000E-02 0.  1.
          2   -1    0    0  501    0  0.00000000000E+00 -0.00000000000E+00 -0.29849861145E+04  0.29849861145E+04  0.25500000000E-02 0. -1.
    8880022    1    1    2    0    0  0.31574199901E+03 -0.24615952871E+01 -0.28741356906E+04  0.28954700293E+04  0.15294330000E+03 0.  0.
    8880022    1    1    2    0    0 -0.31574199901E+03  0.24615952871E+01  0.20698065975E+03  0.40734716878E+03  0.15294330000E+03 0.  0.
<mgrwt>
<rscale>  0 0.35084287E+03</rscale>
<asrwt>0</asrwt>
<pdfrwt beam="1">  1        2 0.45922862E+00 0.35084287E+03</pdfrwt>
<pdfrwt beam="2">  1       -2 0.48897092E-01 0.35084287E+03</pdfrwt>
<totfact> 0.83525821E+00</totfact>
</mgrwt>
</event>
<event>
 4    1  0.6912310E-008  0.1181080E+04  0.7818608E-02  0.9129581E-01
         -2   -1    0    0    0  501 -0.00000000000E+00  0.00000000000E+00  0.11492637503E+04  0.11492637503E+04  0.25500000000E-02 0.  1.
          2   -1    0    0  501    0  0.00000000000E+00 -0.00000000000E+00 -0.14523845023E+04  0.14523845023E+04  0.25500000000E-02 0. -1.
    8880022    1    1    2    0    0 -0.88909876509E+03  0.76227339505E+03  0.37569443229E+03  0.12393931186E+04  0.15294330000E+03 0.  0.
    8880022    1    1    2    0    0  0.88909876509E+03 -0.76227339505E+03 -0.67881518424E+03  0.13622551341E+04  0.15294330000E+03 0.  0.
<mgrwt>
<rscale>  0 0.11810796E+04</rscale>
<asrwt>0</asrwt>
<pdfrwt beam="1">  1        2 0.22344377E+00 0.11810796E+04</pdfrwt>
<pdfrwt beam="2">  1       -2 0.17680981E+00 0.11810796E+04</pdfrwt>
<totfact> 0.25066567E+00</totfact>
</mgrwt>
</event>
<event>
 4    1  0.6912310E-008  0.1785198E+04  0.7818608E-02  0.8714211E-01
          2   -1    0    0  501    0  0.00000000000E+00  0.00000000000E+00  0.34483836473E+04  0.34483836473E+04  0.25500000000E-02 0. -1.
         -2   -1    0    0    0  501 -0.00000000000E+00 -0.00000000000E+00 -0.12594608332E+04  0.12594608332E+04  0.25500000000E-02 0.  1.
    8880022    1    1    2    0    0  0.32663239667E+02 -0.17783345581E+04  0.23089772291E+04  0.29186140864E+04  0.15294330000E+03 0. -1.
    8880022    1    1    2    0    0 -0.32663239667E+02  0.17783345581E+04 -0.12005441505E+03  0.17892303941E+04  0.15294330000E+03 0.  0.
<mgrwt>
<rscale>  0 0.17851981E+04</rscale>
<asrwt>0</asrwt>
<pdfrwt beam="1">  1        2 0.53052055E+00 0.17851981E+04</pdfrwt>
<pdfrwt beam="2">  1       -2 0.19376321E+00 0.17851981E+04</pdfrwt>
<totfact> 0.11821802E-01</totfact>
</mgrwt>
</event>
<event>
 4    1  0.6912310E-008  0.3683496E+03  0.7818608E-02  0.1055326E+00
          2   -1    0    0  501    0  0.00000000000E+00  0.00000000000E+00  0.30553062506E+04  0.30553062506E+04  0.25500000000E-02 0. -1.
         -2   -1    0    0    0  501 -0.00000000000E+00 -0.00000000000E+00 -0.13239330050E+03  0.13239330053E+03  0.25500000000E-02 0.  1.
    8880022    1    1    2    0    0 -0.60967010688E+02 -0.32950381272E+03  0.16212981429E+03  0.40245182157E+03  0.15294330000E+03 0.  0.
    8880022    1    1    2    0    0  0.60967010688E+02  0.32950381272E+03  0.27607831358E+04  0.27852477296E+04  0.15294330000E+03 0.  0.
<mgrwt>
<rscale>  0 0.36834955E+03</rscale>
<asrwt>0</asrwt>
<pdfrwt beam="1">  1        2 0.47004709E+00 0.36834955E+03</pdfrwt>
<pdfrwt beam="2">  1       -2 0.20368201E-01 0.36834955E+03</pdfrwt>
<totfact> 0.38204569E+01</totfact>
</mgrwt>
</event>
<event>
 4    1  0.6912310E-008  0.6271394E+03  0.7818608E-02  0.9850647E-01
          2   -1    0    0  501    0  0.00000000000E+00  0.00000000000E+00  0.20065869857E+04  0.20065869857E+04  0.25500000000E-02 0. -1.
         -2   -1    0    0    0  501 -0.00000000000E+00 -0.00000000000E+00 -0.37835596061E+03  0.37835596062E+03  0.25500000000E-02 0.  1.
    8880022    1    1    2    0    0 -0.54281720597E+03 -0.27433849784E+03 -0.13731589685E+02  0.62728967795E+03  0.15294330000E+03 0.  0.
    8880022    1    1    2    0    0  0.54281720597E+03  0.27433849784E+03  0.16419626148E+04  0.17576532684E+04  0.15294330000E+03 0.  0.
<mgrwt>
<rscale>  0 0.62713937E+03</rscale>
<asrwt>0</asrwt>
<pdfrwt beam="1">  1        2 0.30870570E+00 0.62713937E+03</pdfrwt>
<pdfrwt beam="2">  1       -2 0.58208608E-01 0.62713937E+03</pdfrwt>
<totfact> 0.19279331E+01</totfact>
</mgrwt>
</event>
<event>
 4    1  0.6912310E-008  0.4630982E+03  0.7818608E-02  0.1023886E+00
          2   -1    0    0  501    0  0.00000000000E+00  0.00000000000E+00  0.90631142124E+03  0.90631142125E+03  0.25500000000E-02 0. -1.
         -2   -1    0    0    0  501 -0.00000000000E+00 -0.00000000000E+00 -0.46651421585E+03  0.46651421586E+03  0.25500000000E-02 0.  1.
    8880022    1    1    2    0    0  0.32979019515E+03  0.28689146220E+03  0.70174440278E+03  0.84077651237E+03  0.15294330000E+03 0.  0.
    8880022    1    1    2    0    0 -0.32979019515E+03 -0.28689146220E+03 -0.26194719739E+03  0.53204912474E+03  0.15294330000E+03 0.  0.
<mgrwt>
<rscale>  0 0.46309819E+03</rscale>
<asrwt>0</asrwt>
<pdfrwt beam="1">  1        2 0.13943252E+00 0.46309819E+03</pdfrwt>
<pdfrwt beam="2">  1       -2 0.71771419E-01 0.46309819E+03</pdfrwt>
<totfact> 0.53404663E+01</totfact>
</mgrwt>
</event>
<event>
 4    1  0.6912310E-008  0.1138814E+04  0.7818608E-02  0.9168165E-01
          2   -1    0    0  501    0  0.00000000000E+00  0.00000000000E+00  0.20248607858E+04  0.20248607858E+04  0.25500000000E-02 0. -1.
         -2   -1    0    0    0  501 -0.00000000000E+00 -0.00000000000E+00 -0.84296977077E+03  0.84296977077E+03  0.25500000000E-02 0.  1.
    8880022    1    1    2    0    0 -0.32477500506E+03 -0.10807532260E+04  0.12937119394E+04  0.17235395483E+04  0.15294330000E+03 0.  0.
    8880022    1    1    2    0    0  0.32477500506E+03  0.10807532260E+04 -0.11182092444E+03  0.11442910082E+04  0.15294330000E+03 0.  0.
<mgrwt>
<rscale>  0 0.11388143E+04</rscale>
<asrwt>0</asrwt>
<pdfrwt beam="1">  1        2 0.31151704E+00 0.11388143E+04</pdfrwt>
<pdfrwt beam="2">  1       -2 0.12968766E+00 0.11388143E+04</pdfrwt>
<totfact> 0.27770180E+00</totfact>
</mgrwt>
</event>
<event>
 4    1  0.6912310E-008  0.4866777E+03  0.7818608E-02  0.1017316E+00
         -2   -1    0    0    0  501 -0.00000000000E+00  0.00000000000E+00  0.36705838191E+03  0.36705838192E+03  0.25500000000E-02 0.  1.
          2   -1    0    0  501    0  0.00000000000E+00 -0.00000000000E+00 -0.11824842004E+04  0.11824842004E+04  0.25500000000E-02 0. -1.
    8880022    1    1    2    0    0  0.46163820562E+03 -0.18806324676E+02 -0.92992370090E+03  0.10495776547E+04  0.15294330000E+03 0.  0.
    8880022    1    1    2    0    0 -0.46163820562E+03  0.18806324676E+02  0.11449788243E+03  0.49996492761E+03  0.15294330000E+03 0.  0.
<mgrwt>
<rscale>  0 0.48667768E+03</rscale>
<asrwt>0</asrwt>
<pdfrwt beam="1">  1        2 0.18192064E+00 0.48667768E+03</pdfrwt>
<pdfrwt beam="2">  1       -2 0.56470521E-01 0.48667768E+03</pdfrwt>
<totfact> 0.59806404E+01</totfact>
</mgrwt>
</event>
<event>
 4    1  0.6912310E-008  0.1824629E+04  0.7818608E-02  0.8693310E-01
          2   -1    0    0  501    0  0.00000000000E+00  0.00000000000E+00  0.21292299938E+04  0.21292299938E+04  0.25500000000E-02 0. -1.
         -2   -1    0    0    0  501 -0.00000000000E+00 -0.00000000000E+00 -0.26069288359E+04  0.26069288359E+04  0.25500000000E-02 0.  1.
    8880022    1    1    2    0    0  0.16377767433E+04  0.78966332576E+03 -0.17369516587E+04  0.25191811262E+04  0.15294330000E+03 0.  0.
    8880022    1    1    2    0    0 -0.16377767433E+04 -0.78966332576E+03  0.12592528166E+04  0.22169777035E+04  0.15294330000E+03 0.  0.
<mgrwt>
<rscale>  0 0.18246294E+04</rscale>
<asrwt>0</asrwt>
<pdfrwt beam="1">  1        2 0.32757385E+00 0.18246294E+04</pdfrwt>
<pdfrwt beam="2">  1       -2 0.40106597E+00 0.18246294E+04</pdfrwt>
<totfact> 0.37265841E-02</totfact>
</mgrwt>
</event>
<event>
 4    1  0.6912310E-008  0.1245996E+04  0.7818608E-02  0.9073523E-01
          2   -1    0    0  501    0  0.00000000000E+00  0.00000000000E+00  0.14493991199E+04  0.14493991199E+04  0.25500000000E-02 0. -1.
         -2   -1    0    0    0  501 -0.00000000000E+00 -0.00000000000E+00 -0.13266617527E+04  0.13266617527E+04  0.25500000000E-02 0.  1.
    8880022    1    1    2    0    0  0.34746248284E+03  0.11867534176E+04  0.67053389352E+03  0.14149633234E+04  0.15294330000E+03 0.  0.
    8880022    1    1    2    0    0 -0.34746248284E+03 -0.11867534176E+04 -0.54779652627E+03  0.13610975492E+04  0.15294330000E+03 0.  0.
<mgrwt>
<rscale>  0 0.12459958E+04</rscale>
<asrwt>0</asrwt>
<pdfrwt beam="1">  1        2 0.22298448E+00 0.12459958E+04</pdfrwt>
<pdfrwt beam="2">  1       -2 0.20410181E+00 0.12459958E+04</pdfrwt>
<totfact> 0.16368469E+00</totfact>
</mgrwt>
</event>
<event>
 4    1  0.6912310E-008  0.6417090E+03  0.7818608E-02  0.9822462E-01
         -2   -1    0    0    0  501 -0.00000000000E+00  0.00000000000E+00  0.25603101082E+03  0.25603101083E+03  0.25500000000E-02 0.  1.
          2   -1    0    0  501    0  0.00000000000E+00 -0.00000000000E+00 -0.16920095707E+04  0.16920095707E+04  0.25500000000E-02 0. -1.
    8880022    1    1    2    0    0  0.58722976903E+03  0.20871028451E+03 -0.93455733158E+03  0.11336612561E+04  0.15294330000E+03 0.  0.
    8880022    1    1    2    0    0 -0.58722976903E+03 -0.20871028451E+03 -0.50142122826E+03  0.81437932542E+03  0.15294330000E+03 0.  0.
<mgrwt>
<rscale>  0 0.64170900E+03</rscale>
<asrwt>0</asrwt>
<pdfrwt beam="1">  1        2 0.26030916E+00 0.64170900E+03</pdfrwt>
<pdfrwt beam="2">  1       -2 0.39389387E-01 0.64170900E+03</pdfrwt>
<totfact> 0.62586790E+01</totfact>
</mgrwt>
</event>
<event>
 4    1  0.6912310E-008  0.1761019E+03  0.7818608E-02  0.1171630E+00
          2   -1    0    0  501    0  0.00000000000E+00  0.00000000000E+00  0.47104016584E+03  0.47104016585E+03  0.25500000000E-02 0. -1.
         -2   -1    0    0    0  501 -0.00000000000E+00 -0.00000000000E+00 -0.54463437292E+03  0.54463437293E+03  0.25500000000E-02 0.  1.
    8880022    1    1    2    0    0 -0.84547151565E+02 -0.21725532940E+02  0.43935743104E+03  0.47333584784E+03  0.15294330000E+03 0. -1.
    8880022    1    1    2    0    0  0.84547151565E+02  0.21725532940E+02 -0.51295163813E+03  0.54233869094E+03  0.15294330000E+03 0.  0.
<mgrwt>
<rscale>  0 0.17610188E+03</rscale>
<asrwt>0</asrwt>
<pdfrwt beam="1">  1        2 0.72467718E-01 0.17610188E+03</pdfrwt>
<pdfrwt beam="2">  1       -2 0.83789904E-01 0.17610188E+03</pdfrwt>
<totfact> 0.87864330E+01</totfact>
</mgrwt>
</event>
<event>
 4    1  0.6912310E-008  0.4669461E+03  0.7818608E-02  0.1022786E+00
         -2   -1    0    0    0  501 -0.00000000000E+00  0.00000000000E+00  0.48220268364E+03  0.48220268365E+03  0.25500000000E-02 0.  1.
          2   -1    0    0  501    0  0.00000000000E+00 -0.00000000000E+00 -0.13586655705E+04  0.13586655705E+04  0.25500000000E-02 0. -1.
    8880022    1    1    2    0    0  0.35014583901E+02  0.43979650380E+03 -0.11900598806E+04  0.12783900650E+04  0.15294330000E+03 0. -1.
    8880022    1    1    2    0    0 -0.35014583901E+02 -0.43979650380E+03  0.31359699371E+03  0.56247818919E+03  0.15294330000E+03 0.  0.
<mgrwt>
<rscale>  0 0.46694608E+03</rscale>
<asrwt>0</asrwt>
<pdfrwt beam="1">  1        2 0.20902547E+00 0.46694608E+03</pdfrwt>
<pdfrwt beam="2">  1       -2 0.74185029E-01 0.46694608E+03</pdfrwt>
<totfact> 0.26586688E+01</totfact>
</mgrwt>
</event>
<event>
 4    1  0.6912310E-008  0.5668174E+03  0.7818608E-02  0.9976746E-01
         -2   -1    0    0    0  501 -0.00000000000E+00  0.00000000000E+00  0.61445670497E+03  0.61445670497E+03  0.25500000000E-02 0.  1.
          2   -1    0    0  501    0  0.00000000000E+00 -0.00000000000E+00 -0.96313812410E+03  0.96313812411E+03  0.25500000000E-02 0. -1.
    8880022    1    1    2    0    0 -0.16785838037E+03 -0.51933982993E+03 -0.70764985845E+03  0.90666987928E+03  0.15294330000E+03 0.  0.
    8880022    1    1    2    0    0  0.16785838037E+03  0.51933982993E+03  0.35896843932E+03  0.67092494980E+03  0.15294330000E+03 0.  0.
<mgrwt>
<rscale>  0 0.56681738E+03</rscale>
<asrwt>0</asrwt>
<pdfrwt beam="1">  1        2 0.14817510E+00 0.56681738E+03</pdfrwt>
<pdfrwt beam="2">  1       -2 0.94531801E-01 0.56681738E+03</pdfrwt>
<totfact> 0.26026092E+01</totfact>
</mgrwt>
</event>
<event>
 4    1  0.6912310E-008  0.2843482E+03  0.7818608E-02  0.1093337E+00
         -2   -1    0    0    0  501 -0.00000000000E+00  0.00000000000E+00  0.11175474611E+03  0.11175474614E+03  0.25500000000E-02 0.  1.
          2   -1    0    0  501    0  0.00000000000E+00 -0.00000000000E+00 -0.39061666699E+04  0.39061666699E+04  0.25500000000E-02 0. -1.
    8880022    1    1    2    0    0  0.20434403229E+03  0.12532261705E+03 -0.37105994051E+04  0.37214784482E+04  0.15294330000E+03 0. -1.
    8880022    1    1    2    0    0 -0.20434403229E+03 -0.12532261705E+03 -0.83812518612E+02  0.29644296782E+03  0.15294330000E+03 0.  0.
<mgrwt>
<rscale>  0 0.28434819E+03</rscale>
<asrwt>0</asrwt>
<pdfrwt beam="1">  1        2 0.60094861E+00 0.28434819E+03</pdfrwt>
<pdfrwt beam="2">  1       -2 0.17193041E-01 0.28434819E+03</pdfrwt>
<totfact> 0.14318053E+01</totfact>
</mgrwt>
</event>
<event>
 4    1  0.6912310E-008  0.1539753E+03  0.7818608E-02  0.1195672E+00
         -2   -1    0    0    0  501 -0.00000000000E+00  0.00000000000E+00  0.52859593664E+03  0.52859593665E+03  0.25500000000E-02 0.  1.
          2   -1    0    0  501    0  0.00000000000E+00 -0.00000000000E+00 -0.41134260132E+03  0.41134260133E+03  0.25500000000E-02 0. -1.
    8880022    1    1    2    0    0 -0.14725113273E+02  0.99952526407E+01 -0.38498121849E+03  0.41463107173E+03  0.15294330000E+03 0. -1.
    8880022    1    1    2    0    0  0.14725113273E+02 -0.99952526407E+01  0.50223455381E+03  0.52530746625E+03  0.15294330000E+03 0.  0.
<mgrwt>
<rscale>  0 0.15397528E+03</rscale>
<asrwt>0</asrwt>
<pdfrwt beam="1">  1        2 0.63283477E-01 0.15397528E+03</pdfrwt>
<pdfrwt beam="2">  1       -2 0.81322451E-01 0.15397528E+03</pdfrwt>
<totfact> 0.10921857E+02</totfact>
</mgrwt>
</event>
<event>
 4    1  0.6912310E-008  0.4862758E+03  0.7818608E-02  0.1017425E+00
         -2   -1    0    0    0  501 -0.00000000000E+00  0.00000000000E+00  0.16986555289E+03  0.16986555291E+03  0.25500000000E-02 0.  1.
          2   -1    0    0  501    0  0.00000000000E+00 -0.00000000000E+00 -0.16636923060E+04  0.16636923060E+04  0.25500000000E-02 0. -1.
    8880022    1    1    2    0    0 -0.43191064258E+03 -0.16286717409E+03 -0.37647710304E+03  0.61497900915E+03  0.15294330000E+03 0.  0.
    8880022    1    1    2    0    0  0.43191064258E+03  0.16286717409E+03 -0.11173496500E+04  0.12185788497E+04  0.15294330000E+03 0.  0.
<mgrwt>
<rscale>  0 0.48627582E+03</rscale>
<asrwt>0</asrwt>
<pdfrwt beam="1">  1        2 0.25595265E+00 0.48627582E+03</pdfrwt>
<pdfrwt beam="2">  1       -2 0.26133163E-01 0.48627582E+03</pdfrwt>
<totfact> 0.14244513E+02</totfact>
</mgrwt>
</event>
<event>
 4    1  0.6912310E-008  0.3200331E+03  0.7818608E-02  0.1075634E+00
          2   -1    0    0  501    0  0.00000000000E+00  0.00000000000E+00  0.39425670761E+03  0.39425670762E+03  0.25500000000E-02 0. -1.
         -2   -1    0    0    0  501 -0.00000000000E+00 -0.00000000000E+00 -0.26268641943E+03  0.26268641945E+03  0.25500000000E-02 0.  1.
    8880022    1    1    2    0    0 -0.20819983541E+03  0.18889773455E+03  0.10031828440E+03  0.33538774095E+03  0.15294330000E+03 0. -1.
    8880022    1    1    2    0    0  0.20819983541E+03 -0.18889773455E+03  0.31252003783E+02  0.32155538611E+03  0.15294330000E+03 0.  1.
<mgrwt>
<rscale>  0 0.32003309E+03</rscale>
<asrwt>0</asrwt>
<pdfrwt beam="1">  1        2 0.60654878E-01 0.32003309E+03</pdfrwt>
<pdfrwt beam="2">  1       -2 0.40413296E-01 0.32003309E+03</pdfrwt>
<totfact> 0.47568547E+02</totfact>
</mgrwt>
</event>
<event>
 4    1  0.6912310E-008  0.7267138E+03  0.7818608E-02  0.9672608E-01
          2   -1    0    0  501    0  0.00000000000E+00  0.00000000000E+00  0.19708959976E+04  0.19708959976E+04  0.25500000000E-02 0. -1.
         -2   -1    0    0    0  501 -0.00000000000E+00 -0.00000000000E+00 -0.43999201033E+03  0.43999201034E+03  0.25500000000E-02 0.  1.
    8880022    1    1    2    0    0  0.58538307353E+03 -0.40255185632E+03  0.15192146075E+04  0.16840801692E+04  0.15294330000E+03 0.  0.
    8880022    1    1    2    0    0 -0.58538307353E+03  0.40255185632E+03  0.11689379791E+02  0.72680783872E+03  0.15294330000E+03 0.  1.
<mgrwt>
<rscale>  0 0.72671383E+03</rscale>
<asrwt>0</asrwt>
<pdfrwt beam="1">  1        2 0.30321478E+00 0.72671383E+03</pdfrwt>
<pdfrwt beam="2">  1       -2 0.67691077E-01 0.72671383E+03</pdfrwt>
<totfact> 0.14391352E+01</totfact>
</mgrwt>
</event>
<event>
 4    1  0.6912310E-008  0.2992459E+03  0.7818608E-02  0.1085618E+00
          2   -1    0    0  501    0  0.00000000000E+00  0.00000000000E+00  0.17320419417E+04  0.17320419417E+04  0.25500000000E-02 0. -1.
         -2   -1    0    0    0  501 -0.00000000000E+00 -0.00000000000E+00 -0.10287253497E+03  0.10287253500E+03  0.25500000000E-02 0.  1.
    8880022    1    1    2    0    0 -0.11478497428E+02  0.25695269591E+03  0.16751534939E+03  0.34294239915E+03  0.15294330000E+03 0.  0.
    8880022    1    1    2    0    0  0.11478497428E+02 -0.25695269591E+03  0.14616540574E+04  0.14919720776E+04  0.15294330000E+03 0.  0.
<mgrwt>
<rscale>  0 0.29924588E+03</rscale>
<asrwt>0</asrwt>
<pdfrwt beam="1">  1        2 0.26646799E+00 0.29924588E+03</pdfrwt>
<pdfrwt beam="2">  1       -2 0.15826544E-01 0.29924588E+03</pdfrwt>
<totfact> 0.32157208E+02</totfact>
</mgrwt>
</event>
<event>
 4    1  0.6912310E-008  0.4292523E+03  0.7818608E-02  0.1034096E+00
          2   -1    0    0  501    0  0.00000000000E+00  0.00000000000E+00  0.17331828858E+04  0.17331828858E+04  0.25500000000E-02 0. -1.
         -2   -1    0    0    0  501 -0.00000000000E+00 -0.00000000000E+00 -0.18578166117E+03  0.18578166118E+03  0.25500000000E-02 0.  1.
    8880022    1    1    2    0    0 -0.33909435071E+03  0.21419836189E+03  0.14616682706E+03  0.45345596398E+03  0.15294330000E+03 0.  1.
    8880022    1    1    2    0    0  0.33909435071E+03 -0.21419836189E+03  0.14012343976E+04  0.14655085830E+04  0.15294330000E+03 0.  0.
<mgrwt>
<rscale>  0 0.42925234E+03</rscale>
<asrwt>0</asrwt>
<pdfrwt beam="1">  1        2 0.26664353E+00 0.42925234E+03</pdfrwt>
<pdfrwt beam="2">  1       -2 0.28581793E-01 0.42925234E+03</pdfrwt>
<totfact> 0.11206084E+02</totfact>
</mgrwt>
</event>
<event>
 4    1  0.6912310E-008  0.3501114E+03  0.7818608E-02  0.1062569E+00
          2   -1    0    0  501    0  0.00000000000E+00  0.00000000000E+00  0.24826703014E+03  0.24826703015E+03  0.25500000000E-02 0. -1.
         -2   -1    0    0    0  501 -0.00000000000E+00 -0.00000000000E+00 -0.59440205889E+03  0.59440205889E+03  0.25500000000E-02 0.  1.
    8880022    1    1    2    0    0 -0.14936998783E+03 -0.27726328138E+03  0.32561984821E+00  0.35011152438E+03  0.15294330000E+03 0. -1.
    8880022    1    1    2    0    0  0.14936998783E+03  0.27726328138E+03 -0.34646064860E+03  0.49255756466E+03  0.15294330000E+03 0.  0.
<mgrwt>
<rscale>  0 0.35011137E+03</rscale>
<asrwt>0</asrwt>
<pdfrwt beam="1">  1        2 0.38194928E-01 0.35011137E+03</pdfrwt>
<pdfrwt beam="2">  1       -2 0.91446470E-01 0.35011137E+03</pdfrwt>
<totfact> 0.14196957E+02</totfact>
</mgrwt>
</event>
<event>
 4    1  0.6912310E-008  0.4119859E+03  0.7818608E-02  0.1039707E+00
         -2   -1    0    0    0  501 -0.00000000000E+00  0.00000000000E+00  0.49850782598E+03  0.49850782598E+03  0.25500000000E-02 0.  1.
          2   -1    0    0  501    0  0.00000000000E+00 -0.00000000000E+00 -0.55447400700E+03  0.55447400701E+03  0.25500000000E-02 0. -1.
    8880022    1    1    2    0    0 -0.31335071119E+03 -0.21943584528E+03 -0.35506019321E+03  0.54387512557E+03  0.15294330000E+03 0.  0.
    8880022    1    1    2    0    0  0.31335071119E+03  0.21943584528E+03  0.29909401219E+03  0.50910670742E+03  0.15294330000E+03 0.  0.
<mgrwt>
<rscale>  0 0.41198594E+03</rscale>
<asrwt>0</asrwt>
<pdfrwt beam="1">  1        2 0.85303693E-01 0.41198594E+03</pdfrwt>
<pdfrwt beam="2">  1       -2 0.76693512E-01 0.41198594E+03</pdfrwt>
<totfact> 0.86006380E+01</totfact>
</mgrwt>
</event>
<event>
 4    1  0.6912310E-008  0.2540467E+03  0.7818608E-02  0.1110774E+00
         -2   -1    0    0    0  501 -0.00000000000E+00  0.00000000000E+00  0.21646962670E+03  0.21646962671E+03  0.25500000000E-02 0.  1.
          2   -1    0    0  501    0  0.00000000000E+00 -0.00000000000E+00 -0.30104079218E+04  0.30104079218E+04  0.25500000000E-02 0. -1.
    8880022    1    1    2    0    0  0.65090225475E+02  0.19212326274E+03 -0.29284288039E+04  0.29394276650E+04  0.15294330000E+03 0. -1.
    8880022    1    1    2    0    0 -0.65090225475E+02 -0.19212326274E+03  0.13449050879E+03  0.28744988347E+03  0.15294330000E+03 0.  0.
<mgrwt>
<rscale>  0 0.25404673E+03</rscale>
<asrwt>0</asrwt>
<pdfrwt beam="1">  1        2 0.46313965E+00 0.25404673E+03</pdfrwt>
<pdfrwt beam="2">  1       -2 0.33303022E-01 0.25404673E+03</pdfrwt>
<totfact> 0.17684207E+01</totfact>
</mgrwt>
</event>
<event>
 4    1  0.6912310E-008  0.6268032E+03  0.7818608E-02  0.9851307E-01
          2   -1    0    0  501    0  0.00000000000E+00  0.00000000000E+00  0.36925289020E+04  0.36925289020E+04  0.25500000000E-02 0. -1.
         -2   -1    0    0    0  501 -0.00000000000E+00 -0.00000000000E+00 -0.15905457531E+03  0.15905457533E+03  0.25500000000E-02 0.  1.
    8880022    1    1    2    0    0  0.11229147108E+03  0.59739534304E+03  0.28747823673E+04  0.29423215125E+04  0.15294330000E+03 0.  0.
    8880022    1    1    2    0    0 -0.11229147108E+03 -0.59739534304E+03  0.65869195940E+03  0.90926196487E+03  0.15294330000E+03 0.  0.
<mgrwt>
<rscale>  0 0.62680318E+03</rscale>
<asrwt>0</asrwt>
<pdfrwt beam="1">  1        2 0.56808141E+00 0.62680318E+03</pdfrwt>
<pdfrwt beam="2">  1       -2 0.24469933E-01 0.62680318E+03</pdfrwt>
<totfact> 0.98392481E+00</totfact>
</mgrwt>
</event>
<event>
 4    1  0.6912310E-008  0.3545143E+03  0.7818608E-02  0.1060777E+00
         -2   -1    0    0    0  501 -0.00000000000E+00  0.00000000000E+00  0.39096625473E+03  0.39096625474E+03  0.25500000000E-02 0.  1.
          2   -1    0    0  501    0  0.00000000000E+00 -0.00000000000E+00 -0.11887949681E+04  0.11887949681E+04  0.25500000000E-02 0. -1.
    8880022    1    1    2    0    0  0.11546829399E+03 -0.29825462545E+03 -0.10735995098E+04  0.11306176671E+04  0.15294330000E+03 0.  0.
    8880022    1    1    2    0    0 -0.11546829399E+03  0.29825462545E+03  0.27577079646E+03  0.44914355580E+03  0.15294330000E+03 0.  0.
<mgrwt>
<rscale>  0 0.35451432E+03</rscale>
<asrwt>0</asrwt>
<pdfrwt beam="1">  1        2 0.18289153E+00 0.35451432E+03</pdfrwt>
<pdfrwt beam="2">  1       -2 0.60148655E-01 0.35451432E+03</pdfrwt>
<totfact> 0.53159158E+01</totfact>
</mgrwt>
</event>
<event>
 4    1  0.6912310E-008  0.1866379E+03  0.7818608E-02  0.1161529E+00
          2   -1    0    0  501    0  0.00000000000E+00  0.00000000000E+00  0.56871193244E+03  0.56871193244E+03  0.25500000000E-02 0. -1.
         -2   -1    0    0    0  501 -0.00000000000E+00 -0.00000000000E+00 -0.17891217778E+03  0.17891217779E+03  0.25500000000E-02 0.  1.
    8880022    1    1    2    0    0 -0.24881576349E+02  0.10403344244E+03 -0.10824586837E+03  0.21575650864E+03  0.15294330000E+03 0.  1.
    8880022    1    1    2    0    0  0.24881576349E+02 -0.10403344244E+03  0.49804562304E+03  0.53186760160E+03  0.15294330000E+03 0.  0.
<mgrwt>
<rscale>  0 0.18663789E+03</rscale>
<asrwt>0</asrwt>
<pdfrwt beam="1">  1        2 0.87494144E-01 0.18663789E+03</pdfrwt>
<pdfrwt beam="2">  1       -2 0.27524950E-01 0.18663789E+03</pdfrwt>
<totfact> 0.64618742E+02</totfact>
</mgrwt>
</event>
<event>
 4    1  0.6912310E-008  0.9540058E+03  0.7818608E-02  0.9360481E-01
         -2   -1    0    0    0  501 -0.00000000000E+00  0.00000000000E+00  0.13319969256E+04  0.13319969256E+04  0.25500000000E-02 0.  1.
          2   -1    0    0  501    0  0.00000000000E+00 -0.00000000000E+00 -0.16595309859E+04  0.16595309859E+04  0.25500000000E-02 0. -1.
    8880022    1    1    2    0    0 -0.39184980832E+03 -0.85626469982E+03  0.98346449596E+03  0.13701567707E+04  0.15294330000E+03 0.  0.
    8880022    1    1    2    0    0  0.39184980832E+03  0.85626469982E+03 -0.13109985563E+04  0.16213711407E+04  0.15294330000E+03 0.  0.
<mgrwt>
<rscale>  0 0.95400585E+03</rscale>
<asrwt>0</asrwt>
<pdfrwt beam="1">  1        2 0.25531246E+00 0.95400585E+03</pdfrwt>
<pdfrwt beam="2">  1       -2 0.20492260E+00 0.95400585E+03</pdfrwt>
<totfact> 0.12780119E+00</totfact>
</mgrwt>
</event>
<event>
 4    1  0.6912310E-008  0.6080727E+03  0.7818608E-02  0.9888798E-01
          2   -1    0    0  501    0  0.00000000000E+00  0.00000000000E+00  0.81718408579E+03  0.81718408579E+03  0.25500000000E-02 0. -1.
         -2   -1    0    0    0  501 -0.00000000000E+00 -0.00000000000E+00 -0.61611707013E+03  0.61611707013E+03  0.25500000000E-02 0.  1.
    8880022    1    1    2    0    0 -0.24221139968E+03 -0.53637150081E+03  0.46987503046E+03  0.76846271626E+03  0.15294330000E+03 0.  0.
    8880022    1    1    2    0    0  0.24221139968E+03  0.53637150081E+03 -0.26880801481E+03  0.66483843966E+03  0.15294330000E+03 0.  1.
<mgrwt>
<rscale>  0 0.60807269E+03</rscale>
<asrwt>0</asrwt>
<pdfrwt beam="1">  1        2 0.12572063E+00 0.60807269E+03</pdfrwt>
<pdfrwt beam="2">  1       -2 0.94787242E-01 0.60807269E+03</pdfrwt>
<totfact> 0.32260849E+01</totfact>
</mgrwt>
</event>
<event>
 4    1  0.6912310E-008  0.1251894E+04  0.7818608E-02  0.9068609E-01
          2   -1    0    0  501    0  0.00000000000E+00  0.00000000000E+00  0.22018686981E+04  0.22018686981E+04  0.25500000000E-02 0. -1.
         -2   -1    0    0    0  501 -0.00000000000E+00 -0.00000000000E+00 -0.78692487470E+03  0.78692487471E+03  0.25500000000E-02 0.  1.
    8880022    1    1    2    0    0 -0.12132758829E+04 -0.26796969458E+03  0.11692782552E+04  0.17130234722E+04  0.15294330000E+03 0.  0.
    8880022    1    1    2    0    0  0.12132758829E+04  0.26796969458E+03  0.24566556824E+03  0.12757701006E+04  0.15294330000E+03 0.  0.
<mgrwt>
<rscale>  0 0.12518937E+04</rscale>
<asrwt>0</asrwt>
<pdfrwt beam="1">  1        2 0.33874902E+00 0.12518937E+04</pdfrwt>
<pdfrwt beam="2">  1       -2 0.12106537E+00 0.12518937E+04</pdfrwt>
<totfact> 0.26010559E+00</totfact>
</mgrwt>
</event>
<event>
 4    1  0.6912310E-008  0.5584911E+03  0.7818608E-02  0.9995475E-01
          2   -1    0    0  501    0  0.00000000000E+00  0.00000000000E+00  0.11811796679E+04  0.11811796679E+04  0.25500000000E-02 0. -1.
         -2   -1    0    0    0  501 -0.00000000000E+00 -0.00000000000E+00 -0.85888581665E+03  0.85888581665E+03  0.25500000000E-02 0.  1.
    8880022    1    1    2    0    0  0.53380250424E+03 -0.59796120059E+02  0.10100110883E+04  0.11541380944E+04  0.15294330000E+03 0.  0.
    8880022    1    1    2    0    0 -0.53380250424E+03  0.59796120059E+02 -0.68771723702E+03  0.88592739015E+03  0.15294330000E+03 0.  0.
<mgrwt>
<rscale>  0 0.55849113E+03</rscale>
<asrwt>0</asrwt>
<pdfrwt beam="1">  1        2 0.18171995E+00 0.55849113E+03</pdfrwt>
<pdfrwt beam="2">  1       -2 0.13213628E+00 0.55849113E+03</pdfrwt>
<totfact> 0.85037132E+00</totfact>
</mgrwt>
</event>
<event>
 4    1  0.6912310E-008  0.3545718E+03  0.7818608E-02  0.1060754E+00
         -2   -1    0    0    0  501 -0.00000000000E+00  0.00000000000E+00  0.21390292474E+03  0.21390292476E+03  0.25500000000E-02 0.  1.
          2   -1    0    0  501    0  0.00000000000E+00 -0.00000000000E+00 -0.73380471218E+03  0.73380471218E+03  0.25500000000E-02 0. -1.
    8880022    1    1    2    0    0  0.30162450319E+03 -0.10654664679E+03 -0.47135515891E+03  0.58982782887E+03  0.15294330000E+03 0.  0.
    8880022    1    1    2    0    0 -0.30162450319E+03  0.10654664679E+03 -0.48546628523E+02  0.35787980807E+03  0.15294330000E+03 0.  0.
<mgrwt>
<rscale>  0 0.35457183E+03</rscale>
<asrwt>0</asrwt>
<pdfrwt beam="1">  1        2 0.11289303E+00 0.35457183E+03</pdfrwt>
<pdfrwt beam="2">  1       -2 0.32908143E-01 0.35457183E+03</pdfrwt>
<totfact> 0.34141679E+02</totfact>
</mgrwt>
</event>
<event>
 4    1  0.6912310E-008  0.5591400E+03  0.7818608E-02  0.9994002E-01
          2   -1    0    0  501    0  0.00000000000E+00  0.00000000000E+00  0.27590579794E+04  0.27590579794E+04  0.25500000000E-02 0. -1.
         -2   -1    0    0    0  501 -0.00000000000E+00 -0.00000000000E+00 -0.26725941398E+03  0.26725941400E+03  0.25500000000E-02 0.  1.
    8880022    1    1    2    0    0 -0.49956351191E+03 -0.19920387483E+03  0.97474502064E+02  0.56757274225E+03  0.15294330000E+03 0.  0.
    8880022    1    1    2    0    0  0.49956351191E+03  0.19920387483E+03  0.23943240633E+04  0.24587446511E+04  0.15294330000E+03 0.  0.
<mgrwt>
<rscale>  0 0.55914000E+03</rscale>
<asrwt>0</asrwt>
<pdfrwt beam="1">  1        2 0.42447048E+00 0.55914000E+03</pdfrwt>
<pdfrwt beam="2">  1       -2 0.41116831E-01 0.55914000E+03</pdfrwt>
<totfact> 0.15001377E+01</totfact>
</mgrwt>
</event>
<event>
 4    1  0.6912310E-008  0.2611422E+03  0.7818608E-02  0.1106459E+00
         -2   -1    0    0    0  501 -0.00000000000E+00  0.00000000000E+00  0.41205528768E+03  0.41205528769E+03  0.25500000000E-02 0.  1.
          2   -1    0    0  501    0  0.00000000000E+00 -0.00000000000E+00 -0.12044213623E+04  0.12044213623E+04  0.25500000000E-02 0. -1.
    8880022    1    1    2    0    0  0.93236283743E+02  0.19002784684E+03  0.35447390857E+03  0.44028058333E+03  0.15294330000E+03 0.  0.
    8880022    1    1    2    0    0 -0.93236283743E+02 -0.19002784684E+03 -0.11468399832E+04  0.11761960667E+04  0.15294330000E+03 0.  0.
<mgrwt>
<rscale>  0 0.26114218E+03</rscale>
<asrwt>0</asrwt>
<pdfrwt beam="1">  1        2 0.18529559E+00 0.26114218E+03</pdfrwt>
<pdfrwt beam="2">  1       -2 0.63393122E-01 0.26114218E+03</pdfrwt>
<totfact> 0.47676603E+01</totfact>
</mgrwt>
</event>
<event>
 4    1  0.6912310E-008  0.5834865E+03  0.7818608E-02  0.9940271E-01
          2   -1    0    0  501    0  0.00000000000E+00  0.00000000000E+00  0.10938335903E+04  0.10938335904E+04  0.25500000000E-02 0. -1.
         -2   -1    0    0    0  501 -0.00000000000E+00 -0.00000000000E+00 -0.42902878834E+03  0.42902878835E+03  0.25500000000E-02 0.  1.
    8880022    1    1    2    0    0  0.51868219118E+03 -0.21916582275E+03 -0.66548638944E+02  0.58726931443E+03  0.15294330000E+03 0.  0.
    8880022    1    1    2    0    0 -0.51868219118E+03  0.21916582275E+03  0.73135344095E+03  0.93559306427E+03  0.15294330000E+03 0.  0.
<mgrwt>
<rscale>  0 0.58348653E+03</rscale>
<asrwt>0</asrwt>
<pdfrwt beam="1">  1        2 0.16828209E+00 0.58348653E+03</pdfrwt>
<pdfrwt beam="2">  1       -2 0.66004430E-01 0.58348653E+03</pdfrwt>
<totfact> 0.48012229E+01</totfact>
</mgrwt>
</event>
<event>
 4    1  0.6912310E-008  0.5126234E+03  0.7818608E-02  0.1010536E+00
         -2   -1    0    0    0  501 -0.00000000000E+00  0.00000000000E+00  0.28158209591E+03  0.28158209592E+03  0.25500000000E-02 0.  1.
          2   -1    0    0  501    0  0.00000000000E+00 -0.00000000000E+00 -0.19368701957E+04  0.19368701957E+04  0.25500000000E-02 0. -1.
    8880022    1    1    2    0    0 -0.38260845102E+03 -0.30496213752E+03 -0.29176293469E+02  0.51345305650E+03  0.15294330000E+03 0.  0.
    8880022    1    1    2    0    0  0.38260845102E+03  0.30496213752E+03 -0.16261118064E+04  0.17049992352E+04  0.15294330000E+03 0.  0.
<mgrwt>
<rscale>  0 0.51262343E+03</rscale>
<asrwt>0</asrwt>
<pdfrwt beam="1">  1        2 0.29798002E+00 0.51262343E+03</pdfrwt>
<pdfrwt beam="2">  1       -2 0.43320324E-01 0.51262343E+03</pdfrwt>
<totfact> 0.39071316E+01</totfact>
</mgrwt>
</event>
<event>
 4    1  0.6912310E-008  0.3598001E+03  0.7818608E-02  0.1058663E+00
          2   -1    0    0  501    0  0.00000000000E+00  0.00000000000E+00  0.90876421441E+03  0.90876421441E+03  0.25500000000E-02 0. -1.
         -2   -1    0    0    0  501 -0.00000000000E+00 -0.00000000000E+00 -0.39370795530E+03  0.39370795531E+03  0.25500000000E-02 0.  1.
    8880022    1    1    2    0    0 -0.24676842043E+03 -0.21253191210E+03 -0.26271786444E+03  0.44550734707E+03  0.15294330000E+03 0.  0.
    8880022    1    1    2    0    0  0.24676842043E+03  0.21253191210E+03  0.77777412355E+03  0.85696482265E+03  0.15294330000E+03 0.  0.
<mgrwt>
<rscale>  0 0.35980011E+03</rscale>
<asrwt>0</asrwt>
<pdfrwt beam="1">  1        2 0.13980988E+00 0.35980011E+03</pdfrwt>
<pdfrwt beam="2">  1       -2 0.60570455E-01 0.35980011E+03</pdfrwt>
<totfact> 0.77582089E+01</totfact>
</mgrwt>
</event>
<event>
 4    1  0.6912310E-008  0.8186740E+03  0.7818608E-02  0.9533374E-01
          2   -1    0    0  501    0  0.00000000000E+00  0.00000000000E+00  0.19566338056E+04  0.19566338056E+04  0.25500000000E-02 0. -1.
         -2   -1    0    0    0  501 -0.00000000000E+00 -0.00000000000E+00 -0.64913892061E+03  0.64913892061E+03  0.25500000000E-02 0.  1.
    8880022    1    1    2    0    0  0.28246206699E+03 -0.75302762369E+03 -0.24166350185E+03  0.85359728355E+03  0.15294330000E+03 0.  0.
    8880022    1    1    2    0    0 -0.28246206699E+03  0.75302762369E+03  0.15491583868E+04  0.17521754426E+04  0.15294330000E+03 0.  0.
<mgrwt>
<rscale>  0 0.81867397E+03</rscale>
<asrwt>0</asrwt>
<pdfrwt beam="1">  1        2 0.30102058E+00 0.81867397E+03</pdfrwt>
<pdfrwt beam="2">  1       -2 0.99867527E-01 0.81867397E+03</pdfrwt>
<totfact> 0.59930967E+00</totfact>
</mgrwt>
</event>
<event>
 4    1  0.6912310E-008  0.6818833E+03  0.7818608E-02  0.9748726E-01
          2   -1    0    0  501    0  0.00000000000E+00  0.00000000000E+00  0.15010472844E+04  0.15010472844E+04  0.25500000000E-02 0. -1.
         -2   -1    0    0    0  501 -0.00000000000E+00 -0.00000000000E+00 -0.69953308179E+03  0.69953308179E+03  0.25500000000E-02 0.  1.
    8880022    1    1    2    0    0  0.48049467743E+03  0.45901855686E+03 -0.42055623734E+03  0.80114441417E+03  0.15294330000E+03 0.  0.
    8880022    1    1    2    0    0 -0.48049467743E+03 -0.45901855686E+03  0.12220704399E+04  0.13994359520E+04  0.15294330000E+03 0.  0.
<mgrwt>
<rscale>  0 0.68188329E+03</rscale>
<asrwt>0</asrwt>
<pdfrwt beam="1">  1        2 0.23093035E+00 0.68188329E+03</pdfrwt>
<pdfrwt beam="2">  1       -2 0.10762047E+00 0.68188329E+03</pdfrwt>
<totfact> 0.90884336E+00</totfact>
</mgrwt>
</event>
<event>
 4    1  0.6912310E-008  0.5956554E+03  0.7818608E-02  0.9914461E-01
         -2   -1    0    0    0  501 -0.00000000000E+00  0.00000000000E+00  0.27173842835E+03  0.27173842836E+03  0.25500000000E-02 0.  1.
          2   -1    0    0  501    0  0.00000000000E+00 -0.00000000000E+00 -0.23771046335E+04  0.23771046335E+04  0.25500000000E-02 0. -1.
    8880022    1    1    2    0    0  0.10339168830E+03  0.56632488397E+03 -0.16351996063E+03  0.61769259826E+03  0.15294330000E+03 0.  0.
    8880022    1    1    2    0    0 -0.10339168830E+03 -0.56632488397E+03 -0.19418462445E+04  0.20311504636E+04  0.15294330000E+03 0.  0.
<mgrwt>
<rscale>  0 0.59565541E+03</rscale>
<asrwt>0</asrwt>
<pdfrwt beam="1">  1        2 0.36570839E+00 0.59565541E+03</pdfrwt>
<pdfrwt beam="2">  1       -2 0.41805914E-01 0.59565541E+03</pdfrwt>
<totfact> 0.23743511E+01</totfact>
</mgrwt>
</event>
<event>
 4    1  0.6912310E-008  0.2038484E+04  0.7818608E-02  0.8588836E-01
         -2   -1    0    0    0  501 -0.00000000000E+00  0.00000000000E+00  0.17541432223E+04  0.17541432223E+04  0.25500000000E-02 0.  1.
          2   -1    0    0  501    0  0.00000000000E+00 -0.00000000000E+00 -0.26638076551E+04  0.26638076551E+04  0.25500000000E-02 0. -1.
    8880022    1    1    2    0    0 -0.67210481695E+03  0.19184113892E+04  0.28013901508E+03  0.20576434735E+04  0.15294330000E+03 0.  0.
    8880022    1    1    2    0    0  0.67210481695E+03 -0.19184113892E+04 -0.11898034479E+04  0.23603074039E+04  0.15294330000E+03 0.  0.
<mgrwt>
<rscale>  0 0.20384844E+04</rscale>
<asrwt>0</asrwt>
<pdfrwt beam="1">  1        2 0.40981656E+00 0.20384844E+04</pdfrwt>
<pdfrwt beam="2">  1       -2 0.26986819E+00 0.20384844E+04</pdfrwt>
<totfact> 0.11982674E-01</totfact>
</mgrwt>
</event>
<event>
 4    1  0.6912310E-008  0.6179560E+03  0.7818608E-02  0.9868838E-01
         -2   -1    0    0    0  501 -0.00000000000E+00  0.00000000000E+00  0.80615377709E+03  0.80615377710E+03  0.25500000000E-02 0.  1.
          2   -1    0    0  501    0  0.00000000000E+00 -0.00000000000E+00 -0.68330957685E+03  0.68330957686E+03  0.25500000000E-02 0. -1.
    8880022    1    1    2    0    0  0.49313229901E+03 -0.33955634635E+03  0.47390276109E+03  0.77875121615E+03  0.15294330000E+03 0.  0.
    8880022    1    1    2    0    0 -0.49313229901E+03  0.33955634635E+03 -0.35105856085E+03  0.71071213781E+03  0.15294330000E+03 0.  0.
<mgrwt>
<rscale>  0 0.61795601E+03</rscale>
<asrwt>0</asrwt>
<pdfrwt beam="1">  1        2 0.10512455E+00 0.61795601E+03</pdfrwt>
<pdfrwt beam="2">  1       -2 0.12402366E+00 0.61795601E+03</pdfrwt>
<totfact> 0.21222745E+01</totfact>
</mgrwt>
</event>
<event>
 4    1  0.6912310E-008  0.7056292E+03  0.7818608E-02  0.9707654E-01
         -2   -1    0    0    0  501 -0.00000000000E+00  0.00000000000E+00  0.96590941812E+03  0.96590941812E+03  0.25500000000E-02 0.  1.
          2   -1    0    0  501    0  0.00000000000E+00 -0.00000000000E+00 -0.81766691807E+03  0.81766691807E+03  0.25500000000E-02 0. -1.
    8880022    1    1    2    0    0 -0.34258111937E+03  0.59762794245E+03 -0.46801334424E+03  0.84672848325E+03  0.15294330000E+03 0.  0.
    8880022    1    1    2    0    0  0.34258111937E+03 -0.59762794245E+03  0.61625584429E+03  0.93684785295E+03  0.15294330000E+03 0.  0.
<mgrwt>
<rscale>  0 0.70562925E+03</rscale>
<asrwt>0</asrwt>
<pdfrwt beam="1">  1        2 0.12579491E+00 0.70562925E+03</pdfrwt>
<pdfrwt beam="2">  1       -2 0.14860145E+00 0.70562925E+03</pdfrwt>
<totfact> 0.10496099E+01</totfact>
</mgrwt>
</event>
<event>
 4    1  0.6912310E-008  0.1924491E+03  0.7818608E-02  0.1156271E+00
         -2   -1    0    0    0  501 -0.00000000000E+00  0.00000000000E+00  0.24205371900E+03  0.24205371901E+03  0.25500000000E-02 0.  1.
          2   -1    0    0  501    0  0.00000000000E+00 -0.00000000000E+00 -0.64300541766E+03  0.64300541767E+03  0.25500000000E-02 0. -1.
    8880022    1    1    2    0    0 -0.11095370970E+03  0.36527952059E+02  0.18582968641E+03  0.26752447055E+03  0.15294330000E+03 0.  0.
    8880022    1    1    2    0    0  0.11095370970E+03 -0.36527952059E+02 -0.58678138508E+03  0.61753466612E+03  0.15294330000E+03 0. -1.
<mgrwt>
<rscale>  0 0.19244914E+03</rscale>
<asrwt>0</asrwt>
<pdfrwt beam="1">  1        2 0.98923910E-01 0.19244914E+03</pdfrwt>
<pdfrwt beam="2">  1       -2 0.37239034E-01 0.19244914E+03</pdfrwt>
<totfact> 0.32228055E+02</totfact>
</mgrwt>
</event>
<event>
 4    1  0.6912310E-008  0.1042843E+04  0.7818608E-02  0.9262764E-01
         -2   -1    0    0    0  501 -0.00000000000E+00  0.00000000000E+00  0.34773496496E+03  0.34773496497E+03  0.25500000000E-02 0.  1.
          2   -1    0    0  501    0  0.00000000000E+00 -0.00000000000E+00 -0.48358781280E+04  0.48358781280E+04  0.25500000000E-02 0. -1.
    8880022    1    1    2    0    0  0.38295553303E+03 -0.95784958525E+03 -0.70356435944E+03  0.12579845902E+04  0.15294330000E+03 0.  1.
    8880022    1    1    2    0    0 -0.38295553303E+03  0.95784958525E+03 -0.37845788036E+04  0.39256285028E+04  0.15294330000E+03 0.  0.
<mgrwt>
<rscale>  0 0.10428434E+04</rscale>
<asrwt>0</asrwt>
<pdfrwt beam="1">  1        2 0.74398120E+00 0.10428434E+04</pdfrwt>
<pdfrwt beam="2">  1       -2 0.53497690E-01 0.10428434E+04</pdfrwt>
<totfact> 0.19337632E-01</totfact>
</mgrwt>
</event>
<event>
 4    1  0.6912310E-008  0.3923527E+03  0.7818608E-02  0.1046460E+00
          2   -1    0    0  501    0  0.00000000000E+00  0.00000000000E+00  0.50684497181E+03  0.50684497181E+03  0.25500000000E-02 0. -1.
         -2   -1    0    0    0  501 -0.00000000000E+00 -0.00000000000E+00 -0.17024556829E+04  0.17024556829E+04  0.25500000000E-02 0.  1.
    8880022    1    1    2    0    0  0.17469259754E+03 -0.31627757494E+03 -0.15990823143E+04  0.16465129544E+04  0.15294330000E+03 0.  0.
    8880022    1    1    2    0    0 -0.17469259754E+03  0.31627757494E+03  0.40347160320E+03  0.56278770033E+03  0.15294330000E+03 0.  0.
<mgrwt>
<rscale>  0 0.39235273E+03</rscale>
<asrwt>0</asrwt>
<pdfrwt beam="1">  1        2 0.77976150E-01 0.39235273E+03</pdfrwt>
<pdfrwt beam="2">  1       -2 0.26191626E+00 0.39235273E+03</pdfrwt>
<totfact> 0.36387869E+00</totfact>
</mgrwt>
</event>
<event>
 4    1  0.6912310E-008  0.3497032E+03  0.7818608E-02  0.1062737E+00
          2   -1    0    0  501    0  0.00000000000E+00  0.00000000000E+00  0.14320892652E+04  0.14320892652E+04  0.25500000000E-02 0. -1.
         -2   -1    0    0    0  501 -0.00000000000E+00 -0.00000000000E+00 -0.94503003602E+02  0.94503003636E+02  0.25500000000E-02 0.  1.
    8880022    1    1    2    0    0 -0.14005547150E+03  0.28157615825E+03  0.43182085866E+03  0.55566318483E+03  0.15294330000E+03 0.  1.
    8880022    1    1    2    0    0  0.14005547150E+03 -0.28157615825E+03  0.90576540295E+03  0.97092908402E+03  0.15294330000E+03 0. -1.
<mgrwt>
<rscale>  0 0.34970319E+03</rscale>
<asrwt>0</asrwt>
<pdfrwt beam="1">  1        2 0.22032140E+00 0.34970319E+03</pdfrwt>
<pdfrwt beam="2">  1       -2 0.14538925E-01 0.34970319E+03</pdfrwt>
<totfact> 0.53288627E+02</totfact>
</mgrwt>
</event>
<event>
 4    1  0.6912310E-008  0.7991730E+03  0.7818608E-02  0.9561215E-01
         -2   -1    0    0    0  501 -0.00000000000E+00  0.00000000000E+00  0.58425820213E+03  0.58425820213E+03  0.25500000000E-02 0.  1.
          2   -1    0    0  501    0  0.00000000000E+00 -0.00000000000E+00 -0.19790236033E+04  0.19790236033E+04  0.25500000000E-02 0. -1.
    8880022    1    1    2    0    0  0.38782856547E+03 -0.68181724801E+03 -0.15548718189E+04  0.17482287557E+04  0.15294330000E+03 0.  0.
    8880022    1    1    2    0    0 -0.38782856547E+03  0.68181724801E+03  0.16010641776E+03  0.81505304975E+03  0.15294330000E+03 0.  0.
<mgrwt>
<rscale>  0 0.79917295E+03</rscale>
<asrwt>0</asrwt>
<pdfrwt beam="1">  1        2 0.30446517E+00 0.79917295E+03</pdfrwt>
<pdfrwt beam="2">  1       -2 0.89885878E-01 0.79917295E+03</pdfrwt>
<totfact> 0.74746964E+00</totfact>
</mgrwt>
</event>
<event>
 4    1  0.6912310E-008  0.4649835E+03  0.7818608E-02  0.1023346E+00
          2   -1    0    0  501    0  0.00000000000E+00  0.00000000000E+00  0.16935743315E+04  0.16935743315E+04  0.25500000000E-02 0. -1.
         -2   -1    0    0    0  501 -0.00000000000E+00 -0.00000000000E+00 -0.51767521584E+03  0.51767521585E+03  0.25500000000E-02 0.  1.
    8880022    1    1    2    0    0 -0.23903912632E+02  0.43845932214E+03 -0.37171011187E+03  0.59529659372E+03  0.15294330000E+03 0.  0.
    8880022    1    1    2    0    0  0.23903912632E+02 -0.43845932214E+03  0.15476092275E+04  0.16159529536E+04  0.15294330000E+03 0.  0.
<mgrwt>
<rscale>  0 0.46498347E+03</rscale>
<asrwt>0</asrwt>
<pdfrwt beam="1">  1        2 0.26054990E+00 0.46498347E+03</pdfrwt>
<pdfrwt beam="2">  1       -2 0.79642341E-01 0.46498347E+03</pdfrwt>
<totfact> 0.14907281E+01</totfact>
</mgrwt>
</event>
<event>
 4    1  0.6912310E-008  0.4716995E+03  0.7818608E-02  0.1021442E+00
          2   -1    0    0  501    0  0.00000000000E+00  0.00000000000E+00  0.18724665110E+04  0.18724665110E+04  0.25500000000E-02 0. -1.
         -2   -1    0    0    0  501 -0.00000000000E+00 -0.00000000000E+00 -0.16587020748E+03  0.16587020750E+03  0.25500000000E-02 0.  1.
    8880022    1    1    2    0    0  0.14202093098E+03 -0.42301161657E+03  0.13960584990E+04  0.14735941633E+04  0.15294330000E+03 0.  0.
    8880022    1    1    2    0    0 -0.14202093098E+03  0.42301161657E+03  0.31053780458E+03  0.56474255522E+03  0.15294330000E+03 0.  1.
<mgrwt>
<rscale>  0 0.47169951E+03</rscale>
<asrwt>0</asrwt>
<pdfrwt beam="1">  1        2 0.28807176E+00 0.47169951E+03</pdfrwt>
<pdfrwt beam="2">  1       -2 0.25518494E-01 0.47169951E+03</pdfrwt>
<totfact> 0.11505820E+02</totfact>
</mgrwt>
</event>
<event>
 4    1  0.6912310E-008  0.3606540E+03  0.7818608E-02  0.1058325E+00
          2   -1    0    0  501    0  0.00000000000E+00  0.00000000000E+00  0.12089068052E+04  0.12089068052E+04  0.25500000000E-02 0. -1.
         -2   -1    0    0    0  501 -0.00000000000E+00 -0.00000000000E+00 -0.84963123954E+03  0.84963123954E+03  0.25500000000E-02 0.  1.
    8880022    1    1    2    0    0  0.29910657387E+03 -0.13120555519E+03 -0.78225457499E+03  0.86139045348E+03  0.15294330000E+03 0.  1.
    8880022    1    1    2    0    0 -0.29910657387E+03  0.13120555519E+03  0.11415301407E+04  0.11971475913E+04  0.15294330000E+03 0.  0.
<mgrwt>
<rscale>  0 0.36065398E+03</rscale>
<asrwt>0</asrwt>
<pdfrwt beam="1">  1        2 0.18598566E+00 0.36065398E+03</pdfrwt>
<pdfrwt beam="2">  1       -2 0.13071250E+00 0.36065398E+03</pdfrwt>
<totfact> 0.87929070E+00</totfact>
</mgrwt>
</event>
<event>
 4    1  0.6912310E-008  0.5847292E+03  0.7818608E-02  0.9937605E-01
          2   -1    0    0  501    0  0.00000000000E+00  0.00000000000E+00  0.67034636522E+03  0.67034636523E+03  0.25500000000E-02 0. -1.
         -2   -1    0    0    0  501 -0.00000000000E+00 -0.00000000000E+00 -0.19962516863E+04  0.19962516863E+04  0.25500000000E-02 0.  1.
    8880022    1    1    2    0    0 -0.62556181859E+01 -0.56433802858E+03 -0.18133800620E+04  0.19053229242E+04  0.15294330000E+03 0.  0.
    8880022    1    1    2    0    0  0.62556181859E+01  0.56433802858E+03  0.48747474098E+03  0.76127512725E+03  0.15294330000E+03 0.  0.
<mgrwt>
<rscale>  0 0.58472916E+03</rscale>
<asrwt>0</asrwt>
<pdfrwt beam="1">  1        2 0.10313021E+00 0.58472916E+03</pdfrwt>
<pdfrwt beam="2">  1       -2 0.30711564E+00 0.58472916E+03</pdfrwt>
<totfact> 0.13425519E+00</totfact>
</mgrwt>
</event>
<event>
 4    1  0.6912310E-008  0.1021065E+04  0.7818608E-02  0.9285739E-01
         -2   -1    0    0    0  501 -0.00000000000E+00  0.00000000000E+00  0.83497543181E+03  0.83497543181E+03  0.25500000000E-02 0.  1.
          2   -1    0    0  501    0  0.00000000000E+00 -0.00000000000E+00 -0.21069964551E+04  0.21069964551E+04  0.25500000000E-02 0. -1.
    8880022    1    1    2    0    0 -0.71644467419E+03 -0.71125830295E+03 -0.15748983391E+04  0.18769330772E+04  0.15294330000E+03 0.  0.
    8880022    1    1    2    0    0  0.71644467419E+03  0.71125830295E+03  0.30287731584E+03  0.10650388097E+04  0.15294330000E+03 0.  0.
<mgrwt>
<rscale>  0 0.10210646E+04</rscale>
<asrwt>0</asrwt>
<pdfrwt beam="1">  1        2 0.32415330E+00 0.10210646E+04</pdfrwt>
<pdfrwt beam="2">  1       -2 0.12845776E+00 0.10210646E+04</pdfrwt>
<totfact> 0.25993413E+00</totfact>
</mgrwt>
</event>
<event>
 4    1  0.6912310E-008  0.5145396E+03  0.7818608E-02  0.1010052E+00
          2   -1    0    0  501    0  0.00000000000E+00  0.00000000000E+00  0.63530223410E+03  0.63530223411E+03  0.25500000000E-02 0. -1.
         -2   -1    0    0    0  501 -0.00000000000E+00 -0.00000000000E+00 -0.56743944315E+03  0.56743944315E+03  0.25500000000E-02 0.  1.
    8880022    1    1    2    0    0 -0.47252453980E+03 -0.13446153146E+03 -0.27598848898E+03  0.58388410084E+03  0.15294330000E+03 0.  0.
    8880022    1    1    2    0    0  0.47252453980E+03  0.13446153146E+03  0.34385127994E+03  0.61885757641E+03  0.15294330000E+03 0.  0.
<mgrwt>
<rscale>  0 0.51453960E+03</rscale>
<asrwt>0</asrwt>
<pdfrwt beam="1">  1        2 0.97738806E-01 0.51453960E+03</pdfrwt>
<pdfrwt beam="2">  1       -2 0.87298376E-01 0.51453960E+03</pdfrwt>
<totfact> 0.54156217E+01</totfact>
</mgrwt>
</event>
<event>
 4    1  0.6912310E-008  0.6110950E+03  0.7818608E-02  0.9882651E-01
         -2   -1    0    0    0  501 -0.00000000000E+00  0.00000000000E+00  0.36680068175E+03  0.36680068176E+03  0.25500000000E-02 0.  1.
          2   -1    0    0  501    0  0.00000000000E+00 -0.00000000000E+00 -0.21957046077E+04  0.21957046077E+04  0.25500000000E-02 0. -1.
    8880022    1    1    2    0    0 -0.53539716489E+03 -0.25178421261E+03  0.23863616644E+02  0.61156074033E+03  0.15294330000E+03 0.  0.
    8880022    1    1    2    0    0  0.53539716489E+03  0.25178421261E+03 -0.18527675426E+04  0.19509445491E+04  0.15294330000E+03 0.  0.
<mgrwt>
<rscale>  0 0.61109497E+03</rscale>
<asrwt>0</asrwt>
<pdfrwt beam="1">  1        2 0.33780070E+00 0.61109497E+03</pdfrwt>
<pdfrwt beam="2">  1       -2 0.56430875E-01 0.61109497E+03</pdfrwt>
<totfact> 0.16270262E+01</totfact>
</mgrwt>
</event>
<event>
 4    1  0.6912310E-008  0.7312740E+03  0.7818608E-02  0.9665195E-01
         -2   -1    0    0    0  501 -0.00000000000E+00  0.00000000000E+00  0.95462218703E+03  0.95462218703E+03  0.25500000000E-02 0.  1.
          2   -1    0    0  501    0  0.00000000000E+00 -0.00000000000E+00 -0.13308676582E+04  0.13308676582E+04  0.25500000000E-02 0. -1.
    8880022    1    1    2    0    0  0.50511519314E+03  0.50619035327E+03  0.68147949532E+03  0.99958790891E+03  0.15294330000E+03 0.  0.
    8880022    1    1    2    0    0 -0.50511519314E+03 -0.50619035327E+03 -0.10577249665E+04  0.12859019364E+04  0.15294330000E+03 0.  0.
<mgrwt>
<rscale>  0 0.73127402E+03</rscale>
<asrwt>0</asrwt>
<pdfrwt beam="1">  1        2 0.20474887E+00 0.73127402E+03</pdfrwt>
<pdfrwt beam="2">  1       -2 0.14686495E+00 0.73127402E+03</pdfrwt>
<totfact> 0.51564681E+00</totfact>
</mgrwt>
</event>
<event>
 4    1  0.6912310E-008  0.7206908E+03  0.7818608E-02  0.9682488E-01
          2   -1    0    0  501    0  0.00000000000E+00  0.00000000000E+00  0.98299825642E+03  0.98299825643E+03  0.25500000000E-02 0. -1.
         -2   -1    0    0    0  501 -0.00000000000E+00 -0.00000000000E+00 -0.74751615920E+03  0.74751615921E+03  0.25500000000E-02 0.  1.
    8880022    1    1    2    0    0 -0.68127154802E+03  0.17852933081E+03 -0.35074136026E+03  0.80150782835E+03  0.15294330000E+03 0.  0.
    8880022    1    1    2    0    0  0.68127154802E+03 -0.17852933081E+03  0.58622345748E+03  0.92900658728E+03  0.15294330000E+03 0.  0.
<mgrwt>
<rscale>  0 0.72069085E+03</rscale>
<asrwt>0</asrwt>
<pdfrwt beam="1">  1        2 0.15123050E+00 0.72069085E+03</pdfrwt>
<pdfrwt beam="2">  1       -2 0.11500249E+00 0.72069085E+03</pdfrwt>
<totfact> 0.15535331E+01</totfact>
</mgrwt>
</event>
<event>
 4    1  0.6912310E-008  0.1759497E+03  0.7818608E-02  0.1171781E+00
          2   -1    0    0  501    0  0.00000000000E+00  0.00000000000E+00  0.16869788226E+03  0.16869788228E+03  0.25500000000E-02 0. -1.
         -2   -1    0    0    0  501 -0.00000000000E+00 -0.00000000000E+00 -0.14806420399E+04  0.14806420399E+04  0.25500000000E-02 0.  1.
    8880022    1    1    2    0    0 -0.86818141257E+02 -0.54098370664E+01 -0.14278465448E+04  0.14386466086E+04  0.15294330000E+03 0.  1.
    8880022    1    1    2    0    0  0.86818141257E+02  0.54098370664E+01  0.11590238720E+03  0.21069331352E+03  0.15294330000E+03 0.  0.
<mgrwt>
<rscale>  0 0.17594973E+03</rscale>
<asrwt>0</asrwt>
<pdfrwt beam="1">  1        2 0.25953521E-01 0.17594973E+03</pdfrwt>
<pdfrwt beam="2">  1       -2 0.22779107E+00 0.17594973E+03</pdfrwt>
<totfact> 0.20659392E+01</totfact>
</mgrwt>
</event>
<event>
 4    1  0.6912310E-008  0.7314786E+03  0.7818608E-02  0.9664864E-01
         -2   -1    0    0    0  501 -0.00000000000E+00  0.00000000000E+00  0.50773564709E+03  0.50773564710E+03  0.25500000000E-02 0.  1.
          2   -1    0    0  501    0  0.00000000000E+00 -0.00000000000E+00 -0.20199522585E+04  0.20199522585E+04  0.25500000000E-02 0. -1.
    8880022    1    1    2    0    0  0.41951965620E+01  0.71529834742E+03 -0.16301690928E+04  0.17867602664E+04  0.15294330000E+03 0.  0.
    8880022    1    1    2    0    0 -0.41951965620E+01 -0.71529834742E+03  0.11795248147E+03  0.74092763911E+03  0.15294330000E+03 0.  0.
<mgrwt>
<rscale>  0 0.73147862E+03</rscale>
<asrwt>0</asrwt>
<pdfrwt beam="1">  1        2 0.31076188E+00 0.73147862E+03</pdfrwt>
<pdfrwt beam="2">  1       -2 0.78113178E-01 0.73147862E+03</pdfrwt>
<totfact> 0.98667151E+00</totfact>
</mgrwt>
</event>
<event>
 4    1  0.6912310E-008  0.1531353E+03  0.7818608E-02  0.1196673E+00
         -2   -1    0    0    0  501 -0.00000000000E+00  0.00000000000E+00  0.15612361001E+03  0.15612361003E+03  0.25500000000E-02 0.  1.
          2   -1    0    0  501    0  0.00000000000E+00 -0.00000000000E+00 -0.27431574070E+04  0.27431574070E+04  0.25500000000E-02 0. -1.
    8880022    1    1    2    0    0  0.75923350136E+01 -0.10528391348E+01 -0.27029105169E+04  0.27072450327E+04  0.15294330000E+03 0.  0.
    8880022    1    1    2    0    0 -0.75923350136E+01  0.10528391348E+01  0.11587671991E+03  0.19203598426E+03  0.15294330000E+03 0.  1.
<mgrwt>
<rscale>  0 0.15313525E+03</rscale>
<asrwt>0</asrwt>
<pdfrwt beam="1">  1        2 0.42202418E+00 0.15313525E+03</pdfrwt>
<pdfrwt beam="2">  1       -2 0.24019019E-01 0.15313525E+03</pdfrwt>
<totfact> 0.48221870E+01</totfact>
</mgrwt>
</event>
<event>
 4    1  0.6912310E-008  0.2451750E+03  0.7818608E-02  0.1116393E+00
         -2   -1    0    0    0  501 -0.00000000000E+00  0.00000000000E+00  0.93934060865E+02  0.93934060900E+02  0.25500000000E-02 0.  1.
          2   -1    0    0  501    0  0.00000000000E+00 -0.00000000000E+00 -0.12123329960E+04  0.12123329960E+04  0.25500000000E-02 0. -1.
    8880022    1    1    2    0    0 -0.11372427720E+03 -0.15422677248E+03 -0.11040878601E+03  0.26888819539E+03  0.15294330000E+03 0.  0.
    8880022    1    1    2    0    0  0.11372427720E+03  0.15422677248E+03 -0.10079901491E+04  0.10373788615E+04  0.15294330000E+03 0. -1.
<mgrwt>
<rscale>  0 0.24517496E+03</rscale>
<asrwt>0</asrwt>
<pdfrwt beam="1">  1        2 0.18651276E+00 0.24517496E+03</pdfrwt>
<pdfrwt beam="2">  1       -2 0.14451395E-01 0.24517496E+03</pdfrwt>
<totfact> 0.71994138E+02</totfact>
</mgrwt>
</event>
<event>
 4    1  0.6912310E-008  0.3180637E+03  0.7818608E-02  0.1076544E+00
         -2   -1    0    0    0  501 -0.00000000000E+00  0.00000000000E+00  0.14280508572E+04  0.14280508572E+04  0.25500000000E-02 0.  1.
          2   -1    0    0  501    0  0.00000000000E+00 -0.00000000000E+00 -0.94683026206E+03  0.94683026206E+03  0.25500000000E-02 0. -1.
    8880022    1    1    2    0    0  0.49168937511E+02 -0.27450912653E+03 -0.90154514740E+03  0.95600635499E+03  0.15294330000E+03 0. -1.
    8880022    1    1    2    0    0 -0.49168937511E+02  0.27450912653E+03  0.13827657426E+04  0.14188747643E+04  0.15294330000E+03 0.  0.
<mgrwt>
<rscale>  0 0.31806367E+03</rscale>
<asrwt>0</asrwt>
<pdfrwt beam="1">  1        2 0.14566619E+00 0.31806367E+03</pdfrwt>
<pdfrwt beam="2">  1       -2 0.21970013E+00 0.31806367E+03</pdfrwt>
<totfact> 0.30752584E+00</totfact>
</mgrwt>
</event>
<event>
 4    1  0.6912310E-008  0.2152058E+03  0.7818608E-02  0.1137509E+00
         -2   -1    0    0    0  501 -0.00000000000E+00  0.00000000000E+00  0.39262881486E+03  0.39262881487E+03  0.25500000000E-02 0.  1.
          2   -1    0    0  501    0  0.00000000000E+00 -0.00000000000E+00 -0.23309341498E+03  0.23309341500E+03  0.25500000000E-02 0. -1.
    8880022    1    1    2    0    0 -0.13388583777E+03 -0.70685666848E+02 -0.14011542251E+03  0.25679927121E+03  0.15294330000E+03 0. -1.
    8880022    1    1    2    0    0  0.13388583777E+03  0.70685666848E+02  0.29965082238E+03  0.36892295866E+03  0.15294330000E+03 0.  0.
<mgrwt>
<rscale>  0 0.21520579E+03</rscale>
<asrwt>0</asrwt>
<pdfrwt beam="1">  1        2 0.35860525E-01 0.21520579E+03</pdfrwt>
<pdfrwt beam="2">  1       -2 0.60404433E-01 0.21520579E+03</pdfrwt>
<totfact> 0.37747510E+02</totfact>
</mgrwt>
</event>
<event>
 4    1  0.6912310E-008  0.5495322E+03  0.7818608E-02  0.1001602E+00
          2   -1    0    0  501    0  0.00000000000E+00  0.00000000000E+00  0.18480513349E+04  0.18480513349E+04  0.25500000000E-02 0. -1.
         -2   -1    0    0    0  501 -0.00000000000E+00 -0.00000000000E+00 -0.35820469788E+03  0.35820469789E+03  0.25500000000E-02 0.  1.
    8880022    1    1    2    0    0  0.39312102691E+03 -0.35220711621E+03  0.15584119884E+04  0.16524628810E+04  0.15294330000E+03 0.  0.
    8880022    1    1    2    0    0 -0.39312102691E+03  0.35220711621E+03 -0.68565351399E+02  0.55379315176E+03  0.15294330000E+03 0.  1.
<mgrwt>
<rscale>  0 0.54953221E+03</rscale>
<asrwt>0</asrwt>
<pdfrwt beam="1">  1        2 0.28431559E+00 0.54953221E+03</pdfrwt>
<pdfrwt beam="2">  1       -2 0.55108414E-01 0.54953221E+03</pdfrwt>
<totfact> 0.26673643E+01</totfact>
</mgrwt>
</event>
<event>
 4    1  0.6912310E-008  0.3402375E+03  0.7818608E-02  0.1066695E+00
          2   -1    0    0  501    0  0.00000000000E+00  0.00000000000E+00  0.22085772557E+04  0.22085772557E+04  0.25500000000E-02 0. -1.
         -2   -1    0    0    0  501 -0.00000000000E+00 -0.00000000000E+00 -0.80913866849E+02  0.80913866890E+02  0.25500000000E-02 0.  1.
    8880022    1    1    2    0    0  0.12448141968E+03  0.27726206488E+03  0.17432150451E+04  0.17761081676E+04  0.15294330000E+03 0.  0.
    8880022    1    1    2    0    0 -0.12448141968E+03 -0.27726206488E+03  0.38444834376E+03  0.51338295502E+03  0.15294330000E+03 0.  0.
<mgrwt>
<rscale>  0 0.34023746E+03</rscale>
<asrwt>0</asrwt>
<pdfrwt beam="1">  1        2 0.33978114E+00 0.34023746E+03</pdfrwt>
<pdfrwt beam="2">  1       -2 0.12448286E-01 0.34023746E+03</pdfrwt>
<totfact> 0.26521139E+02</totfact>
</mgrwt>
</event>
<event>
 4    1  0.6912310E-008  0.1221429E+04  0.7818608E-02  0.9094304E-01
          2   -1    0    0  501    0  0.00000000000E+00  0.00000000000E+00  0.11826135851E+04  0.11826135851E+04  0.25500000000E-02 0. -1.
         -2   -1    0    0    0  501 -0.00000000000E+00 -0.00000000000E+00 -0.16361804626E+04  0.16361804626E+04  0.25500000000E-02 0.  1.
    8880022    1    1    2    0    0 -0.10030948620E+04  0.67992450436E+03  0.44764808117E+03  0.13008755096E+04  0.15294330000E+03 0.  0.
    8880022    1    1    2    0    0  0.10030948620E+04 -0.67992450436E+03 -0.90121495866E+03  0.15179185382E+04  0.15294330000E+03 0.  0.
<mgrwt>
<rscale>  0 0.12214288E+04</rscale>
<asrwt>0</asrwt>
<pdfrwt beam="1">  1        2 0.18194055E+00 0.12214288E+04</pdfrwt>
<pdfrwt beam="2">  1       -2 0.25172007E+00 0.12214288E+04</pdfrwt>
<totfact> 0.11809472E+00</totfact>
</mgrwt>
</event>
<event>
 4    1  0.6912310E-008  0.1914600E+03  0.7818608E-02  0.1157151E+00
         -2   -1    0    0    0  501 -0.00000000000E+00  0.00000000000E+00  0.18372910908E+03  0.18372910910E+03  0.25500000000E-02 0.  1.
          2   -1    0    0  501    0  0.00000000000E+00 -0.00000000000E+00 -0.67459265563E+03  0.67459265563E+03  0.25500000000E-02 0. -1.
    8880022    1    1    2    0    0  0.98594281668E+01 -0.11475219933E+03 -0.60557984322E+03  0.63512508619E+03  0.15294330000E+03 0.  0.
    8880022    1    1    2    0    0 -0.98594281668E+01  0.11475219933E+03  0.11471629667E+03  0.22319667854E+03  0.15294330000E+03 0.  1.
<mgrwt>
<rscale>  0 0.19145999E+03</rscale>
<asrwt>0</asrwt>
<pdfrwt beam="1">  1        2 0.10378348E+00 0.19145999E+03</pdfrwt>
<pdfrwt beam="2">  1       -2 0.28266017E-01 0.19145999E+03</pdfrwt>
<totfact> 0.50517023E+02</totfact>
</mgrwt>
</event>
<event>
 4    1  0.6912310E-008  0.7688278E+03  0.7818608E-02  0.9606267E-01
          2   -1    0    0  501    0  0.00000000000E+00  0.00000000000E+00  0.14379391997E+04  0.14379391997E+04  0.25500000000E-02 0. -1.
         -2   -1    0    0    0  501 -0.00000000000E+00 -0.00000000000E+00 -0.49588605679E+03  0.49588605680E+03  0.25500000000E-02 0.  1.
    8880022    1    1    2    0    0  0.70294070124E+03  0.27125431197E+03  0.71145506138E+02  0.77211260013E+03  0.15294330000E+03 0.  0.
    8880022    1    1    2    0    0 -0.70294070124E+03 -0.27125431197E+03  0.87090763681E+03  0.11617126564E+04  0.15294330000E+03 0.  0.
<mgrwt>
<rscale>  0 0.76882780E+03</rscale>
<asrwt>0</asrwt>
<pdfrwt beam="1">  1        2 0.22122141E+00 0.76882780E+03</pdfrwt>
<pdfrwt beam="2">  1       -2 0.76290164E-01 0.76882780E+03</pdfrwt>
<totfact> 0.21598228E+01</totfact>
</mgrwt>
</event>
<event>
 4    1  0.6912310E-008  0.7274683E+03  0.7818608E-02  0.9671378E-01
          2   -1    0    0  501    0  0.00000000000E+00  0.00000000000E+00  0.35138494749E+03  0.35138494750E+03  0.25500000000E-02 0. -1.
         -2   -1    0    0    0  501 -0.00000000000E+00 -0.00000000000E+00 -0.20039388509E+04  0.20039388509E+04  0.25500000000E-02 0.  1.
    8880022    1    1    2    0    0  0.44090134076E+03  0.55805414639E+03 -0.23927954454E+03  0.76580988244E+03  0.15294330000E+03 0.  0.
    8880022    1    1    2    0    0 -0.44090134076E+03 -0.55805414639E+03 -0.14132743589E+04  0.15895139160E+04  0.15294330000E+03 0.  0.
<mgrwt>
<rscale>  0 0.72746826E+03</rscale>
<asrwt>0</asrwt>
<pdfrwt beam="1">  1        2 0.54059224E-01 0.72746826E+03</pdfrwt>
<pdfrwt beam="2">  1       -2 0.30829828E+00 0.72746826E+03</pdfrwt>
<totfact> 0.27197720E+00</totfact>
</mgrwt>
</event>
<event>
 4    1  0.6912310E-008  0.6075550E+03  0.7818608E-02  0.9889855E-01
         -2   -1    0    0    0  501 -0.00000000000E+00  0.00000000000E+00  0.52555259635E+03  0.52555259636E+03  0.25500000000E-02 0.  1.
          2   -1    0    0  501    0  0.00000000000E+00 -0.00000000000E+00 -0.13423989372E+04  0.13423989372E+04  0.25500000000E-02 0. -1.
    8880022    1    1    2    0    0 -0.28067746390E+03  0.51667362025E+03 -0.10533353636E+04  0.12159928083E+04  0.15294330000E+03 0.  0.
    8880022    1    1    2    0    0  0.28067746390E+03 -0.51667362025E+03  0.23648902272E+03  0.65195872529E+03  0.15294330000E+03 0.  0.
<mgrwt>
<rscale>  0 0.60755504E+03</rscale>
<asrwt>0</asrwt>
<pdfrwt beam="1">  1        2 0.20652291E+00 0.60755504E+03</pdfrwt>
<pdfrwt beam="2">  1       -2 0.80854246E-01 0.60755504E+03</pdfrwt>
<totfact> 0.21923776E+01</totfact>
</mgrwt>
</event>
<event>
 4    1  0.6912310E-008  0.3020896E+03  0.7818608E-02  0.1084201E+00
         -2   -1    0    0    0  501 -0.00000000000E+00  0.00000000000E+00  0.57277319926E+02  0.57277319983E+02  0.25500000000E-02 0.  1.
          2   -1    0    0  501    0  0.00000000000E+00 -0.00000000000E+00 -0.32449827728E+04  0.32449827728E+04  0.25500000000E-02 0. -1.
    8880022    1    1    2    0    0  0.23789666453E+02  0.25942342741E+03 -0.41585996724E+03  0.51400158394E+03  0.15294330000E+03 0.  0.
    8880022    1    1    2    0    0 -0.23789666453E+02 -0.25942342741E+03 -0.27718454856E+04  0.27882585089E+04  0.15294330000E+03 0.  0.
<mgrwt>
<rscale>  0 0.30208958E+03</rscale>
<asrwt>0</asrwt>
<pdfrwt beam="1">  1        2 0.49922797E+00 0.30208958E+03</pdfrwt>
<pdfrwt beam="2">  1       -2 0.88118979E-02 0.30208958E+03</pdfrwt>
<totfact> 0.11897148E+02</totfact>
</mgrwt>
</event>
<event>
 4    1  0.6912310E-008  0.5412007E+03  0.7818608E-02  0.1003551E+00
         -2   -1    0    0    0  501 -0.00000000000E+00  0.00000000000E+00  0.51831786302E+03  0.51831786302E+03  0.25500000000E-02 0.  1.
          2   -1    0    0  501    0  0.00000000000E+00 -0.00000000000E+00 -0.20383545647E+04  0.20383545647E+04  0.25500000000E-02 0. -1.
    8880022    1    1    2    0    0  0.44704071578E+03 -0.26393393342E+03  0.32677018498E+03  0.63220007085E+03  0.15294330000E+03 0.  0.
    8880022    1    1    2    0    0 -0.44704071578E+03  0.26393393342E+03 -0.18468068866E+04  0.19244723569E+04  0.15294330000E+03 0. -1.
<mgrwt>
<rscale>  0 0.54120068E+03</rscale>
<asrwt>0</asrwt>
<pdfrwt beam="1">  1        2 0.31359301E+00 0.54120068E+03</pdfrwt>
<pdfrwt beam="2">  1       -2 0.79741211E-01 0.54120068E+03</pdfrwt>
<totfact> 0.95358760E+00</totfact>
</mgrwt>
</event>
<event>
 4    1  0.6912310E-008  0.5541965E+03  0.7818608E-02  0.1000527E+00
         -2   -1    0    0    0  501 -0.00000000000E+00  0.00000000000E+00  0.56134735968E+03  0.56134735969E+03  0.25500000000E-02 0.  1.
          2   -1    0    0  501    0  0.00000000000E+00 -0.00000000000E+00 -0.92552212723E+03  0.92552212723E+03  0.25500000000E-02 0. -1.
    8880022    1    1    2    0    0 -0.43923478898E+02  0.53086051130E+03 -0.65744076160E+03  0.85986171126E+03  0.15294330000E+03 0.  0.
    8880022    1    1    2    0    0  0.43923478898E+02 -0.53086051130E+03  0.29326599406E+03  0.62700777566E+03  0.15294330000E+03 0.  0.
<mgrwt>
<rscale>  0 0.55419654E+03</rscale>
<asrwt>0</asrwt>
<pdfrwt beam="1">  1        2 0.14238802E+00 0.55419654E+03</pdfrwt>
<pdfrwt beam="2">  1       -2 0.86361132E-01 0.55419654E+03</pdfrwt>
<totfact> 0.33949860E+01</totfact>
</mgrwt>
</event>
<event>
 4    1  0.6912310E-008  0.6173079E+03  0.7818608E-02  0.9870134E-01
          2   -1    0    0  501    0  0.00000000000E+00  0.00000000000E+00  0.23855130372E+04  0.23855130372E+04  0.25500000000E-02 0. -1.
         -2   -1    0    0    0  501 -0.00000000000E+00 -0.00000000000E+00 -0.25975402735E+03  0.25975402736E+03  0.25500000000E-02 0.  1.
    8880022    1    1    2    0    0  0.29951795729E+03 -0.51765474717E+03  0.24218363406E+03  0.66311538184E+03  0.15294330000E+03 0.  0.
    8880022    1    1    2    0    0 -0.29951795729E+03  0.51765474717E+03  0.18835753758E+04  0.19821516827E+04  0.15294330000E+03 0.  0.
<mgrwt>
<rscale>  0 0.61730794E+03</rscale>
<asrwt>0</asrwt>
<pdfrwt beam="1">  1        2 0.36700200E+00 0.61730794E+03</pdfrwt>
<pdfrwt beam="2">  1       -2 0.39962159E-01 0.61730794E+03</pdfrwt>
<totfact> 0.25551082E+01</totfact>
</mgrwt>
</event>
<event>
 4    1  0.6912310E-008  0.1272743E+04  0.7818608E-02  0.9051464E-01
         -2   -1    0    0    0  501 -0.00000000000E+00  0.00000000000E+00  0.12428561639E+04  0.12428561639E+04  0.25500000000E-02 0.  1.
          2   -1    0    0  501    0  0.00000000000E+00 -0.00000000000E+00 -0.16658190493E+04  0.16658190493E+04  0.25500000000E-02 0. -1.
    8880022    1    1    2    0    0 -0.12552698777E+04 -0.14415285791E+03 -0.88988474169E+03  0.15529871277E+04  0.15294330000E+03 0.  0.
    8880022    1    1    2    0    0  0.12552698777E+04  0.14415285791E+03  0.46692185630E+03  0.13556880855E+04  0.15294330000E+03 0.  0.
<mgrwt>
<rscale>  0 0.12727428E+04</rscale>
<asrwt>0</asrwt>
<pdfrwt beam="1">  1        2 0.25627985E+00 0.12727428E+04</pdfrwt>
<pdfrwt beam="2">  1       -2 0.19120864E+00 0.12727428E+04</pdfrwt>
<totfact> 0.15004008E+00</totfact>
</mgrwt>
</event>
<event>
 4    1  0.6912310E-008  0.5971657E+03  0.7818608E-02  0.9911304E-01
         -2   -1    0    0    0  501 -0.00000000000E+00  0.00000000000E+00  0.81131923075E+03  0.81131923076E+03  0.25500000000E-02 0.  1.
          2   -1    0    0  501    0  0.00000000000E+00 -0.00000000000E+00 -0.14864109543E+04  0.14864109543E+04  0.25500000000E-02 0. -1.
    8880022    1    1    2    0    0 -0.37382257132E+02 -0.57603624629E+03 -0.13016995472E+04  0.14321412481E+04  0.15294330000E+03 0.  0.
    8880022    1    1    2    0    0  0.37382257132E+02  0.57603624629E+03  0.62660782366E+03  0.86558893701E+03  0.15294330000E+03 0.  0.
<mgrwt>
<rscale>  0 0.59716567E+03</rscale>
<asrwt>0</asrwt>
<pdfrwt beam="1">  1        2 0.22867861E+00 0.59716567E+03</pdfrwt>
<pdfrwt beam="2">  1       -2 0.12481834E+00 0.59716567E+03</pdfrwt>
<totfact> 0.65335075E+00</totfact>
</mgrwt>
</event>
<event>
 4    1  0.6912310E-008  0.3672026E+03  0.7818608E-02  0.1055768E+00
         -2   -1    0    0    0  501 -0.00000000000E+00  0.00000000000E+00  0.35558286742E+03  0.35558286743E+03  0.25500000000E-02 0.  1.
          2   -1    0    0  501    0  0.00000000000E+00 -0.00000000000E+00 -0.63289597110E+03  0.63289597110E+03  0.25500000000E-02 0. -1.
    8880022    1    1    2    0    0  0.14443969415E+03  0.30097052027E+03 -0.45157148807E+03  0.58202623753E+03  0.15294330000E+03 0.  0.
    8880022    1    1    2    0    0 -0.14443969415E+03 -0.30097052027E+03  0.17425838439E+03  0.40645260100E+03  0.15294330000E+03 0.  0.
<mgrwt>
<rscale>  0 0.36720258E+03</rscale>
<asrwt>0</asrwt>
<pdfrwt beam="1">  1        2 0.97368610E-01 0.36720258E+03</pdfrwt>
<pdfrwt beam="2">  1       -2 0.54705057E-01 0.36720258E+03</pdfrwt>
<totfact> 0.15162349E+02</totfact>
</mgrwt>
</event>
<event>
 4    1  0.6912310E-008  0.1066834E+04  0.7818608E-02  0.9238135E-01
          2   -1    0    0  501    0  0.00000000000E+00  0.00000000000E+00  0.35781804596E+04  0.35781804596E+04  0.25500000000E-02 0. -1.
         -2   -1    0    0    0  501 -0.00000000000E+00 -0.00000000000E+00 -0.62588777068E+03  0.62588777069E+03  0.25500000000E-02 0.  1.
    8880022    1    1    2    0    0 -0.86409834075E+03 -0.60669363597E+03  0.20228914446E+01  0.10668359084E+04  0.15294330000E+03 0.  0.
    8880022    1    1    2    0    0  0.86409834075E+03  0.60669363597E+03  0.29502697975E+04  0.31372323219E+04  0.15294330000E+03 0.  0.
<mgrwt>
<rscale>  0 0.10668340E+04</rscale>
<asrwt>0</asrwt>
<pdfrwt beam="1">  1        2 0.55048930E+00 0.10668340E+04</pdfrwt>
<pdfrwt beam="2">  1       -2 0.96290426E-01 0.10668340E+04</pdfrwt>
<totfact> 0.66194009E-01</totfact>
</mgrwt>
</event>
<event>
 4    1  0.6912310E-008  0.5842293E+03  0.7818608E-02  0.9938676E-01
          2   -1    0    0  501    0  0.00000000000E+00  0.00000000000E+00  0.18850524604E+04  0.18850524604E+04  0.25500000000E-02 0. -1.
         -2   -1    0    0    0  501 -0.00000000000E+00 -0.00000000000E+00 -0.41340424100E+03  0.41340424101E+03  0.25500000000E-02 0.  1.
    8880022    1    1    2    0    0  0.38554925989E+02 -0.56253508095E+03  0.15973667260E+04  0.17008539943E+04  0.15294330000E+03 0.  0.
    8880022    1    1    2    0    0 -0.38554925989E+02  0.56253508095E+03 -0.12571850660E+03  0.59760270710E+03  0.15294330000E+03 0.  0.
<mgrwt>
<rscale>  0 0.58422928E+03</rscale>
<asrwt>0</asrwt>
<pdfrwt beam="1">  1        2 0.29000808E+00 0.58422928E+03</pdfrwt>
<pdfrwt beam="2">  1       -2 0.63600652E-01 0.58422928E+03</pdfrwt>
<totfact> 0.18743792E+01</totfact>
</mgrwt>
</event>
<event>
 4    1  0.6912310E-008  0.3257719E+03  0.7818608E-02  0.1073023E+00
         -2   -1    0    0    0  501 -0.00000000000E+00  0.00000000000E+00  0.33199274155E+03  0.33199274156E+03  0.25500000000E-02 0.  1.
          2   -1    0    0  501    0  0.00000000000E+00 -0.00000000000E+00 -0.35781022194E+04  0.35781022194E+04  0.25500000000E-02 0. -1.
    8880022    1    1    2    0    0 -0.23950919833E+03  0.15928293684E+03 -0.34887273464E+04  0.35039043737E+04  0.15294330000E+03 0. -1.
    8880022    1    1    2    0    0  0.23950919833E+03 -0.15928293684E+03  0.24261786848E+03  0.40619058726E+03  0.15294330000E+03 0.  0.
<mgrwt>
<rscale>  0 0.32577195E+03</rscale>
<asrwt>0</asrwt>
<pdfrwt beam="1">  1        2 0.55047724E+00 0.32577195E+03</pdfrwt>
<pdfrwt beam="2">  1       -2 0.51075809E-01 0.32577195E+03</pdfrwt>
<totfact> 0.32550064E+00</totfact>
</mgrwt>
</event>
<event>
 4    1  0.6912310E-008  0.7049948E+03  0.7818608E-02  0.9708728E-01
          2   -1    0    0  501    0  0.00000000000E+00  0.00000000000E+00  0.12810884919E+04  0.12810884919E+04  0.25500000000E-02 0. -1.
         -2   -1    0    0    0  501 -0.00000000000E+00 -0.00000000000E+00 -0.63446610262E+03  0.63446610263E+03  0.25500000000E-02 0.  1.
    8880022    1    1    2    0    0 -0.68608441088E+03 -0.53983449518E+02  0.92030473272E+03  0.11593008608E+04  0.15294330000E+03 0.  0.
    8880022    1    1    2    0    0  0.68608441088E+03  0.53983449518E+02 -0.27368234346E+03  0.75625373375E+03  0.15294330000E+03 0.  0.
<mgrwt>
<rscale>  0 0.70499481E+03</rscale>
<asrwt>0</asrwt>
<pdfrwt beam="1">  1        2 0.19709054E+00 0.70499481E+03</pdfrwt>
<pdfrwt beam="2">  1       -2 0.97610171E-01 0.70499481E+03</pdfrwt>
<totfact> 0.15220755E+01</totfact>
</mgrwt>
</event>
<event>
 4    1  0.6912310E-008  0.4377162E+03  0.7818608E-02  0.1031450E+00
         -2   -1    0    0    0  501 -0.00000000000E+00  0.00000000000E+00  0.80492777921E+03  0.80492777921E+03  0.25500000000E-02 0.  1.
          2   -1    0    0  501    0  0.00000000000E+00 -0.00000000000E+00 -0.75173507922E+03  0.75173507922E+03  0.25500000000E-02 0. -1.
    8880022    1    1    2    0    0 -0.17932490312E+03  0.36884473671E+03 -0.61681667507E+03  0.75634537371E+03  0.15294330000E+03 0. -1.
    8880022    1    1    2    0    0  0.17932490312E+03 -0.36884473671E+03  0.67000937505E+03  0.80031748472E+03  0.15294330000E+03 0.  0.
<mgrwt>
<rscale>  0 0.43771625E+03</rscale>
<asrwt>0</asrwt>
<pdfrwt beam="1">  1        2 0.11565155E+00 0.43771625E+03</pdfrwt>
<pdfrwt beam="2">  1       -2 0.12383504E+00 0.43771625E+03</pdfrwt>
<totfact> 0.19361838E+01</totfact>
</mgrwt>
</event>
<event>
 4    1  0.6912310E-008  0.6900037E+03  0.7818608E-02  0.9734481E-01
         -2   -1    0    0    0  501 -0.00000000000E+00  0.00000000000E+00  0.96525384190E+03  0.96525384190E+03  0.25500000000E-02 0.  1.
          2   -1    0    0  501    0  0.00000000000E+00 -0.00000000000E+00 -0.50315986709E+03  0.50315986710E+03  0.25500000000E-02 0. -1.
    8880022    1    1    2    0    0 -0.44208914670E+02  0.67138593018E+03  0.12797455409E+03  0.70177107015E+03  0.15294330000E+03 0. -1.
    8880022    1    1    2    0    0  0.44208914670E+02 -0.67138593018E+03  0.33411942072E+03  0.76664263885E+03  0.15294330000E+03 0.  0.
<mgrwt>
<rscale>  0 0.69000373E+03</rscale>
<asrwt>0</asrwt>
<pdfrwt beam="1">  1        2 0.77409211E-01 0.69000373E+03</pdfrwt>
<pdfrwt beam="2">  1       -2 0.14850059E+00 0.69000373E+03</pdfrwt>
<totfact> 0.19170414E+01</totfact>
</mgrwt>
</event>
<event>
 4    1  0.6912310E-008  0.6226776E+03  0.7818608E-02  0.9859443E-01
         -2   -1    0    0    0  501 -0.00000000000E+00  0.00000000000E+00  0.69171749759E+03  0.69171749759E+03  0.25500000000E-02 0.  1.
          2   -1    0    0  501    0  0.00000000000E+00 -0.00000000000E+00 -0.13385865733E+04  0.13385865733E+04  0.25500000000E-02 0. -1.
    8880022    1    1    2    0    0  0.57597130108E+03 -0.18053461158E+03 -0.10973862715E+04  0.12617384704E+04  0.15294330000E+03 0.  0.
    8880022    1    1    2    0    0 -0.57597130108E+03  0.18053461158E+03  0.45051719579E+03  0.76856560056E+03  0.15294330000E+03 0.  0.
<mgrwt>
<rscale>  0 0.62267756E+03</rscale>
<asrwt>0</asrwt>
<pdfrwt beam="1">  1        2 0.20593639E+00 0.62267756E+03</pdfrwt>
<pdfrwt beam="2">  1       -2 0.10641808E+00 0.62267756E+03</pdfrwt>
<totfact> 0.11622869E+01</totfact>
</mgrwt>
</event>
<event>
 4    1  0.6912310E-008  0.2762468E+03  0.7818608E-02  0.1097757E+00
         -2   -1    0    0    0  501 -0.00000000000E+00  0.00000000000E+00  0.24830420468E+03  0.24830420470E+03  0.25500000000E-02 0.  1.
          2   -1    0    0  501    0  0.00000000000E+00 -0.00000000000E+00 -0.14944465067E+04  0.14944465067E+04  0.25500000000E-02 0. -1.
    8880022    1    1    2    0    0 -0.20354676706E+03  0.10718830499E+03  0.15355330909E+03  0.31605520223E+03  0.15294330000E+03 0.  1.
    8880022    1    1    2    0    0  0.20354676706E+03 -0.10718830499E+03 -0.13996956111E+04  0.14266955091E+04  0.15294330000E+03 0.  0.
<mgrwt>
<rscale>  0 0.27624676E+03</rscale>
<asrwt>0</asrwt>
<pdfrwt beam="1">  1        2 0.22991484E+00 0.27624676E+03</pdfrwt>
<pdfrwt beam="2">  1       -2 0.38200648E-01 0.27624676E+03</pdfrwt>
<totfact> 0.90444260E+01</totfact>
</mgrwt>
</event>
<event>
 4    1  0.6912310E-008  0.4900955E+03  0.7818608E-02  0.1016397E+00
         -2   -1    0    0    0  501 -0.00000000000E+00  0.00000000000E+00  0.30719786322E+03  0.30719786323E+03  0.25500000000E-02 0.  1.
          2   -1    0    0  501    0  0.00000000000E+00 -0.00000000000E+00 -0.13187119313E+04  0.13187119313E+04  0.25500000000E-02 0. -1.
    8880022    1    1    2    0    0  0.11678785914E+03  0.45073555688E+03  0.12933557794E+02  0.49026612794E+03  0.15294330000E+03 0.  0.
    8880022    1    1    2    0    0 -0.11678785914E+03 -0.45073555688E+03 -0.10244476259E+04  0.11356436666E+04  0.15294330000E+03 0.  0.
<mgrwt>
<rscale>  0 0.49009550E+03</rscale>
<asrwt>0</asrwt>
<pdfrwt beam="1">  1        2 0.20287876E+00 0.49009550E+03</pdfrwt>
<pdfrwt beam="2">  1       -2 0.47261210E-01 0.49009550E+03</pdfrwt>
<totfact> 0.71710281E+01</totfact>
</mgrwt>
</event>
<event>
 4    1  0.6912310E-008  0.1448351E+04  0.7818608E-02  0.8919544E-01
          2   -1    0    0  501    0  0.00000000000E+00  0.00000000000E+00  0.18823229321E+04  0.18823229321E+04  0.25500000000E-02 0. -1.
         -2   -1    0    0    0  501 -0.00000000000E+00 -0.00000000000E+00 -0.12343348943E+04  0.12343348943E+04  0.25500000000E-02 0.  1.
    8880022    1    1    2    0    0  0.13712849372E+04  0.44034847557E+03  0.80968221941E+03  0.16593089250E+04  0.15294330000E+03 0.  0.
    8880022    1    1    2    0    0 -0.13712849372E+04 -0.44034847557E+03 -0.16169418163E+03  0.14573489014E+04  0.15294330000E+03 0.  0.
<mgrwt>
<rscale>  0 0.14483511E+04</rscale>
<asrwt>0</asrwt>
<pdfrwt beam="1">  1        2 0.28958814E+00 0.14483511E+04</pdfrwt>
<pdfrwt beam="2">  1       -2 0.18989768E+00 0.14483511E+04</pdfrwt>
<totfact> 0.11397694E+00</totfact>
</mgrwt>
</event>
<event>
 4    1  0.6912310E-008  0.2161701E+03  0.7818608E-02  0.1136771E+00
          2   -1    0    0  501    0  0.00000000000E+00  0.00000000000E+00  0.98846211661E+03  0.98846211661E+03  0.25500000000E-02 0. -1.
         -2   -1    0    0    0  501 -0.00000000000E+00 -0.00000000000E+00 -0.17851477213E+03  0.17851477215E+03  0.25500000000E-02 0.  1.
    8880022    1    1    2    0    0  0.13578474609E+03  0.70002689849E+02  0.90527072721E+03  0.93072263130E+03  0.15294330000E+03 0. -1.
    8880022    1    1    2    0    0 -0.13578474609E+03 -0.70002689849E+02 -0.95323382735E+02  0.23625425746E+03  0.15294330000E+03 0.  0.
<mgrwt>
<rscale>  0 0.21617013E+03</rscale>
<asrwt>0</asrwt>
<pdfrwt beam="1">  1        2 0.15207110E+00 0.21617013E+03</pdfrwt>
<pdfrwt beam="2">  1       -2 0.27463811E-01 0.21617013E+03</pdfrwt>
<totfact> 0.32527474E+02</totfact>
</mgrwt>
</event>
<event>
 4    1  0.6912310E-008  0.3871880E+03  0.7818608E-02  0.1048309E+00
          2   -1    0    0  501    0  0.00000000000E+00  0.00000000000E+00  0.17306781056E+04  0.17306781056E+04  0.25500000000E-02 0. -1.
         -2   -1    0    0    0  501 -0.00000000000E+00 -0.00000000000E+00 -0.27297691738E+03  0.27297691739E+03  0.25500000000E-02 0.  1.
    8880022    1    1    2    0    0 -0.34737302440E+03 -0.76517408277E+02  0.15566032137E+04  0.16040349590E+04  0.15294330000E+03 0.  0.
    8880022    1    1    2    0    0  0.34737302440E+03  0.76517408277E+02 -0.98902025497E+02  0.39962006395E+03  0.15294330000E+03 0.  1.
<mgrwt>
<rscale>  0 0.38718805E+03</rscale>
<asrwt>0</asrwt>
<pdfrwt beam="1">  1        2 0.26625817E+00 0.38718805E+03</pdfrwt>
<pdfrwt beam="2">  1       -2 0.41996448E-01 0.38718805E+03</pdfrwt>
<totfact> 0.54897915E+01</totfact>
</mgrwt>
</event>
<event>
 4    1  0.6912310E-008  0.3574076E+03  0.7818608E-02  0.1059615E+00
          2   -1    0    0  501    0  0.00000000000E+00  0.00000000000E+00  0.15689647519E+04  0.15689647519E+04  0.25500000000E-02 0. -1.
         -2   -1    0    0    0  501 -0.00000000000E+00 -0.00000000000E+00 -0.28217475206E+03  0.28217475207E+03  0.25500000000E-02 0.  1.
    8880022    1    1    2    0    0  0.32251953779E+03 -0.18156659913E+02 -0.13730899254E+03  0.38287586631E+03  0.15294330000E+03 0.  0.
    8880022    1    1    2    0    0 -0.32251953779E+03  0.18156659913E+02  0.14240989924E+04  0.14682636376E+04  0.15294330000E+03 0.  0.
<mgrwt>
<rscale>  0 0.35740757E+03</rscale>
<asrwt>0</asrwt>
<pdfrwt beam="1">  1        2 0.24137920E+00 0.35740757E+03</pdfrwt>
<pdfrwt beam="2">  1       -2 0.43411500E-01 0.35740757E+03</pdfrwt>
<totfact> 0.63227510E+01</totfact>
</mgrwt>
</event>
<event>
 4    1  0.6912310E-008  0.5241469E+03  0.7818608E-02  0.1007662E+00
          2   -1    0    0  501    0  0.00000000000E+00  0.00000000000E+00  0.35527668925E+03  0.35527668926E+03  0.25500000000E-02 0. -1.
         -2   -1    0    0    0  501 -0.00000000000E+00 -0.00000000000E+00 -0.22091652141E+04  0.22091652141E+04  0.25500000000E-02 0.  1.
    8880022    1    1    2    0    0  0.32610573131E+03  0.38077992791E+03  0.10678772046E+03  0.53491454621E+03  0.15294330000E+03 0.  0.
    8880022    1    1    2    0    0 -0.32610573131E+03 -0.38077992791E+03 -0.19606762453E+04  0.20295273572E+04  0.15294330000E+03 0.  0.
<mgrwt>
<rscale>  0 0.52414688E+03</rscale>
<asrwt>0</asrwt>
<pdfrwt beam="1">  1        2 0.54657953E-01 0.52414688E+03</pdfrwt>
<pdfrwt beam="2">  1       -2 0.33987156E+00 0.52414688E+03</pdfrwt>
<totfact> 0.17957271E+00</totfact>
</mgrwt>
</event>
<event>
 4    1  0.6912310E-008  0.2199600E+03  0.7818608E-02  0.1133913E+00
         -2   -1    0    0    0  501 -0.00000000000E+00  0.00000000000E+00  0.79714936864E+02  0.79714936904E+02  0.25500000000E-02 0.  1.
          2   -1    0    0  501    0  0.00000000000E+00 -0.00000000000E+00 -0.14570175679E+04  0.14570175679E+04  0.25500000000E-02 0. -1.
    8880022    1    1    2    0    0 -0.54811253064E+02  0.14827830871E+03 -0.10175075216E+03  0.24235428380E+03  0.15294330000E+03 0.  1.
    8880022    1    1    2    0    0  0.54811253064E+02 -0.14827830871E+03 -0.12755518789E+04  0.12943782210E+04  0.15294330000E+03 0.  0.
<mgrwt>
<rscale>  0 0.21995996E+03</rscale>
<asrwt>0</asrwt>
<pdfrwt beam="1">  1        2 0.22415653E+00 0.21995996E+03</pdfrwt>
<pdfrwt beam="2">  1       -2 0.12263837E-01 0.21995996E+03</pdfrwt>
<totfact> 0.69286663E+02</totfact>
</mgrwt>
</event>
<event>
 4    1  0.6912310E-008  0.7591969E+03  0.7818608E-02  0.9621031E-01
         -2   -1    0    0    0  501 -0.00000000000E+00  0.00000000000E+00  0.12028637974E+04  0.12028637974E+04  0.25500000000E-02 0.  1.
          2   -1    0    0  501    0  0.00000000000E+00 -0.00000000000E+00 -0.78539099259E+03  0.78539099259E+03  0.25500000000E-02 0. -1.
    8880022    1    1    2    0    0  0.44916557374E+03 -0.59265378317E+03 -0.41201030645E+03  0.86378953743E+03  0.15294330000E+03 0.  0.
    8880022    1    1    2    0    0 -0.44916557374E+03  0.59265378317E+03  0.82948311126E+03  0.11244652526E+04  0.15294330000E+03 0.  0.
<mgrwt>
<rscale>  0 0.75919686E+03</rscale>
<asrwt>0</asrwt>
<pdfrwt beam="1">  1        2 0.12082938E+00 0.75919686E+03</pdfrwt>
<pdfrwt beam="2">  1       -2 0.18505597E+00 0.75919686E+03</pdfrwt>
<totfact> 0.60182232E+00</totfact>
</mgrwt>
</event>
<event>
 4    1  0.6912310E-008  0.4513088E+03  0.7818608E-02  0.1027332E+00
          2   -1    0    0  501    0  0.00000000000E+00  0.00000000000E+00  0.10559020555E+04  0.10559020555E+04  0.25500000000E-02 0. -1.
         -2   -1    0    0    0  501 -0.00000000000E+00 -0.00000000000E+00 -0.25885517759E+03  0.25885517761E+03  0.25500000000E-02 0.  1.
    8880022    1    1    2    0    0  0.42458118463E+03  0.43352083342E+01  0.66687300595E+02  0.45620919045E+03  0.15294330000E+03 0.  0.
    8880022    1    1    2    0    0 -0.42458118463E+03 -0.43352083342E+01  0.73035957730E+03  0.85854804265E+03  0.15294330000E+03 0.  0.
<mgrwt>
<rscale>  0 0.45130880E+03</rscale>
<asrwt>0</asrwt>
<pdfrwt beam="1">  1        2 0.16244647E+00 0.45130880E+03</pdfrwt>
<pdfrwt beam="2">  1       -2 0.39823874E-01 0.45130880E+03</pdfrwt>
<totfact> 0.14383362E+02</totfact>
</mgrwt>
</event>
<event>
 4    1  0.6912310E-008  0.5662561E+03  0.7818608E-02  0.9977998E-01
          2   -1    0    0  501    0  0.00000000000E+00  0.00000000000E+00  0.25902414967E+04  0.25902414967E+04  0.25500000000E-02 0. -1.
         -2   -1    0    0    0  501 -0.00000000000E+00 -0.00000000000E+00 -0.69682694405E+03  0.69682694405E+03  0.25500000000E-02 0.  1.
    8880022    1    1    2    0    0 -0.21734170355E+03 -0.50001685480E+03  0.24371236220E+04  0.25020426601E+04  0.15294330000E+03 0.  0.
    8880022    1    1    2    0    0  0.21734170355E+03  0.50001685480E+03 -0.54370906933E+03  0.78502578064E+03  0.15294330000E+03 0.  0.
<mgrwt>
<rscale>  0 0.56625606E+03</rscale>
<asrwt>0</asrwt>
<pdfrwt beam="1">  1        2 0.39849868E+00 0.56625606E+03</pdfrwt>
<pdfrwt beam="2">  1       -2 0.10720415E+00 0.56625606E+03</pdfrwt>
<totfact> 0.23689874E+00</totfact>
</mgrwt>
</event>
<event>
 4    1  0.6912310E-008  0.5300114E+03  0.7818608E-02  0.1006229E+00
         -2   -1    0    0    0  501 -0.00000000000E+00  0.00000000000E+00  0.39865655734E+03  0.39865655734E+03  0.25500000000E-02 0.  1.
          2   -1    0    0  501    0  0.00000000000E+00 -0.00000000000E+00 -0.82101576770E+03  0.82101576771E+03  0.25500000000E-02 0. -1.
    8880022    1    1    2    0    0 -0.48949906061E+03  0.13383231510E+03 -0.44077120530E+03  0.68934122708E+03  0.15294330000E+03 0.  0.
    8880022    1    1    2    0    0  0.48949906061E+03 -0.13383231510E+03  0.18411994934E+02  0.53033109798E+03  0.15294330000E+03 0.  0.
<mgrwt>
<rscale>  0 0.53001139E+03</rscale>
<asrwt>0</asrwt>
<pdfrwt beam="1">  1        2 0.12631012E+00 0.53001139E+03</pdfrwt>
<pdfrwt beam="2">  1       -2 0.61331778E-01 0.53001139E+03</pdfrwt>
<totfact> 0.84835078E+01</totfact>
</mgrwt>
</event>
<event>
 4    1  0.6912310E-008  0.7241573E+03  0.7818608E-02  0.9676789E-01
         -2   -1    0    0    0  501 -0.00000000000E+00  0.00000000000E+00  0.47022178754E+03  0.47022178755E+03  0.25500000000E-02 0.  1.
          2   -1    0    0  501    0  0.00000000000E+00 -0.00000000000E+00 -0.23435811311E+04  0.23435811311E+04  0.25500000000E-02 0. -1.
    8880022    1    1    2    0    0  0.16429057191E+03  0.68849169347E+03 -0.19552371588E+04  0.20850314636E+04  0.15294330000E+03 0.  0.
    8880022    1    1    2    0    0 -0.16429057191E+03 -0.68849169347E+03  0.81877815282E+02  0.72877145501E+03  0.15294330000E+03 0.  0.
<mgrwt>
<rscale>  0 0.72415734E+03</rscale>
<asrwt>0</asrwt>
<pdfrwt beam="1">  1        2 0.36055093E+00 0.72415734E+03</pdfrwt>
<pdfrwt beam="2">  1       -2 0.72341815E-01 0.72415734E+03</pdfrwt>
<totfact> 0.77701867E+00</totfact>
</mgrwt>
</event>
<event>
 4    1  0.6912310E-008  0.5056582E+03  0.7818608E-02  0.1012313E+00
          2   -1    0    0  501    0  0.00000000000E+00  0.00000000000E+00  0.15725104816E+04  0.15725104816E+04  0.25500000000E-02 0. -1.
         -2   -1    0    0    0  501 -0.00000000000E+00 -0.00000000000E+00 -0.65464503974E+03  0.65464503975E+03  0.25500000000E-02 0.  1.
    8880022    1    1    2    0    0  0.47907769137E+03 -0.52755475099E+02  0.14243610331E+04  0.15114544585E+04  0.15294330000E+03 0.  0.
    8880022    1    1    2    0    0 -0.47907769137E+03  0.52755475099E+02 -0.50649559119E+03  0.71570106289E+03  0.15294330000E+03 0.  0.
<mgrwt>
<rscale>  0 0.50565821E+03</rscale>
<asrwt>0</asrwt>
<pdfrwt beam="1">  1        2 0.24192469E+00 0.50565821E+03</pdfrwt>
<pdfrwt beam="2">  1       -2 0.10071462E+00 0.50565821E+03</pdfrwt>
<totfact> 0.10035605E+01</totfact>
</mgrwt>
</event>
<event>
 4    1  0.6912310E-008  0.4017875E+03  0.7818608E-02  0.1043162E+00
         -2   -1    0    0    0  501 -0.00000000000E+00  0.00000000000E+00  0.61839974798E+03  0.61839974799E+03  0.25500000000E-02 0.  1.
          2   -1    0    0  501    0  0.00000000000E+00 -0.00000000000E+00 -0.42787087216E+03  0.42787087217E+03  0.25500000000E-02 0. -1.
    8880022    1    1    2    0    0 -0.39211394814E+02  0.36946449560E+03  0.42191467763E+03  0.58261925406E+03  0.15294330000E+03 0.  1.
    8880022    1    1    2    0    0  0.39211394814E+02 -0.36946449560E+03 -0.23138580181E+03  0.46365136610E+03  0.15294330000E+03 0.  0.
<mgrwt>
<rscale>  0 0.40178751E+03</rscale>
<asrwt>0</asrwt>
<pdfrwt beam="1">  1        2 0.65826288E-01 0.40178751E+03</pdfrwt>
<pdfrwt beam="2">  1       -2 0.95138423E-01 0.40178751E+03</pdfrwt>
<totfact> 0.71017932E+01</totfact>
</mgrwt>
</event>
<event>
 4    1  0.6912310E-008  0.2560833E+03  0.7818608E-02  0.1109520E+00
         -2   -1    0    0    0  501 -0.00000000000E+00  0.00000000000E+00  0.10275859239E+03  0.10275859242E+03  0.25500000000E-02 0.  1.
          2   -1    0    0  501    0  0.00000000000E+00 -0.00000000000E+00 -0.89421341185E+03  0.89421341185E+03  0.25500000000E-02 0. -1.
    8880022    1    1    2    0    0 -0.19534828648E+03  0.63451299613E+02 -0.12899297203E+03  0.28673656953E+03  0.15294330000E+03 0.  0.
    8880022    1    1    2    0    0  0.19534828648E+03 -0.63451299613E+02 -0.66246184743E+03  0.71023543475E+03  0.15294330000E+03 0.  0.
<mgrwt>
<rscale>  0 0.25608333E+03</rscale>
<asrwt>0</asrwt>
<pdfrwt beam="1">  1        2 0.13757129E+00 0.25608333E+03</pdfrwt>
<pdfrwt beam="2">  1       -2 0.15809015E-01 0.25608333E+03</pdfrwt>
<totfact> 0.96325418E+02</totfact>
</mgrwt>
</event>
<event>
 4    1  0.6912310E-008  0.8379568E+03  0.7818608E-02  0.9506645E-01
         -2   -1    0    0    0  501 -0.00000000000E+00  0.00000000000E+00  0.13781089539E+04  0.13781089539E+04  0.25500000000E-02 0.  1.
          2   -1    0    0  501    0  0.00000000000E+00 -0.00000000000E+00 -0.13619560285E+04  0.13619560285E+04  0.25500000000E-02 0. -1.
    8880022    1    1    2    0    0 -0.29051961717E+03  0.77095938151E+03 -0.10758021999E+04  0.13636429306E+04  0.15294330000E+03 0.  0.
    8880022    1    1    2    0    0  0.29051961717E+03 -0.77095938151E+03  0.10919551253E+04  0.13764220517E+04  0.15294330000E+03 0.  0.
<mgrwt>
<rscale>  0 0.83795684E+03</rscale>
<asrwt>0</asrwt>
<pdfrwt beam="1">  1        2 0.20953170E+00 0.83795684E+03</pdfrwt>
<pdfrwt beam="2">  1       -2 0.21201676E+00 0.83795684E+03</pdfrwt>
<totfact> 0.17198006E+00</totfact>
</mgrwt>
</event>
<event>
 4    1  0.6912310E-008  0.2389089E+03  0.7818608E-02  0.1120522E+00
          2   -1    0    0  501    0  0.00000000000E+00  0.00000000000E+00  0.13395298607E+04  0.13395298607E+04  0.25500000000E-02 0. -1.
         -2   -1    0    0    0  501 -0.00000000000E+00 -0.00000000000E+00 -0.33069281223E+03  0.33069281224E+03  0.25500000000E-02 0.  1.
    8880022    1    1    2    0    0  0.10562219578E+03 -0.15009919955E+03  0.12838727523E+04  0.13059122157E+04  0.15294330000E+03 0.  0.
    8880022    1    1    2    0    0 -0.10562219578E+03  0.15009919955E+03 -0.27503570378E+03  0.36431045732E+03  0.15294330000E+03 0.  0.
<mgrwt>
<rscale>  0 0.23890892E+03</rscale>
<asrwt>0</asrwt>
<pdfrwt beam="1">  1        2 0.20608151E+00 0.23890892E+03</pdfrwt>
<pdfrwt beam="2">  1       -2 0.50875818E-01 0.23890892E+03</pdfrwt>
<totfact> 0.63371091E+01</totfact>
</mgrwt>
</event>
<event>
 4    1  0.6912310E-008  0.2220797E+03  0.7818608E-02  0.1132342E+00
          2   -1    0    0  501    0  0.00000000000E+00  0.00000000000E+00  0.11503051601E+04  0.11503051601E+04  0.25500000000E-02 0. -1.
         -2   -1    0    0    0  501 -0.00000000000E+00 -0.00000000000E+00 -0.54911337824E+02  0.54911337883E+02  0.25500000000E-02 0.  1.
    8880022    1    1    2    0    0 -0.61091908201E+02  0.14898159036E+03  0.26556618576E+03  0.34618605915E+03  0.15294330000E+03 0.  0.
    8880022    1    1    2    0    0  0.61091908201E+02 -0.14898159036E+03  0.82982763651E+03  0.85903043884E+03  0.15294330000E+03 0. -1.
<mgrwt>
<rscale>  0 0.22207969E+03</rscale>
<asrwt>0</asrwt>
<pdfrwt beam="1">  1        2 0.17697002E+00 0.22207969E+03</pdfrwt>
<pdfrwt beam="2">  1       -2 0.84478982E-02 0.22207969E+03</pdfrwt>
<totfact> 0.18515161E+03</totfact>
</mgrwt>
</event>
<event>
 4    1  0.6912310E-008  0.1035184E+04  0.7818608E-02  0.9270776E-01
         -2   -1    0    0    0  501 -0.00000000000E+00  0.00000000000E+00  0.63668564862E+03  0.63668564862E+03  0.25500000000E-02 0.  1.
          2   -1    0    0  501    0  0.00000000000E+00 -0.00000000000E+00 -0.20033206371E+04  0.20033206371E+04  0.25500000000E-02 0. -1.
    8880022    1    1    2    0    0 -0.93956575154E+03 -0.40673088841E+03 -0.15557198559E+03  0.10468085368E+04  0.15294330000E+03 0.  0.
    8880022    1    1    2    0    0  0.93956575154E+03  0.40673088841E+03 -0.12110630029E+04  0.15931977489E+04  0.15294330000E+03 0.  0.
<mgrwt>
<rscale>  0 0.10351838E+04</rscale>
<asrwt>0</asrwt>
<pdfrwt beam="1">  1        2 0.30820317E+00 0.10351838E+04</pdfrwt>
<pdfrwt beam="2">  1       -2 0.97951639E-01 0.10351838E+04</pdfrwt>
<totfact> 0.57508395E+00</totfact>
</mgrwt>
</event>
<event>
 4    1  0.6912310E-008  0.9788100E+03  0.7818608E-02  0.9332096E-01
          2   -1    0    0  501    0  0.00000000000E+00  0.00000000000E+00  0.96861347108E+03  0.96861347108E+03  0.25500000000E-02 0. -1.
         -2   -1    0    0    0  501 -0.00000000000E+00 -0.00000000000E+00 -0.10149918479E+04  0.10149918480E+04  0.25500000000E-02 0.  1.
    8880022    1    1    2    0    0 -0.50282201409E+03 -0.82574045589E+03 -0.18155444882E+03  0.99550537379E+03  0.15294330000E+03 0.  0.
    8880022    1    1    2    0    0  0.50282201409E+03  0.82574045589E+03  0.13517607195E+03  0.98809994524E+03  0.15294330000E+03 0.  0.
<mgrwt>
<rscale>  0 0.97880996E+03</rscale>
<asrwt>0</asrwt>
<pdfrwt beam="1">  1        2 0.14901746E+00 0.97880996E+03</pdfrwt>
<pdfrwt beam="2">  1       -2 0.15615259E+00 0.97880996E+03</pdfrwt>
<totfact> 0.70552092E+00</totfact>
</mgrwt>
</event>
<event>
 4    1  0.6912310E-008  0.1559431E+04  0.7818608E-02  0.8845866E-01
          2   -1    0    0  501    0  0.00000000000E+00  0.00000000000E+00  0.26499168316E+04  0.26499168316E+04  0.25500000000E-02 0. -1.
         -2   -1    0    0    0  501 -0.00000000000E+00 -0.00000000000E+00 -0.11380483850E+04  0.11380483850E+04  0.25500000000E-02 0.  1.
    8880022    1    1    2    0    0  0.11603876701E+04 -0.10305014494E+04  0.15893316143E+04  0.22266116445E+04  0.15294330000E+03 0.  0.
    8880022    1    1    2    0    0 -0.11603876701E+04  0.10305014494E+04 -0.77463167640E+02  0.15613535722E+04  0.15294330000E+03 0.  0.
<mgrwt>
<rscale>  0 0.15594308E+04</rscale>
<asrwt>0</asrwt>
<pdfrwt beam="1">  1        2 0.40767951E+00 0.15594308E+04</pdfrwt>
<pdfrwt beam="2">  1       -2 0.17508437E+00 0.15594308E+04</pdfrwt>
<totfact> 0.52248825E-01</totfact>
</mgrwt>
</event>
<event>
 4    1  0.6912310E-008  0.6335700E+03  0.7818608E-02  0.9838107E-01
         -2   -1    0    0    0  501 -0.00000000000E+00  0.00000000000E+00  0.21374675080E+03  0.21374675081E+03  0.25500000000E-02 0.  1.
          2   -1    0    0  501    0  0.00000000000E+00 -0.00000000000E+00 -0.32016132580E+04  0.32016132580E+04  0.25500000000E-02 0. -1.
    8880022    1    1    2    0    0  0.28958558530E+03 -0.54236467086E+03 -0.39592189656E+03  0.74710444290E+03  0.15294330000E+03 0.  0.
    8880022    1    1    2    0    0 -0.28958558530E+03  0.54236467086E+03 -0.25919446106E+04  0.26682555659E+04  0.15294330000E+03 0.  0.
<mgrwt>
<rscale>  0 0.63356996E+03</rscale>
<asrwt>0</asrwt>
<pdfrwt beam="1">  1        2 0.49255585E+00 0.63356996E+03</pdfrwt>
<pdfrwt beam="2">  1       -2 0.32884118E-01 0.63356996E+03</pdfrwt>
<totfact> 0.12201556E+01</totfact>
</mgrwt>
</event>
<event>
 4    1  0.6912310E-008  0.2191603E+03  0.7818608E-02  0.1134511E+00
         -2   -1    0    0    0  501 -0.00000000000E+00  0.00000000000E+00  0.11621713483E+03  0.11621713486E+03  0.25500000000E-02 0.  1.
          2   -1    0    0  501    0  0.00000000000E+00 -0.00000000000E+00 -0.99459206633E+03  0.99459206634E+03  0.25500000000E-02 0. -1.
    8880022    1    1    2    0    0 -0.61369935362E+02  0.14447603720E+03 -0.14579305502E+02  0.21964472098E+03  0.15294330000E+03 0.  0.
    8880022    1    1    2    0    0  0.61369935362E+02 -0.14447603720E+03 -0.86379562600E+03  0.89116448022E+03  0.15294330000E+03 0. -1.
<mgrwt>
<rscale>  0 0.21916032E+03</rscale>
<asrwt>0</asrwt>
<pdfrwt beam="1">  1        2 0.15301416E+00 0.21916032E+03</pdfrwt>
<pdfrwt beam="2">  1       -2 0.17879560E-01 0.21916032E+03</pdfrwt>
<totfact> 0.67879287E+02</totfact>
</mgrwt>
</event>
<event>
 4    1  0.6912310E-008  0.2756478E+03  0.7818608E-02  0.1098090E+00
         -2   -1    0    0    0  501 -0.00000000000E+00  0.00000000000E+00  0.19282452543E+04  0.19282452543E+04  0.25500000000E-02 0.  1.
          2   -1    0    0  501    0  0.00000000000E+00 -0.00000000000E+00 -0.70036732463E+03  0.70036732463E+03  0.25500000000E-02 0. -1.
    8880022    1    1    2    0    0  0.12678447832E+03  0.19109102603E+03 -0.66285885187E+03  0.71788828845E+03  0.15294330000E+03 0.  0.
    8880022    1    1    2    0    0 -0.12678447832E+03 -0.19109102603E+03  0.18907367815E+04  0.19107242904E+04  0.15294330000E+03 0.  0.
<mgrwt>
<rscale>  0 0.27564785E+03</rscale>
<asrwt>0</asrwt>
<pdfrwt beam="1">  1        2 0.10774882E+00 0.27564785E+03</pdfrwt>
<pdfrwt beam="2">  1       -2 0.29665311E+00 0.27564785E+03</pdfrwt>
<totfact> 0.16229336E+00</totfact>
</mgrwt>
</event>
<event>
 4    1  0.6912310E-008  0.6567456E+03  0.7818608E-02  0.9794203E-01
          2   -1    0    0  501    0  0.00000000000E+00  0.00000000000E+00  0.12695718917E+04  0.12695718917E+04  0.25500000000E-02 0. -1.
         -2   -1    0    0    0  501 -0.00000000000E+00 -0.00000000000E+00 -0.54406573307E+03  0.54406573307E+03  0.25500000000E-02 0.  1.
    8880022    1    1    2    0    0 -0.21130350018E+03 -0.60272210675E+03 -0.19297763281E+03  0.68451086692E+03  0.15294330000E+03 0.  0.
    8880022    1    1    2    0    0  0.21130350018E+03  0.60272210675E+03  0.91848379144E+03  0.11291267579E+04  0.15294330000E+03 0. -1.
<mgrwt>
<rscale>  0 0.65674558E+03</rscale>
<asrwt>0</asrwt>
<pdfrwt beam="1">  1        2 0.19531875E+00 0.65674558E+03</pdfrwt>
<pdfrwt beam="2">  1       -2 0.83702421E-01 0.65674558E+03</pdfrwt>
<totfact> 0.22171350E+01</totfact>
</mgrwt>
</event>
<event>
 4    1  0.6912310E-008  0.6982756E+03  0.7818608E-02  0.9720186E-01
          2   -1    0    0  501    0  0.00000000000E+00  0.00000000000E+00  0.15568958599E+04  0.15568958599E+04  0.25500000000E-02 0. -1.
         -2   -1    0    0    0  501 -0.00000000000E+00 -0.00000000000E+00 -0.42838800458E+03  0.42838800458E+03  0.25500000000E-02 0.  1.
    8880022    1    1    2    0    0  0.11761369104E+02  0.68121862544E+03  0.49481699907E+02  0.70002659742E+03  0.15294330000E+03 0.  0.
    8880022    1    1    2    0    0 -0.11761369104E+02 -0.68121862544E+03  0.10790261554E+04  0.12852572671E+04  0.15294330000E+03 0.  0.
<mgrwt>
<rscale>  0 0.69827559E+03</rscale>
<asrwt>0</asrwt>
<pdfrwt beam="1">  1        2 0.23952244E+00 0.69827559E+03</pdfrwt>
<pdfrwt beam="2">  1       -2 0.65905846E-01 0.69827559E+03</pdfrwt>
<totfact> 0.25762306E+01</totfact>
</mgrwt>
</event>
<event>
 4    1  0.6912310E-008  0.3144375E+03  0.7818608E-02  0.1078238E+00
         -2   -1    0    0    0  501 -0.00000000000E+00  0.00000000000E+00  0.23437357808E+03  0.23437357809E+03  0.25500000000E-02 0.  1.
          2   -1    0    0  501    0  0.00000000000E+00 -0.00000000000E+00 -0.17696847535E+04  0.17696847535E+04  0.25500000000E-02 0. -1.
    8880022    1    1    2    0    0  0.17050562022E+03  0.21542317827E+03 -0.16421366505E+04  0.16719700190E+04  0.15294330000E+03 0.  0.
    8880022    1    1    2    0    0 -0.17050562022E+03 -0.21542317827E+03  0.10682547508E+03  0.33208831266E+03  0.15294330000E+03 0.  0.
<mgrwt>
<rscale>  0 0.31443754E+03</rscale>
<asrwt>0</asrwt>
<pdfrwt beam="1">  1        2 0.27225918E+00 0.31443754E+03</pdfrwt>
<pdfrwt beam="2">  1       -2 0.36057475E-01 0.31443754E+03</pdfrwt>
<totfact> 0.71321183E+01</totfact>
</mgrwt>
</event>
<event>
 4    1  0.6912310E-008  0.5752860E+03  0.7818608E-02  0.9958049E-01
          2   -1    0    0  501    0  0.00000000000E+00  0.00000000000E+00  0.75900989199E+03  0.75900989199E+03  0.25500000000E-02 0. -1.
         -2   -1    0    0    0  501 -0.00000000000E+00 -0.00000000000E+00 -0.17937000000E+04  0.17937000000E+04  0.25500000000E-02 0.  1.
    8880022    1    1    2    0    0 -0.55295726846E+03 -0.42432828906E+02  0.59308976379E+03  0.82626231104E+03  0.15294330000E+03 0.  0.
    8880022    1    1    2    0    0  0.55295726846E+03  0.42432828906E+02 -0.16277798718E+04  0.17264475810E+04  0.15294330000E+03 0.  0.
<mgrwt>
<rscale>  0 0.57528596E+03</rscale>
<asrwt>0</asrwt>
<pdfrwt beam="1">  1        2 0.11677075E+00 0.57528596E+03</pdfrwt>
<pdfrwt beam="2">  1       -2 0.27595385E+00 0.57528596E+03</pdfrwt>
<totfact> 0.17654566E+00</totfact>
</mgrwt>
</event>
<event>
 4    1  0.6912310E-008  0.5967871E+03  0.7818608E-02  0.9912094E-01
          2   -1    0    0  501    0  0.00000000000E+00  0.00000000000E+00  0.74309082429E+03  0.74309082429E+03  0.25500000000E-02 0. -1.
         -2   -1    0    0    0  501 -0.00000000000E+00 -0.00000000000E+00 -0.13246293199E+04  0.13246293199E+04  0.25500000000E-02 0.  1.
    8880022    1    1    2    0    0 -0.49159052959E+03 -0.30183090383E+03 -0.11166750798E+04  0.12661429738E+04  0.15294330000E+03 0.  0.
    8880022    1    1    2    0    0  0.49159052959E+03  0.30183090383E+03  0.53513658419E+03  0.80157717036E+03  0.15294330000E+03 0.  0.
<mgrwt>
<rscale>  0 0.59678706E+03</rscale>
<asrwt>0</asrwt>
<pdfrwt beam="1">  1        2 0.11432167E+00 0.59678706E+03</pdfrwt>
<pdfrwt beam="2">  1       -2 0.20378913E+00 0.59678706E+03</pdfrwt>
<totfact> 0.49839945E+00</totfact>
</mgrwt>
</event>
<event>
 4    1  0.6912310E-008  0.2402684E+03  0.7818608E-02  0.1119614E+00
          2   -1    0    0  501    0  0.00000000000E+00  0.00000000000E+00  0.20877647581E+04  0.20877647581E+04  0.25500000000E-02 0. -1.
         -2   -1    0    0    0  501 -0.00000000000E+00 -0.00000000000E+00 -0.36941704396E+03  0.36941704397E+03  0.25500000000E-02 0.  1.
    8880022    1    1    2    0    0 -0.18191448544E+03  0.35275933707E+02 -0.32254248891E+03  0.40219719253E+03  0.15294330000E+03 0.  0.
    8880022    1    1    2    0    0  0.18191448544E+03 -0.35275933707E+02  0.20408902030E+04  0.20549846095E+04  0.15294330000E+03 0. -1.
<mgrwt>
<rscale>  0 0.24026844E+03</rscale>
<asrwt>0</asrwt>
<pdfrwt beam="1">  1        2 0.32119458E+00 0.24026844E+03</pdfrwt>
<pdfrwt beam="2">  1       -2 0.56833392E-01 0.24026844E+03</pdfrwt>
<totfact> 0.20353312E+01</totfact>
</mgrwt>
</event>
<event>
 4    1  0.6912310E-008  0.4499893E+03  0.7818608E-02  0.1027725E+00
          2   -1    0    0  501    0  0.00000000000E+00  0.00000000000E+00  0.13679247419E+04  0.13679247419E+04  0.25500000000E-02 0. -1.
         -2   -1    0    0    0  501 -0.00000000000E+00 -0.00000000000E+00 -0.52238307504E+03  0.52238307504E+03  0.25500000000E-02 0.  1.
    8880022    1    1    2    0    0 -0.32885715187E+03  0.26636760624E+03 -0.37734005438E+03  0.58726135378E+03  0.15294330000E+03 0.  0.
    8880022    1    1    2    0    0  0.32885715187E+03 -0.26636760624E+03  0.12228817213E+04  0.13030464632E+04  0.15294330000E+03 0.  0.
<mgrwt>
<rscale>  0 0.44998931E+03</rscale>
<asrwt>0</asrwt>
<pdfrwt beam="1">  1        2 0.21044996E+00 0.44998931E+03</pdfrwt>
<pdfrwt beam="2">  1       -2 0.80366627E-01 0.44998931E+03</pdfrwt>
<totfact> 0.22075023E+01</totfact>
</mgrwt>
</event>
<event>
 4    1  0.6912310E-008  0.2334859E+03  0.7818608E-02  0.1124210E+00
          2   -1    0    0  501    0  0.00000000000E+00  0.00000000000E+00  0.17213358808E+04  0.17213358808E+04  0.25500000000E-02 0. -1.
         -2   -1    0    0    0  501 -0.00000000000E+00 -0.00000000000E+00 -0.26864962410E+03  0.26864962412E+03  0.25500000000E-02 0.  1.
    8880022    1    1    2    0    0 -0.15038864844E+03 -0.92234799287E+02  0.16608484879E+04  0.16771801801E+04  0.15294330000E+03 0.  0.
    8880022    1    1    2    0    0  0.15038864844E+03  0.92234799287E+02 -0.20816223114E+03  0.31280532487E+03  0.15294330000E+03 0.  1.
<mgrwt>
<rscale>  0 0.23348588E+03</rscale>
<asrwt>0</asrwt>
<pdfrwt beam="1">  1        2 0.26482090E+00 0.23348588E+03</pdfrwt>
<pdfrwt beam="2">  1       -2 0.41330712E-01 0.23348588E+03</pdfrwt>
<totfact> 0.59760183E+01</totfact>
</mgrwt>
</event>
<event>
 4    1  0.6912310E-008  0.6796131E+03  0.7818608E-02  0.9752746E-01
         -2   -1    0    0    0  501 -0.00000000000E+00  0.00000000000E+00  0.37450216099E+03  0.37450216100E+03  0.25500000000E-02 0.  1.
          2   -1    0    0  501    0  0.00000000000E+00 -0.00000000000E+00 -0.14250315070E+04  0.14250315070E+04  0.25500000000E-02 0. -1.
    8880022    1    1    2    0    0 -0.64846292779E+03  0.13408274272E+03 -0.19522738243E+03  0.70709810810E+03  0.15294330000E+03 0.  0.
    8880022    1    1    2    0    0  0.64846292779E+03 -0.13408274272E+03 -0.85530196360E+03  0.10924355599E+04  0.15294330000E+03 0.  0.
<mgrwt>
<rscale>  0 0.67961313E+03</rscale>
<asrwt>0</asrwt>
<pdfrwt beam="1">  1        2 0.21923561E+00 0.67961313E+03</pdfrwt>
<pdfrwt beam="2">  1       -2 0.57615718E-01 0.67961313E+03</pdfrwt>
<totfact> 0.40660638E+01</totfact>
</mgrwt>
</event>
<event>
 4    1  0.6912310E-008  0.6540189E+03  0.7818608E-02  0.9799267E-01
          2   -1    0    0  501    0  0.00000000000E+00  0.00000000000E+00  0.11460268594E+04  0.11460268594E+04  0.25500000000E-02 0. -1.
         -2   -1    0    0    0  501 -0.00000000000E+00 -0.00000000000E+00 -0.50018838626E+03  0.50018838626E+03  0.25500000000E-02 0.  1.
    8880022    1    1    2    0    0 -0.61395844517E+03 -0.16554166137E+03  0.73759341535E+03  0.98579141476E+03  0.15294330000E+03 0. -1.
    8880022    1    1    2    0    0  0.61395844517E+03  0.16554166137E+03 -0.91754942167E+02  0.66042383094E+03  0.15294330000E+03 0.  0.
<mgrwt>
<rscale>  0 0.65401886E+03</rscale>
<asrwt>0</asrwt>
<pdfrwt beam="1">  1        2 0.17631182E+00 0.65401886E+03</pdfrwt>
<pdfrwt beam="2">  1       -2 0.76952061E-01 0.65401886E+03</pdfrwt>
<totfact> 0.31666573E+01</totfact>
</mgrwt>
</event>
<event>
 4    1  0.6912310E-008  0.9371326E+03  0.7818608E-02  0.9380318E-01
          2   -1    0    0  501    0  0.00000000000E+00  0.00000000000E+00  0.17608767090E+04  0.17608767090E+04  0.25500000000E-02 0. -1.
         -2   -1    0    0    0  501 -0.00000000000E+00 -0.00000000000E+00 -0.71329366326E+03  0.71329366327E+03  0.25500000000E-02 0.  1.
    8880022    1    1    2    0    0  0.92234834109E+03 -0.64026976598E+02 -0.15468462802E+03  0.94981308856E+03  0.15294330000E+03 0.  0.
    8880022    1    1    2    0    0 -0.92234834109E+03  0.64026976598E+02  0.12022676738E+04  0.15243572837E+04  0.15294330000E+03 0.  0.
<mgrwt>
<rscale>  0 0.93713263E+03</rscale>
<asrwt>0</asrwt>
<pdfrwt beam="1">  1        2 0.27090411E+00 0.93713263E+03</pdfrwt>
<pdfrwt beam="2">  1       -2 0.10973749E+00 0.93713263E+03</pdfrwt>
<totfact> 0.60210318E+00</totfact>
</mgrwt>
</event>
<event>
 4    1  0.6912310E-008  0.4553948E+03  0.7818608E-02  0.1026125E+00
         -2   -1    0    0    0  501 -0.00000000000E+00  0.00000000000E+00  0.12257843290E+04  0.12257843290E+04  0.25500000000E-02 0.  1.
          2   -1    0    0  501    0  0.00000000000E+00 -0.00000000000E+00 -0.43776385731E+03  0.43776385732E+03  0.25500000000E-02 0. -1.
    8880022    1    1    2    0    0 -0.24707053106E+03 -0.35064074235E+03 -0.25750005112E+03  0.52315457263E+03  0.15294330000E+03 0.  0.
    8880022    1    1    2    0    0  0.24707053106E+03  0.35064074235E+03  0.10455205228E+04  0.11403936137E+04  0.15294330000E+03 0.  0.
<mgrwt>
<rscale>  0 0.45539481E+03</rscale>
<asrwt>0</asrwt>
<pdfrwt beam="1">  1        2 0.67348287E-01 0.45539481E+03</pdfrwt>
<pdfrwt beam="2">  1       -2 0.18858220E+00 0.45539481E+03</pdfrwt>
<totfact> 0.12008518E+01</totfact>
</mgrwt>
</event>
<event>
 4    1  0.6912310E-008  0.3258176E+03  0.7818608E-02  0.1073003E+00
          2   -1    0    0  501    0  0.00000000000E+00  0.00000000000E+00  0.13225497274E+04  0.13225497274E+04  0.25500000000E-02 0. -1.
         -2   -1    0    0    0  501 -0.00000000000E+00 -0.00000000000E+00 -0.11080711071E+03  0.11080711074E+03  0.25500000000E-02 0.  1.
    8880022    1    1    2    0    0  0.20530889786E+03 -0.20152848772E+03  0.22962204388E+03  0.39860182006E+03  0.15294330000E+03 0.  0.
    8880022    1    1    2    0    0 -0.20530889786E+03  0.20152848772E+03  0.98212057284E+03  0.10347550181E+04  0.15294330000E+03 0.  0.
<mgrwt>
<rscale>  0 0.32581763E+03</rscale>
<asrwt>0</asrwt>
<pdfrwt beam="1">  1        2 0.20346920E+00 0.32581763E+03</pdfrwt>
<pdfrwt beam="2">  1       -2 0.17047247E-01 0.32581763E+03</pdfrwt>
<totfact> 0.47021340E+02</totfact>
</mgrwt>
</event>
<event>
 4    1  0.9813698E-008  0.8973216E+03  0.7818608E-02  0.9428936E-01
         -2   -1    0    0    0  501 -0.00000000000E+00  0.00000000000E+00  0.12758010909E+04  0.12758010909E+04  0.25500000000E-02 0.  1.
          2   -1    0    0  501    0  0.00000000000E+00 -0.00000000000E+00 -0.20021023207E+04  0.20021023207E+04  0.25500000000E-02 0. -1.
    8880022    1    1    2    0    0  0.38582051862E+03 -0.79557336064E+03  0.99309590653E+03  0.13384414733E+04  0.15294330000E+03 0.  0.
    8880022    1    1    2    0    0 -0.38582051862E+03  0.79557336064E+03 -0.17193971363E+04  0.19394619383E+04  0.15294330000E+03 0. -1.
<mgrwt>
<rscale>  0 0.89732162E+03</rscale>
<asrwt>0</asrwt>
<pdfrwt beam="1">  1        2 0.30801574E+00 0.89732162E+03</pdfrwt>
<pdfrwt beam="2">  1       -2 0.19627709E+00 0.89732162E+03</pdfrwt>
<totfact> 0.95187073E-01</totfact>
</mgrwt>
</event>
<event>
 4    1  0.6912310E-008  0.1020188E+04  0.7818608E-02  0.9286676E-01
          2   -1    0    0  501    0  0.00000000000E+00  0.00000000000E+00  0.91697888343E+03  0.91697888343E+03  0.25500000000E-02 0. -1.
         -2   -1    0    0    0  501 -0.00000000000E+00 -0.00000000000E+00 -0.15141357532E+04  0.15141357532E+04  0.25500000000E-02 0.  1.
    8880022    1    1    2    0    0  0.10007954004E+04  0.12570063311E+03 -0.90682893018E+03  0.13649624333E+04  0.15294330000E+03 0.  0.
    8880022    1    1    2    0    0 -0.10007954004E+04 -0.12570063311E+03  0.30967206040E+03  0.10661522033E+04  0.15294330000E+03 0.  0.
<mgrwt>
<rscale>  0 0.10201881E+04</rscale>
<asrwt>0</asrwt>
<pdfrwt beam="1">  1        2 0.14107367E+00 0.10201881E+04</pdfrwt>
<pdfrwt beam="2">  1       -2 0.23294396E+00 0.10201881E+04</pdfrwt>
<totfact> 0.23234092E+00</totfact>
</mgrwt>
</event>
<event>
 4    1  0.6912310E-008  0.6097487E+03  0.7818608E-02  0.9885384E-01
          2   -1    0    0  501    0  0.00000000000E+00  0.00000000000E+00  0.36528421661E+04  0.36528421661E+04  0.25500000000E-02 0. -1.
         -2   -1    0    0    0  501 -0.00000000000E+00 -0.00000000000E+00 -0.17643988382E+03  0.17643988383E+03  0.25500000000E-02 0.  1.
    8880022    1    1    2    0    0  0.54301587466E+03 -0.23137766918E+03  0.29836527738E+04  0.30453205732E+04  0.15294330000E+03 0.  0.
    8880022    1    1    2    0    0 -0.54301587466E+03  0.23137766918E+03  0.49274950856E+03  0.78396147681E+03  0.15294330000E+03 0.  0.
<mgrwt>
<rscale>  0 0.60974873E+03</rscale>
<asrwt>0</asrwt>
<pdfrwt beam="1">  1        2 0.56197570E+00 0.60974873E+03</pdfrwt>
<pdfrwt beam="2">  1       -2 0.27144598E-01 0.60974873E+03</pdfrwt>
<totfact> 0.87406035E+00</totfact>
</mgrwt>
</event>
<event>
 4    1  0.6912310E-008  0.5327678E+03  0.7818608E-02  0.1005563E+00
          2   -1    0    0  501    0  0.00000000000E+00  0.00000000000E+00  0.24540161277E+04  0.24540161277E+04  0.25500000000E-02 0. -1.
         -2   -1    0    0    0  501 -0.00000000000E+00 -0.00000000000E+00 -0.19387130019E+03  0.19387130021E+03  0.25500000000E-02 0.  1.
    8880022    1    1    2    0    0  0.48912482403E+03  0.14562530337E+03  0.19709566928E+04  0.20416933561E+04  0.15294330000E+03 0.  0.
    8880022    1    1    2    0    0 -0.48912482403E+03 -0.14562530337E+03  0.28918813479E+03  0.60619407188E+03  0.15294330000E+03 0.  0.
<mgrwt>
<rscale>  0 0.53276775E+03</rscale>
<asrwt>0</asrwt>
<pdfrwt beam="1">  1        2 0.37754095E+00 0.53276775E+03</pdfrwt>
<pdfrwt beam="2">  1       -2 0.29826353E-01 0.53276775E+03</pdfrwt>
<totfact> 0.41353842E+01</totfact>
</mgrwt>
</event>
<event>
 4    1  0.6912310E-008  0.4075083E+03  0.7818608E-02  0.1041210E+00
          2   -1    0    0  501    0  0.00000000000E+00  0.00000000000E+00  0.80299128061E+03  0.80299128061E+03  0.25500000000E-02 0. -1.
         -2   -1    0    0    0  501 -0.00000000000E+00 -0.00000000000E+00 -0.12694746078E+04  0.12694746078E+04  0.25500000000E-02 0.  1.
    8880022    1    1    2    0    0  0.21832369688E+03 -0.30823069307E+03 -0.11813203965E+04  0.12496323175E+04  0.15294330000E+03 0.  0.
    8880022    1    1    2    0    0 -0.21832369688E+03  0.30823069307E+03  0.71483706930E+03  0.82283357092E+03  0.15294330000E+03 0.  0.
<mgrwt>
<rscale>  0 0.40750834E+03</rscale>
<asrwt>0</asrwt>
<pdfrwt beam="1">  1        2 0.12353712E+00 0.40750834E+03</pdfrwt>
<pdfrwt beam="2">  1       -2 0.19530379E+00 0.40750834E+03</pdfrwt>
<totfact> 0.53150905E+00</totfact>
</mgrwt>
</event>
<event>
 4    1  0.6912310E-008  0.3968625E+03  0.7818608E-02  0.1044872E+00
          2   -1    0    0  501    0  0.00000000000E+00  0.00000000000E+00  0.32219542393E+04  0.32219542393E+04  0.25500000000E-02 0. -1.
         -2   -1    0    0    0  501 -0.00000000000E+00 -0.00000000000E+00 -0.12011938272E+03  0.12011938275E+03  0.25500000000E-02 0.  1.
    8880022    1    1    2    0    0  0.35230642531E+03 -0.99941822287E+02  0.26406303999E+03  0.47668556435E+03  0.15294330000E+03 0.  0.
    8880022    1    1    2    0    0 -0.35230642531E+03  0.99941822287E+02  0.28377718166E+04  0.28653880577E+04  0.15294330000E+03 0.  0.
<mgrwt>
<rscale>  0 0.39686249E+03</rscale>
<asrwt>0</asrwt>
<pdfrwt beam="1">  1        2 0.49568527E+00 0.39686249E+03</pdfrwt>
<pdfrwt beam="2">  1       -2 0.18479905E-01 0.39686249E+03</pdfrwt>
<totfact> 0.35340476E+01</totfact>
</mgrwt>
</event>
<event>
 4    1  0.6912310E-008  0.5814169E+03  0.7818608E-02  0.9944728E-01
          2   -1    0    0  501    0  0.00000000000E+00  0.00000000000E+00  0.87492717151E+03  0.87492717152E+03  0.25500000000E-02 0. -1.
         -2   -1    0    0    0  501 -0.00000000000E+00 -0.00000000000E+00 -0.60421313706E+03  0.60421313706E+03  0.25500000000E-02 0.  1.
    8880022    1    1    2    0    0  0.48736074579E+03  0.27772915944E+03 -0.30871786408E+03  0.65829503656E+03  0.15294330000E+03 0.  0.
    8880022    1    1    2    0    0 -0.48736074579E+03 -0.27772915944E+03  0.57943189853E+03  0.82084527202E+03  0.15294330000E+03 0.  0.
<mgrwt>
<rscale>  0 0.58141692E+03</rscale>
<asrwt>0</asrwt>
<pdfrwt beam="1">  1        2 0.13460418E+00 0.58141692E+03</pdfrwt>
<pdfrwt beam="2">  1       -2 0.92955867E-01 0.58141692E+03</pdfrwt>
<totfact> 0.30886210E+01</totfact>
</mgrwt>
</event>
<event>
 4    1  0.6912310E-008  0.3043858E+03  0.7818608E-02  0.1083069E+00
          2   -1    0    0  501    0  0.00000000000E+00  0.00000000000E+00  0.43386028778E+03  0.43386028778E+03  0.25500000000E-02 0. -1.
         -2   -1    0    0    0  501 -0.00000000000E+00 -0.00000000000E+00 -0.91370966674E+03  0.91370966675E+03  0.25500000000E-02 0.  1.
    8880022    1    1    2    0    0  0.55227824503E+02  0.25731096988E+03  0.34989039510E+03  0.46376070276E+03  0.15294330000E+03 0.  0.
    8880022    1    1    2    0    0 -0.55227824503E+02 -0.25731096988E+03 -0.82973977407E+03  0.88380925177E+03  0.15294330000E+03 0.  0.
<mgrwt>
<rscale>  0 0.30438578E+03</rscale>
<asrwt>0</asrwt>
<pdfrwt beam="1">  1        2 0.66747737E-01 0.30438578E+03</pdfrwt>
<pdfrwt beam="2">  1       -2 0.14057072E+00 0.30438578E+03</pdfrwt>
<totfact> 0.27490213E+01</totfact>
</mgrwt>
</event>
<event>
 4    1  0.6912310E-008  0.8044111E+03  0.7818608E-02  0.9553654E-01
          2   -1    0    0  501    0  0.00000000000E+00  0.00000000000E+00  0.28314309784E+04  0.28314309784E+04  0.25500000000E-02 0. -1.
         -2   -1    0    0    0  501 -0.00000000000E+00 -0.00000000000E+00 -0.29247262658E+03  0.29247262659E+03  0.25500000000E-02 0.  1.
    8880022    1    1    2    0    0  0.70733301364E+03 -0.35123435314E+03  0.53916807100E+03  0.96839012015E+03  0.15294330000E+03 0.  0.
    8880022    1    1    2    0    0 -0.70733301364E+03  0.35123435314E+03  0.19997902808E+04  0.21555134848E+04  0.15294330000E+03 0.  0.
<mgrwt>
<rscale>  0 0.80441110E+03</rscale>
<asrwt>0</asrwt>
<pdfrwt beam="1">  1        2 0.43560475E+00 0.80441110E+03</pdfrwt>
<pdfrwt beam="2">  1       -2 0.44995790E-01 0.80441110E+03</pdfrwt>
<totfact> 0.10865002E+01</totfact>
</mgrwt>
</event>
<event>
 4    1  0.6912310E-008  0.1884686E+03  0.7818608E-02  0.1159850E+00
         -2   -1    0    0    0  501 -0.00000000000E+00  0.00000000000E+00  0.98124557184E+02  0.98124557217E+02  0.25500000000E-02 0.  1.
          2   -1    0    0  501    0  0.00000000000E+00 -0.00000000000E+00 -0.14517063874E+04  0.14517063874E+04  0.25500000000E-02 0. -1.
    8880022    1    1    2    0    0  0.25745554179E+02 -0.10707911960E+03 -0.13481749933E+04  0.13612847744E+04  0.15294330000E+03 0.  0.
    8880022    1    1    2    0    0 -0.25745554179E+02  0.10707911960E+03 -0.54068369367E+01  0.18854617025E+03  0.15294330000E+03 0.  1.
<mgrwt>
<rscale>  0 0.18846863E+03</rscale>
<asrwt>0</asrwt>
<pdfrwt beam="1">  1        2 0.22333943E+00 0.18846863E+03</pdfrwt>
<pdfrwt beam="2">  1       -2 0.15096087E-01 0.18846863E+03</pdfrwt>
<totfact> 0.49913237E+02</totfact>
</mgrwt>
</event>
<event>
 4    1  0.6912310E-008  0.4455067E+03  0.7818608E-02  0.1029071E+00
         -2   -1    0    0    0  501 -0.00000000000E+00  0.00000000000E+00  0.73786910847E+03  0.73786910848E+03  0.25500000000E-02 0.  1.
          2   -1    0    0  501    0  0.00000000000E+00 -0.00000000000E+00 -0.68525571999E+03  0.68525572000E+03  0.25500000000E-02 0. -1.
    8880022    1    1    2    0    0  0.35025229109E+03  0.22892764615E+03  0.58089954690E+03  0.73206589265E+03  0.15294330000E+03 0.  0.
    8880022    1    1    2    0    0 -0.35025229109E+03 -0.22892764615E+03 -0.52828615842E+03  0.69105893582E+03  0.15294330000E+03 0.  0.
<mgrwt>
<rscale>  0 0.44550666E+03</rscale>
<asrwt>0</asrwt>
<pdfrwt beam="1">  1        2 0.10542396E+00 0.44550666E+03</pdfrwt>
<pdfrwt beam="2">  1       -2 0.11351832E+00 0.44550666E+03</pdfrwt>
<totfact> 0.26864060E+01</totfact>
</mgrwt>
</event>
<event>
 4    1  0.6912310E-008  0.8188648E+03  0.7818608E-02  0.9533105E-01
         -2   -1    0    0    0  501 -0.00000000000E+00  0.00000000000E+00  0.64599876642E+03  0.64599876643E+03  0.25500000000E-02 0.  1.
          2   -1    0    0  501    0  0.00000000000E+00 -0.00000000000E+00 -0.17629044843E+04  0.17629044843E+04  0.25500000000E-02 0. -1.
    8880022    1    1    2    0    0  0.63375026394E+03  0.49548812142E+03 -0.13308109464E+04  0.15625611360E+04  0.15294330000E+03 0.  0.
    8880022    1    1    2    0    0 -0.63375026394E+03 -0.49548812142E+03  0.21390522850E+03  0.84634211481E+03  0.15294330000E+03 0.  0.
<mgrwt>
<rscale>  0 0.81886478E+03</rscale>
<asrwt>0</asrwt>
<pdfrwt beam="1">  1        2 0.27121607E+00 0.81886478E+03</pdfrwt>
<pdfrwt beam="2">  1       -2 0.99384426E-01 0.81886478E+03</pdfrwt>
<totfact> 0.77364924E+00</totfact>
</mgrwt>
</event>
<event>
 4    1  0.6912310E-008  0.7813025E+03  0.7818608E-02  0.9587482E-01
          2   -1    0    0  501    0  0.00000000000E+00  0.00000000000E+00  0.15066729569E+04  0.15066729569E+04  0.25500000000E-02 0. -1.
         -2   -1    0    0    0  501 -0.00000000000E+00 -0.00000000000E+00 -0.50198490618E+03  0.50198490619E+03  0.25500000000E-02 0.  1.
    8880022    1    1    2    0    0 -0.71413394938E+03  0.27758720120E+03  0.61241965064E+02  0.78369903868E+03  0.15294330000E+03 0.  0.
    8880022    1    1    2    0    0  0.71413394938E+03 -0.27758720120E+03  0.94344608565E+03  0.12249588244E+04  0.15294330000E+03 0.  0.
<mgrwt>
<rscale>  0 0.78130251E+03</rscale>
<asrwt>0</asrwt>
<pdfrwt beam="1">  1        2 0.23179583E+00 0.78130251E+03</pdfrwt>
<pdfrwt beam="2">  1       -2 0.77228449E-01 0.78130251E+03</pdfrwt>
<totfact> 0.19208029E+01</totfact>
</mgrwt>
</event>
<event>
 4    1  0.6912310E-008  0.4534833E+03  0.7818608E-02  0.1026688E+00
         -2   -1    0    0    0  501 -0.00000000000E+00  0.00000000000E+00  0.13935202572E+03  0.13935202574E+03  0.25500000000E-02 0.  1.
          2   -1    0    0  501    0  0.00000000000E+00 -0.00000000000E+00 -0.14920181623E+04  0.14920181623E+04  0.25500000000E-02 0. -1.
    8880022    1    1    2    0    0  0.40336526066E+03  0.13982828037E+03 -0.59112914462E+03  0.74503744881E+03  0.15294330000E+03 0.  0.
    8880022    1    1    2    0    0 -0.40336526066E+03 -0.13982828037E+03 -0.76153699198E+03  0.88633273925E+03  0.15294330000E+03 0.  0.
<mgrwt>
<rscale>  0 0.45348333E+03</rscale>
<asrwt>0</asrwt>
<pdfrwt beam="1">  1        2 0.22954124E+00 0.45348333E+03</pdfrwt>
<pdfrwt beam="2">  1       -2 0.21438774E-01 0.45348333E+03</pdfrwt>
<totfact> 0.25203536E+02</totfact>
</mgrwt>
</event>
<event>
 4    1  0.6912310E-008  0.6522558E+03  0.7818608E-02  0.9802555E-01
         -2   -1    0    0    0  501 -0.00000000000E+00  0.00000000000E+00  0.42259666043E+03  0.42259666043E+03  0.25500000000E-02 0.  1.
          2   -1    0    0  501    0  0.00000000000E+00 -0.00000000000E+00 -0.12700015198E+04  0.12700015198E+04  0.25500000000E-02 0. -1.
    8880022    1    1    2    0    0  0.47838554624E+03 -0.41616498436E+03 -0.38375233812E+02  0.65338375909E+03  0.15294330000E+03 0.  1.
    8880022    1    1    2    0    0 -0.47838554624E+03  0.41616498436E+03 -0.80902962555E+03  0.10392144211E+04  0.15294330000E+03 0. -1.
<mgrwt>
<rscale>  0 0.65225584E+03</rscale>
<asrwt>0</asrwt>
<pdfrwt beam="1">  1        2 0.19538485E+00 0.65225584E+03</pdfrwt>
<pdfrwt beam="2">  1       -2 0.65014871E-01 0.65225584E+03</pdfrwt>
<totfact> 0.38696431E+01</totfact>
</mgrwt>
</event>
<event>
 4    1  0.6912310E-008  0.4224979E+03  0.7818608E-02  0.1036256E+00
          2   -1    0    0  501    0  0.00000000000E+00  0.00000000000E+00  0.40417930829E+04  0.40417930829E+04  0.25500000000E-02 0. -1.
         -2   -1    0    0    0  501 -0.00000000000E+00 -0.00000000000E+00 -0.10757522179E+03  0.10757522182E+03  0.25500000000E-02 0.  1.
    8880022    1    1    2    0    0  0.37694222245E+03  0.11413756277E+03  0.37425256369E+03  0.56441957509E+03  0.15294330000E+03 0.  0.
    8880022    1    1    2    0    0 -0.37694222245E+03 -0.11413756277E+03  0.35599652974E+04  0.35849487296E+04  0.15294330000E+03 0.  0.
<mgrwt>
<rscale>  0 0.42249790E+03</rscale>
<asrwt>0</asrwt>
<pdfrwt beam="1">  1        2 0.62181439E+00 0.42249790E+03</pdfrwt>
<pdfrwt beam="2">  1       -2 0.16550032E-01 0.42249790E+03</pdfrwt>
<totfact> 0.11302781E+01</totfact>
</mgrwt>
</event>
<event>
 4    1  0.6912310E-008  0.2316798E+03  0.7818608E-02  0.1125463E+00
         -2   -1    0    0    0  501 -0.00000000000E+00  0.00000000000E+00  0.80671642146E+02  0.80671642186E+02  0.25500000000E-02 0.  1.
          2   -1    0    0  501    0  0.00000000000E+00 -0.00000000000E+00 -0.13559001348E+04  0.13559001348E+04  0.25500000000E-02 0. -1.
    8880022    1    1    2    0    0 -0.15924522756E+03 -0.70177261005E+02 -0.12501437586E+03  0.26325679032E+03  0.15294330000E+03 0.  0.
    8880022    1    1    2    0    0  0.15924522756E+03  0.70177261005E+02 -0.11502141168E+04  0.11733149867E+04  0.15294330000E+03 0.  1.
<mgrwt>
<rscale>  0 0.23167983E+03</rscale>
<asrwt>0</asrwt>
<pdfrwt beam="1">  1        2 0.20860000E+00 0.23167983E+03</pdfrwt>
<pdfrwt beam="2">  1       -2 0.12411023E-01 0.23167983E+03</pdfrwt>
<totfact> 0.76962927E+02</totfact>
</mgrwt>
</event>
<event>
 4    1  0.6912310E-008  0.8232934E+03  0.7818608E-02  0.9526900E-01
          2   -1    0    0  501    0  0.00000000000E+00  0.00000000000E+00  0.65754070016E+03  0.65754070017E+03  0.25500000000E-02 0. -1.
         -2   -1    0    0    0  501 -0.00000000000E+00 -0.00000000000E+00 -0.13526644023E+04  0.13526644023E+04  0.25500000000E-02 0.  1.
    8880022    1    1    2    0    0  0.44586736184E+03  0.67499823870E+03 -0.83782843870E+03  0.11746354636E+04  0.15294330000E+03 0.  1.
    8880022    1    1    2    0    0 -0.44586736184E+03 -0.67499823870E+03  0.14270473655E+03  0.83556963890E+03  0.15294330000E+03 0.  0.
<mgrwt>
<rscale>  0 0.82329337E+03</rscale>
<asrwt>0</asrwt>
<pdfrwt beam="1">  1        2 0.10116011E+00 0.82329337E+03</pdfrwt>
<pdfrwt beam="2">  1       -2 0.20810222E+00 0.82329337E+03</pdfrwt>
<totfact> 0.52877536E+00</totfact>
</mgrwt>
</event>
<event>
 4    1  0.6912310E-008  0.3098909E+03  0.7818608E-02  0.1080398E+00
          2   -1    0    0  501    0  0.00000000000E+00  0.00000000000E+00  0.13796880966E+04  0.13796880966E+04  0.25500000000E-02 0. -1.
         -2   -1    0    0    0  501 -0.00000000000E+00 -0.00000000000E+00 -0.69783342520E+02  0.69783342567E+02  0.25500000000E-02 0.  1.
    8880022    1    1    2    0    0 -0.20130963044E+03  0.17920693407E+03  0.61825160556E+03  0.69156879146E+03  0.15294330000E+03 0. -1.
    8880022    1    1    2    0    0  0.20130963044E+03 -0.17920693407E+03  0.69165314847E+03  0.75790264766E+03  0.15294330000E+03 0.  1.
<mgrwt>
<rscale>  0 0.30989086E+03</rscale>
<asrwt>0</asrwt>
<pdfrwt beam="1">  1        2 0.21225971E+00 0.30989086E+03</pdfrwt>
<pdfrwt beam="2">  1       -2 0.10735899E-01 0.30989086E+03</pdfrwt>
<totfact> 0.93798804E+02</totfact>
</mgrwt>
</event>
<event>
 4    1  0.6912310E-008  0.3764001E+03  0.7818608E-02  0.1052272E+00
          2   -1    0    0  501    0  0.00000000000E+00  0.00000000000E+00  0.65101222244E+03  0.65101222244E+03  0.25500000000E-02 0. -1.
         -2   -1    0    0    0  501 -0.00000000000E+00 -0.00000000000E+00 -0.29941620291E+03  0.29941620292E+03  0.25500000000E-02 0.  1.
    8880022    1    1    2    0    0  0.17350784279E+03 -0.29695185686E+03  0.42417024810E+03  0.56709560851E+03  0.15294330000E+03 0.  0.
    8880022    1    1    2    0    0 -0.17350784279E+03  0.29695185686E+03 -0.72574228576E+02  0.38333281685E+03  0.15294330000E+03 0.  0.
<mgrwt>
<rscale>  0 0.37640009E+03</rscale>
<asrwt>0</asrwt>
<pdfrwt beam="1">  1        2 0.10015572E+00 0.37640009E+03</pdfrwt>
<pdfrwt beam="2">  1       -2 0.46064032E-01 0.37640009E+03</pdfrwt>
<totfact> 0.20707760E+02</totfact>
</mgrwt>
</event>
<event>
 4    1  0.6912310E-008  0.7039987E+03  0.7818608E-02  0.9710418E-01
          2   -1    0    0  501    0  0.00000000000E+00  0.00000000000E+00  0.22159365457E+04  0.22159365457E+04  0.25500000000E-02 0. -1.
         -2   -1    0    0    0  501 -0.00000000000E+00 -0.00000000000E+00 -0.34494772191E+03  0.34494772192E+03  0.25500000000E-02 0.  1.
    8880022    1    1    2    0    0  0.38843901147E+03  0.56686650046E+03  0.16947596712E+04  0.18351633418E+04  0.15294330000E+03 0.  0.
    8880022    1    1    2    0    0 -0.38843901147E+03 -0.56686650046E+03  0.17622915264E+03  0.72572092586E+03  0.15294330000E+03 0.  0.
<mgrwt>
<rscale>  0 0.70399868E+03</rscale>
<asrwt>0</asrwt>
<pdfrwt beam="1">  1        2 0.34091331E+00 0.70399868E+03</pdfrwt>
<pdfrwt beam="2">  1       -2 0.53068881E-01 0.70399868E+03</pdfrwt>
<totfact> 0.17726255E+01</totfact>
</mgrwt>
</event>
<event>
 4    1  0.6912310E-008  0.2062811E+03  0.7818608E-02  0.1144545E+00
         -2   -1    0    0    0  501 -0.00000000000E+00  0.00000000000E+00  0.79926297866E+03  0.79926297866E+03  0.25500000000E-02 0.  1.
          2   -1    0    0  501    0  0.00000000000E+00 -0.00000000000E+00 -0.37087577864E+03  0.37087577865E+03  0.25500000000E-02 0. -1.
    8880022    1    1    2    0    0  0.41731011972E+02  0.13198023019E+03  0.75564386107E+03  0.78329404204E+03  0.15294330000E+03 0.  1.
    8880022    1    1    2    0    0 -0.41731011972E+02 -0.13198023019E+03 -0.32725666105E+03  0.38684471527E+03  0.15294330000E+03 0.  0.
<mgrwt>
<rscale>  0 0.20628115E+03</rscale>
<asrwt>0</asrwt>
<pdfrwt beam="1">  1        2 0.57057812E-01 0.20628115E+03</pdfrwt>
<pdfrwt beam="2">  1       -2 0.12296354E+00 0.20628115E+03</pdfrwt>
<totfact> 0.46422413E+01</totfact>
</mgrwt>
</event>
<event>
 4    1  0.6912310E-008  0.6937990E+03  0.7818608E-02  0.9727896E-01
         -2   -1    0    0    0  501 -0.00000000000E+00  0.00000000000E+00  0.57923289631E+03  0.57923289631E+03  0.25500000000E-02 0.  1.
          2   -1    0    0  501    0  0.00000000000E+00 -0.00000000000E+00 -0.10027055231E+04  0.10027055231E+04  0.25500000000E-02 0. -1.
    8880022    1    1    2    0    0  0.16850205992E+03 -0.65541774241E+03  0.11555418366E+03  0.70335608595E+03  0.15294330000E+03 0.  0.
    8880022    1    1    2    0    0 -0.16850205992E+03  0.65541774241E+03 -0.53902681041E+03  0.87858233343E+03  0.15294330000E+03 0.  0.
<mgrwt>
<rscale>  0 0.69379897E+03</rscale>
<asrwt>0</asrwt>
<pdfrwt beam="1">  1        2 0.15426239E+00 0.69379897E+03</pdfrwt>
<pdfrwt beam="2">  1       -2 0.89112754E-01 0.69379897E+03</pdfrwt>
<totfact> 0.27725810E+01</totfact>
</mgrwt>
</event>
<event>
 4    1  0.6912310E-008  0.5465963E+03  0.7818608E-02  0.1002285E+00
         -2   -1    0    0    0  501 -0.00000000000E+00  0.00000000000E+00  0.36684353249E+03  0.36684353250E+03  0.25500000000E-02 0.  1.
          2   -1    0    0  501    0  0.00000000000E+00 -0.00000000000E+00 -0.15422086870E+04  0.15422086870E+04  0.25500000000E-02 0. -1.
    8880022    1    1    2    0    0  0.52442978961E+03 -0.18689756365E+02  0.68034611755E+02  0.55081419067E+03  0.15294330000E+03 0.  0.
    8880022    1    1    2    0    0 -0.52442978961E+03  0.18689756365E+02 -0.12433997663E+04  0.13582380289E+04  0.15294330000E+03 0.  0.
<mgrwt>
<rscale>  0 0.54659634E+03</rscale>
<asrwt>0</asrwt>
<pdfrwt beam="1">  1        2 0.23726287E+00 0.54659634E+03</pdfrwt>
<pdfrwt beam="2">  1       -2 0.56437468E-01 0.54659634E+03</pdfrwt>
<totfact> 0.37214628E+01</totfact>
</mgrwt>
</event>
<event>
 4    1  0.6912310E-008  0.1528426E+04  0.7818608E-02  0.8865767E-01
         -2   -1    0    0    0  501 -0.00000000000E+00  0.00000000000E+00  0.17840213800E+04  0.17840213800E+04  0.25500000000E-02 0.  1.
          2   -1    0    0  501    0  0.00000000000E+00 -0.00000000000E+00 -0.17718616881E+04  0.17718616881E+04  0.25500000000E-02 0. -1.
    8880022    1    1    2    0    0 -0.43778697730E+03 -0.14563782126E+04 -0.90219444742E+03  0.17748356007E+04  0.15294330000E+03 0.  0.
    8880022    1    1    2    0    0  0.43778697730E+03  0.14563782126E+04  0.91435413932E+03  0.17810474673E+04  0.15294330000E+03 0.  0.
<mgrwt>
<rscale>  0 0.15284262E+04</rscale>
<asrwt>0</asrwt>
<pdfrwt beam="1">  1        2 0.27259411E+00 0.15284262E+04</pdfrwt>
<pdfrwt beam="2">  1       -2 0.27446483E+00 0.15284262E+04</pdfrwt>
<totfact> 0.38091325E-01</totfact>
</mgrwt>
</event>
<event>
 4    1  0.6912310E-008  0.6260489E+03  0.7818608E-02  0.9852789E-01
          2   -1    0    0  501    0  0.00000000000E+00  0.00000000000E+00  0.23896071156E+04  0.23896071156E+04  0.25500000000E-02 0. -1.
         -2   -1    0    0    0  501 -0.00000000000E+00 -0.00000000000E+00 -0.16404835511E+03  0.16404835513E+03  0.25500000000E-02 0.  1.
    8880022    1    1    2    0    0  0.57300735952E+02  0.60436929976E+03  0.11303030734E+04  0.12920999634E+04  0.15294330000E+03 0.  1.
    8880022    1    1    2    0    0 -0.57300735952E+02 -0.60436929976E+03  0.10952556871E+04  0.12615555073E+04  0.15294330000E+03 0. -1.
<mgrwt>
<rscale>  0 0.62604894E+03</rscale>
<asrwt>0</asrwt>
<pdfrwt beam="1">  1        2 0.36763184E+00 0.62604894E+03</pdfrwt>
<pdfrwt beam="2">  1       -2 0.25238210E-01 0.62604894E+03</pdfrwt>
<totfact> 0.59925706E+01</totfact>
</mgrwt>
</event>
<event>
 4    1  0.6912310E-008  0.6037075E+03  0.7818608E-02  0.9897744E-01
          2   -1    0    0  501    0  0.00000000000E+00  0.00000000000E+00  0.18717948010E+04  0.18717948010E+04  0.25500000000E-02 0. -1.
         -2   -1    0    0    0  501 -0.00000000000E+00 -0.00000000000E+00 -0.30917910543E+03  0.30917910544E+03  0.25500000000E-02 0.  1.
    8880022    1    1    2    0    0  0.45065473116E+03 -0.37145850562E+03  0.11778805953E+03  0.61509087792E+03  0.15294330000E+03 0.  0.
    8880022    1    1    2    0    0 -0.45065473116E+03  0.37145850562E+03  0.14448276361E+04  0.15658830285E+04  0.15294330000E+03 0.  0.
<mgrwt>
<rscale>  0 0.60370751E+03</rscale>
<asrwt>0</asrwt>
<pdfrwt beam="1">  1        2 0.28796844E+00 0.60370751E+03</pdfrwt>
<pdfrwt beam="2">  1       -2 0.47566015E-01 0.60370751E+03</pdfrwt>
<totfact> 0.34638896E+01</totfact>
</mgrwt>
</event>
<event>
 4    1  0.6912310E-008  0.4368614E+03  0.7818608E-02  0.1031714E+00
         -2   -1    0    0    0  501 -0.00000000000E+00  0.00000000000E+00  0.11285218976E+03  0.11285218979E+03  0.25500000000E-02 0.  1.
          2   -1    0    0  501    0  0.00000000000E+00 -0.00000000000E+00 -0.18396751686E+04  0.18396751686E+04  0.25500000000E-02 0. -1.
    8880022    1    1    2    0    0 -0.35382617863E+03  0.20558027818E+03 -0.58600031619E+03  0.73092013178E+03  0.15294330000E+03 0.  1.
    8880022    1    1    2    0    0  0.35382617863E+03 -0.20558027818E+03 -0.11408226627E+04  0.12216072266E+04  0.15294330000E+03 0.  0.
<mgrwt>
<rscale>  0 0.43686138E+03</rscale>
<asrwt>0</asrwt>
<pdfrwt beam="1">  1        2 0.28302693E+00 0.43686138E+03</pdfrwt>
<pdfrwt beam="2">  1       -2 0.17361877E-01 0.43686138E+03</pdfrwt>
<totfact> 0.23603188E+02</totfact>
</mgrwt>
</event>
<event>
 4    1  0.6912310E-008  0.2683248E+03  0.7818608E-02  0.1102242E+00
          2   -1    0    0  501    0  0.00000000000E+00  0.00000000000E+00  0.22026085339E+04  0.22026085339E+04  0.25500000000E-02 0. -1.
         -2   -1    0    0    0  501 -0.00000000000E+00 -0.00000000000E+00 -0.65937388779E+02  0.65937388828E+02  0.25500000000E-02 0.  1.
    8880022    1    1    2    0    0  0.15073450165E+03 -0.16089018710E+03  0.18737984594E+04  0.18929127983E+04  0.15294330000E+03 0.  0.
    8880022    1    1    2    0    0 -0.15073450165E+03  0.16089018710E+03  0.26287268569E+03  0.37563312446E+03  0.15294330000E+03 0.  1.
<mgrwt>
<rscale>  0 0.26832479E+03</rscale>
<asrwt>0</asrwt>
<pdfrwt beam="1">  1        2 0.33886290E+00 0.26832479E+03</pdfrwt>
<pdfrwt beam="2">  1       -2 0.10144212E-01 0.26832479E+03</pdfrwt>
<totfact> 0.37741467E+02</totfact>
</mgrwt>
</event>
<event>
 4    1  0.6912310E-008  0.1574015E+03  0.7818608E-02  0.1191662E+00
         -2   -1    0    0    0  501 -0.00000000000E+00  0.00000000000E+00  0.25230507057E+03  0.25230507058E+03  0.25500000000E-02 0.  1.
          2   -1    0    0  501    0  0.00000000000E+00 -0.00000000000E+00 -0.38854180040E+03  0.38854180041E+03  0.25500000000E-02 0. -1.
    8880022    1    1    2    0    0  0.32769973211E+02 -0.17598383877E+02 -0.34510800930E+03  0.37930827220E+03  0.15294330000E+03 0. -1.
    8880022    1    1    2    0    0 -0.32769973211E+02  0.17598383877E+02  0.20887127947E+03  0.26153859880E+03  0.15294330000E+03 0.  0.
<mgrwt>
<rscale>  0 0.15740148E+03</rscale>
<asrwt>0</asrwt>
<pdfrwt beam="1">  1        2 0.59775662E-01 0.15740148E+03</pdfrwt>
<pdfrwt beam="2">  1       -2 0.38816165E-01 0.15740148E+03</pdfrwt>
<totfact> 0.52301444E+02</totfact>
</mgrwt>
</event>
<event>
 4    1  0.6912310E-008  0.6411774E+03  0.7818608E-02  0.9823477E-01
         -2   -1    0    0    0  501 -0.00000000000E+00  0.00000000000E+00  0.70139030831E+03  0.70139030831E+03  0.25500000000E-02 0.  1.
          2   -1    0    0  501    0  0.00000000000E+00 -0.00000000000E+00 -0.21159933058E+04  0.21159933058E+04  0.25500000000E-02 0. -1.
    8880022    1    1    2    0    0 -0.37642263661E+03 -0.49600680934E+03 -0.19051024415E+04  0.20101054007E+04  0.15294330000E+03 0.  0.
    8880022    1    1    2    0    0  0.37642263661E+03  0.49600680934E+03  0.49049944402E+03  0.80727821341E+03  0.15294330000E+03 0.  0.
<mgrwt>
<rscale>  0 0.64117736E+03</rscale>
<asrwt>0</asrwt>
<pdfrwt beam="1">  1        2 0.32553743E+00 0.64117736E+03</pdfrwt>
<pdfrwt beam="2">  1       -2 0.10790620E+00 0.64117736E+03</pdfrwt>
<totfact> 0.42021012E+00</totfact>
</mgrwt>
</event>
<event>
 4    1  0.6912310E-008  0.2262290E+03  0.7818608E-02  0.1129322E+00
         -2   -1    0    0    0  501 -0.00000000000E+00  0.00000000000E+00  0.90253152706E+03  0.90253152706E+03  0.25500000000E-02 0.  1.
          2   -1    0    0  501    0  0.00000000000E+00 -0.00000000000E+00 -0.11243229248E+04  0.11243229248E+04  0.25500000000E-02 0. -1.
    8880022    1    1    2    0    0  0.18110922449E+02 -0.16571028578E+03  0.87664413667E+03  0.90536429115E+03  0.15294330000E+03 0.  0.
    8880022    1    1    2    0    0 -0.18110922449E+02  0.16571028578E+03 -0.10984355344E+04  0.11214901607E+04  0.15294330000E+03 0.  0.
<mgrwt>
<rscale>  0 0.22622899E+03</rscale>
<asrwt>0</asrwt>
<pdfrwt beam="1">  1        2 0.17297276E+00 0.22622899E+03</pdfrwt>
<pdfrwt beam="2">  1       -2 0.13885101E+00 0.22622899E+03</pdfrwt>
<totfact> 0.88583155E+00</totfact>
</mgrwt>
</event>
<event>
 4    1  0.6912310E-008  0.7082331E+03  0.7818608E-02  0.9703255E-01
         -2   -1    0    0    0  501 -0.00000000000E+00  0.00000000000E+00  0.11388438683E+04  0.11388438683E+04  0.25500000000E-02 0.  1.
          2   -1    0    0  501    0  0.00000000000E+00 -0.00000000000E+00 -0.11049278030E+04  0.11049278030E+04  0.25500000000E-02 0. -1.
    8880022    1    1    2    0    0  0.68018845755E+03  0.12468388466E+03 -0.85305296410E+03  0.11087350547E+04  0.15294330000E+03 0.  0.
    8880022    1    1    2    0    0 -0.68018845755E+03 -0.12468388466E+03  0.88696902945E+03  0.11350366166E+04  0.15294330000E+03 0.  1.
<mgrwt>
<rscale>  0 0.70823306E+03</rscale>
<asrwt>0</asrwt>
<pdfrwt beam="1">  1        2 0.16998889E+00 0.70823306E+03</pdfrwt>
<pdfrwt beam="2">  1       -2 0.17520675E+00 0.70823306E+03</pdfrwt>
<totfact> 0.43573911E+00</totfact>
</mgrwt>
</event>
<event>
 4    1  0.6912310E-008  0.6411800E+03  0.7818608E-02  0.9823471E-01
         -2   -1    0    0    0  501 -0.00000000000E+00  0.00000000000E+00  0.87602322909E+03  0.87602322910E+03  0.25500000000E-02 0.  1.
          2   -1    0    0  501    0  0.00000000000E+00 -0.00000000000E+00 -0.15610676694E+04  0.15610676694E+04  0.25500000000E-02 0. -1.
    8880022    1    1    2    0    0  0.61724513777E+03 -0.82028076785E+02 -0.13615765012E+04  0.15049924874E+04  0.15294330000E+03 0.  0.
    8880022    1    1    2    0    0 -0.61724513777E+03  0.82028076785E+02  0.67653206091E+03  0.93209841108E+03  0.15294330000E+03 0.  0.
<mgrwt>
<rscale>  0 0.64118002E+03</rscale>
<asrwt>0</asrwt>
<pdfrwt beam="1">  1        2 0.24016426E+00 0.64118002E+03</pdfrwt>
<pdfrwt beam="2">  1       -2 0.13477280E+00 0.64118002E+03</pdfrwt>
<totfact> 0.48586550E+00</totfact>
</mgrwt>
</event>
<event>
 4    1  0.6912310E-008  0.1622397E+03  0.7818608E-02  0.1186191E+00
          2   -1    0    0  501    0  0.00000000000E+00  0.00000000000E+00  0.45992732321E+03  0.45992732322E+03  0.25500000000E-02 0. -1.
         -2   -1    0    0    0  501 -0.00000000000E+00 -0.00000000000E+00 -0.91231612063E+03  0.91231612063E+03  0.25500000000E-02 0.  1.
    8880022    1    1    2    0    0  0.31626147758E+02  0.43930163538E+02 -0.89044717187E+03  0.90510656355E+03  0.15294330000E+03 0.  0.
    8880022    1    1    2    0    0 -0.31626147758E+02 -0.43930163538E+02  0.43805837445E+03  0.46713688029E+03  0.15294330000E+03 0. -1.
<mgrwt>
<rscale>  0 0.16223972E+03</rscale>
<asrwt>0</asrwt>
<pdfrwt beam="1">  1        2 0.70758050E-01 0.16223972E+03</pdfrwt>
<pdfrwt beam="2">  1       -2 0.14035633E+00 0.16223972E+03</pdfrwt>
<totfact> 0.26818270E+01</totfact>
</mgrwt>
</event>
<event>
 4    1  0.6912310E-008  0.2214074E+03  0.7818608E-02  0.1132838E+00
          2   -1    0    0  501    0  0.00000000000E+00  0.00000000000E+00  0.19645542807E+04  0.19645542807E+04  0.25500000000E-02 0. -1.
         -2   -1    0    0    0  501 -0.00000000000E+00 -0.00000000000E+00 -0.13812521009E+03  0.13812521012E+03  0.25500000000E-02 0.  1.
    8880022    1    1    2    0    0 -0.11029923358E+03  0.11603293307E+03 -0.38434487715E+02  0.22471854696E+03  0.15294330000E+03 0.  1.
    8880022    1    1    2    0    0  0.11029923358E+03 -0.11603293307E+03  0.18648635583E+04  0.18779609439E+04  0.15294330000E+03 0.  0.
<mgrwt>
<rscale>  0 0.22140735E+03</rscale>
<asrwt>0</asrwt>
<pdfrwt beam="1">  1        2 0.30223911E+00 0.22140735E+03</pdfrwt>
<pdfrwt beam="2">  1       -2 0.21250033E-01 0.22140735E+03</pdfrwt>
<totfact> 0.15002724E+02</totfact>
</mgrwt>
</event>
<event>
 4    1  0.6912310E-008  0.1584121E+03  0.7818608E-02  0.1190501E+00
         -2   -1    0    0    0  501 -0.00000000000E+00  0.00000000000E+00  0.39184283403E+02  0.39184283486E+02  0.25500000000E-02 0.  1.
          2   -1    0    0  501    0  0.00000000000E+00 -0.00000000000E+00 -0.10391444189E+04  0.10391444189E+04  0.25500000000E-02 0. -1.
    8880022    1    1    2    0    0  0.10142436303E+01 -0.41251813961E+02 -0.16600065215E+03  0.22945720816E+03  0.15294330000E+03 0.  1.
    8880022    1    1    2    0    0 -0.10142436303E+01  0.41251813961E+02 -0.83395948339E+03  0.84887149427E+03  0.15294330000E+03 0.  0.
<mgrwt>
<rscale>  0 0.15841210E+03</rscale>
<asrwt>0</asrwt>
<pdfrwt beam="1">  1        2 0.15986835E+00 0.15841210E+03</pdfrwt>
<pdfrwt beam="2">  1       -2 0.60283521E-02 0.15841210E+03</pdfrwt>
<totfact> 0.36027014E+03</totfact>
</mgrwt>
</event>
<event>
 4    1  0.6912310E-008  0.4320039E+03  0.7818608E-02  0.1033229E+00
          2   -1    0    0  501    0  0.00000000000E+00  0.00000000000E+00  0.70793037857E+03  0.70793037857E+03  0.25500000000E-02 0. -1.
         -2   -1    0    0    0  501 -0.00000000000E+00 -0.00000000000E+00 -0.36538615727E+03  0.36538615728E+03  0.25500000000E-02 0.  1.
    8880022    1    1    2    0    0 -0.30328567874E+03  0.26693346407E+03 -0.11194224128E+03  0.44627166117E+03  0.15294330000E+03 0.  0.
    8880022    1    1    2    0    0  0.30328567874E+03 -0.26693346407E+03  0.45448646258E+03  0.62704487467E+03  0.15294330000E+03 0.  0.
<mgrwt>
<rscale>  0 0.43200385E+03</rscale>
<asrwt>0</asrwt>
<pdfrwt beam="1">  1        2 0.10891237E+00 0.43200385E+03</pdfrwt>
<pdfrwt beam="2">  1       -2 0.56213255E-01 0.43200385E+03</pdfrwt>
<totfact> 0.12426197E+02</totfact>
</mgrwt>
</event>
<event>
 4    1  0.6912310E-008  0.1959768E+03  0.7818608E-02  0.1153178E+00
          2   -1    0    0  501    0  0.00000000000E+00  0.00000000000E+00  0.11177417555E+04  0.11177417555E+04  0.25500000000E-02 0. -1.
         -2   -1    0    0    0  501 -0.00000000000E+00 -0.00000000000E+00 -0.97134949564E+03  0.97134949564E+03  0.25500000000E-02 0.  1.
    8880022    1    1    2    0    0 -0.10806542135E+03  0.57767706359E+02  0.10991001907E+04  0.11164354551E+04  0.15294330000E+03 0.  0.
    8880022    1    1    2    0    0  0.10806542135E+03 -0.57767706359E+02 -0.95270793081E+03  0.97265579608E+03  0.15294330000E+03 0.  1.
<mgrwt>
<rscale>  0 0.19597677E+03</rscale>
<asrwt>0</asrwt>
<pdfrwt beam="1">  1        2 0.17196027E+00 0.19597677E+03</pdfrwt>
<pdfrwt beam="2">  1       -2 0.14943838E+00 0.19597677E+03</pdfrwt>
<totfact> 0.75183239E+00</totfact>
</mgrwt>
</event>
<event>
 4    1  0.6912310E-008  0.5939401E+03  0.7818608E-02  0.9918059E-01
         -2   -1    0    0    0  501 -0.00000000000E+00  0.00000000000E+00  0.94478581792E+03  0.94478581792E+03  0.25500000000E-02 0.  1.
          2   -1    0    0  501    0  0.00000000000E+00 -0.00000000000E+00 -0.68095852405E+03  0.68095852405E+03  0.25500000000E-02 0. -1.
    8880022    1    1    2    0    0 -0.38840498101E+03  0.42251001395E+03 -0.41439670789E+03  0.72421642186E+03  0.15294330000E+03 0.  0.
    8880022    1    1    2    0    0  0.38840498101E+03 -0.42251001395E+03  0.67822400176E+03  0.90152792011E+03  0.15294330000E+03 0.  0.
<mgrwt>
<rscale>  0 0.59394006E+03</rscale>
<asrwt>0</asrwt>
<pdfrwt beam="1">  1        2 0.10476285E+00 0.59394006E+03</pdfrwt>
<pdfrwt beam="2">  1       -2 0.14535166E+00 0.59394006E+03</pdfrwt>
<totfact> 0.14268367E+01</totfact>
</mgrwt>
</event>
<event>
 4    1  0.6912310E-008  0.6817651E+03  0.7818608E-02  0.9748935E-01
         -2   -1    0    0    0  501 -0.00000000000E+00  0.00000000000E+00  0.29476484159E+03  0.29476484160E+03  0.25500000000E-02 0.  1.
          2   -1    0    0  501    0  0.00000000000E+00 -0.00000000000E+00 -0.20275386523E+04  0.20275386523E+04  0.25500000000E-02 0. -1.
    8880022    1    1    2    0    0  0.66290902279E+03  0.44313098103E+02 -0.14138270152E+04  0.15696211342E+04  0.15294330000E+03 0.  0.
    8880022    1    1    2    0    0 -0.66290902279E+03 -0.44313098103E+02 -0.31894679554E+03  0.75268235967E+03  0.15294330000E+03 0.  0.
<mgrwt>
<rscale>  0 0.68176512E+03</rscale>
<asrwt>0</asrwt>
<pdfrwt beam="1">  1        2 0.31192901E+00 0.68176512E+03</pdfrwt>
<pdfrwt beam="2">  1       -2 0.45348439E-01 0.68176512E+03</pdfrwt>
<totfact> 0.31010561E+01</totfact>
</mgrwt>
</event>
<event>
 4    1  0.6912310E-008  0.9235309E+03  0.7818608E-02  0.9396635E-01
         -2   -1    0    0    0  501 -0.00000000000E+00  0.00000000000E+00  0.44668353497E+03  0.44668353497E+03  0.25500000000E-02 0.  1.
          2   -1    0    0  501    0  0.00000000000E+00 -0.00000000000E+00 -0.25083259560E+04  0.25083259560E+04  0.25500000000E-02 0. -1.
    8880022    1    1    2    0    0 -0.85908592603E+03  0.30247158607E+03 -0.17527824597E+04  0.19812005686E+04  0.15294330000E+03 0.  0.
    8880022    1    1    2    0    0  0.85908592603E+03 -0.30247158607E+03 -0.30885996130E+03  0.97380892242E+03  0.15294330000E+03 0.  0.
<mgrwt>
<rscale>  0 0.92353091E+03</rscale>
<asrwt>0</asrwt>
<pdfrwt beam="1">  1        2 0.38589629E+00 0.92353091E+03</pdfrwt>
<pdfrwt beam="2">  1       -2 0.68720545E-01 0.92353091E+03</pdfrwt>
<totfact> 0.68071764E+00</totfact>
</mgrwt>
</event>
<event>
 4    1  0.6912310E-008  0.1128381E+04  0.7818608E-02  0.9177963E-01
         -2   -1    0    0    0  501 -0.00000000000E+00  0.00000000000E+00  0.16401564520E+04  0.16401564520E+04  0.25500000000E-02 0.  1.
          2   -1    0    0  501    0  0.00000000000E+00 -0.00000000000E+00 -0.15508653707E+04  0.15508653707E+04  0.25500000000E-02 0. -1.
    8880022    1    1    2    0    0 -0.22240399615E+03  0.10956220936E+04  0.11722156658E+04  0.16270625463E+04  0.15294330000E+03 0.  0.
    8880022    1    1    2    0    0  0.22240399615E+03 -0.10956220936E+04 -0.10829245844E+04  0.15639592764E+04  0.15294330000E+03 0.  0.
<mgrwt>
<rscale>  0 0.11283807E+04</rscale>
<asrwt>0</asrwt>
<pdfrwt beam="1">  1        2 0.23859467E+00 0.11283807E+04</pdfrwt>
<pdfrwt beam="2">  1       -2 0.25233176E+00 0.11283807E+04</pdfrwt>
<totfact> 0.72465361E-01</totfact>
</mgrwt>
</event>
<event>
 4    1  0.6912310E-008  0.9097680E+03  0.7818608E-02  0.9413453E-01
         -2   -1    0    0    0  501 -0.00000000000E+00  0.00000000000E+00  0.40529456007E+03  0.40529456008E+03  0.25500000000E-02 0.  1.
          2   -1    0    0  501    0  0.00000000000E+00 -0.00000000000E+00 -0.32659929674E+04  0.32659929674E+04  0.25500000000E-02 0. -1.
    8880022    1    1    2    0    0  0.70456609813E+03 -0.55486291390E+03 -0.25540253824E+04  0.27112217812E+04  0.15294330000E+03 0.  0.
    8880022    1    1    2    0    0 -0.70456609813E+03  0.55486291390E+03 -0.30667302484E+03  0.96006574620E+03  0.15294330000E+03 0.  0.
<mgrwt>
<rscale>  0 0.90976804E+03</rscale>
<asrwt>0</asrwt>
<pdfrwt beam="1">  1        2 0.50246044E+00 0.90976804E+03</pdfrwt>
<pdfrwt beam="2">  1       -2 0.62353011E-01 0.90976804E+03</pdfrwt>
<totfact> 0.29261191E+00</totfact>
</mgrwt>
</event>
<event>
 4    1  0.6912310E-008  0.3603753E+03  0.7818608E-02  0.1058435E+00
         -2   -1    0    0    0  501 -0.00000000000E+00  0.00000000000E+00  0.99022574884E+02  0.99022574917E+02  0.25500000000E-02 0.  1.
          2   -1    0    0  501    0  0.00000000000E+00 -0.00000000000E+00 -0.22283443679E+04  0.22283443680E+04  0.25500000000E-02 0. -1.
    8880022    1    1    2    0    0 -0.19962490409E+03  0.25812514280E+03 -0.18110858859E+04  0.18465921127E+04  0.15294330000E+03 0. -1.
    8880022    1    1    2    0    0  0.19962490409E+03 -0.25812514280E+03 -0.31823590720E+03  0.48077483017E+03  0.15294330000E+03 0.  0.
<mgrwt>
<rscale>  0 0.36037528E+03</rscale>
<asrwt>0</asrwt>
<pdfrwt beam="1">  1        2 0.34282217E+00 0.36037528E+03</pdfrwt>
<pdfrwt beam="2">  1       -2 0.15234244E-01 0.36037528E+03</pdfrwt>
<totfact> 0.18460565E+02</totfact>
</mgrwt>
</event>
<event>
 4    1  0.6912310E-008  0.3363289E+03  0.7818608E-02  0.1068370E+00
          2   -1    0    0  501    0  0.00000000000E+00  0.00000000000E+00  0.13881062684E+04  0.13881062684E+04  0.25500000000E-02 0. -1.
         -2   -1    0    0    0  501 -0.00000000000E+00 -0.00000000000E+00 -0.56477452145E+03  0.56477452146E+03  0.25500000000E-02 0.  1.
    8880022    1    1    2    0    0  0.61335339575E+02 -0.29319529876E+03 -0.49158732769E+03  0.59563013763E+03  0.15294330000E+03 0.  1.
    8880022    1    1    2    0    0 -0.61335339575E+02  0.29319529876E+03  0.13149190746E+04  0.13572506522E+04  0.15294330000E+03 0.  0.
<mgrwt>
<rscale>  0 0.33632895E+03</rscale>
<asrwt>0</asrwt>
<pdfrwt beam="1">  1        2 0.21355481E+00 0.33632895E+03</pdfrwt>
<pdfrwt beam="2">  1       -2 0.86888389E-01 0.33632895E+03</pdfrwt>
<totfact> 0.18537188E+01</totfact>
</mgrwt>
</event>
<event>
 4    1  0.6912310E-008  0.9856943E+03  0.7818608E-02  0.9324376E-01
          2   -1    0    0  501    0  0.00000000000E+00  0.00000000000E+00  0.18296958470E+04  0.18296958470E+04  0.25500000000E-02 0. -1.
         -2   -1    0    0    0  501 -0.00000000000E+00 -0.00000000000E+00 -0.54522778182E+03  0.54522778183E+03  0.25500000000E-02 0.  1.
    8880022    1    1    2    0    0 -0.75487260431E+03  0.61511695221E+03  0.45050257783E+03  0.10837646143E+04  0.15294330000E+03 0.  0.
    8880022    1    1    2    0    0  0.75487260431E+03 -0.61511695221E+03  0.83396548737E+03  0.12911590145E+04  0.15294330000E+03 0.  0.
<mgrwt>
<rscale>  0 0.98569426E+03</rscale>
<asrwt>0</asrwt>
<pdfrwt beam="1">  1        2 0.28149167E+00 0.98569426E+03</pdfrwt>
<pdfrwt beam="2">  1       -2 0.83881198E-01 0.98569426E+03</pdfrwt>
<totfact> 0.10329645E+01</totfact>
</mgrwt>
</event>
<event>
 4    1  0.6912310E-008  0.5732640E+03  0.7818608E-02  0.9962482E-01
         -2   -1    0    0    0  501 -0.00000000000E+00  0.00000000000E+00  0.19899604564E+03  0.19899604565E+03  0.25500000000E-02 0.  1.
          2   -1    0    0  501    0  0.00000000000E+00 -0.00000000000E+00 -0.27958675447E+04  0.27958675447E+04  0.25500000000E-02 0. -1.
    8880022    1    1    2    0    0 -0.54908672237E+03 -0.61186239328E+02 -0.34040075764E+03  0.66671156686E+03  0.15294330000E+03 0.  0.
    8880022    1    1    2    0    0  0.54908672237E+03  0.61186239328E+02 -0.22564707414E+04  0.23281520235E+04  0.15294330000E+03 0.  0.
<mgrwt>
<rscale>  0 0.57326402E+03</rscale>
<asrwt>0</asrwt>
<pdfrwt beam="1">  1        2 0.43013344E+00 0.57326402E+03</pdfrwt>
<pdfrwt beam="2">  1       -2 0.30614778E-01 0.57326402E+03</pdfrwt>
<totfact> 0.24934413E+01</totfact>
</mgrwt>
</event>
<event>
 4    1  0.6912310E-008  0.3496806E+03  0.7818608E-02  0.1062746E+00
         -2   -1    0    0    0  501 -0.00000000000E+00  0.00000000000E+00  0.30950927047E+03  0.30950927048E+03  0.25500000000E-02 0.  1.
          2   -1    0    0  501    0  0.00000000000E+00 -0.00000000000E+00 -0.69721342606E+03  0.69721342606E+03  0.25500000000E-02 0. -1.
    8880022    1    1    2    0    0 -0.61143617601E+02 -0.30845800702E+03  0.13751286862E+03  0.37574768944E+03  0.15294330000E+03 0.  0.
    8880022    1    1    2    0    0  0.61143617601E+02  0.30845800702E+03 -0.52521702420E+03  0.63097500711E+03  0.15294330000E+03 0.  0.
<mgrwt>
<rscale>  0 0.34968062E+03</rscale>
<asrwt>0</asrwt>
<pdfrwt beam="1">  1        2 0.10726360E+00 0.34968062E+03</pdfrwt>
<pdfrwt beam="2">  1       -2 0.47616811E-01 0.34968062E+03</pdfrwt>
<totfact> 0.17878285E+02</totfact>
</mgrwt>
</event>
<event>
 4    1  0.7619220E-008  0.1432241E+04  0.7818608E-02  0.8930806E-01
         -2   -1    0    0    0  501 -0.00000000000E+00  0.00000000000E+00  0.14896078296E+04  0.14896078296E+04  0.25500000000E-02 0.  1.
          2   -1    0    0  501    0  0.00000000000E+00 -0.00000000000E+00 -0.24106869526E+04  0.24106869526E+04  0.25500000000E-02 0. -1.
    8880022    1    1    2    0    0 -0.12871494079E+04  0.60923607952E+03 -0.17374900998E+04  0.22517072853E+04  0.15294330000E+03 0.  0.
    8880022    1    1    2    0    0  0.12871494079E+04 -0.60923607952E+03  0.81641097672E+03  0.16485874969E+04  0.15294330000E+03 0.  0.
<mgrwt>
<rscale>  0 0.14322408E+04</rscale>
<asrwt>0</asrwt>
<pdfrwt beam="1">  1        2 0.37087492E+00 0.14322408E+04</pdfrwt>
<pdfrwt beam="2">  1       -2 0.22917044E+00 0.14322408E+04</pdfrwt>
<totfact> 0.32072280E-01</totfact>
</mgrwt>
</event>
<event>
 4    1  0.6912310E-008  0.4600623E+03  0.7818608E-02  0.1024763E+00
         -2   -1    0    0    0  501 -0.00000000000E+00  0.00000000000E+00  0.50565972398E+03  0.50565972399E+03  0.25500000000E-02 0.  1.
          2   -1    0    0  501    0  0.00000000000E+00 -0.00000000000E+00 -0.12436840858E+04  0.12436840858E+04  0.25500000000E-02 0. -1.
    8880022    1    1    2    0    0  0.39274991250E+03  0.18442655013E+03 -0.10814474597E+04  0.11752386597E+04  0.15294330000E+03 0.  0.
    8880022    1    1    2    0    0 -0.39274991250E+03 -0.18442655013E+03  0.34342309789E+03  0.57410515008E+03  0.15294330000E+03 0.  0.
<mgrwt>
<rscale>  0 0.46006228E+03</rscale>
<asrwt>0</asrwt>
<pdfrwt beam="1">  1        2 0.19133601E+00 0.46006228E+03</pdfrwt>
<pdfrwt beam="2">  1       -2 0.77793804E-01 0.46006228E+03</pdfrwt>
<totfact> 0.27852483E+01</totfact>
</mgrwt>
</event>
<event>
 4    1  0.6912310E-008  0.2621984E+03  0.7818608E-02  0.1105830E+00
          2   -1    0    0  501    0  0.00000000000E+00  0.00000000000E+00  0.14154974040E+04  0.14154974040E+04  0.25500000000E-02 0. -1.
         -2   -1    0    0    0  501 -0.00000000000E+00 -0.00000000000E+00 -0.37278922039E+03  0.37278922039E+03  0.25500000000E-02 0.  1.
    8880022    1    1    2    0    0 -0.19934354336E+03 -0.74956554830E+02 -0.31251163964E+03  0.40793567056E+03  0.15294330000E+03 0.  0.
    8880022    1    1    2    0    0  0.19934354336E+03  0.74956554830E+02  0.13552198232E+04  0.13803509538E+04  0.15294330000E+03 0.  0.
<mgrwt>
<rscale>  0 0.26219837E+03</rscale>
<asrwt>0</asrwt>
<pdfrwt beam="1">  1        2 0.21776882E+00 0.26219837E+03</pdfrwt>
<pdfrwt beam="2">  1       -2 0.57352189E-01 0.26219837E+03</pdfrwt>
<totfact> 0.44843038E+01</totfact>
</mgrwt>
</event>
<event>
 4    1  0.6912310E-008  0.4784678E+03  0.7818608E-02  0.1019557E+00
         -2   -1    0    0    0  501 -0.00000000000E+00  0.00000000000E+00  0.21440623497E+03  0.21440623498E+03  0.25500000000E-02 0.  1.
          2   -1    0    0  501    0  0.00000000000E+00 -0.00000000000E+00 -0.21161057681E+04  0.21161057681E+04  0.25500000000E-02 0. -1.
    8880022    1    1    2    0    0  0.42546343207E+02 -0.45136418736E+03 -0.13067243050E+03  0.49599068344E+03  0.15294330000E+03 0.  0.
    8880022    1    1    2    0    0 -0.42546343207E+02  0.45136418736E+03 -0.17710271026E+04  0.18345213196E+04  0.15294330000E+03 0.  0.
<mgrwt>
<rscale>  0 0.47846784E+03</rscale>
<asrwt>0</asrwt>
<pdfrwt beam="1">  1        2 0.32555472E+00 0.47846784E+03</pdfrwt>
<pdfrwt beam="2">  1       -2 0.32985576E-01 0.47846784E+03</pdfrwt>
<totfact> 0.53103838E+01</totfact>
</mgrwt>
</event>
<event>
 4    1  0.6912310E-008  0.2828772E+03  0.7818608E-02  0.1094128E+00
         -2   -1    0    0    0  501 -0.00000000000E+00  0.00000000000E+00  0.33507816744E+02  0.33507816841E+02  0.25500000000E-02 0.  1.
          2   -1    0    0  501    0  0.00000000000E+00 -0.00000000000E+00 -0.29585194698E+04  0.29585194698E+04  0.25500000000E-02 0. -1.
    8880022    1    1    2    0    0  0.46181273373E+02  0.23344201730E+03 -0.80560327544E+03  0.85382444089E+03  0.15294330000E+03 0.  0.
    8880022    1    1    2    0    0 -0.46181273373E+02 -0.23344201730E+03 -0.21194083776E+04  0.21382028457E+04  0.15294330000E+03 0.  0.
<mgrwt>
<rscale>  0 0.28287725E+03</rscale>
<asrwt>0</asrwt>
<pdfrwt beam="1">  1        2 0.45515664E+00 0.28287725E+03</pdfrwt>
<pdfrwt beam="2">  1       -2 0.51550511E-02 0.28287725E+03</pdfrwt>
<totfact> 0.41085237E+02</totfact>
</mgrwt>
</event>
<event>
 4    1  0.6912310E-008  0.7845138E+03  0.7818608E-02  0.9582707E-01
          2   -1    0    0  501    0  0.00000000000E+00  0.00000000000E+00  0.96784787759E+03  0.96784787760E+03  0.25500000000E-02 0. -1.
         -2   -1    0    0    0  501 -0.00000000000E+00 -0.00000000000E+00 -0.10106328261E+04  0.10106328261E+04  0.25500000000E-02 0.  1.
    8880022    1    1    2    0    0  0.46239097208E+03 -0.61503235458E+03 -0.62376001887E+03  0.10022666424E+04  0.15294330000E+03 0.  0.
    8880022    1    1    2    0    0 -0.46239097208E+03  0.61503235458E+03  0.58097507033E+03  0.97621406136E+03  0.15294330000E+03 0.  0.
<mgrwt>
<rscale>  0 0.78451377E+03</rscale>
<asrwt>0</asrwt>
<pdfrwt beam="1">  1        2 0.14889967E+00 0.78451377E+03</pdfrwt>
<pdfrwt beam="2">  1       -2 0.15548197E+00 0.78451377E+03</pdfrwt>
<totfact> 0.72962776E+00</totfact>
</mgrwt>
</event>
<event>
 4    1  0.6912310E-008  0.8161998E+03  0.7818608E-02  0.9536860E-01
          2   -1    0    0  501    0  0.00000000000E+00  0.00000000000E+00  0.21310352099E+04  0.21310352099E+04  0.25500000000E-02 0. -1.
         -2   -1    0    0    0  501 -0.00000000000E+00 -0.00000000000E+00 -0.57693745582E+03  0.57693745583E+03  0.25500000000E-02 0.  1.
    8880022    1    1    2    0    0 -0.51444900347E+03  0.61492495693E+03 -0.13942766492E+03  0.82802307129E+03  0.15294330000E+03 0.  0.
    8880022    1    1    2    0    0  0.51444900347E+03 -0.61492495693E+03  0.16935254190E+04  0.18799495944E+04  0.15294330000E+03 0.  0.
<mgrwt>
<rscale>  0 0.81619981E+03</rscale>
<asrwt>0</asrwt>
<pdfrwt beam="1">  1        2 0.32785156E+00 0.81619981E+03</pdfrwt>
<pdfrwt beam="2">  1       -2 0.88759610E-01 0.81619981E+03</pdfrwt>
<totfact> 0.63354141E+00</totfact>
</mgrwt>
</event>
<event>
 4    1  0.6912310E-008  0.6989098E+03  0.7818608E-02  0.9719098E-01
          2   -1    0    0  501    0  0.00000000000E+00  0.00000000000E+00  0.45623095076E+03  0.45623095077E+03  0.25500000000E-02 0. -1.
         -2   -1    0    0    0  501 -0.00000000000E+00 -0.00000000000E+00 -0.13350303980E+04  0.13350303980E+04  0.25500000000E-02 0.  1.
    8880022    1    1    2    0    0 -0.68166644255E+03  0.20348878208E+02 -0.40854286239E+02  0.70010280778E+03  0.15294330000E+03 0. -1.
    8880022    1    1    2    0    0  0.68166644255E+03 -0.20348878208E+02 -0.83794516103E+03  0.10911585410E+04  0.15294330000E+03 0.  0.
<mgrwt>
<rscale>  0 0.69890977E+03</rscale>
<asrwt>0</asrwt>
<pdfrwt beam="1">  1        2 0.70189378E-01 0.69890977E+03</pdfrwt>
<pdfrwt beam="2">  1       -2 0.20538929E+00 0.69890977E+03</pdfrwt>
<totfact> 0.86129998E+00</totfact>
</mgrwt>
</event>
<event>
 4    1  0.6912310E-008  0.1133511E+04  0.7818608E-02  0.9173131E-01
          2   -1    0    0  501    0  0.00000000000E+00  0.00000000000E+00  0.12839947773E+04  0.12839947773E+04  0.25500000000E-02 0. -1.
         -2   -1    0    0    0  501 -0.00000000000E+00 -0.00000000000E+00 -0.22558286248E+04  0.22558286248E+04  0.25500000000E-02 0.  1.
    8880022    1    1    2    0    0  0.82010682430E+02 -0.11201476009E+04 -0.18061444988E+04  0.21323709817E+04  0.15294330000E+03 0.  0.
    8880022    1    1    2    0    0 -0.82010682430E+02  0.11201476009E+04  0.83431065134E+03  0.14074524205E+04  0.15294330000E+03 0.  0.
<mgrwt>
<rscale>  0 0.11335114E+04</rscale>
<asrwt>0</asrwt>
<pdfrwt beam="1">  1        2 0.19753766E+00 0.11335114E+04</pdfrwt>
<pdfrwt beam="2">  1       -2 0.34705056E+00 0.11335114E+04</pdfrwt>
<totfact> 0.27155578E-01</totfact>
</mgrwt>
</event>
<event>
 4    1  0.6912310E-008  0.5351605E+03  0.7818608E-02  0.1004988E+00
         -2   -1    0    0    0  501 -0.00000000000E+00  0.00000000000E+00  0.86305457002E+03  0.86305457003E+03  0.25500000000E-02 0.  1.
          2   -1    0    0  501    0  0.00000000000E+00 -0.00000000000E+00 -0.81070297758E+03  0.81070297758E+03  0.25500000000E-02 0. -1.
    8880022    1    1    2    0    0 -0.46218796418E+02 -0.51075332737E+03  0.66936226405E+03  0.85699628478E+03  0.15294330000E+03 0.  0.
    8880022    1    1    2    0    0  0.46218796418E+02  0.51075332737E+03 -0.61701067161E+03  0.81676126283E+03  0.15294330000E+03 0.  0.
<mgrwt>
<rscale>  0 0.53516053E+03</rscale>
<asrwt>0</asrwt>
<pdfrwt beam="1">  1        2 0.12472353E+00 0.53516053E+03</pdfrwt>
<pdfrwt beam="2">  1       -2 0.13277763E+00 0.53516053E+03</pdfrwt>
<totfact> 0.14523710E+01</totfact>
</mgrwt>
</event>
<event>
 4    1  0.6912310E-008  0.4712306E+03  0.7818608E-02  0.1021573E+00
         -2   -1    0    0    0  501 -0.00000000000E+00  0.00000000000E+00  0.10243806749E+04  0.10243806749E+04  0.25500000000E-02 0.  1.
          2   -1    0    0  501    0  0.00000000000E+00 -0.00000000000E+00 -0.29214154877E+03  0.29214154879E+03  0.25500000000E-02 0. -1.
    8880022    1    1    2    0    0  0.31648797021E+03 -0.31385027541E+03  0.31773651776E+02  0.47230059139E+03  0.15294330000E+03 0.  0.
    8880022    1    1    2    0    0 -0.31648797021E+03  0.31385027541E+03  0.70046547436E+03  0.84422163231E+03  0.15294330000E+03 0.  0.
<mgrwt>
<rscale>  0 0.47123061E+03</rscale>
<asrwt>0</asrwt>
<pdfrwt beam="1">  1        2 0.44944853E-01 0.47123061E+03</pdfrwt>
<pdfrwt beam="2">  1       -2 0.15759703E+00 0.47123061E+03</pdfrwt>
<totfact> 0.30786195E+01</totfact>
</mgrwt>
</event>
<event>
 4    1  0.6912310E-008  0.5353414E+03  0.7818608E-02  0.1004945E+00
         -2   -1    0    0    0  501 -0.00000000000E+00  0.00000000000E+00  0.14048141010E+03  0.14048141012E+03  0.25500000000E-02 0.  1.
          2   -1    0    0  501    0  0.00000000000E+00 -0.00000000000E+00 -0.32391380011E+04  0.32391380011E+04  0.25500000000E-02 0. -1.
    8880022    1    1    2    0    0  0.50938433491E+03 -0.61043913487E+02 -0.25774556434E+04  0.26324642461E+04  0.15294330000E+03 0.  0.
    8880022    1    1    2    0    0 -0.50938433491E+03  0.61043913487E+02 -0.52120094754E+03  0.74715516511E+03  0.15294330000E+03 0.  0.
<mgrwt>
<rscale>  0 0.53534140E+03</rscale>
<asrwt>0</asrwt>
<pdfrwt beam="1">  1        2 0.49832887E+00 0.53534140E+03</pdfrwt>
<pdfrwt beam="2">  1       -2 0.21612527E-01 0.53534140E+03</pdfrwt>
<totfact> 0.25305344E+01</totfact>
</mgrwt>
</event>
<event>
 4    1  0.6912310E-008  0.4473528E+03  0.7818608E-02  0.1028514E+00
         -2   -1    0    0    0  501 -0.00000000000E+00  0.00000000000E+00  0.27091619167E+04  0.27091619167E+04  0.25500000000E-02 0.  1.
          2   -1    0    0  501    0  0.00000000000E+00 -0.00000000000E+00 -0.99330205539E+02  0.99330205572E+02  0.25500000000E-02 0. -1.
    8880022    1    1    2    0    0  0.12301796592E+03 -0.40199429110E+03  0.20158634959E+04  0.20649043845E+04  0.15294330000E+03 0.  0.
    8880022    1    1    2    0    0 -0.12301796592E+03  0.40199429110E+03  0.59396821527E+03  0.74358773778E+03  0.15294330000E+03 0.  0.
<mgrwt>
<rscale>  0 0.44735275E+03</rscale>
<asrwt>0</asrwt>
<pdfrwt beam="1">  1        2 0.15281573E-01 0.44735275E+03</pdfrwt>
<pdfrwt beam="2">  1       -2 0.41679406E+00 0.44735275E+03</pdfrwt>
<totfact> 0.25392821E+00</totfact>
</mgrwt>
</event>
<event>
 4    1  0.6912310E-008  0.7003678E+03  0.7818608E-02  0.9716603E-01
         -2   -1    0    0    0  501 -0.00000000000E+00  0.00000000000E+00  0.15132929851E+04  0.15132929851E+04  0.25500000000E-02 0.  1.
          2   -1    0    0  501    0  0.00000000000E+00 -0.00000000000E+00 -0.56001783364E+03  0.56001783365E+03  0.25500000000E-02 0. -1.
    8880022    1    1    2    0    0  0.15316802091E+03 -0.66608031042E+03 -0.19615209219E+03  0.72731748146E+03  0.15294330000E+03 0.  0.
    8880022    1    1    2    0    0 -0.15316802091E+03  0.66608031042E+03  0.11494272437E+04  0.13459933373E+04  0.15294330000E+03 0.  0.
<mgrwt>
<rscale>  0 0.70036781E+03</rscale>
<asrwt>0</asrwt>
<pdfrwt beam="1">  1        2 0.86156589E-01 0.70036781E+03</pdfrwt>
<pdfrwt beam="2">  1       -2 0.23281431E+00 0.70036781E+03</pdfrwt>
<totfact> 0.45689834E+00</totfact>
</mgrwt>
</event>
<event>
 4    1  0.6912310E-008  0.1083114E+04  0.7818608E-02  0.9221808E-01
         -2   -1    0    0    0  501 -0.00000000000E+00  0.00000000000E+00  0.10748502008E+04  0.10748502008E+04  0.25500000000E-02 0.  1.
          2   -1    0    0  501    0  0.00000000000E+00 -0.00000000000E+00 -0.17192854357E+04  0.17192854357E+04  0.25500000000E-02 0. -1.
    8880022    1    1    2    0    0  0.26748438551E+03  0.10383627568E+04 -0.11664638664E+04  0.15917835016E+04  0.15294330000E+03 0.  0.
    8880022    1    1    2    0    0 -0.26748438551E+03 -0.10383627568E+04  0.52202863152E+03  0.12023521349E+04  0.15294330000E+03 0.  0.
<mgrwt>
<rscale>  0 0.10831144E+04</rscale>
<asrwt>0</asrwt>
<pdfrwt beam="1">  1        2 0.26450545E+00 0.10831144E+04</pdfrwt>
<pdfrwt beam="2">  1       -2 0.16536157E+00 0.10831144E+04</pdfrwt>
<totfact> 0.21667335E+00</totfact>
</mgrwt>
</event>
<event>
 4    1  0.6912310E-008  0.5749621E+03  0.7818608E-02  0.9958758E-01
          2   -1    0    0  501    0  0.00000000000E+00  0.00000000000E+00  0.29170998426E+04  0.29170998426E+04  0.25500000000E-02 0. -1.
         -2   -1    0    0    0  501 -0.00000000000E+00 -0.00000000000E+00 -0.18257613648E+03  0.18257613650E+03  0.25500000000E-02 0.  1.
    8880022    1    1    2    0    0  0.55015052116E+03 -0.67262075898E+02  0.23217632537E+04  0.23918959096E+04  0.15294330000E+03 0.  0.
    8880022    1    1    2    0    0 -0.55015052116E+03  0.67262075898E+02  0.41276045242E+03  0.70778006957E+03  0.15294330000E+03 0.  0.
<mgrwt>
<rscale>  0 0.57496212E+03</rscale>
<asrwt>0</asrwt>
<pdfrwt beam="1">  1        2 0.44878455E+00 0.57496212E+03</pdfrwt>
<pdfrwt beam="2">  1       -2 0.28088639E-01 0.57496212E+03</pdfrwt>
<totfact> 0.24760515E+01</totfact>
</mgrwt>
</event>
<event>
 4    1  0.6912310E-008  0.7729560E+03  0.7818608E-02  0.9600009E-01
          2   -1    0    0  501    0  0.00000000000E+00  0.00000000000E+00  0.17934386623E+04  0.17934386623E+04  0.25500000000E-02 0. -1.
         -2   -1    0    0    0  501 -0.00000000000E+00 -0.00000000000E+00 -0.65428582195E+03  0.65428582195E+03  0.25500000000E-02 0.  1.
    8880022    1    1    2    0    0  0.21116487273E+03 -0.72765283594E+03  0.14270127862E+04  0.16229067743E+04  0.15294330000E+03 0.  0.
    8880022    1    1    2    0    0 -0.21116487273E+03  0.72765283594E+03 -0.28785994588E+03  0.82481770991E+03  0.15294330000E+03 0.  0.
<mgrwt>
<rscale>  0 0.77295595E+03</rscale>
<asrwt>0</asrwt>
<pdfrwt beam="1">  1        2 0.27591364E+00 0.77295595E+03</pdfrwt>
<pdfrwt beam="2">  1       -2 0.10065936E+00 0.77295595E+03</pdfrwt>
<totfact> 0.72699671E+00</totfact>
</mgrwt>
</event>
<event>
 4    1  0.6912310E-008  0.9209815E+03  0.7818608E-02  0.9399727E-01
          2   -1    0    0  501    0  0.00000000000E+00  0.00000000000E+00  0.32762219113E+04  0.32762219113E+04  0.25500000000E-02 0. -1.
         -2   -1    0    0    0  501 -0.00000000000E+00 -0.00000000000E+00 -0.71801528913E+03  0.71801528913E+03  0.25500000000E-02 0.  1.
    8880022    1    1    2    0    0 -0.52029961497E+03  0.74438131818E+03  0.28760811649E+04  0.30199420121E+04  0.15294330000E+03 0.  0.
    8880022    1    1    2    0    0  0.52029961497E+03 -0.74438131818E+03 -0.31787454270E+03  0.97429518838E+03  0.15294330000E+03 0.  0.
<mgrwt>
<rscale>  0 0.92098148E+03</rscale>
<asrwt>0</asrwt>
<pdfrwt beam="1">  1        2 0.50403413E+00 0.92098148E+03</pdfrwt>
<pdfrwt beam="2">  1       -2 0.11046389E+00 0.92098148E+03</pdfrwt>
<totfact> 0.78201040E-01</totfact>
</mgrwt>
</event>
<event>
 4    1  0.6912310E-008  0.6561652E+03  0.7818608E-02  0.9795279E-01
         -2   -1    0    0    0  501 -0.00000000000E+00  0.00000000000E+00  0.25293087303E+04  0.25293087303E+04  0.25500000000E-02 0.  1.
          2   -1    0    0  501    0  0.00000000000E+00 -0.00000000000E+00 -0.36389294465E+03  0.36389294466E+03  0.25500000000E-02 0. -1.
    8880022    1    1    2    0    0  0.62296741353E+03 -0.13810416240E+03  0.27373188582E+02  0.65673594577E+03  0.15294330000E+03 0.  0.
    8880022    1    1    2    0    0 -0.62296741353E+03  0.13810416240E+03  0.21380425971E+04  0.22364657292E+04  0.15294330000E+03 0.  0.
<mgrwt>
<rscale>  0 0.65616523E+03</rscale>
<asrwt>0</asrwt>
<pdfrwt beam="1">  1        2 0.55983530E-01 0.65616523E+03</pdfrwt>
<pdfrwt beam="2">  1       -2 0.38912442E+00 0.65616523E+03</pdfrwt>
<totfact> 0.83506540E-01</totfact>
</mgrwt>
</event>
<event>
 4    1  0.6912310E-008  0.1029777E+04  0.7818608E-02  0.9276476E-01
          2   -1    0    0  501    0  0.00000000000E+00  0.00000000000E+00  0.75641255470E+03  0.75641255471E+03  0.25500000000E-02 0. -1.
         -2   -1    0    0    0  501 -0.00000000000E+00 -0.00000000000E+00 -0.21062339338E+04  0.21062339338E+04  0.25500000000E-02 0.  1.
    8880022    1    1    2    0    0 -0.14568855711E+03  0.10078807291E+04  0.15277088693E+03  0.10410472212E+04  0.15294330000E+03 0.  0.
    8880022    1    1    2    0    0  0.14568855711E+03 -0.10078807291E+04 -0.15025922661E+04  0.18215992674E+04  0.15294330000E+03 0.  0.
<mgrwt>
<rscale>  0 0.10297769E+04</rscale>
<asrwt>0</asrwt>
<pdfrwt beam="1">  1        2 0.11637116E+00 0.10297769E+04</pdfrwt>
<pdfrwt beam="2">  1       -2 0.32403599E+00 0.10297769E+04</pdfrwt>
<totfact> 0.84204803E-01</totfact>
</mgrwt>
</event>
<event>
 4    1  0.6912310E-008  0.4030453E+03  0.7818608E-02  0.1042730E+00
          2   -1    0    0  501    0  0.00000000000E+00  0.00000000000E+00  0.65888306292E+03  0.65888306292E+03  0.25500000000E-02 0. -1.
         -2   -1    0    0    0  501 -0.00000000000E+00 -0.00000000000E+00 -0.56056899216E+03  0.56056899217E+03  0.25500000000E-02 0.  1.
    8880022    1    1    2    0    0  0.26348222994E+03  0.26387681977E+03 -0.40719539236E+03  0.57293420397E+03  0.15294330000E+03 0. -1.
    8880022    1    1    2    0    0 -0.26348222994E+03 -0.26387681977E+03  0.50550946312E+03  0.64651785112E+03  0.15294330000E+03 0.  0.
<mgrwt>
<rscale>  0 0.40304530E+03</rscale>
<asrwt>0</asrwt>
<pdfrwt beam="1">  1        2 0.10136662E+00 0.40304530E+03</pdfrwt>
<pdfrwt beam="2">  1       -2 0.86241384E-01 0.40304530E+03</pdfrwt>
<totfact> 0.53961912E+01</totfact>
</mgrwt>
</event>
<event>
 4    1  0.6912310E-008  0.6602808E+03  0.7818608E-02  0.9787677E-01
          2   -1    0    0  501    0  0.00000000000E+00  0.00000000000E+00  0.44311867720E+03  0.44311867721E+03  0.25500000000E-02 0. -1.
         -2   -1    0    0    0  501 -0.00000000000E+00 -0.00000000000E+00 -0.14517977221E+04  0.14517977221E+04  0.25500000000E-02 0.  1.
    8880022    1    1    2    0    0  0.30801526372E+03 -0.56365381886E+03 -0.10422337751E+04  0.12337835812E+04  0.15294330000E+03 0.  0.
    8880022    1    1    2    0    0 -0.30801526372E+03  0.56365381886E+03  0.33554730266E+02  0.66113281808E+03  0.15294330000E+03 0.  0.
<mgrwt>
<rscale>  0 0.66028076E+03</rscale>
<asrwt>0</asrwt>
<pdfrwt beam="1">  1        2 0.68172105E-01 0.66028076E+03</pdfrwt>
<pdfrwt beam="2">  1       -2 0.22335349E+00 0.66028076E+03</pdfrwt>
<totfact> 0.68927001E+00</totfact>
</mgrwt>
</event>
<event>
 4    1  0.6912310E-008  0.2026377E+03  0.7818608E-02  0.1147533E+00
         -2   -1    0    0    0  501 -0.00000000000E+00  0.00000000000E+00  0.88055569600E+03  0.88055569600E+03  0.25500000000E-02 0.  1.
          2   -1    0    0  501    0  0.00000000000E+00 -0.00000000000E+00 -0.70870701903E+02  0.70870701949E+02  0.25500000000E-02 0. -1.
    8880022    1    1    2    0    0  0.70324928903E+02  0.11280413235E+03  0.68304885151E+03  0.71247298507E+03  0.15294330000E+03 0.  0.
    8880022    1    1    2    0    0 -0.70324928903E+02 -0.11280413235E+03  0.12663614259E+03  0.23895341288E+03  0.15294330000E+03 0. -1.
<mgrwt>
<rscale>  0 0.20263766E+03</rscale>
<asrwt>0</asrwt>
<pdfrwt beam="1">  1        2 0.10903185E-01 0.20263766E+03</pdfrwt>
<pdfrwt beam="2">  1       -2 0.13547011E+00 0.20263766E+03</pdfrwt>
<totfact> 0.23668147E+02</totfact>
</mgrwt>
</event>
<event>
 4    1  0.6912310E-008  0.1405973E+04  0.7818608E-02  0.8949506E-01
         -2   -1    0    0    0  501 -0.00000000000E+00  0.00000000000E+00  0.34178748547E+04  0.34178748547E+04  0.25500000000E-02 0.  1.
          2   -1    0    0  501    0  0.00000000000E+00 -0.00000000000E+00 -0.15214484371E+04  0.15214484371E+04  0.25500000000E-02 0. -1.
    8880022    1    1    2    0    0 -0.67036941195E+03  0.12263662293E+04  0.28926110351E+04  0.32162026569E+04  0.15294330000E+03 0.  0.
    8880022    1    1    2    0    0  0.67036941195E+03 -0.12263662293E+04 -0.99618461763E+03  0.17231206349E+04  0.15294330000E+03 0.  0.
<mgrwt>
<rscale>  0 0.14059733E+04</rscale>
<asrwt>0</asrwt>
<pdfrwt beam="1">  1        2 0.23406899E+00 0.14059733E+04</pdfrwt>
<pdfrwt beam="2">  1       -2 0.52582690E+00 0.14059733E+04</pdfrwt>
<totfact> 0.13397048E-02</totfact>
</mgrwt>
</event>
<event>
 4    1  0.6912310E-008  0.6022296E+03  0.7818608E-02  0.9900791E-01
          2   -1    0    0  501    0  0.00000000000E+00  0.00000000000E+00  0.83397031688E+03  0.83397031688E+03  0.25500000000E-02 0. -1.
         -2   -1    0    0    0  501 -0.00000000000E+00 -0.00000000000E+00 -0.75747284201E+03  0.75747284201E+03  0.25500000000E-02 0.  1.
    8880022    1    1    2    0    0  0.51736137977E+03  0.26763033023E+03  0.55752945410E+03  0.82068236008E+03  0.15294330000E+03 0.  0.
    8880022    1    1    2    0    0 -0.51736137977E+03 -0.26763033023E+03 -0.48103197923E+03  0.77076079882E+03  0.15294330000E+03 0.  0.
<mgrwt>
<rscale>  0 0.60222956E+03</rscale>
<asrwt>0</asrwt>
<pdfrwt beam="1">  1        2 0.12830313E+00 0.60222956E+03</pdfrwt>
<pdfrwt beam="2">  1       -2 0.11653428E+00 0.60222956E+03</pdfrwt>
<totfact> 0.19183727E+01</totfact>
</mgrwt>
</event>
<event>
 4    1  0.6912310E-008  0.6927074E+03  0.7818608E-02  0.9729785E-01
          2   -1    0    0  501    0  0.00000000000E+00  0.00000000000E+00  0.42761520489E+04  0.42761520489E+04  0.25500000000E-02 0. -1.
         -2   -1    0    0    0  501 -0.00000000000E+00 -0.00000000000E+00 -0.22675112220E+03  0.22675112221E+03  0.25500000000E-02 0.  1.
    8880022    1    1    2    0    0  0.67294391622E+03  0.59986440469E+02  0.36248526270E+04  0.36904471420E+04  0.15294330000E+03 0.  0.
    8880022    1    1    2    0    0 -0.67294391622E+03 -0.59986440469E+02  0.42454829965E+03  0.81245602907E+03  0.15294330000E+03 0.  0.
<mgrwt>
<rscale>  0 0.69270740E+03</rscale>
<asrwt>0</asrwt>
<pdfrwt beam="1">  1        2 0.65786952E+00 0.69270740E+03</pdfrwt>
<pdfrwt beam="2">  1       -2 0.34884789E-01 0.69270740E+03</pdfrwt>
<totfact> 0.17515919E+00</totfact>
</mgrwt>
</event>
<event>
 4    1  0.6912310E-008  0.1143239E+04  0.7818608E-02  0.9164043E-01
         -2   -1    0    0    0  501 -0.00000000000E+00  0.00000000000E+00  0.85312427433E+03  0.85312427433E+03  0.25500000000E-02 0.  1.
          2   -1    0    0  501    0  0.00000000000E+00 -0.00000000000E+00 -0.17609495746E+04  0.17609495746E+04  0.25500000000E-02 0. -1.
    8880022    1    1    2    0    0  0.90843024654E+03 -0.67702176611E+03  0.17361950613E+02  0.11433709262E+04  0.15294330000E+03 0.  0.
    8880022    1    1    2    0    0 -0.90843024654E+03  0.67702176611E+03 -0.92518725090E+03  0.14707029227E+04  0.15294330000E+03 0.  0.
<mgrwt>
<rscale>  0 0.11432391E+04</rscale>
<asrwt>0</asrwt>
<pdfrwt beam="1">  1        2 0.27091532E+00 0.11432391E+04</pdfrwt>
<pdfrwt beam="2">  1       -2 0.13124989E+00 0.11432391E+04</pdfrwt>
<totfact> 0.37668472E+00</totfact>
</mgrwt>
</event>
<event>
 4    1  0.6912310E-008  0.4183849E+03  0.7818608E-02  0.1037593E+00
          2   -1    0    0  501    0  0.00000000000E+00  0.00000000000E+00  0.12945535545E+04  0.12945535545E+04  0.25500000000E-02 0. -1.
         -2   -1    0    0    0  501 -0.00000000000E+00 -0.00000000000E+00 -0.10336642669E+04  0.10336642669E+04  0.25500000000E-02 0.  1.
    8880022    1    1    2    0    0 -0.31859334793E+03  0.22394761961E+03  0.12157454081E+04  0.12857226792E+04  0.15294330000E+03 0. -1.
    8880022    1    1    2    0    0  0.31859334793E+03 -0.22394761961E+03 -0.95485612047E+03  0.10424951422E+04  0.15294330000E+03 0.  0.
<mgrwt>
<rscale>  0 0.41838488E+03</rscale>
<asrwt>0</asrwt>
<pdfrwt beam="1">  1        2 0.19916209E+00 0.41838488E+03</pdfrwt>
<pdfrwt beam="2">  1       -2 0.15902527E+00 0.41838488E+03</pdfrwt>
<totfact> 0.46620804E+00</totfact>
</mgrwt>
</event>
<event>
 4    1  0.6912310E-008  0.9450401E+03  0.7818608E-02  0.9370967E-01
          2   -1    0    0  501    0  0.00000000000E+00  0.00000000000E+00  0.15624326679E+04  0.15624326679E+04  0.25500000000E-02 0. -1.
         -2   -1    0    0    0  501 -0.00000000000E+00 -0.00000000000E+00 -0.68301626983E+03  0.68301626984E+03  0.25500000000E-02 0.  1.
    8880022    1    1    2    0    0 -0.66571837454E+03 -0.65309129460E+03 -0.13725809999E+02  0.94513980138E+03  0.15294330000E+03 0.  1.
    8880022    1    1    2    0    0  0.66571837454E+03  0.65309129460E+03  0.89314220810E+03  0.13003091364E+04  0.15294330000E+03 0. -1.
<mgrwt>
<rscale>  0 0.94504013E+03</rscale>
<asrwt>0</asrwt>
<pdfrwt beam="1">  1        2 0.24037425E+00 0.94504013E+03</pdfrwt>
<pdfrwt beam="2">  1       -2 0.10507943E+00 0.94504013E+03</pdfrwt>
<totfact> 0.86017409E+00</totfact>
</mgrwt>
</event>
<event>
 4    1  0.6912310E-008  0.3953685E+03  0.7818608E-02  0.1045395E+00
         -2   -1    0    0    0  501 -0.00000000000E+00  0.00000000000E+00  0.10837332282E+03  0.10837332285E+03  0.25500000000E-02 0.  1.
          2   -1    0    0  501    0  0.00000000000E+00 -0.00000000000E+00 -0.26879151213E+04  0.26879151213E+04  0.25500000000E-02 0. -1.
    8880022    1    1    2    0    0 -0.48135405872E+02  0.36139670305E+03 -0.33802501921E+03  0.52017031913E+03  0.15294330000E+03 0.  0.
    8880022    1    1    2    0    0  0.48135405872E+02 -0.36139670305E+03 -0.22415167792E+04  0.22761181250E+04  0.15294330000E+03 0.  0.
<mgrwt>
<rscale>  0 0.39536850E+03</rscale>
<asrwt>0</asrwt>
<pdfrwt beam="1">  1        2 0.41352535E+00 0.39536850E+03</pdfrwt>
<pdfrwt beam="2">  1       -2 0.16672821E-01 0.39536850E+03</pdfrwt>
<totfact> 0.87693384E+01</totfact>
</mgrwt>
</event>
<event>
 4    1  0.6912310E-008  0.8026118E+03  0.7818608E-02  0.9556244E-01
         -2   -1    0    0    0  501 -0.00000000000E+00  0.00000000000E+00  0.52593062908E+03  0.52593062908E+03  0.25500000000E-02 0.  1.
          2   -1    0    0  501    0  0.00000000000E+00 -0.00000000000E+00 -0.13422593074E+04  0.13422593074E+04  0.25500000000E-02 0. -1.
    8880022    1    1    2    0    0  0.50930538098E+03  0.60116720554E+03 -0.13189936019E+03  0.81337757182E+03  0.15294330000E+03 0.  0.
    8880022    1    1    2    0    0 -0.50930538098E+03 -0.60116720554E+03 -0.68442931813E+03  0.10548123647E+04  0.15294330000E+03 0.  0.
<mgrwt>
<rscale>  0 0.80261176E+03</rscale>
<asrwt>0</asrwt>
<pdfrwt beam="1">  1        2 0.20650143E+00 0.80261176E+03</pdfrwt>
<pdfrwt beam="2">  1       -2 0.80912405E-01 0.80261176E+03</pdfrwt>
<totfact> 0.21370184E+01</totfact>
</mgrwt>
</event>
<event>
 4    1  0.6912310E-008  0.5171973E+03  0.7818608E-02  0.1009385E+00
         -2   -1    0    0    0  501 -0.00000000000E+00  0.00000000000E+00  0.42788107949E+03  0.42788107950E+03  0.25500000000E-02 0.  1.
          2   -1    0    0  501    0  0.00000000000E+00 -0.00000000000E+00 -0.19336465545E+04  0.19336465545E+04  0.25500000000E-02 0. -1.
    8880022    1    1    2    0    0 -0.71691149543E+02 -0.48883717595E+03 -0.17241964936E+04  0.18000962772E+04  0.15294330000E+03 0.  0.
    8880022    1    1    2    0    0  0.71691149543E+02  0.48883717595E+03  0.21843101860E+03  0.56143135682E+03  0.15294330000E+03 0.  0.
<mgrwt>
<rscale>  0 0.51719731E+03</rscale>
<asrwt>0</asrwt>
<pdfrwt beam="1">  1        2 0.29748408E+00 0.51719731E+03</pdfrwt>
<pdfrwt beam="2">  1       -2 0.65827860E-01 0.51719731E+03</pdfrwt>
<totfact> 0.16607360E+01</totfact>
</mgrwt>
</event>
<event>
 4    1  0.8408604E-008  0.1177971E+04  0.7818608E-02  0.9132360E-01
          2   -1    0    0  501    0  0.00000000000E+00  0.00000000000E+00  0.20660654838E+04  0.20660654838E+04  0.25500000000E-02 0. -1.
         -2   -1    0    0    0  501 -0.00000000000E+00 -0.00000000000E+00 -0.12725237802E+04  0.12725237802E+04  0.25500000000E-02 0.  1.
    8880022    1    1    2    0    0 -0.11305269396E+04 -0.29348373386E+03  0.15438719724E+04  0.19419464934E+04  0.15294330000E+03 0.  0.
    8880022    1    1    2    0    0  0.11305269396E+04  0.29348373386E+03 -0.75033026886E+03  0.13966427705E+04  0.15294330000E+03 0.  0.
<mgrwt>
<rscale>  0 0.11779709E+04</rscale>
<asrwt>0</asrwt>
<pdfrwt beam="1">  1        2 0.31785623E+00 0.11779709E+04</pdfrwt>
<pdfrwt beam="2">  1       -2 0.19577289E+00 0.11779709E+04</pdfrwt>
<totfact> 0.84843340E-01</totfact>
</mgrwt>
</event>
<event>
 4    1  0.6912310E-008  0.2344034E+03  0.7818608E-02  0.1123578E+00
         -2   -1    0    0    0  501 -0.00000000000E+00  0.00000000000E+00  0.54674719546E+02  0.54674719605E+02  0.25500000000E-02 0.  1.
          2   -1    0    0  501    0  0.00000000000E+00 -0.00000000000E+00 -0.17144064996E+04  0.17144064996E+04  0.25500000000E-02 0. -1.
    8880022    1    1    2    0    0  0.12383745993E+03  0.12734834205E+03 -0.26084797281E+03  0.35069450329E+03  0.15294330000E+03 0.  0.
    8880022    1    1    2    0    0 -0.12383745993E+03 -0.12734834205E+03 -0.13988838072E+04  0.14183867159E+04  0.15294330000E+03 0. -1.
<mgrwt>
<rscale>  0 0.23440343E+03</rscale>
<asrwt>0</asrwt>
<pdfrwt beam="1">  1        2 0.26375480E+00 0.23440343E+03</pdfrwt>
<pdfrwt beam="2">  1       -2 0.84114966E-02 0.23440343E+03</pdfrwt>
<totfact> 0.92200288E+02</totfact>
</mgrwt>
</event>
<event>
 4    1  0.6912310E-008  0.4129867E+03  0.7818608E-02  0.1039373E+00
          2   -1    0    0  501    0  0.00000000000E+00  0.00000000000E+00  0.25558685693E+04  0.25558685693E+04  0.25500000000E-02 0. -1.
         -2   -1    0    0    0  501 -0.00000000000E+00 -0.00000000000E+00 -0.95390874259E+02  0.95390874293E+02  0.25500000000E-02 0.  1.
    8880022    1    1    2    0    0 -0.37720446618E+03 -0.69879503360E+02  0.19568449088E+04  0.19999500004E+04  0.15294330000E+03 0.  0.
    8880022    1    1    2    0    0  0.37720446618E+03  0.69879503360E+02  0.50363278624E+03  0.65130944311E+03  0.15294330000E+03 0.  0.
<mgrwt>
<rscale>  0 0.41298669E+03</rscale>
<asrwt>0</asrwt>
<pdfrwt beam="1">  1        2 0.39321052E+00 0.41298669E+03</pdfrwt>
<pdfrwt beam="2">  1       -2 0.14675520E-01 0.41298669E+03</pdfrwt>
<totfact> 0.12850023E+02</totfact>
</mgrwt>
</event>
<event>
 4    1  0.6912310E-008  0.3813566E+03  0.7818608E-02  0.1050433E+00
         -2   -1    0    0    0  501 -0.00000000000E+00  0.00000000000E+00  0.82329466212E+02  0.82329466251E+02  0.25500000000E-02 0.  1.
          2   -1    0    0  501    0  0.00000000000E+00 -0.00000000000E+00 -0.27264952159E+04  0.27264952159E+04  0.25500000000E-02 0. -1.
    8880022    1    1    2    0    0 -0.32042010334E+03  0.13918385990E+03 -0.48872271429E+03  0.61990542340E+03  0.15294330000E+03 0.  0.
    8880022    1    1    2    0    0  0.32042010334E+03 -0.13918385990E+03 -0.21554430354E+04  0.21889192587E+04  0.15294330000E+03 0.  0.
<mgrwt>
<rscale>  0 0.38135658E+03</rscale>
<asrwt>0</asrwt>
<pdfrwt beam="1">  1        2 0.41946073E+00 0.38135658E+03</pdfrwt>
<pdfrwt beam="2">  1       -2 0.12666074E-01 0.38135658E+03</pdfrwt>
<totfact> 0.13221193E+02</totfact>
</mgrwt>
</event>
<event>
 4    1  0.6912310E-008  0.8244792E+03  0.7818608E-02  0.9525245E-01
         -2   -1    0    0    0  501 -0.00000000000E+00  0.00000000000E+00  0.94950589155E+03  0.94950589155E+03  0.25500000000E-02 0.  1.
          2   -1    0    0  501    0  0.00000000000E+00 -0.00000000000E+00 -0.14831868863E+04  0.14831868863E+04  0.25500000000E-02 0. -1.
    8880022    1    1    2    0    0 -0.17736758217E+03  0.79051573128E+03 -0.11416909451E+04  0.14082699485E+04  0.15294330000E+03 0.  0.
    8880022    1    1    2    0    0  0.17736758217E+03 -0.79051573128E+03  0.60800995036E+03  0.10244228294E+04  0.15294330000E+03 0.  1.
<mgrwt>
<rscale>  0 0.82447925E+03</rscale>
<asrwt>0</asrwt>
<pdfrwt beam="1">  1        2 0.22818260E+00 0.82447925E+03</pdfrwt>
<pdfrwt beam="2">  1       -2 0.14607783E+00 0.82447925E+03</pdfrwt>
<totfact> 0.42316187E+00</totfact>
</mgrwt>
</event>
<event>
 4    1  0.6912310E-008  0.8749645E+03  0.7818608E-02  0.9457430E-01
          2   -1    0    0  501    0  0.00000000000E+00  0.00000000000E+00  0.82183817500E+03  0.82183817501E+03  0.25500000000E-02 0. -1.
         -2   -1    0    0    0  501 -0.00000000000E+00 -0.00000000000E+00 -0.14161727560E+04  0.14161727560E+04  0.25500000000E-02 0.  1.
    8880022    1    1    2    0    0 -0.86100471424E+03 -0.29020389387E+02  0.35744945787E+03  0.94516298536E+03  0.15294330000E+03 0.  0.
    8880022    1    1    2    0    0  0.86100471424E+03  0.29020389387E+02 -0.95178403888E+03  0.12928479457E+04  0.15294330000E+03 0.  0.
<mgrwt>
<rscale>  0 0.87496454E+03</rscale>
<asrwt>0</asrwt>
<pdfrwt beam="1">  1        2 0.12643664E+00 0.87496454E+03</pdfrwt>
<pdfrwt beam="2">  1       -2 0.21787273E+00 0.87496454E+03</pdfrwt>
<totfact> 0.34156992E+00</totfact>
</mgrwt>
</event>
<event>
 4    1  0.6912310E-008  0.4605445E+03  0.7818608E-02  0.1024623E+00
         -2   -1    0    0    0  501 -0.00000000000E+00  0.00000000000E+00  0.15344522007E+03  0.15344522009E+03  0.25500000000E-02 0.  1.
          2   -1    0    0  501    0  0.00000000000E+00 -0.00000000000E+00 -0.21359803267E+04  0.21359803267E+04  0.25500000000E-02 0. -1.
    8880022    1    1    2    0    0  0.32574067586E+03 -0.28740669704E+03 -0.16712581468E+04  0.17335527230E+04  0.15294330000E+03 0.  0.
    8880022    1    1    2    0    0 -0.32574067586E+03  0.28740669704E+03 -0.31127695984E+03  0.55587282373E+03  0.15294330000E+03 0.  0.
<mgrwt>
<rscale>  0 0.46054452E+03</rscale>
<asrwt>0</asrwt>
<pdfrwt beam="1">  1        2 0.32861234E+00 0.46054452E+03</pdfrwt>
<pdfrwt beam="2">  1       -2 0.23606959E-01 0.46054452E+03</pdfrwt>
<totfact> 0.95598350E+01</totfact>
</mgrwt>
</event>
<event>
 4    1  0.6912310E-008  0.3639332E+03  0.7818608E-02  0.1057037E+00
          2   -1    0    0  501    0  0.00000000000E+00  0.00000000000E+00  0.30692956364E+04  0.30692956364E+04  0.25500000000E-02 0. -1.
         -2   -1    0    0    0  501 -0.00000000000E+00 -0.00000000000E+00 -0.28185485442E+03  0.28185485443E+03  0.25500000000E-02 0.  1.
    8880022    1    1    2    0    0 -0.59891207108E+02 -0.32475957937E+03  0.29357035896E+04  0.29581756135E+04  0.15294330000E+03 0. -1.
    8880022    1    1    2    0    0  0.59891207108E+02  0.32475957937E+03 -0.14826280763E+03  0.39297487735E+03  0.15294330000E+03 0.  0.
<mgrwt>
<rscale>  0 0.36393323E+03</rscale>
<asrwt>0</asrwt>
<pdfrwt beam="1">  1        2 0.47219935E+00 0.36393323E+03</pdfrwt>
<pdfrwt beam="2">  1       -2 0.43362284E-01 0.36393323E+03</pdfrwt>
<totfact> 0.93778891E+00</totfact>
</mgrwt>
</event>
<event>
 4    1  0.6912310E-008  0.4553393E+03  0.7818608E-02  0.1026142E+00
          2   -1    0    0  501    0  0.00000000000E+00  0.00000000000E+00  0.25910283515E+03  0.25910283516E+03  0.25500000000E-02 0. -1.
         -2   -1    0    0    0  501 -0.00000000000E+00 -0.00000000000E+00 -0.12267289664E+04  0.12267289664E+04  0.25500000000E-02 0.  1.
    8880022    1    1    2    0    0 -0.10085710519E+03 -0.41685739906E+03 -0.92187950196E+03  0.10282002315E+04  0.15294330000E+03 0.  1.
    8880022    1    1    2    0    0  0.10085710519E+03  0.41685739906E+03 -0.45746629250E+02  0.45763157007E+03  0.15294330000E+03 0.  0.
<mgrwt>
<rscale>  0 0.45533932E+03</rscale>
<asrwt>0</asrwt>
<pdfrwt beam="1">  1        2 0.39861975E-01 0.45533932E+03</pdfrwt>
<pdfrwt beam="2">  1       -2 0.18872753E+00 0.45533932E+03</pdfrwt>
<totfact> 0.21378832E+01</totfact>
</mgrwt>
</event>
<event>
 4    1  0.6912310E-008  0.6611989E+03  0.7818608E-02  0.9785989E-01
          2   -1    0    0  501    0  0.00000000000E+00  0.00000000000E+00  0.20044417049E+04  0.20044417049E+04  0.25500000000E-02 0. -1.
         -2   -1    0    0    0  501 -0.00000000000E+00 -0.00000000000E+00 -0.34420283012E+03  0.34420283012E+03  0.25500000000E-02 0.  1.
    8880022    1    1    2    0    0 -0.55787760825E+03 -0.32025747743E+03  0.11934886224E+03  0.67188397925E+03  0.15294330000E+03 0.  0.
    8880022    1    1    2    0    0  0.55787760825E+03  0.32025747743E+03  0.15408900125E+04  0.16767605558E+04  0.15294330000E+03 0.  0.
<mgrwt>
<rscale>  0 0.66119886E+03</rscale>
<asrwt>0</asrwt>
<pdfrwt beam="1">  1        2 0.30837565E+00 0.66119886E+03</pdfrwt>
<pdfrwt beam="2">  1       -2 0.52954281E-01 0.66119886E+03</pdfrwt>
<totfact> 0.23394053E+01</totfact>
</mgrwt>
</event>
<event>
 4    1  0.6912310E-008  0.4835025E+03  0.7818608E-02  0.1018177E+00
         -2   -1    0    0    0  501 -0.00000000000E+00  0.00000000000E+00  0.10799504144E+04  0.10799504144E+04  0.25500000000E-02 0.  1.
          2   -1    0    0  501    0  0.00000000000E+00 -0.00000000000E+00 -0.27715576631E+04  0.27715576631E+04  0.25500000000E-02 0. -1.
    8880022    1    1    2    0    0 -0.39189423788E+03 -0.23833150898E+03  0.10032177628E+04  0.11136518911E+04  0.15294330000E+03 0.  0.
    8880022    1    1    2    0    0  0.39189423788E+03  0.23833150898E+03 -0.26948250115E+04  0.27378561864E+04  0.15294330000E+03 0. -1.
<mgrwt>
<rscale>  0 0.48350249E+03</rscale>
<asrwt>0</asrwt>
<pdfrwt beam="1">  1        2 0.42639349E+00 0.48350249E+03</pdfrwt>
<pdfrwt beam="2">  1       -2 0.16614622E+00 0.48350249E+03</pdfrwt>
<totfact> 0.62792574E-01</totfact>
</mgrwt>
</event>
<event>
 4    1  0.6912310E-008  0.6664166E+03  0.7818608E-02  0.9776453E-01
         -2   -1    0    0    0  501 -0.00000000000E+00  0.00000000000E+00  0.98481835676E+03  0.98481835677E+03  0.25500000000E-02 0.  1.
          2   -1    0    0  501    0  0.00000000000E+00 -0.00000000000E+00 -0.97493293786E+03  0.97493293786E+03  0.25500000000E-02 0. -1.
    8880022    1    1    2    0    0 -0.27450770291E+03  0.58767755160E+03 -0.71341231924E+03  0.97625210569E+03  0.15294330000E+03 0.  0.
    8880022    1    1    2    0    0  0.27450770291E+03 -0.58767755160E+03  0.72329773814E+03  0.98349918893E+03  0.15294330000E+03 0.  0.
<mgrwt>
<rscale>  0 0.66641656E+03</rscale>
<asrwt>0</asrwt>
<pdfrwt beam="1">  1        2 0.14998968E+00 0.66641656E+03</pdfrwt>
<pdfrwt beam="2">  1       -2 0.15151052E+00 0.66641656E+03</pdfrwt>
<totfact> 0.78541174E+00</totfact>
</mgrwt>
</event>
<event>
 4    1  0.6912310E-008  0.2372371E+03  0.7818608E-02  0.1121647E+00
         -2   -1    0    0    0  501 -0.00000000000E+00  0.00000000000E+00  0.25088919058E+02  0.25088919188E+02  0.25500000000E-02 0.  1.
          2   -1    0    0  501    0  0.00000000000E+00 -0.00000000000E+00 -0.27480953462E+04  0.27480953462E+04  0.25500000000E-02 0. -1.
    8880022    1    1    2    0    0  0.16314045394E+03  0.79214784457E+02 -0.19557948010E+04  0.19701306420E+04  0.15294330000E+03 0.  0.
    8880022    1    1    2    0    0 -0.16314045394E+03 -0.79214784457E+02 -0.76721162614E+03  0.80305362342E+03  0.15294330000E+03 0.  0.
<mgrwt>
<rscale>  0 0.23723710E+03</rscale>
<asrwt>0</asrwt>
<pdfrwt beam="1">  1        2 0.42278366E+00 0.23723710E+03</pdfrwt>
<pdfrwt beam="2">  1       -2 0.38598359E-02 0.23723710E+03</pdfrwt>
<totfact> 0.85139935E+02</totfact>
</mgrwt>
</event>
<event>
 4    1  0.6912310E-008  0.7100646E+03  0.7818608E-02  0.9700174E-01
          2   -1    0    0  501    0  0.00000000000E+00  0.00000000000E+00  0.24069680579E+04  0.24069680579E+04  0.25500000000E-02 0. -1.
         -2   -1    0    0    0  501 -0.00000000000E+00 -0.00000000000E+00 -0.38431427738E+03  0.38431427738E+03  0.25500000000E-02 0.  1.
    8880022    1    1    2    0    0  0.29255338461E+03 -0.62865938402E+03  0.69970493979E+02  0.71350376804E+03  0.15294330000E+03 0.  0.
    8880022    1    1    2    0    0 -0.29255338461E+03  0.62865938402E+03  0.19526832866E+04  0.20777785673E+04  0.15294330000E+03 0.  0.
<mgrwt>
<rscale>  0 0.71006461E+03</rscale>
<asrwt>0</asrwt>
<pdfrwt beam="1">  1        2 0.37030278E+00 0.71006461E+03</pdfrwt>
<pdfrwt beam="2">  1       -2 0.59125273E-01 0.71006461E+03</pdfrwt>
<totfact> 0.11077807E+01</totfact>
</mgrwt>
</event>
<event>
 4    1  0.6912310E-008  0.2638269E+03  0.7818608E-02  0.1104866E+00
          2   -1    0    0  501    0  0.00000000000E+00  0.00000000000E+00  0.13234494164E+04  0.13234494164E+04  0.25500000000E-02 0. -1.
         -2   -1    0    0    0  501 -0.00000000000E+00 -0.00000000000E+00 -0.60356650356E+02  0.60356650410E+02  0.25500000000E-02 0.  1.
    8880022    1    1    2    0    0 -0.76637425676E+01 -0.21483539593E+03  0.38340112983E+03  0.46540418957E+03  0.15294330000E+03 0.  0.
    8880022    1    1    2    0    0  0.76637425676E+01  0.21483539593E+03  0.87969163620E+03  0.91840187724E+03  0.15294330000E+03 0.  0.
<mgrwt>
<rscale>  0 0.26382690E+03</rscale>
<asrwt>0</asrwt>
<pdfrwt beam="1">  1        2 0.20360758E+00 0.26382690E+03</pdfrwt>
<pdfrwt beam="2">  1       -2 0.92856394E-02 0.26382690E+03</pdfrwt>
<totfact> 0.12736877E+03</totfact>
</mgrwt>
</event>
<event>
 4    1  0.6912310E-008  0.6259549E+03  0.7818608E-02  0.9852974E-01
          2   -1    0    0  501    0  0.00000000000E+00  0.00000000000E+00  0.16397401046E+04  0.16397401046E+04  0.25500000000E-02 0. -1.
         -2   -1    0    0    0  501 -0.00000000000E+00 -0.00000000000E+00 -0.47437808829E+03  0.47437808830E+03  0.25500000000E-02 0.  1.
    8880022    1    1    2    0    0 -0.59131764117E+03  0.13700869391E+03 -0.16198926950E+03  0.64657568112E+03  0.15294330000E+03 0.  0.
    8880022    1    1    2    0    0  0.59131764117E+03 -0.13700869391E+03  0.13273512858E+04  0.14675425118E+04  0.15294330000E+03 0.  0.
<mgrwt>
<rscale>  0 0.62595494E+03</rscale>
<asrwt>0</asrwt>
<pdfrwt beam="1">  1        2 0.25226771E+00 0.62595494E+03</pdfrwt>
<pdfrwt beam="2">  1       -2 0.72981243E-01 0.62595494E+03</pdfrwt>
<totfact> 0.18777539E+01</totfact>
</mgrwt>
</event>
<event>
 4    1  0.6912310E-008  0.8017238E+03  0.7818608E-02  0.9557525E-01
          2   -1    0    0  501    0  0.00000000000E+00  0.00000000000E+00  0.19020672457E+04  0.19020672457E+04  0.25500000000E-02 0. -1.
         -2   -1    0    0    0  501 -0.00000000000E+00 -0.00000000000E+00 -0.54070865523E+03  0.54070865523E+03  0.25500000000E-02 0.  1.
    8880022    1    1    2    0    0  0.76099857006E+03 -0.20062545068E+03 -0.67293226734E+02  0.80454299231E+03  0.15294330000E+03 0.  0.
    8880022    1    1    2    0    0 -0.76099857006E+03  0.20062545068E+03  0.14286518172E+04  0.16382329086E+04  0.15294330000E+03 0.  0.
<mgrwt>
<rscale>  0 0.80172380E+03</rscale>
<asrwt>0</asrwt>
<pdfrwt beam="1">  1        2 0.29262573E+00 0.80172380E+03</pdfrwt>
<pdfrwt beam="2">  1       -2 0.83185947E-01 0.80172380E+03</pdfrwt>
<totfact> 0.98279886E+00</totfact>
</mgrwt>
</event>
<event>
 4    1  0.6912310E-008  0.6142261E+03  0.7818608E-02  0.9876323E-01
         -2   -1    0    0    0  501 -0.00000000000E+00  0.00000000000E+00  0.12351100174E+03  0.12351100177E+03  0.25500000000E-02 0.  1.
          2   -1    0    0  501    0  0.00000000000E+00 -0.00000000000E+00 -0.30892091093E+04  0.30892091093E+04  0.25500000000E-02 0. -1.
    8880022    1    1    2    0    0  0.59022209984E+03 -0.74295969900E+02 -0.16529350501E+04  0.17633683538E+04  0.15294330000E+03 0. -1.
    8880022    1    1    2    0    0 -0.59022209984E+03  0.74295969900E+02 -0.13127630574E+04  0.14493517572E+04  0.15294330000E+03 0.  1.
<mgrwt>
<rscale>  0 0.61422608E+03</rscale>
<asrwt>0</asrwt>
<pdfrwt beam="1">  1        2 0.47526288E+00 0.61422608E+03</pdfrwt>
<pdfrwt beam="2">  1       -2 0.19001695E-01 0.61422608E+03</pdfrwt>
<totfact> 0.38685488E+01</totfact>
</mgrwt>
</event>
<event>
 4    1  0.6912310E-008  0.4457038E+03  0.7818608E-02  0.1029011E+00
         -2   -1    0    0    0  501 -0.00000000000E+00  0.00000000000E+00  0.83420383501E+02  0.83420383540E+02  0.25500000000E-02 0.  1.
          2   -1    0    0  501    0  0.00000000000E+00 -0.00000000000E+00 -0.23969173870E+04  0.23969173870E+04  0.25500000000E-02 0. -1.
    8880022    1    1    2    0    0  0.39434445631E+03  0.14054409015E+03 -0.12567432178E+04  0.13334374226E+04  0.15294330000E+03 0.  0.
    8880022    1    1    2    0    0 -0.39434445631E+03 -0.14054409015E+03 -0.10567537857E+04  0.11469003480E+04  0.15294330000E+03 0.  0.
<mgrwt>
<rscale>  0 0.44570376E+03</rscale>
<asrwt>0</asrwt>
<pdfrwt beam="1">  1        2 0.36875647E+00 0.44570376E+03</pdfrwt>
<pdfrwt beam="2">  1       -2 0.12833907E-01 0.44570376E+03</pdfrwt>
<totfact> 0.19551079E+02</totfact>
</mgrwt>
</event>
<event>
 4    1  0.6912310E-008  0.5099273E+03  0.7818608E-02  0.1011220E+00
         -2   -1    0    0    0  501 -0.00000000000E+00  0.00000000000E+00  0.24933043086E+03  0.24933043087E+03  0.25500000000E-02 0.  1.
          2   -1    0    0  501    0  0.00000000000E+00 -0.00000000000E+00 -0.18419093252E+04  0.18419093252E+04  0.25500000000E-02 0. -1.
    8880022    1    1    2    0    0  0.25299466746E+03  0.41548513816E+03 -0.10761089182E+03  0.52115828580E+03  0.15294330000E+03 0.  0.
    8880022    1    1    2    0    0 -0.25299466746E+03 -0.41548513816E+03 -0.14849680025E+04  0.15700814703E+04  0.15294330000E+03 0.  0.
<mgrwt>
<rscale>  0 0.50992730E+03</rscale>
<asrwt>0</asrwt>
<pdfrwt beam="1">  1        2 0.28337066E+00 0.50992730E+03</pdfrwt>
<pdfrwt beam="2">  1       -2 0.38358529E-01 0.50992730E+03</pdfrwt>
<totfact> 0.55707771E+01</totfact>
</mgrwt>
</event>
<event>
 4    1  0.6912310E-008  0.3374474E+03  0.7818608E-02  0.1067888E+00
         -2   -1    0    0    0  501 -0.00000000000E+00  0.00000000000E+00  0.74748485999E+03  0.74748486000E+03  0.25500000000E-02 0.  1.
          2   -1    0    0  501    0  0.00000000000E+00 -0.00000000000E+00 -0.10036460052E+04  0.10036460052E+04  0.25500000000E-02 0. -1.
    8880022    1    1    2    0    0  0.27493272181E+03  0.12202909673E+03  0.67830276821E+03  0.75760504245E+03  0.15294330000E+03 0.  0.
    8880022    1    1    2    0    0 -0.27493272181E+03 -0.12202909673E+03 -0.93446391341E+03  0.99352582274E+03  0.15294330000E+03 0. -1.
<mgrwt>
<rscale>  0 0.33744741E+03</rscale>
<asrwt>0</asrwt>
<pdfrwt beam="1">  1        2 0.15440708E+00 0.33744741E+03</pdfrwt>
<pdfrwt beam="2">  1       -2 0.11499767E+00 0.33744741E+03</pdfrwt>
<totfact> 0.16058966E+01</totfact>
</mgrwt>
</event>
<event>
 4    1  0.6912310E-008  0.1596971E+03  0.7818608E-02  0.1189039E+00
         -2   -1    0    0    0  501 -0.00000000000E+00  0.00000000000E+00  0.17851879630E+03  0.17851879632E+03  0.25500000000E-02 0.  1.
          2   -1    0    0  501    0  0.00000000000E+00 -0.00000000000E+00 -0.46018410325E+03  0.46018410325E+03  0.25500000000E-02 0. -1.
    8880022    1    1    2    0    0 -0.44800417047E+02  0.10219110203E+02  0.12435588483E+03  0.20240441371E+03  0.15294330000E+03 0.  1.
    8880022    1    1    2    0    0  0.44800417047E+02 -0.10219110203E+02 -0.40602119178E+03  0.43629848587E+03  0.15294330000E+03 0.  0.
<mgrwt>
<rscale>  0 0.15969709E+03</rscale>
<asrwt>0</asrwt>
<pdfrwt beam="1">  1        2 0.70797554E-01 0.15969709E+03</pdfrwt>
<pdfrwt beam="2">  1       -2 0.27464430E-01 0.15969709E+03</pdfrwt>
<totfact> 0.82076117E+02</totfact>
</mgrwt>
</event>
<event>
 4    1  0.6912310E-008  0.2730240E+03  0.7818608E-02  0.1099561E+00
          2   -1    0    0  501    0  0.00000000000E+00  0.00000000000E+00  0.32043505756E+04  0.32043505756E+04  0.25500000000E-02 0. -1.
         -2   -1    0    0    0  501 -0.00000000000E+00 -0.00000000000E+00 -0.33108026876E+02  0.33108026974E+02  0.25500000000E-02 0.  1.
    8880022    1    1    2    0    0 -0.20712281506E+01  0.22615516067E+03  0.24683370819E+04  0.24833908371E+04  0.15294330000E+03 0.  0.
    8880022    1    1    2    0    0  0.20712281506E+01 -0.22615516067E+03  0.70290546681E+03  0.75406776550E+03  0.15294330000E+03 0.  0.
<mgrwt>
<rscale>  0 0.27302399E+03</rscale>
<asrwt>0</asrwt>
<pdfrwt beam="1">  1        2 0.49297722E+00 0.27302399E+03</pdfrwt>
<pdfrwt beam="2">  1       -2 0.50935405E-02 0.27302399E+03</pdfrwt>
<totfact> 0.29824960E+02</totfact>
</mgrwt>
</event>
<event>
 4    1  0.6912310E-008  0.5157390E+03  0.7818608E-02  0.1009751E+00
         -2   -1    0    0    0  501 -0.00000000000E+00  0.00000000000E+00  0.17724264385E+04  0.17724264385E+04  0.25500000000E-02 0.  1.
          2   -1    0    0  501    0  0.00000000000E+00 -0.00000000000E+00 -0.17223733329E+03  0.17223733331E+03  0.25500000000E-02 0. -1.
    8880022    1    1    2    0    0 -0.21316852407E+03 -0.44402051504E+03  0.11489255274E+04  0.12593714932E+04  0.15294330000E+03 0.  0.
    8880022    1    1    2    0    0  0.21316852407E+03  0.44402051504E+03  0.45126357785E+03  0.68529227862E+03  0.15294330000E+03 0.  0.
<mgrwt>
<rscale>  0 0.51573898E+03</rscale>
<asrwt>0</asrwt>
<pdfrwt beam="1">  1        2 0.26498050E-01 0.51573898E+03</pdfrwt>
<pdfrwt beam="2">  1       -2 0.27268101E+00 0.51573898E+03</pdfrwt>
<totfact> 0.10165172E+01</totfact>
</mgrwt>
</event>
<event>
 4    1  0.6912310E-008  0.2633335E+03  0.7818608E-02  0.1105157E+00
         -2   -1    0    0    0  501 -0.00000000000E+00  0.00000000000E+00  0.85237969536E+02  0.85237969574E+02  0.25500000000E-02 0.  1.
          2   -1    0    0  501    0  0.00000000000E+00 -0.00000000000E+00 -0.10632761242E+04  0.10632761242E+04  0.25500000000E-02 0. -1.
    8880022    1    1    2    0    0 -0.22139463355E+02  0.21321989486E+03 -0.76732575854E+03  0.81125418466E+03  0.15294330000E+03 0. -1.
    8880022    1    1    2    0    0  0.22139463355E+02 -0.21321989486E+03 -0.21071239614E+03  0.33725990913E+03  0.15294330000E+03 0.  0.
<mgrwt>
<rscale>  0 0.26333350E+03</rscale>
<asrwt>0</asrwt>
<pdfrwt beam="1">  1        2 0.16358093E+00 0.26333350E+03</pdfrwt>
<pdfrwt beam="2">  1       -2 0.13113534E-01 0.26333350E+03</pdfrwt>
<totfact> 0.10294443E+03</totfact>
</mgrwt>
</event>
<event>
 4    1  0.6912310E-008  0.9301291E+03  0.7818608E-02  0.9388683E-01
          2   -1    0    0  501    0  0.00000000000E+00  0.00000000000E+00  0.40554561171E+04  0.40554561171E+04  0.25500000000E-02 0. -1.
         -2   -1    0    0    0  501 -0.00000000000E+00 -0.00000000000E+00 -0.25638184647E+03  0.25638184648E+03  0.25500000000E-02 0.  1.
    8880022    1    1    2    0    0 -0.91333302676E+03  0.87012851549E+02  0.10160554320E+04  0.13775009068E+04  0.15294330000E+03 0.  0.
    8880022    1    1    2    0    0  0.91333302676E+03 -0.87012851549E+02  0.27830188385E+04  0.29343370568E+04  0.15294330000E+03 0.  0.
<mgrwt>
<rscale>  0 0.93012908E+03</rscale>
<asrwt>0</asrwt>
<pdfrwt beam="1">  1        2 0.62391630E+00 0.93012908E+03</pdfrwt>
<pdfrwt beam="2">  1       -2 0.39443362E-01 0.93012908E+03</pdfrwt>
<totfact> 0.20054260E+00</totfact>
</mgrwt>
</event>
<event>
 4    1  0.6912310E-008  0.1049819E+04  0.7818608E-02  0.9255531E-01
          2   -1    0    0  501    0  0.00000000000E+00  0.00000000000E+00  0.20479080372E+04  0.20479080372E+04  0.25500000000E-02 0. -1.
         -2   -1    0    0    0  501 -0.00000000000E+00 -0.00000000000E+00 -0.96390309455E+03  0.96390309456E+03  0.25500000000E-02 0.  1.
    8880022    1    1    2    0    0 -0.90012082494E+03  0.51817990706E+03  0.15428099200E+04  0.18661141492E+04  0.15294330000E+03 0.  0.
    8880022    1    1    2    0    0  0.90012082494E+03 -0.51817990706E+03 -0.45880497736E+03  0.11456969826E+04  0.15294330000E+03 0.  0.
<mgrwt>
<rscale>  0 0.10498188E+04</rscale>
<asrwt>0</asrwt>
<pdfrwt beam="1">  1        2 0.31506277E+00 0.10498188E+04</pdfrwt>
<pdfrwt beam="2">  1       -2 0.14829279E+00 0.10498188E+04</pdfrwt>
<totfact> 0.19243439E+00</totfact>
</mgrwt>
</event>
<event>
 4    1  0.6912310E-008  0.3411720E+03  0.7818608E-02  0.1066298E+00
         -2   -1    0    0    0  501 -0.00000000000E+00  0.00000000000E+00  0.58112237387E+03  0.58112237387E+03  0.25500000000E-02 0.  1.
          2   -1    0    0  501    0  0.00000000000E+00 -0.00000000000E+00 -0.46483157730E+03  0.46483157731E+03  0.25500000000E-02 0. -1.
    8880022    1    1    2    0    0 -0.14450737073E+03 -0.26855967383E+03 -0.33637929981E+03  0.47911310247E+03  0.15294330000E+03 0. -1.
    8880022    1    1    2    0    0  0.14450737073E+03  0.26855967383E+03  0.45267009637E+03  0.56684084871E+03  0.15294330000E+03 0.  0.
<mgrwt>
<rscale>  0 0.34117200E+03</rscale>
<asrwt>0</asrwt>
<pdfrwt beam="1">  1        2 0.71512550E-01 0.34117200E+03</pdfrwt>
<pdfrwt beam="2">  1       -2 0.89403443E-01 0.34117200E+03</pdfrwt>
<totfact> 0.75168180E+01</totfact>
</mgrwt>
</event>
<event>
 4    1  0.6912310E-008  0.3663189E+03  0.7818608E-02  0.1056109E+00
          2   -1    0    0  501    0  0.00000000000E+00  0.00000000000E+00  0.32696319302E+04  0.32696319302E+04  0.25500000000E-02 0. -1.
         -2   -1    0    0    0  501 -0.00000000000E+00 -0.00000000000E+00 -0.13400881826E+03  0.13400881829E+03  0.25500000000E-02 0.  1.
    8880022    1    1    2    0    0 -0.25602720590E+03 -0.21271573708E+03  0.15034468225E+03  0.39597107402E+03  0.15294330000E+03 0.  0.
    8880022    1    1    2    0    0  0.25602720590E+03  0.21271573708E+03  0.29852784296E+04  0.30076696744E+04  0.15294330000E+03 0. -1.
<mgrwt>
<rscale>  0 0.36631894E+03</rscale>
<asrwt>0</asrwt>
<pdfrwt beam="1">  1        2 0.50302026E+00 0.36631894E+03</pdfrwt>
<pdfrwt beam="2">  1       -2 0.20616743E-01 0.36631894E+03</pdfrwt>
<totfact> 0.27587643E+01</totfact>
</mgrwt>
</event>
<event>
 4    1  0.6912310E-008  0.4787637E+03  0.7818608E-02  0.1019475E+00
          2   -1    0    0  501    0  0.00000000000E+00  0.00000000000E+00  0.90708256358E+03  0.90708256358E+03  0.25500000000E-02 0. -1.
         -2   -1    0    0    0  501 -0.00000000000E+00 -0.00000000000E+00 -0.74496113866E+03  0.74496113867E+03  0.25500000000E-02 0.  1.
    8880022    1    1    2    0    0 -0.19847411601E+03 -0.40795959491E+03 -0.59040676981E+03  0.76012815542E+03  0.15294330000E+03 0.  0.
    8880022    1    1    2    0    0  0.19847411601E+03  0.40795959491E+03  0.75252819472E+03  0.89191554683E+03  0.15294330000E+03 0.  0.
<mgrwt>
<rscale>  0 0.47876368E+03</rscale>
<asrwt>0</asrwt>
<pdfrwt beam="1">  1        2 0.13955116E+00 0.47876368E+03</pdfrwt>
<pdfrwt beam="2">  1       -2 0.11460941E+00 0.47876368E+03</pdfrwt>
<totfact> 0.18138837E+01</totfact>
</mgrwt>
</event>
<event>
 4    1  0.6912310E-008  0.8444214E+03  0.7818608E-02  0.9497855E-01
         -2   -1    0    0    0  501 -0.00000000000E+00  0.00000000000E+00  0.14280478627E+04  0.14280478627E+04  0.25500000000E-02 0.  1.
          2   -1    0    0  501    0  0.00000000000E+00 -0.00000000000E+00 -0.89759599162E+03  0.89759599162E+03  0.25500000000E-02 0. -1.
    8880022    1    1    2    0    0  0.67134323909E+03 -0.48882931464E+03  0.10398069920E+04  0.13394947096E+04  0.15294330000E+03 0.  0.
    8880022    1    1    2    0    0 -0.67134323909E+03  0.48882931464E+03 -0.50935512085E+03  0.98614914475E+03  0.15294330000E+03 0.  0.
<mgrwt>
<rscale>  0 0.84442140E+03</rscale>
<asrwt>0</asrwt>
<pdfrwt beam="1">  1        2 0.13809169E+00 0.84442140E+03</pdfrwt>
<pdfrwt beam="2">  1       -2 0.21969967E+00 0.84442140E+03</pdfrwt>
<totfact> 0.29590760E+00</totfact>
</mgrwt>
</event>
<event>
 4    1  0.6912310E-008  0.5145160E+03  0.7818608E-02  0.1010058E+00
          2   -1    0    0  501    0  0.00000000000E+00  0.00000000000E+00  0.14996649103E+04  0.14996649103E+04  0.25500000000E-02 0. -1.
         -2   -1    0    0    0  501 -0.00000000000E+00 -0.00000000000E+00 -0.32885542535E+03  0.32885542536E+03  0.25500000000E-02 0.  1.
    8880022    1    1    2    0    0  0.30222725025E+03 -0.38729026484E+03  0.12076508309E+04  0.13126870314E+04  0.15294330000E+03 0.  0.
    8880022    1    1    2    0    0 -0.30222725025E+03  0.38729026484E+03 -0.36841345915E+02  0.51583330429E+03  0.15294330000E+03 0.  0.
<mgrwt>
<rscale>  0 0.51451600E+03</rscale>
<asrwt>0</asrwt>
<pdfrwt beam="1">  1        2 0.23071768E+00 0.51451600E+03</pdfrwt>
<pdfrwt beam="2">  1       -2 0.50593142E-01 0.51451600E+03</pdfrwt>
<totfact> 0.49391756E+01</totfact>
</mgrwt>
</event>
<event>
 4    1  0.6912310E-008  0.1881964E+03  0.7818608E-02  0.1160098E+00
          2   -1    0    0  501    0  0.00000000000E+00  0.00000000000E+00  0.36344306700E+04  0.36344306700E+04  0.25500000000E-02 0. -1.
         -2   -1    0    0    0  501 -0.00000000000E+00 -0.00000000000E+00 -0.16233892860E+03  0.16233892862E+03  0.25500000000E-02 0.  1.
    8880022    1    1    2    0    0 -0.10740773928E+03  0.22131795620E+02  0.35765694866E+04  0.35815174416E+04  0.15294330000E+03 0.  0.
    8880022    1    1    2    0    0  0.10740773928E+03 -0.22131795620E+02 -0.10447774523E+03  0.21525215701E+03  0.15294330000E+03 0.  1.
<mgrwt>
<rscale>  0 0.18819642E+03</rscale>
<asrwt>0</asrwt>
<pdfrwt beam="1">  1        2 0.55914313E+00 0.18819642E+03</pdfrwt>
<pdfrwt beam="2">  1       -2 0.24975222E-01 0.18819642E+03</pdfrwt>
<totfact> 0.12531167E+01</totfact>
</mgrwt>
</event>
<event>
 4    1  0.6912310E-008  0.2228273E+03  0.7818608E-02  0.1131793E+00
          2   -1    0    0  501    0  0.00000000000E+00  0.00000000000E+00  0.27875149171E+04  0.27875149171E+04  0.25500000000E-02 0. -1.
         -2   -1    0    0    0  501 -0.00000000000E+00 -0.00000000000E+00 -0.52700661795E+02  0.52700661857E+02  0.25500000000E-02 0.  1.
    8880022    1    1    2    0    0  0.13229890342E+02 -0.16150949029E+03  0.21195040614E+03  0.30753044261E+03  0.15294330000E+03 0.  0.
    8880022    1    1    2    0    0 -0.13229890342E+02  0.16150949029E+03  0.25228638492E+04  0.25326851364E+04  0.15294330000E+03 0.  0.
<mgrwt>
<rscale>  0 0.22282728E+03</rscale>
<asrwt>0</asrwt>
<pdfrwt beam="1">  1        2 0.42884844E+00 0.22282728E+03</pdfrwt>
<pdfrwt beam="2">  1       -2 0.81077942E-02 0.22282728E+03</pdfrwt>
<totfact> 0.26064747E+02</totfact>
</mgrwt>
</event>
<event>
 4    1  0.6912310E-008  0.3927376E+03  0.7818608E-02  0.1046324E+00
          2   -1    0    0  501    0  0.00000000000E+00  0.00000000000E+00  0.77155291680E+03  0.77155291680E+03  0.25500000000E-02 0. -1.
         -2   -1    0    0    0  501 -0.00000000000E+00 -0.00000000000E+00 -0.23743936752E+03  0.23743936753E+03  0.25500000000E-02 0.  1.
    8880022    1    1    2    0    0  0.13844258348E+03  0.33419274059E+03  0.66491952223E+02  0.39832646097E+03  0.15294330000E+03 0.  0.
    8880022    1    1    2    0    0 -0.13844258348E+03 -0.33419274059E+03  0.46762159706E+03  0.61066582337E+03  0.15294330000E+03 0.  0.
<mgrwt>
<rscale>  0 0.39273756E+03</rscale>
<asrwt>0</asrwt>
<pdfrwt beam="1">  1        2 0.11870045E+00 0.39273756E+03</pdfrwt>
<pdfrwt beam="2">  1       -2 0.36529133E-01 0.39273756E+03</pdfrwt>
<totfact> 0.26259071E+02</totfact>
</mgrwt>
</event>
<event>
 4    1  0.6912310E-008  0.4414284E+03  0.7818608E-02  0.1030309E+00
          2   -1    0    0  501    0  0.00000000000E+00  0.00000000000E+00  0.27261447934E+04  0.27261447934E+04  0.25500000000E-02 0. -1.
         -2   -1    0    0    0  501 -0.00000000000E+00 -0.00000000000E+00 -0.35410886866E+03  0.35410886867E+03  0.25500000000E-02 0.  1.
    8880022    1    1    2    0    0 -0.40526569890E+03 -0.85012166780E+02 -0.18991725211E+03  0.48054923876E+03  0.15294330000E+03 0.  0.
    8880022    1    1    2    0    0  0.40526569890E+03  0.85012166780E+02  0.25619531768E+04  0.25997044233E+04  0.15294330000E+03 0.  0.
<mgrwt>
<rscale>  0 0.44142837E+03</rscale>
<asrwt>0</asrwt>
<pdfrwt beam="1">  1        2 0.41940690E+00 0.44142837E+03</pdfrwt>
<pdfrwt beam="2">  1       -2 0.54478286E-01 0.44142837E+03</pdfrwt>
<totfact> 0.92054045E+00</totfact>
</mgrwt>
</event>
<event>
 4    1  0.6912310E-008  0.6230392E+03  0.7818608E-02  0.9858727E-01
          2   -1    0    0  501    0  0.00000000000E+00  0.00000000000E+00  0.36150119330E+04  0.36150119330E+04  0.25500000000E-02 0. -1.
         -2   -1    0    0    0  501 -0.00000000000E+00 -0.00000000000E+00 -0.45924740749E+03  0.45924740749E+03  0.25500000000E-02 0.  1.
    8880022    1    1    2    0    0  0.60376955270E+03 -0.15762755415E+02 -0.20525679220E+03  0.65597876565E+03  0.15294330000E+03 0.  0.
    8880022    1    1    2    0    0 -0.60376955270E+03  0.15762755415E+02  0.33610213177E+04  0.34182805749E+04  0.15294330000E+03 0. -1.
<mgrwt>
<rscale>  0 0.62303916E+03</rscale>
<asrwt>0</asrwt>
<pdfrwt beam="1">  1        2 0.55615567E+00 0.62303916E+03</pdfrwt>
<pdfrwt beam="2">  1       -2 0.70653449E-01 0.62303916E+03</pdfrwt>
<totfact> 0.13859132E+00</totfact>
</mgrwt>
</event>
<event>
 4    1  0.6912310E-008  0.9952877E+03  0.7818608E-02  0.9313728E-01
          2   -1    0    0  501    0  0.00000000000E+00  0.00000000000E+00  0.19113595150E+04  0.19113595150E+04  0.25500000000E-02 0. -1.
         -2   -1    0    0    0  501 -0.00000000000E+00 -0.00000000000E+00 -0.64562818536E+03  0.64562818537E+03  0.25500000000E-02 0.  1.
    8880022    1    1    2    0    0 -0.30044002013E+03  0.93645172287E+03  0.12007019752E+04  0.15595778023E+04  0.15294330000E+03 0.  0.
    8880022    1    1    2    0    0  0.30044002013E+03 -0.93645172287E+03  0.65029354444E+02  0.99740989815E+03  0.15294330000E+03 0.  0.
<mgrwt>
<rscale>  0 0.99528774E+03</rscale>
<asrwt>0</asrwt>
<pdfrwt beam="1">  1        2 0.29405531E+00 0.99528774E+03</pdfrwt>
<pdfrwt beam="2">  1       -2 0.99327413E-01 0.99528774E+03</pdfrwt>
<totfact> 0.62813165E+00</totfact>
</mgrwt>
</event>
<event>
 4    1  0.6912310E-008  0.2891050E+03  0.7818608E-02  0.1090817E+00
          2   -1    0    0  501    0  0.00000000000E+00  0.00000000000E+00  0.15976259325E+04  0.15976259325E+04  0.25500000000E-02 0. -1.
         -2   -1    0    0    0  501 -0.00000000000E+00 -0.00000000000E+00 -0.22725616331E+03  0.22725616332E+03  0.25500000000E-02 0.  1.
    8880022    1    1    2    0    0 -0.62955990855E+02 -0.23712143552E+03  0.14857405227E+04  0.15136071439E+04  0.15294330000E+03 0.  0.
    8880022    1    1    2    0    0  0.62955990855E+02  0.23712143552E+03 -0.11537075352E+03  0.31127495201E+03  0.15294330000E+03 0.  0.
<mgrwt>
<rscale>  0 0.28910497E+03</rscale>
<asrwt>0</asrwt>
<pdfrwt beam="1">  1        2 0.24578860E+00 0.28910497E+03</pdfrwt>
<pdfrwt beam="2">  1       -2 0.34962487E-01 0.28910497E+03</pdfrwt>
<totfact> 0.93848711E+01</totfact>
</mgrwt>
</event>
<event>
 4    1  0.6912310E-008  0.2465568E+03  0.7818608E-02  0.1115500E+00
          2   -1    0    0  501    0  0.00000000000E+00  0.00000000000E+00  0.55309315321E+03  0.55309315322E+03  0.25500000000E-02 0. -1.
         -2   -1    0    0    0  501 -0.00000000000E+00 -0.00000000000E+00 -0.12342264649E+03  0.12342264652E+03  0.25500000000E-02 0.  1.
    8880022    1    1    2    0    0 -0.18768337022E+03  0.46621341070E+02  0.32676024707E+03  0.40934399835E+03  0.15294330000E+03 0. -1.
    8880022    1    1    2    0    0  0.18768337022E+03 -0.46621341070E+02  0.10291025965E+03  0.26717180139E+03  0.15294330000E+03 0.  0.
<mgrwt>
<rscale>  0 0.24655679E+03</rscale>
<asrwt>0</asrwt>
<pdfrwt beam="1">  1        2 0.85091252E-01 0.24655679E+03</pdfrwt>
<pdfrwt beam="2">  1       -2 0.18988100E-01 0.24655679E+03</pdfrwt>
<totfact> 0.12746450E+03</totfact>
</mgrwt>
</event>
<event>
 4    1  0.6912310E-008  0.5635232E+03  0.7818608E-02  0.9984114E-01
         -2   -1    0    0    0  501 -0.00000000000E+00  0.00000000000E+00  0.19405838878E+03  0.19405838880E+03  0.25500000000E-02 0.  1.
          2   -1    0    0  501    0  0.00000000000E+00 -0.00000000000E+00 -0.35158048805E+04  0.35158048805E+04  0.25500000000E-02 0. -1.
    8880022    1    1    2    0    0  0.46984053631E+03  0.27095506396E+03 -0.30466950644E+03  0.64061059734E+03  0.15294330000E+03 0.  0.
    8880022    1    1    2    0    0 -0.46984053631E+03 -0.27095506396E+03 -0.30170769852E+04  0.30692526719E+04  0.15294330000E+03 0.  0.
<mgrwt>
<rscale>  0 0.56352323E+03</rscale>
<asrwt>0</asrwt>
<pdfrwt beam="1">  1        2 0.54089301E+00 0.56352323E+03</pdfrwt>
<pdfrwt beam="2">  1       -2 0.29855139E-01 0.56352323E+03</pdfrwt>
<totfact> 0.92434733E+00</totfact>
</mgrwt>
</event>
<event>
 4    1  0.6912310E-008  0.3026441E+03  0.7818608E-02  0.1083926E+00
          2   -1    0    0  501    0  0.00000000000E+00  0.00000000000E+00  0.23083633439E+04  0.23083633439E+04  0.25500000000E-02 0. -1.
         -2   -1    0    0    0  501 -0.00000000000E+00 -0.00000000000E+00 -0.71309762283E+02  0.71309762329E+02  0.25500000000E-02 0.  1.
    8880022    1    1    2    0    0 -0.10712188457E+03 -0.23817363569E+03  0.19109697121E+04  0.19347864669E+04  0.15294330000E+03 0.  0.
    8880022    1    1    2    0    0  0.10712188457E+03  0.23817363569E+03  0.32608386954E+03  0.44488663936E+03  0.15294330000E+03 0.  0.
<mgrwt>
<rscale>  0 0.30264407E+03</rscale>
<asrwt>0</asrwt>
<pdfrwt beam="1">  1        2 0.35513282E+00 0.30264407E+03</pdfrwt>
<pdfrwt beam="2">  1       -2 0.10970733E-01 0.30264407E+03</pdfrwt>
<totfact> 0.28997427E+02</totfact>
</mgrwt>
</event>
<event>
 4    1  0.6912310E-008  0.1045800E+04  0.7818608E-02  0.9259691E-01
         -2   -1    0    0    0  501 -0.00000000000E+00  0.00000000000E+00  0.17014045657E+04  0.17014045657E+04  0.25500000000E-02 0.  1.
          2   -1    0    0  501    0  0.00000000000E+00 -0.00000000000E+00 -0.12034559779E+04  0.12034559779E+04  0.25500000000E-02 0. -1.
    8880022    1    1    2    0    0 -0.92153297307E+03 -0.47019427337E+03  0.12403095883E+04  0.16223640784E+04  0.15294330000E+03 0.  0.
    8880022    1    1    2    0    0  0.92153297307E+03  0.47019427337E+03 -0.74236100053E+03  0.12824964652E+04  0.15294330000E+03 0.  0.
<mgrwt>
<rscale>  0 0.10457999E+04</rscale>
<asrwt>0</asrwt>
<pdfrwt beam="1">  1        2 0.18514707E+00 0.10457999E+04</pdfrwt>
<pdfrwt beam="2">  1       -2 0.26175455E+00 0.10457999E+04</pdfrwt>
<totfact> 0.10180125E+00</totfact>
</mgrwt>
</event>
<event>
 4    1  0.6912310E-008  0.2181104E+03  0.7818608E-02  0.1135300E+00
         -2   -1    0    0    0  501 -0.00000000000E+00  0.00000000000E+00  0.29565542273E+03  0.29565542274E+03  0.25500000000E-02 0.  1.
          2   -1    0    0  501    0  0.00000000000E+00 -0.00000000000E+00 -0.87073674623E+03  0.87073674623E+03  0.25500000000E-02 0. -1.
    8880022    1    1    2    0    0  0.13938771363E+03 -0.68931674413E+02 -0.81410222503E+03  0.84281350028E+03  0.15294330000E+03 0.  0.
    8880022    1    1    2    0    0 -0.13938771363E+03  0.68931674413E+02  0.23902090153E+03  0.32357866869E+03  0.15294330000E+03 0.  0.
<mgrwt>
<rscale>  0 0.21811044E+03</rscale>
<asrwt>0</asrwt>
<pdfrwt beam="1">  1        2 0.13395950E+00 0.21811044E+03</pdfrwt>
<pdfrwt beam="2">  1       -2 0.45485450E-01 0.21811044E+03</pdfrwt>
<totfact> 0.15031907E+02</totfact>
</mgrwt>
</event>
<event>
 4    1  0.6912310E-008  0.5022042E+03  0.7818608E-02  0.1013205E+00
         -2   -1    0    0    0  501 -0.00000000000E+00  0.00000000000E+00  0.10545780230E+04  0.10545780230E+04  0.25500000000E-02 0.  1.
          2   -1    0    0  501    0  0.00000000000E+00 -0.00000000000E+00 -0.83914257538E+03  0.83914257539E+03  0.25500000000E-02 0. -1.
    8880022    1    1    2    0    0 -0.43437395112E+03 -0.20034129829E+03 -0.69292483841E+03  0.85577675238E+03  0.15294330000E+03 0.  0.
    8880022    1    1    2    0    0  0.43437395112E+03  0.20034129829E+03  0.90836028605E+03  0.10379438460E+04  0.15294330000E+03 0.  0.
<mgrwt>
<rscale>  0 0.50220416E+03</rscale>
<asrwt>0</asrwt>
<pdfrwt beam="1">  1        2 0.12909886E+00 0.50220416E+03</pdfrwt>
<pdfrwt beam="2">  1       -2 0.16224277E+00 0.50220416E+03</pdfrwt>
<totfact> 0.82650332E+00</totfact>
</mgrwt>
</event>
<event>
 4    1  0.6912310E-008  0.6953105E+03  0.7818608E-02  0.9725286E-01
          2   -1    0    0  501    0  0.00000000000E+00  0.00000000000E+00  0.18742874472E+04  0.18742874472E+04  0.25500000000E-02 0. -1.
         -2   -1    0    0    0  501 -0.00000000000E+00 -0.00000000000E+00 -0.34082640705E+03  0.34082640706E+03  0.25500000000E-02 0.  1.
    8880022    1    1    2    0    0  0.39088458198E+02  0.67715373942E+03  0.13129118403E+04  0.14856628984E+04  0.15294330000E+03 0.  0.
    8880022    1    1    2    0    0 -0.39088458198E+02 -0.67715373942E+03  0.22054919986E+03  0.72945095582E+03  0.15294330000E+03 0.  0.
<mgrwt>
<rscale>  0 0.69531054E+03</rscale>
<asrwt>0</asrwt>
<pdfrwt beam="1">  1        2 0.28835191E+00 0.69531054E+03</pdfrwt>
<pdfrwt beam="2">  1       -2 0.52434833E-01 0.69531054E+03</pdfrwt>
<totfact> 0.27954229E+01</totfact>
</mgrwt>
</event>
<event>
 4    1  0.6912310E-008  0.3423481E+03  0.7818608E-02  0.1065800E+00
          2   -1    0    0  501    0  0.00000000000E+00  0.00000000000E+00  0.71866018141E+03  0.71866018141E+03  0.25500000000E-02 0. -1.
         -2   -1    0    0    0  501 -0.00000000000E+00 -0.00000000000E+00 -0.10231351206E+04  0.10231351206E+04  0.25500000000E-02 0.  1.
    8880022    1    1    2    0    0 -0.38867059121E+02  0.30380900345E+03 -0.95071495215E+03  0.10104756960E+04  0.15294330000E+03 0.  0.
    8880022    1    1    2    0    0  0.38867059121E+02 -0.30380900345E+03  0.64624001295E+03  0.73131960607E+03  0.15294330000E+03 0.  0.
<mgrwt>
<rscale>  0 0.34234809E+03</rscale>
<asrwt>0</asrwt>
<pdfrwt beam="1">  1        2 0.11056310E+00 0.34234809E+03</pdfrwt>
<pdfrwt beam="2">  1       -2 0.15740540E+00 0.34234809E+03</pdfrwt>
<totfact> 0.11308522E+01</totfact>
</mgrwt>
</event>
<event>
 4    1  0.6912310E-008  0.1858068E+03  0.7818608E-02  0.1162299E+00
          2   -1    0    0  501    0  0.00000000000E+00  0.00000000000E+00  0.84469536766E+03  0.84469536767E+03  0.25500000000E-02 0. -1.
         -2   -1    0    0    0  501 -0.00000000000E+00 -0.00000000000E+00 -0.19170911103E+03  0.19170911105E+03  0.25500000000E-02 0.  1.
    8880022    1    1    2    0    0  0.10519001380E+03 -0.82214815172E+01 -0.13316226457E+03  0.22859652990E+03  0.15294330000E+03 0.  0.
    8880022    1    1    2    0    0 -0.10519001380E+03  0.82214815172E+01  0.78614852120E+03  0.80780794882E+03  0.15294330000E+03 0. -1.
<mgrwt>
<rscale>  0 0.18580685E+03</rscale>
<asrwt>0</asrwt>
<pdfrwt beam="1">  1        2 0.12995313E+00 0.18580685E+03</pdfrwt>
<pdfrwt beam="2">  1       -2 0.29493709E-01 0.18580685E+03</pdfrwt>
<totfact> 0.35461779E+02</totfact>
</mgrwt>
</event>
<event>
 4    1  0.6912310E-008  0.1021353E+04  0.7818608E-02  0.9285431E-01
          2   -1    0    0  501    0  0.00000000000E+00  0.00000000000E+00  0.22272149667E+04  0.22272149667E+04  0.25500000000E-02 0. -1.
         -2   -1    0    0    0  501 -0.00000000000E+00 -0.00000000000E+00 -0.53661942440E+03  0.53661942441E+03  0.25500000000E-02 0.  1.
    8880022    1    1    2    0    0 -0.94027683217E+03 -0.36830620012E+03  0.35246797688E+03  0.10804606915E+04  0.15294330000E+03 0.  0.
    8880022    1    1    2    0    0  0.94027683217E+03  0.36830620012E+03  0.13381275654E+04  0.16833736996E+04  0.15294330000E+03 0.  0.
<mgrwt>
<rscale>  0 0.10213528E+04</rscale>
<asrwt>0</asrwt>
<pdfrwt beam="1">  1        2 0.34264845E+00 0.10213528E+04</pdfrwt>
<pdfrwt beam="2">  1       -2 0.82556835E-01 0.10213528E+04</pdfrwt>
<totfact> 0.64344898E+00</totfact>
</mgrwt>
</event>
<event>
 4    1  0.6912310E-008  0.4415475E+03  0.7818608E-02  0.1030273E+00
         -2   -1    0    0    0  501 -0.00000000000E+00  0.00000000000E+00  0.72813106166E+03  0.72813106166E+03  0.25500000000E-02 0.  1.
          2   -1    0    0  501    0  0.00000000000E+00 -0.00000000000E+00 -0.11132052306E+04  0.11132052306E+04  0.25500000000E-02 0. -1.
    8880022    1    1    2    0    0  0.39367013964E+03 -0.12882691995E+03  0.60980264194E+03  0.75287679555E+03  0.15294330000E+03 0.  0.
    8880022    1    1    2    0    0 -0.39367013964E+03  0.12882691995E+03 -0.99487681084E+03  0.10884594967E+04  0.15294330000E+03 0.  0.
<mgrwt>
<rscale>  0 0.44154751E+03</rscale>
<asrwt>0</asrwt>
<pdfrwt beam="1">  1        2 0.17126234E+00 0.44154751E+03</pdfrwt>
<pdfrwt beam="2">  1       -2 0.11202016E+00 0.44154751E+03</pdfrwt>
<totfact> 0.14339258E+01</totfact>
</mgrwt>
</event>
<event>
 4    1  0.6912310E-008  0.4051733E+03  0.7818608E-02  0.1042003E+00
          2   -1    0    0  501    0  0.00000000000E+00  0.00000000000E+00  0.18397923065E+04  0.18397923065E+04  0.25500000000E-02 0. -1.
         -2   -1    0    0    0  501 -0.00000000000E+00 -0.00000000000E+00 -0.38418225371E+03  0.38418225372E+03  0.25500000000E-02 0.  1.
    8880022    1    1    2    0    0 -0.21898847113E+01  0.37519185442E+03  0.17021365306E+04  0.17496954435E+04  0.15294330000E+03 0.  0.
    8880022    1    1    2    0    0  0.21898847113E+01 -0.37519185442E+03 -0.24652647785E+03  0.47427911668E+03  0.15294330000E+03 0.  1.
<mgrwt>
<rscale>  0 0.40517327E+03</rscale>
<asrwt>0</asrwt>
<pdfrwt beam="1">  1        2 0.28304497E+00 0.40517327E+03</pdfrwt>
<pdfrwt beam="2">  1       -2 0.59104961E-01 0.40517327E+03</pdfrwt>
<totfact> 0.24014689E+01</totfact>
</mgrwt>
</event>
<event>
 4    1  0.6912310E-008  0.2902165E+03  0.7818608E-02  0.1090236E+00
         -2   -1    0    0    0  501 -0.00000000000E+00  0.00000000000E+00  0.36508216197E+03  0.36508216198E+03  0.25500000000E-02 0.  1.
          2   -1    0    0  501    0  0.00000000000E+00 -0.00000000000E+00 -0.58087113621E+03  0.58087113621E+03  0.25500000000E-02 0. -1.
    8880022    1    1    2    0    0 -0.24172706426E+03 -0.49009926353E+02  0.25933540919E+03  0.38920489971E+03  0.15294330000E+03 0.  0.
    8880022    1    1    2    0    0  0.24172706426E+03  0.49009926353E+02 -0.47512438343E+03  0.55674839849E+03  0.15294330000E+03 0. -1.
<mgrwt>
<rscale>  0 0.29021647E+03</rscale>
<asrwt>0</asrwt>
<pdfrwt beam="1">  1        2 0.89364790E-01 0.29021647E+03</pdfrwt>
<pdfrwt beam="2">  1       -2 0.56166486E-01 0.29021647E+03</pdfrwt>
<totfact> 0.16020037E+02</totfact>
</mgrwt>
</event>
<event>
 4    1  0.6912310E-008  0.6139201E+03  0.7818608E-02  0.9876940E-01
          2   -1    0    0  501    0  0.00000000000E+00  0.00000000000E+00  0.17458819055E+04  0.17458819055E+04  0.25500000000E-02 0. -1.
         -2   -1    0    0    0  501 -0.00000000000E+00 -0.00000000000E+00 -0.28643150854E+03  0.28643150855E+03  0.25500000000E-02 0.  1.
    8880022    1    1    2    0    0  0.50323314915E+03 -0.31664268991E+03  0.12340484317E+04  0.13783226691E+04  0.15294330000E+03 0.  0.
    8880022    1    1    2    0    0 -0.50323314915E+03  0.31664268991E+03  0.22540196529E+03  0.65399074493E+03  0.15294330000E+03 0.  0.
<mgrwt>
<rscale>  0 0.61392007E+03</rscale>
<asrwt>0</asrwt>
<pdfrwt beam="1">  1        2 0.26859721E+00 0.61392007E+03</pdfrwt>
<pdfrwt beam="2">  1       -2 0.44066386E-01 0.61392007E+03</pdfrwt>
<totfact> 0.47129242E+01</totfact>
</mgrwt>
</event>
<event>
 4    1  0.6912310E-008  0.6571872E+03  0.7818608E-02  0.9793386E-01
          2   -1    0    0  501    0  0.00000000000E+00  0.00000000000E+00  0.13189845290E+04  0.13189845290E+04  0.25500000000E-02 0. -1.
         -2   -1    0    0    0  501 -0.00000000000E+00 -0.00000000000E+00 -0.82432685560E+03  0.82432685560E+03  0.25500000000E-02 0.  1.
    8880022    1    1    2    0    0 -0.42627364142E+03  0.47622907209E+03  0.10793456129E+04  0.12636779461E+04  0.15294330000E+03 0.  0.
    8880022    1    1    2    0    0  0.42627364142E+03 -0.47622907209E+03 -0.58468793949E+03  0.87963343847E+03  0.15294330000E+03 0.  0.
<mgrwt>
<rscale>  0 0.65718719E+03</rscale>
<asrwt>0</asrwt>
<pdfrwt beam="1">  1        2 0.20292070E+00 0.65718719E+03</pdfrwt>
<pdfrwt beam="2">  1       -2 0.12681952E+00 0.65718719E+03</pdfrwt>
<totfact> 0.77186148E+00</totfact>
</mgrwt>
</event>
<event>
 4    1  0.6912310E-008  0.5428093E+03  0.7818608E-02  0.1003172E+00
         -2   -1    0    0    0  501 -0.00000000000E+00  0.00000000000E+00  0.10266610137E+04  0.10266610138E+04  0.25500000000E-02 0.  1.
          2   -1    0    0  501    0  0.00000000000E+00 -0.00000000000E+00 -0.12625068099E+04  0.12625068099E+04  0.25500000000E-02 0. -1.
    8880022    1    1    2    0    0 -0.36745673482E+03 -0.36908779762E+03 -0.11240388873E+04  0.12482408932E+04  0.15294330000E+03 0.  0.
    8880022    1    1    2    0    0  0.36745673482E+03  0.36908779762E+03  0.88819309115E+03  0.10409269304E+04  0.15294330000E+03 0.  1.
<mgrwt>
<rscale>  0 0.54280927E+03</rscale>
<asrwt>0</asrwt>
<pdfrwt beam="1">  1        2 0.19423182E+00 0.54280927E+03</pdfrwt>
<pdfrwt beam="2">  1       -2 0.15794785E+00 0.54280927E+03</pdfrwt>
<totfact> 0.48092243E+00</totfact>
</mgrwt>
</event>
<event>
 4    1  0.6912310E-008  0.2448514E+03  0.7818608E-02  0.1116603E+00
         -2   -1    0    0    0  501 -0.00000000000E+00  0.00000000000E+00  0.47535161326E+02  0.47535161394E+02  0.25500000000E-02 0.  1.
          2   -1    0    0  501    0  0.00000000000E+00 -0.00000000000E+00 -0.22418981340E+04  0.22418981340E+04  0.25500000000E-02 0. -1.
    8880022    1    1    2    0    0  0.93106042622E+02  0.16700838334E+03 -0.34008050378E+03  0.41905481424E+03  0.15294330000E+03 0.  0.
    8880022    1    1    2    0    0 -0.93106042622E+02 -0.16700838334E+03 -0.18542824688E+04  0.18703784811E+04  0.15294330000E+03 0. -1.
<mgrwt>
<rscale>  0 0.24485136E+03</rscale>
<asrwt>0</asrwt>
<pdfrwt beam="1">  1        2 0.34490732E+00 0.24485136E+03</pdfrwt>
<pdfrwt beam="2">  1       -2 0.73131035E-02 0.24485136E+03</pdfrwt>
<totfact> 0.60537934E+02</totfact>
</mgrwt>
</event>
<event>
 4    1  0.6912310E-008  0.5188914E+03  0.7818608E-02  0.1008962E+00
         -2   -1    0    0    0  501 -0.00000000000E+00  0.00000000000E+00  0.12980866049E+03  0.12980866052E+03  0.25500000000E-02 0.  1.
          2   -1    0    0  501    0  0.00000000000E+00 -0.00000000000E+00 -0.22949494380E+04  0.22949494380E+04  0.25500000000E-02 0. -1.
    8880022    1    1    2    0    0  0.28533171786E+03  0.40551507012E+03 -0.14585876640E+04  0.15481363918E+04  0.15294330000E+03 0. -1.
    8880022    1    1    2    0    0 -0.28533171786E+03 -0.40551507012E+03 -0.70655311353E+03  0.87662170664E+03  0.15294330000E+03 0.  0.
<mgrwt>
<rscale>  0 0.51889143E+03</rscale>
<asrwt>0</asrwt>
<pdfrwt beam="1">  1        2 0.35306911E+00 0.51889143E+03</pdfrwt>
<pdfrwt beam="2">  1       -2 0.19970565E-01 0.51889143E+03</pdfrwt>
<totfact> 0.10403179E+02</totfact>
</mgrwt>
</event>
<event>
 4    1  0.6912310E-008  0.5804735E+03  0.7818608E-02  0.9946766E-01
         -2   -1    0    0    0  501 -0.00000000000E+00  0.00000000000E+00  0.29827983712E+03  0.29827983713E+03  0.25500000000E-02 0.  1.
          2   -1    0    0  501    0  0.00000000000E+00 -0.00000000000E+00 -0.19026847794E+04  0.19026847795E+04  0.25500000000E-02 0. -1.
    8880022    1    1    2    0    0  0.24031961399E+03 -0.50577105033E+03 -0.10074504225E+03  0.58915115953E+03  0.15294330000E+03 0.  1.
    8880022    1    1    2    0    0 -0.24031961399E+03  0.50577105033E+03 -0.15036599001E+04  0.16118134571E+04  0.15294330000E+03 0.  0.
<mgrwt>
<rscale>  0 0.58047354E+03</rscale>
<asrwt>0</asrwt>
<pdfrwt beam="1">  1        2 0.29272073E+00 0.58047354E+03</pdfrwt>
<pdfrwt beam="2">  1       -2 0.45889207E-01 0.58047354E+03</pdfrwt>
<totfact> 0.35946871E+01</totfact>
</mgrwt>
</event>
<event>
 4    1  0.6912310E-008  0.1742788E+03  0.7818608E-02  0.1173458E+00
         -2   -1    0    0    0  501 -0.00000000000E+00  0.00000000000E+00  0.10308405130E+04  0.10308405130E+04  0.25500000000E-02 0.  1.
          2   -1    0    0  501    0  0.00000000000E+00 -0.00000000000E+00 -0.15711121289E+03  0.15711121291E+03  0.25500000000E-02 0. -1.
    8880022    1    1    2    0    0  0.27114072668E+02 -0.79033392246E+02  0.97225456324E+03  0.98775100039E+03  0.15294330000E+03 0.  1.
    8880022    1    1    2    0    0 -0.27114072668E+02  0.79033392246E+02 -0.98525263104E+02  0.20020072555E+03  0.15294330000E+03 0.  0.
<mgrwt>
<rscale>  0 0.17427881E+03</rscale>
<asrwt>0</asrwt>
<pdfrwt beam="1">  1        2 0.24170956E-01 0.17427881E+03</pdfrwt>
<pdfrwt beam="2">  1       -2 0.15859084E+00 0.17427881E+03</pdfrwt>
<totfact> 0.62393594E+01</totfact>
</mgrwt>
</event>
<event>
 4    1  0.6912310E-008  0.7178424E+03  0.7818608E-02  0.9687197E-01
          2   -1    0    0  501    0  0.00000000000E+00  0.00000000000E+00  0.37955035469E+04  0.37955035469E+04  0.25500000000E-02 0. -1.
         -2   -1    0    0    0  501 -0.00000000000E+00 -0.00000000000E+00 -0.28338402335E+03  0.28338402336E+03  0.25500000000E-02 0.  1.
    8880022    1    1    2    0    0 -0.34174341439E+02  0.70052705040E+03  0.28410393521E+03  0.77201860921E+03  0.15294330000E+03 0.  0.
    8880022    1    1    2    0    0  0.34174341439E+02 -0.70052705040E+03  0.32280155883E+04  0.33068689610E+04  0.15294330000E+03 0.  0.
<mgrwt>
<rscale>  0 0.71784238E+03</rscale>
<asrwt>0</asrwt>
<pdfrwt beam="1">  1        2 0.58392356E+00 0.71784238E+03</pdfrwt>
<pdfrwt beam="2">  1       -2 0.43597547E-01 0.71784238E+03</pdfrwt>
<totfact> 0.27337666E+00</totfact>
</mgrwt>
</event>
<event>
 4    1  0.6912310E-008  0.5965039E+03  0.7818608E-02  0.9912686E-01
         -2   -1    0    0    0  501 -0.00000000000E+00  0.00000000000E+00  0.35818062610E+03  0.35818062611E+03  0.25500000000E-02 0.  1.
          2   -1    0    0  501    0  0.00000000000E+00 -0.00000000000E+00 -0.14220161792E+04  0.14220161792E+04  0.25500000000E-02 0. -1.
    8880022    1    1    2    0    0 -0.50909211877E+03 -0.27064826442E+03 -0.43243333670E+02  0.59806931650E+03  0.15294330000E+03 0.  0.
    8880022    1    1    2    0    0  0.50909211877E+03  0.27064826442E+03 -0.10205922194E+04  0.11821274888E+04  0.15294330000E+03 0.  0.
<mgrwt>
<rscale>  0 0.59650392E+03</rscale>
<asrwt>0</asrwt>
<pdfrwt beam="1">  1        2 0.21877172E+00 0.59650392E+03</pdfrwt>
<pdfrwt beam="2">  1       -2 0.55104713E-01 0.59650392E+03</pdfrwt>
<totfact> 0.45247864E+01</totfact>
</mgrwt>
</event>
<event>
 4    1  0.6912310E-008  0.4873561E+03  0.7818608E-02  0.1017133E+00
         -2   -1    0    0    0  501 -0.00000000000E+00  0.00000000000E+00  0.10415075312E+04  0.10415075312E+04  0.25500000000E-02 0.  1.
          2   -1    0    0  501    0  0.00000000000E+00 -0.00000000000E+00 -0.16566502123E+04  0.16566502123E+04  0.25500000000E-02 0. -1.
    8880022    1    1    2    0    0 -0.28833968344E+03  0.36191786074E+03  0.94521572444E+03  0.10634607326E+04  0.15294330000E+03 0.  1.
    8880022    1    1    2    0    0  0.28833968344E+03 -0.36191786074E+03 -0.15603584055E+04  0.16346970110E+04  0.15294330000E+03 0.  0.
<mgrwt>
<rscale>  0 0.48735610E+03</rscale>
<asrwt>0</asrwt>
<pdfrwt beam="1">  1        2 0.25486926E+00 0.48735610E+03</pdfrwt>
<pdfrwt beam="2">  1       -2 0.16023193E+00 0.48735610E+03</pdfrwt>
<totfact> 0.28343127E+00</totfact>
</mgrwt>
</event>
<event>
 4    1  0.6912310E-008  0.4946113E+03  0.7818608E-02  0.1015195E+00
         -2   -1    0    0    0  501 -0.00000000000E+00  0.00000000000E+00  0.45794408594E+03  0.45794408594E+03  0.25500000000E-02 0.  1.
          2   -1    0    0  501    0  0.00000000000E+00 -0.00000000000E+00 -0.62177301415E+03  0.62177301415E+03  0.25500000000E-02 0. -1.
    8880022    1    1    2    0    0 -0.22335369508E+03  0.41395865404E+03 -0.28450243787E+03  0.57059787112E+03  0.15294330000E+03 0.  0.
    8880022    1    1    2    0    0  0.22335369508E+03 -0.41395865404E+03  0.12067350966E+03  0.50911922897E+03  0.15294330000E+03 0.  0.
<mgrwt>
<rscale>  0 0.49461125E+03</rscale>
<asrwt>0</asrwt>
<pdfrwt beam="1">  1        2 0.95657387E-01 0.49461125E+03</pdfrwt>
<pdfrwt beam="2">  1       -2 0.70452936E-01 0.49461125E+03</pdfrwt>
<totfact> 0.89738097E+01</totfact>
</mgrwt>
</event>
<event>
 4    1  0.6912310E-008  0.4519009E+03  0.7818608E-02  0.1027157E+00
          2   -1    0    0  501    0  0.00000000000E+00  0.00000000000E+00  0.18476519280E+03  0.18476519282E+03  0.25500000000E-02 0. -1.
         -2   -1    0    0    0  501 -0.00000000000E+00 -0.00000000000E+00 -0.16530866678E+04  0.16530866678E+04  0.25500000000E-02 0.  1.
    8880022    1    1    2    0    0 -0.26388257848E+03 -0.33344973222E+03 -0.20516456346E+03  0.49629314952E+03  0.15294330000E+03 0. -1.
    8880022    1    1    2    0    0  0.26388257848E+03  0.33344973222E+03 -0.12631569115E+04  0.13415587111E+04  0.15294330000E+03 0.  0.
<mgrwt>
<rscale>  0 0.45190087E+03</rscale>
<asrwt>0</asrwt>
<pdfrwt beam="1">  1        2 0.28425415E-01 0.45190087E+03</pdfrwt>
<pdfrwt beam="2">  1       -2 0.25432102E+00 0.45190087E+03</pdfrwt>
<totfact> 0.12196805E+01</totfact>
</mgrwt>
</event>
<event>
 4    1  0.6912310E-008  0.5096144E+03  0.7818608E-02  0.1011299E+00
         -2   -1    0    0    0  501 -0.00000000000E+00  0.00000000000E+00  0.61968582397E+03  0.61968582397E+03  0.25500000000E-02 0.  1.
          2   -1    0    0  501    0  0.00000000000E+00 -0.00000000000E+00 -0.14483388494E+04  0.14483388494E+04  0.25500000000E-02 0. -1.
    8880022    1    1    2    0    0 -0.43873144289E+03 -0.20935595026E+03  0.45733907590E+03  0.68473781570E+03  0.15294330000E+03 0.  0.
    8880022    1    1    2    0    0  0.43873144289E+03  0.20935595026E+03 -0.12859921013E+04  0.13832868576E+04  0.15294330000E+03 0.  0.
<mgrwt>
<rscale>  0 0.50961441E+03</rscale>
<asrwt>0</asrwt>
<pdfrwt beam="1">  1        2 0.22282136E+00 0.50961441E+03</pdfrwt>
<pdfrwt beam="2">  1       -2 0.95336281E-01 0.50961441E+03</pdfrwt>
<totfact> 0.13340285E+01</totfact>
</mgrwt>
</event>
<event>
 4    1  0.6912310E-008  0.1720407E+03  0.7818608E-02  0.1175736E+00
         -2   -1    0    0    0  501 -0.00000000000E+00  0.00000000000E+00  0.16334554071E+03  0.16334554073E+03  0.25500000000E-02 0.  1.
          2   -1    0    0  501    0  0.00000000000E+00 -0.00000000000E+00 -0.34879895494E+04  0.34879895495E+04  0.25500000000E-02 0. -1.
    8880022    1    1    2    0    0 -0.47538907784E+02 -0.62820486403E+02  0.11529200935E+03  0.20709964196E+03  0.15294330000E+03 0.  1.
    8880022    1    1    2    0    0  0.47538907784E+02  0.62820486403E+02 -0.34399360181E+04  0.34442354482E+04  0.15294330000E+03 0.  0.
<mgrwt>
<rscale>  0 0.17204073E+03</rscale>
<asrwt>0</asrwt>
<pdfrwt beam="1">  1        2 0.53661372E+00 0.17204073E+03</pdfrwt>
<pdfrwt beam="2">  1       -2 0.25130086E-01 0.17204073E+03</pdfrwt>
<totfact> 0.15726490E+01</totfact>
</mgrwt>
</event>
<event>
 4    1  0.6912310E-008  0.6514220E+03  0.7818608E-02  0.9804115E-01
         -2   -1    0    0    0  501 -0.00000000000E+00  0.00000000000E+00  0.67996035652E+03  0.67996035653E+03  0.25500000000E-02 0.  1.
          2   -1    0    0  501    0  0.00000000000E+00 -0.00000000000E+00 -0.95005992969E+03  0.95005992969E+03  0.25500000000E-02 0. -1.
    8880022    1    1    2    0    0 -0.54424748555E+03 -0.32365673034E+03  0.34234972006E+03  0.73590351845E+03  0.15294330000E+03 0.  0.
    8880022    1    1    2    0    0  0.54424748555E+03  0.32365673034E+03 -0.61244929322E+03  0.89411676777E+03  0.15294330000E+03 0. -1.
<mgrwt>
<rscale>  0 0.65142203E+03</rscale>
<asrwt>0</asrwt>
<pdfrwt beam="1">  1        2 0.14616307E+00 0.65142203E+03</pdfrwt>
<pdfrwt beam="2">  1       -2 0.10460929E+00 0.65142203E+03</pdfrwt>
<totfact> 0.20679383E+01</totfact>
</mgrwt>
</event>
<event>
 4    1  0.6912310E-008  0.4831093E+03  0.7818608E-02  0.1018284E+00
          2   -1    0    0  501    0  0.00000000000E+00  0.00000000000E+00  0.10496102945E+04  0.10496102945E+04  0.25500000000E-02 0. -1.
         -2   -1    0    0    0  501 -0.00000000000E+00 -0.00000000000E+00 -0.25165928777E+03  0.25165928778E+03  0.25500000000E-02 0.  1.
    8880022    1    1    2    0    0 -0.43266971294E+03 -0.15099611613E+03  0.62096714686E+03  0.78676219919E+03  0.15294330000E+03 0.  0.
    8880022    1    1    2    0    0  0.43266971294E+03  0.15099611613E+03  0.17698385987E+03  0.51450738309E+03  0.15294330000E+03 0.  0.
<mgrwt>
<rscale>  0 0.48310926E+03</rscale>
<asrwt>0</asrwt>
<pdfrwt beam="1">  1        2 0.16147850E+00 0.48310926E+03</pdfrwt>
<pdfrwt beam="2">  1       -2 0.38716814E-01 0.48310926E+03</pdfrwt>
<totfact> 0.15270837E+02</totfact>
</mgrwt>
</event>
<event>
 4    1  0.6912310E-008  0.3300302E+03  0.7818608E-02  0.1071124E+00
         -2   -1    0    0    0  501 -0.00000000000E+00  0.00000000000E+00  0.70317025551E+02  0.70317025597E+02  0.25500000000E-02 0.  1.
          2   -1    0    0  501    0  0.00000000000E+00 -0.00000000000E+00 -0.16749163326E+04  0.16749163326E+04  0.25500000000E-02 0. -1.
    8880022    1    1    2    0    0  0.19543629938E+03 -0.21756126081E+03 -0.10415743002E+04  0.10926101432E+04  0.15294330000E+03 0.  1.
    8880022    1    1    2    0    0 -0.19543629938E+03  0.21756126081E+03 -0.56302500693E+03  0.65262321501E+03  0.15294330000E+03 0.  0.
<mgrwt>
<rscale>  0 0.33003015E+03</rscale>
<asrwt>0</asrwt>
<pdfrwt beam="1">  1        2 0.25767941E+00 0.33003015E+03</pdfrwt>
<pdfrwt beam="2">  1       -2 0.10818005E-01 0.33003015E+03</pdfrwt>
<totfact> 0.64111645E+02</totfact>
</mgrwt>
</event>
<event>
 4    1  0.6912310E-008  0.7571509E+03  0.7818608E-02  0.9624198E-01
          2   -1    0    0  501    0  0.00000000000E+00  0.00000000000E+00  0.23435087486E+04  0.23435087486E+04  0.25500000000E-02 0. -1.
         -2   -1    0    0    0  501 -0.00000000000E+00 -0.00000000000E+00 -0.26373367557E+03  0.26373367558E+03  0.25500000000E-02 0.  1.
    8880022    1    1    2    0    0  0.54813629272E+03 -0.49943209625E+03  0.13908011468E+04  0.15835420099E+04  0.15294330000E+03 0.  0.
    8880022    1    1    2    0    0 -0.54813629272E+03  0.49943209625E+03  0.68897392622E+03  0.10237004143E+04  0.15294330000E+03 0.  0.
<mgrwt>
<rscale>  0 0.75715089E+03</rscale>
<asrwt>0</asrwt>
<pdfrwt beam="1">  1        2 0.36053979E+00 0.75715089E+03</pdfrwt>
<pdfrwt beam="2">  1       -2 0.40574413E-01 0.75715089E+03</pdfrwt>
<totfact> 0.25604745E+01</totfact>
</mgrwt>
</event>
<event>
 4    1  0.6912310E-008  0.2947321E+03  0.7818608E-02  0.1087904E+00
         -2   -1    0    0    0  501 -0.00000000000E+00  0.00000000000E+00  0.75386654985E+02  0.75386655028E+02  0.25500000000E-02 0.  1.
          2   -1    0    0  501    0  0.00000000000E+00 -0.00000000000E+00 -0.14975929916E+04  0.14975929916E+04  0.25500000000E-02 0. -1.
    8880022    1    1    2    0    0 -0.24422011039E+03 -0.61902496067E+02 -0.10887610042E+04  0.11279483848E+04  0.15294330000E+03 0.  0.
    8880022    1    1    2    0    0  0.24422011039E+03  0.61902496067E+02 -0.33344533240E+03  0.44503126188E+03  0.15294330000E+03 0.  0.
<mgrwt>
<rscale>  0 0.29473214E+03</rscale>
<asrwt>0</asrwt>
<pdfrwt beam="1">  1        2 0.23039890E+00 0.29473214E+03</pdfrwt>
<pdfrwt beam="2">  1       -2 0.11597948E-01 0.29473214E+03</pdfrwt>
<totfact> 0.71533081E+02</totfact>
</mgrwt>
</event>
<event>
 4    1  0.6912310E-008  0.7101973E+03  0.7818608E-02  0.9699951E-01
          2   -1    0    0  501    0  0.00000000000E+00  0.00000000000E+00  0.13552598250E+04  0.13552598250E+04  0.25500000000E-02 0. -1.
         -2   -1    0    0    0  501 -0.00000000000E+00 -0.00000000000E+00 -0.85743941623E+03  0.85743941623E+03  0.25500000000E-02 0.  1.
    8880022    1    1    2    0    0 -0.68081851897E+03  0.13219202439E+03  0.10812187965E+04  0.12936051662E+04  0.15294330000E+03 0.  0.
    8880022    1    1    2    0    0  0.68081851897E+03 -0.13219202439E+03 -0.58339838768E+03  0.91909407508E+03  0.15294330000E+03 0.  0.
<mgrwt>
<rscale>  0 0.71019732E+03</rscale>
<asrwt>0</asrwt>
<pdfrwt beam="1">  1        2 0.20850151E+00 0.71019732E+03</pdfrwt>
<pdfrwt beam="2">  1       -2 0.13191376E+00 0.71019732E+03</pdfrwt>
<totfact> 0.66099101E+00</totfact>
</mgrwt>
</event>
<event>
 4    1  0.6912310E-008  0.3102745E+03  0.7818608E-02  0.1080214E+00
         -2   -1    0    0    0  501 -0.00000000000E+00  0.00000000000E+00  0.91779662938E+03  0.91779662938E+03  0.25500000000E-02 0.  1.
          2   -1    0    0  501    0  0.00000000000E+00 -0.00000000000E+00 -0.36196740371E+03  0.36196740372E+03  0.25500000000E-02 0. -1.
    8880022    1    1    2    0    0 -0.10529738668E+03  0.24857814292E+03  0.81717030199E+03  0.87409243690E+03  0.15294330000E+03 0.  0.
    8880022    1    1    2    0    0  0.10529738668E+03 -0.24857814292E+03 -0.26134107632E+03  0.40567159620E+03  0.15294330000E+03 0.  0.
<mgrwt>
<rscale>  0 0.31027453E+03</rscale>
<asrwt>0</asrwt>
<pdfrwt beam="1">  1        2 0.55687295E-01 0.31027453E+03</pdfrwt>
<pdfrwt beam="2">  1       -2 0.14119948E+00 0.31027453E+03</pdfrwt>
<totfact> 0.33126926E+01</totfact>
</mgrwt>
</event>
<event>
 4    1  0.6912310E-008  0.2836084E+03  0.7818608E-02  0.1093734E+00
          2   -1    0    0  501    0  0.00000000000E+00  0.00000000000E+00  0.11572093387E+04  0.11572093387E+04  0.25500000000E-02 0. -1.
         -2   -1    0    0    0  501 -0.00000000000E+00 -0.00000000000E+00 -0.38692860763E+03  0.38692860763E+03  0.25500000000E-02 0.  1.
    8880022    1    1    2    0    0 -0.18378530780E+03 -0.15252881901E+03 -0.31415261584E+03  0.42323232278E+03  0.15294330000E+03 0.  0.
    8880022    1    1    2    0    0  0.18378530780E+03  0.15252881901E+03  0.10844333469E+04  0.11209056236E+04  0.15294330000E+03 0. -1.
<mgrwt>
<rscale>  0 0.28360841E+03</rscale>
<asrwt>0</asrwt>
<pdfrwt beam="1">  1        2 0.17803220E+00 0.28360841E+03</pdfrwt>
<pdfrwt beam="2">  1       -2 0.59527480E-01 0.28360841E+03</pdfrwt>
<totfact> 0.57536130E+01</totfact>
</mgrwt>
</event>
<event>
 4    1  0.6912310E-008  0.1720514E+03  0.7818608E-02  0.1175725E+00
          2   -1    0    0  501    0  0.00000000000E+00  0.00000000000E+00  0.27562352545E+04  0.27562352545E+04  0.25500000000E-02 0. -1.
         -2   -1    0    0    0  501 -0.00000000000E+00 -0.00000000000E+00 -0.15551176767E+03  0.15551176769E+03  0.25500000000E-02 0.  1.
    8880022    1    1    2    0    0  0.31412576450E+02 -0.72272337096E+02  0.27050634255E+04  0.27105294372E+04  0.15294330000E+03 0.  0.
    8880022    1    1    2    0    0 -0.31412576450E+02  0.72272337096E+02 -0.10433993875E+03  0.20121758497E+03  0.15294330000E+03 0.  1.
<mgrwt>
<rscale>  0 0.17205143E+03</rscale>
<asrwt>0</asrwt>
<pdfrwt beam="1">  1        2 0.42403620E+00 0.17205143E+03</pdfrwt>
<pdfrwt beam="2">  1       -2 0.23924887E-01 0.17205143E+03</pdfrwt>
<totfact> 0.47113643E+01</totfact>
</mgrwt>
</event>
<event>
 4    1  0.6912310E-008  0.2778336E+03  0.7818608E-02  0.1096878E+00
          2   -1    0    0  501    0  0.00000000000E+00  0.00000000000E+00  0.35400461526E+03  0.35400461527E+03  0.25500000000E-02 0. -1.
         -2   -1    0    0    0  501 -0.00000000000E+00 -0.00000000000E+00 -0.31136077318E+03  0.31136077319E+03  0.25500000000E-02 0.  1.
    8880022    1    1    2    0    0 -0.19366705191E+03 -0.12764383733E+03 -0.16079854212E+03  0.32101043654E+03  0.15294330000E+03 0.  0.
    8880022    1    1    2    0    0  0.19366705191E+03  0.12764383733E+03  0.20344238420E+03  0.34435495192E+03  0.15294330000E+03 0.  0.
<mgrwt>
<rscale>  0 0.27783364E+03</rscale>
<asrwt>0</asrwt>
<pdfrwt beam="1">  1        2 0.54462248E-01 0.27783364E+03</pdfrwt>
<pdfrwt beam="2">  1       -2 0.47901658E-01 0.27783364E+03</pdfrwt>
<totfact> 0.38415166E+02</totfact>
</mgrwt>
</event>
<event>
 4    1  0.6912310E-008  0.4394380E+03  0.7818608E-02  0.1030919E+00
         -2   -1    0    0    0  501 -0.00000000000E+00  0.00000000000E+00  0.19925648158E+03  0.19925648159E+03  0.25500000000E-02 0.  1.
          2   -1    0    0  501    0  0.00000000000E+00 -0.00000000000E+00 -0.15787914484E+04  0.15787914484E+04  0.25500000000E-02 0. -1.
    8880022    1    1    2    0    0 -0.40310117582E+03  0.84991321895E+02 -0.13731502201E+03  0.46039238811E+03  0.15294330000E+03 0.  0.
    8880022    1    1    2    0    0  0.40310117582E+03 -0.84991321895E+02 -0.12422199448E+04  0.13176555418E+04  0.15294330000E+03 0.  0.
<mgrwt>
<rscale>  0 0.43943798E+03</rscale>
<asrwt>0</asrwt>
<pdfrwt beam="1">  1        2 0.24289098E+00 0.43943798E+03</pdfrwt>
<pdfrwt beam="2">  1       -2 0.30654844E-01 0.43943798E+03</pdfrwt>
<totfact> 0.11914573E+02</totfact>
</mgrwt>
</event>
<event>
 4    1  0.6912310E-008  0.5322613E+03  0.7818608E-02  0.1005685E+00
         -2   -1    0    0    0  501 -0.00000000000E+00  0.00000000000E+00  0.15176513009E+04  0.15176513009E+04  0.25500000000E-02 0.  1.
          2   -1    0    0  501    0  0.00000000000E+00 -0.00000000000E+00 -0.37297928703E+03  0.37297928704E+03  0.25500000000E-02 0. -1.
    8880022    1    1    2    0    0  0.48792012226E+03  0.14779864845E+03 -0.95776977019E+02  0.54080991904E+03  0.15294330000E+03 0.  0.
    8880022    1    1    2    0    0 -0.48792012226E+03 -0.14779864845E+03  0.12404489909E+04  0.13498206689E+04  0.15294330000E+03 0.  0.
<mgrwt>
<rscale>  0 0.53226134E+03</rscale>
<asrwt>0</asrwt>
<pdfrwt beam="1">  1        2 0.57381430E-01 0.53226134E+03</pdfrwt>
<pdfrwt beam="2">  1       -2 0.23348481E+00 0.53226134E+03</pdfrwt>
<totfact> 0.73815671E+00</totfact>
</mgrwt>
</event>
<event>
 4    1  0.6912310E-008  0.9028613E+03  0.7818608E-02  0.9422012E-01
          2   -1    0    0  501    0  0.00000000000E+00  0.00000000000E+00  0.33297674619E+04  0.33297674619E+04  0.25500000000E-02 0. -1.
         -2   -1    0    0    0  501 -0.00000000000E+00 -0.00000000000E+00 -0.28969801121E+03  0.28969801122E+03  0.25500000000E-02 0.  1.
    8880022    1    1    2    0    0  0.68153250164E+03 -0.57208426910E+03  0.80765849317E+03  0.12113921150E+04  0.15294330000E+03 0.  0.
    8880022    1    1    2    0    0 -0.68153250164E+03  0.57208426910E+03  0.22324109575E+04  0.24080733581E+04  0.15294330000E+03 0.  0.
<mgrwt>
<rscale>  0 0.90286135E+03</rscale>
<asrwt>0</asrwt>
<pdfrwt beam="1">  1        2 0.51227196E+00 0.90286135E+03</pdfrwt>
<pdfrwt beam="2">  1       -2 0.44568921E-01 0.90286135E+03</pdfrwt>
<totfact> 0.53216411E+00</totfact>
</mgrwt>
</event>
<event>
 4    1  0.6912310E-008  0.9979559E+03  0.7818608E-02  0.9310790E-01
         -2   -1    0    0    0  501 -0.00000000000E+00  0.00000000000E+00  0.57041486311E+03  0.57041486312E+03  0.25500000000E-02 0.  1.
          2   -1    0    0  501    0  0.00000000000E+00 -0.00000000000E+00 -0.24860859676E+04  0.24860859676E+04  0.25500000000E-02 0. -1.
    8880022    1    1    2    0    0  0.26365107670E+03 -0.95026969956E+03 -0.12397756000E+03  0.10056274064E+04  0.15294330000E+03 0.  0.
    8880022    1    1    2    0    0 -0.26365107670E+03  0.95026969956E+03 -0.17916935445E+04  0.20508734243E+04  0.15294330000E+03 0.  0.
<mgrwt>
<rscale>  0 0.99795593E+03</rscale>
<asrwt>0</asrwt>
<pdfrwt beam="1">  1        2 0.38247476E+00 0.99795593E+03</pdfrwt>
<pdfrwt beam="2">  1       -2 0.87756134E-01 0.99795593E+03</pdfrwt>
<totfact> 0.40104858E+00</totfact>
</mgrwt>
</event>
<event>
 4    1  0.6912310E-008  0.1782002E+03  0.7818608E-02  0.1169556E+00
         -2   -1    0    0    0  501 -0.00000000000E+00  0.00000000000E+00  0.86614418325E+02  0.86614418362E+02  0.25500000000E-02 0.  1.
          2   -1    0    0  501    0  0.00000000000E+00 -0.00000000000E+00 -0.13623551236E+04  0.13623551236E+04  0.25500000000E-02 0. -1.
    8880022    1    1    2    0    0  0.12134222973E+02 -0.90644427676E+02 -0.12572460775E+04  0.12698121924E+04  0.15294330000E+03 0.  0.
    8880022    1    1    2    0    0 -0.12134222973E+02  0.90644427676E+02 -0.18494627820E+02  0.17915734958E+03  0.15294330000E+03 0.  1.
<mgrwt>
<rscale>  0 0.17820018E+03</rscale>
<asrwt>0</asrwt>
<pdfrwt beam="1">  1        2 0.20959308E+00 0.17820018E+03</pdfrwt>
<pdfrwt beam="2">  1       -2 0.13325296E-01 0.17820018E+03</pdfrwt>
<totfact> 0.68443994E+02</totfact>
</mgrwt>
</event>
<event>
 4    1  0.6912310E-008  0.4433875E+03  0.7818608E-02  0.1029712E+00
          2   -1    0    0  501    0  0.00000000000E+00  0.00000000000E+00  0.13975831759E+04  0.13975831759E+04  0.25500000000E-02 0. -1.
         -2   -1    0    0    0  501 -0.00000000000E+00 -0.00000000000E+00 -0.38875308672E+03  0.38875308673E+03  0.25500000000E-02 0.  1.
    8880022    1    1    2    0    0  0.24822032605E+03 -0.33404716355E+03 -0.20909211996E+03  0.49021628429E+03  0.15294330000E+03 0.  0.
    8880022    1    1    2    0    0 -0.24822032605E+03  0.33404716355E+03  0.12179222092E+04  0.12961199784E+04  0.15294330000E+03 0.  0.
<mgrwt>
<rscale>  0 0.44338752E+03</rscale>
<asrwt>0</asrwt>
<pdfrwt beam="1">  1        2 0.21501279E+00 0.44338752E+03</pdfrwt>
<pdfrwt beam="2">  1       -2 0.59808168E-01 0.44338752E+03</pdfrwt>
<totfact> 0.40309824E+01</totfact>
</mgrwt>
</event>
<event>
 4    1  0.6912310E-008  0.5240061E+03  0.7818608E-02  0.1007696E+00
          2   -1    0    0  501    0  0.00000000000E+00  0.00000000000E+00  0.33623785761E+03  0.33623785762E+03  0.25500000000E-02 0. -1.
         -2   -1    0    0    0  501 -0.00000000000E+00 -0.00000000000E+00 -0.11521215317E+04  0.11521215317E+04  0.25500000000E-02 0.  1.
    8880022    1    1    2    0    0 -0.46075851172E+03 -0.19721147500E+03 -0.80951851398E+03  0.96431460089E+03  0.15294330000E+03 0.  0.
    8880022    1    1    2    0    0  0.46075851172E+03  0.19721147500E+03 -0.63651601133E+01  0.52404478843E+03  0.15294330000E+03 0.  0.
<mgrwt>
<rscale>  0 0.52400613E+03</rscale>
<asrwt>0</asrwt>
<pdfrwt beam="1">  1        2 0.51728902E-01 0.52400613E+03</pdfrwt>
<pdfrwt beam="2">  1       -2 0.17724946E+00 0.52400613E+03</pdfrwt>
<totfact> 0.19010495E+01</totfact>
</mgrwt>
</event>
<event>
 4    1  0.6912310E-008  0.7121108E+03  0.7818608E-02  0.9696742E-01
         -2   -1    0    0    0  501 -0.00000000000E+00  0.00000000000E+00  0.50583077141E+03  0.50583077142E+03  0.25500000000E-02 0.  1.
          2   -1    0    0  501    0  0.00000000000E+00 -0.00000000000E+00 -0.24022290624E+04  0.24022290624E+04  0.25500000000E-02 0. -1.
    8880022    1    1    2    0    0  0.51437747757E+03  0.46810887222E+03  0.16170674891E+03  0.73024025590E+03  0.15294330000E+03 0.  0.
    8880022    1    1    2    0    0 -0.51437747757E+03 -0.46810887222E+03 -0.20581050399E+04  0.21778195779E+04  0.15294330000E+03 0.  0.
<mgrwt>
<rscale>  0 0.71211078E+03</rscale>
<asrwt>0</asrwt>
<pdfrwt beam="1">  1        2 0.36957370E+00 0.71211078E+03</pdfrwt>
<pdfrwt beam="2">  1       -2 0.77820120E-01 0.71211078E+03</pdfrwt>
<totfact> 0.61429273E+00</totfact>
</mgrwt>
</event>
<event>
 4    1  0.6912310E-008  0.8877395E+03  0.7818608E-02  0.9441039E-01
          2   -1    0    0  501    0  0.00000000000E+00  0.00000000000E+00  0.69985076113E+03  0.69985076114E+03  0.25500000000E-02 0. -1.
         -2   -1    0    0    0  501 -0.00000000000E+00 -0.00000000000E+00 -0.26254929134E+04  0.26254929134E+04  0.25500000000E-02 0.  1.
    8880022    1    1    2    0    0 -0.77204056837E+03  0.41066189457E+03  0.29368061051E+03  0.93505603301E+03  0.15294330000E+03 0.  0.
    8880022    1    1    2    0    0  0.77204056837E+03 -0.41066189457E+03 -0.22193227628E+04  0.23902876416E+04  0.15294330000E+03 0.  0.
<mgrwt>
<rscale>  0 0.88773954E+03</rscale>
<asrwt>0</asrwt>
<pdfrwt beam="1">  1        2 0.10766935E+00 0.88773954E+03</pdfrwt>
<pdfrwt beam="2">  1       -2 0.40392198E+00 0.88773954E+03</pdfrwt>
<totfact> 0.29755731E-01</totfact>
</mgrwt>
</event>
<event>
 4    1  0.6912310E-008  0.6913492E+03  0.7818608E-02  0.9732142E-01
         -2   -1    0    0    0  501 -0.00000000000E+00  0.00000000000E+00  0.11440131458E+04  0.11440131458E+04  0.25500000000E-02 0.  1.
          2   -1    0    0  501    0  0.00000000000E+00 -0.00000000000E+00 -0.49774593630E+03  0.49774593631E+03  0.25500000000E-02 0. -1.
    8880022    1    1    2    0    0 -0.25245642663E+03 -0.62517018024E+03  0.65212590014E+03  0.95038510313E+03  0.15294330000E+03 0.  0.
    8880022    1    1    2    0    0  0.25245642663E+03  0.62517018024E+03 -0.58586905965E+01  0.69137397903E+03  0.15294330000E+03 0.  0.
<mgrwt>
<rscale>  0 0.69134916E+03</rscale>
<asrwt>0</asrwt>
<pdfrwt beam="1">  1        2 0.76576298E-01 0.69134916E+03</pdfrwt>
<pdfrwt beam="2">  1       -2 0.17600202E+00 0.69134916E+03</pdfrwt>
<totfact> 0.12234385E+01</totfact>
</mgrwt>
</event>
<event>
 4    1  0.6912310E-008  0.5639627E+03  0.7818608E-02  0.9983128E-01
          2   -1    0    0  501    0  0.00000000000E+00  0.00000000000E+00  0.20402721195E+04  0.20402721195E+04  0.25500000000E-02 0. -1.
         -2   -1    0    0    0  501 -0.00000000000E+00 -0.00000000000E+00 -0.67384988054E+03  0.67384988054E+03  0.25500000000E-02 0.  1.
    8880022    1    1    2    0    0  0.39311090727E+03 -0.37433413534E+03 -0.50656898669E+03  0.75806729358E+03  0.15294330000E+03 0.  0.
    8880022    1    1    2    0    0 -0.39311090727E+03  0.37433413534E+03  0.18729912256E+04  0.19560547065E+04  0.15294330000E+03 0.  0.
<mgrwt>
<rscale>  0 0.56396266E+03</rscale>
<asrwt>0</asrwt>
<pdfrwt beam="1">  1        2 0.31388801E+00 0.56396266E+03</pdfrwt>
<pdfrwt beam="2">  1       -2 0.10366921E+00 0.56396266E+03</pdfrwt>
<totfact> 0.51695856E+00</totfact>
</mgrwt>
</event>
<event>
 4    1  0.6912310E-008  0.8219732E+03  0.7818608E-02  0.9528745E-01
          2   -1    0    0  501    0  0.00000000000E+00  0.00000000000E+00  0.10936801086E+04  0.10936801086E+04  0.25500000000E-02 0. -1.
         -2   -1    0    0    0  501 -0.00000000000E+00 -0.00000000000E+00 -0.12441015254E+04  0.12441015254E+04  0.25500000000E-02 0.  1.
    8880022    1    1    2    0    0  0.76055262371E+03 -0.27167616221E+03 -0.90458216242E+03  0.12222556083E+04  0.15294330000E+03 0.  0.
    8880022    1    1    2    0    0 -0.76055262371E+03  0.27167616221E+03  0.75416074568E+03  0.11155260256E+04  0.15294330000E+03 0.  0.
<mgrwt>
<rscale>  0 0.82197316E+03</rscale>
<asrwt>0</asrwt>
<pdfrwt beam="1">  1        2 0.16825848E+00 0.82197316E+03</pdfrwt>
<pdfrwt beam="2">  1       -2 0.19140023E+00 0.82197316E+03</pdfrwt>
<totfact> 0.33801312E+00</totfact>
</mgrwt>
</event>
<event>
 4    1  0.6912310E-008  0.5895193E+03  0.7818608E-02  0.9927392E-01
         -2   -1    0    0    0  501 -0.00000000000E+00  0.00000000000E+00  0.16791595801E+04  0.16791595801E+04  0.25500000000E-02 0.  1.
          2   -1    0    0  501    0  0.00000000000E+00 -0.00000000000E+00 -0.48638660573E+03  0.48638660573E+03  0.25500000000E-02 0. -1.
    8880022    1    1    2    0    0 -0.42882894435E+03  0.37449584892E+03 -0.22429372427E+03  0.63074617092E+03  0.15294330000E+03 0.  0.
    8880022    1    1    2    0    0  0.42882894435E+03 -0.37449584892E+03  0.14170666986E+04  0.15348000149E+04  0.15294330000E+03 0.  0.
<mgrwt>
<rscale>  0 0.58951934E+03</rscale>
<asrwt>0</asrwt>
<pdfrwt beam="1">  1        2 0.74828708E-01 0.58951934E+03</pdfrwt>
<pdfrwt beam="2">  1       -2 0.25833224E+00 0.58951934E+03</pdfrwt>
<totfact> 0.38384756E+00</totfact>
</mgrwt>
</event>
<event>
 4    1  0.1145143E-007  0.1110139E+04  0.7818608E-02  0.9195366E-01
         -2   -1    0    0    0  501 -0.00000000000E+00  0.00000000000E+00  0.20297674135E+04  0.20297674135E+04  0.25500000000E-02 0.  1.
          2   -1    0    0  501    0  0.00000000000E+00 -0.00000000000E+00 -0.17958115593E+04  0.17958115593E+04  0.25500000000E-02 0. -1.
    8880022    1    1    2    0    0  0.10592278606E+04  0.29504829329E+03  0.16731682361E+04  0.20079593510E+04  0.15294330000E+03 0.  0.
    8880022    1    1    2    0    0 -0.10592278606E+04 -0.29504829329E+03 -0.14392123820E+04  0.18176196218E+04  0.15294330000E+03 0.  0.
<mgrwt>
<rscale>  0 0.11101391E+04</rscale>
<asrwt>0</asrwt>
<pdfrwt beam="1">  1        2 0.27627870E+00 0.11101391E+04</pdfrwt>
<pdfrwt beam="2">  1       -2 0.31227191E+00 0.11101391E+04</pdfrwt>
<totfact> 0.22970174E-01</totfact>
</mgrwt>
</event>
<event>
 4    1  0.6912310E-008  0.4546572E+03  0.7818608E-02  0.1026342E+00
          2   -1    0    0  501    0  0.00000000000E+00  0.00000000000E+00  0.62839506656E+03  0.62839506656E+03  0.25500000000E-02 0. -1.
         -2   -1    0    0    0  501 -0.00000000000E+00 -0.00000000000E+00 -0.82706271429E+03  0.82706271430E+03  0.25500000000E-02 0.  1.
    8880022    1    1    2    0    0  0.38223565451E+03  0.19291812955E+03 -0.66409184507E+03  0.80481745259E+03  0.15294330000E+03 0.  0.
    8880022    1    1    2    0    0 -0.38223565451E+03 -0.19291812955E+03  0.46542419733E+03  0.65064032827E+03  0.15294330000E+03 0.  0.
<mgrwt>
<rscale>  0 0.45465718E+03</rscale>
<asrwt>0</asrwt>
<pdfrwt beam="1">  1        2 0.96676164E-01 0.45465718E+03</pdfrwt>
<pdfrwt beam="2">  1       -2 0.12724042E+00 0.45465718E+03</pdfrwt>
<totfact> 0.22523029E+01</totfact>
</mgrwt>
</event>
<event>
 4    1  0.6912310E-008  0.5655577E+03  0.7818608E-02  0.9979557E-01
         -2   -1    0    0    0  501 -0.00000000000E+00  0.00000000000E+00  0.37364132592E+03  0.37364132592E+03  0.25500000000E-02 0.  1.
          2   -1    0    0  501    0  0.00000000000E+00 -0.00000000000E+00 -0.19039141517E+04  0.19039141517E+04  0.25500000000E-02 0. -1.
    8880022    1    1    2    0    0 -0.53394914424E+03 -0.10659354789E+03 -0.16099635430E+04  0.17064108931E+04  0.15294330000E+03 0.  0.
    8880022    1    1    2    0    0  0.53394914424E+03  0.10659354789E+03  0.79690717210E+02  0.57114458459E+03  0.15294330000E+03 0.  0.
<mgrwt>
<rscale>  0 0.56555771E+03</rscale>
<asrwt>0</asrwt>
<pdfrwt beam="1">  1        2 0.29290986E+00 0.56555771E+03</pdfrwt>
<pdfrwt beam="2">  1       -2 0.57483282E-01 0.56555771E+03</pdfrwt>
<totfact> 0.22733525E+01</totfact>
</mgrwt>
</event>
<event>
 4    1  0.6912310E-008  0.3963552E+03  0.7818608E-02  0.1045049E+00
         -2   -1    0    0    0  501 -0.00000000000E+00  0.00000000000E+00  0.21591487897E+03  0.21591487899E+03  0.25500000000E-02 0.  1.
          2   -1    0    0  501    0  0.00000000000E+00 -0.00000000000E+00 -0.88113523186E+03  0.88113523187E+03  0.25500000000E-02 0. -1.
    8880022    1    1    2    0    0 -0.80468970067E+02  0.35669384205E+03 -0.56158831470E+03  0.68737096267E+03  0.15294330000E+03 0.  1.
    8880022    1    1    2    0    0  0.80468970067E+02 -0.35669384205E+03 -0.10363203819E+03  0.40967914818E+03  0.15294330000E+03 0.  0.
<mgrwt>
<rscale>  0 0.39635515E+03</rscale>
<asrwt>0</asrwt>
<pdfrwt beam="1">  1        2 0.13555926E+00 0.39635515E+03</pdfrwt>
<pdfrwt beam="2">  1       -2 0.33217674E-01 0.39635515E+03</pdfrwt>
<totfact> 0.26369681E+02</totfact>
</mgrwt>
</event>
<event>
 4    1  0.6912310E-008  0.3988226E+03  0.7818608E-02  0.1044188E+00
          2   -1    0    0  501    0  0.00000000000E+00  0.00000000000E+00  0.44715562564E+04  0.44715562564E+04  0.25500000000E-02 0. -1.
         -2   -1    0    0    0  501 -0.00000000000E+00 -0.00000000000E+00 -0.92896385390E+02  0.92896385425E+02  0.25500000000E-02 0.  1.
    8880022    1    1    2    0    0  0.36831581167E+03  0.33591892144E+01  0.39821277486E+04  0.40020495849E+04  0.15294330000E+03 0.  0.
    8880022    1    1    2    0    0 -0.36831581167E+03 -0.33591892144E+01  0.39653212247E+03  0.56240305693E+03  0.15294330000E+03 0.  0.
<mgrwt>
<rscale>  0 0.39882261E+03</rscale>
<asrwt>0</asrwt>
<pdfrwt beam="1">  1        2 0.68793184E+00 0.39882261E+03</pdfrwt>
<pdfrwt beam="2">  1       -2 0.14291749E-01 0.39882261E+03</pdfrwt>
<totfact> 0.62811764E+00</totfact>
</mgrwt>
</event>
<event>
 4    1  0.6912310E-008  0.6295193E+03  0.7818608E-02  0.9845987E-01
         -2   -1    0    0    0  501 -0.00000000000E+00  0.00000000000E+00  0.61575268561E+03  0.61575268562E+03  0.25500000000E-02 0.  1.
          2   -1    0    0  501    0  0.00000000000E+00 -0.00000000000E+00 -0.19749268159E+04  0.19749268159E+04  0.25500000000E-02 0. -1.
    8880022    1    1    2    0    0 -0.55214442234E+03 -0.26084363734E+03  0.38394739221E+03  0.73736701802E+03  0.15294330000E+03 0.  0.
    8880022    1    1    2    0    0  0.55214442234E+03  0.26084363734E+03 -0.17431215225E+04  0.18533124835E+04  0.15294330000E+03 0.  0.
<mgrwt>
<rscale>  0 0.62951928E+03</rscale>
<asrwt>0</asrwt>
<pdfrwt beam="1">  1        2 0.30383489E+00 0.62951928E+03</pdfrwt>
<pdfrwt beam="2">  1       -2 0.94731184E-01 0.62951928E+03</pdfrwt>
<totfact> 0.68426261E+00</totfact>
</mgrwt>
</event>
<event>
 4    1  0.6912310E-008  0.3257710E+03  0.7818608E-02  0.1073024E+00
         -2   -1    0    0    0  501 -0.00000000000E+00  0.00000000000E+00  0.77768645285E+03  0.77768645285E+03  0.25500000000E-02 0.  1.
          2   -1    0    0  501    0  0.00000000000E+00 -0.00000000000E+00 -0.17564464105E+04  0.17564464105E+04  0.25500000000E-02 0. -1.
    8880022    1    1    2    0    0 -0.21213519699E+03  0.19425177156E+03 -0.17062298195E+04  0.17370512205E+04  0.15294330000E+03 0.  0.
    8880022    1    1    2    0    0  0.21213519699E+03 -0.19425177156E+03  0.72746986183E+03  0.79708164290E+03  0.15294330000E+03 0.  1.
<mgrwt>
<rscale>  0 0.32577100E+03</rscale>
<asrwt>0</asrwt>
<pdfrwt beam="1">  1        2 0.27022252E+00 0.32577100E+03</pdfrwt>
<pdfrwt beam="2">  1       -2 0.11964407E+00 0.32577100E+03</pdfrwt>
<totfact> 0.55624950E+00</totfact>
</mgrwt>
</event>
<event>
 4    1  0.6912310E-008  0.8512240E+03  0.7818608E-02  0.9488696E-01
         -2   -1    0    0    0  501 -0.00000000000E+00  0.00000000000E+00  0.69598163743E+03  0.69598163744E+03  0.25500000000E-02 0.  1.
          2   -1    0    0  501    0  0.00000000000E+00 -0.00000000000E+00 -0.11275279429E+04  0.11275279429E+04  0.25500000000E-02 0. -1.
    8880022    1    1    2    0    0  0.81149571478E+03  0.20655577067E+03  0.36666061911E+02  0.85201328312E+03  0.15294330000E+03 0.  0.
    8880022    1    1    2    0    0 -0.81149571478E+03 -0.20655577067E+03 -0.46821236734E+03  0.97149629718E+03  0.15294330000E+03 0.  0.
<mgrwt>
<rscale>  0 0.85122396E+03</rscale>
<asrwt>0</asrwt>
<pdfrwt beam="1">  1        2 0.17346584E+00 0.85122396E+03</pdfrwt>
<pdfrwt beam="2">  1       -2 0.10707410E+00 0.85122396E+03</pdfrwt>
<totfact> 0.14801619E+01</totfact>
</mgrwt>
</event>
<event>
 4    1  0.6912310E-008  0.2813809E+03  0.7818608E-02  0.1094937E+00
         -2   -1    0    0    0  501 -0.00000000000E+00  0.00000000000E+00  0.10173378961E+03  0.10173378964E+03  0.25500000000E-02 0.  1.
          2   -1    0    0  501    0  0.00000000000E+00 -0.00000000000E+00 -0.25531836859E+04  0.25531836859E+04  0.25500000000E-02 0. -1.
    8880022    1    1    2    0    0  0.10479180111E+03  0.21166537787E+03 -0.23325271177E+04  0.23494377969E+04  0.15294330000E+03 0.  0.
    8880022    1    1    2    0    0 -0.10479180111E+03 -0.21166537787E+03 -0.11892277859E+03  0.30547967863E+03  0.15294330000E+03 0.  1.
<mgrwt>
<rscale>  0 0.28138089E+03</rscale>
<asrwt>0</asrwt>
<pdfrwt beam="1">  1        2 0.39279744E+00 0.28138089E+03</pdfrwt>
<pdfrwt beam="2">  1       -2 0.15651354E-01 0.28138089E+03</pdfrwt>
<totfact> 0.11975788E+02</totfact>
</mgrwt>
</event>
<event>
 4    1  0.6912310E-008  0.5364609E+03  0.7818608E-02  0.1004677E+00
          2   -1    0    0  501    0  0.00000000000E+00  0.00000000000E+00  0.40272825663E+04  0.40272825663E+04  0.25500000000E-02 0. -1.
         -2   -1    0    0    0  501 -0.00000000000E+00 -0.00000000000E+00 -0.74599699133E+02  0.74599699176E+02  0.25500000000E-02 0.  1.
    8880022    1    1    2    0    0 -0.48458583230E+03  0.17197433275E+03  0.15555976870E+04  0.16455012661E+04  0.15294330000E+03 0.  0.
    8880022    1    1    2    0    0  0.48458583230E+03 -0.17197433275E+03  0.23970851802E+04  0.24563809994E+04  0.15294330000E+03 0.  0.
<mgrwt>
<rscale>  0 0.53646086E+03</rscale>
<asrwt>0</asrwt>
<pdfrwt beam="1">  1        2 0.61958205E+00 0.53646086E+03</pdfrwt>
<pdfrwt beam="2">  1       -2 0.11476875E-01 0.53646086E+03</pdfrwt>
<totfact> 0.20586369E+01</totfact>
</mgrwt>
</event>
<event>
 4    1  0.6912310E-008  0.1601044E+03  0.7818608E-02  0.1188579E+00
         -2   -1    0    0    0  501 -0.00000000000E+00  0.00000000000E+00  0.18431857185E+03  0.18431857187E+03  0.25500000000E-02 0.  1.
          2   -1    0    0  501    0  0.00000000000E+00 -0.00000000000E+00 -0.26972065085E+03  0.26972065086E+03  0.25500000000E-02 0. -1.
    8880022    1    1    2    0    0  0.47092059133E+02  0.49107219961E+01 -0.20070204213E+03  0.25673866081E+03  0.15294330000E+03 0.  0.
    8880022    1    1    2    0    0 -0.47092059133E+02 -0.49107219961E+01  0.11529996313E+03  0.19730056193E+03  0.15294330000E+03 0.  1.
<mgrwt>
<rscale>  0 0.16010444E+03</rscale>
<asrwt>0</asrwt>
<pdfrwt beam="1">  1        2 0.41495485E-01 0.16010444E+03</pdfrwt>
<pdfrwt beam="2">  1       -2 0.28356703E-01 0.16010444E+03</pdfrwt>
<totfact> 0.13743434E+03</totfact>
</mgrwt>
</event>
<event>
 4    1  0.6912310E-008  0.2637932E+03  0.7818608E-02  0.1104885E+00
          2   -1    0    0  501    0  0.00000000000E+00  0.00000000000E+00  0.20168474873E+04  0.20168474873E+04  0.25500000000E-02 0. -1.
         -2   -1    0    0    0  501 -0.00000000000E+00 -0.00000000000E+00 -0.13313181968E+03  0.13313181971E+03  0.25500000000E-02 0.  1.
    8880022    1    1    2    0    0  0.21491106319E+03  0.29047363639E+01  0.18671219959E+04  0.18856647113E+04  0.15294330000E+03 0.  0.
    8880022    1    1    2    0    0 -0.21491106319E+03 -0.29047363639E+01  0.16593671694E+02  0.26431459576E+03  0.15294330000E+03 0.  0.
<mgrwt>
<rscale>  0 0.26379321E+03</rscale>
<asrwt>0</asrwt>
<pdfrwt beam="1">  1        2 0.31028424E+00 0.26379321E+03</pdfrwt>
<pdfrwt beam="2">  1       -2 0.20481818E-01 0.26379321E+03</pdfrwt>
<totfact> 0.14818142E+02</totfact>
</mgrwt>
</event>
<event>
 4    1  0.6912310E-008  0.3262196E+03  0.7818608E-02  0.1072822E+00
         -2   -1    0    0    0  501 -0.00000000000E+00  0.00000000000E+00  0.12100824578E+04  0.12100824578E+04  0.25500000000E-02 0.  1.
          2   -1    0    0  501    0  0.00000000000E+00 -0.00000000000E+00 -0.35522944890E+03  0.35522944891E+03  0.25500000000E-02 0. -1.
    8880022    1    1    2    0    0 -0.26841466093E+03 -0.10479082012E+03 -0.25147108488E+03  0.41189428951E+03  0.15294330000E+03 0.  0.
    8880022    1    1    2    0    0  0.26841466093E+03  0.10479082012E+03  0.11063240938E+04  0.11534176172E+04  0.15294330000E+03 0.  0.
<mgrwt>
<rscale>  0 0.32621956E+03</rscale>
<asrwt>0</asrwt>
<pdfrwt beam="1">  1        2 0.54650685E-01 0.32621956E+03</pdfrwt>
<pdfrwt beam="2">  1       -2 0.18616653E+00 0.32621956E+03</pdfrwt>
<totfact> 0.16069728E+01</totfact>
</mgrwt>
</event>
<event>
 4    1  0.6912310E-008  0.9552942E+03  0.7818608E-02  0.9358984E-01
          2   -1    0    0  501    0  0.00000000000E+00  0.00000000000E+00  0.34898182401E+04  0.34898182401E+04  0.25500000000E-02 0. -1.
         -2   -1    0    0    0  501 -0.00000000000E+00 -0.00000000000E+00 -0.54584466012E+03  0.54584466013E+03  0.25500000000E-02 0.  1.
    8880022    1    1    2    0    0 -0.65638729396E+03 -0.67701632953E+03  0.29283610192E+04  0.30802411110E+04  0.15294330000E+03 0. -1.
    8880022    1    1    2    0    0  0.65638729396E+03  0.67701632953E+03  0.15612560710E+02  0.95542178916E+03  0.15294330000E+03 0.  0.
<mgrwt>
<rscale>  0 0.95529422E+03</rscale>
<asrwt>0</asrwt>
<pdfrwt beam="1">  1        2 0.53689510E+00 0.95529422E+03</pdfrwt>
<pdfrwt beam="2">  1       -2 0.83976103E-01 0.95529422E+03</pdfrwt>
<totfact> 0.10674598E+00</totfact>
</mgrwt>
</event>
<event>
 4    1  0.6912310E-008  0.2612720E+03  0.7818608E-02  0.1106381E+00
         -2   -1    0    0    0  501 -0.00000000000E+00  0.00000000000E+00  0.58930025595E+02  0.58930025650E+02  0.25500000000E-02 0.  1.
          2   -1    0    0  501    0  0.00000000000E+00 -0.00000000000E+00 -0.16558048829E+04  0.16558048829E+04  0.25500000000E-02 0. -1.
    8880022    1    1    2    0    0  0.59757984085E+01  0.21174441077E+03 -0.12683622904E+04  0.12949926480E+04  0.15294330000E+03 0.  0.
    8880022    1    1    2    0    0 -0.59757984085E+01 -0.21174441077E+03 -0.32851256687E+03  0.41974226052E+03  0.15294330000E+03 0.  1.
<mgrwt>
<rscale>  0 0.26127200E+03</rscale>
<asrwt>0</asrwt>
<pdfrwt beam="1">  1        2 0.25473918E+00 0.26127200E+03</pdfrwt>
<pdfrwt beam="2">  1       -2 0.90661591E-02 0.26127200E+03</pdfrwt>
<totfact> 0.87689605E+02</totfact>
</mgrwt>
</event>
<event>
 4    1  0.6912310E-008  0.6856588E+03  0.7818608E-02  0.9742077E-01
          2   -1    0    0  501    0  0.00000000000E+00  0.00000000000E+00  0.46889824632E+03  0.46889824633E+03  0.25500000000E-02 0. -1.
         -2   -1    0    0    0  501 -0.00000000000E+00 -0.00000000000E+00 -0.17651924247E+04  0.17651924247E+04  0.25500000000E-02 0.  1.
    8880022    1    1    2    0    0  0.12565152375E+03 -0.65646634838E+03  0.86053201126E+02  0.69103775470E+03  0.15294330000E+03 0.  0.
    8880022    1    1    2    0    0 -0.12565152375E+03  0.65646634838E+03 -0.13823473795E+04  0.15430529164E+04  0.15294330000E+03 0.  0.
<mgrwt>
<rscale>  0 0.68565883E+03</rscale>
<asrwt>0</asrwt>
<pdfrwt beam="1">  1        2 0.72138192E-01 0.68565883E+03</pdfrwt>
<pdfrwt beam="2">  1       -2 0.27156806E+00 0.68565883E+03</pdfrwt>
<totfact> 0.32832291E+00</totfact>
</mgrwt>
</event>
<event>
 4    1  0.6912310E-008  0.9017371E+03  0.7818608E-02  0.9423413E-01
         -2   -1    0    0    0  501 -0.00000000000E+00  0.00000000000E+00  0.53508077996E+03  0.53508077997E+03  0.25500000000E-02 0.  1.
          2   -1    0    0  501    0  0.00000000000E+00 -0.00000000000E+00 -0.17460807159E+04  0.17460807159E+04  0.25500000000E-02 0. -1.
    8880022    1    1    2    0    0 -0.56941427705E+01 -0.88865383709E+03 -0.19475531035E+03  0.92252877970E+03  0.15294330000E+03 0.  0.
    8880022    1    1    2    0    0  0.56941427705E+01  0.88865383709E+03 -0.10162446256E+04  0.13586327162E+04  0.15294330000E+03 0.  0.
<mgrwt>
<rscale>  0 0.90173706E+03</rscale>
<asrwt>0</asrwt>
<pdfrwt beam="1">  1        2 0.26862780E+00 0.90173706E+03</pdfrwt>
<pdfrwt beam="2">  1       -2 0.82320121E-01 0.90173706E+03</pdfrwt>
<totfact> 0.12097190E+01</totfact>
</mgrwt>
</event>
<event>
 4    1  0.6912310E-008  0.7869681E+03  0.7818608E-02  0.9579074E-01
          2   -1    0    0  501    0  0.00000000000E+00  0.00000000000E+00  0.76656654548E+03  0.76656654548E+03  0.25500000000E-02 0. -1.
         -2   -1    0    0    0  501 -0.00000000000E+00 -0.00000000000E+00 -0.21640746401E+04  0.21640746401E+04  0.25500000000E-02 0.  1.
    8880022    1    1    2    0    0  0.25771782619E+03 -0.72767342846E+03  0.46123084124E+03  0.91216919392E+03  0.15294330000E+03 0.  0.
    8880022    1    1    2    0    0 -0.25771782619E+03  0.72767342846E+03 -0.18587389359E+04  0.20184719917E+04  0.15294330000E+03 0.  0.
<mgrwt>
<rscale>  0 0.78696807E+03</rscale>
<asrwt>0</asrwt>
<pdfrwt beam="1">  1        2 0.11793332E+00 0.78696807E+03</pdfrwt>
<pdfrwt beam="2">  1       -2 0.33293456E+00 0.78696807E+03</pdfrwt>
<totfact> 0.75801201E-01</totfact>
</mgrwt>
</event>
<event>
 4    1  0.6912310E-008  0.8532135E+03  0.7818608E-02  0.9486034E-01
          2   -1    0    0  501    0  0.00000000000E+00  0.00000000000E+00  0.74436586267E+03  0.74436586267E+03  0.25500000000E-02 0. -1.
         -2   -1    0    0    0  501 -0.00000000000E+00 -0.00000000000E+00 -0.16217459069E+04  0.16217459069E+04  0.25500000000E-02 0.  1.
    8880022    1    1    2    0    0 -0.19104099152E+03 -0.81736466022E+03 -0.11840714678E+04  0.14594514525E+04  0.15294330000E+03 0.  0.
    8880022    1    1    2    0    0  0.19104099152E+03  0.81736466022E+03  0.30669142362E+03  0.90666031707E+03  0.15294330000E+03 0.  0.
<mgrwt>
<rscale>  0 0.85321351E+03</rscale>
<asrwt>0</asrwt>
<pdfrwt beam="1">  1        2 0.11451783E+00 0.85321351E+03</pdfrwt>
<pdfrwt beam="2">  1       -2 0.24949937E+00 0.85321351E+03</pdfrwt>
<totfact> 0.24899176E+00</totfact>
</mgrwt>
</event>
<event>
 4    1  0.6912310E-008  0.4596493E+03  0.7818608E-02  0.1024883E+00
         -2   -1    0    0    0  501 -0.00000000000E+00  0.00000000000E+00  0.15849702505E+03  0.15849702507E+03  0.25500000000E-02 0.  1.
          2   -1    0    0  501    0  0.00000000000E+00 -0.00000000000E+00 -0.26699128869E+04  0.26699128869E+04  0.25500000000E-02 0. -1.
    8880022    1    1    2    0    0 -0.21699103492E+03  0.37523423089E+03 -0.22564320897E+04  0.23027729514E+04  0.15294330000E+03 0.  0.
    8880022    1    1    2    0    0  0.21699103492E+03 -0.37523423089E+03 -0.25498377220E+03  0.52563696062E+03  0.15294330000E+03 0.  0.
<mgrwt>
<rscale>  0 0.45964931E+03</rscale>
<asrwt>0</asrwt>
<pdfrwt beam="1">  1        2 0.41075580E+00 0.45964931E+03</pdfrwt>
<pdfrwt beam="2">  1       -2 0.24384160E-01 0.45964931E+03</pdfrwt>
<totfact> 0.45719196E+01</totfact>
</mgrwt>
</event>
<event>
 4    1  0.6912310E-008  0.5511738E+03  0.7818608E-02  0.1001223E+00
          2   -1    0    0  501    0  0.00000000000E+00  0.00000000000E+00  0.23796525295E+04  0.23796525295E+04  0.25500000000E-02 0. -1.
         -2   -1    0    0    0  501 -0.00000000000E+00 -0.00000000000E+00 -0.15877009174E+03  0.15877009176E+03  0.25500000000E-02 0.  1.
    8880022    1    1    2    0    0 -0.11275473323E+03 -0.51738499238E+03  0.54864032897E+03  0.77768806330E+03  0.15294330000E+03 0.  0.
    8880022    1    1    2    0    0  0.11275473323E+03  0.51738499238E+03  0.16722421088E+04  0.17607345580E+04  0.15294330000E+03 0.  0.
<mgrwt>
<rscale>  0 0.55117376E+03</rscale>
<asrwt>0</asrwt>
<pdfrwt beam="1">  1        2 0.36610038E+00 0.55117376E+03</pdfrwt>
<pdfrwt beam="2">  1       -2 0.24426169E-01 0.55117376E+03</pdfrwt>
<totfact> 0.65148114E+01</totfact>
</mgrwt>
</event>
<event>
 4    1  0.6912310E-008  0.7444998E+03  0.7818608E-02  0.9644019E-01
         -2   -1    0    0    0  501 -0.00000000000E+00  0.00000000000E+00  0.10976681504E+04  0.10976681504E+04  0.25500000000E-02 0.  1.
          2   -1    0    0  501    0  0.00000000000E+00 -0.00000000000E+00 -0.10166394052E+04  0.10166394052E+04  0.25500000000E-02 0. -1.
    8880022    1    1    2    0    0  0.48133434939E+03 -0.54699688442E+03 -0.70947151020E+03  0.10284113108E+04  0.15294330000E+03 0.  0.
    8880022    1    1    2    0    0 -0.48133434939E+03  0.54699688442E+03  0.79050025544E+03  0.10858962447E+04  0.15294330000E+03 0.  0.
<mgrwt>
<rscale>  0 0.74449983E+03</rscale>
<asrwt>0</asrwt>
<pdfrwt beam="1">  1        2 0.15640606E+00 0.74449983E+03</pdfrwt>
<pdfrwt beam="2">  1       -2 0.16887202E+00 0.74449983E+03</pdfrwt>
<totfact> 0.54486982E+00</totfact>
</mgrwt>
</event>
<event>
 4    1  0.6912310E-008  0.6852844E+03  0.7818608E-02  0.9742734E-01
          2   -1    0    0  501    0  0.00000000000E+00  0.00000000000E+00  0.80071888903E+03  0.80071888904E+03  0.25500000000E-02 0. -1.
         -2   -1    0    0    0  501 -0.00000000000E+00 -0.00000000000E+00 -0.14863806193E+04  0.14863806193E+04  0.25500000000E-02 0.  1.
    8880022    1    1    2    0    0  0.47971696463E+03  0.46485988683E+03 -0.12326148302E+04  0.14103028232E+04  0.15294330000E+03 0.  0.
    8880022    1    1    2    0    0 -0.47971696463E+03 -0.46485988683E+03  0.54695309992E+03  0.87679668513E+03  0.15294330000E+03 0.  0.
<mgrwt>
<rscale>  0 0.68528442E+03</rscale>
<asrwt>0</asrwt>
<pdfrwt beam="1">  1        2 0.12318752E+00 0.68528442E+03</pdfrwt>
<pdfrwt beam="2">  1       -2 0.22867394E+00 0.68528442E+03</pdfrwt>
<totfact> 0.31106812E+00</totfact>
</mgrwt>
</event>
<event>
 4    1  0.6912310E-008  0.3721457E+03  0.7818608E-02  0.1053876E+00
          2   -1    0    0  501    0  0.00000000000E+00  0.00000000000E+00  0.10868194225E+04  0.10868194225E+04  0.25500000000E-02 0. -1.
         -2   -1    0    0    0  501 -0.00000000000E+00 -0.00000000000E+00 -0.17630083439E+03  0.17630083441E+03  0.25500000000E-02 0.  1.
    8880022    1    1    2    0    0 -0.27057060152E+03  0.20467606988E+03  0.78777831572E+03  0.87125603110E+03  0.15294330000E+03 0. -1.
    8880022    1    1    2    0    0  0.27057060152E+03 -0.20467606988E+03  0.12274027237E+03  0.39186422580E+03  0.15294330000E+03 0.  1.
<mgrwt>
<rscale>  0 0.37214567E+03</rscale>
<asrwt>0</asrwt>
<pdfrwt beam="1">  1        2 0.16720299E+00 0.37214567E+03</pdfrwt>
<pdfrwt beam="2">  1       -2 0.27123205E-01 0.37214567E+03</pdfrwt>
<totfact> 0.28457620E+02</totfact>
</mgrwt>
</event>
<event>
 4    1  0.6912310E-008  0.2038674E+03  0.7818608E-02  0.1146516E+00
         -2   -1    0    0    0  501 -0.00000000000E+00  0.00000000000E+00  0.68582154504E+03  0.68582154504E+03  0.25500000000E-02 0.  1.
          2   -1    0    0  501    0  0.00000000000E+00 -0.00000000000E+00 -0.65803280120E+03  0.65803280120E+03  0.25500000000E-02 0. -1.
    8880022    1    1    2    0    0 -0.14446967627E+02 -0.13402070161E+03 -0.62634498201E+03  0.65868805427E+03  0.15294330000E+03 0. -1.
    8880022    1    1    2    0    0  0.14446967627E+02  0.13402070161E+03  0.65413372585E+03  0.68516629197E+03  0.15294330000E+03 0.  0.
<mgrwt>
<rscale>  0 0.20386740E+03</rscale>
<asrwt>0</asrwt>
<pdfrwt beam="1">  1        2 0.10123582E+00 0.20386740E+03</pdfrwt>
<pdfrwt beam="2">  1       -2 0.10551101E+00 0.20386740E+03</pdfrwt>
<totfact> 0.35263923E+01</totfact>
</mgrwt>
</event>
<event>
 4    1  0.6912310E-008  0.1075201E+04  0.7818608E-02  0.9229706E-01
         -2   -1    0    0    0  501 -0.00000000000E+00  0.00000000000E+00  0.73147022935E+03  0.73147022935E+03  0.25500000000E-02 0.  1.
          2   -1    0    0  501    0  0.00000000000E+00 -0.00000000000E+00 -0.21474245146E+04  0.21474245147E+04  0.25500000000E-02 0. -1.
    8880022    1    1    2    0    0 -0.35000831439E+02 -0.10636914272E+04 -0.14476105036E+04  0.18032283088E+04  0.15294330000E+03 0.  0.
    8880022    1    1    2    0    0  0.35000831439E+02  0.10636914272E+04  0.31656218342E+02  0.10756664352E+04  0.15294330000E+03 0.  0.
<mgrwt>
<rscale>  0 0.10752005E+04</rscale>
<asrwt>0</asrwt>
<pdfrwt beam="1">  1        2 0.33037300E+00 0.10752005E+04</pdfrwt>
<pdfrwt beam="2">  1       -2 0.11253388E+00 0.10752005E+04</pdfrwt>
<totfact> 0.34093917E+00</totfact>
</mgrwt>
</event>
<event>
 4    1  0.6912310E-008  0.1023093E+04  0.7818608E-02  0.9283573E-01
          2   -1    0    0  501    0  0.00000000000E+00  0.00000000000E+00  0.22576905564E+04  0.22576905564E+04  0.25500000000E-02 0. -1.
         -2   -1    0    0    0  501 -0.00000000000E+00 -0.00000000000E+00 -0.69800995119E+03  0.69800995120E+03  0.25500000000E-02 0.  1.
    8880022    1    1    2    0    0 -0.85878431200E+03 -0.53461945399E+03 -0.76537049350E+02  0.10259522543E+04  0.15294330000E+03 0.  0.
    8880022    1    1    2    0    0  0.85878431200E+03  0.53461945399E+03  0.16362176546E+04  0.19297482534E+04  0.15294330000E+03 0.  0.
<mgrwt>
<rscale>  0 0.10230934E+04</rscale>
<asrwt>0</asrwt>
<pdfrwt beam="1">  1        2 0.34733701E+00 0.10230934E+04</pdfrwt>
<pdfrwt beam="2">  1       -2 0.10738615E+00 0.10230934E+04</pdfrwt>
<totfact> 0.33385283E+00</totfact>
</mgrwt>
</event>
<event>
 4    1  0.6912310E-008  0.7482864E+03  0.7818608E-02  0.9638043E-01
         -2   -1    0    0    0  501 -0.00000000000E+00  0.00000000000E+00  0.43114660090E+03  0.43114660090E+03  0.25500000000E-02 0.  1.
          2   -1    0    0  501    0  0.00000000000E+00 -0.00000000000E+00 -0.18832269227E+04  0.18832269227E+04  0.25500000000E-02 0. -1.
    8880022    1    1    2    0    0  0.42059579985E+03  0.59969998759E+03 -0.13707321381E+04  0.15616783117E+04  0.15294330000E+03 0.  0.
    8880022    1    1    2    0    0 -0.42059579985E+03 -0.59969998759E+03 -0.81348183731E+02  0.75269521188E+03  0.15294330000E+03 0.  0.
<mgrwt>
<rscale>  0 0.74828641E+03</rscale>
<asrwt>0</asrwt>
<pdfrwt beam="1">  1        2 0.28972721E+00 0.74828641E+03</pdfrwt>
<pdfrwt beam="2">  1       -2 0.66330247E-01 0.74828641E+03</pdfrwt>
<totfact> 0.16733861E+01</totfact>
</mgrwt>
</event>
<event>
 4    1  0.6912310E-008  0.4643395E+03  0.7818608E-02  0.1023530E+00
          2   -1    0    0  501    0  0.00000000000E+00  0.00000000000E+00  0.12320354180E+04  0.12320354180E+04  0.25500000000E-02 0. -1.
         -2   -1    0    0    0  501 -0.00000000000E+00 -0.00000000000E+00 -0.26409202726E+03  0.26409202728E+03  0.25500000000E-02 0.  1.
    8880022    1    1    2    0    0 -0.14942261681E+03 -0.41218009239E+03  0.91845238009E+03  0.10291578958E+04  0.15294330000E+03 0.  0.
    8880022    1    1    2    0    0  0.14942261681E+03  0.41218009239E+03  0.49491010634E+02  0.46696954947E+03  0.15294330000E+03 0.  0.
<mgrwt>
<rscale>  0 0.46433953E+03</rscale>
<asrwt>0</asrwt>
<pdfrwt beam="1">  1        2 0.18954391E+00 0.46433953E+03</pdfrwt>
<pdfrwt beam="2">  1       -2 0.40629543E-01 0.46433953E+03</pdfrwt>
<totfact> 0.10862712E+02</totfact>
</mgrwt>
</event>
<event>
 4    1  0.6912310E-008  0.7071745E+03  0.7818608E-02  0.9705041E-01
          2   -1    0    0  501    0  0.00000000000E+00  0.00000000000E+00  0.13272229406E+04  0.13272229406E+04  0.25500000000E-02 0. -1.
         -2   -1    0    0    0  501 -0.00000000000E+00 -0.00000000000E+00 -0.70826067690E+03  0.70826067691E+03  0.25500000000E-02 0.  1.
    8880022    1    1    2    0    0 -0.44014492482E+03  0.53195543031E+03  0.10057195016E+04  0.12294582154E+04  0.15294330000E+03 0.  0.
    8880022    1    1    2    0    0  0.44014492482E+03 -0.53195543031E+03 -0.38675723788E+03  0.80602540205E+03  0.15294330000E+03 0.  0.
<mgrwt>
<rscale>  0 0.70717451E+03</rscale>
<asrwt>0</asrwt>
<pdfrwt beam="1">  1        2 0.20418814E+00 0.70717451E+03</pdfrwt>
<pdfrwt beam="2">  1       -2 0.10896318E+00 0.70717451E+03</pdfrwt>
<totfact> 0.11008971E+01</totfact>
</mgrwt>
</event>
<event>
 4    1  0.6912310E-008  0.4302691E+03  0.7818608E-02  0.1033775E+00
         -2   -1    0    0    0  501 -0.00000000000E+00  0.00000000000E+00  0.18345556538E+03  0.18345556540E+03  0.25500000000E-02 0.  1.
          2   -1    0    0  501    0  0.00000000000E+00 -0.00000000000E+00 -0.10346962167E+04  0.10346962167E+04  0.25500000000E-02 0. -1.
    8880022    1    1    2    0    0 -0.11350563413E+02  0.40200870215E+03 -0.32988917288E+03  0.54217926122E+03  0.15294330000E+03 0.  0.
    8880022    1    1    2    0    0  0.11350563413E+02 -0.40200870215E+03 -0.52135147844E+03  0.67597252088E+03  0.15294330000E+03 0.  0.
<mgrwt>
<rscale>  0 0.43026908E+03</rscale>
<asrwt>0</asrwt>
<pdfrwt beam="1">  1        2 0.15918403E+00 0.43026908E+03</pdfrwt>
<pdfrwt beam="2">  1       -2 0.28223934E-01 0.43026908E+03</pdfrwt>
<totfact> 0.28322848E+02</totfact>
</mgrwt>
</event>
<event>
 4    1  0.6912310E-008  0.5787004E+03  0.7818608E-02  0.9950609E-01
          2   -1    0    0  501    0  0.00000000000E+00  0.00000000000E+00  0.14116118967E+04  0.14116118967E+04  0.25500000000E-02 0. -1.
         -2   -1    0    0    0  501 -0.00000000000E+00 -0.00000000000E+00 -0.83187952938E+03  0.83187952939E+03  0.25500000000E-02 0.  1.
    8880022    1    1    2    0    0  0.53831777163E+03  0.14736519945E+03  0.12382632796E+04  0.13668175181E+04  0.15294330000E+03 0. -1.
    8880022    1    1    2    0    0 -0.53831777163E+03 -0.14736519945E+03 -0.65853091235E+03  0.87667390790E+03  0.15294330000E+03 0.  0.
<mgrwt>
<rscale>  0 0.57870042E+03</rscale>
<asrwt>0</asrwt>
<pdfrwt beam="1">  1        2 0.21717106E+00 0.57870042E+03</pdfrwt>
<pdfrwt beam="2">  1       -2 0.12798147E+00 0.57870042E+03</pdfrwt>
<totfact> 0.67769644E+00</totfact>
</mgrwt>
</event>
<event>
 4    1  0.6912310E-008  0.2049819E+03  0.7818608E-02  0.1145603E+00
          2   -1    0    0  501    0  0.00000000000E+00  0.00000000000E+00  0.44336563336E+03  0.44336563337E+03  0.25500000000E-02 0. -1.
         -2   -1    0    0    0  501 -0.00000000000E+00 -0.00000000000E+00 -0.44525254568E+03  0.44525254569E+03  0.25500000000E-02 0.  1.
    8880022    1    1    2    0    0 -0.79067578125E+01  0.13624760441E+03 -0.39514238823E+03  0.44514614063E+03  0.15294330000E+03 0.  0.
    8880022    1    1    2    0    0  0.79067578125E+01 -0.13624760441E+03  0.39325547591E+03  0.44347203843E+03  0.15294330000E+03 0. -1.
<mgrwt>
<rscale>  0 0.20498190E+03</rscale>
<asrwt>0</asrwt>
<pdfrwt beam="1">  1        2 0.68210097E-01 0.20498190E+03</pdfrwt>
<pdfrwt beam="2">  1       -2 0.68500392E-01 0.20498190E+03</pdfrwt>
<totfact> 0.14484661E+02</totfact>
</mgrwt>
</event>
<event>
 4    1  0.6912310E-008  0.5352079E+03  0.7818608E-02  0.1004977E+00
         -2   -1    0    0    0  501 -0.00000000000E+00  0.00000000000E+00  0.90622758894E+02  0.90622758930E+02  0.25500000000E-02 0.  1.
          2   -1    0    0  501    0  0.00000000000E+00 -0.00000000000E+00 -0.34391683169E+04  0.34391683169E+04  0.25500000000E-02 0. -1.
    8880022    1    1    2    0    0  0.44982225036E+03 -0.24640582531E+03 -0.11722298469E+04  0.12886311942E+04  0.15294330000E+03 0.  0.
    8880022    1    1    2    0    0 -0.44982225036E+03  0.24640582531E+03 -0.21763157111E+04  0.22411598817E+04  0.15294330000E+03 0.  0.
<mgrwt>
<rscale>  0 0.53520794E+03</rscale>
<asrwt>0</asrwt>
<pdfrwt beam="1">  1        2 0.52910272E+00 0.53520794E+03</pdfrwt>
<pdfrwt beam="2">  1       -2 0.13941966E-01 0.53520794E+03</pdfrwt>
<totfact> 0.39701994E+01</totfact>
</mgrwt>
</event>
<event>
 4    1  0.6912310E-008  0.9866547E+03  0.7818608E-02  0.9323304E-01
          2   -1    0    0  501    0  0.00000000000E+00  0.00000000000E+00  0.67666347348E+03  0.67666347349E+03  0.25500000000E-02 0. -1.
         -2   -1    0    0    0  501 -0.00000000000E+00 -0.00000000000E+00 -0.15943123288E+04  0.15943123288E+04  0.25500000000E-02 0.  1.
    8880022    1    1    2    0    0  0.89025674916E+03  0.39691162118E+03 -0.81361812730E+03  0.12788518384E+04  0.15294330000E+03 0.  0.
    8880022    1    1    2    0    0 -0.89025674916E+03 -0.39691162118E+03 -0.10403072806E+03  0.99212396395E+03  0.15294330000E+03 0.  0.
<mgrwt>
<rscale>  0 0.98665474E+03</rscale>
<asrwt>0</asrwt>
<pdfrwt beam="1">  1        2 0.10410207E+00 0.98665474E+03</pdfrwt>
<pdfrwt beam="2">  1       -2 0.24527882E+00 0.98665474E+03</pdfrwt>
<totfact> 0.29362053E+00</totfact>
</mgrwt>
</event>
<event>
 4    1  0.6912310E-008  0.1855274E+03  0.7818608E-02  0.1162558E+00
          2   -1    0    0  501    0  0.00000000000E+00  0.00000000000E+00  0.10711875757E+04  0.10711875757E+04  0.25500000000E-02 0. -1.
         -2   -1    0    0    0  501 -0.00000000000E+00 -0.00000000000E+00 -0.42316693003E+04  0.42316693003E+04  0.25500000000E-02 0.  1.
    8880022    1    1    2    0    0  0.61153941769E+02  0.85375388675E+02 -0.42215833791E+04  0.42256581311E+04  0.15294330000E+03 0.  0.
    8880022    1    1    2    0    0 -0.61153941769E+02 -0.85375388675E+02  0.10611016545E+04  0.10771987448E+04  0.15294330000E+03 0. -1.
<mgrwt>
<rscale>  0 0.18552740E+03</rscale>
<asrwt>0</asrwt>
<pdfrwt beam="1">  1        2 0.16479809E+00 0.18552740E+03</pdfrwt>
<pdfrwt beam="2">  1       -2 0.65102604E+00 0.18552740E+03</pdfrwt>
<totfact> 0.10249976E-02</totfact>
</mgrwt>
</event>
<event>
 4    1  0.6912310E-008  0.8178926E+03  0.7818608E-02  0.9534473E-01
          2   -1    0    0  501    0  0.00000000000E+00  0.00000000000E+00  0.61837285609E+03  0.61837285609E+03  0.25500000000E-02 0. -1.
         -2   -1    0    0    0  501 -0.00000000000E+00 -0.00000000000E+00 -0.18169552514E+04  0.18169552514E+04  0.25500000000E-02 0.  1.
    8880022    1    1    2    0    0  0.24099359014E+03 -0.76647159237E+03 -0.13738394522E+04  0.15988693211E+04  0.15294330000E+03 0.  0.
    8880022    1    1    2    0    0 -0.24099359014E+03  0.76647159237E+03  0.17525705690E+03  0.83645878643E+03  0.15294330000E+03 0.  0.
<mgrwt>
<rscale>  0 0.81789258E+03</rscale>
<asrwt>0</asrwt>
<pdfrwt beam="1">  1        2 0.95134286E-01 0.81789258E+03</pdfrwt>
<pdfrwt beam="2">  1       -2 0.27953157E+00 0.81789258E+03</pdfrwt>
<totfact> 0.20807393E+00</totfact>
</mgrwt>
</event>
<event>
 4    1  0.6912310E-008  0.7463667E+03  0.7818608E-02  0.9641068E-01
          2   -1    0    0  501    0  0.00000000000E+00  0.00000000000E+00  0.21147179048E+04  0.21147179048E+04  0.25500000000E-02 0. -1.
         -2   -1    0    0    0  501 -0.00000000000E+00 -0.00000000000E+00 -0.42601973790E+03  0.42601973791E+03  0.25500000000E-02 0.  1.
    8880022    1    1    2    0    0 -0.70663148689E+03  0.18532025250E+03  0.16291728757E+04  0.17920009950E+04  0.15294330000E+03 0.  0.
    8880022    1    1    2    0    0  0.70663148689E+03 -0.18532025250E+03  0.59525291182E+02  0.74873664767E+03  0.15294330000E+03 0.  0.
<mgrwt>
<rscale>  0 0.74636674E+03</rscale>
<asrwt>0</asrwt>
<pdfrwt beam="1">  1        2 0.32534122E+00 0.74636674E+03</pdfrwt>
<pdfrwt beam="2">  1       -2 0.65541498E-01 0.74636674E+03</pdfrwt>
<totfact> 0.12838300E+01</totfact>
</mgrwt>
</event>
<event>
 4    1  0.6912310E-008  0.2515336E+03  0.7818608E-02  0.1112339E+00
          2   -1    0    0  501    0  0.00000000000E+00  0.00000000000E+00  0.17776980453E+04  0.17776980453E+04  0.25500000000E-02 0. -1.
         -2   -1    0    0    0  501 -0.00000000000E+00 -0.00000000000E+00 -0.17647536455E+03  0.17647536457E+03  0.25500000000E-02 0.  1.
    8880022    1    1    2    0    0  0.16964467857E+02  0.19897165177E+03 -0.72406718959E+02  0.26174777429E+03  0.15294330000E+03 0.  0.
    8880022    1    1    2    0    0 -0.16964467857E+02 -0.19897165177E+03  0.16736293997E+04  0.16924256356E+04  0.15294330000E+03 0. -1.
<mgrwt>
<rscale>  0 0.25153362E+03</rscale>
<asrwt>0</asrwt>
<pdfrwt beam="1">  1        2 0.27349201E+00 0.25153362E+03</pdfrwt>
<pdfrwt beam="2">  1       -2 0.27150055E-01 0.25153362E+03</pdfrwt>
<totfact> 0.12103585E+02</totfact>
</mgrwt>
</event>
<event>
 4    1  0.6912310E-008  0.7731104E+03  0.7818608E-02  0.9599776E-01
         -2   -1    0    0    0  501 -0.00000000000E+00  0.00000000000E+00  0.58924071975E+03  0.58924071976E+03  0.25500000000E-02 0.  1.
          2   -1    0    0  501    0  0.00000000000E+00 -0.00000000000E+00 -0.17205597007E+04  0.17205597007E+04  0.25500000000E-02 0. -1.
    8880022    1    1    2    0    0 -0.43317452975E+03  0.62182619625E+03 -0.13055623296E+04  0.15172978090E+04  0.15294330000E+03 0.  0.
    8880022    1    1    2    0    0  0.43317452975E+03 -0.62182619625E+03  0.17424334871E+03  0.79250261145E+03  0.15294330000E+03 0.  0.
<mgrwt>
<rscale>  0 0.77311037E+03</rscale>
<asrwt>0</asrwt>
<pdfrwt beam="1">  1        2 0.26470149E+00 0.77311037E+03</pdfrwt>
<pdfrwt beam="2">  1       -2 0.90652419E-01 0.77311037E+03</pdfrwt>
<totfact> 0.10182622E+01</totfact>
</mgrwt>
</event>
<event>
 4    1  0.6912310E-008  0.4456964E+03  0.7818608E-02  0.1029013E+00
         -2   -1    0    0    0  501 -0.00000000000E+00  0.00000000000E+00  0.13495452054E+03  0.13495452057E+03  0.25500000000E-02 0.  1.
          2   -1    0    0  501    0  0.00000000000E+00 -0.00000000000E+00 -0.20765110966E+04  0.20765110966E+04  0.25500000000E-02 0. -1.
    8880022    1    1    2    0    0 -0.14873822249E+03 -0.39131899901E+03 -0.37414713982E+03  0.58192040097E+03  0.15294330000E+03 0.  0.
    8880022    1    1    2    0    0  0.14873822249E+03  0.39131899901E+03 -0.15674094362E+04  0.16295452162E+04  0.15294330000E+03 0.  0.
<mgrwt>
<rscale>  0 0.44569639E+03</rscale>
<asrwt>0</asrwt>
<pdfrwt beam="1">  1        2 0.31946322E+00 0.44569639E+03</pdfrwt>
<pdfrwt beam="2">  1       -2 0.20762235E-01 0.44569639E+03</pdfrwt>
<totfact> 0.12932973E+02</totfact>
</mgrwt>
</event>
<event>
 4    1  0.6912310E-008  0.7056360E+03  0.7818608E-02  0.9707642E-01
          2   -1    0    0  501    0  0.00000000000E+00  0.00000000000E+00  0.15693451032E+04  0.15693451032E+04  0.25500000000E-02 0. -1.
         -2   -1    0    0    0  501 -0.00000000000E+00 -0.00000000000E+00 -0.39763333835E+03  0.39763333835E+03  0.25500000000E-02 0.  1.
    8880022    1    1    2    0    0 -0.43191901266E+03 -0.53663442831E+03  0.10279650438E+04  0.12468497614E+04  0.15294330000E+03 0.  0.
    8880022    1    1    2    0    0  0.43191901266E+03  0.53663442831E+03  0.14374672100E+03  0.72012868014E+03  0.15294330000E+03 0.  0.
<mgrwt>
<rscale>  0 0.70563602E+03</rscale>
<asrwt>0</asrwt>
<pdfrwt beam="1">  1        2 0.24143771E+00 0.70563602E+03</pdfrwt>
<pdfrwt beam="2">  1       -2 0.61174359E-01 0.70563602E+03</pdfrwt>
<totfact> 0.29702740E+01</totfact>
</mgrwt>
</event>
<event>
 4    1  0.6912310E-008  0.6874344E+03  0.7818608E-02  0.9738966E-01
          2   -1    0    0  501    0  0.00000000000E+00  0.00000000000E+00  0.69580668986E+03  0.69580668986E+03  0.25500000000E-02 0. -1.
         -2   -1    0    0    0  501 -0.00000000000E+00 -0.00000000000E+00 -0.10981067579E+04  0.10981067579E+04  0.25500000000E-02 0.  1.
    8880022    1    1    2    0    0  0.60940580916E+03  0.27892467130E+03  0.35287212994E+03  0.77271262809E+03  0.15294330000E+03 0.  0.
    8880022    1    1    2    0    0 -0.60940580916E+03 -0.27892467130E+03 -0.75517219798E+03  0.10212008197E+04  0.15294330000E+03 0.  0.
<mgrwt>
<rscale>  0 0.68743441E+03</rscale>
<asrwt>0</asrwt>
<pdfrwt beam="1">  1        2 0.10704718E+00 0.68743441E+03</pdfrwt>
<pdfrwt beam="2">  1       -2 0.16893950E+00 0.68743441E+03</pdfrwt>
<totfact> 0.91726098E+00</totfact>
</mgrwt>
</event>
<event>
 4    1  0.6912310E-008  0.7455767E+03  0.7818608E-02  0.9642316E-01
          2   -1    0    0  501    0  0.00000000000E+00  0.00000000000E+00  0.10438609464E+04  0.10438609464E+04  0.25500000000E-02 0. -1.
         -2   -1    0    0    0  501 -0.00000000000E+00 -0.00000000000E+00 -0.10882547589E+04  0.10882547589E+04  0.25500000000E-02 0.  1.
    8880022    1    1    2    0    0  0.54894562307E+03 -0.48078227286E+03 -0.78400639804E+03  0.10819198566E+04  0.15294330000E+03 0.  0.
    8880022    1    1    2    0    0 -0.54894562307E+03  0.48078227286E+03  0.73961258547E+03  0.10501958487E+04  0.15294330000E+03 0.  0.
<mgrwt>
<rscale>  0 0.74557665E+03</rscale>
<asrwt>0</asrwt>
<pdfrwt beam="1">  1        2 0.16059399E+00 0.74557665E+03</pdfrwt>
<pdfrwt beam="2">  1       -2 0.16742381E+00 0.74557665E+03</pdfrwt>
<totfact> 0.53631081E+00</totfact>
</mgrwt>
</event>
<event>
 4    1  0.6912310E-008  0.2484853E+03  0.7818608E-02  0.1114266E+00
          2   -1    0    0  501    0  0.00000000000E+00  0.00000000000E+00  0.25023064315E+03  0.25023064316E+03  0.25500000000E-02 0. -1.
         -2   -1    0    0    0  501 -0.00000000000E+00 -0.00000000000E+00 -0.11461213744E+04  0.11461213744E+04  0.25500000000E-02 0.  1.
    8880022    1    1    2    0    0  0.12194200346E+03  0.15324304577E+03 -0.10664153665E+04  0.10949824977E+04  0.15294330000E+03 0.  1.
    8880022    1    1    2    0    0 -0.12194200346E+03 -0.15324304577E+03  0.17052463524E+03  0.30136951990E+03  0.15294330000E+03 0.  0.
<mgrwt>
<rscale>  0 0.24848528E+03</rscale>
<asrwt>0</asrwt>
<pdfrwt beam="1">  1        2 0.38497023E-01 0.24848528E+03</pdfrwt>
<pdfrwt beam="2">  1       -2 0.17632636E+00 0.24848528E+03</pdfrwt>
<totfact> 0.27794372E+01</totfact>
</mgrwt>
</event>
<event>
 4    1  0.6912310E-008  0.7012568E+03  0.7818608E-02  0.9715085E-01
          2   -1    0    0  501    0  0.00000000000E+00  0.00000000000E+00  0.42055739941E+04  0.42055739941E+04  0.25500000000E-02 0. -1.
         -2   -1    0    0    0  501 -0.00000000000E+00 -0.00000000000E+00 -0.19681999502E+03  0.19681999504E+03  0.25500000000E-02 0.  1.
    8880022    1    1    2    0    0 -0.41210142885E+03  0.54638981892E+03  0.34067655654E+04  0.34781910086E+04  0.15294330000E+03 0.  0.
    8880022    1    1    2    0    0  0.41210142885E+03 -0.54638981892E+03  0.60198843368E+03  0.92420298051E+03  0.15294330000E+03 0.  0.
<mgrwt>
<rscale>  0 0.70125678E+03</rscale>
<asrwt>0</asrwt>
<pdfrwt beam="1">  1        2 0.64701137E+00 0.70125678E+03</pdfrwt>
<pdfrwt beam="2">  1       -2 0.30280000E-01 0.70125678E+03</pdfrwt>
<totfact> 0.26205566E+00</totfact>
</mgrwt>
</event>
<event>
 4    1  0.6912310E-008  0.5128786E+03  0.7818608E-02  0.1010471E+00
         -2   -1    0    0    0  501 -0.00000000000E+00  0.00000000000E+00  0.53740231360E+03  0.53740231360E+03  0.25500000000E-02 0.  1.
          2   -1    0    0  501    0  0.00000000000E+00 -0.00000000000E+00 -0.11937633475E+04  0.11937633475E+04  0.25500000000E-02 0. -1.
    8880022    1    1    2    0    0 -0.48823981572E+03 -0.35702276910E+02 -0.99303269219E+03  0.11176575285E+04  0.15294330000E+03 0.  0.
    8880022    1    1    2    0    0  0.48823981572E+03  0.35702276910E+02  0.33667165830E+03  0.61350813259E+03  0.15294330000E+03 0.  0.
<mgrwt>
<rscale>  0 0.51287857E+03</rscale>
<asrwt>0</asrwt>
<pdfrwt beam="1">  1        2 0.18365590E+00 0.51287857E+03</pdfrwt>
<pdfrwt beam="2">  1       -2 0.82677279E-01 0.51287857E+03</pdfrwt>
<totfact> 0.25754727E+01</totfact>
</mgrwt>
</event>
<event>
 4    1  0.6912310E-008  0.9515273E+03  0.7818608E-02  0.9363367E-01
          2   -1    0    0  501    0  0.00000000000E+00  0.00000000000E+00  0.13076305917E+04  0.13076305917E+04  0.25500000000E-02 0. -1.
         -2   -1    0    0    0  501 -0.00000000000E+00 -0.00000000000E+00 -0.14326100964E+04  0.14326100964E+04  0.25500000000E-02 0.  1.
    8880022    1    1    2    0    0 -0.92870884588E+03 -0.13968694329E+03 -0.10473441655E+04  0.14150385212E+04  0.15294330000E+03 0.  0.
    8880022    1    1    2    0    0  0.92870884588E+03  0.13968694329E+03  0.92236466081E+03  0.13252021669E+04  0.15294330000E+03 0.  0.
<mgrwt>
<rscale>  0 0.95152731E+03</rscale>
<asrwt>0</asrwt>
<pdfrwt beam="1">  1        2 0.20117394E+00 0.95152731E+03</pdfrwt>
<pdfrwt beam="2">  1       -2 0.22040155E+00 0.95152731E+03</pdfrwt>
<totfact> 0.16087174E+00</totfact>
</mgrwt>
</event>
<event>
 4    1  0.6912310E-008  0.5031809E+03  0.7818608E-02  0.1012952E+00
          2   -1    0    0  501    0  0.00000000000E+00  0.00000000000E+00  0.91685744975E+03  0.91685744975E+03  0.25500000000E-02 0. -1.
         -2   -1    0    0    0  501 -0.00000000000E+00 -0.00000000000E+00 -0.79749625006E+03  0.79749625007E+03  0.25500000000E-02 0.  1.
    8880022    1    1    2    0    0  0.47890023330E+03  0.21305992288E+02 -0.63337623498E+03  0.80892304134E+03  0.15294330000E+03 0.  0.
    8880022    1    1    2    0    0 -0.47890023330E+03 -0.21305992288E+02  0.75273743466E+03  0.90543065848E+03  0.15294330000E+03 0.  0.
<mgrwt>
<rscale>  0 0.50318091E+03</rscale>
<asrwt>0</asrwt>
<pdfrwt beam="1">  1        2 0.14105499E+00 0.50318091E+03</pdfrwt>
<pdfrwt beam="2">  1       -2 0.12269173E+00 0.50318091E+03</pdfrwt>
<totfact> 0.15062661E+01</totfact>
</mgrwt>
</event>
<event>
 4    1  0.6912310E-008  0.2493060E+03  0.7818608E-02  0.1113744E+00
         -2   -1    0    0    0  501 -0.00000000000E+00  0.00000000000E+00  0.20769770706E+03  0.20769770707E+03  0.25500000000E-02 0.  1.
          2   -1    0    0  501    0  0.00000000000E+00 -0.00000000000E+00 -0.10798904988E+04  0.10798904988E+04  0.25500000000E-02 0. -1.
    8880022    1    1    2    0    0 -0.19684858622E+03  0.35297778635E+01 -0.98346861839E+03  0.10145757742E+04  0.15294330000E+03 0.  0.
    8880022    1    1    2    0    0  0.19684858622E+03 -0.35297778635E+01  0.11127582666E+03  0.27301243166E+03  0.15294330000E+03 0.  0.
<mgrwt>
<rscale>  0 0.24930599E+03</rscale>
<asrwt>0</asrwt>
<pdfrwt beam="1">  1        2 0.16613700E+00 0.24930599E+03</pdfrwt>
<pdfrwt beam="2">  1       -2 0.31953494E-01 0.24930599E+03</pdfrwt>
<totfact> 0.21660058E+02</totfact>
</mgrwt>
</event>
<event>
 4    1  0.6912310E-008  0.4162751E+03  0.7818608E-02  0.1038286E+00
          2   -1    0    0  501    0  0.00000000000E+00  0.00000000000E+00  0.17947543362E+04  0.17947543362E+04  0.25500000000E-02 0. -1.
         -2   -1    0    0    0  501 -0.00000000000E+00 -0.00000000000E+00 -0.17829625451E+03  0.17829625453E+03  0.25500000000E-02 0.  1.
    8880022    1    1    2    0    0 -0.11650874925E+03 -0.36921400580E+03  0.14024054077E+03  0.43926339823E+03  0.15294330000E+03 0.  0.
    8880022    1    1    2    0    0  0.11650874925E+03  0.36921400580E+03  0.14762175409E+04  0.15337871925E+04  0.15294330000E+03 0.  0.
<mgrwt>
<rscale>  0 0.41627506E+03</rscale>
<asrwt>0</asrwt>
<pdfrwt beam="1">  1        2 0.27611605E+00 0.41627506E+03</pdfrwt>
<pdfrwt beam="2">  1       -2 0.27430193E-01 0.41627506E+03</pdfrwt>
<totfact> 0.11218794E+02</totfact>
</mgrwt>
</event>
<event>
 4    1  0.6912310E-008  0.3425582E+03  0.7818608E-02  0.1065712E+00
          2   -1    0    0  501    0  0.00000000000E+00  0.00000000000E+00  0.11066690968E+04  0.11066690968E+04  0.25500000000E-02 0. -1.
         -2   -1    0    0    0  501 -0.00000000000E+00 -0.00000000000E+00 -0.40774380921E+03  0.40774380922E+03  0.25500000000E-02 0.  1.
    8880022    1    1    2    0    0 -0.18850488773E+03  0.24170312652E+03  0.10008124609E+04  0.10578146005E+04  0.15294330000E+03 0. -1.
    8880022    1    1    2    0    0  0.18850488773E+03 -0.24170312652E+03 -0.30188717340E+03  0.45659830546E+03  0.15294330000E+03 0.  0.
<mgrwt>
<rscale>  0 0.34255824E+03</rscale>
<asrwt>0</asrwt>
<pdfrwt beam="1">  1        2 0.17025678E+00 0.34255824E+03</pdfrwt>
<pdfrwt beam="2">  1       -2 0.62729817E-01 0.34255824E+03</pdfrwt>
<totfact> 0.54499907E+01</totfact>
</mgrwt>
</event>
<event>
 4    1  0.6912310E-008  0.4343939E+03  0.7818608E-02  0.1032481E+00
          2   -1    0    0  501    0  0.00000000000E+00  0.00000000000E+00  0.28098941493E+04  0.28098941493E+04  0.25500000000E-02 0. -1.
         -2   -1    0    0    0  501 -0.00000000000E+00 -0.00000000000E+00 -0.78753033004E+02  0.78753033045E+02  0.25500000000E-02 0.  1.
    8880022    1    1    2    0    0 -0.38119189993E+03  0.14141839648E+03  0.19198457454E+04  0.19683764291E+04  0.15294330000E+03 0.  1.
    8880022    1    1    2    0    0  0.38119189993E+03 -0.14141839648E+03  0.81129537084E+03  0.92027075320E+03  0.15294330000E+03 0.  0.
<mgrwt>
<rscale>  0 0.43439392E+03</rscale>
<asrwt>0</asrwt>
<pdfrwt beam="1">  1        2 0.43229139E+00 0.43439392E+03</pdfrwt>
<pdfrwt beam="2">  1       -2 0.12115852E-01 0.43439392E+03</pdfrwt>
<totfact> 0.12580157E+02</totfact>
</mgrwt>
</event>
<event>
 4    1  0.6912310E-008  0.2898899E+03  0.7818608E-02  0.1090407E+00
         -2   -1    0    0    0  501 -0.00000000000E+00  0.00000000000E+00  0.18664206265E+03  0.18664206267E+03  0.25500000000E-02 0.  1.
          2   -1    0    0  501    0  0.00000000000E+00 -0.00000000000E+00 -0.80662920035E+03  0.80662920035E+03  0.25500000000E-02 0. -1.
    8880022    1    1    2    0    0  0.17811104385E+03  0.17006168427E+03 -0.64010090120E+03  0.70268437946E+03  0.15294330000E+03 0. -1.
    8880022    1    1    2    0    0 -0.17811104385E+03 -0.17006168427E+03  0.20113763510E+02  0.29058688356E+03  0.15294330000E+03 0.  0.
<mgrwt>
<rscale>  0 0.28988993E+03</rscale>
<asrwt>0</asrwt>
<pdfrwt beam="1">  1        2 0.12409680E+00 0.28988993E+03</pdfrwt>
<pdfrwt beam="2">  1       -2 0.28714164E-01 0.28988993E+03</pdfrwt>
<totfact> 0.39087869E+02</totfact>
</mgrwt>
</event>
<event>
 4    1  0.6912310E-008  0.6719512E+03  0.7818608E-02  0.9766439E-01
          2   -1    0    0  501    0  0.00000000000E+00  0.00000000000E+00  0.12293977398E+04  0.12293977398E+04  0.25500000000E-02 0. -1.
         -2   -1    0    0    0  501 -0.00000000000E+00 -0.00000000000E+00 -0.52474866442E+03  0.52474866442E+03  0.25500000000E-02 0.  1.
    8880022    1    1    2    0    0 -0.47166716215E+03  0.45349402155E+03  0.83280292109E+03  0.10700836873E+04  0.15294330000E+03 0.  0.
    8880022    1    1    2    0    0  0.47166716215E+03 -0.45349402155E+03 -0.12815384575E+03  0.68406271688E+03  0.15294330000E+03 0.  0.
<mgrwt>
<rscale>  0 0.67195118E+03</rscale>
<asrwt>0</asrwt>
<pdfrwt beam="1">  1        2 0.18913811E+00 0.67195118E+03</pdfrwt>
<pdfrwt beam="2">  1       -2 0.80730564E-01 0.67195118E+03</pdfrwt>
<totfact> 0.25337957E+01</totfact>
</mgrwt>
</event>
<event>
 4    1  0.6912310E-008  0.8192407E+03  0.7818608E-02  0.9532577E-01
         -2   -1    0    0    0  501 -0.00000000000E+00  0.00000000000E+00  0.49051922692E+03  0.49051922692E+03  0.25500000000E-02 0.  1.
          2   -1    0    0  501    0  0.00000000000E+00 -0.00000000000E+00 -0.18858102474E+04  0.18858102474E+04  0.25500000000E-02 0. -1.
    8880022    1    1    2    0    0 -0.78477939064E+03 -0.17856357443E+03 -0.75193178427E+02  0.82268420988E+03  0.15294330000E+03 0.  0.
    8880022    1    1    2    0    0  0.78477939064E+03  0.17856357443E+03 -0.13200978420E+04  0.15536452644E+04  0.15294330000E+03 0.  0.
<mgrwt>
<rscale>  0 0.81924068E+03</rscale>
<asrwt>0</asrwt>
<pdfrwt beam="1">  1        2 0.29012465E+00 0.81924068E+03</pdfrwt>
<pdfrwt beam="2">  1       -2 0.75464497E-01 0.81924068E+03</pdfrwt>
<totfact> 0.12455227E+01</totfact>
</mgrwt>
</event>
<event>
 4    1  0.6912310E-008  0.6218270E+03  0.7818608E-02  0.9861129E-01
          2   -1    0    0  501    0  0.00000000000E+00  0.00000000000E+00  0.18064404964E+04  0.18064404964E+04  0.25500000000E-02 0. -1.
         -2   -1    0    0    0  501 -0.00000000000E+00 -0.00000000000E+00 -0.41822771061E+03  0.41822771062E+03  0.25500000000E-02 0.  1.
    8880022    1    1    2    0    0  0.18568541361E+03 -0.57340916287E+03 -0.83093790151E+02  0.62735426345E+03  0.15294330000E+03 0.  0.
    8880022    1    1    2    0    0 -0.18568541361E+03  0.57340916287E+03  0.14713065760E+04  0.15973139436E+04  0.15294330000E+03 0.  0.
<mgrwt>
<rscale>  0 0.62182698E+03</rscale>
<asrwt>0</asrwt>
<pdfrwt beam="1">  1        2 0.27791393E+00 0.62182698E+03</pdfrwt>
<pdfrwt beam="2">  1       -2 0.64342724E-01 0.62182698E+03</pdfrwt>
<totfact> 0.20039449E+01</totfact>
</mgrwt>
</event>
