<event>
 4    1  0.4940461E-001  0.8392668E+02  0.7546771E-02  0.1318263E+00
         -2   -1    0    0    0  501 -0.00000000000E+00  0.00000000000E+00  0.19822884531E+02  0.19822884531E+02  0.00000000000E+00 0.  1.
          2   -1    0    0  501    0  0.00000000000E+00 -0.00000000000E+00 -0.94859414983E+03  0.94859414983E+03  0.00000000000E+00 0. -1.
         24    1    1    2    0    0 -0.50586229058E+01  0.23470892895E+02 -0.84731249544E+03  0.85145883832E+03  0.80419002446E+02 0.  0.
        -24    1    1    2    0    0  0.50586229058E+01 -0.23470892895E+02 -0.81458769863E+02  0.11695819604E+03  0.80419002446E+02 0.  0.
<mgrwt>
<rscale>  0 0.83926685E+02</rscale>
<asrwt>0</asrwt>
<pdfrwt beam="1">  1        2 0.14593756E+00 0.83926685E+02</pdfrwt>
<pdfrwt beam="2">  1       -2 0.30496746E-02 0.83926685E+02</pdfrwt>
<totfact> 0.10885969E+04</totfact>
</mgrwt>
</event>
<event>
 4    1  0.4940461E-001  0.1134381E+03  0.7546771E-02  0.1254332E+00
         -2   -1    0    0    0  501 -0.00000000000E+00  0.00000000000E+00  0.51482583358E+02  0.51482583358E+02  0.00000000000E+00 0.  1.
          2   -1    0    0  501    0  0.00000000000E+00 -0.00000000000E+00 -0.25463121831E+03  0.25463121831E+03  0.00000000000E+00 0. -1.
         24    1    1    2    0    0  0.80002800136E+02 -0.73458935685E+00 -0.12232143016E+03  0.16682546533E+03  0.80419002446E+02 0. -1.
        -24    1    1    2    0    0 -0.80002800136E+02  0.73458935685E+00 -0.80827204791E+02  0.13928833634E+03  0.80419002446E+02 0.  1.
<mgrwt>
<rscale>  0 0.11343810E+03</rscale>
<asrwt>0</asrwt>
<pdfrwt beam="1">  1        2 0.39174034E-01 0.11343810E+03</pdfrwt>
<pdfrwt beam="2">  1       -2 0.79203974E-02 0.11343810E+03</pdfrwt>
<totfact> 0.11652263E+04</totfact>
</mgrwt>
</event>
<event>
 4    1  0.4940461E-001  0.9343828E+02  0.7546771E-02  0.1294733E+00
          1   -1    0    0  501    0  0.00000000000E+00  0.00000000000E+00  0.26763425632E+03  0.26763425632E+03  0.00000000000E+00 0. -1.
         -1   -1    0    0    0  501 -0.00000000000E+00 -0.00000000000E+00 -0.39382393477E+02  0.39382393477E+02  0.00000000000E+00 0.  1.
         24    1    1    2    0    0 -0.36277346073E+02 -0.30780681011E+02  0.50523579106E+02  0.10622308676E+03  0.80419002446E+02 0.  1.
        -24    1    1    2    0    0  0.36277346073E+02  0.30780681011E+02  0.17772828374E+03  0.20079356304E+03  0.80419002446E+02 0. -1.
<mgrwt>
<rscale>  0 0.93438280E+02</rscale>
<asrwt>0</asrwt>
<pdfrwt beam="1">  1        1 0.41174500E-01 0.93438280E+02</pdfrwt>
<pdfrwt beam="2">  1       -1 0.60588299E-02 0.93438280E+02</pdfrwt>
<totfact> 0.12142280E+04</totfact>
</mgrwt>
</event>
<event>
 4    1  0.4940461E-001  0.1874612E+03  0.7546771E-02  0.1160771E+00
          1   -1    0    0  501    0  0.00000000000E+00  0.00000000000E+00  0.20712046144E+04  0.20712046144E+04  0.00000000000E+00 0. -1.
         -1   -1    0    0    0  501 -0.00000000000E+00 -0.00000000000E+00 -0.56518863819E+02  0.56518863819E+02  0.00000000000E+00 0.  1.
         24    1    1    2    0    0 -0.63255472226E+02 -0.15707718212E+03  0.11737760231E+03  0.22117688258E+03  0.80419002446E+02 0.  1.
        -24    1    1    2    0    0  0.63255472226E+02  0.15707718212E+03  0.18973081483E+04  0.19065465956E+04  0.80419002446E+02 0. -1.
<mgrwt>
<rscale>  0 0.18746123E+03</rscale>
<asrwt>0</asrwt>
<pdfrwt beam="1">  1        1 0.31864681E+00 0.18746123E+03</pdfrwt>
<pdfrwt beam="2">  1       -1 0.86952114E-02 0.18746123E+03</pdfrwt>
<totfact> 0.23496654E+02</totfact>
</mgrwt>
</event>
<event>
 4    1  0.4940461E-001  0.8657198E+02  0.7546771E-02  0.1311372E+00
         -2   -1    0    0    0  501 -0.00000000000E+00  0.00000000000E+00  0.11036008304E+02  0.11036008304E+02  0.00000000000E+00 0.  1.
          2   -1    0    0  501    0  0.00000000000E+00 -0.00000000000E+00 -0.11458517123E+04  0.11458517123E+04  0.00000000000E+00 0. -1.
         24    1    1    2    0    0  0.31047867742E+02  0.79700983875E+01 -0.93658381882E+03  0.94057639678E+03  0.80419002446E+02 0.  0.
        -24    1    1    2    0    0 -0.31047867742E+02 -0.79700983875E+01 -0.19823188523E+03  0.21631132387E+03  0.80419002446E+02 0.  0.
<mgrwt>
<rscale>  0 0.86571985E+02</rscale>
<asrwt>0</asrwt>
<pdfrwt beam="1">  1        2 0.17628475E+00 0.86571985E+02</pdfrwt>
<pdfrwt beam="2">  1       -2 0.16978486E-02 0.86571985E+02</pdfrwt>
<totfact> 0.19540298E+04</totfact>
</mgrwt>
</event>
<event>
 4    1  0.4940461E-001  0.8501552E+02  0.7546771E-02  0.1315392E+00
         -2   -1    0    0    0  501 -0.00000000000E+00  0.00000000000E+00  0.18688835795E+01  0.18688835795E+01  0.00000000000E+00 0.  1.
          2   -1    0    0  501    0  0.00000000000E+00 -0.00000000000E+00 -0.39003873303E+04  0.39003873303E+04  0.00000000000E+00 0. -1.
         24    1    1    2    0    0  0.21338235468E+02 -0.17467203542E+02 -0.21288112440E+04  0.21305081441E+04  0.80419002446E+02 0.  1.
        -24    1    1    2    0    0 -0.21338235468E+02  0.17467203542E+02 -0.17697072027E+04  0.17717480697E+04  0.80419002446E+02 0. -1.
<mgrwt>
<rscale>  0 0.85015525E+02</rscale>
<asrwt>0</asrwt>
<pdfrwt beam="1">  1        2 0.60006098E+00 0.85015525E+02</pdfrwt>
<pdfrwt beam="2">  1       -2 0.28751989E-03 0.85015525E+02</pdfrwt>
<totfact> 0.69357984E+03</totfact>
</mgrwt>
</event>
<event>
 4    1  0.4940461E-001  0.1141725E+03  0.7546771E-02  0.1253033E+00
          1   -1    0    0  501    0  0.00000000000E+00  0.00000000000E+00  0.80736650451E+03  0.80736650451E+03  0.00000000000E+00 0. -1.
         -1   -1    0    0    0  501 -0.00000000000E+00 -0.00000000000E+00 -0.55888555643E+02  0.55888555643E+02  0.00000000000E+00 0.  1.
         24    1    1    2    0    0  0.78284049968E+02 -0.20970099893E+02  0.11758403275E+02  0.11477636329E+03  0.80419002446E+02 0.  1.
        -24    1    1    2    0    0 -0.78284049968E+02  0.20970099893E+02  0.73971954559E+03  0.74847869686E+03  0.80419002446E+02 0. -1.
<mgrwt>
<rscale>  0 0.11417247E+03</rscale>
<asrwt>0</asrwt>
<pdfrwt beam="1">  1        1 0.12421022E+00 0.11417247E+03</pdfrwt>
<pdfrwt beam="2">  1       -1 0.85982399E-02 0.11417247E+03</pdfrwt>
<totfact> 0.17294540E+03</totfact>
</mgrwt>
</event>
<event>
 4    1  0.4940461E-001  0.1227669E+03  0.7546771E-02  0.1238601E+00
          2   -1    0    0  501    0  0.00000000000E+00  0.00000000000E+00  0.12599761667E+03  0.12599761667E+03  0.00000000000E+00 0. -1.
         -2   -1    0    0    0  501 -0.00000000000E+00 -0.00000000000E+00 -0.18809925107E+03  0.18809925107E+03  0.00000000000E+00 0.  1.
         24    1    1    2    0    0 -0.21712788044E+01  0.92735023367E+02  0.63708646950E+02  0.13831307480E+03  0.80419002446E+02 0. -1.
        -24    1    1    2    0    0  0.21712788044E+01 -0.92735023367E+02 -0.12581028135E+03  0.17578379294E+03  0.80419002446E+02 0.  1.
<mgrwt>
<rscale>  0 0.12276691E+03</rscale>
<asrwt>0</asrwt>
<pdfrwt beam="1">  1        2 0.19384249E-01 0.12276691E+03</pdfrwt>
<pdfrwt beam="2">  1       -2 0.28938346E-01 0.12276691E+03</pdfrwt>
<totfact> 0.30128232E+03</totfact>
</mgrwt>
</event>
<event>
 4    1  0.4940461E-001  0.8313166E+02  0.7546771E-02  0.1320392E+00
          2   -1    0    0  501    0  0.00000000000E+00  0.00000000000E+00  0.82135515032E+03  0.82135515032E+03  0.00000000000E+00 0. -1.
         -2   -1    0    0    0  501 -0.00000000000E+00 -0.00000000000E+00 -0.15730829827E+02  0.15730829827E+02  0.00000000000E+00 0.  1.
         24    1    1    2    0    0 -0.15898065748E+02 -0.13816990175E+02  0.68825952827E+03  0.69326189273E+03  0.80419002446E+02 0. -1.
        -24    1    1    2    0    0  0.15898065748E+02  0.13816990175E+02  0.11736479223E+03  0.14382408742E+03  0.80419002446E+02 0.  1.
<mgrwt>
<rscale>  0 0.83131665E+02</rscale>
<asrwt>0</asrwt>
<pdfrwt beam="1">  1        2 0.12636230E+00 0.83131665E+02</pdfrwt>
<pdfrwt beam="2">  1       -2 0.24201283E-02 0.83131665E+02</pdfrwt>
<totfact> 0.18238686E+04</totfact>
</mgrwt>
</event>
<event>
 4    1  0.4940461E-001  0.1102525E+03  0.7546771E-02  0.1260103E+00
          1   -1    0    0  501    0  0.00000000000E+00  0.00000000000E+00  0.24931250361E+03  0.24931250361E+03  0.00000000000E+00 0. -1.
         -1   -1    0    0    0  501 -0.00000000000E+00 -0.00000000000E+00 -0.52163905465E+02  0.52163905465E+02  0.00000000000E+00 0.  1.
         24    1    1    2    0    0  0.55940269631E+02  0.50587275565E+02  0.13710003476E+03  0.17593186664E+03  0.80419002446E+02 0. -1.
        -24    1    1    2    0    0 -0.55940269631E+02 -0.50587275565E+02  0.60048563388E+02  0.12554454243E+03  0.80419002446E+02 0.  1.
<mgrwt>
<rscale>  0 0.11025246E+03</rscale>
<asrwt>0</asrwt>
<pdfrwt beam="1">  1        1 0.38355769E-01 0.11025248E+03</pdfrwt>
<pdfrwt beam="2">  1       -1 0.80252163E-02 0.11025248E+03</pdfrwt>
<totfact> 0.88429893E+03</totfact>
</mgrwt>
</event>
<event>
 4    1  0.4940461E-001  0.8690217E+02  0.7546771E-02  0.1310532E+00
         -2   -1    0    0    0  501 -0.00000000000E+00  0.00000000000E+00  0.21512477104E+02  0.21512477104E+02  0.00000000000E+00 0.  1.
          2   -1    0    0  501    0  0.00000000000E+00 -0.00000000000E+00 -0.50230521278E+03  0.50230521278E+03  0.00000000000E+00 0. -1.
         24    1    1    2    0    0  0.24757723233E+02  0.21721577415E+02 -0.38411706627E+03  0.39382471779E+03  0.80419002446E+02 0. -1.
        -24    1    1    2    0    0 -0.24757723233E+02 -0.21721577415E+02 -0.96675669399E+02  0.12999297209E+03  0.80419002446E+02 0.  1.
<mgrwt>
<rscale>  0 0.86902173E+02</rscale>
<asrwt>0</asrwt>
<pdfrwt beam="1">  1        2 0.77277718E-01 0.86902173E+02</pdfrwt>
<pdfrwt beam="2">  1       -2 0.33096122E-02 0.86902173E+02</pdfrwt>
<totfact> 0.20401141E+04</totfact>
</mgrwt>
</event>
<event>
 4    1  0.4940461E-001  0.8700333E+02  0.7546771E-02  0.1310275E+00
          1   -1    0    0  501    0  0.00000000000E+00  0.00000000000E+00  0.59388860412E+03  0.59388860412E+03  0.00000000000E+00 0. -1.
         -1   -1    0    0    0  501 -0.00000000000E+00 -0.00000000000E+00 -0.13620396785E+02  0.13620396785E+02  0.00000000000E+00 0.  1.
         24    1    1    2    0    0  0.62630376913E+01  0.32605787047E+02  0.21316180328E+03  0.23023364941E+03  0.80419002446E+02 0. -1.
        -24    1    1    2    0    0 -0.62630376913E+01 -0.32605787047E+02  0.36710640406E+03  0.37727535149E+03  0.80419002446E+02 0.  1.
<mgrwt>
<rscale>  0 0.87003327E+02</rscale>
<asrwt>0</asrwt>
<pdfrwt beam="1">  1        1 0.91367457E-01 0.87003327E+02</pdfrwt>
<pdfrwt beam="2">  1       -1 0.20954461E-02 0.87003327E+02</pdfrwt>
<totfact> 0.20653423E+04</totfact>
</mgrwt>
</event>
<event>
 4    1  0.4940461E-001  0.1230876E+03  0.7546771E-02  0.1238089E+00
         -2   -1    0    0    0  501 -0.00000000000E+00  0.00000000000E+00  0.15897970515E+03  0.15897970515E+03  0.00000000000E+00 0.  1.
          2   -1    0    0  501    0  0.00000000000E+00 -0.00000000000E+00 -0.99720579938E+02  0.99720579938E+02  0.00000000000E+00 0. -1.
         24    1    1    2    0    0  0.81864231165E+02  0.44514941939E+02  0.56867947069E+02  0.13558949723E+03  0.80419002446E+02 0. -1.
        -24    1    1    2    0    0 -0.81864231165E+02 -0.44514941939E+02  0.23911781415E+01  0.12311078786E+03  0.80419002446E+02 0.  1.
<mgrwt>
<rscale>  0 0.12308758E+03</rscale>
<asrwt>0</asrwt>
<pdfrwt beam="1">  1        2 0.15341628E-01 0.12308759E+03</pdfrwt>
<pdfrwt beam="2">  1       -2 0.24458416E-01 0.12308759E+03</pdfrwt>
<totfact> 0.52987046E+03</totfact>
</mgrwt>
</event>
<event>
 4    1  0.4940461E-001  0.9113620E+02  0.7546771E-02  0.1300123E+00
          2   -1    0    0  501    0  0.00000000000E+00  0.00000000000E+00  0.12335755660E+04  0.12335755660E+04  0.00000000000E+00 0. -1.
         -2   -1    0    0    0  501 -0.00000000000E+00 -0.00000000000E+00 -0.85101852129E+01  0.85101852129E+01  0.00000000000E+00 0.  1.
         24    1    1    2    0    0 -0.31825830582E+02  0.28735111763E+02  0.89632745339E+03  0.90094878311E+03  0.80419002446E+02 0. -1.
        -24    1    1    2    0    0  0.31825830582E+02 -0.28735111763E+02  0.32873792741E+03  0.34113696812E+03  0.80419002446E+02 0.  1.
<mgrwt>
<rscale>  0 0.91136195E+02</rscale>
<asrwt>0</asrwt>
<pdfrwt beam="1">  1        2 0.18978071E+00 0.91136195E+02</pdfrwt>
<pdfrwt beam="2">  1       -2 0.13092602E-02 0.91136195E+02</pdfrwt>
<totfact> 0.25465960E+04</totfact>
</mgrwt>
</event>
<event>
 4    1  0.4940461E-001  0.8229977E+02  0.7546771E-02  0.1322649E+00
         -1   -1    0    0    0  501 -0.00000000000E+00  0.00000000000E+00  0.25564344947E+02  0.25564344947E+02  0.00000000000E+00 0.  1.
          1   -1    0    0  501    0  0.00000000000E+00 -0.00000000000E+00 -0.36295955138E+03  0.36295955138E+03  0.00000000000E+00 0. -1.
         24    1    1    2    0    0  0.14406081588E+02 -0.99247293417E+01 -0.67750301475E+02  0.10659903725E+03  0.80419002446E+02 0.  1.
        -24    1    1    2    0    0 -0.14406081588E+02  0.99247293417E+01 -0.26964490495E+03  0.28192485907E+03  0.80419002446E+02 0. -1.
<mgrwt>
<rscale>  0 0.82299765E+02</rscale>
<asrwt>0</asrwt>
<pdfrwt beam="1">  1        1 0.55839928E-01 0.82299765E+02</pdfrwt>
<pdfrwt beam="2">  1       -1 0.39329764E-02 0.82299765E+02</pdfrwt>
<totfact> 0.15536571E+04</totfact>
</mgrwt>
</event>
<event>
 4    1  0.4940461E-001  0.8468176E+02  0.7546771E-02  0.1316267E+00
         -1   -1    0    0    0  501 -0.00000000000E+00  0.00000000000E+00  0.38417975265E+02  0.38417975265E+02  0.00000000000E+00 0.  1.
          1   -1    0    0  501    0  0.00000000000E+00 -0.00000000000E+00 -0.31781497095E+03  0.31781497095E+03  0.00000000000E+00 0. -1.
         24    1    1    2    0    0  0.25020341683E+02 -0.88185385319E+01 -0.25275436266E+02  0.88373342998E+02  0.80419002446E+02 0.  1.
        -24    1    1    2    0    0 -0.25020341683E+02  0.88185385319E+01 -0.25412155942E+03  0.26785960322E+03  0.80419002446E+02 0. -1.
<mgrwt>
<rscale>  0 0.84681758E+02</rscale>
<asrwt>0</asrwt>
<pdfrwt beam="1">  1        1 0.48894612E-01 0.84681758E+02</pdfrwt>
<pdfrwt beam="2">  1       -1 0.59104576E-02 0.84681758E+02</pdfrwt>
<totfact> 0.10121014E+04</totfact>
</mgrwt>
</event>
<event>
 4    1  0.4940461E-001  0.9838685E+02  0.7546771E-02  0.1283725E+00
          2   -1    0    0  501    0  0.00000000000E+00  0.00000000000E+00  0.10061486009E+04  0.10061486009E+04  0.00000000000E+00 0. -1.
         -2   -1    0    0    0  501 -0.00000000000E+00 -0.00000000000E+00 -0.17737867175E+02  0.17737867175E+02  0.00000000000E+00 0.  1.
         24    1    1    2    0    0 -0.38805849383E+02  0.41314182708E+02  0.84051950583E+03  0.84625824148E+03  0.80419002446E+02 0. -1.
        -24    1    1    2    0    0  0.38805849383E+02 -0.41314182708E+02  0.14789122787E+03  0.17762822657E+03  0.80419002446E+02 0.  1.
<mgrwt>
<rscale>  0 0.98386847E+02</rscale>
<asrwt>0</asrwt>
<pdfrwt beam="1">  1        2 0.15479205E+00 0.98386847E+02</pdfrwt>
<pdfrwt beam="2">  1       -2 0.27289034E-02 0.98386847E+02</pdfrwt>
<totfact> 0.11957633E+04</totfact>
</mgrwt>
</event>
<event>
 4    1  0.4940461E-001  0.1001346E+03  0.7546771E-02  0.1280013E+00
          1   -1    0    0  501    0  0.00000000000E+00  0.00000000000E+00  0.17761293968E+02  0.17761293968E+02  0.00000000000E+00 0. -1.
         -1   -1    0    0    0  501 -0.00000000000E+00 -0.00000000000E+00 -0.13661962297E+04  0.13661962297E+04  0.00000000000E+00 0.  1.
         24    1    1    2    0    0 -0.50415066180E+02 -0.31906682791E+02 -0.12042844612E+04  0.12084403149E+04  0.80419002446E+02 0.  1.
        -24    1    1    2    0    0  0.50415066180E+02  0.31906682791E+02 -0.14415047459E+03  0.17551720879E+03  0.80419002446E+02 0. -1.
<mgrwt>
<rscale>  0 0.10013457E+03</rscale>
<asrwt>0</asrwt>
<pdfrwt beam="1">  1        1 0.27325069E-02 0.10013457E+03</pdfrwt>
<pdfrwt beam="2">  1       -1 0.21018402E+00 0.10013457E+03</pdfrwt>
<totfact> 0.54741634E+02</totfact>
</mgrwt>
</event>
<event>
 4    1  0.4940461E-001  0.9455724E+02  0.7546771E-02  0.1292176E+00
         -1   -1    0    0    0  501 -0.00000000000E+00  0.00000000000E+00  0.53797421664E+02  0.53797421664E+02  0.00000000000E+00 0.  1.
          1   -1    0    0  501    0  0.00000000000E+00 -0.00000000000E+00 -0.72981143021E+03  0.72981143021E+03  0.00000000000E+00 0. -1.
         24    1    1    2    0    0  0.37419952692E+01  0.49596907127E+02  0.63067180524E+01  0.94767327556E+02  0.80419002446E+02 0.  1.
        -24    1    1    2    0    0 -0.37419952692E+01 -0.49596907127E+02 -0.68232072660E+03  0.68884152432E+03  0.80419002446E+02 0. -1.
<mgrwt>
<rscale>  0 0.94557240E+02</rscale>
<asrwt>0</asrwt>
<pdfrwt beam="1">  1        1 0.11227867E+00 0.94557240E+02</pdfrwt>
<pdfrwt beam="2">  1       -1 0.82765269E-02 0.94557240E+02</pdfrwt>
<totfact> 0.21135589E+03</totfact>
</mgrwt>
</event>
<event>
 4    1  0.4940461E-001  0.9813724E+02  0.7546771E-02  0.1284263E+00
          1   -1    0    0  501    0  0.00000000000E+00  0.00000000000E+00  0.31104039821E+03  0.31104039821E+03  0.00000000000E+00 0. -1.
         -1   -1    0    0    0  501 -0.00000000000E+00 -0.00000000000E+00 -0.33303912598E+02  0.33303912598E+02  0.00000000000E+00 0.  1.
         24    1    1    2    0    0 -0.39376262662E+02  0.40164751163E+02  0.18450947493E+03  0.20898483101E+03  0.80419002446E+02 0.  0.
        -24    1    1    2    0    0  0.39376262662E+02 -0.40164751163E+02  0.93227010680E+02  0.13535947980E+03  0.80419002446E+02 0.  0.
<mgrwt>
<rscale>  0 0.98137229E+02</rscale>
<asrwt>0</asrwt>
<pdfrwt beam="1">  1        1 0.47852367E-01 0.98137241E+02</pdfrwt>
<pdfrwt beam="2">  1       -1 0.51236791E-02 0.98137241E+02</pdfrwt>
<totfact> 0.12988921E+04</totfact>
</mgrwt>
</event>
<event>
 4    1  0.4940461E-001  0.8803909E+02  0.7546771E-02  0.1307671E+00
         -2   -1    0    0    0  501 -0.00000000000E+00  0.00000000000E+00  0.75754071712E+03  0.75754071712E+03  0.00000000000E+00 0.  1.
          2   -1    0    0  501    0  0.00000000000E+00 -0.00000000000E+00 -0.14088423797E+02  0.14088423797E+02  0.00000000000E+00 0. -1.
         24    1    1    2    0    0 -0.51976022847E+01 -0.35449266034E+02  0.16986150839E+03  0.19132123123E+03  0.80419002446E+02 0. -1.
        -24    1    1    2    0    0  0.51976022847E+01  0.35449266034E+02  0.57359078494E+03  0.58030790969E+03  0.80419002446E+02 0.  1.
<mgrwt>
<rscale>  0 0.88039091E+02</rscale>
<asrwt>0</asrwt>
<pdfrwt beam="1">  1        2 0.21674504E-02 0.88039091E+02</pdfrwt>
<pdfrwt beam="2">  1       -2 0.11654469E+00 0.88039091E+02</pdfrwt>
<totfact> 0.26811743E+03</totfact>
</mgrwt>
</event>
<event>
 4    1  0.4940461E-001  0.8474448E+02  0.7546771E-02  0.1316102E+00
         -2   -1    0    0    0  501 -0.00000000000E+00  0.00000000000E+00  0.31523263731E+03  0.31523263731E+03  0.00000000000E+00 0.  1.
          2   -1    0    0  501    0  0.00000000000E+00 -0.00000000000E+00 -0.10937531688E+03  0.10937531688E+03  0.00000000000E+00 0. -1.
         24    1    1    2    0    0 -0.71180342223E+01  0.25763255147E+02 -0.85975130679E+02  0.12072013410E+03  0.80419002446E+02 0. -1.
        -24    1    1    2    0    0  0.71180342223E+01 -0.25763255147E+02  0.29183245110E+03  0.30388782009E+03  0.80419002446E+02 0.  1.
<mgrwt>
<rscale>  0 0.84744485E+02</rscale>
<asrwt>0</asrwt>
<pdfrwt beam="1">  1        2 0.16826972E-01 0.84744485E+02</pdfrwt>
<pdfrwt beam="2">  1       -2 0.48497329E-01 0.84744485E+02</pdfrwt>
<totfact> 0.13278301E+03</totfact>
</mgrwt>
</event>
<event>
 4    1  0.4940461E-001  0.8136746E+02  0.7546771E-02  0.1325215E+00
         -3   -1    0    0    0  501 -0.00000000000E+00  0.00000000000E+00  0.15669874300E+04  0.15669874300E+04  0.00000000000E+00 0.  1.
          3   -1    0    0  501    0  0.00000000000E+00 -0.00000000000E+00 -0.47703459812E+01  0.47703459812E+01  0.00000000000E+00 0. -1.
         24    1    1    2    0    0 -0.98904523877E+01  0.74580875940E+01  0.51541461643E+03  0.52179774521E+03  0.80419002446E+02 0. -1.
        -24    1    1    2    0    0  0.98904523877E+01 -0.74580875940E+01  0.10468024676E+04  0.10499600308E+04  0.80419002446E+02 0.  1.
<mgrwt>
<rscale>  0 0.81367449E+02</rscale>
<asrwt>0</asrwt>
<pdfrwt beam="1">  1        3 0.73390063E-03 0.81367459E+02</pdfrwt>
<pdfrwt beam="2">  1       -3 0.24107458E+00 0.81367459E+02</pdfrwt>
<totfact> 0.86688960E+02</totfact>
</mgrwt>
</event>
<event>
 4    1  0.4940461E-001  0.9299118E+02  0.7546771E-02  0.1295766E+00
          2   -1    0    0  501    0  0.00000000000E+00  0.00000000000E+00  0.16453006582E+04  0.16453006582E+04  0.00000000000E+00 0. -1.
         -2   -1    0    0    0  501 -0.00000000000E+00 -0.00000000000E+00 -0.19268303679E+02  0.19268303679E+02  0.00000000000E+00 0.  1.
         24    1    1    2    0    0 -0.45129469525E+02 -0.11978111688E+02  0.15227704727E+04  0.15256071816E+04  0.80419002446E+02 0. -1.
        -24    1    1    2    0    0  0.45129469525E+02  0.11978111688E+02  0.10326188186E+03  0.13896178028E+03  0.80419002446E+02 0.  1.
<mgrwt>
<rscale>  0 0.92991183E+02</rscale>
<asrwt>0</asrwt>
<pdfrwt beam="1">  1        2 0.25312307E+00 0.92991183E+02</pdfrwt>
<pdfrwt beam="2">  1       -2 0.29643557E-02 0.92991183E+02</pdfrwt>
<totfact> 0.48238515E+03</totfact>
</mgrwt>
</event>
<event>
 4    1  0.4940461E-001  0.8855383E+02  0.7546771E-02  0.1306392E+00
          2   -1    0    0  501    0  0.00000000000E+00  0.00000000000E+00  0.12291246262E+04  0.12291246262E+04  0.00000000000E+00 0. -1.
         -2   -1    0    0    0  501 -0.00000000000E+00 -0.00000000000E+00 -0.12956949862E+02  0.12956949862E+02  0.00000000000E+00 0.  1.
         24    1    1    2    0    0 -0.16566168937E+02  0.33168160152E+02  0.10505518955E+04  0.10542775090E+04  0.80419002446E+02 0. -1.
        -24    1    1    2    0    0  0.16566168937E+02 -0.33168160152E+02  0.16561578078E+03  0.18780406705E+03  0.80419002446E+02 0.  1.
<mgrwt>
<rscale>  0 0.88553830E+02</rscale>
<asrwt>0</asrwt>
<pdfrwt beam="1">  1        2 0.18909601E+00 0.88553830E+02</pdfrwt>
<pdfrwt beam="2">  1       -2 0.19933779E-02 0.88553830E+02</pdfrwt>
<totfact> 0.14014684E+04</totfact>
</mgrwt>
</event>
<event>
 4    1  0.4940461E-001  0.1244225E+03  0.7546771E-02  0.1235975E+00
         -1   -1    0    0    0  501 -0.00000000000E+00  0.00000000000E+00  0.31526806180E+02  0.31526806180E+02  0.00000000000E+00 0.  1.
          1   -1    0    0  501    0  0.00000000000E+00 -0.00000000000E+00 -0.66119263583E+03  0.66119263583E+03  0.00000000000E+00 0. -1.
         24    1    1    2    0    0  0.81139781519E+02 -0.49295778460E+02 -0.13912898940E+03  0.18664894740E+03  0.80419002446E+02 0. -1.
        -24    1    1    2    0    0 -0.81139781519E+02  0.49295778460E+02 -0.49053684026E+03  0.50607049462E+03  0.80419002446E+02 0.  1.
<mgrwt>
<rscale>  0 0.12442248E+03</rscale>
<asrwt>0</asrwt>
<pdfrwt beam="1">  1        1 0.10172194E+00 0.12442248E+03</pdfrwt>
<pdfrwt beam="2">  1       -1 0.48502782E-02 0.12442248E+03</pdfrwt>
<totfact> 0.54332243E+03</totfact>
</mgrwt>
</event>
<event>
 4    1  0.4940461E-001  0.1103186E+03  0.7546771E-02  0.1259981E+00
         -4   -1    0    0    0  501 -0.00000000000E+00  0.00000000000E+00  0.67070178636E+03  0.67070178636E+03  0.00000000000E+00 0.  1.
          4   -1    0    0  501    0  0.00000000000E+00 -0.00000000000E+00 -0.33795991992E+02  0.33795991992E+02  0.00000000000E+00 0. -1.
         24    1    1    2    0    0 -0.36170218152E+02  0.66292501114E+02  0.78745462296E+02  0.13553982504E+03  0.80419002446E+02 0. -1.
        -24    1    1    2    0    0  0.36170218152E+02 -0.66292501114E+02  0.55816033207E+03  0.56895795332E+03  0.80419002446E+02 0.  1.
<mgrwt>
<rscale>  0 0.11031861E+03</rscale>
<asrwt>0</asrwt>
<pdfrwt beam="1">  1        4 0.51993839E-02 0.11031861E+03</pdfrwt>
<pdfrwt beam="2">  1       -4 0.10318488E+00 0.11031861E+03</pdfrwt>
<totfact> 0.28573057E+02</totfact>
</mgrwt>
</event>
<event>
 4    1  0.4940461E-001  0.9003870E+02  0.7546771E-02  0.1302758E+00
          2   -1    0    0  501    0  0.00000000000E+00  0.00000000000E+00  0.10055970454E+03  0.10055970454E+03  0.00000000000E+00 0. -1.
         -2   -1    0    0    0  501 -0.00000000000E+00 -0.00000000000E+00 -0.26887413088E+03  0.26887413088E+03  0.00000000000E+00 0.  1.
         24    1    1    2    0    0  0.93284076624E+01  0.39404729588E+02  0.70406023853E+02  0.11429775174E+03  0.80419002446E+02 0. -1.
        -24    1    1    2    0    0 -0.93284076624E+01 -0.39404729588E+02 -0.23872045019E+03  0.25513608368E+03  0.80419002446E+02 0.  1.
<mgrwt>
<rscale>  0 0.90038702E+02</rscale>
<asrwt>0</asrwt>
<pdfrwt beam="1">  1        2 0.15470724E-01 0.90038702E+02</pdfrwt>
<pdfrwt beam="2">  1       -2 0.41365250E-01 0.90038702E+02</pdfrwt>
<totfact> 0.19896219E+03</totfact>
</mgrwt>
</event>
<event>
 4    1  0.4940461E-001  0.8811366E+02  0.7546771E-02  0.1307485E+00
         -2   -1    0    0    0  501 -0.00000000000E+00  0.00000000000E+00  0.19349200353E+02  0.19349200353E+02  0.00000000000E+00 0.  1.
          2   -1    0    0  501    0  0.00000000000E+00 -0.00000000000E+00 -0.40507910185E+03  0.40507910185E+03  0.00000000000E+00 0. -1.
         24    1    1    2    0    0  0.32411750053E+02  0.15693280522E+02 -0.21347661588E+03  0.23094649180E+03  0.80419002446E+02 0.  1.
        -24    1    1    2    0    0 -0.32411750053E+02 -0.15693280522E+02 -0.17225328562E+03  0.19348181041E+03  0.80419002446E+02 0. -1.
<mgrwt>
<rscale>  0 0.88113657E+02</rscale>
<asrwt>0</asrwt>
<pdfrwt beam="1">  1        2 0.62319854E-01 0.88113657E+02</pdfrwt>
<pdfrwt beam="2">  1       -2 0.29768004E-02 0.88113657E+02</pdfrwt>
<totfact> 0.29973393E+04</totfact>
</mgrwt>
</event>
<event>
 4    1  0.4940461E-001  0.8638436E+02  0.7546771E-02  0.1311851E+00
          4   -1    0    0  501    0  0.00000000000E+00  0.00000000000E+00  0.16074395914E+03  0.16074395914E+03  0.00000000000E+00 0. -1.
         -4   -1    0    0    0  501 -0.00000000000E+00 -0.00000000000E+00 -0.64288492752E+02  0.64288492752E+02  0.00000000000E+00 0.  1.
         24    1    1    2    0    0  0.51106993652E+01 -0.31127522837E+02  0.10754114812E+03  0.13793968399E+03  0.80419002446E+02 0. -1.
        -24    1    1    2    0    0 -0.51106993652E+01  0.31127522837E+02 -0.11085681738E+02  0.87092767897E+02  0.80419002446E+02 0.  1.
<mgrwt>
<rscale>  0 0.86384361E+02</rscale>
<asrwt>0</asrwt>
<pdfrwt beam="1">  1        4 0.24729840E-01 0.86384361E+02</pdfrwt>
<pdfrwt beam="2">  1       -4 0.98905374E-02 0.86384361E+02</pdfrwt>
<totfact> 0.17399913E+03</totfact>
</mgrwt>
</event>
<event>
 4    1  0.4940461E-001  0.8041979E+02  0.7546771E-02  0.1327864E+00
         -2   -1    0    0    0  501 -0.00000000000E+00  0.00000000000E+00  0.11415324786E+02  0.11415324786E+02  0.00000000000E+00 0.  1.
          2   -1    0    0  501    0  0.00000000000E+00 -0.00000000000E+00 -0.10865017113E+04  0.10865017113E+04  0.00000000000E+00 0. -1.
         24    1    1    2    0    0 -0.31894693085E+00  0.15855428155E+00 -0.91730052931E+03  0.92081898542E+03  0.80419002446E+02 0. -1.
        -24    1    1    2    0    0  0.31894693085E+00 -0.15855428155E+00 -0.15778585724E+03  0.17709805071E+03  0.80419002446E+02 0.  0.
<mgrwt>
<rscale>  0 0.80419791E+02</rscale>
<asrwt>0</asrwt>
<pdfrwt beam="1">  1        2 0.16715419E+00 0.80419791E+02</pdfrwt>
<pdfrwt beam="2">  1       -2 0.17562030E-02 0.80419791E+02</pdfrwt>
<totfact> 0.19965492E+04</totfact>
</mgrwt>
</event>
<event>
 4    1  0.4940461E-001  0.8381189E+02  0.7546771E-02  0.1318569E+00
          2   -1    0    0  501    0  0.00000000000E+00  0.00000000000E+00  0.13912373855E+04  0.13912373855E+04  0.00000000000E+00 0. -1.
         -2   -1    0    0    0  501 -0.00000000000E+00 -0.00000000000E+00 -0.19245930343E+02  0.19245930343E+02  0.00000000000E+00 0.  1.
         24    1    1    2    0    0 -0.17931313708E+02  0.15352025804E+02  0.12917059496E+04  0.12944221464E+04  0.80419002446E+02 0. -1.
        -24    1    1    2    0    0  0.17931313708E+02 -0.15352025804E+02  0.80285505478E+02  0.11606116944E+03  0.80419002446E+02 0.  1.
<mgrwt>
<rscale>  0 0.83811889E+02</rscale>
<asrwt>0</asrwt>
<pdfrwt beam="1">  1        2 0.21403644E+00 0.83811889E+02</pdfrwt>
<pdfrwt beam="2">  1       -2 0.29609135E-02 0.83811889E+02</pdfrwt>
<totfact> 0.64864349E+03</totfact>
</mgrwt>
</event>
<event>
 4    1  0.4940461E-001  0.8221012E+02  0.7546771E-02  0.1322894E+00
          1   -1    0    0  501    0  0.00000000000E+00  0.00000000000E+00  0.17074211723E+03  0.17074211723E+03  0.00000000000E+00 0. -1.
         -1   -1    0    0    0  501 -0.00000000000E+00 -0.00000000000E+00 -0.42365414589E+02  0.42365414589E+02  0.00000000000E+00 0.  1.
         24    1    1    2    0    0 -0.16970935364E+02  0.18098074426E+01  0.36881890771E+02  0.90104261116E+02  0.80419002446E+02 0.  1.
        -24    1    1    2    0    0  0.16970935364E+02 -0.18098074426E+01  0.91494811871E+02  0.12300327070E+03  0.80419002446E+02 0. -1.
<mgrwt>
<rscale>  0 0.82210121E+02</rscale>
<asrwt>0</asrwt>
<pdfrwt beam="1">  1        1 0.26268018E-01 0.82210121E+02</pdfrwt>
<pdfrwt beam="2">  1       -1 0.65177562E-02 0.82210121E+02</pdfrwt>
<totfact> 0.18651928E+04</totfact>
</mgrwt>
</event>
<event>
 4    1  0.4940461E-001  0.8343522E+02  0.7546771E-02  0.1319576E+00
          1   -1    0    0  501    0  0.00000000000E+00  0.00000000000E+00  0.61784937800E+02  0.61784937800E+02  0.00000000000E+00 0. -1.
         -1   -1    0    0    0  501 -0.00000000000E+00 -0.00000000000E+00 -0.24367121523E+03  0.24367121523E+03  0.00000000000E+00 0.  1.
         24    1    1    2    0    0 -0.11158241738E+02 -0.19227929253E+02 -0.20292586395E+03  0.21940907418E+03  0.80419002446E+02 0.  1.
        -24    1    1    2    0    0  0.11158241738E+02  0.19227929253E+02  0.21039586519E+02  0.86047078842E+02  0.80419002446E+02 0. -1.
<mgrwt>
<rscale>  0 0.83435218E+02</rscale>
<asrwt>0</asrwt>
<pdfrwt beam="1">  1        1 0.95053753E-02 0.83435218E+02</pdfrwt>
<pdfrwt beam="2">  1       -1 0.37487878E-01 0.83435218E+02</pdfrwt>
<totfact> 0.44000318E+03</totfact>
</mgrwt>
</event>
<event>
 4    1  0.4940461E-001  0.8768658E+02  0.7546771E-02  0.1308553E+00
          2   -1    0    0  501    0  0.00000000000E+00  0.00000000000E+00  0.58554739961E+03  0.58554739961E+03  0.00000000000E+00 0. -1.
         -2   -1    0    0    0  501 -0.00000000000E+00 -0.00000000000E+00 -0.58527417090E+02  0.58527417090E+02  0.00000000000E+00 0.  1.
         24    1    1    2    0    0 -0.30425422223E+02 -0.17205064670E+02  0.54712976377E+03  0.55411182529E+03  0.80419002446E+02 0. -1.
        -24    1    1    2    0    0  0.30425422223E+02  0.17205064670E+02 -0.20109781247E+02  0.89962991413E+02  0.80419002446E+02 0.  1.
<mgrwt>
<rscale>  0 0.87686581E+02</rscale>
<asrwt>0</asrwt>
<pdfrwt beam="1">  1        2 0.90084212E-01 0.87686581E+02</pdfrwt>
<pdfrwt beam="2">  1       -2 0.90042184E-02 0.87686581E+02</pdfrwt>
<totfact> 0.38720768E+03</totfact>
</mgrwt>
</event>
<event>
 4    1  0.4940461E-001  0.9902852E+02  0.7546771E-02  0.1282352E+00
          2   -1    0    0  501    0  0.00000000000E+00  0.00000000000E+00  0.39378927914E+04  0.39378927914E+04  0.00000000000E+00 0. -1.
         -2   -1    0    0    0  501 -0.00000000000E+00 -0.00000000000E+00 -0.51472061413E+01  0.51472061413E+01  0.00000000000E+00 0.  1.
         24    1    1    2    0    0  0.62175467090E+01  0.57452354164E+02  0.33828225652E+04  0.33842717318E+04  0.80419002446E+02 0. -1.
        -24    1    1    2    0    0 -0.62175467090E+01 -0.57452354164E+02  0.54992302002E+03  0.55876826573E+03  0.80419002446E+02 0.  1.
<mgrwt>
<rscale>  0 0.99028515E+02</rscale>
<asrwt>0</asrwt>
<pdfrwt beam="1">  1        2 0.60582725E+00 0.99028515E+02</pdfrwt>
<pdfrwt beam="2">  1       -2 0.79188101E-03 0.99028515E+02</pdfrwt>
<totfact> 0.15705435E+03</totfact>
</mgrwt>
</event>
<event>
 4    1  0.4940461E-001  0.9662800E+02  0.7546771E-02  0.1287551E+00
          2   -1    0    0  501    0  0.00000000000E+00  0.00000000000E+00  0.21655525905E+04  0.21655525905E+04  0.00000000000E+00 0. -1.
         -2   -1    0    0    0  501 -0.00000000000E+00 -0.00000000000E+00 -0.90154135463E+02  0.90154135463E+02  0.00000000000E+00 0.  1.
         24    1    1    2    0    0  0.49418684001E+02 -0.20677244482E+02  0.21382526046E+04  0.21404348090E+04  0.80419002446E+02 0. -1.
        -24    1    1    2    0    0 -0.49418684001E+02  0.20677244482E+02 -0.62854149532E+02  0.11527191694E+03  0.80419002446E+02 0.  1.
<mgrwt>
<rscale>  0 0.96628002E+02</rscale>
<asrwt>0</asrwt>
<pdfrwt beam="1">  1        2 0.33316190E+00 0.96628002E+02</pdfrwt>
<pdfrwt beam="2">  1       -2 0.13869869E-01 0.96628002E+02</pdfrwt>
<totfact> 0.25435869E+02</totfact>
</mgrwt>
</event>
<event>
 4    1  0.4940461E-001  0.1084330E+03  0.7546771E-02  0.1263499E+00
          2   -1    0    0  501    0  0.00000000000E+00  0.00000000000E+00  0.10886684474E+04  0.10886684474E+04  0.00000000000E+00 0. -1.
         -2   -1    0    0    0  501 -0.00000000000E+00 -0.00000000000E+00 -0.10818508057E+02  0.10818508057E+02  0.00000000000E+00 0.  1.
         24    1    1    2    0    0  0.72398172623E+02 -0.70005129547E+01  0.51624283256E+03  0.52750770677E+03  0.80419002446E+02 0. -1.
        -24    1    1    2    0    0 -0.72398172623E+02  0.70005129547E+01  0.56160710677E+03  0.57197924867E+03  0.80419002446E+02 0.  1.
<mgrwt>
<rscale>  0 0.10843303E+03</rscale>
<asrwt>0</asrwt>
<pdfrwt beam="1">  1        2 0.16748737E+00 0.10843304E+03</pdfrwt>
<pdfrwt beam="2">  1       -2 0.16643867E-02 0.10843304E+03</pdfrwt>
<totfact> 0.22040698E+04</totfact>
</mgrwt>
</event>
<event>
 4    1  0.4940461E-001  0.8418033E+02  0.7546771E-02  0.1317590E+00
          1   -1    0    0  501    0  0.00000000000E+00  0.00000000000E+00  0.72731863428E+03  0.72731863428E+03  0.00000000000E+00 0. -1.
         -1   -1    0    0    0  501 -0.00000000000E+00 -0.00000000000E+00 -0.16316409555E+02  0.16316409555E+02  0.00000000000E+00 0.  1.
         24    1    1    2    0    0  0.10750260870E+02 -0.22439795253E+02  0.11950218089E+03  0.14617489426E+03  0.80419002446E+02 0.  1.
        -24    1    1    2    0    0 -0.10750260870E+02  0.22439795253E+02  0.59150004383E+03  0.59746014958E+03  0.80419002446E+02 0. -1.
<mgrwt>
<rscale>  0 0.84180333E+02</rscale>
<asrwt>0</asrwt>
<pdfrwt beam="1">  1        1 0.11189515E+00 0.84180333E+02</pdfrwt>
<pdfrwt beam="2">  1       -1 0.25102174E-02 0.84180333E+02</pdfrwt>
<totfact> 0.12039217E+04</totfact>
</mgrwt>
</event>
<event>
 4    1  0.4940461E-001  0.8853869E+02  0.7546771E-02  0.1306430E+00
         -2   -1    0    0    0  501 -0.00000000000E+00  0.00000000000E+00  0.24469857999E+03  0.24469857999E+03  0.00000000000E+00 0.  1.
          2   -1    0    0  501    0  0.00000000000E+00 -0.00000000000E+00 -0.32955791728E+02  0.32955791728E+02  0.00000000000E+00 0. -1.
         24    1    1    2    0    0 -0.11185775024E+02 -0.35309461554E+02  0.12906771476E+03  0.15651699775E+03  0.80419002446E+02 0.  1.
        -24    1    1    2    0    0  0.11185775024E+02  0.35309461554E+02  0.82675073503E+02  0.12113737397E+03  0.80419002446E+02 0. -1.
<mgrwt>
<rscale>  0 0.88538678E+02</rscale>
<asrwt>0</asrwt>
<pdfrwt beam="1">  1        2 0.50701220E-02 0.88538689E+02</pdfrwt>
<pdfrwt beam="2">  1       -2 0.37645934E-01 0.88538689E+02</pdfrwt>
<totfact> 0.92869415E+03</totfact>
</mgrwt>
</event>
<event>
 4    1  0.4940461E-001  0.9621591E+02  0.7546771E-02  0.1288461E+00
          2   -1    0    0  501    0  0.00000000000E+00  0.00000000000E+00  0.50854886268E+03  0.50854886268E+03  0.00000000000E+00 0. -1.
         -2   -1    0    0    0  501 -0.00000000000E+00 -0.00000000000E+00 -0.43478167169E+02  0.43478167169E+02  0.00000000000E+00 0.  1.
         24    1    1    2    0    0 -0.20128442345E+02 -0.48837798223E+02  0.44297871171E+03  0.45330744501E+03  0.80419002446E+02 0. -1.
        -24    1    1    2    0    0  0.20128442345E+02  0.48837798223E+02  0.22091983802E+02  0.98719584831E+02  0.80419002446E+02 0.  1.
<mgrwt>
<rscale>  0 0.96215907E+02</rscale>
<asrwt>0</asrwt>
<pdfrwt beam="1">  1        2 0.78238282E-01 0.96215907E+02</pdfrwt>
<pdfrwt beam="2">  1       -2 0.66889491E-02 0.96215907E+02</pdfrwt>
<totfact> 0.71541276E+03</totfact>
</mgrwt>
</event>
<event>
 4    1  0.4940461E-001  0.9381629E+02  0.7546771E-02  0.1293865E+00
          3   -1    0    0  501    0  0.00000000000E+00  0.00000000000E+00  0.11892401039E+03  0.11892401039E+03  0.00000000000E+00 0. -1.
         -3   -1    0    0    0  501 -0.00000000000E+00 -0.00000000000E+00 -0.75797843563E+02  0.75797843563E+02  0.00000000000E+00 0.  1.
         24    1    1    2    0    0 -0.46524296400E+00  0.48312149069E+02  0.66078786045E+01  0.94048711914E+02  0.80419002446E+02 0.  0.
        -24    1    1    2    0    0  0.46524296400E+00 -0.48312149069E+02  0.36518288221E+02  0.10067314204E+03  0.80419002446E+02 0. -1.
<mgrwt>
<rscale>  0 0.93816289E+02</rscale>
<asrwt>0</asrwt>
<pdfrwt beam="1">  1        3 0.18296002E-01 0.93816289E+02</pdfrwt>
<pdfrwt beam="2">  1       -3 0.11661207E-01 0.93816289E+02</pdfrwt>
<totfact> 0.31774916E+03</totfact>
</mgrwt>
</event>
<event>
 4    1  0.4940461E-001  0.9384973E+02  0.7546771E-02  0.1293788E+00
          1   -1    0    0  501    0  0.00000000000E+00  0.00000000000E+00  0.15326033715E+04  0.15326033715E+04  0.00000000000E+00 0. -1.
         -1   -1    0    0    0  501 -0.00000000000E+00 -0.00000000000E+00 -0.94190576903E+01  0.94190576903E+01  0.00000000000E+00 0.  1.
         24    1    1    2    0    0  0.97485482103E+01 -0.47386928788E+02  0.28018162339E+03  0.29548183235E+03  0.80419002446E+02 0.  1.
        -24    1    1    2    0    0 -0.97485482103E+01  0.47386928788E+02  0.12430026904E+04  0.12465405968E+04  0.80419002446E+02 0. -1.
<mgrwt>
<rscale>  0 0.93849727E+02</rscale>
<asrwt>0</asrwt>
<pdfrwt beam="1">  1        1 0.23578494E+00 0.93849727E+02</pdfrwt>
<pdfrwt beam="2">  1       -1 0.14490870E-02 0.93849727E+02</pdfrwt>
<totfact> 0.71937157E+03</totfact>
</mgrwt>
</event>
<event>
 4    1  0.4940461E-001  0.8721370E+02  0.7546771E-02  0.1309743E+00
          1   -1    0    0  501    0  0.00000000000E+00  0.00000000000E+00  0.28491470813E+04  0.28491470813E+04  0.00000000000E+00 0. -1.
         -1   -1    0    0    0  501 -0.00000000000E+00 -0.00000000000E+00 -0.28698601890E+01  0.28698601890E+01  0.00000000000E+00 0.  1.
         24    1    1    2    0    0  0.15004513235E+02  0.30230366009E+02  0.17997855844E+04  0.18018974378E+04  0.80419002446E+02 0. -1.
        -24    1    1    2    0    0 -0.15004513235E+02 -0.30230366009E+02  0.10464916367E+04  0.10501195037E+04  0.80419002446E+02 0.  0.
<mgrwt>
<rscale>  0 0.87213693E+02</rscale>
<asrwt>0</asrwt>
<pdfrwt beam="1">  1        1 0.43832806E+00 0.87213704E+02</pdfrwt>
<pdfrwt beam="2">  1       -1 0.44151923E-03 0.87213704E+02</pdfrwt>
<totfact> 0.55309906E+03</totfact>
</mgrwt>
</event>
<event>
 4    1  0.4940461E-001  0.8499364E+02  0.7546771E-02  0.1315449E+00
         -2   -1    0    0    0  501 -0.00000000000E+00  0.00000000000E+00  0.20500355291E+02  0.20500355291E+02  0.00000000000E+00 0.  1.
          2   -1    0    0  501    0  0.00000000000E+00 -0.00000000000E+00 -0.56543788164E+03  0.56543788164E+03  0.00000000000E+00 0. -1.
         24    1    1    2    0    0 -0.27507572253E+02  0.19172445805E+00 -0.45230532668E+03  0.46022171590E+03  0.80419002446E+02 0. -1.
        -24    1    1    2    0    0  0.27507572253E+02 -0.19172445805E+00 -0.92632199662E+02  0.12571652102E+03  0.80419002446E+02 0. -1.
<mgrwt>
<rscale>  0 0.84993642E+02</rscale>
<asrwt>0</asrwt>
<pdfrwt beam="1">  1        2 0.86990454E-01 0.84993642E+02</pdfrwt>
<pdfrwt beam="2">  1       -2 0.31539004E-02 0.84993642E+02</pdfrwt>
<totfact> 0.19191837E+04</totfact>
</mgrwt>
</event>
<event>
 4    1  0.4940461E-001  0.8301939E+02  0.7546771E-02  0.1320695E+00
         -2   -1    0    0    0  501 -0.00000000000E+00  0.00000000000E+00  0.49723249157E+01  0.49723249157E+01  0.00000000000E+00 0.  1.
          2   -1    0    0  501    0  0.00000000000E+00 -0.00000000000E+00 -0.15431542335E+04  0.15431542335E+04  0.00000000000E+00 0. -1.
         24    1    1    2    0    0 -0.20260261493E+02  0.38112032667E+01 -0.10160212725E+04  0.10194073992E+04  0.80419002446E+02 0.  0.
        -24    1    1    2    0    0  0.20260261493E+02 -0.38112032667E+01 -0.52216063610E+03  0.52871915921E+03  0.80419002446E+02 0.  0.
<mgrwt>
<rscale>  0 0.83019392E+02</rscale>
<asrwt>0</asrwt>
<pdfrwt beam="1">  1        2 0.23740825E+00 0.83019392E+02</pdfrwt>
<pdfrwt beam="2">  1       -2 0.76497337E-03 0.83019392E+02</pdfrwt>
<totfact> 0.37282562E+04</totfact>
</mgrwt>
</event>
<event>
 4    1  0.4940461E-001  0.8342850E+02  0.7546771E-02  0.1319594E+00
          2   -1    0    0  501    0  0.00000000000E+00  0.00000000000E+00  0.28834147961E+04  0.28834147961E+04  0.00000000000E+00 0. -1.
         -2   -1    0    0    0  501 -0.00000000000E+00 -0.00000000000E+00 -0.26605526332E+01  0.26605526332E+01  0.00000000000E+00 0.  1.
         24    1    1    2    0    0 -0.19063842866E+01  0.22123856475E+02  0.18797389412E+04  0.18815894351E+04  0.80419002446E+02 0.  1.
        -24    1    1    2    0    0  0.19063842866E+01 -0.22123856475E+02  0.10010153022E+04  0.10044859136E+04  0.80419002446E+02 0.  1.
<mgrwt>
<rscale>  0 0.83428504E+02</rscale>
<asrwt>0</asrwt>
<pdfrwt beam="1">  1        2 0.44359978E+00 0.83428504E+02</pdfrwt>
<pdfrwt beam="2">  1       -2 0.40931810E-03 0.83428504E+02</pdfrwt>
<totfact> 0.18281296E+04</totfact>
</mgrwt>
</event>
<event>
 4    1  0.4940461E-001  0.8295939E+02  0.7546771E-02  0.1320857E+00
         -2   -1    0    0    0  501 -0.00000000000E+00  0.00000000000E+00  0.13002081510E+02  0.13002081510E+02  0.00000000000E+00 0.  1.
          2   -1    0    0  501    0  0.00000000000E+00 -0.00000000000E+00 -0.52986574491E+03  0.52986574491E+03  0.00000000000E+00 0. -1.
         24    1    1    2    0    0  0.20285249724E+02 -0.18838701596E+01 -0.24971729100E+03  0.26313681175E+03  0.80419002446E+02 0.  1.
        -24    1    1    2    0    0 -0.20285249724E+02  0.18838701596E+01 -0.26714637241E+03  0.27973101467E+03  0.80419002446E+02 0. -1.
<mgrwt>
<rscale>  0 0.82959376E+02</rscale>
<asrwt>0</asrwt>
<pdfrwt beam="1">  1        2 0.81517801E-01 0.82959386E+02</pdfrwt>
<pdfrwt beam="2">  1       -2 0.20003204E-02 0.82959386E+02</pdfrwt>
<totfact> 0.39637806E+04</totfact>
</mgrwt>
</event>
<event>
 4    1  0.4940461E-001  0.8682745E+02  0.7546771E-02  0.1310722E+00
         -2   -1    0    0    0  501 -0.00000000000E+00  0.00000000000E+00  0.74140625474E+02  0.74140625474E+02  0.00000000000E+00 0.  1.
          2   -1    0    0  501    0  0.00000000000E+00 -0.00000000000E+00 -0.13479224022E+03  0.13479224022E+03  0.00000000000E+00 0. -1.
         24    1    1    2    0    0  0.15602527713E+02 -0.28781079246E+02 -0.82098935741E+02  0.11949577649E+03  0.80419002446E+02 0. -1.
        -24    1    1    2    0    0 -0.15602527713E+02  0.28781079246E+02  0.21447320997E+02  0.89437089207E+02  0.80419002446E+02 0.  1.
<mgrwt>
<rscale>  0 0.86827446E+02</rscale>
<asrwt>0</asrwt>
<pdfrwt beam="1">  1        2 0.20737267E-01 0.86827446E+02</pdfrwt>
<pdfrwt beam="2">  1       -2 0.11406250E-01 0.86827446E+02</pdfrwt>
<totfact> 0.12825153E+04</totfact>
</mgrwt>
</event>
<event>
 4    1  0.4940461E-001  0.9263043E+02  0.7546771E-02  0.1296604E+00
          2   -1    0    0  501    0  0.00000000000E+00  0.00000000000E+00  0.49933960313E+03  0.49933960313E+03  0.00000000000E+00 0. -1.
         -2   -1    0    0    0  501 -0.00000000000E+00 -0.00000000000E+00 -0.23139854671E+02  0.23139854671E+02  0.00000000000E+00 0.  1.
         24    1    1    2    0    0 -0.37990907663E+02  0.25881876529E+02  0.37064067457E+03  0.38204045099E+03  0.80419002446E+02 0. -1.
        -24    1    1    2    0    0  0.37990907663E+02 -0.25881876529E+02  0.10555907390E+03  0.14043900681E+03  0.80419002446E+02 0.  1.
<mgrwt>
<rscale>  0 0.92630430E+02</rscale>
<asrwt>0</asrwt>
<pdfrwt beam="1">  1        2 0.76821469E-01 0.92630430E+02</pdfrwt>
<pdfrwt beam="2">  1       -2 0.35599780E-02 0.92630430E+02</pdfrwt>
<totfact> 0.18575025E+04</totfact>
</mgrwt>
</event>
<event>
 4    1  0.4940461E-001  0.9636602E+02  0.7546771E-02  0.1288129E+00
         -2   -1    0    0    0  501 -0.00000000000E+00  0.00000000000E+00  0.51258915098E+02  0.51258915098E+02  0.00000000000E+00 0.  1.
          2   -1    0    0  501    0  0.00000000000E+00 -0.00000000000E+00 -0.45258534369E+03  0.45258534369E+03  0.00000000000E+00 0. -1.
         24    1    1    2    0    0 -0.49296909840E+02 -0.19723299534E+02 -0.39575361149E+03  0.40731723610E+03  0.80419002446E+02 0. -1.
        -24    1    1    2    0    0  0.49296909840E+02  0.19723299534E+02 -0.55728171061E+01  0.96527022689E+02  0.80419002446E+02 0.  1.
<mgrwt>
<rscale>  0 0.96366020E+02</rscale>
<asrwt>0</asrwt>
<pdfrwt beam="1">  1        2 0.69628515E-01 0.96366020E+02</pdfrwt>
<pdfrwt beam="2">  1       -2 0.78859869E-02 0.96366020E+02</pdfrwt>
<totfact> 0.63153838E+03</totfact>
</mgrwt>
</event>
<event>
 4    1  0.4940461E-001  0.9801596E+02  0.7546771E-02  0.1284524E+00
          1   -1    0    0  501    0  0.00000000000E+00  0.00000000000E+00  0.80970875574E+03  0.80970875574E+03  0.00000000000E+00 0. -1.
         -1   -1    0    0    0  501 -0.00000000000E+00 -0.00000000000E+00 -0.11887836498E+02  0.11887836498E+02  0.00000000000E+00 0.  1.
         24    1    1    2    0    0  0.49582981071E+02  0.26104422079E+02  0.38087361276E+03  0.39328340635E+03  0.80419002446E+02 0. -1.
        -24    1    1    2    0    0 -0.49582981071E+02 -0.26104422079E+02  0.41694730649E+03  0.42831318589E+03  0.80419002446E+02 0.  0.
<mgrwt>
<rscale>  0 0.98015962E+02</rscale>
<asrwt>0</asrwt>
<pdfrwt beam="1">  1        1 0.12457053E+00 0.98015962E+02</pdfrwt>
<pdfrwt beam="2">  1       -1 0.18288986E-02 0.98015962E+02</pdfrwt>
<totfact> 0.16396468E+04</totfact>
</mgrwt>
</event>
<event>
 4    1  0.4940461E-001  0.9867364E+02  0.7546771E-02  0.1283110E+00
         -2   -1    0    0    0  501 -0.00000000000E+00  0.00000000000E+00  0.38218021209E+02  0.38218021209E+02  0.00000000000E+00 0.  1.
          2   -1    0    0  501    0  0.00000000000E+00 -0.00000000000E+00 -0.50555921655E+03  0.50555921655E+03  0.00000000000E+00 0. -1.
         24    1    1    2    0    0 -0.42876869601E-02  0.57177546605E+02 -0.42516965213E+03  0.43646961051E+03  0.80419002446E+02 0. -1.
        -24    1    1    2    0    0  0.42876869601E-02 -0.57177546605E+02 -0.42171543213E+02  0.10730762725E+03  0.80419002446E+02 0.  1.
<mgrwt>
<rscale>  0 0.98673643E+02</rscale>
<asrwt>0</asrwt>
<pdfrwt beam="1">  1        2 0.77778335E-01 0.98673643E+02</pdfrwt>
<pdfrwt beam="2">  1       -2 0.58796960E-02 0.98673643E+02</pdfrwt>
<totfact> 0.87603208E+03</totfact>
</mgrwt>
</event>
<event>
 4    1  0.4940461E-001  0.8057097E+02  0.7546771E-02  0.1327439E+00
         -1   -1    0    0    0  501 -0.00000000000E+00  0.00000000000E+00  0.86465118080E+02  0.86465118080E+02  0.00000000000E+00 0.  1.
          1   -1    0    0  501    0  0.00000000000E+00 -0.00000000000E+00 -0.75166465040E+02  0.75166465040E+02  0.00000000000E+00 0. -1.
         24    1    1    2    0    0 -0.45009433065E+01  0.20510914498E+01  0.84121428047E+01  0.81008922766E+02  0.80419002446E+02 0.  1.
        -24    1    1    2    0    0  0.45009433065E+01 -0.20510914498E+01  0.28865102355E+01  0.80622660354E+02  0.80419002446E+02 0. -1.
<mgrwt>
<rscale>  0 0.80570971E+02</rscale>
<asrwt>0</asrwt>
<pdfrwt beam="1">  1        1 0.11564072E-01 0.80570971E+02</pdfrwt>
<pdfrwt beam="2">  1       -1 0.13302326E-01 0.80570971E+02</pdfrwt>
<totfact> 0.17973439E+04</totfact>
</mgrwt>
</event>
<event>
 4    1  0.4940461E-001  0.8961657E+02  0.7546771E-02  0.1303783E+00
         -2   -1    0    0    0  501 -0.00000000000E+00  0.00000000000E+00  0.31034051537E+01  0.31034051537E+01  0.00000000000E+00 0.  1.
          2   -1    0    0  501    0  0.00000000000E+00 -0.00000000000E+00 -0.31891473965E+04  0.31891473965E+04  0.00000000000E+00 0. -1.
         24    1    1    2    0    0 -0.39471382394E+02  0.24339324032E+01 -0.22860908060E+04  0.22878466520E+04  0.80419002446E+02 0.  1.
        -24    1    1    2    0    0  0.39471382394E+02 -0.24339324032E+01 -0.89995318537E+03  0.90440414963E+03  0.80419002446E+02 0. -1.
<mgrwt>
<rscale>  0 0.89616572E+02</rscale>
<asrwt>0</asrwt>
<pdfrwt beam="1">  1        2 0.49064173E+00 0.89616572E+02</pdfrwt>
<pdfrwt beam="2">  1       -2 0.47744337E-03 0.89616572E+02</pdfrwt>
<totfact> 0.98705535E+03</totfact>
</mgrwt>
</event>
<event>
 4    1  0.4940461E-001  0.8163240E+02  0.7546771E-02  0.1324482E+00
          1   -1    0    0  501    0  0.00000000000E+00  0.00000000000E+00  0.56470578694E+01  0.56470578694E+01  0.00000000000E+00 0. -1.
         -1   -1    0    0    0  501 -0.00000000000E+00 -0.00000000000E+00 -0.11831346958E+04  0.11831346958E+04  0.00000000000E+00 0.  1.
         24    1    1    2    0    0  0.12968124087E+01  0.13962367510E+02 -0.55842392630E+03  0.56435904072E+03  0.80419002446E+02 0. -1.
        -24    1    1    2    0    0 -0.12968124087E+01 -0.13962367510E+02 -0.61906371161E+03  0.62442271293E+03  0.80419002446E+02 0.  1.
<mgrwt>
<rscale>  0 0.81632390E+02</rscale>
<asrwt>0</asrwt>
<pdfrwt beam="1">  1        1 0.86877710E-03 0.81632400E+02</pdfrwt>
<pdfrwt beam="2">  1       -1 0.18202094E+00 0.81632400E+02</pdfrwt>
<totfact> 0.40298717E+03</totfact>
</mgrwt>
</event>
<event>
 4    1  0.4940461E-001  0.1104501E+03  0.7546771E-02  0.1259739E+00
          1   -1    0    0  501    0  0.00000000000E+00  0.00000000000E+00  0.92423751858E+02  0.92423751858E+02  0.00000000000E+00 0. -1.
         -1   -1    0    0    0  501 -0.00000000000E+00 -0.00000000000E+00 -0.16161769480E+03  0.16161769480E+03  0.00000000000E+00 0.  1.
         24    1    1    2    0    0  0.60420712694E+02  0.45621868444E+02 -0.88979754105E+02  0.14183310614E+03  0.80419002446E+02 0.  1.
        -24    1    1    2    0    0 -0.60420712694E+02 -0.45621868444E+02  0.19785811166E+02  0.11220834051E+03  0.80419002446E+02 0. -1.
<mgrwt>
<rscale>  0 0.11045014E+03</rscale>
<asrwt>0</asrwt>
<pdfrwt beam="1">  1        1 0.14219039E-01 0.11045014E+03</pdfrwt>
<pdfrwt beam="2">  1       -1 0.24864261E-01 0.11045014E+03</pdfrwt>
<totfact> 0.52805883E+03</totfact>
</mgrwt>
</event>
<event>
 4    1  0.4940461E-001  0.8592498E+02  0.7546771E-02  0.1313031E+00
          2   -1    0    0  501    0  0.00000000000E+00  0.00000000000E+00  0.87616685842E+03  0.87616685842E+03  0.00000000000E+00 0. -1.
         -2   -1    0    0    0  501 -0.00000000000E+00 -0.00000000000E+00 -0.45011510985E+02  0.45011510985E+02  0.00000000000E+00 0.  1.
         24    1    1    2    0    0 -0.29851126510E+02 -0.49796003444E+01  0.83082130346E+03  0.83525274044E+03  0.80419002446E+02 0. -1.
        -24    1    1    2    0    0  0.29851126510E+02  0.49796003444E+01  0.33404397458E+00  0.85925628966E+02  0.80419002446E+02 0.  1.
<mgrwt>
<rscale>  0 0.85924980E+02</rscale>
<asrwt>0</asrwt>
<pdfrwt beam="1">  1        2 0.13479489E+00 0.85924980E+02</pdfrwt>
<pdfrwt beam="2">  1       -2 0.69248485E-02 0.85924980E+02</pdfrwt>
<totfact> 0.35919856E+03</totfact>
</mgrwt>
</event>
<event>
 4    1  0.4940461E-001  0.9560621E+02  0.7546771E-02  0.1289817E+00
          1   -1    0    0  501    0  0.00000000000E+00  0.00000000000E+00  0.10270809116E+04  0.10270809116E+04  0.00000000000E+00 0. -1.
         -1   -1    0    0    0  501 -0.00000000000E+00 -0.00000000000E+00 -0.89287387350E+01  0.89287387350E+01  0.00000000000E+00 0.  1.
         24    1    1    2    0    0  0.34506960030E+02 -0.38504557728E+02  0.47945343074E+03  0.48889276888E+03  0.80419002446E+02 0.  1.
        -24    1    1    2    0    0 -0.34506960030E+02  0.38504557728E+02  0.53869874212E+03  0.54711688146E+03  0.80419002446E+02 0. -1.
<mgrwt>
<rscale>  0 0.95606209E+02</rscale>
<asrwt>0</asrwt>
<pdfrwt beam="1">  1        1 0.15801235E+00 0.95606209E+02</pdfrwt>
<pdfrwt beam="2">  1       -1 0.13736529E-02 0.95606209E+02</pdfrwt>
<totfact> 0.16870743E+04</totfact>
</mgrwt>
</event>
<event>
 4    1  0.4940461E-001  0.8313618E+02  0.7546771E-02  0.1320380E+00
          2   -1    0    0  501    0  0.00000000000E+00  0.00000000000E+00  0.10605482714E+04  0.10605482714E+04  0.00000000000E+00 0. -1.
         -2   -1    0    0    0  501 -0.00000000000E+00 -0.00000000000E+00 -0.33490945172E+03  0.33490945172E+03  0.00000000000E+00 0.  1.
         24    1    1    2    0    0  0.63858221321E+00 -0.21071336361E+02  0.10537263401E+04  0.10570008632E+04  0.80419002446E+02 0. -1.
        -24    1    1    2    0    0 -0.63858221321E+00  0.21071336361E+02 -0.32808752044E+03  0.33845685992E+03  0.80419002446E+02 0.  1.
<mgrwt>
<rscale>  0 0.83136183E+02</rscale>
<asrwt>0</asrwt>
<pdfrwt beam="1">  1        2 0.16316127E+00 0.83136183E+02</pdfrwt>
<pdfrwt beam="2">  1       -2 0.51524532E-01 0.83136183E+02</pdfrwt>
<totfact> 0.94428089E+01</totfact>
</mgrwt>
</event>
<event>
 4    1  0.4940461E-001  0.8070459E+02  0.7546771E-02  0.1327064E+00
         -1   -1    0    0    0  501 -0.00000000000E+00  0.00000000000E+00  0.13191004513E+03  0.13191004513E+03  0.00000000000E+00 0.  1.
          1   -1    0    0  501    0  0.00000000000E+00 -0.00000000000E+00 -0.52699491203E+02  0.52699491203E+02  0.00000000000E+00 0. -1.
         24    1    1    2    0    0 -0.41101091104E+01 -0.53964351391E+01  0.62784471528E+02  0.10225028278E+03  0.80419002446E+02 0.  0.
        -24    1    1    2    0    0  0.41101091104E+01  0.53964351391E+01  0.16426082404E+02  0.82359253558E+02  0.80419002446E+02 0. -1.
<mgrwt>
<rscale>  0 0.80704588E+02</rscale>
<asrwt>0</asrwt>
<pdfrwt beam="1">  1        1 0.81076141E-02 0.80704588E+02</pdfrwt>
<pdfrwt beam="2">  1       -1 0.20293853E-01 0.80704588E+02</pdfrwt>
<totfact> 0.14813703E+04</totfact>
</mgrwt>
</event>
<event>
 4    1  0.4940461E-001  0.1206431E+03  0.7546771E-02  0.1242040E+00
         -2   -1    0    0    0  501 -0.00000000000E+00  0.00000000000E+00  0.73491883766E+01  0.73491883766E+01  0.00000000000E+00 0.  1.
          2   -1    0    0  501    0  0.00000000000E+00 -0.00000000000E+00 -0.22615711317E+04  0.22615711317E+04  0.00000000000E+00 0. -1.
         24    1    1    2    0    0  0.89676423815E+02  0.67595300896E+01 -0.15270775611E+04  0.15318357111E+04  0.80419002446E+02 0. -1.
        -24    1    1    2    0    0 -0.89676423815E+02 -0.67595300896E+01 -0.72714438224E+03  0.73708460900E+03  0.80419002446E+02 0.  1.
<mgrwt>
<rscale>  0 0.12064314E+03</rscale>
<asrwt>0</asrwt>
<pdfrwt beam="1">  1        2 0.34793364E+00 0.12064314E+03</pdfrwt>
<pdfrwt beam="2">  1       -2 0.11306456E-02 0.12064314E+03</pdfrwt>
<totfact> 0.94751694E+03</totfact>
</mgrwt>
</event>
<event>
 4    1  0.4940461E-001  0.9939284E+02  0.7546771E-02  0.1281578E+00
         -2   -1    0    0    0  501 -0.00000000000E+00  0.00000000000E+00  0.96288742560E+01  0.96288742560E+01  0.00000000000E+00 0.  1.
          2   -1    0    0  501    0  0.00000000000E+00 -0.00000000000E+00 -0.16020690220E+04  0.16020690220E+04  0.00000000000E+00 0. -1.
         24    1    1    2    0    0  0.17208531659E+02 -0.55817443287E+02 -0.12794586393E+04  0.12833134247E+04  0.80419002446E+02 0. -1.
        -24    1    1    2    0    0 -0.17208531659E+02  0.55817443287E+02 -0.31298150844E+03  0.32838447149E+03  0.80419002446E+02 0.  1.
<mgrwt>
<rscale>  0 0.99392839E+02</rscale>
<asrwt>0</asrwt>
<pdfrwt beam="1">  1        2 0.24647205E+00 0.99392839E+02</pdfrwt>
<pdfrwt beam="2">  1       -2 0.14813659E-02 0.99392839E+02</pdfrwt>
<totfact> 0.13823016E+04</totfact>
</mgrwt>
</event>
<event>
 4    1  0.4940461E-001  0.8378775E+02  0.7546771E-02  0.1318633E+00
          2   -1    0    0  501    0  0.00000000000E+00  0.00000000000E+00  0.24251056195E+03  0.24251056195E+03  0.00000000000E+00 0. -1.
         -2   -1    0    0    0  501 -0.00000000000E+00 -0.00000000000E+00 -0.12695467200E+03  0.12695467200E+03  0.00000000000E+00 0.  1.
         24    1    1    2    0    0 -0.22856472868E+02  0.55455733627E+01  0.22008795560E+03  0.23549754965E+03  0.80419002446E+02 0. -1.
        -24    1    1    2    0    0  0.22856472868E+02 -0.55455733627E+01 -0.10453206565E+03  0.13396768431E+03  0.80419002446E+02 0.  1.
<mgrwt>
<rscale>  0 0.83787754E+02</rscale>
<asrwt>0</asrwt>
<pdfrwt beam="1">  1        2 0.37309317E-01 0.83787754E+02</pdfrwt>
<pdfrwt beam="2">  1       -2 0.19531488E-01 0.83787754E+02</pdfrwt>
<totfact> 0.28495754E+03</totfact>
</mgrwt>
</event>
<event>
 4    1  0.4940461E-001  0.9041530E+02  0.7546771E-02  0.1301849E+00
         -2   -1    0    0    0  501 -0.00000000000E+00  0.00000000000E+00  0.26627731177E+02  0.26627731177E+02  0.00000000000E+00 0.  1.
          2   -1    0    0  501    0  0.00000000000E+00 -0.00000000000E+00 -0.15018904961E+04  0.15018904961E+04  0.00000000000E+00 0. -1.
         24    1    1    2    0    0  0.37625107467E+02 -0.17089812532E+02 -0.14193169389E+04  0.14221939036E+04  0.80419002446E+02 0. -1.
        -24    1    1    2    0    0 -0.37625107467E+02  0.17089812532E+02 -0.55945826027E+02  0.10632432369E+03  0.80419002446E+02 0.  1.
<mgrwt>
<rscale>  0 0.90415299E+02</rscale>
<asrwt>0</asrwt>
<pdfrwt beam="1">  1        2 0.23106017E+00 0.90415299E+02</pdfrwt>
<pdfrwt beam="2">  1       -2 0.40965723E-02 0.90415299E+02</pdfrwt>
<totfact> 0.35511877E+03</totfact>
</mgrwt>
</event>
<event>
 4    1  0.4940461E-001  0.8226874E+02  0.7546771E-02  0.1322734E+00
          4   -1    0    0  501    0  0.00000000000E+00  0.00000000000E+00  0.21815951794E+03  0.21815951794E+03  0.00000000000E+00 0. -1.
         -4   -1    0    0    0  501 -0.00000000000E+00 -0.00000000000E+00 -0.88212293478E+02  0.88212293478E+02  0.00000000000E+00 0.  1.
         24    1    1    2    0    0 -0.96750440489E+01 -0.14398694348E+02  0.18831489134E+03  0.20550095652E+03  0.80419002446E+02 0. -1.
        -24    1    1    2    0    0  0.96750440489E+01  0.14398694348E+02 -0.58367666878E+02  0.10087085490E+03  0.80419002446E+02 0.  1.
<mgrwt>
<rscale>  0 0.82268735E+02</rscale>
<asrwt>0</asrwt>
<pdfrwt beam="1">  1        4 0.33563003E-01 0.82268735E+02</pdfrwt>
<pdfrwt beam="2">  1       -4 0.13571122E-01 0.82268735E+02</pdfrwt>
<totfact> 0.57077467E+02</totfact>
</mgrwt>
</event>
<event>
 4    1  0.4940461E-001  0.1004773E+03  0.7546771E-02  0.1279295E+00
         -2   -1    0    0    0  501 -0.00000000000E+00  0.00000000000E+00  0.65697904388E+01  0.65697904388E+01  0.00000000000E+00 0.  1.
          2   -1    0    0  501    0  0.00000000000E+00 -0.00000000000E+00 -0.17291422086E+04  0.17291422086E+04  0.00000000000E+00 0. -1.
         24    1    1    2    0    0 -0.25486179375E+02 -0.54579625116E+02 -0.11508202880E+04  0.11551982652E+04  0.80419002446E+02 0. -1.
        -24    1    1    2    0    0  0.25486179375E+02  0.54579625116E+02 -0.57175213024E+03  0.58051373387E+03  0.80419002446E+02 0.  1.
<mgrwt>
<rscale>  0 0.10047734E+03</rscale>
<asrwt>0</asrwt>
<pdfrwt beam="1">  1        2 0.26602191E+00 0.10047734E+03</pdfrwt>
<pdfrwt beam="2">  1       -2 0.10107369E-02 0.10047734E+03</pdfrwt>
<totfact> 0.20562297E+04</totfact>
</mgrwt>
</event>
<event>
 4    1  0.4940461E-001  0.9790125E+02  0.7546771E-02  0.1284772E+00
          2   -1    0    0  501    0  0.00000000000E+00  0.00000000000E+00  0.13171969064E+04  0.13171969064E+04  0.00000000000E+00 0. -1.
         -2   -1    0    0    0  501 -0.00000000000E+00 -0.00000000000E+00 -0.74861595783E+01  0.74861595783E+01  0.00000000000E+00 0.  1.
         24    1    1    2    0    0  0.36741100668E+02  0.42042005416E+02  0.76568444192E+03  0.77191794852E+03  0.80419002446E+02 0. -1.
        -24    1    1    2    0    0 -0.36741100668E+02 -0.42042005416E+02  0.54402630492E+03  0.55276511748E+03  0.80419002446E+02 0.  1.
<mgrwt>
<rscale>  0 0.97901249E+02</rscale>
<asrwt>0</asrwt>
<pdfrwt beam="1">  1        2 0.20264549E+00 0.97901249E+02</pdfrwt>
<pdfrwt beam="2">  1       -2 0.11517179E-02 0.97901249E+02</pdfrwt>
<totfact> 0.27744466E+04</totfact>
</mgrwt>
</event>
<event>
 4    1  0.4940461E-001  0.8295284E+02  0.7546771E-02  0.1320875E+00
          1   -1    0    0  501    0  0.00000000000E+00  0.00000000000E+00  0.32191738835E+03  0.32191738835E+03  0.00000000000E+00 0. -1.
         -1   -1    0    0    0  501 -0.00000000000E+00 -0.00000000000E+00 -0.38934145083E+02  0.38934145083E+02  0.00000000000E+00 0.  1.
         24    1    1    2    0    0 -0.69427473709E+01  0.19124735937E+02  0.20326489759E+02  0.85406904908E+02  0.80419002446E+02 0.  1.
        -24    1    1    2    0    0  0.69427473709E+01 -0.19124735937E+02  0.26265675351E+03  0.27544462852E+03  0.80419002446E+02 0. -1.
<mgrwt>
<rscale>  0 0.82952837E+02</rscale>
<asrwt>0</asrwt>
<pdfrwt beam="1">  1        1 0.49525750E-01 0.82952837E+02</pdfrwt>
<pdfrwt beam="2">  1       -1 0.59898687E-02 0.82952837E+02</pdfrwt>
<totfact> 0.97523589E+03</totfact>
</mgrwt>
</event>
<event>
 4    1  0.4940461E-001  0.8269311E+02  0.7546771E-02  0.1321578E+00
         -2   -1    0    0    0  501 -0.00000000000E+00  0.00000000000E+00  0.35917472958E+02  0.35917472958E+02  0.00000000000E+00 0.  1.
          2   -1    0    0  501    0  0.00000000000E+00 -0.00000000000E+00 -0.55906992570E+03  0.55906992570E+03  0.00000000000E+00 0. -1.
         24    1    1    2    0    0  0.50528269231E+01  0.18585029919E+02 -0.50316255853E+03  0.50991245392E+03  0.80419002446E+02 0. -1.
        -24    1    1    2    0    0 -0.50528269231E+01 -0.18585029919E+02 -0.19989894205E+02  0.85074944735E+02  0.80419002446E+02 0.  0.
<mgrwt>
<rscale>  0 0.82693109E+02</rscale>
<asrwt>0</asrwt>
<pdfrwt beam="1">  1        2 0.86010758E-01 0.82693109E+02</pdfrwt>
<pdfrwt beam="2">  1       -2 0.55257650E-02 0.82693109E+02</pdfrwt>
<totfact> 0.84993129E+03</totfact>
</mgrwt>
</event>
<event>
 4    1  0.4940461E-001  0.9100070E+02  0.7546771E-02  0.1300446E+00
         -1   -1    0    0    0  501 -0.00000000000E+00  0.00000000000E+00  0.32720043607E+02  0.32720043607E+02  0.00000000000E+00 0.  1.
          1   -1    0    0  501    0  0.00000000000E+00 -0.00000000000E+00 -0.33345012381E+03  0.33345012381E+03  0.00000000000E+00 0. -1.
         24    1    1    2    0    0  0.12177692848E+01 -0.42572632524E+02 -0.60486332460E+02  0.10926904580E+03  0.80419002446E+02 0.  0.
        -24    1    1    2    0    0 -0.12177692848E+01  0.42572632524E+02 -0.24024374774E+03  0.25690112161E+03  0.80419002446E+02 0.  0.
<mgrwt>
<rscale>  0 0.91000703E+02</rscale>
<asrwt>0</asrwt>
<pdfrwt beam="1">  1        1 0.51300020E-01 0.91000703E+02</pdfrwt>
<pdfrwt beam="2">  1       -1 0.50338528E-02 0.91000703E+02</pdfrwt>
<totfact> 0.12156821E+04</totfact>
</mgrwt>
</event>
<event>
 4    1  0.4940461E-001  0.8926444E+02  0.7546771E-02  0.1304643E+00
          3   -1    0    0  501    0  0.00000000000E+00  0.00000000000E+00  0.20298161249E+02  0.20298161249E+02  0.00000000000E+00 0. -1.
         -3   -1    0    0    0  501 -0.00000000000E+00 -0.00000000000E+00 -0.39262243549E+03  0.39262243549E+03  0.00000000000E+00 0.  1.
         24    1    1    2    0    0 -0.15752344579E+01  0.38709663771E+02 -0.18344717414E+03  0.20401225720E+03  0.80419002446E+02 0. -1.
        -24    1    1    2    0    0  0.15752344579E+01 -0.38709663771E+02 -0.18887710010E+03  0.20890833954E+03  0.80419002446E+02 0.  1.
<mgrwt>
<rscale>  0 0.89264424E+02</rscale>
<asrwt>0</asrwt>
<pdfrwt beam="1">  1        3 0.31227938E-02 0.89264435E+02</pdfrwt>
<pdfrwt beam="2">  1       -3 0.60403456E-01 0.89264435E+02</pdfrwt>
<totfact> 0.27372920E+03</totfact>
</mgrwt>
</event>
<event>
 4    1  0.4940461E-001  0.1633049E+03  0.7546771E-02  0.1185015E+00
         -2   -1    0    0    0  501 -0.00000000000E+00  0.00000000000E+00  0.26932962508E+02  0.26932962508E+02  0.00000000000E+00 0.  1.
          2   -1    0    0  501    0  0.00000000000E+00 -0.00000000000E+00 -0.12303983973E+04  0.12303983973E+04  0.00000000000E+00 0. -1.
         24    1    1    2    0    0  0.12852122430E+02 -0.14154895949E+03 -0.87951166671E+03  0.89454417041E+03  0.80419002446E+02 0. -1.
        -24    1    1    2    0    0 -0.12852122430E+02  0.14154895949E+03 -0.32395376811E+03  0.36278718943E+03  0.80419002446E+02 0.  1.
<mgrwt>
<rscale>  0 0.16330493E+03</rscale>
<asrwt>0</asrwt>
<pdfrwt beam="1">  1        2 0.18929202E+00 0.16330493E+03</pdfrwt>
<pdfrwt beam="2">  1       -2 0.41435335E-02 0.16330493E+03</pdfrwt>
<totfact> 0.49370778E+03</totfact>
</mgrwt>
</event>
<event>
 4    1  0.4940461E-001  0.9449054E+02  0.7546771E-02  0.1292328E+00
         -2   -1    0    0    0  501 -0.00000000000E+00  0.00000000000E+00  0.23614725953E+02  0.23614725953E+02  0.00000000000E+00 0.  1.
          2   -1    0    0  501    0  0.00000000000E+00 -0.00000000000E+00 -0.45781903460E+03  0.45781903460E+03  0.00000000000E+00 0. -1.
         24    1    1    2    0    0  0.40236263175E+02  0.29022227448E+02 -0.31755708227E+03  0.33131701287E+03  0.80419002446E+02 0. -1.
        -24    1    1    2    0    0 -0.40236263175E+02 -0.29022227448E+02 -0.11664722637E+03  0.15011674768E+03  0.80419002446E+02 0.  1.
<mgrwt>
<rscale>  0 0.94490542E+02</rscale>
<asrwt>0</asrwt>
<pdfrwt beam="1">  1        2 0.70433694E-01 0.94490542E+02</pdfrwt>
<pdfrwt beam="2">  1       -2 0.36330350E-02 0.94490542E+02</pdfrwt>
<totfact> 0.19832023E+04</totfact>
</mgrwt>
</event>
<event>
 4    1  0.4940461E-001  0.8108337E+02  0.7546771E-02  0.1326005E+00
         -1   -1    0    0    0  501 -0.00000000000E+00  0.00000000000E+00  0.86057041515E+02  0.86057041515E+02  0.00000000000E+00 0.  1.
          1   -1    0    0  501    0  0.00000000000E+00 -0.00000000000E+00 -0.41826074659E+03  0.41826074659E+03  0.00000000000E+00 0. -1.
         24    1    1    2    0    0 -0.25747918021E+01  0.10033335335E+02  0.61867864928E+02  0.10199091154E+03  0.80419002446E+02 0.  1.
        -24    1    1    2    0    0  0.25747918021E+01 -0.10033335335E+02 -0.39407157001E+03  0.40232687657E+03  0.80419002446E+02 0. -1.
<mgrwt>
<rscale>  0 0.81083373E+02</rscale>
<asrwt>0</asrwt>
<pdfrwt beam="1">  1        1 0.64347806E-01 0.81083373E+02</pdfrwt>
<pdfrwt beam="2">  1       -1 0.13239545E-01 0.81083373E+02</pdfrwt>
<totfact> 0.21517778E+03</totfact>
</mgrwt>
</event>
<event>
 4    1  0.4940461E-001  0.8379426E+02  0.7546771E-02  0.1318616E+00
          4   -1    0    0  501    0  0.00000000000E+00  0.00000000000E+00  0.14058075351E+02  0.14058075351E+02  0.00000000000E+00 0. -1.
         -4   -1    0    0    0  501 -0.00000000000E+00 -0.00000000000E+00 -0.87285643729E+03  0.87285643729E+03  0.00000000000E+00 0.  1.
         24    1    1    2    0    0 -0.17015541785E+02  0.16270635722E+02 -0.13935502334E+03  0.16260781265E+03  0.80419002446E+02 0.  0.
        -24    1    1    2    0    0  0.17015541785E+02 -0.16270635722E+02 -0.71944333860E+03  0.72430670000E+03  0.80419002446E+02 0.  1.
<mgrwt>
<rscale>  0 0.83794261E+02</rscale>
<asrwt>0</asrwt>
<pdfrwt beam="1">  1        4 0.21627810E-02 0.83794261E+02</pdfrwt>
<pdfrwt beam="2">  1       -4 0.13428560E+00 0.83794261E+02</pdfrwt>
<totfact> 0.56813287E+02</totfact>
</mgrwt>
</event>
<event>
 4    1  0.4940461E-001  0.8365407E+02  0.7546771E-02  0.1318990E+00
          2   -1    0    0  501    0  0.00000000000E+00  0.00000000000E+00  0.48003008137E+04  0.48003008137E+04  0.00000000000E+00 0. -1.
         -2   -1    0    0    0  501 -0.00000000000E+00 -0.00000000000E+00 -0.25142932307E+01  0.25142932307E+01  0.00000000000E+00 0.  1.
         24    1    1    2    0    0 -0.23038602564E+02  0.10230057403E+00  0.39555251097E+04  0.39564095967E+04  0.80419002446E+02 0. -1.
        -24    1    1    2    0    0  0.23038602564E+02 -0.10230057403E+00  0.84226141080E+03  0.84640551024E+03  0.80419002446E+02 0.  1.
<mgrwt>
<rscale>  0 0.83654071E+02</rscale>
<asrwt>0</asrwt>
<pdfrwt beam="1">  1        2 0.73850048E+00 0.83654071E+02</pdfrwt>
<pdfrwt beam="2">  1       -2 0.38681818E-03 0.83654071E+02</pdfrwt>
<totfact> 0.78757399E+02</totfact>
</mgrwt>
</event>
<event>
 4    1  0.4940461E-001  0.8345579E+02  0.7546771E-02  0.1319521E+00
          4   -1    0    0  501    0  0.00000000000E+00  0.00000000000E+00  0.50208128729E+03  0.50208128729E+03  0.00000000000E+00 0. -1.
         -4   -1    0    0    0  501 -0.00000000000E+00 -0.00000000000E+00 -0.18024025168E+02  0.18024025168E+02  0.00000000000E+00 0.  1.
         24    1    1    2    0    0 -0.71851754146E+01  0.21119339030E+02  0.36684330427E+03  0.37621653216E+03  0.80419002446E+02 0. -1.
        -24    1    1    2    0    0  0.71851754146E+01 -0.21119339030E+02  0.11721395785E+03  0.14388878030E+03  0.80419002446E+02 0.  1.
<mgrwt>
<rscale>  0 0.83455792E+02</rscale>
<asrwt>0</asrwt>
<pdfrwt beam="1">  1        4 0.77243264E-01 0.83455792E+02</pdfrwt>
<pdfrwt beam="2">  1       -4 0.27729273E-02 0.83455792E+02</pdfrwt>
<totfact> 0.13774432E+03</totfact>
</mgrwt>
</event>
<event>
 4    1  0.4940461E-001  0.9430042E+02  0.7546771E-02  0.1292760E+00
          1   -1    0    0  501    0  0.00000000000E+00  0.00000000000E+00  0.80263374443E+03  0.80263374443E+03  0.00000000000E+00 0. -1.
         -1   -1    0    0    0  501 -0.00000000000E+00 -0.00000000000E+00 -0.16934583888E+02  0.16934583888E+02  0.00000000000E+00 0.  1.
         24    1    1    2    0    0  0.58896174061E+01 -0.48894429549E+02  0.15188996954E+03  0.17878235829E+03  0.80419002446E+02 0.  1.
        -24    1    1    2    0    0 -0.58896174061E+01  0.48894429549E+02  0.63380919100E+03  0.64078597003E+03  0.80419002446E+02 0. -1.
<mgrwt>
<rscale>  0 0.94300418E+02</rscale>
<asrwt>0</asrwt>
<pdfrwt beam="1">  1        1 0.12348209E+00 0.94300418E+02</pdfrwt>
<pdfrwt beam="2">  1       -1 0.26053212E-02 0.94300418E+02</pdfrwt>
<totfact> 0.99790899E+03</totfact>
</mgrwt>
</event>
<event>
 4    1  0.4940461E-001  0.9080213E+02  0.7546771E-02  0.1300921E+00
         -2   -1    0    0    0  501 -0.00000000000E+00  0.00000000000E+00  0.28046970376E+02  0.28046970376E+02  0.00000000000E+00 0.  1.
          2   -1    0    0  501    0  0.00000000000E+00 -0.00000000000E+00 -0.19374004620E+04  0.19374004620E+04  0.00000000000E+00 0. -1.
         24    1    1    2    0    0 -0.30903548943E+01  0.42050681365E+02 -0.18597779233E+04  0.18619932733E+04  0.80419002446E+02 0. -1.
        -24    1    1    2    0    0  0.30903548943E+01 -0.42050681365E+02 -0.49575568402E+02  0.10345415909E+03  0.80419002446E+02 0.  1.
<mgrwt>
<rscale>  0 0.90802126E+02</rscale>
<asrwt>0</asrwt>
<pdfrwt beam="1">  1        2 0.29806161E+00 0.90802126E+02</pdfrwt>
<pdfrwt beam="2">  1       -2 0.43149185E-02 0.90802126E+02</pdfrwt>
<totfact> 0.19853598E+03</totfact>
</mgrwt>
</event>
<event>
 4    1  0.4940461E-001  0.1159401E+03  0.7546771E-02  0.1249949E+00
          2   -1    0    0  501    0  0.00000000000E+00  0.00000000000E+00  0.38479922398E+03  0.38479922398E+03  0.00000000000E+00 0. -1.
         -2   -1    0    0    0  501 -0.00000000000E+00 -0.00000000000E+00 -0.42541992492E+02  0.42541992492E+02  0.00000000000E+00 0.  1.
         24    1    1    2    0    0 -0.60448043390E+02  0.57627424681E+02  0.80762404450E+02  0.14129638336E+03  0.80419002446E+02 0. -1.
        -24    1    1    2    0    0  0.60448043390E+02 -0.57627424681E+02  0.26149482704E+03  0.28604483311E+03  0.80419002446E+02 0.  0.
<mgrwt>
<rscale>  0 0.11594009E+03</rscale>
<asrwt>0</asrwt>
<pdfrwt beam="1">  1        2 0.59199878E-01 0.11594011E+03</pdfrwt>
<pdfrwt beam="2">  1       -2 0.65449222E-02 0.11594011E+03</pdfrwt>
<totfact> 0.10102440E+04</totfact>
</mgrwt>
</event>
<event>
 4    1  0.4940461E-001  0.3586760E+03  0.7546771E-02  0.1059109E+00
         -2   -1    0    0    0  501 -0.00000000000E+00  0.00000000000E+00  0.52209121924E+02  0.52209121924E+02  0.00000000000E+00 0.  1.
          2   -1    0    0  501    0  0.00000000000E+00 -0.00000000000E+00 -0.31281304598E+04  0.31281304598E+04  0.00000000000E+00 0. -1.
         24    1    1    2    0    0 -0.23147128800E+02 -0.34877707609E+03 -0.22706086213E+04  0.22987631382E+04  0.80419002446E+02 0. -1.
        -24    1    1    2    0    0  0.23147128800E+02  0.34877707609E+03 -0.80531271653E+03  0.88157644350E+03  0.80419002446E+02 0.  1.
<mgrwt>
<rscale>  0 0.35867597E+03</rscale>
<asrwt>0</asrwt>
<pdfrwt beam="1">  1        2 0.48125089E+00 0.35867597E+03</pdfrwt>
<pdfrwt beam="2">  1       -2 0.80321718E-02 0.35867597E+03</pdfrwt>
<totfact> 0.16006070E+02</totfact>
</mgrwt>
</event>
<event>
 4    1  0.4940461E-001  0.8317086E+02  0.7546771E-02  0.1320286E+00
          2   -1    0    0  501    0  0.00000000000E+00  0.00000000000E+00  0.32199572217E+03  0.32199572217E+03  0.00000000000E+00 0. -1.
         -2   -1    0    0    0  501 -0.00000000000E+00 -0.00000000000E+00 -0.35548276627E+02  0.35548276627E+02  0.00000000000E+00 0.  1.
         24    1    1    2    0    0  0.94536681819E+01  0.18994836341E+02  0.25567551935E+03  0.26886309304E+03  0.80419002446E+02 0.  0.
        -24    1    1    2    0    0 -0.94536681819E+01 -0.18994836341E+02  0.30771926192E+02  0.88680905756E+02  0.80419002446E+02 0.  1.
<mgrwt>
<rscale>  0 0.83170858E+02</rscale>
<asrwt>0</asrwt>
<pdfrwt beam="1">  1        2 0.49537801E-01 0.83170858E+02</pdfrwt>
<pdfrwt beam="2">  1       -2 0.54689659E-02 0.83170858E+02</pdfrwt>
<totfact> 0.15496155E+04</totfact>
</mgrwt>
</event>
<event>
 4    1  0.4940461E-001  0.8104998E+02  0.7546771E-02  0.1326098E+00
         -2   -1    0    0    0  501 -0.00000000000E+00  0.00000000000E+00  0.69332131747E+03  0.69332131747E+03  0.00000000000E+00 0.  1.
          2   -1    0    0  501    0  0.00000000000E+00 -0.00000000000E+00 -0.32655219734E+02  0.32655219734E+02  0.00000000000E+00 0. -1.
         24    1    1    2    0    0 -0.48879991427E+00 -0.10081908798E+02  0.24505449342E+02  0.84673589815E+02  0.80419002446E+02 0. -1.
        -24    1    1    2    0    0  0.48879991427E+00  0.10081908798E+02  0.63616064839E+03  0.64130294739E+03  0.80419002446E+02 0.  0.
<mgrwt>
<rscale>  0 0.81049983E+02</rscale>
<asrwt>0</asrwt>
<pdfrwt beam="1">  1        2 0.50238805E-02 0.81049983E+02</pdfrwt>
<pdfrwt beam="2">  1       -2 0.10666481E+00 0.81049983E+02</pdfrwt>
<totfact> 0.10826134E+03</totfact>
</mgrwt>
</event>
<event>
 4    1  0.4940461E-001  0.1126545E+03  0.7546771E-02  0.1255732E+00
          1   -1    0    0  501    0  0.00000000000E+00  0.00000000000E+00  0.81294946390E+02  0.81294946390E+02  0.00000000000E+00 0. -1.
         -1   -1    0    0    0  501 -0.00000000000E+00 -0.00000000000E+00 -0.46970874812E+03  0.46970874812E+03  0.00000000000E+00 0.  1.
         24    1    1    2    0    0  0.73326703539E+01 -0.78549611928E+02 -0.41931791383E+03  0.43418721585E+03  0.80419002446E+02 0.  1.
        -24    1    1    2    0    0 -0.73326703539E+01  0.78549611928E+02  0.30904112102E+02  0.11681647867E+03  0.80419002446E+02 0. -1.
<mgrwt>
<rscale>  0 0.11265445E+03</rscale>
<asrwt>0</asrwt>
<pdfrwt beam="1">  1        1 0.12506915E-01 0.11265445E+03</pdfrwt>
<pdfrwt beam="2">  1       -1 0.72262884E-01 0.11265445E+03</pdfrwt>
<totfact> 0.93830218E+02</totfact>
</mgrwt>
</event>
<event>
 4    1  0.4940461E-001  0.9974964E+02  0.7546771E-02  0.1280823E+00
          1   -1    0    0  501    0  0.00000000000E+00  0.00000000000E+00  0.27107751343E+03  0.27107751343E+03  0.00000000000E+00 0. -1.
         -1   -1    0    0    0  501 -0.00000000000E+00 -0.00000000000E+00 -0.97492587082E+02  0.97492587082E+02  0.00000000000E+00 0.  1.
         24    1    1    2    0    0  0.27906262919E+02 -0.52000137462E+02 -0.58723480179E+02  0.11575161720E+03  0.80419002446E+02 0.  1.
        -24    1    1    2    0    0 -0.27906262919E+02  0.52000137462E+02  0.23230840653E+03  0.25281848331E+03  0.80419002446E+02 0. -1.
<mgrwt>
<rscale>  0 0.99749635E+02</rscale>
<asrwt>0</asrwt>
<pdfrwt beam="1">  1        1 0.41704232E-01 0.99749635E+02</pdfrwt>
<pdfrwt beam="2">  1       -1 0.14998860E-01 0.99749635E+02</pdfrwt>
<totfact> 0.30544558E+03</totfact>
</mgrwt>
</event>
<event>
 4    1  0.4940461E-001  0.8151197E+02  0.7546771E-02  0.1324815E+00
         -1   -1    0    0    0  501 -0.00000000000E+00  0.00000000000E+00  0.32925398992E+03  0.32925398992E+03  0.00000000000E+00 0.  1.
          1   -1    0    0  501    0  0.00000000000E+00 -0.00000000000E+00 -0.40554375775E+02  0.40554375775E+02  0.00000000000E+00 0. -1.
         24    1    1    2    0    0  0.59167584892E+00 -0.13290444284E+02  0.27541116957E+03  0.28722032356E+03  0.80419002446E+02 0.  1.
        -24    1    1    2    0    0 -0.59167584892E+00  0.13290444284E+02  0.13288444574E+02  0.82588042132E+02  0.80419002446E+02 0. -1.
<mgrwt>
<rscale>  0 0.81511974E+02</rscale>
<asrwt>0</asrwt>
<pdfrwt beam="1">  1        1 0.62391350E-02 0.81511974E+02</pdfrwt>
<pdfrwt beam="2">  1       -1 0.50654458E-01 0.81511974E+02</pdfrwt>
<totfact> 0.45176458E+03</totfact>
</mgrwt>
</event>
<event>
 4    1  0.4940461E-001  0.9545011E+02  0.7546771E-02  0.1290166E+00
          2   -1    0    0  501    0  0.00000000000E+00  0.00000000000E+00  0.28332184351E+04  0.28332184351E+04  0.00000000000E+00 0. -1.
         -2   -1    0    0    0  501 -0.00000000000E+00 -0.00000000000E+00 -0.42234660723E+01  0.42234660723E+01  0.00000000000E+00 0.  1.
         24    1    1    2    0    0  0.50785012513E+02  0.80243696553E+01  0.21075188846E+04  0.21096792583E+04  0.80419002446E+02 0. -1.
        -24    1    1    2    0    0 -0.50785012513E+02 -0.80243696553E+01  0.72147608446E+03  0.72776264291E+03  0.80419002446E+02 0.  1.
<mgrwt>
<rscale>  0 0.95450112E+02</rscale>
<asrwt>0</asrwt>
<pdfrwt beam="1">  1        2 0.43587824E+00 0.95450112E+02</pdfrwt>
<pdfrwt beam="2">  1       -2 0.64976627E-03 0.95450112E+02</pdfrwt>
<totfact> 0.10244221E+04</totfact>
</mgrwt>
</event>
<event>
 4    1  0.4940461E-001  0.9615635E+02  0.7546771E-02  0.1288593E+00
         -2   -1    0    0    0  501 -0.00000000000E+00  0.00000000000E+00  0.12951216980E+02  0.12951216980E+02  0.00000000000E+00 0.  1.
          2   -1    0    0  501    0  0.00000000000E+00 -0.00000000000E+00 -0.83128668998E+03  0.83128668998E+03  0.00000000000E+00 0. -1.
         24    1    1    2    0    0 -0.48600147200E+02 -0.20416970110E+02 -0.56778290225E+03  0.57586757768E+03  0.80419002446E+02 0. -1.
        -24    1    1    2    0    0  0.48600147200E+02  0.20416970110E+02 -0.25055257075E+03  0.26837032929E+03  0.80419002446E+02 0.  1.
<mgrwt>
<rscale>  0 0.96156346E+02</rscale>
<asrwt>0</asrwt>
<pdfrwt beam="1">  1        2 0.12789031E+00 0.96156346E+02</pdfrwt>
<pdfrwt beam="2">  1       -2 0.19924942E-02 0.96156346E+02</pdfrwt>
<totfact> 0.24092447E+04</totfact>
</mgrwt>
</event>
<event>
 4    1  0.4940461E-001  0.1195061E+03  0.7546771E-02  0.1243914E+00
         -2   -1    0    0    0  501 -0.00000000000E+00  0.00000000000E+00  0.52114789308E+02  0.52114789308E+02  0.00000000000E+00 0.  1.
          2   -1    0    0  501    0  0.00000000000E+00 -0.00000000000E+00 -0.31471907018E+03  0.31471907018E+03  0.00000000000E+00 0. -1.
         24    1    1    2    0    0 -0.19430836603E+02  0.86237628111E+02 -0.19724176900E+03  0.23062093857E+03  0.80419002446E+02 0.  1.
        -24    1    1    2    0    0  0.19430836603E+02 -0.86237628111E+02 -0.65362511875E+02  0.13621292092E+03  0.80419002446E+02 0.  0.
<mgrwt>
<rscale>  0 0.11950607E+03</rscale>
<asrwt>0</asrwt>
<pdfrwt beam="1">  1        2 0.48418319E-01 0.11950607E+03</pdfrwt>
<pdfrwt beam="2">  1       -2 0.80176598E-02 0.11950607E+03</pdfrwt>
<totfact> 0.91829825E+03</totfact>
</mgrwt>
</event>
<event>
 4    1  0.4940461E-001  0.9219579E+02  0.7546771E-02  0.1297620E+00
         -1   -1    0    0    0  501 -0.00000000000E+00  0.00000000000E+00  0.76285760104E+01  0.76285760104E+01  0.00000000000E+00 0.  1.
          1   -1    0    0  501    0  0.00000000000E+00 -0.00000000000E+00 -0.11753757109E+04  0.11753757109E+04  0.00000000000E+00 0. -1.
         24    1    1    2    0    0  0.18222009631E+02  0.41240834208E+02 -0.44897240224E+03  0.45834079239E+03  0.80419002446E+02 0. -1.
        -24    1    1    2    0    0 -0.18222009631E+02 -0.41240834208E+02 -0.71877473269E+03  0.72466349456E+03  0.80419002446E+02 0.  0.
<mgrwt>
<rscale>  0 0.92195792E+02</rscale>
<asrwt>0</asrwt>
<pdfrwt beam="1">  1        1 0.18082701E+00 0.92195792E+02</pdfrwt>
<pdfrwt beam="2">  1       -1 0.11736272E-02 0.92195792E+02</pdfrwt>
<totfact> 0.16585141E+04</totfact>
</mgrwt>
</event>
<event>
 4    1  0.4940461E-001  0.1379608E+03  0.7546771E-02  0.1216099E+00
         -2   -1    0    0    0  501 -0.00000000000E+00  0.00000000000E+00  0.57122920044E+02  0.57122920044E+02  0.00000000000E+00 0.  1.
          2   -1    0    0  501    0  0.00000000000E+00 -0.00000000000E+00 -0.34047080078E+03  0.34047080078E+03  0.00000000000E+00 0. -1.
         24    1    1    2    0    0 -0.11025212321E+03 -0.20259281295E+02 -0.11261695598E+03  0.17808920203E+03  0.80419002446E+02 0.  1.
        -24    1    1    2    0    0  0.11025212321E+03  0.20259281295E+02 -0.17073092476E+03  0.21950451880E+03  0.80419002446E+02 0. -1.
<mgrwt>
<rscale>  0 0.13796083E+03</rscale>
<asrwt>0</asrwt>
<pdfrwt beam="1">  1        2 0.52380123E-01 0.13796084E+03</pdfrwt>
<pdfrwt beam="2">  1       -2 0.87881415E-02 0.13796084E+03</pdfrwt>
<totfact> 0.74058034E+03</totfact>
</mgrwt>
</event>
<event>
 4    1  0.4940461E-001  0.8635715E+02  0.7546771E-02  0.1311921E+00
          3   -1    0    0  501    0  0.00000000000E+00  0.00000000000E+00  0.68704131732E+02  0.68704131732E+02  0.00000000000E+00 0. -1.
         -3   -1    0    0    0  501 -0.00000000000E+00 -0.00000000000E+00 -0.46586247917E+03  0.46586247917E+03  0.00000000000E+00 0.  1.
         24    1    1    2    0    0  0.30767418451E+02 -0.66111548432E+01 -0.43266197253E+03  0.44119603334E+03  0.80419002446E+02 0.  1.
        -24    1    1    2    0    0 -0.30767418451E+02  0.66111548432E+01  0.35503625088E+02  0.93370577567E+02  0.80419002446E+02 0. -1.
<mgrwt>
<rscale>  0 0.86357150E+02</rscale>
<asrwt>0</asrwt>
<pdfrwt beam="1">  1        3 0.10569866E-01 0.86357150E+02</pdfrwt>
<pdfrwt beam="2">  1       -3 0.71671152E-01 0.86357150E+02</pdfrwt>
<totfact> 0.27761329E+02</totfact>
</mgrwt>
</event>
<event>
 4    1  0.4940461E-001  0.8446104E+02  0.7546771E-02  0.1316848E+00
          2   -1    0    0  501    0  0.00000000000E+00  0.00000000000E+00  0.48573799740E+03  0.48573799740E+03  0.00000000000E+00 0. -1.
         -2   -1    0    0    0  501 -0.00000000000E+00 -0.00000000000E+00 -0.15456596773E+02  0.15456596773E+02  0.00000000000E+00 0.  1.
         24    1    1    2    0    0 -0.63884064555E+01 -0.25012793380E+02  0.29108602768E+03  0.30309197125E+03  0.80419002446E+02 0.  1.
        -24    1    1    2    0    0  0.63884064555E+01  0.25012793380E+02  0.17919537294E+03  0.19810262292E+03  0.80419002446E+02 0.  0.
<mgrwt>
<rscale>  0 0.84461041E+02</rscale>
<asrwt>0</asrwt>
<pdfrwt beam="1">  1        2 0.74728911E-01 0.84461041E+02</pdfrwt>
<pdfrwt beam="2">  1       -2 0.23779383E-02 0.84461041E+02</pdfrwt>
<totfact> 0.34035808E+04</totfact>
</mgrwt>
</event>
<event>
 4    1  0.4940461E-001  0.8373498E+02  0.7546771E-02  0.1318774E+00
         -2   -1    0    0    0  501 -0.00000000000E+00  0.00000000000E+00  0.62011222781E+01  0.62011222781E+01  0.00000000000E+00 0.  1.
          2   -1    0    0  501    0  0.00000000000E+00 -0.00000000000E+00 -0.13030042588E+04  0.13030042588E+04  0.00000000000E+00 0. -1.
         24    1    1    2    0    0  0.12004237805E+02 -0.20005749213E+02 -0.88645000161E+03  0.89039606527E+03  0.80419002446E+02 0. -1.
        -24    1    1    2    0    0 -0.12004237805E+02  0.20005749213E+02 -0.41035313489E+03  0.41880931579E+03  0.80419002446E+02 0.  1.
<mgrwt>
<rscale>  0 0.83734985E+02</rscale>
<asrwt>0</asrwt>
<pdfrwt beam="1">  1        2 0.20046253E+00 0.83734985E+02</pdfrwt>
<pdfrwt beam="2">  1       -2 0.95401721E-03 0.83734985E+02</pdfrwt>
<totfact> 0.36344596E+04</totfact>
</mgrwt>
</event>
<event>
 4    1  0.4940461E-001  0.9378368E+02  0.7546771E-02  0.1293939E+00
          2   -1    0    0  501    0  0.00000000000E+00  0.00000000000E+00  0.15773131443E+03  0.15773131443E+03  0.00000000000E+00 0. -1.
         -2   -1    0    0    0  501 -0.00000000000E+00 -0.00000000000E+00 -0.56939792692E+02  0.56939792692E+02  0.00000000000E+00 0.  1.
         24    1    1    2    0    0 -0.38517849877E+02  0.29060846617E+02  0.34956842216E+02  0.10008673407E+03  0.80419002446E+02 0. -1.
        -24    1    1    2    0    0  0.38517849877E+02 -0.29060846617E+02  0.65834679527E+02  0.11458437305E+03  0.80419002446E+02 0.  1.
<mgrwt>
<rscale>  0 0.93783664E+02</rscale>
<asrwt>0</asrwt>
<pdfrwt beam="1">  1        2 0.24266356E-01 0.93783676E+02</pdfrwt>
<pdfrwt beam="2">  1       -2 0.87599682E-02 0.93783676E+02</pdfrwt>
<totfact> 0.16388888E+04</totfact>
</mgrwt>
</event>
<event>
 4    1  0.4940461E-001  0.8421043E+02  0.7546771E-02  0.1317510E+00
          2   -1    0    0  501    0  0.00000000000E+00  0.00000000000E+00  0.27136687054E+04  0.27136687054E+04  0.00000000000E+00 0. -1.
         -2   -1    0    0    0  501 -0.00000000000E+00 -0.00000000000E+00 -0.45537088328E+01  0.45537088328E+01  0.00000000000E+00 0.  1.
         24    1    1    2    0    0 -0.12163670262E+02 -0.21822605233E+02  0.22417719657E+04  0.22433530581E+04  0.80419002446E+02 0.  0.
        -24    1    1    2    0    0  0.12163670262E+02  0.21822605233E+02  0.46734303086E+03  0.47486935616E+03  0.80419002446E+02 0.  1.
<mgrwt>
<rscale>  0 0.84210432E+02</rscale>
<asrwt>0</asrwt>
<pdfrwt beam="1">  1        2 0.41748620E+00 0.84210432E+02</pdfrwt>
<pdfrwt beam="2">  1       -2 0.70057276E-03 0.84210432E+02</pdfrwt>
<totfact> 0.10675552E+04</totfact>
</mgrwt>
</event>
<event>
 4    1  0.4940461E-001  0.8077210E+02  0.7546771E-02  0.1326874E+00
          3   -1    0    0  501    0  0.00000000000E+00  0.00000000000E+00  0.22302064361E+03  0.22302064361E+03  0.00000000000E+00 0. -1.
         -3   -1    0    0    0  501 -0.00000000000E+00 -0.00000000000E+00 -0.36336713262E+02  0.36336713262E+02  0.00000000000E+00 0.  1.
         24    1    1    2    0    0 -0.75350127053E+01 -0.37393976819E+00  0.36087255633E+02  0.88467068567E+02  0.80419002446E+02 0.  0.
        -24    1    1    2    0    0  0.75350127053E+01  0.37393976819E+00  0.15059667472E+03  0.17089028831E+03  0.80419002446E+02 0. -1.
<mgrwt>
<rscale>  0 0.80772100E+02</rscale>
<asrwt>0</asrwt>
<pdfrwt beam="1">  1        3 0.34310867E-01 0.80772100E+02</pdfrwt>
<pdfrwt beam="2">  1       -3 0.55902637E-02 0.80772100E+02</pdfrwt>
<totfact> 0.32636604E+03</totfact>
</mgrwt>
</event>
<event>
 4    1  0.4940461E-001  0.1166411E+03  0.7546771E-02  0.1248743E+00
         -1   -1    0    0    0  501 -0.00000000000E+00  0.00000000000E+00  0.30914842793E+03  0.30914842793E+03  0.00000000000E+00 0.  1.
          1   -1    0    0  501    0  0.00000000000E+00 -0.00000000000E+00 -0.51660229514E+02  0.51660229514E+02  0.00000000000E+00 0. -1.
         24    1    1    2    0    0 -0.23791538677E+02  0.81067258740E+02  0.19817439915E+03  0.22995270423E+03  0.80419002446E+02 0. -1.
        -24    1    1    2    0    0  0.23791538677E+02 -0.81067258740E+02  0.59313799266E+02  0.13085595321E+03  0.80419002446E+02 0.  1.
<mgrwt>
<rscale>  0 0.11664113E+03</rscale>
<asrwt>0</asrwt>
<pdfrwt beam="1">  1        1 0.79477278E-02 0.11664113E+03</pdfrwt>
<pdfrwt beam="2">  1       -1 0.47561296E-01 0.11664113E+03</pdfrwt>
<totfact> 0.37585275E+03</totfact>
</mgrwt>
</event>
<event>
 4    1  0.4940461E-001  0.8893794E+02  0.7546771E-02  0.1305444E+00
         -2   -1    0    0    0  501 -0.00000000000E+00  0.00000000000E+00  0.42163329108E+01  0.42163329108E+01  0.00000000000E+00 0.  1.
          2   -1    0    0  501    0  0.00000000000E+00 -0.00000000000E+00 -0.24467494130E+04  0.24467494130E+04  0.00000000000E+00 0. -1.
         24    1    1    2    0    0  0.34352077035E+02 -0.16207255846E+02 -0.18131344463E+04  0.18153144292E+04  0.80419002446E+02 0. -1.
        -24    1    1    2    0    0 -0.34352077035E+02  0.16207255846E+02 -0.62939863373E+03  0.63565131671E+03  0.80419002446E+02 0.  1.
<mgrwt>
<rscale>  0 0.88937935E+02</rscale>
<asrwt>0</asrwt>
<pdfrwt beam="1">  1        2 0.37642354E+00 0.88937935E+02</pdfrwt>
<pdfrwt beam="2">  1       -2 0.64866565E-03 0.88937935E+02</pdfrwt>
<totfact> 0.16504847E+04</totfact>
</mgrwt>
</event>
<event>
 4    1  0.4940461E-001  0.8632046E+02  0.7546771E-02  0.1312015E+00
          2   -1    0    0  501    0  0.00000000000E+00  0.00000000000E+00  0.34528941300E+04  0.34528941300E+04  0.00000000000E+00 0. -1.
         -2   -1    0    0    0  501 -0.00000000000E+00 -0.00000000000E+00 -0.21789675072E+01  0.21789675072E+01  0.00000000000E+00 0.  1.
         24    1    1    2    0    0 -0.25488500578E+02  0.18285029659E+02  0.18949653299E+04  0.18969303686E+04  0.80419002446E+02 0. -1.
        -24    1    1    2    0    0  0.25488500578E+02 -0.18285029659E+02  0.15557498326E+04  0.15581427289E+04  0.80419002446E+02 0.  1.
<mgrwt>
<rscale>  0 0.86320461E+02</rscale>
<asrwt>0</asrwt>
<pdfrwt beam="1">  1        2 0.53121010E+00 0.86320461E+02</pdfrwt>
<pdfrwt beam="2">  1       -2 0.33522853E-03 0.86320461E+02</pdfrwt>
<totfact> 0.11162581E+04</totfact>
</mgrwt>
</event>
<event>
 4    1  0.4940461E-001  0.1053991E+03  0.7546771E-02  0.1269335E+00
          2   -1    0    0  501    0  0.00000000000E+00  0.00000000000E+00  0.29947169359E+03  0.29947169359E+03  0.00000000000E+00 0. -1.
         -2   -1    0    0    0  501 -0.00000000000E+00 -0.00000000000E+00 -0.59622721966E+02  0.59622721966E+02  0.00000000000E+00 0.  1.
         24    1    1    2    0    0  0.94108203678E+01 -0.67477397727E+02  0.23028886923E+03  0.25326259493E+03  0.80419002446E+02 0. -1.
        -24    1    1    2    0    0 -0.94108203678E+01  0.67477397727E+02  0.95601023875E+01  0.10583182062E+03  0.80419002446E+02 0.  1.
<mgrwt>
<rscale>  0 0.10539914E+03</rscale>
<asrwt>0</asrwt>
<pdfrwt beam="1">  1        2 0.46072567E-01 0.10539914E+03</pdfrwt>
<pdfrwt beam="2">  1       -2 0.91727266E-02 0.10539914E+03</pdfrwt>
<totfact> 0.77857769E+03</totfact>
</mgrwt>
</event>
<event>
 4    1  0.4940461E-001  0.9855010E+02  0.7546771E-02  0.1283375E+00
          2   -1    0    0  501    0  0.00000000000E+00  0.00000000000E+00  0.61546797072E+03  0.61546797072E+03  0.00000000000E+00 0. -1.
         -2   -1    0    0    0  501 -0.00000000000E+00 -0.00000000000E+00 -0.19880055962E+02  0.19880055962E+02  0.00000000000E+00 0.  1.
         24    1    1    2    0    0 -0.17497826377E+02  0.54210080412E+02  0.44206012669E+03  0.45291199841E+03  0.80419002446E+02 0. -1.
        -24    1    1    2    0    0  0.17497826377E+02 -0.54210080412E+02  0.15352778807E+03  0.18243602827E+03  0.80419002446E+02 0.  1.
<mgrwt>
<rscale>  0 0.98550102E+02</rscale>
<asrwt>0</asrwt>
<pdfrwt beam="1">  1        2 0.94687365E-01 0.98550102E+02</pdfrwt>
<pdfrwt beam="2">  1       -2 0.30584706E-02 0.98550102E+02</pdfrwt>
<totfact> 0.18517318E+04</totfact>
</mgrwt>
</event>
<event>
 4    1  0.4940461E-001  0.8193848E+02  0.7546771E-02  0.1323639E+00
          2   -1    0    0  501    0  0.00000000000E+00  0.00000000000E+00  0.25235944773E+04  0.25235944773E+04  0.00000000000E+00 0. -1.
         -2   -1    0    0    0  501 -0.00000000000E+00 -0.00000000000E+00 -0.74605995294E+01  0.74605995294E+01  0.00000000000E+00 0.  1.
         24    1    1    2    0    0 -0.14620898763E+02 -0.57382431654E+01  0.22731739132E+04  0.22746502047E+04  0.80419002446E+02 0. -1.
        -24    1    1    2    0    0  0.14620898763E+02  0.57382431654E+01  0.24295996457E+03  0.25640487213E+03  0.80419002446E+02 0.  1.
<mgrwt>
<rscale>  0 0.81938477E+02</rscale>
<asrwt>0</asrwt>
<pdfrwt beam="1">  1        2 0.38824462E+00 0.81938477E+02</pdfrwt>
<pdfrwt beam="2">  1       -2 0.11477866E-02 0.81938477E+02</pdfrwt>
<totfact> 0.67130737E+03</totfact>
</mgrwt>
</event>
<event>
 4    1  0.4940461E-001  0.1615278E+03  0.7546771E-02  0.1186983E+00
         -3   -1    0    0    0  501 -0.00000000000E+00  0.00000000000E+00  0.16009345816E+04  0.16009345816E+04  0.00000000000E+00 0.  1.
          3   -1    0    0  501    0  0.00000000000E+00 -0.00000000000E+00 -0.20960267477E+02  0.20960267477E+02  0.00000000000E+00 0. -1.
         24    1    1    2    0    0  0.11389842906E+03  0.81554662612E+02  0.11724737136E+04  0.11835479881E+04  0.80419002446E+02 0.  1.
        -24    1    1    2    0    0 -0.11389842906E+03 -0.81554662612E+02  0.40750060056E+03  0.43834686099E+03  0.80419002446E+02 0. -1.
<mgrwt>
<rscale>  0 0.16152780E+03</rscale>
<asrwt>0</asrwt>
<pdfrwt beam="1">  1        3 0.32246578E-02 0.16152780E+03</pdfrwt>
<pdfrwt beam="2">  1       -3 0.24629753E+00 0.16152780E+03</pdfrwt>
<totfact> 0.94891250E+01</totfact>
</mgrwt>
</event>
<event>
 4    1  0.4940461E-001  0.8299646E+02  0.7546771E-02  0.1320757E+00
         -1   -1    0    0    0  501 -0.00000000000E+00  0.00000000000E+00  0.46967965434E+02  0.46967965434E+02  0.00000000000E+00 0.  1.
          1   -1    0    0  501    0  0.00000000000E+00 -0.00000000000E+00 -0.63860519930E+03  0.63860519930E+03  0.00000000000E+00 0. -1.
         24    1    1    2    0    0 -0.16532484633E+01  0.20456381906E+02  0.50418310426E+01  0.83149460647E+02  0.80419002446E+02 0.  1.
        -24    1    1    2    0    0  0.16532484633E+01 -0.20456381906E+02 -0.59667906491E+03  0.60242370409E+03  0.80419002446E+02 0. -1.
<mgrwt>
<rscale>  0 0.82996462E+02</rscale>
<asrwt>0</asrwt>
<pdfrwt beam="1">  1        1 0.98246953E-01 0.82996462E+02</pdfrwt>
<pdfrwt beam="2">  1       -1 0.72258409E-02 0.82996462E+02</pdfrwt>
<totfact> 0.31003418E+03</totfact>
</mgrwt>
</event>
<event>
 4    1  0.4940461E-001  0.8345522E+02  0.7546771E-02  0.1319522E+00
         -1   -1    0    0    0  501 -0.00000000000E+00  0.00000000000E+00  0.10066656048E+04  0.10066656048E+04  0.00000000000E+00 0.  1.
          1   -1    0    0  501    0  0.00000000000E+00 -0.00000000000E+00 -0.18306719258E+02  0.18306719258E+02  0.00000000000E+00 0. -1.
         24    1    1    2    0    0  0.20940512095E+02 -0.76845852316E+01  0.89838455529E+03  0.90225250514E+03  0.80419002446E+02 0.  1.
        -24    1    1    2    0    0 -0.20940512095E+02  0.76845852316E+01  0.89974330264E+02  0.12271981893E+03  0.80419002446E+02 0. -1.
<mgrwt>
<rscale>  0 0.83455221E+02</rscale>
<asrwt>0</asrwt>
<pdfrwt beam="1">  1        1 0.28164191E-02 0.83455221E+02</pdfrwt>
<pdfrwt beam="2">  1       -1 0.15487159E+00 0.83455221E+02</pdfrwt>
<totfact> 0.12380967E+03</totfact>
</mgrwt>
</event>
<event>
 4    1  0.4940461E-001  0.8398988E+02  0.7546771E-02  0.1318095E+00
         -2   -1    0    0    0  501 -0.00000000000E+00  0.00000000000E+00  0.30758867652E+01  0.30758867652E+01  0.00000000000E+00 0.  1.
          2   -1    0    0  501    0  0.00000000000E+00 -0.00000000000E+00 -0.30043515586E+04  0.30043515586E+04  0.00000000000E+00 0. -1.
         24    1    1    2    0    0  0.46846756415E+01  0.23772637149E+02 -0.22321198720E+04  0.22336994927E+04  0.80419002446E+02 0. -1.
        -24    1    1    2    0    0 -0.46846756415E+01 -0.23772637149E+02 -0.76915579978E+03  0.77372795267E+03  0.80419002446E+02 0.  1.
<mgrwt>
<rscale>  0 0.83989883E+02</rscale>
<asrwt>0</asrwt>
<pdfrwt beam="1">  1        2 0.46220895E+00 0.83989883E+02</pdfrwt>
<pdfrwt beam="2">  1       -2 0.47321230E-03 0.83989883E+02</pdfrwt>
<totfact> 0.12772329E+04</totfact>
</mgrwt>
</event>
<event>
 4    1  0.4940461E-001  0.1569924E+03  0.7546771E-02  0.1192135E+00
         -1   -1    0    0    0  501 -0.00000000000E+00  0.00000000000E+00  0.36931434912E+03  0.36931434912E+03  0.00000000000E+00 0.  1.
          1   -1    0    0  501    0  0.00000000000E+00 -0.00000000000E+00 -0.74144084984E+02  0.74144084984E+02  0.00000000000E+00 0. -1.
         24    1    1    2    0    0 -0.12796261555E+03  0.42484659665E+02  0.77498498721E+02  0.17507886950E+03  0.80419002446E+02 0. -1.
        -24    1    1    2    0    0  0.12796261555E+03 -0.42484659665E+02  0.21767176542E+03  0.26837956461E+03  0.80419002446E+02 0.  1.
<mgrwt>
<rscale>  0 0.15699235E+03</rscale>
<asrwt>0</asrwt>
<pdfrwt beam="1">  1        1 0.11406783E-01 0.15699237E+03</pdfrwt>
<pdfrwt beam="2">  1       -1 0.56817591E-01 0.15699237E+03</pdfrwt>
<totfact> 0.17010720E+03</totfact>
</mgrwt>
</event>
<event>
 4    1  0.4940461E-001  0.9962034E+02  0.7546771E-02  0.1281096E+00
          1   -1    0    0  501    0  0.00000000000E+00  0.00000000000E+00  0.12292160070E+03  0.12292160070E+03  0.00000000000E+00 0. -1.
         -1   -1    0    0    0  501 -0.00000000000E+00 -0.00000000000E+00 -0.23490069280E+03  0.23490069280E+03  0.00000000000E+00 0.  1.
         24    1    1    2    0    0 -0.10746647767E+02  0.57805761939E+02 -0.20092930987E+03  0.22426948092E+03  0.80419002446E+02 0.  1.
        -24    1    1    2    0    0  0.10746647767E+02 -0.57805761939E+02  0.88950217773E+02  0.13355281258E+03  0.80419002446E+02 0. -1.
<mgrwt>
<rscale>  0 0.99620342E+02</rscale>
<asrwt>0</asrwt>
<pdfrwt beam="1">  1        1 0.18911016E-01 0.99620342E+02</pdfrwt>
<pdfrwt beam="2">  1       -1 0.36138568E-01 0.99620342E+02</pdfrwt>
<totfact> 0.19532360E+03</totfact>
</mgrwt>
</event>
<event>
 4    1  0.4940461E-001  0.8889142E+02  0.7546771E-02  0.1305559E+00
         -2   -1    0    0    0  501 -0.00000000000E+00  0.00000000000E+00  0.39830350967E+02  0.39830350967E+02  0.00000000000E+00 0.  1.
          2   -1    0    0  501    0  0.00000000000E+00 -0.00000000000E+00 -0.68048679094E+03  0.68048679094E+03  0.00000000000E+00 0. -1.
         24    1    1    2    0    0  0.37846854661E+02 -0.14435346050E+01 -0.62347569546E+03  0.62978061814E+03  0.80419002446E+02 0. -1.
        -24    1    1    2    0    0 -0.37846854661E+02  0.14435346050E+01 -0.17180744516E+02  0.90536523770E+02  0.80419002446E+02 0.  1.
<mgrwt>
<rscale>  0 0.88891418E+02</rscale>
<asrwt>0</asrwt>
<pdfrwt beam="1">  1        2 0.10469026E+00 0.88891418E+02</pdfrwt>
<pdfrwt beam="2">  1       -2 0.61277470E-02 0.88891418E+02</pdfrwt>
<totfact> 0.58671730E+03</totfact>
</mgrwt>
</event>
<event>
 4    1  0.4940461E-001  0.8909423E+02  0.7546771E-02  0.1305060E+00
          1   -1    0    0  501    0  0.00000000000E+00  0.00000000000E+00  0.42830374204E+03  0.42830374204E+03  0.00000000000E+00 0. -1.
         -1   -1    0    0    0  501 -0.00000000000E+00 -0.00000000000E+00 -0.28406754984E+02  0.28406754984E+02  0.00000000000E+00 0.  1.
         24    1    1    2    0    0  0.27893443534E+02 -0.26315803001E+02  0.65319096468E+02  0.11047337235E+03  0.80419002446E+02 0.  1.
        -24    1    1    2    0    0 -0.27893443534E+02  0.26315803001E+02  0.33457789058E+03  0.34623712467E+03  0.80419002446E+02 0. -1.
<mgrwt>
<rscale>  0 0.89094229E+02</rscale>
<asrwt>0</asrwt>
<pdfrwt beam="1">  1        1 0.65892879E-01 0.89094229E+02</pdfrwt>
<pdfrwt beam="2">  1       -1 0.43702703E-02 0.89094229E+02</pdfrwt>
<totfact> 0.10942052E+04</totfact>
</mgrwt>
</event>
<event>
 4    1  0.4940461E-001  0.8266760E+02  0.7546771E-02  0.1321647E+00
          1   -1    0    0  501    0  0.00000000000E+00  0.00000000000E+00  0.79339340326E+03  0.79339340326E+03  0.00000000000E+00 0. -1.
         -1   -1    0    0    0  501 -0.00000000000E+00 -0.00000000000E+00 -0.29307428376E+02  0.29307428376E+02  0.00000000000E+00 0.  1.
         24    1    1    2    0    0 -0.75326706675E+01  0.17606123964E+02  0.36387031338E+02  0.90321363654E+02  0.80419002446E+02 0.  1.
        -24    1    1    2    0    0  0.75326706675E+01 -0.17606123964E+02  0.72769894354E+03  0.73237946798E+03  0.80419002446E+02 0. -1.
<mgrwt>
<rscale>  0 0.82667604E+02</rscale>
<asrwt>0</asrwt>
<pdfrwt beam="1">  1        1 0.12206051E+00 0.82667604E+02</pdfrwt>
<pdfrwt beam="2">  1       -1 0.45088357E-02 0.82667604E+02</pdfrwt>
<totfact> 0.45581100E+03</totfact>
</mgrwt>
</event>
<event>
 4    1  0.4940461E-001  0.8511306E+02  0.7546771E-02  0.1315137E+00
          2   -1    0    0  501    0  0.00000000000E+00  0.00000000000E+00  0.16364061937E+02  0.16364061937E+02  0.00000000000E+00 0. -1.
         -2   -1    0    0    0  501 -0.00000000000E+00 -0.00000000000E+00 -0.10922232411E+04  0.10922232411E+04  0.00000000000E+00 0.  1.
         24    1    1    2    0    0  0.27229639831E+02 -0.59634805456E+01 -0.11048053350E+03  0.13946390437E+03  0.80419002446E+02 0. -1.
        -24    1    1    2    0    0 -0.27229639831E+02  0.59634805456E+01 -0.96537864570E+03  0.96912339871E+03  0.80419002446E+02 0.  1.
<mgrwt>
<rscale>  0 0.85113056E+02</rscale>
<asrwt>0</asrwt>
<pdfrwt beam="1">  1        2 0.25175483E-02 0.85113056E+02</pdfrwt>
<pdfrwt beam="2">  1       -2 0.16803432E+00 0.85113056E+02</pdfrwt>
<totfact> 0.88181236E+02</totfact>
</mgrwt>
</event>
<event>
 4    1  0.4940461E-001  0.9355822E+02  0.7546771E-02  0.1294457E+00
         -2   -1    0    0    0  501 -0.00000000000E+00  0.00000000000E+00  0.19487267979E+04  0.19487267979E+04  0.00000000000E+00 0.  1.
          2   -1    0    0  501    0  0.00000000000E+00 -0.00000000000E+00 -0.79944612445E+01  0.79944612445E+01  0.00000000000E+00 0. -1.
         24    1    1    2    0    0 -0.79793310350E+01 -0.47140795889E+02  0.32276409527E+03  0.33605029611E+03  0.80419002446E+02 0. -1.
        -24    1    1    2    0    0  0.79793310350E+01  0.47140795889E+02  0.16179682414E+04  0.16206709630E+04  0.80419002446E+02 0.  1.
<mgrwt>
<rscale>  0 0.93558219E+02</rscale>
<asrwt>0</asrwt>
<pdfrwt beam="1">  1        2 0.12299187E-02 0.93558219E+02</pdfrwt>
<pdfrwt beam="2">  1       -2 0.29980374E+00 0.93558219E+02</pdfrwt>
<totfact> 0.38730417E+02</totfact>
</mgrwt>
</event>
<event>
 4    1  0.4940461E-001  0.1190037E+03  0.7546771E-02  0.1244750E+00
          4   -1    0    0  501    0  0.00000000000E+00  0.00000000000E+00  0.53954359411E+03  0.53954359411E+03  0.00000000000E+00 0. -1.
         -4   -1    0    0    0  501 -0.00000000000E+00 -0.00000000000E+00 -0.36829951424E+02  0.36829951424E+02  0.00000000000E+00 0.  1.
         24    1    1    2    0    0  0.68632469117E+02 -0.54628380102E+02  0.40583181990E+03  0.42292003704E+03  0.80419002446E+02 0. -1.
        -24    1    1    2    0    0 -0.68632469117E+02  0.54628380102E+02  0.96881822787E+02  0.15345350850E+03  0.80419002446E+02 0.  1.
<mgrwt>
<rscale>  0 0.11900375E+03</rscale>
<asrwt>0</asrwt>
<pdfrwt beam="1">  1        4 0.83006701E-01 0.11900375E+03</pdfrwt>
<pdfrwt beam="2">  1       -4 0.56661468E-02 0.11900375E+03</pdfrwt>
<totfact> 0.41342402E+02</totfact>
</mgrwt>
</event>
<event>
 4    1  0.4940461E-001  0.8042945E+02  0.7546771E-02  0.1327837E+00
          2   -1    0    0  501    0  0.00000000000E+00  0.00000000000E+00  0.59557588207E+03  0.59557588207E+03  0.00000000000E+00 0. -1.
         -2   -1    0    0    0  501 -0.00000000000E+00 -0.00000000000E+00 -0.34396639470E+02  0.34396639470E+02  0.00000000000E+00 0.  1.
         24    1    1    2    0    0  0.73441854547E+00 -0.10685811420E+01  0.54113970752E+03  0.54708416194E+03  0.80419002446E+02 0.  0.
        -24    1    1    2    0    0 -0.73441854547E+00  0.10685811420E+01  0.20039535077E+02  0.82888359597E+02  0.80419002446E+02 0.  1.
<mgrwt>
<rscale>  0 0.80429455E+02</rscale>
<asrwt>0</asrwt>
<pdfrwt beam="1">  1        2 0.91627051E-01 0.80429455E+02</pdfrwt>
<pdfrwt beam="2">  1       -2 0.52917911E-02 0.80429455E+02</pdfrwt>
<totfact> 0.84350268E+03</totfact>
</mgrwt>
</event>
<event>
 4    1  0.4940461E-001  0.8265619E+02  0.7546771E-02  0.1321678E+00
          1   -1    0    0  501    0  0.00000000000E+00  0.00000000000E+00  0.19276553889E+03  0.19276553889E+03  0.00000000000E+00 0. -1.
         -1   -1    0    0    0  501 -0.00000000000E+00 -0.00000000000E+00 -0.72058173038E+02  0.72058173038E+02  0.00000000000E+00 0.  1.
         24    1    1    2    0    0 -0.19082541247E+02  0.82830209537E+00 -0.34035062158E+02  0.89389210061E+02  0.80419002446E+02 0.  0.
        -24    1    1    2    0    0  0.19082541247E+02 -0.82830209537E+00  0.15474242801E+03  0.17543450187E+03  0.80419002446E+02 0.  0.
<mgrwt>
<rscale>  0 0.82656188E+02</rscale>
<asrwt>0</asrwt>
<pdfrwt beam="1">  1        1 0.29656237E-01 0.82656188E+02</pdfrwt>
<pdfrwt beam="2">  1       -1 0.11085873E-01 0.82656188E+02</pdfrwt>
<totfact> 0.72742387E+03</totfact>
</mgrwt>
</event>
<event>
 4    1  0.4940461E-001  0.9255255E+02  0.7546771E-02  0.1296785E+00
         -1   -1    0    0    0  501 -0.00000000000E+00  0.00000000000E+00  0.12125077101E+03  0.12125077101E+03  0.00000000000E+00 0.  1.
          1   -1    0    0  501    0  0.00000000000E+00 -0.00000000000E+00 -0.40708611091E+03  0.40708611091E+03  0.00000000000E+00 0. -1.
         24    1    1    2    0    0  0.26363874478E+02 -0.37466051587E+02  0.97237079425E+02  0.13424240935E+03  0.80419002446E+02 0.  1.
        -24    1    1    2    0    0 -0.26363874478E+02  0.37466051587E+02 -0.38307241933E+03  0.39409447256E+03  0.80419002446E+02 0. -1.
<mgrwt>
<rscale>  0 0.92552552E+02</rscale>
<asrwt>0</asrwt>
<pdfrwt beam="1">  1        1 0.62628633E-01 0.92552552E+02</pdfrwt>
<pdfrwt beam="2">  1       -1 0.18653965E-01 0.92552552E+02</pdfrwt>
<totfact> 0.13123102E+03</totfact>
</mgrwt>
</event>
<event>
 4    1  0.4940461E-001  0.8213830E+02  0.7546771E-02  0.1323090E+00
          1   -1    0    0  501    0  0.00000000000E+00  0.00000000000E+00  0.24577602676E+04  0.24577602676E+04  0.00000000000E+00 0. -1.
         -1   -1    0    0    0  501 -0.00000000000E+00 -0.00000000000E+00 -0.14006840045E+02  0.14006840045E+02  0.00000000000E+00 0.  1.
         24    1    1    2    0    0  0.90497207070E+01 -0.14056569180E+02  0.11369499893E+03  0.14026137501E+03  0.80419002446E+02 0.  1.
        -24    1    1    2    0    0 -0.90497207070E+01  0.14056569180E+02  0.23300584286E+04  0.23315057326E+04  0.80419002446E+02 0.  0.
<mgrwt>
<rscale>  0 0.82138301E+02</rscale>
<asrwt>0</asrwt>
<pdfrwt beam="1">  1        1 0.37811662E+00 0.82138301E+02</pdfrwt>
<pdfrwt beam="2">  1       -1 0.21549004E-02 0.82138301E+02</pdfrwt>
<totfact> 0.10672384E+03</totfact>
</mgrwt>
</event>
<event>
 4    1  0.4940461E-001  0.9954461E+02  0.7546771E-02  0.1281256E+00
          2   -1    0    0  501    0  0.00000000000E+00  0.00000000000E+00  0.29715052843E+03  0.29715052843E+03  0.00000000000E+00 0. -1.
         -2   -1    0    0    0  501 -0.00000000000E+00 -0.00000000000E+00 -0.53012795474E+02  0.53012795474E+02  0.00000000000E+00 0.  1.
         24    1    1    2    0    0 -0.32218735810E+02  0.49029243831E+02  0.22870494664E+03  0.24942951361E+03  0.80419002446E+02 0. -1.
        -24    1    1    2    0    0  0.32218735810E+02 -0.49029243831E+02  0.15432786313E+02  0.10073381029E+03  0.80419002446E+02 0. -1.
<mgrwt>
<rscale>  0 0.99544611E+02</rscale>
<asrwt>0</asrwt>
<pdfrwt beam="1">  1        2 0.45715465E-01 0.99544611E+02</pdfrwt>
<pdfrwt beam="2">  1       -2 0.81558149E-02 0.99544611E+02</pdfrwt>
<totfact> 0.93666108E+03</totfact>
</mgrwt>
</event>
<event>
 4    1  0.4940461E-001  0.1960037E+03  0.7546771E-02  0.1153155E+00
         -2   -1    0    0    0  501 -0.00000000000E+00  0.00000000000E+00  0.17210285407E+02  0.17210285407E+02  0.00000000000E+00 0.  1.
          2   -1    0    0  501    0  0.00000000000E+00 -0.00000000000E+00 -0.26048230741E+04  0.26048230741E+04  0.00000000000E+00 0. -1.
         24    1    1    2    0    0 -0.13956980160E+03  0.11167145320E+03 -0.17896350586E+04  0.18003363858E+04  0.80419002446E+02 0. -1.
        -24    1    1    2    0    0  0.13956980160E+03 -0.11167145320E+03 -0.79797773010E+03  0.82169697375E+03  0.80419002446E+02 0.  1.
<mgrwt>
<rscale>  0 0.19600372E+03</rscale>
<asrwt>0</asrwt>
<pdfrwt beam="1">  1        2 0.40074175E+00 0.19600372E+03</pdfrwt>
<pdfrwt beam="2">  1       -2 0.26477380E-02 0.19600372E+03</pdfrwt>
<totfact> 0.18071420E+03</totfact>
</mgrwt>
</event>
<event>
 4    1  0.4940461E-001  0.8250951E+02  0.7546771E-02  0.1322077E+00
         -2   -1    0    0    0  501 -0.00000000000E+00  0.00000000000E+00  0.28464826693E+01  0.28464826693E+01  0.00000000000E+00 0.  1.
          2   -1    0    0  501    0  0.00000000000E+00 -0.00000000000E+00 -0.24510481923E+04  0.24510481923E+04  0.00000000000E+00 0. -1.
         24    1    1    2    0    0  0.16457148520E+02  0.83523899637E+01 -0.10331140206E+04  0.10364035872E+04  0.80419002446E+02 0. -1.
        -24    1    1    2    0    0 -0.16457148520E+02 -0.83523899637E+01 -0.14150876891E+04  0.14174910877E+04  0.80419002446E+02 0.  0.
<mgrwt>
<rscale>  0 0.82509501E+02</rscale>
<asrwt>0</asrwt>
<pdfrwt beam="1">  1        2 0.37708312E+00 0.82509512E+02</pdfrwt>
<pdfrwt beam="2">  1       -2 0.43792183E-03 0.82509512E+02</pdfrwt>
<totfact> 0.28350017E+04</totfact>
</mgrwt>
</event>
<event>
 4    1  0.4940461E-001  0.8205937E+02  0.7546771E-02  0.1323307E+00
         -2   -1    0    0    0  501 -0.00000000000E+00  0.00000000000E+00  0.31316935893E+01  0.31316935893E+01  0.00000000000E+00 0.  1.
          2   -1    0    0  501    0  0.00000000000E+00 -0.00000000000E+00 -0.21517880333E+04  0.21517880333E+04  0.00000000000E+00 0. -1.
         24    1    1    2    0    0  0.66100228212E+01  0.14927529793E+02 -0.11036811795E+04  0.11067275570E+04  0.80419002446E+02 0.  0.
        -24    1    1    2    0    0 -0.66100228212E+01 -0.14927529793E+02 -0.10449751602E+04  0.10481921698E+04  0.80419002446E+02 0. -1.
<mgrwt>
<rscale>  0 0.82059366E+02</rscale>
<asrwt>0</asrwt>
<pdfrwt beam="1">  1        2 0.33104501E+00 0.82059366E+02</pdfrwt>
<pdfrwt beam="2">  1       -2 0.48179800E-03 0.82059366E+02</pdfrwt>
<totfact> 0.35277776E+04</totfact>
</mgrwt>
</event>
<event>
 4    1  0.4940461E-001  0.1036631E+03  0.7546771E-02  0.1272776E+00
         -2   -1    0    0    0  501 -0.00000000000E+00  0.00000000000E+00  0.45665627965E+02  0.45665627965E+02  0.00000000000E+00 0.  1.
          2   -1    0    0  501    0  0.00000000000E+00 -0.00000000000E+00 -0.63504177505E+03  0.63504177505E+03  0.00000000000E+00 0. -1.
         24    1    1    2    0    0  0.27061527241E+02  0.59552446510E+02 -0.56471571792E+03  0.57415144184E+03  0.80419002446E+02 0. -1.
        -24    1    1    2    0    0 -0.27061527241E+02 -0.59552446510E+02 -0.24660429165E+02  0.10655596118E+03  0.80419002446E+02 0.  1.
<mgrwt>
<rscale>  0 0.10366309E+03</rscale>
<asrwt>0</asrwt>
<pdfrwt beam="1">  1        2 0.97698731E-01 0.10366309E+03</pdfrwt>
<pdfrwt beam="2">  1       -2 0.70254815E-02 0.10366309E+03</pdfrwt>
<totfact> 0.52123072E+03</totfact>
</mgrwt>
</event>
<event>
 4    1  0.4940461E-001  0.8511323E+02  0.7546771E-02  0.1315137E+00
         -2   -1    0    0    0  501 -0.00000000000E+00  0.00000000000E+00  0.11301573930E+02  0.11301573930E+02  0.00000000000E+00 0.  1.
          2   -1    0    0  501    0  0.00000000000E+00 -0.00000000000E+00 -0.12124918873E+04  0.12124918873E+04  0.00000000000E+00 0. -1.
         24    1    1    2    0    0 -0.10672788856E+02 -0.25751454604E+02 -0.10206880458E+04  0.10242306130E+04  0.80419002446E+02 0. -1.
        -24    1    1    2    0    0  0.10672788856E+02  0.25751454604E+02 -0.18050226756E+03  0.19956284821E+03  0.80419002446E+02 0.  1.
<mgrwt>
<rscale>  0 0.85113229E+02</rscale>
<asrwt>0</asrwt>
<pdfrwt beam="1">  1        2 0.18653725E+00 0.85113229E+02</pdfrwt>
<pdfrwt beam="2">  1       -2 0.17387034E-02 0.85113229E+02</pdfrwt>
<totfact> 0.17348913E+04</totfact>
</mgrwt>
</event>
<event>
 4    1  0.4940461E-001  0.9101883E+02  0.7546771E-02  0.1300403E+00
          1   -1    0    0  501    0  0.00000000000E+00  0.00000000000E+00  0.75357079413E+02  0.75357079413E+02  0.00000000000E+00 0. -1.
         -1   -1    0    0    0  501 -0.00000000000E+00 -0.00000000000E+00 -0.12223227037E+03  0.12223227037E+03  0.00000000000E+00 0.  1.
         24    1    1    2    0    0  0.60336371686E+01 -0.42199607395E+02 -0.54772900591E+02  0.10622851894E+03  0.80419002446E+02 0.  1.
        -24    1    1    2    0    0 -0.60336371686E+01  0.42199607395E+02  0.78977096302E+01  0.91360830850E+02  0.80419002446E+02 0. -1.
<mgrwt>
<rscale>  0 0.91018831E+02</rscale>
<asrwt>0</asrwt>
<pdfrwt beam="1">  1        1 0.11593397E-01 0.91018831E+02</pdfrwt>
<pdfrwt beam="2">  1       -1 0.18804964E-01 0.91018831E+02</pdfrwt>
<totfact> 0.10597115E+04</totfact>
</mgrwt>
</event>
<event>
 4    1  0.4940461E-001  0.8213721E+02  0.7546771E-02  0.1323093E+00
          1   -1    0    0  501    0  0.00000000000E+00  0.00000000000E+00  0.14695754466E+04  0.14695754466E+04  0.00000000000E+00 0. -1.
         -1   -1    0    0    0  501 -0.00000000000E+00 -0.00000000000E+00 -0.47825190365E+01  0.47825190365E+01  0.00000000000E+00 0.  1.
         24    1    1    2    0    0 -0.88647219712E+01 -0.14167634460E+02  0.58479804189E+03  0.59053811979E+03  0.80419002446E+02 0.  1.
        -24    1    1    2    0    0  0.88647219712E+01  0.14167634460E+02  0.87999488565E+03  0.88381984584E+03  0.80419002446E+02 0. -1.
<mgrwt>
<rscale>  0 0.82137209E+02</rscale>
<asrwt>0</asrwt>
<pdfrwt beam="1">  1        1 0.22608817E+00 0.82137209E+02</pdfrwt>
<pdfrwt beam="2">  1       -1 0.73577333E-03 0.82137209E+02</pdfrwt>
<totfact> 0.20342664E+04</totfact>
</mgrwt>
</event>
<event>
 4    1  0.4940461E-001  0.1326014E+03  0.7546771E-02  0.1223646E+00
          1   -1    0    0  501    0  0.00000000000E+00  0.00000000000E+00  0.18348471281E+04  0.18348471281E+04  0.00000000000E+00 0. -1.
         -1   -1    0    0    0  501 -0.00000000000E+00 -0.00000000000E+00 -0.10247366591E+02  0.10247366591E+02  0.00000000000E+00 0.  1.
         24    1    1    2    0    0 -0.80352783694E+02 -0.68259342198E+02  0.67737721332E+03  0.69023402750E+03  0.80419002446E+02 0.  1.
        -24    1    1    2    0    0  0.80352783694E+02  0.68259342198E+02  0.11472225482E+04  0.11548604672E+04  0.80419002446E+02 0. -1.
<mgrwt>
<rscale>  0 0.13260137E+03</rscale>
<asrwt>0</asrwt>
<pdfrwt beam="1">  1        1 0.28228391E+00 0.13260137E+03</pdfrwt>
<pdfrwt beam="2">  1       -1 0.15765194E-02 0.13260137E+03</pdfrwt>
<totfact> 0.41482897E+03</totfact>
</mgrwt>
</event>
<event>
 4    1  0.4940461E-001  0.1034694E+03  0.7546771E-02  0.1273165E+00
          2   -1    0    0  501    0  0.00000000000E+00  0.00000000000E+00  0.35915462027E+03  0.35915462027E+03  0.00000000000E+00 0. -1.
         -2   -1    0    0    0  501 -0.00000000000E+00 -0.00000000000E+00 -0.10713540456E+03  0.10713540456E+03  0.00000000000E+00 0.  1.
         24    1    1    2    0    0 -0.11559619229E+02 -0.64070932365E+02  0.32408222030E+03  0.34019878106E+03  0.80419002446E+02 0. -1.
        -24    1    1    2    0    0  0.11559619229E+02  0.64070932365E+02 -0.72063004582E+02  0.12609124377E+03  0.80419002446E+02 0.  1.
<mgrwt>
<rscale>  0 0.10346944E+03</rscale>
<asrwt>0</asrwt>
<pdfrwt beam="1">  1        2 0.55254556E-01 0.10346944E+03</pdfrwt>
<pdfrwt beam="2">  1       -2 0.16482370E-01 0.10346944E+03</pdfrwt>
<totfact> 0.25273711E+03</totfact>
</mgrwt>
</event>
<event>
 4    1  0.4940461E-001  0.1407623E+03  0.7546771E-02  0.1212307E+00
         -1   -1    0    0    0  501 -0.00000000000E+00  0.00000000000E+00  0.13547483015E+03  0.13547483015E+03  0.00000000000E+00 0.  1.
          1   -1    0    0  501    0  0.00000000000E+00 -0.00000000000E+00 -0.15413980143E+03  0.15413980143E+03  0.00000000000E+00 0. -1.
         24    1    1    2    0    0  0.57478781388E+02  0.10021478338E+03  0.23416391026E+02  0.14269672891E+03  0.80419002446E+02 0.  1.
        -24    1    1    2    0    0 -0.57478781388E+02 -0.10021478338E+03 -0.42081362306E+02  0.14691790267E+03  0.80419002446E+02 0. -1.
<mgrwt>
<rscale>  0 0.14076231E+03</rscale>
<asrwt>0</asrwt>
<pdfrwt beam="1">  1        1 0.23713816E-01 0.14076231E+03</pdfrwt>
<pdfrwt beam="2">  1       -1 0.20842282E-01 0.14076231E+03</pdfrwt>
<totfact> 0.37181780E+03</totfact>
</mgrwt>
</event>
<event>
 4    1  0.4940461E-001  0.8716057E+02  0.7546771E-02  0.1309877E+00
          2   -1    0    0  501    0  0.00000000000E+00  0.00000000000E+00  0.36773316394E+03  0.36773316394E+03  0.00000000000E+00 0. -1.
         -2   -1    0    0    0  501 -0.00000000000E+00 -0.00000000000E+00 -0.22764800379E+02  0.22764800379E+02  0.00000000000E+00 0.  1.
         24    1    1    2    0    0  0.13155087728E+02  0.30930457015E+02  0.23186893856E+03  0.24770985069E+03  0.80419002446E+02 0.  1.
        -24    1    1    2    0    0 -0.13155087728E+02 -0.30930457015E+02  0.11309942500E+03  0.14278811363E+03  0.80419002446E+02 0. -1.
<mgrwt>
<rscale>  0 0.87160573E+02</rscale>
<asrwt>0</asrwt>
<pdfrwt beam="1">  1        2 0.56574329E-01 0.87160573E+02</pdfrwt>
<pdfrwt beam="2">  1       -2 0.35022773E-02 0.87160573E+02</pdfrwt>
<totfact> 0.26147893E+04</totfact>
</mgrwt>
</event>
<event>
 4    1  0.4940461E-001  0.8341581E+02  0.7546771E-02  0.1319628E+00
         -1   -1    0    0    0  501 -0.00000000000E+00  0.00000000000E+00  0.97067218282E+03  0.97067218282E+03  0.00000000000E+00 0.  1.
          1   -1    0    0  501    0  0.00000000000E+00 -0.00000000000E+00 -0.12090099765E+02  0.12090099765E+02  0.00000000000E+00 0. -1.
         24    1    1    2    0    0 -0.21602105365E+02  0.49326260796E+01  0.79280702108E+03  0.79718327277E+03  0.80419002446E+02 0.  1.
        -24    1    1    2    0    0  0.21602105365E+02 -0.49326260796E+01  0.16577506197E+03  0.18557900981E+03  0.80419002446E+02 0. -1.
<mgrwt>
<rscale>  0 0.83415812E+02</rscale>
<asrwt>0</asrwt>
<pdfrwt beam="1">  1        1 0.18600161E-02 0.83415812E+02</pdfrwt>
<pdfrwt beam="2">  1       -1 0.14933412E+00 0.83415812E+02</pdfrwt>
<totfact> 0.24020809E+03</totfact>
</mgrwt>
</event>
<event>
 4    1  0.4940461E-001  0.1402772E+03  0.7546771E-02  0.1212957E+00
          4   -1    0    0  501    0  0.00000000000E+00  0.00000000000E+00  0.24574763379E+04  0.24574763379E+04  0.00000000000E+00 0. -1.
         -4   -1    0    0    0  501 -0.00000000000E+00 -0.00000000000E+00 -0.86850324982E+01  0.86850324982E+01  0.00000000000E+00 0.  1.
         24    1    1    2    0    0 -0.28663980195E+02 -0.11130516283E+03  0.15688599550E+04  0.15751188010E+04  0.80419002446E+02 0. -1.
        -24    1    1    2    0    0  0.28663980195E+02  0.11130516283E+03  0.87993135040E+03  0.89104256936E+03  0.80419002446E+02 0.  0.
<mgrwt>
<rscale>  0 0.14027715E+03</rscale>
<asrwt>0</asrwt>
<pdfrwt beam="1">  1        4 0.37807273E+00 0.14027715E+03</pdfrwt>
<pdfrwt beam="2">  1       -4 0.13361608E-02 0.14027715E+03</pdfrwt>
<totfact> 0.40700302E+01</totfact>
</mgrwt>
</event>
<event>
 4    1  0.4940461E-001  0.8306780E+02  0.7546771E-02  0.1320564E+00
          1   -1    0    0  501    0  0.00000000000E+00  0.00000000000E+00  0.22814341375E+04  0.22814341375E+04  0.00000000000E+00 0. -1.
         -1   -1    0    0    0  501 -0.00000000000E+00 -0.00000000000E+00 -0.33981705300E+02  0.33981705300E+02  0.00000000000E+00 0.  1.
         24    1    1    2    0    0  0.73467254687E+01 -0.19469713494E+02  0.18739386467E+02  0.85155297417E+02  0.80419002446E+02 0.  1.
        -24    1    1    2    0    0 -0.73467254687E+01  0.19469713494E+02  0.22287130458E+04  0.22302605454E+04  0.80419002446E+02 0. -1.
<mgrwt>
<rscale>  0 0.83067804E+02</rscale>
<asrwt>0</asrwt>
<pdfrwt beam="1">  1        1 0.35098975E+00 0.83067804E+02</pdfrwt>
<pdfrwt beam="2">  1       -1 0.52279564E-02 0.83067804E+02</pdfrwt>
<totfact> 0.38482527E+02</totfact>
</mgrwt>
</event>
<event>
 4    1  0.4940461E-001  0.1415168E+03  0.7546771E-02  0.1211302E+00
          2   -1    0    0  501    0  0.00000000000E+00  0.00000000000E+00  0.18263754865E+04  0.18263754865E+04  0.00000000000E+00 0. -1.
         -2   -1    0    0    0  501 -0.00000000000E+00 -0.00000000000E+00 -0.15600824413E+02  0.15600824413E+02  0.00000000000E+00 0.  1.
         24    1    1    2    0    0  0.67036761670E+02  0.95214782648E+02  0.14074101661E+04  0.14145071134E+04  0.80419002446E+02 0. -1.
        -24    1    1    2    0    0 -0.67036761670E+02 -0.95214782648E+02  0.40336449601E+03  0.42746919754E+03  0.80419002446E+02 0.  1.
<mgrwt>
<rscale>  0 0.14151678E+03</rscale>
<asrwt>0</asrwt>
<pdfrwt beam="1">  1        2 0.28098067E+00 0.14151678E+03</pdfrwt>
<pdfrwt beam="2">  1       -2 0.24001283E-02 0.14151678E+03</pdfrwt>
<totfact> 0.53613865E+03</totfact>
</mgrwt>
</event>
<event>
 4    1  0.4940461E-001  0.8502303E+02  0.7546771E-02  0.1315372E+00
          1   -1    0    0  501    0  0.00000000000E+00  0.00000000000E+00  0.13187178017E+03  0.13187178017E+03  0.00000000000E+00 0. -1.
         -1   -1    0    0    0  501 -0.00000000000E+00 -0.00000000000E+00 -0.66140012062E+02  0.66140012062E+02  0.00000000000E+00 0.  1.
         24    1    1    2    0    0 -0.77570001550E+01  0.26486376982E+02 -0.80974592705E+01  0.85407751510E+02  0.80419002446E+02 0.  0.
        -24    1    1    2    0    0  0.77570001550E+01 -0.26486376982E+02  0.73829227377E+02  0.11260404072E+03  0.80419002446E+02 0.  0.
<mgrwt>
<rscale>  0 0.85023027E+02</rscale>
<asrwt>0</asrwt>
<pdfrwt beam="1">  1        1 0.20287966E-01 0.85023027E+02</pdfrwt>
<pdfrwt beam="2">  1       -1 0.10175386E-01 0.85023027E+02</pdfrwt>
<totfact> 0.13281718E+04</totfact>
</mgrwt>
</event>
<event>
 4    1  0.4940461E-001  0.1285957E+03  0.7546771E-02  0.1229554E+00
          2   -1    0    0  501    0  0.00000000000E+00  0.00000000000E+00  0.27802403863E+04  0.27802403863E+04  0.00000000000E+00 0. -1.
         -2   -1    0    0    0  501 -0.00000000000E+00 -0.00000000000E+00 -0.60683117662E+01  0.60683117662E+01  0.00000000000E+00 0.  1.
         24    1    1    2    0    0 -0.39434924292E+02 -0.92274143999E+02  0.11909152896E+04  0.11978380833E+04  0.80419002446E+02 0.  0.
        -24    1    1    2    0    0  0.39434924292E+02  0.92274143999E+02  0.15832567849E+04  0.15884706147E+04  0.80419002446E+02 0.  1.
<mgrwt>
<rscale>  0 0.12859569E+03</rscale>
<asrwt>0</asrwt>
<pdfrwt beam="1">  1        2 0.42772827E+00 0.12859570E+03</pdfrwt>
<pdfrwt beam="2">  1       -2 0.93358865E-03 0.12859570E+03</pdfrwt>
<totfact> 0.65860337E+03</totfact>
</mgrwt>
</event>
<event>
 4    1  0.4940461E-001  0.8853445E+02  0.7546771E-02  0.1306440E+00
         -2   -1    0    0    0  501 -0.00000000000E+00  0.00000000000E+00  0.71894079392E+01  0.71894079392E+01  0.00000000000E+00 0.  1.
          2   -1    0    0  501    0  0.00000000000E+00 -0.00000000000E+00 -0.12446635644E+04  0.12446635644E+04  0.00000000000E+00 0. -1.
         24    1    1    2    0    0 -0.32237729400E+02 -0.18216945987E+02 -0.39828103081E+03  0.40800260266E+03  0.80419002446E+02 0.  1.
        -24    1    1    2    0    0  0.32237729400E+02  0.18216945987E+02 -0.83919312562E+03  0.84385036966E+03  0.80419002446E+02 0. -1.
<mgrwt>
<rscale>  0 0.88534435E+02</rscale>
<asrwt>0</asrwt>
<pdfrwt beam="1">  1        2 0.19148681E+00 0.88534446E+02</pdfrwt>
<pdfrwt beam="2">  1       -2 0.11060621E-02 0.88534446E+02</pdfrwt>
<totfact> 0.31833021E+04</totfact>
</mgrwt>
</event>
<event>
 4    1  0.4940461E-001  0.8340273E+02  0.7546771E-02  0.1319663E+00
         -2   -1    0    0    0  501 -0.00000000000E+00  0.00000000000E+00  0.34322442617E+01  0.34322442617E+01  0.00000000000E+00 0.  1.
          2   -1    0    0  501    0  0.00000000000E+00 -0.00000000000E+00 -0.20661765424E+04  0.20661765424E+04  0.00000000000E+00 0. -1.
         24    1    1    2    0    0 -0.67987548015E+01  0.21037415274E+02 -0.88827451096E+03  0.89218138217E+03  0.80419002446E+02 0. -1.
        -24    1    1    2    0    0  0.67987548015E+01 -0.21037415274E+02 -0.11744697872E+04  0.11774274045E+04  0.80419002446E+02 0.  0.
<mgrwt>
<rscale>  0 0.83402719E+02</rscale>
<asrwt>0</asrwt>
<pdfrwt beam="1">  1        2 0.31787329E+00 0.83402730E+02</pdfrwt>
<pdfrwt beam="2">  1       -2 0.52803762E-03 0.83402730E+02</pdfrwt>
<totfact> 0.34315171E+04</totfact>
</mgrwt>
</event>
<event>
 4    1  0.4940461E-001  0.8435772E+02  0.7546771E-02  0.1317121E+00
          2   -1    0    0  501    0  0.00000000000E+00  0.00000000000E+00  0.86653975089E+02  0.86653975089E+02  0.00000000000E+00 0. -1.
         -2   -1    0    0    0  501 -0.00000000000E+00 -0.00000000000E+00 -0.11463604225E+03  0.11463604225E+03  0.00000000000E+00 0.  1.
         24    1    1    2    0    0  0.12640007441E+02  0.22118736803E+02  0.39609003327E+02  0.93193869996E+02  0.80419002446E+02 0. -1.
        -24    1    1    2    0    0 -0.12640007441E+02 -0.22118736803E+02 -0.67591070483E+02  0.10809614734E+03  0.80419002446E+02 0.  1.
<mgrwt>
<rscale>  0 0.84357716E+02</rscale>
<asrwt>0</asrwt>
<pdfrwt beam="1">  1        2 0.13331381E-01 0.84357716E+02</pdfrwt>
<pdfrwt beam="2">  1       -2 0.17636314E-01 0.84357716E+02</pdfrwt>
<totfact> 0.10507720E+04</totfact>
</mgrwt>
</event>
<event>
 4    1  0.4940461E-001  0.1279123E+03  0.7546771E-02  0.1230587E+00
          1   -1    0    0  501    0  0.00000000000E+00  0.00000000000E+00  0.16178361979E+04  0.16178361979E+04  0.00000000000E+00 0. -1.
         -1   -1    0    0    0  501 -0.00000000000E+00 -0.00000000000E+00 -0.12689790015E+02  0.12689790015E+02  0.00000000000E+00 0.  1.
         24    1    1    2    0    0 -0.59287833754E+02 -0.79870434033E+02  0.43521423200E+03  0.45362206423E+03  0.80419002446E+02 0.  0.
        -24    1    1    2    0    0  0.59287833754E+02  0.79870434033E+02  0.11699321758E+04  0.11769039236E+04  0.80419002446E+02 0.  1.
<mgrwt>
<rscale>  0 0.12791227E+03</rscale>
<asrwt>0</asrwt>
<pdfrwt beam="1">  1        1 0.24889771E+00 0.12791227E+03</pdfrwt>
<pdfrwt beam="2">  1       -1 0.19522767E-02 0.12791227E+03</pdfrwt>
<totfact> 0.41909240E+03</totfact>
</mgrwt>
</event>
<event>
 4    1  0.4940461E-001  0.1003967E+03  0.7546771E-02  0.1279464E+00
         -2   -1    0    0    0  501 -0.00000000000E+00  0.00000000000E+00  0.74057517452E+02  0.74057517452E+02  0.00000000000E+00 0.  1.
          2   -1    0    0  501    0  0.00000000000E+00 -0.00000000000E+00 -0.15162915219E+03  0.15162915219E+03  0.00000000000E+00 0. -1.
         24    1    1    2    0    0  0.93894101655E+01 -0.59364305409E+02 -0.74894157081E+02  0.12525427138E+03  0.80419002446E+02 0. -1.
        -24    1    1    2    0    0 -0.93894101655E+01  0.59364305409E+02 -0.26774776601E+01  0.10043239826E+03  0.80419002446E+02 0.  0.
<mgrwt>
<rscale>  0 0.10039670E+03</rscale>
<asrwt>0</asrwt>
<pdfrwt beam="1">  1        2 0.23327562E-01 0.10039670E+03</pdfrwt>
<pdfrwt beam="2">  1       -2 0.11393464E-01 0.10039670E+03</pdfrwt>
<totfact> 0.11438303E+04</totfact>
</mgrwt>
</event>
<event>
 4    1  0.4940461E-001  0.8767107E+02  0.7546771E-02  0.1308592E+00
          2   -1    0    0  501    0  0.00000000000E+00  0.00000000000E+00  0.11596042622E+03  0.11596042622E+03  0.00000000000E+00 0. -1.
         -2   -1    0    0    0  501 -0.00000000000E+00 -0.00000000000E+00 -0.11054015999E+03  0.11054015999E+03  0.00000000000E+00 0.  1.
         24    1    1    2    0    0 -0.12185041553E+02  0.32718879885E+02  0.74369106225E+02  0.11496512625E+03  0.80419002446E+02 0.  0.
        -24    1    1    2    0    0  0.12185041553E+02 -0.32718879885E+02 -0.68948839998E+02  0.11153545997E+03  0.80419002446E+02 0.  1.
<mgrwt>
<rscale>  0 0.87671069E+02</rscale>
<asrwt>0</asrwt>
<pdfrwt beam="1">  1        2 0.17840065E-01 0.87671069E+02</pdfrwt>
<pdfrwt beam="2">  1       -2 0.17006179E-01 0.87671069E+02</pdfrwt>
<totfact> 0.80073185E+03</totfact>
</mgrwt>
</event>
<event>
 4    1  0.4940461E-001  0.9018814E+02  0.7546771E-02  0.1302397E+00
          1   -1    0    0  501    0  0.00000000000E+00  0.00000000000E+00  0.12492389797E+02  0.12492389797E+02  0.00000000000E+00 0. -1.
         -1   -1    0    0    0  501 -0.00000000000E+00 -0.00000000000E+00 -0.13813934685E+04  0.13813934685E+04  0.00000000000E+00 0.  1.
         24    1    1    2    0    0 -0.88528096665E+01 -0.39853578892E+02 -0.17771096455E+03  0.19928643422E+03  0.80419002446E+02 0.  0.
        -24    1    1    2    0    0  0.88528096665E+01  0.39853578892E+02 -0.11911901141E+04  0.11945994241E+04  0.80419002446E+02 0.  1.
<mgrwt>
<rscale>  0 0.90188125E+02</rscale>
<asrwt>0</asrwt>
<pdfrwt beam="1">  1        1 0.19219056E-02 0.90188137E+02</pdfrwt>
<pdfrwt beam="2">  1       -1 0.21252213E+00 0.90188137E+02</pdfrwt>
<totfact> 0.85581263E+02</totfact>
</mgrwt>
</event>
<event>
 4    1  0.4940461E-001  0.8666214E+02  0.7546771E-02  0.1311142E+00
         -1   -1    0    0    0  501 -0.00000000000E+00  0.00000000000E+00  0.93155474095E+02  0.93155474095E+02  0.00000000000E+00 0.  1.
          1   -1    0    0  501    0  0.00000000000E+00 -0.00000000000E+00 -0.32897685175E+03  0.32897685175E+03  0.00000000000E+00 0. -1.
         24    1    1    2    0    0  0.30212400479E+02 -0.11415820519E+02  0.65478099645E+02  0.10861725272E+03  0.80419002446E+02 0.  1.
        -24    1    1    2    0    0 -0.30212400479E+02  0.11415820519E+02 -0.30129947730E+03  0.31351507312E+03  0.80419002446E+02 0. -1.
<mgrwt>
<rscale>  0 0.86662137E+02</rscale>
<asrwt>0</asrwt>
<pdfrwt beam="1">  1        1 0.50611824E-01 0.86662137E+02</pdfrwt>
<pdfrwt beam="2">  1       -1 0.14331611E-01 0.86662137E+02</pdfrwt>
<totfact> 0.25684960E+03</totfact>
</mgrwt>
</event>
<event>
 4    1  0.4940461E-001  0.1169580E+03  0.7546771E-02  0.1248202E+00
          1   -1    0    0  501    0  0.00000000000E+00  0.00000000000E+00  0.11552350904E+03  0.11552350904E+03  0.00000000000E+00 0. -1.
         -1   -1    0    0    0  501 -0.00000000000E+00 -0.00000000000E+00 -0.13224820097E+03  0.13224820097E+03  0.00000000000E+00 0.  1.
         24    1    1    2    0    0  0.39747266691E+01 -0.84830111531E+02  0.31711724509E+02  0.12118083883E+03  0.80419002446E+02 0.  0.
        -24    1    1    2    0    0 -0.39747266691E+01  0.84830111531E+02 -0.48436416437E+02  0.12659087118E+03  0.80419002446E+02 0.  0.
<mgrwt>
<rscale>  0 0.11695797E+03</rscale>
<asrwt>0</asrwt>
<pdfrwt beam="1">  1        1 0.17772848E-01 0.11695798E+03</pdfrwt>
<pdfrwt beam="2">  1       -1 0.20345877E-01 0.11695798E+03</pdfrwt>
<totfact> 0.55072241E+03</totfact>
</mgrwt>
</event>
<event>
 4    1  0.4940461E-001  0.9610716E+02  0.7546771E-02  0.1288702E+00
         -4   -1    0    0    0  501 -0.00000000000E+00  0.00000000000E+00  0.19522083355E+04  0.19522083355E+04  0.00000000000E+00 0.  1.
          4   -1    0    0  501    0  0.00000000000E+00 -0.00000000000E+00 -0.53434736180E+01  0.53434736180E+01  0.00000000000E+00 0. -1.
         24    1    1    2    0    0 -0.46962253315E+02 -0.23746937250E+02  0.64215638204E+03  0.64930840532E+03  0.80419002446E+02 0. -1.
        -24    1    1    2    0    0  0.46962253315E+02  0.23746937250E+02  0.13047084799E+04  0.13082434039E+04  0.80419002446E+02 0.  1.
<mgrwt>
<rscale>  0 0.96107160E+02</rscale>
<asrwt>0</asrwt>
<pdfrwt beam="1">  1        4 0.82207442E-03 0.96107160E+02</pdfrwt>
<pdfrwt beam="2">  1       -4 0.30033917E+00 0.96107160E+02</pdfrwt>
<totfact> 0.23618889E+02</totfact>
</mgrwt>
</event>
<event>
 4    1  0.4940461E-001  0.8167819E+02  0.7546771E-02  0.1324355E+00
         -1   -1    0    0    0  501 -0.00000000000E+00  0.00000000000E+00  0.53175082605E+02  0.53175082605E+02  0.00000000000E+00 0.  1.
          1   -1    0    0  501    0  0.00000000000E+00 -0.00000000000E+00 -0.16473204263E+03  0.16473204263E+03  0.00000000000E+00 0. -1.
         24    1    1    2    0    0 -0.65204764090E+00 -0.14271840012E+02 -0.25803766916E+01  0.81718938329E+02  0.80419002446E+02 0.  1.
        -24    1    1    2    0    0  0.65204764090E+00  0.14271840012E+02 -0.10897658334E+03  0.13618818691E+03  0.80419002446E+02 0.  0.
<mgrwt>
<rscale>  0 0.81678189E+02</rscale>
<asrwt>0</asrwt>
<pdfrwt beam="1">  1        1 0.25343391E-01 0.81678189E+02</pdfrwt>
<pdfrwt beam="2">  1       -1 0.81807821E-02 0.81678189E+02</pdfrwt>
<totfact> 0.13911605E+04</totfact>
</mgrwt>
</event>
<event>
 4    1  0.4940461E-001  0.9199299E+02  0.7546771E-02  0.1298096E+00
         -1   -1    0    0    0  501 -0.00000000000E+00  0.00000000000E+00  0.18923153619E+02  0.18923153619E+02  0.00000000000E+00 0.  1.
          1   -1    0    0  501    0  0.00000000000E+00 -0.00000000000E+00 -0.86743383149E+03  0.86743383149E+03  0.00000000000E+00 0. -1.
         24    1    1    2    0    0 -0.41532202472E+02  0.16449051875E+02 -0.11579562932E+03  0.14788961719E+03  0.80419002446E+02 0.  1.
        -24    1    1    2    0    0  0.41532202472E+02 -0.16449051875E+02 -0.73271504855E+03  0.73846736791E+03  0.80419002446E+02 0. -1.
<mgrwt>
<rscale>  0 0.91992995E+02</rscale>
<asrwt>0</asrwt>
<pdfrwt beam="1">  1        1 0.13345134E+00 0.91992995E+02</pdfrwt>
<pdfrwt beam="2">  1       -1 0.29112547E-02 0.91992995E+02</pdfrwt>
<totfact> 0.75514850E+03</totfact>
</mgrwt>
</event>
<event>
 4    1  0.4940461E-001  0.8757864E+02  0.7546771E-02  0.1308824E+00
         -1   -1    0    0    0  501 -0.00000000000E+00  0.00000000000E+00  0.14201182498E+03  0.14201182498E+03  0.00000000000E+00 0.  1.
          1   -1    0    0  501    0  0.00000000000E+00 -0.00000000000E+00 -0.68536248042E+02  0.68536248042E+02  0.00000000000E+00 0. -1.
         24    1    1    2    0    0 -0.25758241390E+02  0.23223159323E+02  0.85204339131E+02  0.12218755047E+03  0.80419002446E+02 0.  1.
        -24    1    1    2    0    0  0.25758241390E+02 -0.23223159323E+02 -0.11728762195E+02  0.88360522551E+02  0.80419002446E+02 0. -1.
<mgrwt>
<rscale>  0 0.87578639E+02</rscale>
<asrwt>0</asrwt>
<pdfrwt beam="1">  1        1 0.10544038E-01 0.87578639E+02</pdfrwt>
<pdfrwt beam="2">  1       -1 0.21847973E-01 0.87578639E+02</pdfrwt>
<totfact> 0.94106219E+03</totfact>
</mgrwt>
</event>
<event>
 4    1  0.4940461E-001  0.8863577E+02  0.7546771E-02  0.1306189E+00
         -2   -1    0    0    0  501 -0.00000000000E+00  0.00000000000E+00  0.18486967303E+03  0.18486967303E+03  0.00000000000E+00 0.  1.
          2   -1    0    0  501    0  0.00000000000E+00 -0.00000000000E+00 -0.51876564705E+03  0.51876564705E+03  0.00000000000E+00 0. -1.
         24    1    1    2    0    0  0.12301352610E+02  0.35181827459E+02 -0.50404762773E+03  0.51178150731E+03  0.80419002446E+02 0. -1.
        -24    1    1    2    0    0 -0.12301352610E+02 -0.35181827459E+02  0.17015165371E+03  0.19185381277E+03  0.80419002446E+02 0.  1.
<mgrwt>
<rscale>  0 0.88635773E+02</rscale>
<asrwt>0</asrwt>
<pdfrwt beam="1">  1        2 0.79810100E-01 0.88635773E+02</pdfrwt>
<pdfrwt beam="2">  1       -2 0.28441488E-01 0.88635773E+02</pdfrwt>
<totfact> 0.67354110E+02</totfact>
</mgrwt>
</event>
<event>
 4    1  0.4940461E-001  0.1047969E+03  0.7546771E-02  0.1270520E+00
          2   -1    0    0  501    0  0.00000000000E+00  0.00000000000E+00  0.18455619305E+04  0.18455619305E+04  0.00000000000E+00 0. -1.
         -2   -1    0    0    0  501 -0.00000000000E+00 -0.00000000000E+00 -0.12393580060E+02  0.12393580060E+02  0.00000000000E+00 0.  1.
         24    1    1    2    0    0  0.53580634818E+02  0.40549848125E+02  0.15863868155E+04  0.15898444952E+04  0.80419002446E+02 0. -1.
        -24    1    1    2    0    0 -0.53580634818E+02 -0.40549848125E+02  0.24678153497E+03  0.26811101537E+03  0.80419002446E+02 0.  1.
<mgrwt>
<rscale>  0 0.10479690E+03</rscale>
<asrwt>0</asrwt>
<pdfrwt beam="1">  1        2 0.28393239E+00 0.10479690E+03</pdfrwt>
<pdfrwt beam="2">  1       -2 0.19067061E-02 0.10479690E+03</pdfrwt>
<totfact> 0.72651743E+03</totfact>
</mgrwt>
</event>
<event>
 4    1  0.4940461E-001  0.8059452E+02  0.7546771E-02  0.1327373E+00
          1   -1    0    0  501    0  0.00000000000E+00  0.00000000000E+00  0.69054927328E+02  0.69054927328E+02  0.00000000000E+00 0. -1.
         -1   -1    0    0    0  501 -0.00000000000E+00 -0.00000000000E+00 -0.94081646660E+02  0.94081646660E+02  0.00000000000E+00 0.  1.
         24    1    1    2    0    0  0.35976793789E+01  0.39133024025E+01 -0.11347128467E+02  0.81389375913E+02  0.80419002446E+02 0.  1.
        -24    1    1    2    0    0 -0.35976793789E+01 -0.39133024025E+01 -0.13679590865E+02  0.81747198076E+02  0.80419002446E+02 0. -1.
<mgrwt>
<rscale>  0 0.80594509E+02</rscale>
<asrwt>0</asrwt>
<pdfrwt beam="1">  1        1 0.10623835E-01 0.80594519E+02</pdfrwt>
<pdfrwt beam="2">  1       -1 0.14474100E-01 0.80594519E+02</pdfrwt>
<totfact> 0.17623602E+04</totfact>
</mgrwt>
</event>
<event>
 4    1  0.4940461E-001  0.8288789E+02  0.7546771E-02  0.1321050E+00
         -4   -1    0    0    0  501 -0.00000000000E+00  0.00000000000E+00  0.54927728848E+02  0.54927728848E+02  0.00000000000E+00 0.  1.
          4   -1    0    0  501    0  0.00000000000E+00 -0.00000000000E+00 -0.21350610600E+03  0.21350610600E+03  0.00000000000E+00 0. -1.
         24    1    1    2    0    0 -0.19811498579E+02 -0.32697890986E+01 -0.16566466477E+03  0.18524358047E+03  0.80419002446E+02 0. -1.
        -24    1    1    2    0    0  0.19811498579E+02  0.32697890986E+01  0.70862876217E+01  0.83190254377E+02  0.80419002446E+02 0.  1.
<mgrwt>
<rscale>  0 0.82887894E+02</rscale>
<asrwt>0</asrwt>
<pdfrwt beam="1">  1        4 0.32847093E-01 0.82887894E+02</pdfrwt>
<pdfrwt beam="2">  1       -4 0.84504200E-02 0.82887894E+02</pdfrwt>
<totfact> 0.13179204E+03</totfact>
</mgrwt>
</event>
<event>
 4    1  0.4940461E-001  0.9122206E+02  0.7546771E-02  0.1299919E+00
         -2   -1    0    0    0  501 -0.00000000000E+00  0.00000000000E+00  0.10298526166E+03  0.10298526166E+03  0.00000000000E+00 0.  1.
          2   -1    0    0  501    0  0.00000000000E+00 -0.00000000000E+00 -0.80848514760E+02  0.80848514760E+02  0.00000000000E+00 0. -1.
         24    1    1    2    0    0  0.42834532534E+02  0.44099435861E+01  0.13262576151E+02  0.92181107937E+02  0.80419002446E+02 0. -1.
        -24    1    1    2    0    0 -0.42834532534E+02 -0.44099435861E+01  0.88741707513E+01  0.91652668487E+02  0.80419002446E+02 0.  0.
<mgrwt>
<rscale>  0 0.91222052E+02</rscale>
<asrwt>0</asrwt>
<pdfrwt beam="1">  1        2 0.12438233E-01 0.91222064E+02</pdfrwt>
<pdfrwt beam="2">  1       -2 0.15843886E-01 0.91222064E+02</pdfrwt>
<totfact> 0.13696540E+04</totfact>
</mgrwt>
</event>
<event>
 4    1  0.4940461E-001  0.8107354E+02  0.7546771E-02  0.1326032E+00
         -2   -1    0    0    0  501 -0.00000000000E+00  0.00000000000E+00  0.15763042939E+02  0.15763042939E+02  0.00000000000E+00 0.  1.
          2   -1    0    0  501    0  0.00000000000E+00 -0.00000000000E+00 -0.17325749721E+04  0.17325749721E+04  0.00000000000E+00 0. -1.
         24    1    1    2    0    0 -0.99522218316E+01  0.25800947083E+01 -0.16201516597E+04  0.16221788804E+04  0.80419002446E+02 0. -1.
        -24    1    1    2    0    0  0.99522218316E+01 -0.25800947083E+01 -0.96660269456E+02  0.12615913464E+03  0.80419002446E+02 0.  1.
<mgrwt>
<rscale>  0 0.81073544E+02</rscale>
<asrwt>0</asrwt>
<pdfrwt beam="1">  1        2 0.26654999E+00 0.81073544E+02</pdfrwt>
<pdfrwt beam="2">  1       -2 0.24250836E-02 0.81073544E+02</pdfrwt>
<totfact> 0.58065125E+03</totfact>
</mgrwt>
</event>
<event>
 4    1  0.4940461E-001  0.1239589E+03  0.7546771E-02  0.1236705E+00
          1   -1    0    0  501    0  0.00000000000E+00  0.00000000000E+00  0.62433910760E+03  0.62433910760E+03  0.00000000000E+00 0. -1.
         -1   -1    0    0    0  501 -0.00000000000E+00 -0.00000000000E+00 -0.73291638548E+02  0.73291638548E+02  0.00000000000E+00 0.  1.
         24    1    1    2    0    0  0.90915651203E+02 -0.25158165124E+02 -0.87555022489E+01  0.12426770972E+03  0.80419002446E+02 0.  1.
        -24    1    1    2    0    0 -0.90915651203E+02  0.25158165124E+02  0.55980297130E+03  0.57336303642E+03  0.80419002446E+02 0. -1.
<mgrwt>
<rscale>  0 0.12395888E+03</rscale>
<asrwt>0</asrwt>
<pdfrwt beam="1">  1        1 0.96052167E-01 0.12395888E+03</pdfrwt>
<pdfrwt beam="2">  1       -1 0.11275637E-01 0.12395888E+03</pdfrwt>
<totfact> 0.16579695E+03</totfact>
</mgrwt>
</event>
<event>
 4    1  0.4940461E-001  0.8441091E+02  0.7546771E-02  0.1316980E+00
         -2   -1    0    0    0  501 -0.00000000000E+00  0.00000000000E+00  0.25568775208E+02  0.25568775208E+02  0.00000000000E+00 0.  1.
          2   -1    0    0  501    0  0.00000000000E+00 -0.00000000000E+00 -0.14028322200E+04  0.14028322200E+04  0.00000000000E+00 0. -1.
         24    1    1    2    0    0  0.18861268618E+02 -0.17385018885E+02 -0.13279721102E+04  0.13306521438E+04  0.80419002446E+02 0. -1.
        -24    1    1    2    0    0 -0.18861268618E+02  0.17385018885E+02 -0.49291334603E+02  0.97748851435E+02  0.80419002446E+02 0.  1.
<mgrwt>
<rscale>  0 0.84410913E+02</rscale>
<asrwt>0</asrwt>
<pdfrwt beam="1">  1        2 0.21582034E+00 0.84410913E+02</pdfrwt>
<pdfrwt beam="2">  1       -2 0.39336578E-02 0.84410913E+02</pdfrwt>
<totfact> 0.42293916E+03</totfact>
</mgrwt>
</event>
<event>
 4    1  0.4940461E-001  0.9197414E+02  0.7546771E-02  0.1298140E+00
          1   -1    0    0  501    0  0.00000000000E+00  0.00000000000E+00  0.51084915252E+02  0.51084915252E+02  0.00000000000E+00 0. -1.
         -1   -1    0    0    0  501 -0.00000000000E+00 -0.00000000000E+00 -0.16578311327E+03  0.16578311327E+03  0.00000000000E+00 0.  1.
         24    1    1    2    0    0 -0.25583577284E+02  0.36571882909E+02 -0.53664582248E+02  0.10648532945E+03  0.80419002446E+02 0.  1.
        -24    1    1    2    0    0  0.25583577284E+02 -0.36571882909E+02 -0.61033615774E+02  0.11038269907E+03  0.80419002446E+02 0. -1.
<mgrwt>
<rscale>  0 0.91974127E+02</rscale>
<asrwt>0</asrwt>
<pdfrwt beam="1">  1        1 0.78592178E-02 0.91974139E+02</pdfrwt>
<pdfrwt beam="2">  1       -1 0.25505094E-01 0.91974139E+02</pdfrwt>
<totfact> 0.10841673E+04</totfact>
</mgrwt>
</event>
<event>
 4    1  0.4940461E-001  0.9161222E+02  0.7546771E-02  0.1298994E+00
          2   -1    0    0  501    0  0.00000000000E+00  0.00000000000E+00  0.93810553828E+03  0.93810553828E+03  0.00000000000E+00 0. -1.
         -2   -1    0    0    0  501 -0.00000000000E+00 -0.00000000000E+00 -0.16434848064E+02  0.16434848064E+02  0.00000000000E+00 0.  1.
         24    1    1    2    0    0  0.40553241752E+02  0.16763587683E+02  0.78299659448E+03  0.78833778687E+03  0.80419002446E+02 0. -1.
        -24    1    1    2    0    0 -0.40553241752E+02 -0.16763587683E+02  0.13867409573E+03  0.16620259947E+03  0.80419002446E+02 0.  1.
<mgrwt>
<rscale>  0 0.91612222E+02</rscale>
<asrwt>0</asrwt>
<pdfrwt beam="1">  1        2 0.14432389E+00 0.91612222E+02</pdfrwt>
<pdfrwt beam="2">  1       -2 0.25284389E-02 0.91612222E+02</pdfrwt>
<totfact> 0.14587435E+04</totfact>
</mgrwt>
</event>
<event>
 4    1  0.4940461E-001  0.1313793E+03  0.7546771E-02  0.1225423E+00
          4   -1    0    0  501    0  0.00000000000E+00  0.00000000000E+00  0.48876653108E+03  0.48876653108E+03  0.00000000000E+00 0. -1.
         -4   -1    0    0    0  501 -0.00000000000E+00 -0.00000000000E+00 -0.36976160097E+02  0.36976160097E+02  0.00000000000E+00 0.  1.
         24    1    1    2    0    0  0.27299031932E+02  0.10024004763E+03  0.17016888219E+03  0.21498364755E+03  0.80419002446E+02 0.  0.
        -24    1    1    2    0    0 -0.27299031932E+02 -0.10024004763E+03  0.28162148879E+03  0.31075904363E+03  0.80419002446E+02 0.  1.
<mgrwt>
<rscale>  0 0.13137932E+03</rscale>
<asrwt>0</asrwt>
<pdfrwt beam="1">  1        4 0.75194846E-01 0.13137933E+03</pdfrwt>
<pdfrwt beam="2">  1       -4 0.56886404E-02 0.13137933E+03</pdfrwt>
<totfact> 0.52092661E+02</totfact>
</mgrwt>
</event>
<event>
 4    1  0.4940461E-001  0.8243569E+02  0.7546771E-02  0.1322278E+00
          2   -1    0    0  501    0  0.00000000000E+00  0.00000000000E+00  0.99271395719E+03  0.99271395719E+03  0.00000000000E+00 0. -1.
         -2   -1    0    0    0  501 -0.00000000000E+00 -0.00000000000E+00 -0.36018625982E+02  0.36018625982E+02  0.00000000000E+00 0.  1.
         24    1    1    2    0    0  0.16918671111E+02 -0.64951023970E+01  0.94126160676E+03  0.94486457025E+03  0.80419002446E+02 0. -1.
        -24    1    1    2    0    0 -0.16918671111E+02  0.64951023970E+01  0.15433724445E+02  0.83868012925E+02  0.80419002446E+02 0.  1.
<mgrwt>
<rscale>  0 0.82435695E+02</rscale>
<asrwt>0</asrwt>
<pdfrwt beam="1">  1        2 0.15272520E+00 0.82435695E+02</pdfrwt>
<pdfrwt beam="2">  1       -2 0.55413278E-02 0.82435695E+02</pdfrwt>
<totfact> 0.42584471E+03</totfact>
</mgrwt>
</event>
<event>
 4    1  0.4940461E-001  0.8481313E+02  0.7546771E-02  0.1315922E+00
          2   -1    0    0  501    0  0.00000000000E+00  0.00000000000E+00  0.10490640392E+03  0.10490640392E+03  0.00000000000E+00 0. -1.
         -2   -1    0    0    0  501 -0.00000000000E+00 -0.00000000000E+00 -0.12366798595E+03  0.12366798595E+03  0.00000000000E+00 0.  1.
         24    1    1    2    0    0 -0.43871391309E+01  0.26585721125E+02 -0.85666489233E+02  0.12054879049E+03  0.80419002446E+02 0.  0.
        -24    1    1    2    0    0  0.43871391309E+01 -0.26585721125E+02  0.66904907200E+02  0.10802559937E+03  0.80419002446E+02 0. -1.
<mgrwt>
<rscale>  0 0.84813120E+02</rscale>
<asrwt>0</asrwt>
<pdfrwt beam="1">  1        2 0.16139447E-01 0.84813131E+02</pdfrwt>
<pdfrwt beam="2">  1       -2 0.19025844E-01 0.84813131E+02</pdfrwt>
<totfact> 0.74343293E+03</totfact>
</mgrwt>
</event>
<event>
 4    1  0.4940461E-001  0.8769758E+02  0.7546771E-02  0.1308525E+00
         -2   -1    0    0    0  501 -0.00000000000E+00  0.00000000000E+00  0.60490283802E+01  0.60490283802E+01  0.00000000000E+00 0.  1.
          2   -1    0    0  501    0  0.00000000000E+00 -0.00000000000E+00 -0.13494342869E+04  0.13494342869E+04  0.00000000000E+00 0. -1.
         24    1    1    2    0    0 -0.10667805563E+02  0.33314364386E+02 -0.83464891951E+03  0.83924351874E+03  0.80419002446E+02 0. -1.
        -24    1    1    2    0    0  0.10667805563E+02 -0.33314364386E+02 -0.50873633897E+03  0.51623979650E+03  0.80419002446E+02 0.  1.
<mgrwt>
<rscale>  0 0.87697576E+02</rscale>
<asrwt>0</asrwt>
<pdfrwt beam="1">  1        2 0.20760517E+00 0.87697576E+02</pdfrwt>
<pdfrwt beam="2">  1       -2 0.93062020E-03 0.87697576E+02</pdfrwt>
<totfact> 0.35745216E+04</totfact>
</mgrwt>
</event>
<event>
 4    1  0.4940461E-001  0.8326610E+02  0.7546771E-02  0.1320030E+00
         -1   -1    0    0    0  501 -0.00000000000E+00  0.00000000000E+00  0.13358206858E+03  0.13358206858E+03  0.00000000000E+00 0.  1.
          1   -1    0    0  501    0  0.00000000000E+00 -0.00000000000E+00 -0.51926593651E+02  0.51926593651E+02  0.00000000000E+00 0. -1.
         24    1    1    2    0    0  0.21540170347E+02 -0.14301767295E+01  0.38828824102E+02  0.91874468051E+02  0.80419002446E+02 0.  1.
        -24    1    1    2    0    0 -0.21540170347E+02  0.14301767295E+01  0.42826650823E+02  0.93634194177E+02  0.80419002446E+02 0. -1.
<mgrwt>
<rscale>  0 0.83266092E+02</rscale>
<asrwt>0</asrwt>
<pdfrwt beam="1">  1        1 0.79887068E-02 0.83266102E+02</pdfrwt>
<pdfrwt beam="2">  1       -1 0.20551087E-01 0.83266102E+02</pdfrwt>
<totfact> 0.14858318E+04</totfact>
</mgrwt>
</event>
<event>
 4    1  0.4940461E-001  0.9453716E+02  0.7546771E-02  0.1292222E+00
          2   -1    0    0  501    0  0.00000000000E+00  0.00000000000E+00  0.18643789839E+03  0.18643789839E+03  0.00000000000E+00 0. -1.
         -2   -1    0    0    0  501 -0.00000000000E+00 -0.00000000000E+00 -0.48574318092E+02  0.48574318092E+02  0.00000000000E+00 0.  1.
         24    1    1    2    0    0  0.87659593237E+01  0.48920516829E+02  0.82391403934E+02  0.12540182776E+03  0.80419002446E+02 0.  0.
        -24    1    1    2    0    0 -0.87659593237E+01 -0.48920516829E+02  0.55472176361E+02  0.10961038872E+03  0.80419002446E+02 0. -1.
<mgrwt>
<rscale>  0 0.94537162E+02</rscale>
<asrwt>0</asrwt>
<pdfrwt beam="1">  1        2 0.28682753E-01 0.94537162E+02</pdfrwt>
<pdfrwt beam="2">  1       -2 0.74729721E-02 0.94537162E+02</pdfrwt>
<totfact> 0.17450916E+04</totfact>
</mgrwt>
</event>
<event>
 4    1  0.4940461E-001  0.1195111E+03  0.7546771E-02  0.1243906E+00
         -1   -1    0    0    0  501 -0.00000000000E+00  0.00000000000E+00  0.31923424844E+02  0.31923424844E+02  0.00000000000E+00 0.  1.
          1   -1    0    0  501    0  0.00000000000E+00 -0.00000000000E+00 -0.49111305432E+03  0.49111305432E+03  0.00000000000E+00 0. -1.
         24    1    1    2    0    0 -0.62664151610E+02 -0.62360956833E+02 -0.15158293994E+03  0.19302924253E+03  0.80419002446E+02 0. -1.
        -24    1    1    2    0    0  0.62664151610E+02  0.62360956833E+02 -0.30760668953E+03  0.33000723664E+03  0.80419002446E+02 0.  1.
<mgrwt>
<rscale>  0 0.11951109E+03</rscale>
<asrwt>0</asrwt>
<pdfrwt beam="1">  1        1 0.75555851E-01 0.11951109E+03</pdfrwt>
<pdfrwt beam="2">  1       -1 0.49112964E-02 0.11951109E+03</pdfrwt>
<totfact> 0.79261321E+03</totfact>
</mgrwt>
</event>
<event>
 4    1  0.4940461E-001  0.1269787E+03  0.7546771E-02  0.1232009E+00
          1   -1    0    0  501    0  0.00000000000E+00  0.00000000000E+00  0.13182923769E+03  0.13182923769E+03  0.00000000000E+00 0. -1.
         -1   -1    0    0    0  501 -0.00000000000E+00 -0.00000000000E+00 -0.12937464939E+03  0.12937464939E+03  0.00000000000E+00 0.  1.
         24    1    1    2    0    0 -0.88213941108E+02  0.43297512505E+02  0.31753573744E+02  0.13088880546E+03  0.80419002446E+02 0. -1.
        -24    1    1    2    0    0  0.88213941108E+02 -0.43297512505E+02 -0.29298985446E+02  0.13031508162E+03  0.80419002446E+02 0.  1.
<mgrwt>
<rscale>  0 0.12697871E+03</rscale>
<asrwt>0</asrwt>
<pdfrwt beam="1">  1        1 0.20281421E-01 0.12697873E+03</pdfrwt>
<pdfrwt beam="2">  1       -1 0.19903792E-01 0.12697873E+03</pdfrwt>
<totfact> 0.48495549E+03</totfact>
</mgrwt>
</event>
<event>
 4    1  0.4940461E-001  0.1017993E+03  0.7546771E-02  0.1276557E+00
         -2   -1    0    0    0  501 -0.00000000000E+00  0.00000000000E+00  0.14682456902E+03  0.14682456902E+03  0.00000000000E+00 0.  1.
          2   -1    0    0  501    0  0.00000000000E+00 -0.00000000000E+00 -0.19601307885E+03  0.19601307885E+03  0.00000000000E+00 0. -1.
         24    1    1    2    0    0 -0.53481840509E+02 -0.32180421718E+02 -0.16172011926E+03  0.19109290864E+03  0.80419002446E+02 0. -1.
        -24    1    1    2    0    0  0.53481840509E+02  0.32180421718E+02  0.11253160943E+03  0.15174473922E+03  0.80419002446E+02 0.  1.
<mgrwt>
<rscale>  0 0.10179933E+03</rscale>
<asrwt>0</asrwt>
<pdfrwt beam="1">  1        2 0.30155858E-01 0.10179933E+03</pdfrwt>
<pdfrwt beam="2">  1       -2 0.22588395E-01 0.10179933E+03</pdfrwt>
<totfact> 0.28247730E+03</totfact>
</mgrwt>
</event>
<event>
 4    1  0.4940461E-001  0.8198217E+02  0.7546771E-02  0.1323519E+00
          1   -1    0    0  501    0  0.00000000000E+00  0.00000000000E+00  0.15345075318E+02  0.15345075318E+02  0.00000000000E+00 0. -1.
         -1   -1    0    0    0  501 -0.00000000000E+00 -0.00000000000E+00 -0.86467373569E+03  0.86467373569E+03  0.00000000000E+00 0.  1.
         24    1    1    2    0    0 -0.52465809509E+01  0.15044374014E+02 -0.73375508216E+03  0.73832079501E+03  0.80419002446E+02 0.  1.
        -24    1    1    2    0    0  0.52465809509E+01 -0.15044374014E+02 -0.11557357821E+03  0.14169801599E+03  0.80419002446E+02 0.  0.
<mgrwt>
<rscale>  0 0.81982167E+02</rscale>
<asrwt>0</asrwt>
<pdfrwt beam="1">  1        1 0.23607805E-02 0.81982167E+02</pdfrwt>
<pdfrwt beam="2">  1       -1 0.13302675E+00 0.81982167E+02</pdfrwt>
<totfact> 0.23050358E+03</totfact>
</mgrwt>
</event>
<event>
 4    1  0.4940461E-001  0.8848136E+02  0.7546771E-02  0.1306572E+00
         -2   -1    0    0    0  501 -0.00000000000E+00  0.00000000000E+00  0.75308935891E+01  0.75308935891E+01  0.00000000000E+00 0.  1.
          2   -1    0    0  501    0  0.00000000000E+00 -0.00000000000E+00 -0.12716674727E+04  0.12716674727E+04  0.00000000000E+00 0. -1.
         24    1    1    2    0    0  0.61637405530E+00 -0.36896551308E+02 -0.90531115476E+03  0.90962477886E+03  0.80419002446E+02 0. -1.
        -24    1    1    2    0    0 -0.61637405530E+00  0.36896551308E+02 -0.35882542434E+03  0.36957358742E+03  0.80419002446E+02 0.  1.
<mgrwt>
<rscale>  0 0.88481362E+02</rscale>
<asrwt>0</asrwt>
<pdfrwt beam="1">  1        2 0.19564091E+00 0.88481362E+02</pdfrwt>
<pdfrwt beam="2">  1       -2 0.11586005E-02 0.88481362E+02</pdfrwt>
<totfact> 0.28832138E+04</totfact>
</mgrwt>
</event>
<event>
 4    1  0.4940461E-001  0.8109231E+02  0.7546771E-02  0.1325980E+00
          1   -1    0    0  501    0  0.00000000000E+00  0.00000000000E+00  0.40791353192E+03  0.40791353192E+03  0.00000000000E+00 0. -1.
         -1   -1    0    0    0  501 -0.00000000000E+00 -0.00000000000E+00 -0.16211949479E+02  0.16211949479E+02  0.00000000000E+00 0.  1.
         24    1    1    2    0    0  0.10418397990E+02 -0.44725370127E+00  0.21173753445E+03  0.22673496092E+03  0.80419002446E+02 0. -1.
        -24    1    1    2    0    0 -0.10418397990E+02  0.44725370127E+00  0.17996404799E+03  0.19739052048E+03  0.80419002446E+02 0. -1.
<mgrwt>
<rscale>  0 0.81092297E+02</rscale>
<asrwt>0</asrwt>
<pdfrwt beam="1">  1        1 0.62755920E-01 0.81092307E+02</pdfrwt>
<pdfrwt beam="2">  1       -1 0.24941464E-02 0.81092307E+02</pdfrwt>
<totfact> 0.25852702E+04</totfact>
</mgrwt>
</event>
<event>
 4    1  0.4940461E-001  0.8347685E+02  0.7546771E-02  0.1319464E+00
         -4   -1    0    0    0  501 -0.00000000000E+00  0.00000000000E+00  0.46244557515E+01  0.46244557515E+01  0.00000000000E+00 0.  1.
          4   -1    0    0  501    0  0.00000000000E+00 -0.00000000000E+00 -0.15071750025E+04  0.15071750025E+04  0.00000000000E+00 0. -1.
         24    1    1    2    0    0  0.11112936311E+02 -0.19433747834E+02 -0.76229114739E+03  0.76684821004E+03  0.80419002446E+02 0. -1.
        -24    1    1    2    0    0 -0.11112936311E+02  0.19433747834E+02 -0.74025939931E+03  0.74495124816E+03  0.80419002446E+02 0.  1.
<mgrwt>
<rscale>  0 0.83476846E+02</rscale>
<asrwt>0</asrwt>
<pdfrwt beam="1">  1        4 0.23187352E+00 0.83476846E+02</pdfrwt>
<pdfrwt beam="2">  1       -4 0.71145337E-03 0.83476846E+02</pdfrwt>
<totfact> 0.69568712E+02</totfact>
</mgrwt>
</event>
<event>
 4    1  0.4940461E-001  0.2178073E+03  0.7546771E-02  0.1135528E+00
          1   -1    0    0  501    0  0.00000000000E+00  0.00000000000E+00  0.37697517661E+03  0.37697517661E+03  0.00000000000E+00 0. -1.
         -1   -1    0    0    0  501 -0.00000000000E+00 -0.00000000000E+00 -0.16109052162E+03  0.16109052162E+03  0.00000000000E+00 0.  1.
         24    1    1    2    0    0 -0.18723284551E+03 -0.76919732606E+02 -0.17900799903E+02  0.21854161685E+03  0.80419002446E+02 0.  1.
        -24    1    1    2    0    0  0.18723284551E+03  0.76919732606E+02  0.23378545490E+03  0.31952408138E+03  0.80419002446E+02 0. -1.
<mgrwt>
<rscale>  0 0.21780725E+03</rscale>
<asrwt>0</asrwt>
<pdfrwt beam="1">  1        1 0.57996181E-01 0.21780725E+03</pdfrwt>
<pdfrwt beam="2">  1       -1 0.24783157E-01 0.21780725E+03</pdfrwt>
<totfact> 0.92507418E+02</totfact>
</mgrwt>
</event>
<event>
 4    1  0.4940461E-001  0.9158024E+02  0.7546771E-02  0.1299069E+00
          1   -1    0    0  501    0  0.00000000000E+00  0.00000000000E+00  0.99772994040E+03  0.99772994040E+03  0.00000000000E+00 0. -1.
         -1   -1    0    0    0  501 -0.00000000000E+00 -0.00000000000E+00 -0.38752912302E+02  0.38752912302E+02  0.00000000000E+00 0.  1.
         24    1    1    2    0    0 -0.30437867281E+02 -0.31516046596E+02  0.20885354124E+02  0.93931565136E+02  0.80419002446E+02 0.  1.
        -24    1    1    2    0    0  0.30437867281E+02  0.31516046596E+02  0.93809167398E+03  0.94255128757E+03  0.80419002446E+02 0. -1.
<mgrwt>
<rscale>  0 0.91580243E+02</rscale>
<asrwt>0</asrwt>
<pdfrwt beam="1">  1        1 0.15349689E+00 0.91580243E+02</pdfrwt>
<pdfrwt beam="2">  1       -1 0.59619873E-02 0.91580243E+02</pdfrwt>
<totfact> 0.21278883E+03</totfact>
</mgrwt>
</event>
<event>
 4    1  0.4940461E-001  0.8357770E+02  0.7546771E-02  0.1319194E+00
         -2   -1    0    0    0  501 -0.00000000000E+00  0.00000000000E+00  0.10714967065E+03  0.10714967065E+03  0.00000000000E+00 0.  1.
          2   -1    0    0  501    0  0.00000000000E+00 -0.00000000000E+00 -0.42421313942E+03  0.42421313942E+03  0.00000000000E+00 0. -1.
         24    1    1    2    0    0 -0.43753397906E+01 -0.22335457726E+02 -0.40294766092E+03  0.41152405721E+03  0.80419002446E+02 0. -1.
        -24    1    1    2    0    0  0.43753397906E+01  0.22335457726E+02  0.85884192147E+02  0.11983875285E+03  0.80419002446E+02 0.  1.
<mgrwt>
<rscale>  0 0.83577702E+02</rscale>
<asrwt>0</asrwt>
<pdfrwt beam="1">  1        2 0.65263560E-01 0.83577702E+02</pdfrwt>
<pdfrwt beam="2">  1       -2 0.16484565E-01 0.83577702E+02</pdfrwt>
<totfact> 0.21008605E+03</totfact>
</mgrwt>
</event>
<event>
 4    1  0.4940461E-001  0.8398496E+02  0.7546771E-02  0.1318109E+00
         -1   -1    0    0    0  501 -0.00000000000E+00  0.00000000000E+00  0.55128676198E+02  0.55128676198E+02  0.00000000000E+00 0.  1.
          1   -1    0    0  501    0  0.00000000000E+00 -0.00000000000E+00 -0.31672078911E+03  0.31672078911E+03  0.00000000000E+00 0. -1.
         24    1    1    2    0    0  0.12001447073E+02 -0.21029080677E+02  0.12743403773E+02  0.84946261013E+02  0.80419002446E+02 0.  1.
        -24    1    1    2    0    0 -0.12001447073E+02  0.21029080677E+02 -0.27433551668E+03  0.28690320429E+03  0.80419002446E+02 0. -1.
<mgrwt>
<rscale>  0 0.83984957E+02</rscale>
<asrwt>0</asrwt>
<pdfrwt beam="1">  1        1 0.48726276E-01 0.83984957E+02</pdfrwt>
<pdfrwt beam="2">  1       -1 0.84813348E-02 0.83984957E+02</pdfrwt>
<totfact> 0.59494651E+03</totfact>
</mgrwt>
</event>
<event>
 4    1  0.4940461E-001  0.8641351E+02  0.7546771E-02  0.1311777E+00
          2   -1    0    0  501    0  0.00000000000E+00  0.00000000000E+00  0.64481114050E+03  0.64481114050E+03  0.00000000000E+00 0. -1.
         -2   -1    0    0    0  501 -0.00000000000E+00 -0.00000000000E+00 -0.13587929160E+02  0.13587929160E+02  0.00000000000E+00 0.  1.
         24    1    1    2    0    0  0.17315707653E+02  0.26462130943E+02  0.44214141434E+03  0.45050674172E+03  0.80419002446E+02 0. -1.
        -24    1    1    2    0    0 -0.17315707653E+02 -0.26462130943E+02  0.18908179700E+03  0.20789232794E+03  0.80419002446E+02 0.  1.
<mgrwt>
<rscale>  0 0.86413506E+02</rscale>
<asrwt>0</asrwt>
<pdfrwt beam="1">  1        2 0.99201690E-01 0.86413506E+02</pdfrwt>
<pdfrwt beam="2">  1       -2 0.20904511E-02 0.86413506E+02</pdfrwt>
<totfact> 0.30065608E+04</totfact>
</mgrwt>
</event>
<event>
 4    1  0.4940461E-001  0.9381796E+02  0.7546771E-02  0.1293861E+00
          1   -1    0    0  501    0  0.00000000000E+00  0.00000000000E+00  0.19975333718E+04  0.19975333718E+04  0.00000000000E+00 0. -1.
         -1   -1    0    0    0  501 -0.00000000000E+00 -0.00000000000E+00 -0.13373379620E+02  0.13373379620E+02  0.00000000000E+00 0.  1.
         24    1    1    2    0    0  0.22178958309E+02 -0.42926536527E+02  0.16876521423E+03  0.19308937624E+03  0.80419002446E+02 0.  1.
        -24    1    1    2    0    0 -0.22178958309E+02  0.42926536527E+02  0.18153947779E+04  0.18178173751E+04  0.80419002446E+02 0. -1.
<mgrwt>
<rscale>  0 0.93817960E+02</rscale>
<asrwt>0</asrwt>
<pdfrwt beam="1">  1        1 0.30731259E+00 0.93817960E+02</pdfrwt>
<pdfrwt beam="2">  1       -1 0.20574446E-02 0.93817960E+02</pdfrwt>
<totfact> 0.22259429E+03</totfact>
</mgrwt>
</event>
<event>
 4    1  0.4940461E-001  0.1216177E+03  0.7546771E-02  0.1240452E+00
         -1   -1    0    0    0  501 -0.00000000000E+00  0.00000000000E+00  0.83336847257E+02  0.83336847257E+02  0.00000000000E+00 0.  1.
          1   -1    0    0  501    0  0.00000000000E+00 -0.00000000000E+00 -0.24021714279E+03  0.24021714279E+03  0.00000000000E+00 0. -1.
         24    1    1    2    0    0  0.85785021833E+02  0.31057519774E+02  0.42335772035E+01  0.12169132523E+03  0.80419002446E+02 0.  1.
        -24    1    1    2    0    0 -0.85785021833E+02 -0.31057519774E+02 -0.16111387274E+03  0.20186266482E+03  0.80419002446E+02 0. -1.
<mgrwt>
<rscale>  0 0.12161766E+03</rscale>
<asrwt>0</asrwt>
<pdfrwt beam="1">  1        1 0.36956483E-01 0.12161766E+03</pdfrwt>
<pdfrwt beam="2">  1       -1 0.12821054E-01 0.12161766E+03</pdfrwt>
<totfact> 0.45685723E+03</totfact>
</mgrwt>
</event>
<event>
 4    1  0.4940461E-001  0.8078138E+02  0.7546771E-02  0.1326849E+00
          1   -1    0    0  501    0  0.00000000000E+00  0.00000000000E+00  0.15510282600E+03  0.15510282600E+03  0.00000000000E+00 0. -1.
         -1   -1    0    0    0  501 -0.00000000000E+00 -0.00000000000E+00 -0.42269700537E+02  0.42269700537E+02  0.00000000000E+00 0.  1.
         24    1    1    2    0    0 -0.59552876585E+01  0.47905499201E+01  0.49683400578E+02  0.94837076436E+02  0.80419002446E+02 0.  0.
        -24    1    1    2    0    0  0.59552876585E+01 -0.47905499201E+01  0.63149724881E+02  0.10253545010E+03  0.80419002446E+02 0.  1.
<mgrwt>
<rscale>  0 0.80781376E+02</rscale>
<asrwt>0</asrwt>
<pdfrwt beam="1">  1        1 0.23861973E-01 0.80781376E+02</pdfrwt>
<pdfrwt beam="2">  1       -1 0.65030309E-02 0.80781376E+02</pdfrwt>
<totfact> 0.21029470E+04</totfact>
</mgrwt>
</event>
<event>
 4    1  0.4940461E-001  0.8080502E+02  0.7546771E-02  0.1326782E+00
          1   -1    0    0  501    0  0.00000000000E+00  0.00000000000E+00  0.35403840602E+04  0.35403840602E+04  0.00000000000E+00 0. -1.
         -1   -1    0    0    0  501 -0.00000000000E+00 -0.00000000000E+00 -0.18573421898E+01  0.18573421898E+01  0.00000000000E+00 0.  1.
         24    1    1    2    0    0  0.44051407947E+01  0.65445247667E+01  0.16207226948E+04  0.16227358089E+04  0.80419002446E+02 0.  1.
        -24    1    1    2    0    0 -0.44051407947E+01 -0.65445247667E+01  0.19178040232E+04  0.19195055935E+04  0.80419002446E+02 0. -1.
<mgrwt>
<rscale>  0 0.80805025E+02</rscale>
<asrwt>0</asrwt>
<pdfrwt beam="1">  1        1 0.54466907E+00 0.80805025E+02</pdfrwt>
<pdfrwt beam="2">  1       -1 0.28574779E-03 0.80805025E+02</pdfrwt>
<totfact> 0.33297273E+03</totfact>
</mgrwt>
</event>
<event>
 4    1  0.4940461E-001  0.8241789E+02  0.7546771E-02  0.1322327E+00
          1   -1    0    0  501    0  0.00000000000E+00  0.00000000000E+00  0.62093574428E+03  0.62093574428E+03  0.00000000000E+00 0. -1.
         -1   -1    0    0    0  501 -0.00000000000E+00 -0.00000000000E+00 -0.28301766130E+02  0.28301766130E+02  0.00000000000E+00 0.  1.
         24    1    1    2    0    0  0.43086378611E+01 -0.17519390614E+02  0.42061469192E+02  0.92530408800E+02  0.80419002446E+02 0.  1.
        -24    1    1    2    0    0 -0.43086378611E+01  0.17519390614E+02  0.55057250896E+03  0.55670710161E+03  0.80419002446E+02 0. -1.
<mgrwt>
<rscale>  0 0.82417895E+02</rscale>
<asrwt>0</asrwt>
<pdfrwt beam="1">  1        1 0.95528566E-01 0.82417895E+02</pdfrwt>
<pdfrwt beam="2">  1       -1 0.43541183E-02 0.82417895E+02</pdfrwt>
<totfact> 0.67644859E+03</totfact>
</mgrwt>
</event>
<event>
 4    1  0.4940461E-001  0.8849373E+02  0.7546771E-02  0.1306541E+00
         -2   -1    0    0    0  501 -0.00000000000E+00  0.00000000000E+00  0.18210133067E+02  0.18210133067E+02  0.00000000000E+00 0.  1.
          2   -1    0    0  501    0  0.00000000000E+00 -0.00000000000E+00 -0.46472297204E+03  0.46472297204E+03  0.00000000000E+00 0. -1.
         24    1    1    2    0    0 -0.31619394119E+02 -0.19082389471E+02 -0.28921928237E+03  0.30245484444E+03  0.80419002446E+02 0. -1.
        -24    1    1    2    0    0  0.31619394119E+02  0.19082389471E+02 -0.15729355660E+03  0.18047826067E+03  0.80419002446E+02 0.  1.
<mgrwt>
<rscale>  0 0.88493726E+02</rscale>
<asrwt>0</asrwt>
<pdfrwt beam="1">  1        2 0.71495826E-01 0.88493726E+02</pdfrwt>
<pdfrwt beam="2">  1       -2 0.28015596E-02 0.88493726E+02</pdfrwt>
<totfact> 0.28311087E+04</totfact>
</mgrwt>
</event>
<event>
 4    1  0.4940461E-001  0.8251587E+02  0.7546771E-02  0.1322060E+00
         -3   -1    0    0    0  501 -0.00000000000E+00  0.00000000000E+00  0.11707821009E+02  0.11707821009E+02  0.00000000000E+00 0.  1.
          3   -1    0    0  501    0  0.00000000000E+00 -0.00000000000E+00 -0.74031747709E+03  0.74031747709E+03  0.00000000000E+00 0. -1.
         24    1    1    2    0    0 -0.38707897507E+01  0.18073999935E+02 -0.19018324889E+03  0.20731265422E+03  0.80419002446E+02 0.  1.
        -24    1    1    2    0    0  0.38707897507E+01 -0.18073999935E+02 -0.53842640719E+03  0.54471264388E+03  0.80419002446E+02 0. -1.
<mgrwt>
<rscale>  0 0.82515868E+02</rscale>
<asrwt>0</asrwt>
<pdfrwt beam="1">  1        3 0.11389502E+00 0.82515868E+02</pdfrwt>
<pdfrwt beam="2">  1       -3 0.18012028E-02 0.82515868E+02</pdfrwt>
<totfact> 0.15738919E+03</totfact>
</mgrwt>
</event>
<event>
 4    1  0.4940461E-001  0.9211240E+02  0.7546771E-02  0.1297815E+00
         -2   -1    0    0    0  501 -0.00000000000E+00  0.00000000000E+00  0.14004486692E+02  0.14004486692E+02  0.00000000000E+00 0.  1.
          2   -1    0    0  501    0  0.00000000000E+00 -0.00000000000E+00 -0.86372551305E+03  0.86372551305E+03  0.00000000000E+00 0. -1.
         24    1    1    2    0    0  0.35578951709E+02 -0.27415633629E+02 -0.66465739272E+03  0.67100979458E+03  0.80419002446E+02 0. -1.
        -24    1    1    2    0    0 -0.35578951709E+02  0.27415633629E+02 -0.18506363364E+03  0.20672020516E+03  0.80419002446E+02 0.  1.
<mgrwt>
<rscale>  0 0.92112403E+02</rscale>
<asrwt>0</asrwt>
<pdfrwt beam="1">  1        2 0.13288089E+00 0.92112403E+02</pdfrwt>
<pdfrwt beam="2">  1       -2 0.21545357E-02 0.92112403E+02</pdfrwt>
<totfact> 0.20441687E+04</totfact>
</mgrwt>
</event>
<event>
 4    1  0.4940461E-001  0.1127948E+03  0.7546771E-02  0.1255480E+00
          1   -1    0    0  501    0  0.00000000000E+00  0.00000000000E+00  0.93983193885E+03  0.93983193885E+03  0.00000000000E+00 0. -1.
         -1   -1    0    0    0  501 -0.00000000000E+00 -0.00000000000E+00 -0.84801501661E+02  0.84801501661E+02  0.00000000000E+00 0.  1.
         24    1    1    2    0    0  0.78350534929E+02  0.10800283330E+02 -0.42133189889E+02  0.12040711810E+03  0.80419002446E+02 0.  1.
        -24    1    1    2    0    0 -0.78350534929E+02 -0.10800283330E+02  0.89716362708E+03  0.90422632242E+03  0.80419002446E+02 0. -1.
<mgrwt>
<rscale>  0 0.11279481E+03</rscale>
<asrwt>0</asrwt>
<pdfrwt beam="1">  1        1 0.14458952E+00 0.11279481E+03</pdfrwt>
<pdfrwt beam="2">  1       -1 0.13046386E-01 0.11279481E+03</pdfrwt>
<totfact> 0.72293144E+02</totfact>
</mgrwt>
</event>
<event>
 4    1  0.4940461E-001  0.8370736E+02  0.7546771E-02  0.1318848E+00
         -2   -1    0    0    0  501 -0.00000000000E+00  0.00000000000E+00  0.13609890619E+02  0.13609890619E+02  0.00000000000E+00 0.  1.
          2   -1    0    0  501    0  0.00000000000E+00 -0.00000000000E+00 -0.14746957010E+04  0.14746957010E+04  0.00000000000E+00 0. -1.
         24    1    1    2    0    0  0.20086062314E+02  0.11672892831E+02 -0.13309057158E+04  0.13335355063E+04  0.80419002446E+02 0. -1.
        -24    1    1    2    0    0 -0.20086062314E+02 -0.11672892831E+02 -0.13018009466E+03  0.15477008538E+03  0.80419002446E+02 0.  1.
<mgrwt>
<rscale>  0 0.83707361E+02</rscale>
<asrwt>0</asrwt>
<pdfrwt beam="1">  1        2 0.22687624E+00 0.83707361E+02</pdfrwt>
<pdfrwt beam="2">  1       -2 0.20938295E-02 0.83707361E+02</pdfrwt>
<totfact> 0.96853376E+03</totfact>
</mgrwt>
</event>
<event>
 4    1  0.4940461E-001  0.8538742E+02  0.7546771E-02  0.1314423E+00
         -3   -1    0    0    0  501 -0.00000000000E+00  0.00000000000E+00  0.58799182571E+03  0.58799182571E+03  0.00000000000E+00 0.  1.
          3   -1    0    0  501    0  0.00000000000E+00 -0.00000000000E+00 -0.13791344030E+02  0.13791344030E+02  0.00000000000E+00 0. -1.
         24    1    1    2    0    0  0.18900688196E+02  0.21599914379E+02  0.19152442905E+03  0.20969648350E+03  0.80419002446E+02 0.  0.
        -24    1    1    2    0    0 -0.18900688196E+02 -0.21599914379E+02  0.38267605263E+03  0.39208668624E+03  0.80419002446E+02 0.  0.
<mgrwt>
<rscale>  0 0.85387412E+02</rscale>
<asrwt>0</asrwt>
<pdfrwt beam="1">  1        3 0.21217457E-02 0.85387422E+02</pdfrwt>
<pdfrwt beam="2">  1       -3 0.90460261E-01 0.85387422E+02</pdfrwt>
<totfact> 0.20752025E+03</totfact>
</mgrwt>
</event>
<event>
 4    1  0.4940461E-001  0.8712104E+02  0.7546771E-02  0.1309977E+00
         -2   -1    0    0    0  501 -0.00000000000E+00  0.00000000000E+00  0.94212802127E+02  0.94212802127E+02  0.00000000000E+00 0.  1.
          2   -1    0    0  501    0  0.00000000000E+00 -0.00000000000E+00 -0.39412742688E+03  0.39412742688E+03  0.00000000000E+00 0. -1.
         24    1    1    2    0    0  0.24773561135E+02 -0.22563898203E+02 -0.36774709763E+03  0.37792592211E+03  0.80419002446E+02 0. -1.
        -24    1    1    2    0    0 -0.24773561135E+02  0.22563898203E+02  0.67832472886E+02  0.11041430689E+03  0.80419002446E+02 0.  1.
<mgrwt>
<rscale>  0 0.87121035E+02</rscale>
<asrwt>0</asrwt>
<pdfrwt beam="1">  1        2 0.60634990E-01 0.87121035E+02</pdfrwt>
<pdfrwt beam="2">  1       -2 0.14494277E-01 0.87121035E+02</pdfrwt>
<totfact> 0.28016985E+03</totfact>
</mgrwt>
</event>
<event>
 4    1  0.4940461E-001  0.8698374E+02  0.7546771E-02  0.1310325E+00
         -3   -1    0    0    0  501 -0.00000000000E+00  0.00000000000E+00  0.28527038597E+02  0.28527038597E+02  0.00000000000E+00 0.  1.
          3   -1    0    0  501    0  0.00000000000E+00 -0.00000000000E+00 -0.26648047202E+03  0.26648047202E+03  0.00000000000E+00 0. -1.
         24    1    1    2    0    0 -0.12146274133E+02 -0.30845076121E+02 -0.12908950851E+03  0.15566074604E+03  0.80419002446E+02 0.  0.
        -24    1    1    2    0    0  0.12146274133E+02  0.30845076121E+02 -0.10886392491E+03  0.13934676458E+03  0.80419002446E+02 0. -1.
<mgrwt>
<rscale>  0 0.86983726E+02</rscale>
<asrwt>0</asrwt>
<pdfrwt beam="1">  1        3 0.40996996E-01 0.86983737E+02</pdfrwt>
<pdfrwt beam="2">  1       -3 0.43887751E-02 0.86983737E+02</pdfrwt>
<totfact> 0.34620154E+03</totfact>
</mgrwt>
</event>
<event>
 4    1  0.4940461E-001  0.8146583E+02  0.7546771E-02  0.1324942E+00
          2   -1    0    0  501    0  0.00000000000E+00  0.00000000000E+00  0.21143701882E+04  0.21143701882E+04  0.00000000000E+00 0. -1.
         -2   -1    0    0    0  501 -0.00000000000E+00 -0.00000000000E+00 -0.31795734188E+01  0.31795734188E+01  0.00000000000E+00 0.  1.
         24    1    1    2    0    0 -0.57845831175E+01  0.11662067130E+02  0.11754253670E+04  0.11782450826E+04  0.80419002446E+02 0. -1.
        -24    1    1    2    0    0  0.57845831175E+01 -0.11662067130E+02  0.93576524779E+03  0.93930467908E+03  0.80419002446E+02 0.  1.
<mgrwt>
<rscale>  0 0.81465828E+02</rscale>
<asrwt>0</asrwt>
<pdfrwt beam="1">  1        2 0.32528660E+00 0.81465828E+02</pdfrwt>
<pdfrwt beam="2">  1       -2 0.48916683E-03 0.81465828E+02</pdfrwt>
<totfact> 0.36050153E+04</totfact>
</mgrwt>
</event>
<event>
 4    1  0.4940461E-001  0.1366311E+03  0.7546771E-02  0.1217935E+00
         -2   -1    0    0    0  501 -0.00000000000E+00  0.00000000000E+00  0.70315970540E+03  0.70315970540E+03  0.00000000000E+00 0.  1.
          2   -1    0    0  501    0  0.00000000000E+00 -0.00000000000E+00 -0.46382012709E+02  0.46382012709E+02  0.00000000000E+00 0. -1.
         24    1    1    2    0    0 -0.79774415613E+02  0.76399539148E+02  0.83320457109E+02  0.16003237640E+03  0.80419002446E+02 0. -1.
        -24    1    1    2    0    0  0.79774415613E+02 -0.76399539148E+02  0.57345723558E+03  0.58950934171E+03  0.80419002446E+02 0.  1.
<mgrwt>
<rscale>  0 0.13663112E+03</rscale>
<asrwt>0</asrwt>
<pdfrwt beam="1">  1        2 0.71356948E-02 0.13663112E+03</pdfrwt>
<pdfrwt beam="2">  1       -2 0.10817841E+00 0.13663112E+03</pdfrwt>
<totfact> 0.68696896E+02</totfact>
</mgrwt>
</event>
<event>
 4    1  0.4940461E-001  0.1191699E+03  0.7546771E-02  0.1244473E+00
         -2   -1    0    0    0  501 -0.00000000000E+00  0.00000000000E+00  0.20079210452E+03  0.20079210452E+03  0.00000000000E+00 0.  1.
          2   -1    0    0  501    0  0.00000000000E+00 -0.00000000000E+00 -0.96110143650E+02  0.96110143650E+02  0.00000000000E+00 0. -1.
         24    1    1    2    0    0  0.87756845912E+02 -0.57427331892E+01 -0.23949448591E+02  0.12155260191E+03  0.80419002446E+02 0. -1.
        -24    1    1    2    0    0 -0.87756845912E+02  0.57427331892E+01  0.12863140946E+03  0.17534964626E+03  0.80419002446E+02 0.  1.
<mgrwt>
<rscale>  0 0.11916987E+03</rscale>
<asrwt>0</asrwt>
<pdfrwt beam="1">  1        2 0.14786176E-01 0.11916987E+03</pdfrwt>
<pdfrwt beam="2">  1       -2 0.30891093E-01 0.11916987E+03</pdfrwt>
<totfact> 0.36524283E+03</totfact>
</mgrwt>
</event>
<event>
 4    1  0.4940461E-001  0.1096534E+03  0.7546771E-02  0.1261213E+00
         -1   -1    0    0    0  501 -0.00000000000E+00  0.00000000000E+00  0.67106568197E+02  0.67106568197E+02  0.00000000000E+00 0.  1.
          1   -1    0    0  501    0  0.00000000000E+00 -0.00000000000E+00 -0.89932969235E+03  0.89932969235E+03  0.00000000000E+00 0. -1.
         24    1    1    2    0    0  0.13226015547E+02  0.73360177687E+02  0.16299178887E+02  0.11085811808E+03  0.80419002446E+02 0.  1.
        -24    1    1    2    0    0 -0.13226015547E+02 -0.73360177687E+02 -0.84852230304E+03  0.85557814247E+03  0.80419002446E+02 0. -1.
<mgrwt>
<rscale>  0 0.10965336E+03</rscale>
<asrwt>0</asrwt>
<pdfrwt beam="1">  1        1 0.13835842E+00 0.10965336E+03</pdfrwt>
<pdfrwt beam="2">  1       -1 0.10324087E-01 0.10965336E+03</pdfrwt>
<totfact> 0.11100756E+03</totfact>
</mgrwt>
</event>
<event>
 4    1  0.4940461E-001  0.2061043E+03  0.7546771E-02  0.1144689E+00
         -1   -1    0    0    0  501 -0.00000000000E+00  0.00000000000E+00  0.61306473496E+02  0.61306473496E+02  0.00000000000E+00 0.  1.
          1   -1    0    0  501    0  0.00000000000E+00 -0.00000000000E+00 -0.96652785140E+03  0.96652785140E+03  0.00000000000E+00 0. -1.
         24    1    1    2    0    0  0.10592039246E+03 -0.15745678470E+03 -0.17916593732E+03  0.27309232438E+03  0.80419002446E+02 0. -1.
        -24    1    1    2    0    0 -0.10592039246E+03  0.15745678470E+03 -0.72605544059E+03  0.75474200052E+03  0.80419002446E+02 0.  1.
<mgrwt>
<rscale>  0 0.20610431E+03</rscale>
<asrwt>0</asrwt>
<pdfrwt beam="1">  1        1 0.14869659E+00 0.20610431E+03</pdfrwt>
<pdfrwt beam="2">  1       -1 0.94317655E-02 0.20610431E+03</pdfrwt>
<totfact> 0.11344196E+03</totfact>
</mgrwt>
</event>
<event>
 4    1  0.4940461E-001  0.1165023E+03  0.7546771E-02  0.1248981E+00
          1   -1    0    0  501    0  0.00000000000E+00  0.00000000000E+00  0.23255794282E+04  0.23255794282E+04  0.00000000000E+00 0. -1.
         -1   -1    0    0    0  501 -0.00000000000E+00 -0.00000000000E+00 -0.58445303106E+01  0.58445303106E+01  0.00000000000E+00 0.  1.
         24    1    1    2    0    0 -0.43162665675E+02  0.72405552654E+02  0.11161416981E+04  0.11222054562E+04  0.80419002446E+02 0.  1.
        -24    1    1    2    0    0  0.43162665675E+02 -0.72405552654E+02  0.12035931998E+04  0.12092185023E+04  0.80419002446E+02 0.  0.
<mgrwt>
<rscale>  0 0.11650234E+03</rscale>
<asrwt>0</asrwt>
<pdfrwt beam="1">  1        1 0.35778071E+00 0.11650234E+03</pdfrwt>
<pdfrwt beam="2">  1       -1 0.89916037E-03 0.11650234E+03</pdfrwt>
<totfact> 0.44926712E+03</totfact>
</mgrwt>
</event>
<event>
 4    1  0.4940461E-001  0.8868554E+02  0.7546771E-02  0.1306066E+00
         -1   -1    0    0    0  501 -0.00000000000E+00  0.00000000000E+00  0.53214785024E+01  0.53214785024E+01  0.00000000000E+00 0.  1.
          1   -1    0    0  501    0  0.00000000000E+00 -0.00000000000E+00 -0.20587532514E+04  0.20587532514E+04  0.00000000000E+00 0. -1.
         24    1    1    2    0    0  0.71477482475E+01 -0.36699038320E+02 -0.47857717939E+03  0.48672501713E+03  0.80419002446E+02 0.  1.
        -24    1    1    2    0    0 -0.71477482475E+01  0.36699038320E+02 -0.15748545935E+04  0.15773497128E+04  0.80419002446E+02 0. -1.
<mgrwt>
<rscale>  0 0.88685544E+02</rscale>
<asrwt>0</asrwt>
<pdfrwt beam="1">  1        1 0.31673178E+00 0.88685544E+02</pdfrwt>
<pdfrwt beam="2">  1       -1 0.81868768E-03 0.88685544E+02</pdfrwt>
<totfact> 0.75057135E+03</totfact>
</mgrwt>
</event>
<event>
 4    1  0.4940461E-001  0.8356474E+02  0.7546771E-02  0.1319229E+00
         -2   -1    0    0    0  501 -0.00000000000E+00  0.00000000000E+00  0.59744026278E+02  0.59744026278E+02  0.00000000000E+00 0.  1.
          2   -1    0    0  501    0  0.00000000000E+00 -0.00000000000E+00 -0.67768760371E+03  0.67768760371E+03  0.00000000000E+00 0. -1.
         24    1    1    2    0    0  0.17741058934E+02 -0.14181165262E+02 -0.64438699218E+03  0.64978278084E+03  0.80419002446E+02 0.  0.
        -24    1    1    2    0    0 -0.17741058934E+02  0.14181165262E+02  0.26443414749E+02  0.87648849155E+02  0.80419002446E+02 0.  1.
<mgrwt>
<rscale>  0 0.83564745E+02</rscale>
<asrwt>0</asrwt>
<pdfrwt beam="1">  1        2 0.10425964E+00 0.83564745E+02</pdfrwt>
<pdfrwt beam="2">  1       -2 0.91913878E-02 0.83564745E+02</pdfrwt>
<totfact> 0.31726925E+03</totfact>
</mgrwt>
</event>
<event>
 4    1  0.4940461E-001  0.1146069E+03  0.7546771E-02  0.1252269E+00
         -1   -1    0    0    0  501 -0.00000000000E+00  0.00000000000E+00  0.16379926849E+03  0.16379926849E+03  0.00000000000E+00 0.  1.
          1   -1    0    0  501    0  0.00000000000E+00 -0.00000000000E+00 -0.10670376605E+03  0.10670376605E+03  0.00000000000E+00 0. -1.
         24    1    1    2    0    0  0.50014422032E+02  0.64545193620E+02  0.95970138982E+02  0.14948246707E+03  0.80419002446E+02 0.  1.
        -24    1    1    2    0    0 -0.50014422032E+02 -0.64545193620E+02 -0.38874636542E+02  0.12102056747E+03  0.80419002446E+02 0. -1.
<mgrwt>
<rscale>  0 0.11460690E+03</rscale>
<asrwt>0</asrwt>
<pdfrwt beam="1">  1        1 0.16415964E-01 0.11460690E+03</pdfrwt>
<pdfrwt beam="2">  1       -1 0.25199887E-01 0.11460690E+03</pdfrwt>
<totfact> 0.43052454E+03</totfact>
</mgrwt>
</event>
<event>
 4    1  0.4940461E-001  0.9443189E+02  0.7546771E-02  0.1292461E+00
          2   -1    0    0  501    0  0.00000000000E+00  0.00000000000E+00  0.43740658868E+03  0.43740658868E+03  0.00000000000E+00 0. -1.
         -2   -1    0    0    0  501 -0.00000000000E+00 -0.00000000000E+00 -0.20736671073E+02  0.20736671073E+02  0.00000000000E+00 0.  1.
         24    1    1    2    0    0 -0.36333356752E+02 -0.33616200910E+02  0.17858579351E+03  0.20201550280E+03  0.80419002446E+02 0.  0.
        -24    1    1    2    0    0  0.36333356752E+02  0.33616200910E+02  0.23808412410E+03  0.25612775695E+03  0.80419002446E+02 0.  1.
<mgrwt>
<rscale>  0 0.94431880E+02</rscale>
<asrwt>0</asrwt>
<pdfrwt beam="1">  1        2 0.67293314E-01 0.94431892E+02</pdfrwt>
<pdfrwt beam="2">  1       -2 0.31902574E-02 0.94431892E+02</pdfrwt>
<totfact> 0.25176687E+04</totfact>
</mgrwt>
</event>
<event>
 4    1  0.4940461E-001  0.1061332E+03  0.7546771E-02  0.1267903E+00
         -1   -1    0    0    0  501 -0.00000000000E+00  0.00000000000E+00  0.14884236283E+02  0.14884236283E+02  0.00000000000E+00 0.  1.
          1   -1    0    0  501    0  0.00000000000E+00 -0.00000000000E+00 -0.16934575243E+04  0.16934575243E+04  0.00000000000E+00 0. -1.
         24    1    1    2    0    0 -0.32143681407E+02 -0.61349993232E+02 -0.20402864646E+03  0.22998248293E+03  0.80419002446E+02 0.  1.
        -24    1    1    2    0    0  0.32143681407E+02  0.61349993232E+02 -0.14745446416E+04  0.14783592777E+04  0.80419002446E+02 0. -1.
<mgrwt>
<rscale>  0 0.10613319E+03</rscale>
<asrwt>0</asrwt>
<pdfrwt beam="1">  1        1 0.26053185E+00 0.10613319E+03</pdfrwt>
<pdfrwt beam="2">  1       -1 0.22898832E-02 0.10613319E+03</pdfrwt>
<totfact> 0.29705838E+03</totfact>
</mgrwt>
</event>
<event>
 4    1  0.4940461E-001  0.9653685E+02  0.7546771E-02  0.1287752E+00
         -2   -1    0    0    0  501 -0.00000000000E+00  0.00000000000E+00  0.39791063082E+02  0.39791063082E+02  0.00000000000E+00 0.  1.
          2   -1    0    0  501    0  0.00000000000E+00 -0.00000000000E+00 -0.23890777685E+03  0.23890777685E+03  0.00000000000E+00 0. -1.
         24    1    1    2    0    0  0.50140145827E+02  0.18387866008E+02 -0.11910416421E+03  0.15331394499E+03  0.80419002446E+02 0.  1.
        -24    1    1    2    0    0 -0.50140145827E+02 -0.18387866008E+02 -0.80012549553E+02  0.12538489494E+03  0.80419002446E+02 0. -1.
<mgrwt>
<rscale>  0 0.96536852E+02</rscale>
<asrwt>0</asrwt>
<pdfrwt beam="1">  1        2 0.36755044E-01 0.96536852E+02</pdfrwt>
<pdfrwt beam="2">  1       -2 0.61217018E-02 0.96536852E+02</pdfrwt>
<totfact> 0.18162541E+04</totfact>
</mgrwt>
</event>
<event>
 4    1  0.4940461E-001  0.1445965E+03  0.7546771E-02  0.1207275E+00
         -2   -1    0    0    0  501 -0.00000000000E+00  0.00000000000E+00  0.19116513365E+02  0.19116513365E+02  0.00000000000E+00 0.  1.
          2   -1    0    0  501    0  0.00000000000E+00 -0.00000000000E+00 -0.11000511054E+04  0.11000511054E+04  0.00000000000E+00 0. -1.
         24    1    1    2    0    0 -0.11942215529E+03 -0.13388838747E+02 -0.49801791837E+03  0.51858458823E+03  0.80419002446E+02 0.  1.
        -24    1    1    2    0    0  0.11942215529E+03  0.13388838747E+02 -0.58291667371E+03  0.60058303058E+03  0.80419002446E+02 0. -1.
<mgrwt>
<rscale>  0 0.14459645E+03</rscale>
<asrwt>0</asrwt>
<pdfrwt beam="1">  1        2 0.16923869E+00 0.14459647E+03</pdfrwt>
<pdfrwt beam="2">  1       -2 0.29410010E-02 0.14459647E+03</pdfrwt>
<totfact> 0.96719922E+03</totfact>
</mgrwt>
</event>
<event>
 4    1  0.4940461E-001  0.8596867E+02  0.7546771E-02  0.1312919E+00
         -2   -1    0    0    0  501 -0.00000000000E+00  0.00000000000E+00  0.90247714834E+01  0.90247714834E+01  0.00000000000E+00 0.  1.
          2   -1    0    0  501    0  0.00000000000E+00 -0.00000000000E+00 -0.24382414222E+04  0.24382414222E+04  0.00000000000E+00 0. -1.
         24    1    1    2    0    0 -0.28822013530E+02 -0.96274079310E+01 -0.22118001670E+04  0.22134702596E+04  0.80419002446E+02 0. -1.
        -24    1    1    2    0    0  0.28822013530E+02  0.96274079310E+01 -0.21741648373E+03  0.23379593410E+03  0.80419002446E+02 0.  1.
<mgrwt>
<rscale>  0 0.85968665E+02</rscale>
<asrwt>0</asrwt>
<pdfrwt beam="1">  1        2 0.37511408E+00 0.85968665E+02</pdfrwt>
<pdfrwt beam="2">  1       -2 0.13884263E-02 0.85968665E+02</pdfrwt>
<totfact> 0.56833075E+03</totfact>
</mgrwt>
</event>
<event>
 4    1  0.4940461E-001  0.9104938E+02  0.7546771E-02  0.1300330E+00
          1   -1    0    0  501    0  0.00000000000E+00  0.00000000000E+00  0.25323521540E+02  0.25323521540E+02  0.00000000000E+00 0. -1.
         -1   -1    0    0    0  501 -0.00000000000E+00 -0.00000000000E+00 -0.32736675082E+03  0.32736675082E+03  0.00000000000E+00 0.  1.
         24    1    1    2    0    0 -0.41904377191E+02 -0.81726461338E+01 -0.15042768158E+03  0.17583649312E+03  0.80419002446E+02 0.  0.
        -24    1    1    2    0    0  0.41904377191E+02  0.81726461338E+01 -0.15161554769E+03  0.17685377924E+03  0.80419002446E+02 0. -1.
<mgrwt>
<rscale>  0 0.91049366E+02</rscale>
<asrwt>0</asrwt>
<pdfrwt beam="1">  1        1 0.38959269E-02 0.91049377E+02</pdfrwt>
<pdfrwt beam="2">  1       -1 0.50364109E-01 0.91049377E+02</pdfrwt>
<totfact> 0.86999137E+03</totfact>
</mgrwt>
</event>
<event>
 4    1  0.4940461E-001  0.8113320E+02  0.7546771E-02  0.1325866E+00
         -2   -1    0    0    0  501 -0.00000000000E+00  0.00000000000E+00  0.12899368721E+02  0.12899368721E+02  0.00000000000E+00 0.  1.
          2   -1    0    0  501    0  0.00000000000E+00 -0.00000000000E+00 -0.59887541441E+03  0.59887541441E+03  0.00000000000E+00 0. -1.
         24    1    1    2    0    0  0.65179880958E+01 -0.85379435438E+01 -0.41062413590E+03  0.41856275227E+03  0.80419002446E+02 0. -1.
        -24    1    1    2    0    0 -0.65179880958E+01  0.85379435438E+01 -0.17535190979E+03  0.19321203086E+03  0.80419002446E+02 0.  0.
<mgrwt>
<rscale>  0 0.81133203E+02</rscale>
<asrwt>0</asrwt>
<pdfrwt beam="1">  1        2 0.92134656E-01 0.81133203E+02</pdfrwt>
<pdfrwt beam="2">  1       -2 0.19845188E-02 0.81133203E+02</pdfrwt>
<totfact> 0.34951511E+04</totfact>
</mgrwt>
</event>
<event>
 4    1  0.4940461E-001  0.1180155E+03  0.7546771E-02  0.1246407E+00
         -3   -1    0    0    0  501 -0.00000000000E+00  0.00000000000E+00  0.12163543259E+03  0.12163543259E+03  0.00000000000E+00 0.  1.
          3   -1    0    0  501    0  0.00000000000E+00 -0.00000000000E+00 -0.14559408125E+03  0.14559408125E+03  0.00000000000E+00 0. -1.
         24    1    1    2    0    0  0.27951448029E+02  0.81726147032E+02  0.49765157314E+02  0.12807901230E+03  0.80419002446E+02 0.  1.
        -24    1    1    2    0    0 -0.27951448029E+02 -0.81726147032E+02 -0.73723805980E+02  0.13915050154E+03  0.80419002446E+02 0. -1.
<mgrwt>
<rscale>  0 0.11801552E+03</rscale>
<asrwt>0</asrwt>
<pdfrwt beam="1">  1        3 0.22399089E-01 0.11801552E+03</pdfrwt>
<pdfrwt beam="2">  1       -3 0.18713143E-01 0.11801552E+03</pdfrwt>
<totfact> 0.10421781E+03</totfact>
</mgrwt>
</event>
<event>
 4    1  0.4940461E-001  0.8106217E+02  0.7546771E-02  0.1326064E+00
         -2   -1    0    0    0  501 -0.00000000000E+00  0.00000000000E+00  0.11786074935E+02  0.11786074935E+02  0.00000000000E+00 0.  1.
          2   -1    0    0  501    0  0.00000000000E+00 -0.00000000000E+00 -0.57421992403E+03  0.57421992403E+03  0.00000000000E+00 0. -1.
         24    1    1    2    0    0 -0.95968095661E+01  0.34293467695E+01 -0.33117169072E+03  0.34094833020E+03  0.80419002446E+02 0. -1.
        -24    1    1    2    0    0  0.95968095661E+01 -0.34293467695E+01 -0.23126215837E+03  0.24505766877E+03  0.80419002446E+02 0.  0.
<mgrwt>
<rscale>  0 0.81062168E+02</rscale>
<asrwt>0</asrwt>
<pdfrwt beam="1">  1        2 0.88341505E-01 0.81062168E+02</pdfrwt>
<pdfrwt beam="2">  1       -2 0.18132427E-02 0.81062168E+02</pdfrwt>
<totfact> 0.41656655E+04</totfact>
</mgrwt>
</event>
<event>
 4    1  0.4940461E-001  0.8222331E+02  0.7546771E-02  0.1322858E+00
          1   -1    0    0  501    0  0.00000000000E+00  0.00000000000E+00  0.54218721057E+03  0.54218721057E+03  0.00000000000E+00 0. -1.
         -1   -1    0    0    0  501 -0.00000000000E+00 -0.00000000000E+00 -0.63102914963E+02  0.63102914963E+02  0.00000000000E+00 0.  1.
         24    1    1    2    0    0 -0.14503007828E+02 -0.91170297266E+01 -0.31557229864E+02  0.88071176773E+02  0.80419002446E+02 0.  0.
        -24    1    1    2    0    0  0.14503007828E+02  0.91170297266E+01  0.51064152547E+03  0.51721894876E+03  0.80419002446E+02 0. -1.
<mgrwt>
<rscale>  0 0.82223314E+02</rscale>
<asrwt>0</asrwt>
<pdfrwt beam="1">  1        1 0.83413414E-01 0.82223314E+02</pdfrwt>
<pdfrwt beam="2">  1       -1 0.97081411E-02 0.82223314E+02</pdfrwt>
<totfact> 0.24793804E+03</totfact>
</mgrwt>
</event>
<event>
 4    1  0.4940461E-001  0.9495818E+02  0.7546771E-02  0.1291270E+00
          2   -1    0    0  501    0  0.00000000000E+00  0.00000000000E+00  0.21043383032E+04  0.21043383032E+04  0.00000000000E+00 0. -1.
         -2   -1    0    0    0  501 -0.00000000000E+00 -0.00000000000E+00 -0.49965312613E+01  0.49965312613E+01  0.00000000000E+00 0.  1.
         24    1    1    2    0    0 -0.33268967790E+02  0.37987058358E+02  0.14476708036E+04  0.14507817935E+04  0.80419002446E+02 0. -1.
        -24    1    1    2    0    0  0.33268967790E+02 -0.37987058358E+02  0.65167096834E+03  0.65855304095E+03  0.80419002446E+02 0.  1.
<mgrwt>
<rscale>  0 0.94958184E+02</rscale>
<asrwt>0</asrwt>
<pdfrwt beam="1">  1        2 0.32374365E+00 0.94958184E+02</pdfrwt>
<pdfrwt beam="2">  1       -2 0.76869880E-03 0.94958184E+02</pdfrwt>
<totfact> 0.19533768E+04</totfact>
</mgrwt>
</event>
<event>
 4    1  0.4940461E-001  0.1187519E+03  0.7546771E-02  0.1245170E+00
         -2   -1    0    0    0  501 -0.00000000000E+00  0.00000000000E+00  0.64905553557E+03  0.64905553557E+03  0.00000000000E+00 0.  1.
          2   -1    0    0  501    0  0.00000000000E+00 -0.00000000000E+00 -0.26701978983E+02  0.26701978983E+02  0.00000000000E+00 0. -1.
         24    1    1    2    0    0 -0.51719275368E+02 -0.70426706061E+02  0.16533383725E+03  0.20356153386E+03  0.80419002446E+02 0.  0.
        -24    1    1    2    0    0  0.51719275368E+02  0.70426706061E+02  0.45701971934E+03  0.47219598070E+03  0.80419002446E+02 0.  1.
<mgrwt>
<rscale>  0 0.11875193E+03</rscale>
<asrwt>0</asrwt>
<pdfrwt beam="1">  1        2 0.41079973E-02 0.11875193E+03</pdfrwt>
<pdfrwt beam="2">  1       -2 0.99854686E-01 0.11875193E+03</pdfrwt>
<totfact> 0.16791895E+03</totfact>
</mgrwt>
</event>
<event>
 4    1  0.4940461E-001  0.8379855E+02  0.7546771E-02  0.1318605E+00
         -2   -1    0    0    0  501 -0.00000000000E+00  0.00000000000E+00  0.74272732794E+03  0.74272732794E+03  0.00000000000E+00 0.  1.
          2   -1    0    0  501    0  0.00000000000E+00 -0.00000000000E+00 -0.37238619363E+02  0.37238619363E+02  0.00000000000E+00 0. -1.
         24    1    1    2    0    0 -0.13153069979E+02 -0.19544257225E+02  0.15886777943E+02  0.85291188924E+02  0.80419002446E+02 0. -1.
        -24    1    1    2    0    0  0.13153069979E+02  0.19544257225E+02  0.68960193063E+03  0.69467475837E+03  0.80419002446E+02 0.  1.
<mgrwt>
<rscale>  0 0.83798551E+02</rscale>
<asrwt>0</asrwt>
<pdfrwt beam="1">  1        2 0.57290189E-02 0.83798551E+02</pdfrwt>
<pdfrwt beam="2">  1       -2 0.11426573E+00 0.83798551E+02</pdfrwt>
<totfact> 0.78108697E+02</totfact>
</mgrwt>
</event>
<event>
 4    1  0.4940461E-001  0.8203940E+02  0.7546771E-02  0.1323362E+00
         -2   -1    0    0    0  501 -0.00000000000E+00  0.00000000000E+00  0.15799004160E+02  0.15799004160E+02  0.00000000000E+00 0.  1.
          2   -1    0    0  501    0  0.00000000000E+00 -0.00000000000E+00 -0.75888542366E+03  0.75888542366E+03  0.00000000000E+00 0. -1.
         24    1    1    2    0    0  0.15766548264E+02  0.38292878250E+01 -0.62808049489E+03  0.63341579670E+03  0.80419002446E+02 0. -1.
        -24    1    1    2    0    0 -0.15766548264E+02 -0.38292878250E+01 -0.11500592461E+03  0.14126863112E+03  0.80419002446E+02 0.  1.
<mgrwt>
<rscale>  0 0.82039402E+02</rscale>
<asrwt>0</asrwt>
<pdfrwt beam="1">  1        2 0.11675159E+00 0.82039402E+02</pdfrwt>
<pdfrwt beam="2">  1       -2 0.24306163E-02 0.82039402E+02</pdfrwt>
<totfact> 0.19922013E+04</totfact>
</mgrwt>
</event>
<event>
 4    1  0.4940461E-001  0.9609138E+02  0.7546771E-02  0.1288737E+00
         -1   -1    0    0    0  501 -0.00000000000E+00  0.00000000000E+00  0.12064045095E+02  0.12064045095E+02  0.00000000000E+00 0.  1.
          1   -1    0    0  501    0  0.00000000000E+00 -0.00000000000E+00 -0.77856741703E+03  0.77856741703E+03  0.00000000000E+00 0. -1.
         24    1    1    2    0    0 -0.49407288353E+02 -0.18034770862E+02 -0.43470537237E+03  0.44519917995E+03  0.80419002446E+02 0.  0.
        -24    1    1    2    0    0  0.49407288353E+02  0.18034770862E+02 -0.33179799956E+03  0.34543228218E+03  0.80419002446E+02 0.  0.
<mgrwt>
<rscale>  0 0.96091370E+02</rscale>
<asrwt>0</asrwt>
<pdfrwt beam="1">  1        1 0.11977963E+00 0.96091382E+02</pdfrwt>
<pdfrwt beam="2">  1       -1 0.18560065E-02 0.96091382E+02</pdfrwt>
<totfact> 0.16987706E+04</totfact>
</mgrwt>
</event>
<event>
 4    1  0.4940461E-001  0.8068524E+02  0.7546771E-02  0.1327118E+00
         -3   -1    0    0    0  501 -0.00000000000E+00  0.00000000000E+00  0.63208294062E+02  0.63208294062E+02  0.00000000000E+00 0.  1.
          3   -1    0    0  501    0  0.00000000000E+00 -0.00000000000E+00 -0.10697828467E+03  0.10697828467E+03  0.00000000000E+00 0. -1.
         24    1    1    2    0    0 -0.42177992202E+01  0.50101684289E+01 -0.54641835051E+01  0.80870049299E+02  0.80419002446E+02 0.  1.
        -24    1    1    2    0    0  0.42177992202E+01 -0.50101684289E+01 -0.38305807105E+02  0.89316529435E+02  0.80419002446E+02 0.  0.
<mgrwt>
<rscale>  0 0.80685238E+02</rscale>
<asrwt>0</asrwt>
<pdfrwt beam="1">  1        3 0.16458197E-01 0.80685238E+02</pdfrwt>
<pdfrwt beam="2">  1       -3 0.97243531E-02 0.80685238E+02</pdfrwt>
<totfact> 0.49658983E+03</totfact>
</mgrwt>
</event>
<event>
 4    1  0.4940461E-001  0.8812381E+02  0.7546771E-02  0.1307460E+00
         -2   -1    0    0    0  501 -0.00000000000E+00  0.00000000000E+00  0.50547697055E+01  0.50547697055E+01  0.00000000000E+00 0.  1.
          2   -1    0    0  501    0  0.00000000000E+00 -0.00000000000E+00 -0.17187270739E+04  0.17187270739E+04  0.00000000000E+00 0. -1.
         24    1    1    2    0    0  0.19356468150E+02  0.30396016124E+02 -0.11376088604E+04  0.11410169700E+04  0.80419002446E+02 0.  0.
        -24    1    1    2    0    0 -0.19356468150E+02 -0.30396016124E+02 -0.57606344376E+03  0.58276487355E+03  0.80419002446E+02 0.  0.
<mgrwt>
<rscale>  0 0.88123814E+02</rscale>
<asrwt>0</asrwt>
<pdfrwt beam="1">  1        2 0.26441917E+00 0.88123814E+02</pdfrwt>
<pdfrwt beam="2">  1       -2 0.77765799E-03 0.88123814E+02</pdfrwt>
<totfact> 0.29871092E+04</totfact>
</mgrwt>
</event>
<event>
 4    1  0.4940461E-001  0.1324728E+03  0.7546771E-02  0.1223832E+00
          1   -1    0    0  501    0  0.00000000000E+00  0.00000000000E+00  0.88365265556E+02  0.88365265556E+02  0.00000000000E+00 0. -1.
         -1   -1    0    0    0  501 -0.00000000000E+00 -0.00000000000E+00 -0.20873885243E+03  0.20873885243E+03  0.00000000000E+00 0.  1.
         24    1    1    2    0    0  0.65828162964E+02 -0.82149175109E+02 -0.92931578025E+02  0.16181881275E+03  0.80419002446E+02 0.  1.
        -24    1    1    2    0    0 -0.65828162964E+02  0.82149175109E+02 -0.27442008854E+02  0.13528530524E+03  0.80419002446E+02 0. -1.
<mgrwt>
<rscale>  0 0.13247283E+03</rscale>
<asrwt>0</asrwt>
<pdfrwt beam="1">  1        1 0.13594656E-01 0.13247283E+03</pdfrwt>
<pdfrwt beam="2">  1       -1 0.32113670E-01 0.13247283E+03</pdfrwt>
<totfact> 0.37007337E+03</totfact>
</mgrwt>
</event>
<event>
 4    1  0.4940461E-001  0.8394319E+02  0.7546771E-02  0.1318220E+00
          2   -1    0    0  501    0  0.00000000000E+00  0.00000000000E+00  0.11671563289E+04  0.11671563289E+04  0.00000000000E+00 0. -1.
         -2   -1    0    0    0  501 -0.00000000000E+00 -0.00000000000E+00 -0.60758703983E+01  0.60758703983E+01  0.00000000000E+00 0.  1.
         24    1    1    2    0    0 -0.58217885458E+00  0.24060435795E+02  0.62728592683E+03  0.63287762913E+03  0.80419002446E+02 0. -1.
        -24    1    1    2    0    0  0.58217885458E+00 -0.24060435795E+02  0.53379453172E+03  0.54035457021E+03  0.80419002446E+02 0.  1.
<mgrwt>
<rscale>  0 0.83943192E+02</rscale>
<asrwt>0</asrwt>
<pdfrwt beam="1">  1        2 0.17956233E+00 0.83943192E+02</pdfrwt>
<pdfrwt beam="2">  1       -2 0.93475022E-03 0.83943192E+02</pdfrwt>
<totfact> 0.44241559E+04</totfact>
</mgrwt>
</event>
<event>
 4    1  0.4940461E-001  0.8146236E+02  0.7546771E-02  0.1324952E+00
         -3   -1    0    0    0  501 -0.00000000000E+00  0.00000000000E+00  0.42560514742E+02  0.42560514742E+02  0.00000000000E+00 0.  1.
          3   -1    0    0  501    0  0.00000000000E+00 -0.00000000000E+00 -0.32285552382E+03  0.32285552382E+03  0.00000000000E+00 0. -1.
         24    1    1    2    0    0 -0.12971795628E+02  0.79496263327E+00 -0.87686601040E+01  0.81932928678E+02  0.80419002446E+02 0.  0.
        -24    1    1    2    0    0  0.12971795628E+02 -0.79496263327E+00 -0.27152634898E+03  0.28348310988E+03  0.80419002446E+02 0. -1.
<mgrwt>
<rscale>  0 0.81462356E+02</rscale>
<asrwt>0</asrwt>
<pdfrwt beam="1">  1        3 0.49670081E-01 0.81462356E+02</pdfrwt>
<pdfrwt beam="2">  1       -3 0.65477715E-02 0.81462356E+02</pdfrwt>
<totfact> 0.12552432E+03</totfact>
</mgrwt>
</event>
<event>
 4    1  0.4940461E-001  0.9454913E+02  0.7546771E-02  0.1292195E+00
          2   -1    0    0  501    0  0.00000000000E+00  0.00000000000E+00  0.14658892387E+04  0.14658892387E+04  0.00000000000E+00 0. -1.
         -2   -1    0    0    0  501 -0.00000000000E+00 -0.00000000000E+00 -0.80586613355E+01  0.80586613355E+01  0.00000000000E+00 0.  1.
         24    1    1    2    0    0  0.15507600113E+02  0.47242307879E+02  0.10923955402E+04  0.10964796184E+04  0.80419002446E+02 0. -1.
        -24    1    1    2    0    0 -0.15507600113E+02 -0.47242307879E+02  0.36543503713E+03  0.37746828162E+03  0.80419002446E+02 0.  1.
<mgrwt>
<rscale>  0 0.94549126E+02</rscale>
<asrwt>0</asrwt>
<pdfrwt beam="1">  1        2 0.22552121E+00 0.94549126E+02</pdfrwt>
<pdfrwt beam="2">  1       -2 0.12397952E-02 0.94549126E+02</pdfrwt>
<totfact> 0.20845733E+04</totfact>
</mgrwt>
</event>
<event>
 4    1  0.4940461E-001  0.9539666E+02  0.7546771E-02  0.1290285E+00
         -2   -1    0    0    0  501 -0.00000000000E+00  0.00000000000E+00  0.91332975368E+01  0.91332975368E+01  0.00000000000E+00 0.  1.
          2   -1    0    0  501    0  0.00000000000E+00 -0.00000000000E+00 -0.11761985431E+04  0.11761985431E+04  0.00000000000E+00 0. -1.
         24    1    1    2    0    0  0.38731547716E+02 -0.33662659910E+02 -0.81524473522E+03  0.82080722567E+03  0.80419002446E+02 0. -1.
        -24    1    1    2    0    0 -0.38731547716E+02  0.33662659910E+02 -0.35182051033E+03  0.36452461495E+03  0.80419002446E+02 0.  1.
<mgrwt>
<rscale>  0 0.95396664E+02</rscale>
<asrwt>0</asrwt>
<pdfrwt beam="1">  1        2 0.18095353E+00 0.95396664E+02</pdfrwt>
<pdfrwt beam="2">  1       -2 0.14051234E-02 0.95396664E+02</pdfrwt>
<totfact> 0.24835674E+04</totfact>
</mgrwt>
</event>
<event>
 4    1  0.4940461E-001  0.1075334E+03  0.7546771E-02  0.1265207E+00
         -1   -1    0    0    0  501 -0.00000000000E+00  0.00000000000E+00  0.28342056262E+02  0.28342056262E+02  0.00000000000E+00 0.  1.
          1   -1    0    0  501    0  0.00000000000E+00 -0.00000000000E+00 -0.52279226962E+03  0.52279226962E+03  0.00000000000E+00 0. -1.
         24    1    1    2    0    0  0.33789955904E+02 -0.62884375530E+02 -0.11809474589E+03  0.15971784736E+03  0.80419002446E+02 0.  1.
        -24    1    1    2    0    0 -0.33789955904E+02  0.62884375530E+02 -0.37635546747E+03  0.39141647852E+03  0.80419002446E+02 0. -1.
<mgrwt>
<rscale>  0 0.10753335E+03</rscale>
<asrwt>0</asrwt>
<pdfrwt beam="1">  1        1 0.80429571E-01 0.10753335E+03</pdfrwt>
<pdfrwt beam="2">  1       -1 0.43603168E-02 0.10753335E+03</pdfrwt>
<totfact> 0.86398231E+03</totfact>
</mgrwt>
</event>
<event>
 4    1  0.4940461E-001  0.1092358E+03  0.7546771E-02  0.1261992E+00
         -1   -1    0    0    0  501 -0.00000000000E+00  0.00000000000E+00  0.22073186205E+03  0.22073186205E+03  0.00000000000E+00 0.  1.
          1   -1    0    0  501    0  0.00000000000E+00 -0.00000000000E+00 -0.54060507093E+02  0.54060507093E+02  0.00000000000E+00 0. -1.
         24    1    1    2    0    0  0.31807989094E+02  0.66734518204E+02  0.84147257298E+02  0.13788843663E+03  0.80419002446E+02 0.  0.
        -24    1    1    2    0    0 -0.31807989094E+02 -0.66734518204E+02  0.82524097663E+02  0.13690393252E+03  0.80419002446E+02 0. -1.
<mgrwt>
<rscale>  0 0.10923580E+03</rscale>
<asrwt>0</asrwt>
<pdfrwt beam="1">  1        1 0.83170012E-02 0.10923580E+03</pdfrwt>
<pdfrwt beam="2">  1       -1 0.33958748E-01 0.10923580E+03</pdfrwt>
<totfact> 0.63436578E+03</totfact>
</mgrwt>
</event>
<event>
 4    1  0.4940461E-001  0.8810849E+02  0.7546771E-02  0.1307498E+00
          2   -1    0    0  501    0  0.00000000000E+00  0.00000000000E+00  0.16314135278E+03  0.16314135278E+03  0.00000000000E+00 0. -1.
         -2   -1    0    0    0  501 -0.00000000000E+00 -0.00000000000E+00 -0.11428730585E+03  0.11428730585E+03  0.00000000000E+00 0.  1.
         24    1    1    2    0    0 -0.25785780871E+01  0.35905999163E+02  0.13039929979E+03  0.15737561177E+03  0.80419002446E+02 0. -1.
        -24    1    1    2    0    0  0.25785780871E+01 -0.35905999163E+02 -0.81545252861E+02  0.12005304686E+03  0.80419002446E+02 0.  1.
<mgrwt>
<rscale>  0 0.88108489E+02</rscale>
<asrwt>0</asrwt>
<pdfrwt beam="1">  1        2 0.25098670E-01 0.88108489E+02</pdfrwt>
<pdfrwt beam="2">  1       -2 0.17582662E-01 0.88108489E+02</pdfrwt>
<totfact> 0.51942422E+03</totfact>
</mgrwt>
</event>
<event>
 4    1  0.4940461E-001  0.8341955E+02  0.7546771E-02  0.1319618E+00
          2   -1    0    0  501    0  0.00000000000E+00  0.00000000000E+00  0.63560281223E+03  0.63560281223E+03  0.00000000000E+00 0. -1.
         -2   -1    0    0    0  501 -0.00000000000E+00 -0.00000000000E+00 -0.11526104938E+02  0.11526104938E+02  0.00000000000E+00 0.  1.
         24    1    1    2    0    0  0.14475552682E+01 -0.22124858810E+02  0.38447866401E+03  0.39342427967E+03  0.80419002446E+02 0.  1.
        -24    1    1    2    0    0 -0.14475552682E+01  0.22124858810E+02  0.23959804327E+03  0.25370463750E+03  0.80419002446E+02 0.  0.
<mgrwt>
<rscale>  0 0.83419547E+02</rscale>
<asrwt>0</asrwt>
<pdfrwt beam="1">  1        2 0.97785021E-01 0.83419547E+02</pdfrwt>
<pdfrwt beam="2">  1       -2 0.17732474E-02 0.83419547E+02</pdfrwt>
<totfact> 0.38528361E+04</totfact>
</mgrwt>
</event>
<event>
 4    1  0.4940461E-001  0.8074656E+02  0.7546771E-02  0.1326946E+00
         -2   -1    0    0    0  501 -0.00000000000E+00  0.00000000000E+00  0.13308344853E+02  0.13308344853E+02  0.00000000000E+00 0.  1.
          2   -1    0    0  501    0  0.00000000000E+00 -0.00000000000E+00 -0.94568679982E+03  0.94568679982E+03  0.00000000000E+00 0. -1.
         24    1    1    2    0    0  0.14631393558E+01  0.71168892932E+01 -0.79906693928E+03  0.80313633979E+03  0.80419002446E+02 0.  0.
        -24    1    1    2    0    0 -0.14631393558E+01 -0.71168892932E+01 -0.13331151569E+03  0.15585880488E+03  0.80419002446E+02 0.  0.
<mgrwt>
<rscale>  0 0.80746559E+02</rscale>
<asrwt>0</asrwt>
<pdfrwt beam="1">  1        2 0.14549027E+00 0.80746559E+02</pdfrwt>
<pdfrwt beam="2">  1       -2 0.20474377E-02 0.80746559E+02</pdfrwt>
<totfact> 0.19351477E+04</totfact>
</mgrwt>
</event>
<event>
 4    1  0.4940461E-001  0.8520830E+02  0.7546771E-02  0.1314889E+00
         -2   -1    0    0    0  501 -0.00000000000E+00  0.00000000000E+00  0.12755661933E+02  0.12755661933E+02  0.00000000000E+00 0.  1.
          2   -1    0    0  501    0  0.00000000000E+00 -0.00000000000E+00 -0.12405967763E+04  0.12405967763E+04  0.00000000000E+00 0. -1.
         24    1    1    2    0    0 -0.23752174538E+02 -0.15135137982E+02 -0.10749400156E+04  0.10783118710E+04  0.80419002446E+02 0. -1.
        -24    1    1    2    0    0  0.23752174538E+02  0.15135137982E+02 -0.15290109882E+03  0.17504056722E+03  0.80419002446E+02 0.  1.
<mgrwt>
<rscale>  0 0.85208299E+02</rscale>
<asrwt>0</asrwt>
<pdfrwt beam="1">  1        2 0.19086104E+00 0.85208299E+02</pdfrwt>
<pdfrwt beam="2">  1       -2 0.19624096E-02 0.85208299E+02</pdfrwt>
<totfact> 0.14093066E+04</totfact>
</mgrwt>
</event>
<event>
 4    1  0.4940461E-001  0.1054780E+03  0.7546771E-02  0.1269181E+00
         -2   -1    0    0    0  501 -0.00000000000E+00  0.00000000000E+00  0.18651956641E+02  0.18651956641E+02  0.00000000000E+00 0.  1.
          2   -1    0    0  501    0  0.00000000000E+00 -0.00000000000E+00 -0.82689955221E+03  0.82689955221E+03  0.00000000000E+00 0. -1.
         24    1    1    2    0    0 -0.46466120854E+00 -0.68250770091E+02 -0.62729558811E+03  0.63610168554E+03  0.80419002446E+02 0. -1.
        -24    1    1    2    0    0  0.46466120854E+00  0.68250770091E+02 -0.18095200746E+03  0.20944982332E+03  0.80419002446E+02 0.  1.
<mgrwt>
<rscale>  0 0.10547796E+03</rscale>
<asrwt>0</asrwt>
<pdfrwt beam="1">  1        2 0.12721531E+00 0.10547796E+03</pdfrwt>
<pdfrwt beam="2">  1       -2 0.28695319E-02 0.10547796E+03</pdfrwt>
<totfact> 0.14414306E+04</totfact>
</mgrwt>
</event>
<event>
 4    1  0.4940461E-001  0.9501356E+02  0.7546771E-02  0.1291146E+00
         -1   -1    0    0    0  501 -0.00000000000E+00  0.00000000000E+00  0.40663679336E+03  0.40663679336E+03  0.00000000000E+00 0.  1.
          1   -1    0    0  501    0  0.00000000000E+00 -0.00000000000E+00 -0.46164993954E+02  0.46164993954E+02  0.00000000000E+00 0. -1.
         24    1    1    2    0    0 -0.51990104692E+01  0.50332197647E+02  0.34335509944E+03  0.35625875441E+03  0.80419002446E+02 0.  1.
        -24    1    1    2    0    0  0.51990104692E+01 -0.50332197647E+02  0.17116699966E+02  0.96543032902E+02  0.80419002446E+02 0. -1.
<mgrwt>
<rscale>  0 0.95013556E+02</rscale>
<asrwt>0</asrwt>
<pdfrwt beam="1">  1        1 0.71023070E-02 0.95013556E+02</pdfrwt>
<pdfrwt beam="2">  1       -1 0.62559504E-01 0.95013556E+02</pdfrwt>
<totfact> 0.25986238E+03</totfact>
</mgrwt>
</event>
<event>
 4    1  0.4940461E-001  0.9907353E+02  0.7546771E-02  0.1282256E+00
         -1   -1    0    0    0  501 -0.00000000000E+00  0.00000000000E+00  0.13485203124E+03  0.13485203124E+03  0.00000000000E+00 0.  1.
          1   -1    0    0  501    0  0.00000000000E+00 -0.00000000000E+00 -0.96391767334E+02  0.96391767334E+02  0.00000000000E+00 0. -1.
         24    1    1    2    0    0 -0.20910325903E+02 -0.53954667307E+02  0.76445660930E+02  0.12513793543E+03  0.80419002446E+02 0.  1.
        -24    1    1    2    0    0  0.20910325903E+02  0.53954667307E+02 -0.37985397021E+02  0.10610586315E+03  0.80419002446E+02 0. -1.
<mgrwt>
<rscale>  0 0.99073527E+02</rscale>
<asrwt>0</asrwt>
<pdfrwt beam="1">  1        1 0.14829503E-01 0.99073527E+02</pdfrwt>
<pdfrwt beam="2">  1       -1 0.20746466E-01 0.99073527E+02</pdfrwt>
<totfact> 0.66461720E+03</totfact>
</mgrwt>
</event>
<event>
 4    1  0.4940461E-001  0.8572191E+02  0.7546771E-02  0.1313555E+00
         -2   -1    0    0    0  501 -0.00000000000E+00  0.00000000000E+00  0.90777750320E+01  0.90777750320E+01  0.00000000000E+00 0.  1.
          2   -1    0    0  501    0  0.00000000000E+00 -0.00000000000E+00 -0.92169962772E+03  0.92169962772E+03  0.00000000000E+00 0. -1.
         24    1    1    2    0    0  0.23511981802E+02 -0.18116769882E+02 -0.61870197766E+03  0.62461218668E+03  0.80419002446E+02 0. -1.
        -24    1    1    2    0    0 -0.23511981802E+02  0.18116769882E+02 -0.29391987503E+03  0.30616521607E+03  0.80419002446E+02 0.  1.
<mgrwt>
<rscale>  0 0.85721914E+02</rscale>
<asrwt>0</asrwt>
<pdfrwt beam="1">  1        2 0.14179999E+00 0.85721914E+02</pdfrwt>
<pdfrwt beam="2">  1       -2 0.13965803E-02 0.85721914E+02</pdfrwt>
<totfact> 0.34738580E+04</totfact>
</mgrwt>
</event>
<event>
 4    1  0.4940461E-001  0.9899625E+02  0.7546771E-02  0.1282421E+00
          2   -1    0    0  501    0  0.00000000000E+00  0.00000000000E+00  0.37943477933E+02  0.37943477933E+02  0.00000000000E+00 0. -1.
         -2   -1    0    0    0  501 -0.00000000000E+00 -0.00000000000E+00 -0.26156586290E+03  0.26156586290E+03  0.00000000000E+00 0.  1.
         24    1    1    2    0    0 -0.14631967885E+02  0.55847531395E+02 -0.95040981687E+02  0.13723354328E+03  0.80419002446E+02 0. -1.
        -24    1    1    2    0    0  0.14631967885E+02 -0.55847531395E+02 -0.12858140328E+03  0.16227579755E+03  0.80419002446E+02 0.  0.
<mgrwt>
<rscale>  0 0.98996248E+02</rscale>
<asrwt>0</asrwt>
<pdfrwt beam="1">  1        2 0.58374583E-02 0.98996248E+02</pdfrwt>
<pdfrwt beam="2">  1       -2 0.40240901E-01 0.98996248E+02</pdfrwt>
<totfact> 0.69188989E+03</totfact>
</mgrwt>
</event>
<event>
 4    1  0.4940461E-001  0.1243867E+03  0.7546771E-02  0.1236031E+00
          2   -1    0    0  501    0  0.00000000000E+00  0.00000000000E+00  0.15346779048E+03  0.15346779048E+03  0.00000000000E+00 0. -1.
         -2   -1    0    0    0  501 -0.00000000000E+00 -0.00000000000E+00 -0.10856064089E+03  0.10856064089E+03  0.00000000000E+00 0.  1.
         24    1    1    2    0    0  0.62204258673E+02  0.71662143743E+02  0.57446124403E+02  0.13701133459E+03  0.80419002446E+02 0. -1.
        -24    1    1    2    0    0 -0.62204258673E+02 -0.71662143743E+02 -0.12538974813E+02  0.12501709678E+03  0.80419002446E+02 0.  1.
<mgrwt>
<rscale>  0 0.12438669E+03</rscale>
<asrwt>0</asrwt>
<pdfrwt beam="1">  1        2 0.23610429E-01 0.12438669E+03</pdfrwt>
<pdfrwt beam="2">  1       -2 0.16701637E-01 0.12438669E+03</pdfrwt>
<totfact> 0.61987767E+03</totfact>
</mgrwt>
</event>
<event>
 4    1  0.4940461E-001  0.8283415E+02  0.7546771E-02  0.1321196E+00
          1   -1    0    0  501    0  0.00000000000E+00  0.00000000000E+00  0.16047202738E+04  0.16047202738E+04  0.00000000000E+00 0. -1.
         -1   -1    0    0    0  501 -0.00000000000E+00 -0.00000000000E+00 -0.45475014876E+01  0.45475014876E+01  0.00000000000E+00 0.  1.
         24    1    1    2    0    0  0.15250489793E+02 -0.12716124100E+02  0.99675852099E+03  0.10001945023E+04  0.80419002446E+02 0.  1.
        -24    1    1    2    0    0 -0.15250489793E+02  0.12716124100E+02  0.60341425134E+03  0.60907327303E+03  0.80419002446E+02 0.  0.
<mgrwt>
<rscale>  0 0.82834141E+02</rscale>
<asrwt>0</asrwt>
<pdfrwt beam="1">  1        1 0.24687959E+00 0.82834151E+02</pdfrwt>
<pdfrwt beam="2">  1       -1 0.69961689E-03 0.82834151E+02</pdfrwt>
<totfact> 0.17936625E+04</totfact>
</mgrwt>
</event>
<event>
 4    1  0.4940461E-001  0.1112371E+03  0.7546771E-02  0.1258296E+00
         -2   -1    0    0    0  501 -0.00000000000E+00  0.00000000000E+00  0.10963927189E+02  0.10963927189E+02  0.00000000000E+00 0.  1.
          2   -1    0    0  501    0  0.00000000000E+00 -0.00000000000E+00 -0.11504206992E+04  0.11504206992E+04  0.00000000000E+00 0. -1.
         24    1    1    2    0    0 -0.76619902313E+02  0.59875430462E+01 -0.48971833348E+03  0.50219291334E+03  0.80419002446E+02 0.  1.
        -24    1    1    2    0    0  0.76619902313E+02 -0.59875430462E+01 -0.64973843854E+03  0.65919171307E+03  0.80419002446E+02 0. -1.
<mgrwt>
<rscale>  0 0.11123704E+03</rscale>
<asrwt>0</asrwt>
<pdfrwt beam="1">  1        2 0.17698778E+00 0.11123705E+03</pdfrwt>
<pdfrwt beam="2">  1       -2 0.16867582E-02 0.11123705E+03</pdfrwt>
<totfact> 0.19998203E+04</totfact>
</mgrwt>
</event>
<event>
 4    1  0.4940461E-001  0.8983332E+02  0.7546771E-02  0.1303256E+00
          1   -1    0    0  501    0  0.00000000000E+00  0.00000000000E+00  0.11138454722E+03  0.11138454722E+03  0.00000000000E+00 0. -1.
         -1   -1    0    0    0  501 -0.00000000000E+00 -0.00000000000E+00 -0.43461484892E+03  0.43461484892E+03  0.00000000000E+00 0.  1.
         24    1    1    2    0    0  0.43432105440E+01  0.39798825848E+02 -0.41082309044E+03  0.42053018633E+03  0.80419002446E+02 0.  1.
        -24    1    1    2    0    0 -0.43432105440E+01 -0.39798825848E+02  0.87592788745E+02  0.12546920981E+03  0.80419002446E+02 0. -1.
<mgrwt>
<rscale>  0 0.89833323E+02</rscale>
<asrwt>0</asrwt>
<pdfrwt beam="1">  1        1 0.17136084E-01 0.89833323E+02</pdfrwt>
<pdfrwt beam="2">  1       -1 0.66863823E-01 0.89833323E+02</pdfrwt>
<totfact> 0.72485570E+02</totfact>
</mgrwt>
</event>
<event>
 4    1  0.4940461E-001  0.1977208E+03  0.7546771E-02  0.1151676E+00
          2   -1    0    0  501    0  0.00000000000E+00  0.00000000000E+00  0.37279439057E+03  0.37279439057E+03  0.00000000000E+00 0. -1.
         -2   -1    0    0    0  501 -0.00000000000E+00 -0.00000000000E+00 -0.10848298976E+03  0.10848298976E+03  0.00000000000E+00 0.  1.
         24    1    1    2    0    0  0.18041415069E+03  0.87777330676E+01  0.17609431838E+03  0.26476921892E+03  0.80419002446E+02 0.  0.
        -24    1    1    2    0    0 -0.18041415069E+03 -0.87777330676E+01  0.88217082430E+02  0.21650816140E+03  0.80419002446E+02 0.  1.
<mgrwt>
<rscale>  0 0.19772084E+03</rscale>
<asrwt>0</asrwt>
<pdfrwt beam="1">  1        2 0.57352983E-01 0.19772084E+03</pdfrwt>
<pdfrwt beam="2">  1       -2 0.16689691E-01 0.19772084E+03</pdfrwt>
<totfact> 0.24383551E+03</totfact>
</mgrwt>
</event>
<event>
 4    1  0.4940461E-001  0.8459149E+02  0.7546771E-02  0.1316504E+00
          2   -1    0    0  501    0  0.00000000000E+00  0.00000000000E+00  0.47731417209E+03  0.47731417209E+03  0.00000000000E+00 0. -1.
         -2   -1    0    0    0  501 -0.00000000000E+00 -0.00000000000E+00 -0.22153031541E+02  0.22153031541E+02  0.00000000000E+00 0.  1.
         24    1    1    2    0    0 -0.25973587577E+02  0.37251609260E+01  0.36957105687E+03  0.37912858783E+03  0.80419002446E+02 0.  0.
        -24    1    1    2    0    0  0.25973587577E+02 -0.37251609260E+01  0.85590083680E+02  0.12033861581E+03  0.80419002446E+02 0.  0.
<mgrwt>
<rscale>  0 0.84591489E+02</rscale>
<asrwt>0</asrwt>
<pdfrwt beam="1">  1        2 0.73432942E-01 0.84591489E+02</pdfrwt>
<pdfrwt beam="2">  1       -2 0.34081591E-02 0.84591489E+02</pdfrwt>
<totfact> 0.20591897E+04</totfact>
</mgrwt>
</event>
<event>
 4    1  0.4940461E-001  0.1046515E+03  0.7546771E-02  0.1270808E+00
         -2   -1    0    0    0  501 -0.00000000000E+00  0.00000000000E+00  0.26557142914E+03  0.26557142914E+03  0.00000000000E+00 0.  1.
          2   -1    0    0  501    0  0.00000000000E+00 -0.00000000000E+00 -0.50982066392E+02  0.50982066392E+02  0.00000000000E+00 0. -1.
         24    1    1    2    0    0 -0.15703906535E+02 -0.65100724529E+02  0.38103064572E+02  0.11137224295E+03  0.80419002446E+02 0. -1.
        -24    1    1    2    0    0  0.15703906535E+02  0.65100724529E+02  0.17648629818E+03  0.20518125259E+03  0.80419002446E+02 0.  1.
<mgrwt>
<rscale>  0 0.10465148E+03</rscale>
<asrwt>0</asrwt>
<pdfrwt beam="1">  1        2 0.78433950E-02 0.10465148E+03</pdfrwt>
<pdfrwt beam="2">  1       -2 0.40857142E-01 0.10465148E+03</pdfrwt>
<totfact> 0.46514026E+03</totfact>
</mgrwt>
</event>
<event>
 4    1  0.4940461E-001  0.1832251E+03  0.7546771E-02  0.1164718E+00
         -2   -1    0    0    0  501 -0.00000000000E+00  0.00000000000E+00  0.95956960393E+02  0.95956960393E+02  0.00000000000E+00 0.  1.
          2   -1    0    0  501    0  0.00000000000E+00 -0.00000000000E+00 -0.11659384319E+04  0.11659384319E+04  0.00000000000E+00 0. -1.
         24    1    1    2    0    0 -0.15936023641E+03 -0.41334474296E+02 -0.10628542847E+04  0.10785317196E+04  0.80419002446E+02 0. -1.
        -24    1    1    2    0    0  0.15936023641E+03  0.41334474296E+02 -0.71271867965E+01  0.18336367269E+03  0.80419002446E+02 0.  1.
<mgrwt>
<rscale>  0 0.18322511E+03</rscale>
<asrwt>0</asrwt>
<pdfrwt beam="1">  1        2 0.17937515E+00 0.18322511E+03</pdfrwt>
<pdfrwt beam="2">  1       -2 0.14762608E-01 0.18322511E+03</pdfrwt>
<totfact> 0.74257555E+02</totfact>
</mgrwt>
</event>
<event>
 4    1  0.4940461E-001  0.9483650E+02  0.7546771E-02  0.1291545E+00
         -1   -1    0    0    0  501 -0.00000000000E+00  0.00000000000E+00  0.73939857812E+01  0.73939857812E+01  0.00000000000E+00 0.  1.
          1   -1    0    0  501    0  0.00000000000E+00 -0.00000000000E+00 -0.14794375737E+04  0.14794375737E+04  0.00000000000E+00 0. -1.
         24    1    1    2    0    0 -0.32049878376E+02  0.38724042775E+02 -0.42254779761E+03  0.43305958414E+03  0.80419002446E+02 0.  1.
        -24    1    1    2    0    0  0.32049878376E+02 -0.38724042775E+02 -0.10494957903E+04  0.10537719754E+04  0.80419002446E+02 0. -1.
<mgrwt>
<rscale>  0 0.94836502E+02</rscale>
<asrwt>0</asrwt>
<pdfrwt beam="1">  1        1 0.22760580E+00 0.94836502E+02</pdfrwt>
<pdfrwt beam="2">  1       -1 0.11375362E-02 0.94836502E+02</pdfrwt>
<totfact> 0.10968384E+04</totfact>
</mgrwt>
</event>
<event>
 4    1  0.4940461E-001  0.8053079E+02  0.7546771E-02  0.1327552E+00
          1   -1    0    0  501    0  0.00000000000E+00  0.00000000000E+00  0.87677939883E+03  0.87677939883E+03  0.00000000000E+00 0. -1.
         -1   -1    0    0    0  501 -0.00000000000E+00 -0.00000000000E+00 -0.96399461622E+01  0.96399461622E+01  0.00000000000E+00 0.  1.
         24    1    1    2    0    0  0.90655460387E+00  0.41436457914E+01  0.21976478250E+03  0.23405505169E+03  0.80419002446E+02 0.  0.
        -24    1    1    2    0    0 -0.90655460387E+00 -0.41436457914E+01  0.64737467017E+03  0.65236429330E+03  0.80419002446E+02 0. -1.
<mgrwt>
<rscale>  0 0.80530787E+02</rscale>
<asrwt>0</asrwt>
<pdfrwt beam="1">  1        1 0.13488908E+00 0.80530787E+02</pdfrwt>
<pdfrwt beam="2">  1       -1 0.14830693E-02 0.80530787E+02</pdfrwt>
<totfact> 0.19233052E+04</totfact>
</mgrwt>
</event>
<event>
 4    1  0.4940461E-001  0.8942769E+02  0.7546771E-02  0.1304244E+00
         -2   -1    0    0    0  501 -0.00000000000E+00  0.00000000000E+00  0.37517529593E+02  0.37517529593E+02  0.00000000000E+00 0.  1.
          2   -1    0    0  501    0  0.00000000000E+00 -0.00000000000E+00 -0.25824042291E+03  0.25824042291E+03  0.00000000000E+00 0. -1.
         24    1    1    2    0    0 -0.19881235169E+02 -0.33687277407E+02 -0.17214581602E+03  0.19398838650E+03  0.80419002446E+02 0. -1.
        -24    1    1    2    0    0  0.19881235169E+02  0.33687277407E+02 -0.48577077302E+02  0.10176956600E+03  0.80419002446E+02 0.  1.
<mgrwt>
<rscale>  0 0.89427692E+02</rscale>
<asrwt>0</asrwt>
<pdfrwt beam="1">  1        2 0.39729296E-01 0.89427692E+02</pdfrwt>
<pdfrwt beam="2">  1       -2 0.57719276E-02 0.89427692E+02</pdfrwt>
<totfact> 0.18135536E+04</totfact>
</mgrwt>
</event>
<event>
 4    1  0.4940461E-001  0.1421456E+03  0.7546771E-02  0.1210471E+00
          2   -1    0    0  501    0  0.00000000000E+00  0.00000000000E+00  0.84173375278E+03  0.84173375278E+03  0.00000000000E+00 0. -1.
         -2   -1    0    0    0  501 -0.00000000000E+00 -0.00000000000E+00 -0.30325514007E+02  0.30325514007E+02  0.00000000000E+00 0.  1.
         24    1    1    2    0    0  0.23633822683E+02  0.11480244596E+03  0.20663393220E+03  0.25080461930E+03  0.80419002446E+02 0. -1.
        -24    1    1    2    0    0 -0.23633822683E+02 -0.11480244596E+03  0.60477430658E+03  0.62125464749E+03  0.80419002446E+02 0.  1.
<mgrwt>
<rscale>  0 0.14214563E+03</rscale>
<asrwt>0</asrwt>
<pdfrwt beam="1">  1        2 0.12949748E+00 0.14214565E+03</pdfrwt>
<pdfrwt beam="2">  1       -2 0.46654643E-02 0.14214565E+03</pdfrwt>
<totfact> 0.70043046E+03</totfact>
</mgrwt>
</event>
<event>
 4    1  0.4940461E-001  0.8148805E+02  0.7546771E-02  0.1324881E+00
         -4   -1    0    0    0  501 -0.00000000000E+00  0.00000000000E+00  0.59788359574E+02  0.59788359574E+02  0.00000000000E+00 0.  1.
          4   -1    0    0  501    0  0.00000000000E+00 -0.00000000000E+00 -0.32145711515E+03  0.32145711515E+03  0.00000000000E+00 0. -1.
         24    1    1    2    0    0 -0.10422349888E+02 -0.80287862220E+01 -0.28505039694E+03  0.29646927587E+03  0.80419002446E+02 0. -1.
        -24    1    1    2    0    0  0.10422349888E+02  0.80287862220E+01  0.23381641362E+02  0.84776198856E+02  0.80419002446E+02 0.  0.
<mgrwt>
<rscale>  0 0.81488053E+02</rscale>
<asrwt>0</asrwt>
<pdfrwt beam="1">  1        4 0.49454940E-01 0.81488053E+02</pdfrwt>
<pdfrwt beam="2">  1       -4 0.91982093E-02 0.81488053E+02</pdfrwt>
<totfact> 0.51389002E+02</totfact>
</mgrwt>
</event>
<event>
 4    1  0.4940461E-001  0.8812334E+02  0.7546771E-02  0.1307461E+00
          2   -1    0    0  501    0  0.00000000000E+00  0.00000000000E+00  0.62506084552E+03  0.62506084552E+03  0.00000000000E+00 0. -1.
         -2   -1    0    0    0  501 -0.00000000000E+00 -0.00000000000E+00 -0.18159960130E+02  0.18159960130E+02  0.00000000000E+00 0.  1.
         24    1    1    2    0    0 -0.35899296111E+02 -0.31222259886E+01  0.48420017255E+03  0.49215397063E+03  0.80419002446E+02 0. -1.
        -24    1    1    2    0    0  0.35899296111E+02  0.31222259886E+01  0.12270071284E+03  0.15106683501E+03  0.80419002446E+02 0.  1.
<mgrwt>
<rscale>  0 0.88123344E+02</rscale>
<asrwt>0</asrwt>
<pdfrwt beam="1">  1        2 0.96163191E-01 0.88123344E+02</pdfrwt>
<pdfrwt beam="2">  1       -2 0.27938405E-02 0.88123344E+02</pdfrwt>
<totfact> 0.20538500E+04</totfact>
</mgrwt>
</event>
<event>
 4    1  0.4940461E-001  0.9097062E+02  0.7546771E-02  0.1300518E+00
         -2   -1    0    0    0  501 -0.00000000000E+00  0.00000000000E+00  0.17587934258E+02  0.17587934258E+02  0.00000000000E+00 0.  1.
          2   -1    0    0  501    0  0.00000000000E+00 -0.00000000000E+00 -0.49491560346E+03  0.49491560346E+03  0.00000000000E+00 0. -1.
         24    1    1    2    0    0  0.22414857480E+02  0.36138790975E+02 -0.29554472465E+03  0.30922861813E+03  0.80419002446E+02 0. -1.
        -24    1    1    2    0    0 -0.22414857480E+02 -0.36138790975E+02 -0.18178294456E+03  0.20327491959E+03  0.80419002446E+02 0.  1.
<mgrwt>
<rscale>  0 0.90970622E+02</rscale>
<asrwt>0</asrwt>
<pdfrwt beam="1">  1        2 0.76140845E-01 0.90970622E+02</pdfrwt>
<pdfrwt beam="2">  1       -2 0.27058366E-02 0.90970622E+02</pdfrwt>
<totfact> 0.27914085E+04</totfact>
</mgrwt>
</event>
<event>
 4    1  0.4940461E-001  0.8249490E+02  0.7546771E-02  0.1322117E+00
          1   -1    0    0  501    0  0.00000000000E+00  0.00000000000E+00  0.91105186512E+02  0.91105186512E+02  0.00000000000E+00 0. -1.
         -1   -1    0    0    0  501 -0.00000000000E+00 -0.00000000000E+00 -0.12495790276E+03  0.12495790276E+03  0.00000000000E+00 0.  1.
         24    1    1    2    0    0  0.94346846776E+01  0.15785413354E+02 -0.85440143926E+02  0.11876626919E+03  0.80419002446E+02 0.  1.
        -24    1    1    2    0    0 -0.94346846776E+01 -0.15785413354E+02  0.51587427675E+02  0.97296820083E+02  0.80419002446E+02 0.  0.
<mgrwt>
<rscale>  0 0.82494900E+02</rscale>
<asrwt>0</asrwt>
<pdfrwt beam="1">  1        1 0.14016183E-01 0.82494900E+02</pdfrwt>
<pdfrwt beam="2">  1       -1 0.19224293E-01 0.82494900E+02</pdfrwt>
<totfact> 0.79380593E+03</totfact>
</mgrwt>
</event>
<event>
 4    1  0.4940461E-001  0.1455776E+03  0.7546771E-02  0.1206015E+00
         -1   -1    0    0    0  501 -0.00000000000E+00  0.00000000000E+00  0.32793732042E+02  0.32793732042E+02  0.00000000000E+00 0.  1.
          1   -1    0    0  501    0  0.00000000000E+00 -0.00000000000E+00 -0.12377974356E+04  0.12377974356E+04  0.00000000000E+00 0. -1.
         24    1    1    2    0    0  0.10655868851E+03  0.58059283307E+02 -0.16331741457E+03  0.21878169103E+03  0.80419002446E+02 0.  1.
        -24    1    1    2    0    0 -0.10655868851E+03 -0.58059283307E+02 -0.10416862890E+04  0.10518094766E+04  0.80419002446E+02 0. -1.
<mgrwt>
<rscale>  0 0.14557764E+03</rscale>
<asrwt>0</asrwt>
<pdfrwt beam="1">  1        1 0.19043041E+00 0.14557764E+03</pdfrwt>
<pdfrwt beam="2">  1       -1 0.50451886E-02 0.14557764E+03</pdfrwt>
<totfact> 0.18659164E+03</totfact>
</mgrwt>
</event>
<event>
 4    1  0.4940461E-001  0.8134026E+02  0.7546771E-02  0.1325290E+00
         -2   -1    0    0    0  501 -0.00000000000E+00  0.00000000000E+00  0.30972523372E+03  0.30972523372E+03  0.00000000000E+00 0.  1.
          2   -1    0    0  501    0  0.00000000000E+00 -0.00000000000E+00 -0.93403685170E+02  0.93403685170E+02  0.00000000000E+00 0. -1.
         24    1    1    2    0    0 -0.12207345204E+02 -0.48677240765E-01 -0.68860304177E+02  0.10657381992E+03  0.80419002446E+02 0. -1.
        -24    1    1    2    0    0  0.12207345204E+02  0.48677240765E-01  0.28518185273E+03  0.29655509897E+03  0.80419002446E+02 0.  1.
<mgrwt>
<rscale>  0 0.81340258E+02</rscale>
<asrwt>0</asrwt>
<pdfrwt beam="1">  1        2 0.14369798E-01 0.81340258E+02</pdfrwt>
<pdfrwt beam="2">  1       -2 0.47650035E-01 0.81340258E+02</pdfrwt>
<totfact> 0.16435647E+03</totfact>
</mgrwt>
</event>
<event>
 4    1  0.4940461E-001  0.1004772E+03  0.7546771E-02  0.1279296E+00
         -1   -1    0    0    0  501 -0.00000000000E+00  0.00000000000E+00  0.11296331945E+02  0.11296331945E+02  0.00000000000E+00 0.  1.
          1   -1    0    0  501    0  0.00000000000E+00 -0.00000000000E+00 -0.28561751369E+04  0.28561751369E+04  0.00000000000E+00 0. -1.
         24    1    1    2    0    0  0.32799823183E+02 -0.50523395566E+02 -0.23399863794E+03  0.25465863506E+03  0.80419002446E+02 0.  1.
        -24    1    1    2    0    0 -0.32799823183E+02  0.50523395566E+02 -0.26108801671E+04  0.26128128338E+04  0.80419002446E+02 0. -1.
<mgrwt>
<rscale>  0 0.10047715E+03</rscale>
<asrwt>0</asrwt>
<pdfrwt beam="1">  1        1 0.43941112E+00 0.10047715E+03</pdfrwt>
<pdfrwt beam="2">  1       -1 0.17378990E-02 0.10047715E+03</pdfrwt>
<totfact> 0.79266094E+02</totfact>
</mgrwt>
</event>
<event>
 4    1  0.4940461E-001  0.8326395E+02  0.7546771E-02  0.1320036E+00
         -3   -1    0    0    0  501 -0.00000000000E+00  0.00000000000E+00  0.56161731884E+02  0.56161731884E+02  0.00000000000E+00 0.  1.
          3   -1    0    0  501    0  0.00000000000E+00 -0.00000000000E+00 -0.21905430112E+03  0.21905430112E+03  0.00000000000E+00 0. -1.
         24    1    1    2    0    0  0.20462467110E+02  0.68525140059E+01  0.94650210691E+01  0.83800191448E+02  0.80419002446E+02 0.  1.
        -24    1    1    2    0    0 -0.20462467110E+02 -0.68525140059E+01 -0.17235759031E+03  0.19141584156E+03  0.80419002446E+02 0. -1.
<mgrwt>
<rscale>  0 0.83263951E+02</rscale>
<asrwt>0</asrwt>
<pdfrwt beam="1">  1        3 0.33700662E-01 0.83263951E+02</pdfrwt>
<pdfrwt beam="2">  1       -3 0.86402664E-02 0.83263951E+02</pdfrwt>
<totfact> 0.16973442E+03</totfact>
</mgrwt>
</event>
<event>
 4    1  0.4940461E-001  0.9868639E+02  0.7546771E-02  0.1283083E+00
         -2   -1    0    0    0  501 -0.00000000000E+00  0.00000000000E+00  0.40783073200E+02  0.40783073200E+02  0.00000000000E+00 0.  1.
          2   -1    0    0  501    0  0.00000000000E+00 -0.00000000000E+00 -0.24128999959E+03  0.24128999959E+03  0.00000000000E+00 0. -1.
         24    1    1    2    0    0 -0.57166909246E+02  0.19319329128E+01 -0.11458025280E+03  0.15122049519E+03  0.80419002446E+02 0. -1.
        -24    1    1    2    0    0  0.57166909246E+02 -0.19319329128E+01 -0.85926673589E+02  0.13085257761E+03  0.80419002446E+02 0.  1.
<mgrwt>
<rscale>  0 0.98686391E+02</rscale>
<asrwt>0</asrwt>
<pdfrwt beam="1">  1        2 0.37121538E-01 0.98686391E+02</pdfrwt>
<pdfrwt beam="2">  1       -2 0.62743190E-02 0.98686391E+02</pdfrwt>
<totfact> 0.17357164E+04</totfact>
</mgrwt>
</event>
<event>
 4    1  0.4940461E-001  0.8105832E+02  0.7546771E-02  0.1326075E+00
         -1   -1    0    0    0  501 -0.00000000000E+00  0.00000000000E+00  0.10761694212E+02  0.10761694212E+02  0.00000000000E+00 0.  1.
          1   -1    0    0  501    0  0.00000000000E+00 -0.00000000000E+00 -0.94578625816E+03  0.94578625816E+03  0.00000000000E+00 0. -1.
         24    1    1    2    0    0  0.84541787940E+01 -0.56357261124E+01 -0.18276349916E+03  0.19993235638E+03  0.80419002446E+02 0.  1.
        -24    1    1    2    0    0 -0.84541787940E+01  0.56357261124E+01 -0.75226106479E+03  0.75661559599E+03  0.80419002446E+02 0. -1.
<mgrwt>
<rscale>  0 0.81058315E+02</rscale>
<asrwt>0</asrwt>
<pdfrwt beam="1">  1        1 0.14550558E+00 0.81058315E+02</pdfrwt>
<pdfrwt beam="2">  1       -1 0.16556452E-02 0.81058315E+02</pdfrwt>
<totfact> 0.14622766E+04</totfact>
</mgrwt>
</event>
<event>
 4    1  0.4940461E-001  0.9636188E+02  0.7546771E-02  0.1288138E+00
         -2   -1    0    0    0  501 -0.00000000000E+00  0.00000000000E+00  0.11217755754E+02  0.11217755754E+02  0.00000000000E+00 0.  1.
          2   -1    0    0  501    0  0.00000000000E+00 -0.00000000000E+00 -0.27091420326E+04  0.27091420326E+04  0.00000000000E+00 0. -1.
         24    1    1    2    0    0 -0.41741403155E+02  0.32803206194E+02 -0.24824554037E+04  0.24843249471E+04  0.80419002446E+02 0. -1.
        -24    1    1    2    0    0  0.41741403155E+02 -0.32803206194E+02 -0.21546887314E+03  0.23603484133E+03  0.80419002446E+02 0.  1.
<mgrwt>
<rscale>  0 0.96361875E+02</rscale>
<asrwt>0</asrwt>
<pdfrwt beam="1">  1        2 0.41679164E+00 0.96361875E+02</pdfrwt>
<pdfrwt beam="2">  1       -2 0.17258063E-02 0.96361875E+02</pdfrwt>
<totfact> 0.29938589E+03</totfact>
</mgrwt>
</event>
<event>
 4    1  0.4940461E-001  0.1117750E+03  0.7546771E-02  0.1257318E+00
         -2   -1    0    0    0  501 -0.00000000000E+00  0.00000000000E+00  0.52054356293E+01  0.52054356293E+01  0.00000000000E+00 0.  1.
          2   -1    0    0  501    0  0.00000000000E+00 -0.00000000000E+00 -0.31709787789E+04  0.31709787789E+04  0.00000000000E+00 0. -1.
         24    1    1    2    0    0  0.75796227849E+02  0.16773734903E+02 -0.23658978084E+04  0.23685366963E+04  0.80419002446E+02 0. -1.
        -24    1    1    2    0    0 -0.75796227849E+02 -0.16773734903E+02 -0.79987553491E+03  0.80764751819E+03  0.80419002446E+02 0.  1.
<mgrwt>
<rscale>  0 0.11177496E+03</rscale>
<asrwt>0</asrwt>
<pdfrwt beam="1">  1        2 0.48784331E+00 0.11177496E+03</pdfrwt>
<pdfrwt beam="2">  1       -2 0.80083555E-03 0.11177496E+03</pdfrwt>
<totfact> 0.48888405E+03</totfact>
</mgrwt>
</event>
<event>
 4    1  0.4940461E-001  0.8206844E+02  0.7546771E-02  0.1323282E+00
          2   -1    0    0  501    0  0.00000000000E+00  0.00000000000E+00  0.45762563376E+03  0.45762563376E+03  0.00000000000E+00 0. -1.
         -2   -1    0    0    0  501 -0.00000000000E+00 -0.00000000000E+00 -0.14903294671E+02  0.14903294671E+02  0.00000000000E+00 0.  1.
         24    1    1    2    0    0  0.10743781394E+02  0.12352381412E+02  0.19499997948E+03  0.21156610815E+03  0.80419002446E+02 0. -1.
        -24    1    1    2    0    0 -0.10743781394E+02 -0.12352381412E+02  0.24772235961E+03  0.26096282028E+03  0.80419002446E+02 0.  1.
<mgrwt>
<rscale>  0 0.82068434E+02</rscale>
<asrwt>0</asrwt>
<pdfrwt beam="1">  1        2 0.70403933E-01 0.82068444E+02</pdfrwt>
<pdfrwt beam="2">  1       -2 0.22928149E-02 0.82068444E+02</pdfrwt>
<totfact> 0.38094650E+04</totfact>
</mgrwt>
</event>
<event>
 4    1  0.4940461E-001  0.8188502E+02  0.7546771E-02  0.1323786E+00
         -2   -1    0    0    0  501 -0.00000000000E+00  0.00000000000E+00  0.17669860858E+02  0.17669860858E+02  0.00000000000E+00 0.  1.
          2   -1    0    0  501    0  0.00000000000E+00 -0.00000000000E+00 -0.52751866511E+03  0.52751866511E+03  0.00000000000E+00 0. -1.
         24    1    1    2    0    0 -0.23713474942E+01 -0.15241963993E+02 -0.39933602599E+03  0.40764496607E+03  0.80419002446E+02 0.  1.
        -24    1    1    2    0    0  0.23713474942E+01  0.15241963993E+02 -0.11051277826E+03  0.13754355990E+03  0.80419002446E+02 0.  1.
<mgrwt>
<rscale>  0 0.81885021E+02</rscale>
<asrwt>0</asrwt>
<pdfrwt beam="1">  1        2 0.81156701E-01 0.81885021E+02</pdfrwt>
<pdfrwt beam="2">  1       -2 0.27184407E-02 0.81885021E+02</pdfrwt>
<totfact> 0.25580310E+04</totfact>
</mgrwt>
</event>
<event>
 4    1  0.4940461E-001  0.1588958E+03  0.7546771E-02  0.1189949E+00
          2   -1    0    0  501    0  0.00000000000E+00  0.00000000000E+00  0.14895641436E+04  0.14895641436E+04  0.00000000000E+00 0. -1.
         -2   -1    0    0    0  501 -0.00000000000E+00 -0.00000000000E+00 -0.17003550074E+02  0.17003550074E+02  0.00000000000E+00 0.  1.
         24    1    1    2    0    0 -0.12814041461E+03  0.48587057016E+02  0.77861431985E+03  0.79466228235E+03  0.80419002446E+02 0.  1.
        -24    1    1    2    0    0  0.12814041461E+03 -0.48587057016E+02  0.69394627372E+03  0.71190541136E+03  0.80419002446E+02 0. -1.
<mgrwt>
<rscale>  0 0.15889583E+03</rscale>
<asrwt>0</asrwt>
<pdfrwt beam="1">  1        2 0.22916361E+00 0.15889583E+03</pdfrwt>
<pdfrwt beam="2">  1       -2 0.26159320E-02 0.15889583E+03</pdfrwt>
<totfact> 0.70751090E+03</totfact>
</mgrwt>
</event>
<event>
 4    1  0.4940461E-001  0.8499759E+02  0.7546771E-02  0.1315439E+00
          1   -1    0    0  501    0  0.00000000000E+00  0.00000000000E+00  0.16702163961E+03  0.16702163961E+03  0.00000000000E+00 0. -1.
         -1   -1    0    0    0  501 -0.00000000000E+00 -0.00000000000E+00 -0.21316431621E+03  0.21316431621E+03  0.00000000000E+00 0.  1.
         24    1    1    2    0    0  0.21328212700E+02  0.17391982241E+02 -0.19278503462E+03  0.21069090923E+03  0.80419002446E+02 0.  0.
        -24    1    1    2    0    0 -0.21328212700E+02 -0.17391982241E+02  0.14664235801E+03  0.16949504660E+03  0.80419002446E+02 0. -1.
<mgrwt>
<rscale>  0 0.84997586E+02</rscale>
<asrwt>0</asrwt>
<pdfrwt beam="1">  1        1 0.25695637E-01 0.84997586E+02</pdfrwt>
<pdfrwt beam="2">  1       -1 0.32794510E-01 0.84997586E+02</pdfrwt>
<totfact> 0.15593996E+03</totfact>
</mgrwt>
</event>
<event>
 4    1  0.4940461E-001  0.8554979E+02  0.7546771E-02  0.1314001E+00
         -3   -1    0    0    0  501 -0.00000000000E+00  0.00000000000E+00  0.29515444751E+01  0.29515444751E+01  0.00000000000E+00 0.  1.
          3   -1    0    0  501    0  0.00000000000E+00 -0.00000000000E+00 -0.25231287463E+04  0.25231287463E+04  0.00000000000E+00 0. -1.
         24    1    1    2    0    0 -0.99670643594E+01  0.27426410453E+02 -0.10942680688E+04  0.10976071122E+04  0.80419002446E+02 0.  1.
        -24    1    1    2    0    0  0.99670643594E+01 -0.27426410453E+02 -0.14259091330E+04  0.14284731786E+04  0.80419002446E+02 0. -1.
<mgrwt>
<rscale>  0 0.85549789E+02</rscale>
<asrwt>0</asrwt>
<pdfrwt beam="1">  1        3 0.38817432E+00 0.85549789E+02</pdfrwt>
<pdfrwt beam="2">  1       -3 0.45408298E-03 0.85549789E+02</pdfrwt>
<totfact> 0.31767107E+02</totfact>
</mgrwt>
</event>
<event>
 4    1  0.4940461E-001  0.9259508E+02  0.7546771E-02  0.1296686E+00
          2   -1    0    0  501    0  0.00000000000E+00  0.00000000000E+00  0.14764576330E+04  0.14764576330E+04  0.00000000000E+00 0. -1.
         -2   -1    0    0    0  501 -0.00000000000E+00 -0.00000000000E+00 -0.66201010987E+01  0.66201010987E+01  0.00000000000E+00 0.  1.
         24    1    1    2    0    0 -0.81568960482E+01 -0.45167442488E+02  0.99479296082E+03  0.99909303053E+03  0.80419002446E+02 0.  0.
        -24    1    1    2    0    0  0.81568960482E+01  0.45167442488E+02  0.47504457105E+03  0.48398470354E+03  0.80419002446E+02 0.  1.
<mgrwt>
<rscale>  0 0.92595080E+02</rscale>
<asrwt>0</asrwt>
<pdfrwt beam="1">  1        2 0.22714707E+00 0.92595080E+02</pdfrwt>
<pdfrwt beam="2">  1       -2 0.10184783E-02 0.92595080E+02</pdfrwt>
<totfact> 0.27172087E+04</totfact>
</mgrwt>
</event>
<event>
 4    1  0.4940461E-001  0.8049611E+02  0.7546771E-02  0.1327649E+00
          2   -1    0    0  501    0  0.00000000000E+00  0.00000000000E+00  0.64339537087E+03  0.64339537087E+03  0.00000000000E+00 0. -1.
         -2   -1    0    0    0  501 -0.00000000000E+00 -0.00000000000E+00 -0.15144709231E+02  0.15144709231E+02  0.00000000000E+00 0.  1.
         24    1    1    2    0    0 -0.35193888456E+01  0.14737490655E+00  0.50470881676E+03  0.51108767691E+03  0.80419002446E+02 0.  0.
        -24    1    1    2    0    0  0.35193888456E+01 -0.14737490655E+00  0.12354184488E+03  0.14745240320E+03  0.80419002446E+02 0.  1.
<mgrwt>
<rscale>  0 0.80496110E+02</rscale>
<asrwt>0</asrwt>
<pdfrwt beam="1">  1        2 0.98983882E-01 0.80496110E+02</pdfrwt>
<pdfrwt beam="2">  1       -2 0.23299558E-02 0.80496110E+02</pdfrwt>
<totfact> 0.25595466E+04</totfact>
</mgrwt>
</event>
<event>
 4    1  0.4940461E-001  0.8659433E+02  0.7546771E-02  0.1311315E+00
          1   -1    0    0  501    0  0.00000000000E+00  0.00000000000E+00  0.50108083470E+02  0.50108083470E+02  0.00000000000E+00 0. -1.
         -1   -1    0    0    0  501 -0.00000000000E+00 -0.00000000000E+00 -0.15030994619E+03  0.15030994619E+03  0.00000000000E+00 0.  1.
         24    1    1    2    0    0  0.28323406602E+02  0.15137462181E+02 -0.43450851187E+02  0.96884212058E+02  0.80419002446E+02 0.  1.
        -24    1    1    2    0    0 -0.28323406602E+02 -0.15137462181E+02 -0.56751011530E+02  0.10353381760E+03  0.80419002446E+02 0. -1.
<mgrwt>
<rscale>  0 0.86594318E+02</rscale>
<asrwt>0</asrwt>
<pdfrwt beam="1">  1        1 0.77089360E-02 0.86594329E+02</pdfrwt>
<pdfrwt beam="2">  1       -1 0.23124607E-01 0.86594329E+02</pdfrwt>
<totfact> 0.12953799E+04</totfact>
</mgrwt>
</event>
<event>
 4    1  0.4940461E-001  0.9613491E+02  0.7546771E-02  0.1288640E+00
          1   -1    0    0  501    0  0.00000000000E+00  0.00000000000E+00  0.25548981469E+03  0.25548981469E+03  0.00000000000E+00 0. -1.
         -1   -1    0    0    0  501 -0.00000000000E+00 -0.00000000000E+00 -0.85877599340E+02  0.85877599340E+02  0.00000000000E+00 0.  1.
         24    1    1    2    0    0 -0.51549318210E+02 -0.10833886210E+02 -0.45045969014E+02  0.10616525127E+03  0.80419002446E+02 0.  1.
        -24    1    1    2    0    0  0.51549318210E+02  0.10833886210E+02  0.21465818436E+03  0.23520216276E+03  0.80419002446E+02 0. -1.
<mgrwt>
<rscale>  0 0.96134912E+02</rscale>
<asrwt>0</asrwt>
<pdfrwt beam="1">  1        1 0.39306125E-01 0.96134912E+02</pdfrwt>
<pdfrwt beam="2">  1       -1 0.13211938E-01 0.96134912E+02</pdfrwt>
<totfact> 0.39870682E+03</totfact>
</mgrwt>
</event>
<event>
 4    1  0.4940461E-001  0.1009192E+03  0.7546771E-02  0.1278375E+00
         -2   -1    0    0    0  501 -0.00000000000E+00  0.00000000000E+00  0.35177891316E+01  0.35177891316E+01  0.00000000000E+00 0.  1.
          2   -1    0    0  501    0  0.00000000000E+00 -0.00000000000E+00 -0.29185083102E+04  0.29185083102E+04  0.00000000000E+00 0. -1.
         24    1    1    2    0    0 -0.31640066204E+02  0.52118746603E+02 -0.13269060168E+04  0.13307382353E+04  0.80419002446E+02 0. -1.
        -24    1    1    2    0    0  0.31640066204E+02 -0.52118746603E+02 -0.15880845043E+04  0.15912878640E+04  0.80419002446E+02 0.  0.
<mgrwt>
<rscale>  0 0.10091916E+03</rscale>
<asrwt>0</asrwt>
<pdfrwt beam="1">  1        2 0.44900159E+00 0.10091917E+03</pdfrwt>
<pdfrwt beam="2">  1       -2 0.54119796E-03 0.10091917E+03</pdfrwt>
<totfact> 0.11890626E+04</totfact>
</mgrwt>
</event>
<event>
 4    1  0.4940461E-001  0.8462969E+02  0.7546771E-02  0.1316404E+00
         -1   -1    0    0    0  501 -0.00000000000E+00  0.00000000000E+00  0.50943662976E+02  0.50943662976E+02  0.00000000000E+00 0.  1.
          1   -1    0    0  501    0  0.00000000000E+00 -0.00000000000E+00 -0.14266795864E+03  0.14266795864E+03  0.00000000000E+00 0. -1.
         24    1    1    2    0    0 -0.65474954787E-01  0.26362090311E+02 -0.57544631325E+02  0.10234043503E+03  0.80419002446E+02 0. -1.
        -24    1    1    2    0    0  0.65474954787E-01 -0.26362090311E+02 -0.34179664334E+02  0.91271186587E+02  0.80419002446E+02 0.  1.
<mgrwt>
<rscale>  0 0.84629675E+02</rscale>
<asrwt>0</asrwt>
<pdfrwt beam="1">  1        1 0.21948917E-01 0.84629685E+02</pdfrwt>
<pdfrwt beam="2">  1       -1 0.78374866E-02 0.84629685E+02</pdfrwt>
<totfact> 0.17790247E+04</totfact>
</mgrwt>
</event>
<event>
 4    1  0.4940461E-001  0.9813640E+02  0.7546771E-02  0.1284264E+00
         -1   -1    0    0    0  501 -0.00000000000E+00  0.00000000000E+00  0.10159047888E+02  0.10159047888E+02  0.00000000000E+00 0.  1.
          1   -1    0    0  501    0  0.00000000000E+00 -0.00000000000E+00 -0.16016923416E+04  0.16016923416E+04  0.00000000000E+00 0. -1.
         24    1    1    2    0    0 -0.16474849339E+02 -0.53778409586E+02 -0.28090218276E+03  0.29755132369E+03  0.80419002446E+02 0.  1.
        -24    1    1    2    0    0  0.16474849339E+02  0.53778409586E+02 -0.13106311109E+04  0.13143000658E+04  0.80419002446E+02 0. -1.
<mgrwt>
<rscale>  0 0.98136405E+02</rscale>
<asrwt>0</asrwt>
<pdfrwt beam="1">  1        1 0.24641442E+00 0.98136405E+02</pdfrwt>
<pdfrwt beam="2">  1       -1 0.15629291E-02 0.98136405E+02</pdfrwt>
<totfact> 0.58506127E+03</totfact>
</mgrwt>
</event>
<event>
 4    1  0.4940461E-001  0.1106603E+03  0.7546771E-02  0.1259352E+00
          1   -1    0    0  501    0  0.00000000000E+00  0.00000000000E+00  0.20237750925E+04  0.20237750925E+04  0.00000000000E+00 0. -1.
         -1   -1    0    0    0  501 -0.00000000000E+00 -0.00000000000E+00 -0.12530602734E+02  0.12530602734E+02  0.00000000000E+00 0.  1.
         24    1    1    2    0    0 -0.75976489093E+02  0.24601979241E+01  0.27346567152E+03  0.29500706589E+03  0.80419002446E+02 0.  1.
        -24    1    1    2    0    0  0.75976489093E+02 -0.24601979241E+01  0.17377788183E+04  0.17412986294E+04  0.80419002446E+02 0. -1.
<mgrwt>
<rscale>  0 0.11066027E+03</rscale>
<asrwt>0</asrwt>
<pdfrwt beam="1">  1        1 0.31134975E+00 0.11066027E+03</pdfrwt>
<pdfrwt beam="2">  1       -1 0.19277866E-02 0.11066027E+03</pdfrwt>
<totfact> 0.23547226E+03</totfact>
</mgrwt>
</event>
<event>
 4    1  0.4940461E-001  0.8780035E+02  0.7546771E-02  0.1308268E+00
          2   -1    0    0  501    0  0.00000000000E+00  0.00000000000E+00  0.11398326863E+03  0.11398326863E+03  0.00000000000E+00 0. -1.
         -2   -1    0    0    0  501 -0.00000000000E+00 -0.00000000000E+00 -0.99759636343E+02  0.99759636343E+02  0.00000000000E+00 0.  1.
         24    1    1    2    0    0 -0.82687051111E+01 -0.34253681029E+02  0.67760938426E+02  0.11090737973E+03  0.80419002446E+02 0. -1.
        -24    1    1    2    0    0  0.82687051111E+01  0.34253681029E+02 -0.53537306140E+02  0.10283552524E+03  0.80419002446E+02 0.  1.
<mgrwt>
<rscale>  0 0.87800354E+02</rscale>
<asrwt>0</asrwt>
<pdfrwt beam="1">  1        2 0.17535888E-01 0.87800354E+02</pdfrwt>
<pdfrwt beam="2">  1       -2 0.15347636E-01 0.87800354E+02</pdfrwt>
<totfact> 0.96526224E+03</totfact>
</mgrwt>
</event>
<event>
 4    1  0.4940461E-001  0.9525277E+02  0.7546771E-02  0.1290608E+00
         -2   -1    0    0    0  501 -0.00000000000E+00  0.00000000000E+00  0.65996823896E+02  0.65996823896E+02  0.00000000000E+00 0.  1.
          2   -1    0    0  501    0  0.00000000000E+00 -0.00000000000E+00 -0.21183752191E+03  0.21183752191E+03  0.00000000000E+00 0. -1.
         24    1    1    2    0    0 -0.40125393825E+02 -0.31556736121E+02 -0.15522487113E+03  0.18212043102E+03  0.80419002446E+02 0. -1.
        -24    1    1    2    0    0  0.40125393825E+02  0.31556736121E+02  0.93841731134E+01  0.95713914786E+02  0.80419002446E+02 0.  1.
<mgrwt>
<rscale>  0 0.95252773E+02</rscale>
<asrwt>0</asrwt>
<pdfrwt beam="1">  1        2 0.32590388E-01 0.95252773E+02</pdfrwt>
<pdfrwt beam="2">  1       -2 0.10153358E-01 0.95252773E+02</pdfrwt>
<totfact> 0.95017386E+03</totfact>
</mgrwt>
</event>
<event>
 4    1  0.4940461E-001  0.9458883E+02  0.7546771E-02  0.1292105E+00
          2   -1    0    0  501    0  0.00000000000E+00  0.00000000000E+00  0.29561914413E+04  0.29561914413E+04  0.00000000000E+00 0. -1.
         -2   -1    0    0    0  501 -0.00000000000E+00 -0.00000000000E+00 -0.34087250567E+01  0.34087250567E+01  0.00000000000E+00 0.  1.
         24    1    1    2    0    0  0.20368513322E+01 -0.49756233111E+02  0.19718881809E+04  0.19741555272E+04  0.80419002446E+02 0. -1.
        -24    1    1    2    0    0 -0.20368513322E+01  0.49756233111E+02  0.98089453530E+03  0.98544463915E+03  0.80419002446E+02 0.  1.
<mgrwt>
<rscale>  0 0.94588834E+02</rscale>
<asrwt>0</asrwt>
<pdfrwt beam="1">  1        2 0.45479663E+00 0.94588834E+02</pdfrwt>
<pdfrwt beam="2">  1       -2 0.52442160E-03 0.94588834E+02</pdfrwt>
<totfact> 0.11815418E+04</totfact>
</mgrwt>
</event>
<event>
 4    1  0.4940461E-001  0.1006742E+03  0.7546771E-02  0.1278884E+00
          2   -1    0    0  501    0  0.00000000000E+00  0.00000000000E+00  0.79920109373E+02  0.79920109373E+02  0.00000000000E+00 0. -1.
         -2   -1    0    0    0  501 -0.00000000000E+00 -0.00000000000E+00 -0.13263948694E+03  0.13263948694E+03  0.00000000000E+00 0.  1.
         24    1    1    2    0    0  0.53558060945E+02 -0.28277543570E+02 -0.40940792767E+01  0.10075744539E+03  0.80419002446E+02 0. -1.
        -24    1    1    2    0    0 -0.53558060945E+02  0.28277543570E+02 -0.48625298292E+02  0.11180215092E+03  0.80419002446E+02 0.  1.
<mgrwt>
<rscale>  0 0.10067423E+03</rscale>
<asrwt>0</asrwt>
<pdfrwt beam="1">  1        2 0.12295402E-01 0.10067423E+03</pdfrwt>
<pdfrwt beam="2">  1       -2 0.20406075E-01 0.10067423E+03</pdfrwt>
<totfact> 0.92204619E+03</totfact>
</mgrwt>
</event>
<event>
 4    1  0.4940461E-001  0.1561099E+03  0.7546771E-02  0.1193160E+00
          2   -1    0    0  501    0  0.00000000000E+00  0.00000000000E+00  0.18830090254E+04  0.18830090254E+04  0.00000000000E+00 0. -1.
         -2   -1    0    0    0  501 -0.00000000000E+00 -0.00000000000E+00 -0.14191524603E+02  0.14191524603E+02  0.00000000000E+00 0.  1.
         24    1    1    2    0    0  0.11628558641E+03 -0.66187167398E+02  0.12158611493E+04  0.12258420082E+04  0.80419002446E+02 0.  1.
        -24    1    1    2    0    0 -0.11628558641E+03  0.66187167398E+02  0.65295635146E+03  0.67135854176E+03  0.80419002446E+02 0. -1.
<mgrwt>
<rscale>  0 0.15610988E+03</rscale>
<asrwt>0</asrwt>
<pdfrwt beam="1">  1        2 0.28969350E+00 0.15610988E+03</pdfrwt>
<pdfrwt beam="2">  1       -2 0.21833130E-02 0.15610988E+03</pdfrwt>
<totfact> 0.57684990E+03</totfact>
</mgrwt>
</event>
<event>
 4    1  0.4940461E-001  0.8064581E+02  0.7546771E-02  0.1327229E+00
         -1   -1    0    0    0  501 -0.00000000000E+00  0.00000000000E+00  0.96187537167E+01  0.96187537167E+01  0.00000000000E+00 0.  1.
          1   -1    0    0  501    0  0.00000000000E+00 -0.00000000000E+00 -0.87761160355E+03  0.87761160355E+03  0.00000000000E+00 0. -1.
         24    1    1    2    0    0  0.34709275502E+00 -0.60341340255E+01 -0.22145266910E+03  0.23567993519E+03  0.80419002446E+02 0.  0.
        -24    1    1    2    0    0 -0.34709275502E+00  0.60341340255E+01 -0.64654018074E+03  0.65155042208E+03  0.80419002446E+02 0. -1.
<mgrwt>
<rscale>  0 0.80645813E+02</rscale>
<asrwt>0</asrwt>
<pdfrwt beam="1">  1        1 0.13501719E+00 0.80645813E+02</pdfrwt>
<pdfrwt beam="2">  1       -1 0.14798080E-02 0.80645813E+02</pdfrwt>
<totfact> 0.19267448E+04</totfact>
</mgrwt>
</event>
<event>
 4    1  0.4940461E-001  0.9880637E+02  0.7546771E-02  0.1282826E+00
          1   -1    0    0  501    0  0.00000000000E+00  0.00000000000E+00  0.52093101206E+02  0.52093101206E+02  0.00000000000E+00 0. -1.
         -1   -1    0    0    0  501 -0.00000000000E+00 -0.00000000000E+00 -0.47899089411E+03  0.47899089411E+03  0.00000000000E+00 0.  1.
         24    1    1    2    0    0  0.27404417689E+02  0.50442842644E+02 -0.42062998807E+03  0.43207902668E+03  0.80419002446E+02 0.  1.
        -24    1    1    2    0    0 -0.27404417689E+02 -0.50442842644E+02 -0.62678048393E+01  0.99004968637E+02  0.80419002446E+02 0. -1.
<mgrwt>
<rscale>  0 0.98806368E+02</rscale>
<asrwt>0</asrwt>
<pdfrwt beam="1">  1        1 0.80143231E-02 0.98806368E+02</pdfrwt>
<pdfrwt beam="2">  1       -1 0.73690909E-01 0.98806368E+02</pdfrwt>
<totfact> 0.16133166E+03</totfact>
</mgrwt>
</event>
<event>
 4    1  0.4940461E-001  0.8333808E+02  0.7546771E-02  0.1319837E+00
          1   -1    0    0  501    0  0.00000000000E+00  0.00000000000E+00  0.23179618271E+02  0.23179618271E+02  0.00000000000E+00 0. -1.
         -1   -1    0    0    0  501 -0.00000000000E+00 -0.00000000000E+00 -0.30491586292E+03  0.30491586292E+03  0.00000000000E+00 0.  1.
         24    1    1    2    0    0  0.10500246096E+02 -0.19177081557E+02 -0.11926207119E+03  0.14549458136E+03  0.80419002446E+02 0.  0.
        -24    1    1    2    0    0 -0.10500246096E+02  0.19177081557E+02 -0.16247417346E+03  0.18260089983E+03  0.80419002446E+02 0. -1.
<mgrwt>
<rscale>  0 0.83338066E+02</rscale>
<asrwt>0</asrwt>
<pdfrwt beam="1">  1        1 0.35660952E-02 0.83338077E+02</pdfrwt>
<pdfrwt beam="2">  1       -1 0.46910132E-01 0.83338077E+02</pdfrwt>
<totfact> 0.11045173E+04</totfact>
</mgrwt>
</event>
<event>
 4    1  0.4940461E-001  0.9634375E+02  0.7546771E-02  0.1288178E+00
         -2   -1    0    0    0  501 -0.00000000000E+00  0.00000000000E+00  0.34218155916E+02  0.34218155916E+02  0.00000000000E+00 0.  1.
          2   -1    0    0  501    0  0.00000000000E+00 -0.00000000000E+00 -0.42759616559E+03  0.42759616559E+03  0.00000000000E+00 0. -1.
         24    1    1    2    0    0 -0.14375904104E+01 -0.53036175069E+02 -0.33630851420E+03  0.34983644065E+03  0.80419002446E+02 0. -1.
        -24    1    1    2    0    0  0.14375904104E+01  0.53036175069E+02 -0.57069495475E+02  0.11197788085E+03  0.80419002446E+02 0.  1.
<mgrwt>
<rscale>  0 0.96343752E+02</rscale>
<asrwt>0</asrwt>
<pdfrwt beam="1">  1        2 0.65784027E-01 0.96343752E+02</pdfrwt>
<pdfrwt beam="2">  1       -2 0.52643315E-02 0.96343752E+02</pdfrwt>
<totfact> 0.12348283E+04</totfact>
</mgrwt>
</event>
<event>
 4    1  0.4940461E-001  0.8743138E+02  0.7546771E-02  0.1309194E+00
          3   -1    0    0  501    0  0.00000000000E+00  0.00000000000E+00  0.60637001007E+02  0.60637001007E+02  0.00000000000E+00 0. -1.
         -3   -1    0    0    0  501 -0.00000000000E+00 -0.00000000000E+00 -0.12609194691E+03  0.12609194691E+03  0.00000000000E+00 0.  1.
         24    1    1    2    0    0  0.33720564089E+02  0.63205356615E+01 -0.31378578737E+02  0.92891639944E+02  0.80419002446E+02 0.  1.
        -24    1    1    2    0    0 -0.33720564089E+02 -0.63205356615E+01 -0.34076367162E+02  0.93837307969E+02  0.80419002446E+02 0. -1.
<mgrwt>
<rscale>  0 0.87431364E+02</rscale>
<asrwt>0</asrwt>
<pdfrwt beam="1">  1        3 0.93287695E-02 0.87431375E+02</pdfrwt>
<pdfrwt beam="2">  1       -3 0.19398761E-01 0.87431375E+02</pdfrwt>
<totfact> 0.40790113E+03</totfact>
</mgrwt>
</event>
<event>
 4    1  0.4940461E-001  0.1062908E+03  0.7546771E-02  0.1267597E+00
          2   -1    0    0  501    0  0.00000000000E+00  0.00000000000E+00  0.80757346887E+03  0.80757346887E+03  0.00000000000E+00 0. -1.
         -2   -1    0    0    0  501 -0.00000000000E+00 -0.00000000000E+00 -0.17554879520E+02  0.17554879520E+02  0.00000000000E+00 0.  1.
         24    1    1    2    0    0 -0.52654312074E+02  0.45365669746E+02  0.58093152854E+03  0.59057529357E+03  0.80419002446E+02 0. -1.
        -24    1    1    2    0    0  0.52654312074E+02 -0.45365669746E+02  0.20908706081E+03  0.23455305482E+03  0.80419002446E+02 0.  0.
<mgrwt>
<rscale>  0 0.10629081E+03</rscale>
<asrwt>0</asrwt>
<pdfrwt beam="1">  1        2 0.12424204E+00 0.10629081E+03</pdfrwt>
<pdfrwt beam="2">  1       -2 0.27007513E-02 0.10629081E+03</pdfrwt>
<totfact> 0.16223204E+04</totfact>
</mgrwt>
</event>
<event>
 4    1  0.4940461E-001  0.1382014E+03  0.7546771E-02  0.1215770E+00
         -2   -1    0    0    0  501 -0.00000000000E+00  0.00000000000E+00  0.16424164619E+03  0.16424164619E+03  0.00000000000E+00 0.  1.
          2   -1    0    0  501    0  0.00000000000E+00 -0.00000000000E+00 -0.52351188580E+03  0.52351188580E+03  0.00000000000E+00 0. -1.
         24    1    1    2    0    0 -0.11204925152E+03  0.87960476971E+01 -0.48292313248E+03  0.50230904139E+03  0.80419002446E+02 0. -1.
        -24    1    1    2    0    0  0.11204925152E+03 -0.87960476971E+01  0.12365289288E+03  0.18544449059E+03  0.80419002446E+02 0.  1.
<mgrwt>
<rscale>  0 0.13820138E+03</rscale>
<asrwt>0</asrwt>
<pdfrwt beam="1">  1        2 0.80540290E-01 0.13820138E+03</pdfrwt>
<pdfrwt beam="2">  1       -2 0.25267945E-01 0.13820138E+03</pdfrwt>
<totfact> 0.82416651E+02</totfact>
</mgrwt>
</event>
<event>
 4    1  0.4940461E-001  0.8993501E+02  0.7546771E-02  0.1303009E+00
          2   -1    0    0  501    0  0.00000000000E+00  0.00000000000E+00  0.52541833917E+03  0.52541833917E+03  0.00000000000E+00 0. -1.
         -2   -1    0    0    0  501 -0.00000000000E+00 -0.00000000000E+00 -0.62286089513E+02  0.62286089513E+02  0.00000000000E+00 0.  1.
         24    1    1    2    0    0 -0.16331479685E+02 -0.36801794040E+02  0.48653260741E+03  0.49477498249E+03  0.80419002446E+02 0. -1.
        -24    1    1    2    0    0  0.16331479685E+02  0.36801794040E+02 -0.23400357748E+02  0.92929446196E+02  0.80419002446E+02 0.  1.
<mgrwt>
<rscale>  0 0.89935006E+02</rscale>
<asrwt>0</asrwt>
<pdfrwt beam="1">  1        2 0.80833588E-01 0.89935006E+02</pdfrwt>
<pdfrwt beam="2">  1       -2 0.95824757E-02 0.89935006E+02</pdfrwt>
<totfact> 0.39674308E+03</totfact>
</mgrwt>
</event>
<event>
 4    1  0.4940461E-001  0.1118338E+03  0.7546771E-02  0.1257211E+00
          2   -1    0    0  501    0  0.00000000000E+00  0.00000000000E+00  0.13000341886E+04  0.13000341886E+04  0.00000000000E+00 0. -1.
         -2   -1    0    0    0  501 -0.00000000000E+00 -0.00000000000E+00 -0.18853320133E+02  0.18853320133E+02  0.00000000000E+00 0.  1.
         24    1    1    2    0    0  0.19365252974E+02  0.75263312477E+02  0.11020719917E+04  0.11077316779E+04  0.80419002446E+02 0. -1.
        -24    1    1    2    0    0 -0.19365252974E+02 -0.75263312477E+02  0.17910887669E+03  0.21115583083E+03  0.80419002446E+02 0.  1.
<mgrwt>
<rscale>  0 0.11183378E+03</rscale>
<asrwt>0</asrwt>
<pdfrwt beam="1">  1        2 0.20000519E+00 0.11183378E+03</pdfrwt>
<pdfrwt beam="2">  1       -2 0.29005118E-02 0.11183378E+03</pdfrwt>
<totfact> 0.75607684E+03</totfact>
</mgrwt>
</event>
<event>
 4    1  0.4940461E-001  0.1149084E+03  0.7546771E-02  0.1251741E+00
         -2   -1    0    0    0  501 -0.00000000000E+00  0.00000000000E+00  0.28714579523E+02  0.28714579523E+02  0.00000000000E+00 0.  1.
          2   -1    0    0  501    0  0.00000000000E+00 -0.00000000000E+00 -0.58020437841E+03  0.58020437841E+03  0.00000000000E+00 0. -1.
         24    1    1    2    0    0 -0.62694961146E+02  0.52972256657E+02 -0.41442022085E+03  0.43005587257E+03  0.80419002446E+02 0. -1.
        -24    1    1    2    0    0  0.62694961146E+02 -0.52972256657E+02 -0.13706957804E+03  0.17886308537E+03  0.80419002446E+02 0.  0.
<mgrwt>
<rscale>  0 0.11490837E+03</rscale>
<asrwt>0</asrwt>
<pdfrwt beam="1">  1        2 0.89262208E-01 0.11490837E+03</pdfrwt>
<pdfrwt beam="2">  1       -2 0.44176278E-02 0.11490837E+03</pdfrwt>
<totfact> 0.11666686E+04</totfact>
</mgrwt>
</event>
<event>
 4    1  0.4940461E-001  0.1178971E+03  0.7546771E-02  0.1246607E+00
          2   -1    0    0  501    0  0.00000000000E+00  0.00000000000E+00  0.55101165128E+03  0.55101165128E+03  0.00000000000E+00 0. -1.
         -2   -1    0    0    0  501 -0.00000000000E+00 -0.00000000000E+00 -0.64492501740E+02  0.64492501740E+02  0.00000000000E+00 0.  1.
         24    1    1    2    0    0  0.28726831853E+02 -0.81285148441E+02  0.48339623520E+03  0.49756571665E+03  0.80419002446E+02 0. -1.
        -24    1    1    2    0    0 -0.28726831853E+02  0.81285148441E+02  0.31229143410E+01  0.11793843637E+03  0.80419002446E+02 0.  1.
<mgrwt>
<rscale>  0 0.11789708E+03</rscale>
<asrwt>0</asrwt>
<pdfrwt beam="1">  1        2 0.84771020E-01 0.11789708E+03</pdfrwt>
<pdfrwt beam="2">  1       -2 0.99219237E-02 0.11789708E+03</pdfrwt>
<totfact> 0.36145371E+03</totfact>
</mgrwt>
</event>
<event>
 4    1  0.4940461E-001  0.1156759E+03  0.7546771E-02  0.1250406E+00
         -2   -1    0    0    0  501 -0.00000000000E+00  0.00000000000E+00  0.32243544494E+02  0.32243544494E+02  0.00000000000E+00 0.  1.
          2   -1    0    0  501    0  0.00000000000E+00 -0.00000000000E+00 -0.68236914857E+03  0.68236914857E+03  0.00000000000E+00 0. -1.
         24    1    1    2    0    0 -0.72266568060E+02  0.41124580954E+02 -0.54872412604E+03  0.56078433508E+03  0.80419002446E+02 0. -1.
        -24    1    1    2    0    0  0.72266568060E+02 -0.41124580954E+02 -0.10140147803E+03  0.15382835798E+03  0.80419002446E+02 0.  1.
<mgrwt>
<rscale>  0 0.11567586E+03</rscale>
<asrwt>0</asrwt>
<pdfrwt beam="1">  1        2 0.10497986E+00 0.11567586E+03</pdfrwt>
<pdfrwt beam="2">  1       -2 0.49605457E-02 0.11567586E+03</pdfrwt>
<totfact> 0.81564816E+03</totfact>
</mgrwt>
</event>
<event>
 4    1  0.4940461E-001  0.8759838E+02  0.7546771E-02  0.1308774E+00
          1   -1    0    0  501    0  0.00000000000E+00  0.00000000000E+00  0.15150143334E+02  0.15150143334E+02  0.00000000000E+00 0. -1.
         -1   -1    0    0    0  501 -0.00000000000E+00 -0.00000000000E+00 -0.72666318669E+03  0.72666318669E+03  0.00000000000E+00 0.  1.
         24    1    1    2    0    0  0.54009212093E+01 -0.34308752289E+02 -0.55991858452E+03  0.56672947486E+03  0.80419002446E+02 0.  1.
        -24    1    1    2    0    0 -0.54009212093E+01  0.34308752289E+02 -0.15159445884E+03  0.17508385516E+03  0.80419002446E+02 0. -1.
<mgrwt>
<rscale>  0 0.87598381E+02</rscale>
<asrwt>0</asrwt>
<pdfrwt beam="1">  1        1 0.23307911E-02 0.87598381E+02</pdfrwt>
<pdfrwt beam="2">  1       -1 0.11179435E+00 0.87598381E+02</pdfrwt>
<totfact> 0.35402488E+03</totfact>
</mgrwt>
</event>
<event>
 4    1  0.4940461E-001  0.8936550E+02  0.7546771E-02  0.1304396E+00
          1   -1    0    0  501    0  0.00000000000E+00  0.00000000000E+00  0.25466193820E+03  0.25466193820E+03  0.00000000000E+00 0. -1.
         -1   -1    0    0    0  501 -0.00000000000E+00 -0.00000000000E+00 -0.11956348842E+03  0.11956348842E+03  0.00000000000E+00 0.  1.
         24    1    1    2    0    0  0.29478262791E+02 -0.25495267075E+02 -0.93162271425E+02  0.12909454439E+03  0.80419002446E+02 0.  1.
        -24    1    1    2    0    0 -0.29478262791E+02  0.25495267075E+02  0.22826072120E+03  0.24513088222E+03  0.80419002446E+02 0. -1.
<mgrwt>
<rscale>  0 0.89365500E+02</rscale>
<asrwt>0</asrwt>
<pdfrwt beam="1">  1        1 0.39178760E-01 0.89365500E+02</pdfrwt>
<pdfrwt beam="2">  1       -1 0.18394383E-01 0.89365500E+02</pdfrwt>
<totfact> 0.23823518E+03</totfact>
</mgrwt>
</event>
<event>
 4    1  0.4940461E-001  0.1544732E+03  0.7546771E-02  0.1195082E+00
         -1   -1    0    0    0  501 -0.00000000000E+00  0.00000000000E+00  0.53462168122E+02  0.53462168122E+02  0.00000000000E+00 0.  1.
          1   -1    0    0  501    0  0.00000000000E+00 -0.00000000000E+00 -0.49814357323E+03  0.49814357323E+03  0.00000000000E+00 0. -1.
         24    1    1    2    0    0  0.43506849437E+02  0.12450671402E+03 -0.13339468802E+03  0.20409832564E+03  0.80419002446E+02 0.  1.
        -24    1    1    2    0    0 -0.43506849437E+02 -0.12450671402E+03 -0.31128671709E+03  0.34750741571E+03  0.80419002446E+02 0. -1.
<mgrwt>
<rscale>  0 0.15447325E+03</rscale>
<asrwt>0</asrwt>
<pdfrwt beam="1">  1        1 0.76637476E-01 0.15447325E+03</pdfrwt>
<pdfrwt beam="2">  1       -1 0.82249486E-02 0.15447325E+03</pdfrwt>
<totfact> 0.36527272E+03</totfact>
</mgrwt>
</event>
<event>
 4    1  0.4940461E-001  0.8344874E+02  0.7546771E-02  0.1319540E+00
         -1   -1    0    0    0  501 -0.00000000000E+00  0.00000000000E+00  0.21610488208E+02  0.21610488208E+02  0.00000000000E+00 0.  1.
          1   -1    0    0  501    0  0.00000000000E+00 -0.00000000000E+00 -0.13663774935E+04  0.13663774935E+04  0.00000000000E+00 0. -1.
         24    1    1    2    0    0  0.16448734505E+02  0.15030466480E+02 -0.65717164321E+02  0.10621881863E+03  0.80419002446E+02 0.  1.
        -24    1    1    2    0    0 -0.16448734505E+02 -0.15030466480E+02 -0.12790498409E+04  0.12817691631E+04  0.80419002446E+02 0. -1.
<mgrwt>
<rscale>  0 0.83448737E+02</rscale>
<asrwt>0</asrwt>
<pdfrwt beam="1">  1        1 0.21021191E+00 0.83448737E+02</pdfrwt>
<pdfrwt beam="2">  1       -1 0.33246906E-02 0.83448737E+02</pdfrwt>
<totfact> 0.27945176E+03</totfact>
</mgrwt>
</event>
<event>
 4    1  0.4940461E-001  0.8556112E+02  0.7546771E-02  0.1313972E+00
         -2   -1    0    0    0  501 -0.00000000000E+00  0.00000000000E+00  0.41251302682E+02  0.41251302682E+02  0.00000000000E+00 0.  1.
          2   -1    0    0  501    0  0.00000000000E+00 -0.00000000000E+00 -0.12345681860E+04  0.12345681860E+04  0.00000000000E+00 0. -1.
         24    1    1    2    0    0  0.16125451461E+02 -0.24361003570E+02 -0.11869413063E+04  0.11900211634E+04  0.80419002446E+02 0. -1.
        -24    1    1    2    0    0 -0.16125451461E+02  0.24361003570E+02 -0.63755769396E+01  0.85798325248E+02  0.80419002446E+02 0.  1.
<mgrwt>
<rscale>  0 0.85561116E+02</rscale>
<asrwt>0</asrwt>
<pdfrwt beam="1">  1        2 0.18993360E+00 0.85561116E+02</pdfrwt>
<pdfrwt beam="2">  1       -2 0.63463533E-02 0.85561116E+02</pdfrwt>
<totfact> 0.25509959E+03</totfact>
</mgrwt>
</event>
<event>
 4    1  0.4940461E-001  0.8161593E+02  0.7546771E-02  0.1324527E+00
          1   -1    0    0  501    0  0.00000000000E+00  0.00000000000E+00  0.18056766403E+03  0.18056766403E+03  0.00000000000E+00 0. -1.
         -1   -1    0    0    0  501 -0.00000000000E+00 -0.00000000000E+00 -0.48878485911E+02  0.48878485911E+02  0.00000000000E+00 0.  1.
         24    1    1    2    0    0  0.13154098386E+02  0.45732360389E+01  0.90283990624E+01  0.82113779210E+02  0.80419002446E+02 0.  1.
        -24    1    1    2    0    0 -0.13154098386E+02 -0.45732360389E+01  0.12266077906E+03  0.14733237073E+03  0.80419002446E+02 0. -1.
<mgrwt>
<rscale>  0 0.81615934E+02</rscale>
<asrwt>0</asrwt>
<pdfrwt beam="1">  1        1 0.27779640E-01 0.81615934E+02</pdfrwt>
<pdfrwt beam="2">  1       -1 0.75197671E-02 0.81615934E+02</pdfrwt>
<totfact> 0.14081558E+04</totfact>
</mgrwt>
</event>
<event>
 4    1  0.4940461E-001  0.8510041E+02  0.7546771E-02  0.1315170E+00
         -2   -1    0    0    0  501 -0.00000000000E+00  0.00000000000E+00  0.43379397529E+02  0.43379397529E+02  0.00000000000E+00 0.  1.
          2   -1    0    0  501    0  0.00000000000E+00 -0.00000000000E+00 -0.91918730553E+03  0.91918730553E+03  0.00000000000E+00 0. -1.
         24    1    1    2    0    0 -0.14147083457E+02 -0.23973412286E+02 -0.87329249602E+03  0.87742912194E+03  0.80419002446E+02 0. -1.
        -24    1    1    2    0    0  0.14147083457E+02  0.23973412286E+02 -0.25154119794E+01  0.85137581119E+02  0.80419002446E+02 0.  1.
<mgrwt>
<rscale>  0 0.85100414E+02</rscale>
<asrwt>0</asrwt>
<pdfrwt beam="1">  1        2 0.14141343E+00 0.85100414E+02</pdfrwt>
<pdfrwt beam="2">  1       -2 0.66737537E-02 0.85100414E+02</pdfrwt>
<totfact> 0.35708737E+03</totfact>
</mgrwt>
</event>
<event>
 4    1  0.4940461E-001  0.1066992E+03  0.7546771E-02  0.1266808E+00
          1   -1    0    0  501    0  0.00000000000E+00  0.00000000000E+00  0.28086939335E+03  0.28086939335E+03  0.00000000000E+00 0. -1.
         -1   -1    0    0    0  501 -0.00000000000E+00 -0.00000000000E+00 -0.51271536203E+02  0.51271536203E+02  0.00000000000E+00 0.  1.
         24    1    1    2    0    0  0.45526805393E+02 -0.53336736788E+02  0.38799573433E+02  0.11353466587E+03  0.80419002446E+02 0.  1.
        -24    1    1    2    0    0 -0.45526805393E+02  0.53336736788E+02  0.19079828372E+03  0.21860626369E+03  0.80419002446E+02 0. -1.
<mgrwt>
<rscale>  0 0.10669917E+03</rscale>
<asrwt>0</asrwt>
<pdfrwt beam="1">  1        1 0.43210675E-01 0.10669917E+03</pdfrwt>
<pdfrwt beam="2">  1       -1 0.78879288E-02 0.10669917E+03</pdfrwt>
<totfact> 0.78201627E+03</totfact>
</mgrwt>
</event>
<event>
 4    1  0.4940461E-001  0.8319244E+02  0.7546771E-02  0.1320228E+00
         -3   -1    0    0    0  501 -0.00000000000E+00  0.00000000000E+00  0.77056385077E+02  0.77056385077E+02  0.00000000000E+00 0.  1.
          3   -1    0    0  501    0  0.00000000000E+00 -0.00000000000E+00 -0.16288685742E+03  0.16288685742E+03  0.00000000000E+00 0. -1.
         24    1    1    2    0    0 -0.19254955647E+02  0.91111643305E+01  0.37438167708E+02  0.91228279542E+02  0.80419002446E+02 0.  1.
        -24    1    1    2    0    0  0.19254955647E+02 -0.91111643305E+01 -0.12326864005E+03  0.14871496296E+03  0.80419002446E+02 0. -1.
<mgrwt>
<rscale>  0 0.83192443E+02</rscale>
<asrwt>0</asrwt>
<pdfrwt beam="1">  1        3 0.25059517E-01 0.83192443E+02</pdfrwt>
<pdfrwt beam="2">  1       -3 0.11854828E-01 0.83192443E+02</pdfrwt>
<totfact> 0.17350557E+03</totfact>
</mgrwt>
</event>
<event>
 4    1  0.4940461E-001  0.8239439E+02  0.7546771E-02  0.1322391E+00
         -2   -1    0    0    0  501 -0.00000000000E+00  0.00000000000E+00  0.20060071754E+02  0.20060071754E+02  0.00000000000E+00 0.  1.
          2   -1    0    0  501    0  0.00000000000E+00 -0.00000000000E+00 -0.41884264894E+03  0.41884264894E+03  0.00000000000E+00 0. -1.
         24    1    1    2    0    0  0.99817077607E+01  0.14899137774E+02 -0.29554982532E+03  0.30682003520E+03  0.80419002446E+02 0.  0.
        -24    1    1    2    0    0 -0.99817077607E+01 -0.14899137774E+02 -0.10323275187E+03  0.13208268550E+03  0.80419002446E+02 0.  0.
<mgrwt>
<rscale>  0 0.82394385E+02</rscale>
<asrwt>0</asrwt>
<pdfrwt beam="1">  1        2 0.64437333E-01 0.82394385E+02</pdfrwt>
<pdfrwt beam="2">  1       -2 0.30861648E-02 0.82394385E+02</pdfrwt>
<totfact> 0.27249820E+04</totfact>
</mgrwt>
</event>
<event>
 4    1  0.4940461E-001  0.2049131E+03  0.7546771E-02  0.1145659E+00
          1   -1    0    0  501    0  0.00000000000E+00  0.00000000000E+00  0.86307840272E+02  0.86307840272E+02  0.00000000000E+00 0. -1.
         -1   -1    0    0    0  501 -0.00000000000E+00 -0.00000000000E+00 -0.52627732162E+03  0.52627732162E+03  0.00000000000E+00 0.  1.
         24    1    1    2    0    0  0.18721975925E+03  0.21700578141E+02 -0.30418407290E+03  0.36676602829E+03  0.80419002446E+02 0.  1.
        -24    1    1    2    0    0 -0.18721975925E+03 -0.21700578141E+02 -0.13578540845E+03  0.24581913361E+03  0.80419002446E+02 0. -1.
<mgrwt>
<rscale>  0 0.20491308E+03</rscale>
<asrwt>0</asrwt>
<pdfrwt beam="1">  1        1 0.13278129E-01 0.20491308E+03</pdfrwt>
<pdfrwt beam="2">  1       -1 0.80965743E-01 0.20491308E+03</pdfrwt>
<totfact> 0.69612550E+02</totfact>
</mgrwt>
</event>
<event>
 4    1  0.4940461E-001  0.8487239E+02  0.7546771E-02  0.1315767E+00
         -3   -1    0    0    0  501 -0.00000000000E+00  0.00000000000E+00  0.12378579929E+02  0.12378579929E+02  0.00000000000E+00 0.  1.
          3   -1    0    0  501    0  0.00000000000E+00 -0.00000000000E+00 -0.67511051274E+03  0.67511051274E+03  0.00000000000E+00 0. -1.
         24    1    1    2    0    0  0.22944094733E+02 -0.14480157844E+02 -0.20365207097E+03  0.22062975416E+03  0.80419002446E+02 0.  1.
        -24    1    1    2    0    0 -0.22944094733E+02  0.14480157844E+02 -0.45907986184E+03  0.46685933851E+03  0.80419002446E+02 0. -1.
<mgrwt>
<rscale>  0 0.84872389E+02</rscale>
<asrwt>0</asrwt>
<pdfrwt beam="1">  1        3 0.10386314E+00 0.84872389E+02</pdfrwt>
<pdfrwt beam="2">  1       -3 0.19043973E-02 0.84872389E+02</pdfrwt>
<totfact> 0.17961812E+03</totfact>
</mgrwt>
</event>
<event>
 4    1  0.4940461E-001  0.1229636E+03  0.7546771E-02  0.1238287E+00
          1   -1    0    0  501    0  0.00000000000E+00  0.00000000000E+00  0.45184367353E+02  0.45184367353E+02  0.00000000000E+00 0. -1.
         -1   -1    0    0    0  501 -0.00000000000E+00 -0.00000000000E+00 -0.38411880635E+03  0.38411880635E+03  0.00000000000E+00 0.  1.
         24    1    1    2    0    0  0.91768428480E+02 -0.15211594244E+02 -0.24651391451E+03  0.27547987779E+03  0.80419002446E+02 0.  1.
        -24    1    1    2    0    0 -0.91768428480E+02  0.15211594244E+02 -0.92420524488E+02  0.15382329591E+03  0.80419002446E+02 0.  0.
<mgrwt>
<rscale>  0 0.12296362E+03</rscale>
<asrwt>0</asrwt>
<pdfrwt beam="1">  1        1 0.69514409E-02 0.12296362E+03</pdfrwt>
<pdfrwt beam="2">  1       -1 0.59095203E-01 0.12296362E+03</pdfrwt>
<totfact> 0.30245191E+03</totfact>
</mgrwt>
</event>
<event>
 4    1  0.4940461E-001  0.1049953E+03  0.7546771E-02  0.1270129E+00
          2   -1    0    0  501    0  0.00000000000E+00  0.00000000000E+00  0.55971516013E+03  0.55971516013E+03  0.00000000000E+00 0. -1.
         -2   -1    0    0    0  501 -0.00000000000E+00 -0.00000000000E+00 -0.25797812709E+02  0.25797812709E+02  0.00000000000E+00 0.  1.
         24    1    1    2    0    0  0.51740520134E+02 -0.43355605169E+02  0.40934020856E+03  0.42259130637E+03  0.80419002446E+02 0. -1.
        -24    1    1    2    0    0 -0.51740520134E+02  0.43355605169E+02  0.12457713887E+03  0.16292166647E+03  0.80419002446E+02 0.  1.
<mgrwt>
<rscale>  0 0.10499527E+03</rscale>
<asrwt>0</asrwt>
<pdfrwt beam="1">  1        2 0.86110015E-01 0.10499527E+03</pdfrwt>
<pdfrwt beam="2">  1       -2 0.39688947E-02 0.10499527E+03</pdfrwt>
<totfact> 0.14130014E+04</totfact>
</mgrwt>
</event>
<event>
 4    1  0.4940461E-001  0.8612157E+02  0.7546771E-02  0.1312525E+00
          3   -1    0    0  501    0  0.00000000000E+00  0.00000000000E+00  0.98928411637E+03  0.98928411637E+03  0.00000000000E+00 0. -1.
         -3   -1    0    0    0  501 -0.00000000000E+00 -0.00000000000E+00 -0.10009218672E+02  0.10009218672E+02  0.00000000000E+00 0.  1.
         24    1    1    2    0    0 -0.30358934397E+02  0.52957070306E+01  0.23933292256E+03  0.25435639010E+03  0.80419002446E+02 0.  1.
        -24    1    1    2    0    0  0.30358934397E+02 -0.52957070306E+01  0.73994197514E+03  0.74493694494E+03  0.80419002446E+02 0. -1.
<mgrwt>
<rscale>  0 0.86121573E+02</rscale>
<asrwt>0</asrwt>
<pdfrwt beam="1">  1        3 0.15219748E+00 0.86121573E+02</pdfrwt>
<pdfrwt beam="2">  1       -3 0.15398806E-02 0.86121573E+02</pdfrwt>
<totfact> 0.10084122E+03</totfact>
</mgrwt>
</event>
<event>
 4    1  0.4940461E-001  0.1149090E+03  0.7546771E-02  0.1251740E+00
          1   -1    0    0  501    0  0.00000000000E+00  0.00000000000E+00  0.10589623331E+04  0.10589623331E+04  0.00000000000E+00 0. -1.
         -1   -1    0    0    0  501 -0.00000000000E+00 -0.00000000000E+00 -0.12610594644E+02  0.12610594644E+02  0.00000000000E+00 0.  1.
         24    1    1    2    0    0  0.26351721148E+02 -0.77733133516E+02  0.46637713925E+03  0.48032458319E+03  0.80419002446E+02 0.  1.
        -24    1    1    2    0    0 -0.26351721148E+02  0.77733133516E+02  0.57997459926E+03  0.59124834460E+03  0.80419002446E+02 0. -1.
<mgrwt>
<rscale>  0 0.11490896E+03</rscale>
<asrwt>0</asrwt>
<pdfrwt beam="1">  1        1 0.16291721E+00 0.11490896E+03</pdfrwt>
<pdfrwt beam="2">  1       -1 0.19400923E-02 0.11490896E+03</pdfrwt>
<totfact> 0.99105012E+03</totfact>
</mgrwt>
</event>
<event>
 4    1  0.4940461E-001  0.8650090E+02  0.7546771E-02  0.1311554E+00
          1   -1    0    0  501    0  0.00000000000E+00  0.00000000000E+00  0.10126442400E+04  0.10126442400E+04  0.00000000000E+00 0. -1.
         -1   -1    0    0    0  501 -0.00000000000E+00 -0.00000000000E+00 -0.87685077053E+01  0.87685077053E+01  0.00000000000E+00 0.  1.
         24    1    1    2    0    0 -0.92489174804E+01 -0.30490066346E+02  0.70450757157E+03  0.70979808466E+03  0.80419002446E+02 0. -1.
        -24    1    1    2    0    0  0.92489174804E+01  0.30490066346E+02  0.29936816072E+03  0.31161466305E+03  0.80419002446E+02 0.  1.
<mgrwt>
<rscale>  0 0.86500893E+02</rscale>
<asrwt>0</asrwt>
<pdfrwt beam="1">  1        1 0.15579133E+00 0.86500904E+02</pdfrwt>
<pdfrwt beam="2">  1       -1 0.13490020E-02 0.86500904E+02</pdfrwt>
<totfact> 0.17577703E+04</totfact>
</mgrwt>
</event>
<event>
 4    1  0.4940461E-001  0.8215671E+02  0.7546771E-02  0.1323040E+00
          2   -1    0    0  501    0  0.00000000000E+00  0.00000000000E+00  0.41812360536E+03  0.41812360536E+03  0.00000000000E+00 0. -1.
         -2   -1    0    0    0  501 -0.00000000000E+00 -0.00000000000E+00 -0.16670485651E+02  0.16670485651E+02  0.00000000000E+00 0.  1.
         24    1    1    2    0    0  0.74228101477E+01 -0.15080057265E+02  0.16205147525E+03  0.18168765182E+03  0.80419002446E+02 0.  1.
        -24    1    1    2    0    0 -0.74228101477E+01  0.15080057265E+02  0.23940164446E+03  0.25310643920E+03  0.80419002446E+02 0. -1.
<mgrwt>
<rscale>  0 0.82156703E+02</rscale>
<asrwt>0</asrwt>
<pdfrwt beam="1">  1        2 0.64326701E-01 0.82156713E+02</pdfrwt>
<pdfrwt beam="2">  1       -2 0.25646904E-02 0.82156713E+02</pdfrwt>
<totfact> 0.35669967E+04</totfact>
</mgrwt>
</event>
<event>
 4    1  0.4940461E-001  0.8980880E+02  0.7546771E-02  0.1303315E+00
          2   -1    0    0  501    0  0.00000000000E+00  0.00000000000E+00  0.15782389176E+04  0.15782389176E+04  0.00000000000E+00 0. -1.
         -2   -1    0    0    0  501 -0.00000000000E+00 -0.00000000000E+00 -0.77912297797E+01  0.77912297797E+01  0.00000000000E+00 0.  1.
         24    1    1    2    0    0 -0.37650007868E+02  0.13449252973E+02  0.12503848923E+04  0.12536059988E+04  0.80419002446E+02 0. -1.
        -24    1    1    2    0    0  0.37650007868E+02 -0.13449252973E+02  0.32006279555E+03  0.33242414857E+03  0.80419002446E+02 0.  1.
<mgrwt>
<rscale>  0 0.89808805E+02</rscale>
<asrwt>0</asrwt>
<pdfrwt beam="1">  1        2 0.24280573E+00 0.89808805E+02</pdfrwt>
<pdfrwt beam="2">  1       -2 0.11986520E-02 0.89808805E+02</pdfrwt>
<totfact> 0.19096442E+04</totfact>
</mgrwt>
</event>
<event>
 4    1  0.4940461E-001  0.9291218E+02  0.7546771E-02  0.1295949E+00
         -2   -1    0    0    0  501 -0.00000000000E+00  0.00000000000E+00  0.78719909235E+02  0.78719909235E+02  0.00000000000E+00 0.  1.
          2   -1    0    0  501    0  0.00000000000E+00 -0.00000000000E+00 -0.22111523522E+04  0.22111523522E+04  0.00000000000E+00 0. -1.
         24    1    1    2    0    0 -0.40469540069E+02  0.22971132116E+02 -0.21823994929E+04  0.21843763913E+04  0.80419002446E+02 0. -1.
        -24    1    1    2    0    0  0.40469540069E+02 -0.22971132116E+02  0.49967049884E+02  0.10549587012E+03  0.80419002446E+02 0.  1.
<mgrwt>
<rscale>  0 0.92912176E+02</rscale>
<asrwt>0</asrwt>
<pdfrwt beam="1">  1        2 0.34017725E+00 0.92912176E+02</pdfrwt>
<pdfrwt beam="2">  1       -2 0.12110756E-01 0.92912176E+02</pdfrwt>
<totfact> 0.30005746E+02</totfact>
</mgrwt>
</event>
<event>
 4    1  0.4940461E-001  0.8125558E+02  0.7546771E-02  0.1325526E+00
         -1   -1    0    0    0  501 -0.00000000000E+00  0.00000000000E+00  0.13689414534E+03  0.13689414534E+03  0.00000000000E+00 0.  1.
          1   -1    0    0  501    0  0.00000000000E+00 -0.00000000000E+00 -0.79626279764E+02  0.79626279764E+02  0.00000000000E+00 0. -1.
         24    1    1    2    0    0 -0.11578868433E+02 -0.10880860415E+01  0.96613195664E+02  0.12624016657E+03  0.80419002446E+02 0.  0.
        -24    1    1    2    0    0  0.11578868433E+02  0.10880860415E+01 -0.39345330092E+02  0.90280258528E+02  0.80419002446E+02 0. -1.
<mgrwt>
<rscale>  0 0.81255585E+02</rscale>
<asrwt>0</asrwt>
<pdfrwt beam="1">  1        1 0.12250197E-01 0.81255585E+02</pdfrwt>
<pdfrwt beam="2">  1       -1 0.21060638E-01 0.81255585E+02</pdfrwt>
<totfact> 0.81559438E+03</totfact>
</mgrwt>
</event>
<event>
 4    1  0.4940461E-001  0.8940764E+02  0.7546771E-02  0.1304293E+00
          3   -1    0    0  501    0  0.00000000000E+00  0.00000000000E+00  0.88692066416E+02  0.88692066416E+02  0.00000000000E+00 0. -1.
         -3   -1    0    0    0  501 -0.00000000000E+00 -0.00000000000E+00 -0.13826326771E+03  0.13826326771E+03  0.00000000000E+00 0.  1.
         24    1    1    2    0    0  0.23110442752E+02 -0.31502654026E+02 -0.91740791524E+02  0.12810190693E+03  0.80419002446E+02 0.  1.
        -24    1    1    2    0    0 -0.23110442752E+02  0.31502654026E+02  0.42169590227E+02  0.98853427200E+02  0.80419002446E+02 0. -1.
<mgrwt>
<rscale>  0 0.89407638E+02</rscale>
<asrwt>0</asrwt>
<pdfrwt beam="1">  1        3 0.13644933E-01 0.89407638E+02</pdfrwt>
<pdfrwt beam="2">  1       -3 0.21271272E-01 0.89407638E+02</pdfrwt>
<totfact> 0.18618753E+03</totfact>
</mgrwt>
</event>
<event>
 4    1  0.4940461E-001  0.1030527E+03  0.7546771E-02  0.1274005E+00
         -2   -1    0    0    0  501 -0.00000000000E+00  0.00000000000E+00  0.74396532579E+01  0.74396532579E+01  0.00000000000E+00 0.  1.
          2   -1    0    0  501    0  0.00000000000E+00 -0.00000000000E+00 -0.26568798479E+04  0.26568798479E+04  0.00000000000E+00 0. -1.
         24    1    1    2    0    0  0.15453873179E+02 -0.62560476909E+02 -0.22309104126E+04  0.22332893051E+04  0.80419002446E+02 0. -1.
        -24    1    1    2    0    0 -0.15453873179E+02  0.62560476909E+02 -0.41852978211E+03  0.43103019608E+03  0.80419002446E+02 0.  1.
<mgrwt>
<rscale>  0 0.10305266E+03</rscale>
<asrwt>0</asrwt>
<pdfrwt beam="1">  1        2 0.40875139E+00 0.10305266E+03</pdfrwt>
<pdfrwt beam="2">  1       -2 0.11445602E-02 0.10305266E+03</pdfrwt>
<totfact> 0.57444956E+03</totfact>
</mgrwt>
</event>
<event>
 4    1  0.4940461E-001  0.8078484E+02  0.7546771E-02  0.1326839E+00
          2   -1    0    0  501    0  0.00000000000E+00  0.00000000000E+00  0.66237605300E+03  0.66237605300E+03  0.00000000000E+00 0. -1.
         -2   -1    0    0    0  501 -0.00000000000E+00 -0.00000000000E+00 -0.27031881964E+02  0.27031881964E+02  0.00000000000E+00 0.  1.
         24    1    1    2    0    0 -0.75748162905E+01  0.12637622983E+01  0.59246745624E+03  0.59794972832E+03  0.80419002446E+02 0. -1.
        -24    1    1    2    0    0  0.75748162905E+01 -0.12637622983E+01  0.42876714798E+02  0.91458206648E+02  0.80419002446E+02 0.  0.
<mgrwt>
<rscale>  0 0.80784843E+02</rscale>
<asrwt>0</asrwt>
<pdfrwt beam="1">  1        2 0.10190400E+00 0.80784843E+02</pdfrwt>
<pdfrwt beam="2">  1       -2 0.41587516E-02 0.80784843E+02</pdfrwt>
<totfact> 0.10683688E+04</totfact>
</mgrwt>
</event>
<event>
 4    1  0.4940461E-001  0.9683020E+02  0.7546771E-02  0.1287106E+00
          1   -1    0    0  501    0  0.00000000000E+00  0.00000000000E+00  0.24236471356E+02  0.24236471356E+02  0.00000000000E+00 0. -1.
         -1   -1    0    0    0  501 -0.00000000000E+00 -0.00000000000E+00 -0.56724427039E+03  0.56724427039E+03  0.00000000000E+00 0.  1.
         24    1    1    2    0    0 -0.50174865958E+02 -0.19782571404E+02 -0.10473050206E+03  0.14263436235E+03  0.80419002446E+02 0.  0.
        -24    1    1    2    0    0  0.50174865958E+02  0.19782571404E+02 -0.43827729696E+03  0.44884637939E+03  0.80419002446E+02 0.  0.
<mgrwt>
<rscale>  0 0.96830190E+02</rscale>
<asrwt>0</asrwt>
<pdfrwt beam="1">  1        1 0.37286878E-02 0.96830202E+02</pdfrwt>
<pdfrwt beam="2">  1       -1 0.87268352E-01 0.96830202E+02</pdfrwt>
<totfact> 0.32069042E+03</totfact>
</mgrwt>
</event>
<event>
 4    1  0.4940461E-001  0.1357438E+03  0.7546771E-02  0.1219173E+00
          2   -1    0    0  501    0  0.00000000000E+00  0.00000000000E+00  0.84627889200E+03  0.84627889200E+03  0.00000000000E+00 0. -1.
         -2   -1    0    0    0  501 -0.00000000000E+00 -0.00000000000E+00 -0.42749272817E+02  0.42749272817E+02  0.00000000000E+00 0.  1.
         24    1    1    2    0    0 -0.57370341866E+02 -0.93101129600E+02  0.71313776613E+03  0.72594205409E+03  0.80419002446E+02 0. -1.
        -24    1    1    2    0    0  0.57370341866E+02  0.93101129600E+02  0.90391853046E+02  0.16308611072E+03  0.80419002446E+02 0.  1.
<mgrwt>
<rscale>  0 0.13574385E+03</rscale>
<asrwt>0</asrwt>
<pdfrwt beam="1">  1        2 0.13019674E+00 0.13574385E+03</pdfrwt>
<pdfrwt beam="2">  1       -2 0.65768118E-02 0.13574385E+03</pdfrwt>
<totfact> 0.41330015E+03</totfact>
</mgrwt>
</event>
<event>
 4    1  0.4940461E-001  0.1600372E+03  0.7546771E-02  0.1188655E+00
          1   -1    0    0  501    0  0.00000000000E+00  0.00000000000E+00  0.47066874533E+03  0.47066874533E+03  0.00000000000E+00 0. -1.
         -1   -1    0    0    0  501 -0.00000000000E+00 -0.00000000000E+00 -0.88937284349E+02  0.88937284349E+02  0.00000000000E+00 0.  1.
         24    1    1    2    0    0  0.30935648121E+02 -0.13486168902E+03  0.16543009225E+02  0.16088995182E+03  0.80419002446E+02 0.  1.
        -24    1    1    2    0    0 -0.30935648121E+02  0.13486168902E+03  0.36518845176E+03  0.39871607786E+03  0.80419002446E+02 0. -1.
<mgrwt>
<rscale>  0 0.16003720E+03</rscale>
<asrwt>0</asrwt>
<pdfrwt beam="1">  1        1 0.72410575E-01 0.16003720E+03</pdfrwt>
<pdfrwt beam="2">  1       -1 0.13682659E-01 0.16003720E+03</pdfrwt>
<totfact> 0.18002312E+03</totfact>
</mgrwt>
</event>
<event>
 4    1  0.4940461E-001  0.8840264E+02  0.7546771E-02  0.1306767E+00
          2   -1    0    0  501    0  0.00000000000E+00  0.00000000000E+00  0.34100300237E+04  0.34100300237E+04  0.00000000000E+00 0. -1.
         -2   -1    0    0    0  501 -0.00000000000E+00 -0.00000000000E+00 -0.85714525650E+01  0.85714525650E+01  0.00000000000E+00 0.  1.
         24    1    1    2    0    0  0.34723169207E+02 -0.11921052280E+02  0.31637817346E+04  0.31650165702E+04  0.80419002446E+02 0. -1.
        -24    1    1    2    0    0 -0.34723169207E+02  0.11921052280E+02  0.23767683655E+03  0.25358490601E+03  0.80419002446E+02 0.  1.
<mgrwt>
<rscale>  0 0.88402635E+02</rscale>
<asrwt>0</asrwt>
<pdfrwt beam="1">  1        2 0.52461892E+00 0.88402635E+02</pdfrwt>
<pdfrwt beam="2">  1       -2 0.13186877E-02 0.88402635E+02</pdfrwt>
<totfact> 0.17312066E+03</totfact>
</mgrwt>
</event>
<event>
 4    1  0.4940461E-001  0.8604355E+02  0.7546771E-02  0.1312726E+00
          1   -1    0    0  501    0  0.00000000000E+00  0.00000000000E+00  0.73218827591E+02  0.73218827591E+02  0.00000000000E+00 0. -1.
         -1   -1    0    0    0  501 -0.00000000000E+00 -0.00000000000E+00 -0.11523532960E+03  0.11523532960E+03  0.00000000000E+00 0.  1.
         24    1    1    2    0    0  0.29649612137E+02  0.75615042135E+01 -0.53992880495E+02  0.10158111510E+03  0.80419002446E+02 0.  1.
        -24    1    1    2    0    0 -0.29649612137E+02 -0.75615042135E+01  0.11976378490E+02  0.86873042090E+02  0.80419002446E+02 0. -1.
<mgrwt>
<rscale>  0 0.86043546E+02</rscale>
<asrwt>0</asrwt>
<pdfrwt beam="1">  1        1 0.11264435E-01 0.86043546E+02</pdfrwt>
<pdfrwt beam="2">  1       -1 0.17728512E-01 0.86043546E+02</pdfrwt>
<totfact> 0.12001661E+04</totfact>
</mgrwt>
</event>
<event>
 4    1  0.4940461E-001  0.8740624E+02  0.7546771E-02  0.1309257E+00
          1   -1    0    0  501    0  0.00000000000E+00  0.00000000000E+00  0.26459843375E+03  0.26459843375E+03  0.00000000000E+00 0. -1.
         -1   -1    0    0    0  501 -0.00000000000E+00 -0.00000000000E+00 -0.80869837173E+02  0.80869837173E+02  0.00000000000E+00 0.  1.
         24    1    1    2    0    0 -0.25870583860E+02 -0.22435394495E+02 -0.46642720304E+02  0.99072667003E+02  0.80419002446E+02 0.  1.
        -24    1    1    2    0    0  0.25870583860E+02  0.22435394495E+02  0.23037131688E+03  0.24639560392E+03  0.80419002446E+02 0. -1.
<mgrwt>
<rscale>  0 0.87406235E+02</rscale>
<asrwt>0</asrwt>
<pdfrwt beam="1">  1        1 0.40707451E-01 0.87406235E+02</pdfrwt>
<pdfrwt beam="2">  1       -1 0.12441514E-01 0.87406235E+02</pdfrwt>
<totfact> 0.41641074E+03</totfact>
</mgrwt>
</event>
<event>
 4    1  0.4940461E-001  0.9213922E+02  0.7546771E-02  0.1297752E+00
          1   -1    0    0  501    0  0.00000000000E+00  0.00000000000E+00  0.89911595288E+03  0.89911595288E+03  0.00000000000E+00 0. -1.
         -1   -1    0    0    0  501 -0.00000000000E+00 -0.00000000000E+00 -0.10126586689E+02  0.10126586689E+02  0.00000000000E+00 0.  1.
         24    1    1    2    0    0  0.40925116016E+02 -0.18642812439E+02  0.32630815661E+03  0.33906732164E+03  0.80419002446E+02 0.  1.
        -24    1    1    2    0    0 -0.40925116016E+02  0.18642812439E+02  0.56268120958E+03  0.57017521793E+03  0.80419002446E+02 0. -1.
<mgrwt>
<rscale>  0 0.92139218E+02</rscale>
<asrwt>0</asrwt>
<pdfrwt beam="1">  1        1 0.13832547E+00 0.92139218E+02</pdfrwt>
<pdfrwt beam="2">  1       -1 0.15579371E-02 0.92139218E+02</pdfrwt>
<totfact> 0.17460451E+04</totfact>
</mgrwt>
</event>
<event>
 4    1  0.4940461E-001  0.8795322E+02  0.7546771E-02  0.1307885E+00
          3   -1    0    0  501    0  0.00000000000E+00  0.00000000000E+00  0.62957748678E+02  0.62957748678E+02  0.00000000000E+00 0. -1.
         -3   -1    0    0    0  501 -0.00000000000E+00 -0.00000000000E+00 -0.12376203507E+03  0.12376203507E+03  0.00000000000E+00 0.  1.
         24    1    1    2    0    0  0.25843857607E+02 -0.24508054092E+02 -0.22486463709E+02  0.90782193716E+02  0.80419002446E+02 0.  1.
        -24    1    1    2    0    0 -0.25843857607E+02  0.24508054092E+02 -0.38317822680E+02  0.95937590030E+02  0.80419002446E+02 0.  1.
<mgrwt>
<rscale>  0 0.87953212E+02</rscale>
<asrwt>0</asrwt>
<pdfrwt beam="1">  1        3 0.96858076E-02 0.87953223E+02</pdfrwt>
<pdfrwt beam="2">  1       -3 0.19040313E-01 0.87953223E+02</pdfrwt>
<totfact> 0.39683801E+03</totfact>
</mgrwt>
</event>
<event>
 4    1  0.4940461E-001  0.9214613E+02  0.7546771E-02  0.1297736E+00
         -2   -1    0    0    0  501 -0.00000000000E+00  0.00000000000E+00  0.34549611042E+01  0.34549611042E+01  0.00000000000E+00 0.  1.
          2   -1    0    0  501    0  0.00000000000E+00 -0.00000000000E+00 -0.24581197202E+04  0.24581197202E+04  0.00000000000E+00 0. -1.
         24    1    1    2    0    0 -0.30867431448E+02  0.32724543366E+02 -0.12452407247E+04  0.12486454151E+04  0.80419002446E+02 0.  1.
        -24    1    1    2    0    0  0.30867431448E+02 -0.32724543366E+02 -0.12094240344E+04  0.12129292662E+04  0.80419002446E+02 0. -1.
<mgrwt>
<rscale>  0 0.92146134E+02</rscale>
<asrwt>0</asrwt>
<pdfrwt beam="1">  1        2 0.37817208E+00 0.92146134E+02</pdfrwt>
<pdfrwt beam="2">  1       -2 0.53153274E-03 0.92146134E+02</pdfrwt>
<totfact> 0.21570119E+04</totfact>
</mgrwt>
</event>
<event>
 4    1  0.4940461E-001  0.8675671E+02  0.7546771E-02  0.1310901E+00
         -2   -1    0    0    0  501 -0.00000000000E+00  0.00000000000E+00  0.16953061255E+02  0.16953061255E+02  0.00000000000E+00 0.  1.
          2   -1    0    0  501    0  0.00000000000E+00 -0.00000000000E+00 -0.52409671309E+03  0.52409671309E+03  0.00000000000E+00 0. -1.
         24    1    1    2    0    0 -0.23679041321E+02  0.22334065947E+02 -0.14779792415E+03  0.17137954906E+03  0.80419002446E+02 0.  0.
        -24    1    1    2    0    0  0.23679041321E+02 -0.22334065947E+02 -0.35934572769E+03  0.36967022528E+03  0.80419002446E+02 0.  0.
<mgrwt>
<rscale>  0 0.86756702E+02</rscale>
<asrwt>0</asrwt>
<pdfrwt beam="1">  1        2 0.80630261E-01 0.86756713E+02</pdfrwt>
<pdfrwt beam="2">  1       -2 0.26081633E-02 0.86756713E+02</pdfrwt>
<totfact> 0.27524185E+04</totfact>
</mgrwt>
</event>
<event>
 4    1  0.4940461E-001  0.1120119E+03  0.7546771E-02  0.1256889E+00
          2   -1    0    0  501    0  0.00000000000E+00  0.00000000000E+00  0.40137758869E+02  0.40137758869E+02  0.00000000000E+00 0. -1.
         -2   -1    0    0    0  501 -0.00000000000E+00 -0.00000000000E+00 -0.39865876958E+03  0.39865876958E+03  0.00000000000E+00 0.  1.
         24    1    1    2    0    0 -0.77927143082E+02  0.26091211606E+01 -0.77318010621E+02  0.13610561290E+03  0.80419002446E+02 0. -1.
        -24    1    1    2    0    0  0.77927143082E+02 -0.26091211606E+01 -0.28120300009E+03  0.30269091555E+03  0.80419002446E+02 0.  1.
<mgrwt>
<rscale>  0 0.11201189E+03</rscale>
<asrwt>0</asrwt>
<pdfrwt beam="1">  1        2 0.61750399E-02 0.11201189E+03</pdfrwt>
<pdfrwt beam="2">  1       -2 0.61332118E-01 0.11201189E+03</pdfrwt>
<totfact> 0.28400393E+03</totfact>
</mgrwt>
</event>
<event>
 4    1  0.4940461E-001  0.1029628E+03  0.7546771E-02  0.1274186E+00
         -1   -1    0    0    0  501 -0.00000000000E+00  0.00000000000E+00  0.48208163992E+03  0.48208163992E+03  0.00000000000E+00 0.  1.
          1   -1    0    0  501    0  0.00000000000E+00 -0.00000000000E+00 -0.22405512834E+02  0.22405512834E+02  0.00000000000E+00 0. -1.
         24    1    1    2    0    0  0.52035761549E+02  0.37767735331E+02  0.26415756893E+03  0.28351465481E+03  0.80419002446E+02 0.  1.
        -24    1    1    2    0    0 -0.52035761549E+02 -0.37767735331E+02  0.19551855816E+03  0.22097249795E+03  0.80419002446E+02 0. -1.
<mgrwt>
<rscale>  0 0.10296280E+03</rscale>
<asrwt>0</asrwt>
<pdfrwt beam="1">  1        1 0.34470023E-02 0.10296280E+03</pdfrwt>
<pdfrwt beam="2">  1       -1 0.74166398E-01 0.10296280E+03</pdfrwt>
<totfact> 0.49943382E+03</totfact>
</mgrwt>
</event>
<event>
 4    1  0.4940461E-001  0.8418377E+02  0.7546771E-02  0.1317581E+00
         -1   -1    0    0    0  501 -0.00000000000E+00  0.00000000000E+00  0.45395917085E+02  0.45395917085E+02  0.00000000000E+00 0.  1.
          1   -1    0    0  501    0  0.00000000000E+00 -0.00000000000E+00 -0.20273067427E+03  0.20273067427E+03  0.00000000000E+00 0. -1.
         24    1    1    2    0    0  0.79941852880E+01 -0.23575061825E+02 -0.19175528043E+02  0.86340068152E+02  0.80419002446E+02 0.  0.
        -24    1    1    2    0    0 -0.79941852880E+01  0.23575061825E+02 -0.13815922914E+03  0.16178652320E+03  0.80419002446E+02 0.  0.
<mgrwt>
<rscale>  0 0.84183766E+02</rscale>
<asrwt>0</asrwt>
<pdfrwt beam="1">  1        1 0.31189335E-01 0.84183766E+02</pdfrwt>
<pdfrwt beam="2">  1       -1 0.69839871E-02 0.84183766E+02</pdfrwt>
<totfact> 0.13677003E+04</totfact>
</mgrwt>
</event>
<event>
 4    1  0.4940461E-001  0.8359290E+02  0.7546771E-02  0.1319154E+00
         -1   -1    0    0    0  501 -0.00000000000E+00  0.00000000000E+00  0.12477281817E+02  0.12477281817E+02  0.00000000000E+00 0.  1.
          1   -1    0    0  501    0  0.00000000000E+00 -0.00000000000E+00 -0.10731351777E+04  0.10731351777E+04  0.00000000000E+00 0. -1.
         24    1    1    2    0    0 -0.22755912053E+02  0.16509322982E+01 -0.15499598732E+03  0.17610090616E+03  0.80419002446E+02 0.  1.
        -24    1    1    2    0    0  0.22755912053E+02 -0.16509322982E+01 -0.90566190855E+03  0.90951155335E+03  0.80419002446E+02 0. -1.
<mgrwt>
<rscale>  0 0.83592901E+02</rscale>
<asrwt>0</asrwt>
<pdfrwt beam="1">  1        1 0.16509777E+00 0.83592901E+02</pdfrwt>
<pdfrwt beam="2">  1       -1 0.19195812E-02 0.83592901E+02</pdfrwt>
<totfact> 0.96348975E+03</totfact>
</mgrwt>
</event>
<event>
 4    1  0.4940461E-001  0.9519509E+02  0.7546771E-02  0.1290737E+00
         -2   -1    0    0    0  501 -0.00000000000E+00  0.00000000000E+00  0.31011989661E+02  0.31011989661E+02  0.00000000000E+00 0.  1.
          2   -1    0    0  501    0  0.00000000000E+00 -0.00000000000E+00 -0.17176611663E+04  0.17176611663E+04  0.00000000000E+00 0. -1.
         24    1    1    2    0    0  0.40320878782E+02 -0.31130616728E+02 -0.16398243015E+04  0.16425851103E+04  0.80419002446E+02 0. -1.
        -24    1    1    2    0    0 -0.40320878782E+02  0.31130616728E+02 -0.46824875140E+02  0.10608804574E+03  0.80419002446E+02 0.  1.
<mgrwt>
<rscale>  0 0.95195087E+02</rscale>
<asrwt>0</asrwt>
<pdfrwt beam="1">  1        2 0.26425560E+00 0.95195087E+02</pdfrwt>
<pdfrwt beam="2">  1       -2 0.47710747E-02 0.95195087E+02</pdfrwt>
<totfact> 0.22059383E+03</totfact>
</mgrwt>
</event>
<event>
 4    1  0.4940461E-001  0.8643215E+02  0.7546771E-02  0.1311729E+00
         -2   -1    0    0    0  501 -0.00000000000E+00  0.00000000000E+00  0.86303524940E+02  0.86303524940E+02  0.00000000000E+00 0.  1.
          2   -1    0    0  501    0  0.00000000000E+00 -0.00000000000E+00 -0.94176084795E+02  0.94176084795E+02  0.00000000000E+00 0. -1.
         24    1    1    2    0    0 -0.30866408173E+02 -0.71109852963E+01 -0.29596828195E+02  0.91359123567E+02  0.80419002446E+02 0. -1.
        -24    1    1    2    0    0  0.30866408173E+02  0.71109852963E+01  0.21724268341E+02  0.89120486167E+02  0.80419002446E+02 0.  1.
<mgrwt>
<rscale>  0 0.86432154E+02</rscale>
<asrwt>0</asrwt>
<pdfrwt beam="1">  1        2 0.14488628E-01 0.86432154E+02</pdfrwt>
<pdfrwt beam="2">  1       -2 0.13277465E-01 0.86432154E+02</pdfrwt>
<totfact> 0.15140591E+04</totfact>
</mgrwt>
</event>
<event>
 4    1  0.4940461E-001  0.8666419E+02  0.7546771E-02  0.1311137E+00
         -3   -1    0    0    0  501 -0.00000000000E+00  0.00000000000E+00  0.12780378279E+02  0.12780378279E+02  0.00000000000E+00 0.  1.
          3   -1    0    0  501    0  0.00000000000E+00 -0.00000000000E+00 -0.58969699140E+03  0.58969699140E+03  0.00000000000E+00 0. -1.
         24    1    1    2    0    0 -0.27350229212E+02  0.17188008495E+02 -0.30610808932E+03  0.31813965641E+03  0.80419002446E+02 0. -1.
        -24    1    1    2    0    0  0.27350229212E+02 -0.17188008495E+02 -0.27080852380E+03  0.28433771328E+03  0.80419002446E+02 0.  1.
<mgrwt>
<rscale>  0 0.86664182E+02</rscale>
<asrwt>0</asrwt>
<pdfrwt beam="1">  1        3 0.90722600E-01 0.86664193E+02</pdfrwt>
<pdfrwt beam="2">  1       -3 0.19662123E-02 0.86664193E+02</pdfrwt>
<totfact> 0.23241647E+03</totfact>
</mgrwt>
</event>
<event>
 4    1  0.4940461E-001  0.1398041E+03  0.7546771E-02  0.1213593E+00
          2   -1    0    0  501    0  0.00000000000E+00  0.00000000000E+00  0.15193037952E+04  0.15193037952E+04  0.00000000000E+00 0. -1.
         -2   -1    0    0    0  501 -0.00000000000E+00 -0.00000000000E+00 -0.13227478701E+02  0.13227478701E+02  0.00000000000E+00 0.  1.
         24    1    1    2    0    0  0.60391016115E+02 -0.97112701764E+02  0.62611282094E+03  0.64153131816E+03  0.80419002446E+02 0.  1.
        -24    1    1    2    0    0 -0.60391016115E+02  0.97112701764E+02  0.87996349552E+03  0.89099995571E+03  0.80419002446E+02 0. -1.
<mgrwt>
<rscale>  0 0.13980405E+03</rscale>
<asrwt>0</asrwt>
<pdfrwt beam="1">  1        2 0.23373891E+00 0.13980407E+03</pdfrwt>
<pdfrwt beam="2">  1       -2 0.20349979E-02 0.13980407E+03</pdfrwt>
<totfact> 0.98071853E+03</totfact>
</mgrwt>
</event>
<event>
 4    1  0.4940461E-001  0.1019319E+03  0.7546771E-02  0.1276285E+00
         -1   -1    0    0    0  501 -0.00000000000E+00  0.00000000000E+00  0.38954446369E+02  0.38954446369E+02  0.00000000000E+00 0.  1.
          1   -1    0    0  501    0  0.00000000000E+00 -0.00000000000E+00 -0.35419695810E+03  0.35419695810E+03  0.00000000000E+00 0. -1.
         24    1    1    2    0    0 -0.17468346114E+02  0.60147702260E+02 -0.59932834300E+02  0.11824571783E+03  0.80419002446E+02 0.  1.
        -24    1    1    2    0    0  0.17468346114E+02 -0.60147702260E+02 -0.25530967743E+03  0.27490568664E+03  0.80419002446E+02 0. -1.
<mgrwt>
<rscale>  0 0.10193187E+03</rscale>
<asrwt>0</asrwt>
<pdfrwt beam="1">  1        1 0.54491843E-01 0.10193187E+03</pdfrwt>
<pdfrwt beam="2">  1       -1 0.59929914E-02 0.10193187E+03</pdfrwt>
<totfact> 0.88163818E+03</totfact>
</mgrwt>
</event>
<event>
 4    1  0.4940461E-001  0.9715658E+02  0.7546771E-02  0.1286391E+00
          2   -1    0    0  501    0  0.00000000000E+00  0.00000000000E+00  0.41764595139E+02  0.41764595139E+02  0.00000000000E+00 0. -1.
         -2   -1    0    0    0  501 -0.00000000000E+00 -0.00000000000E+00 -0.26440550929E+03  0.26440550929E+03  0.00000000000E+00 0.  1.
         24    1    1    2    0    0  0.52277212809E+02  0.15468642460E+02 -0.52987686136E+02  0.11066660162E+03  0.80419002446E+02 0. -1.
        -24    1    1    2    0    0 -0.52277212809E+02 -0.15468642460E+02 -0.16965322801E+03  0.19550350280E+03  0.80419002446E+02 0.  1.
<mgrwt>
<rscale>  0 0.97156584E+02</rscale>
<asrwt>0</asrwt>
<pdfrwt beam="1">  1        2 0.64253222E-02 0.97156584E+02</pdfrwt>
<pdfrwt beam="2">  1       -2 0.40677771E-01 0.97156584E+02</pdfrwt>
<totfact> 0.59899902E+03</totfact>
</mgrwt>
</event>
<event>
 4    1  0.4940461E-001  0.8799881E+02  0.7546771E-02  0.1307772E+00
         -2   -1    0    0    0  501 -0.00000000000E+00  0.00000000000E+00  0.39547863421E+02  0.39547863421E+02  0.00000000000E+00 0.  1.
          2   -1    0    0  501    0  0.00000000000E+00 -0.00000000000E+00 -0.21655313101E+03  0.21655313101E+03  0.00000000000E+00 0. -1.
         24    1    1    2    0    0  0.29124379503E+02  0.20696487850E+02 -0.12813560173E+03  0.15544298786E+03  0.80419002446E+02 0.  1.
        -24    1    1    2    0    0 -0.29124379503E+02 -0.20696487850E+02 -0.48869665859E+02  0.10065800657E+03  0.80419002446E+02 0. -1.
<mgrwt>
<rscale>  0 0.87998807E+02</rscale>
<asrwt>0</asrwt>
<pdfrwt beam="1">  1        2 0.33315867E-01 0.87998807E+02</pdfrwt>
<pdfrwt beam="2">  1       -2 0.60842865E-02 0.87998807E+02</pdfrwt>
<totfact> 0.20140459E+04</totfact>
</mgrwt>
</event>
<event>
 4    1  0.4940461E-001  0.1212904E+03  0.7546771E-02  0.1240983E+00
         -2   -1    0    0    0  501 -0.00000000000E+00  0.00000000000E+00  0.91835205366E+02  0.91835205366E+02  0.00000000000E+00 0.  1.
          2   -1    0    0  501    0  0.00000000000E+00 -0.00000000000E+00 -0.30393514563E+03  0.30393514563E+03  0.00000000000E+00 0. -1.
         24    1    1    2    0    0 -0.81306114147E+02 -0.40416061878E+02 -0.24213640652E+03  0.27081616933E+03  0.80419002446E+02 0. -1.
        -24    1    1    2    0    0  0.81306114147E+02  0.40416061878E+02  0.30036466257E+02  0.12495418166E+03  0.80419002446E+02 0.  1.
<mgrwt>
<rscale>  0 0.12129039E+03</rscale>
<asrwt>0</asrwt>
<pdfrwt beam="1">  1        2 0.46759253E-01 0.12129039E+03</pdfrwt>
<pdfrwt beam="2">  1       -2 0.14128493E-01 0.12129039E+03</pdfrwt>
<totfact> 0.39042079E+03</totfact>
</mgrwt>
</event>
<event>
 4    1  0.4940461E-001  0.1098101E+03  0.7546771E-02  0.1260922E+00
          2   -1    0    0  501    0  0.00000000000E+00  0.00000000000E+00  0.35559523294E+03  0.35559523294E+03  0.00000000000E+00 0. -1.
         -2   -1    0    0    0  501 -0.00000000000E+00 -0.00000000000E+00 -0.39743749592E+02  0.39743749592E+02  0.00000000000E+00 0.  1.
         24    1    1    2    0    0 -0.70732859754E+02 -0.24246418406E+02  0.82193939002E+02  0.13716444808E+03  0.80419002446E+02 0. -1.
        -24    1    1    2    0    0  0.70732859754E+02  0.24246418406E+02  0.23365754435E+03  0.25817453445E+03  0.80419002446E+02 0.  0.
<mgrwt>
<rscale>  0 0.10981004E+03</rscale>
<asrwt>0</asrwt>
<pdfrwt beam="1">  1        2 0.54706957E-01 0.10981006E+03</pdfrwt>
<pdfrwt beam="2">  1       -2 0.61144232E-02 0.10981006E+03</pdfrwt>
<totfact> 0.12121194E+04</totfact>
</mgrwt>
</event>
<event>
 4    1  0.4940461E-001  0.9584634E+02  0.7546771E-02  0.1289281E+00
         -2   -1    0    0    0  501 -0.00000000000E+00  0.00000000000E+00  0.85533974769E+03  0.85533974769E+03  0.00000000000E+00 0.  1.
          2   -1    0    0  501    0  0.00000000000E+00 -0.00000000000E+00 -0.11681962411E+02  0.11681962411E+02  0.00000000000E+00 0. -1.
         24    1    1    2    0    0 -0.31276964822E+01 -0.52053026263E+02  0.54491635612E+03  0.55328143937E+03  0.80419002446E+02 0.  1.
        -24    1    1    2    0    0  0.31276964822E+01  0.52053026263E+02  0.29874142915E+03  0.31374027073E+03  0.80419002446E+02 0.  0.
<mgrwt>
<rscale>  0 0.95846326E+02</rscale>
<asrwt>0</asrwt>
<pdfrwt beam="1">  1        2 0.17972257E-02 0.95846338E+02</pdfrwt>
<pdfrwt beam="2">  1       -2 0.13159068E+00 0.95846338E+02</pdfrwt>
<totfact> 0.25986151E+03</totfact>
</mgrwt>
</event>
<event>
 4    1  0.4940461E-001  0.8292195E+02  0.7546771E-02  0.1320958E+00
         -1   -1    0    0    0  501 -0.00000000000E+00  0.00000000000E+00  0.49102531541E+01  0.49102531541E+01  0.00000000000E+00 0.  1.
          1   -1    0    0  501    0  0.00000000000E+00 -0.00000000000E+00 -0.14556011595E+04  0.14556011595E+04  0.00000000000E+00 0. -1.
         24    1    1    2    0    0 -0.20076749617E+02 -0.23995317896E+01 -0.58306566586E+03  0.58893261099E+03  0.80419002446E+02 0.  1.
        -24    1    1    2    0    0  0.20076749617E+02  0.23995317896E+01 -0.86762524044E+03  0.87157880162E+03  0.80419002446E+02 0. -1.
<mgrwt>
<rscale>  0 0.82921949E+02</rscale>
<asrwt>0</asrwt>
<pdfrwt beam="1">  1        1 0.22393854E+00 0.82921949E+02</pdfrwt>
<pdfrwt beam="2">  1       -1 0.75542390E-03 0.82921949E+02</pdfrwt>
<totfact> 0.20027382E+04</totfact>
</mgrwt>
</event>
<event>
 4    1  0.4940461E-001  0.9267467E+02  0.7546771E-02  0.1296501E+00
          2   -1    0    0  501    0  0.00000000000E+00  0.00000000000E+00  0.10029543489E+03  0.10029543489E+03  0.00000000000E+00 0. -1.
         -2   -1    0    0    0  501 -0.00000000000E+00 -0.00000000000E+00 -0.85708159157E+02  0.85708159157E+02  0.00000000000E+00 0.  1.
         24    1    1    2    0    0  0.43933492073E+02  0.13828494495E+02  0.10048421162E+02  0.93217840073E+02  0.80419002446E+02 0.  1.
        -24    1    1    2    0    0 -0.43933492073E+02 -0.13828494495E+02  0.45388545739E+01  0.92785753976E+02  0.80419002446E+02 0. -1.
<mgrwt>
<rscale>  0 0.92674673E+02</rscale>
<asrwt>0</asrwt>
<pdfrwt beam="1">  1        2 0.15430067E-01 0.92674673E+02</pdfrwt>
<pdfrwt beam="2">  1       -2 0.13185871E-01 0.92674673E+02</pdfrwt>
<totfact> 0.14339637E+04</totfact>
</mgrwt>
</event>
<event>
 4    1  0.4940461E-001  0.8363880E+02  0.7546771E-02  0.1319031E+00
          1   -1    0    0  501    0  0.00000000000E+00  0.00000000000E+00  0.91078591313E+03  0.91078591313E+03  0.00000000000E+00 0. -1.
         -1   -1    0    0    0  501 -0.00000000000E+00 -0.00000000000E+00 -0.93441174084E+02  0.93441174084E+02  0.00000000000E+00 0.  1.
         24    1    1    2    0    0 -0.21850971938E+02  0.71251319060E+01 -0.72362377579E+02  0.11059729709E+03  0.80419002446E+02 0.  1.
        -24    1    1    2    0    0  0.21850971938E+02 -0.71251319060E+01  0.88970711662E+03  0.89362979012E+03  0.80419002446E+02 0. -1.
<mgrwt>
<rscale>  0 0.83638797E+02</rscale>
<asrwt>0</asrwt>
<pdfrwt beam="1">  1        1 0.14012090E+00 0.83638797E+02</pdfrwt>
<pdfrwt beam="2">  1       -1 0.14375566E-01 0.83638797E+02</pdfrwt>
<totfact> 0.65556361E+02</totfact>
</mgrwt>
</event>
<event>
 4    1  0.4940461E-001  0.9244031E+02  0.7546771E-02  0.1297047E+00
         -1   -1    0    0    0  501 -0.00000000000E+00  0.00000000000E+00  0.79063602024E+01  0.79063602024E+01  0.00000000000E+00 0.  1.
          1   -1    0    0  501    0  0.00000000000E+00 -0.00000000000E+00 -0.10831262983E+04  0.10831262983E+04  0.00000000000E+00 0. -1.
         24    1    1    2    0    0 -0.45346513090E+02  0.46566454728E+01 -0.56288280248E+03  0.57042287461E+03  0.80419002446E+02 0.  0.
        -24    1    1    2    0    0  0.45346513090E+02 -0.46566454728E+01 -0.51233713559E+03  0.52060978387E+03  0.80419002446E+02 0. -1.
<mgrwt>
<rscale>  0 0.92440298E+02</rscale>
<asrwt>0</asrwt>
<pdfrwt beam="1">  1        1 0.16663481E+00 0.92440310E+02</pdfrwt>
<pdfrwt beam="2">  1       -1 0.12163631E-02 0.92440310E+02</pdfrwt>
<totfact> 0.18249243E+04</totfact>
</mgrwt>
</event>
<event>
 4    1  0.4940461E-001  0.8254510E+02  0.7546771E-02  0.1321980E+00
          2   -1    0    0  501    0  0.00000000000E+00  0.00000000000E+00  0.18390680231E+03  0.18390680231E+03  0.00000000000E+00 0. -1.
         -2   -1    0    0    0  501 -0.00000000000E+00 -0.00000000000E+00 -0.72840606932E+02  0.72840606932E+02  0.00000000000E+00 0.  1.
         24    1    1    2    0    0  0.18210172750E+02 -0.38557914545E+01  0.14551923183E+03  0.16730074808E+03  0.80419002446E+02 0. -1.
        -24    1    1    2    0    0 -0.18210172750E+02  0.38557914545E+01 -0.34453036452E+02  0.89446661170E+02  0.80419002446E+02 0.  1.
<mgrwt>
<rscale>  0 0.82545100E+02</rscale>
<asrwt>0</asrwt>
<pdfrwt beam="1">  1        2 0.28293354E-01 0.82545100E+02</pdfrwt>
<pdfrwt beam="2">  1       -2 0.11206247E-01 0.82545100E+02</pdfrwt>
<totfact> 0.93506556E+03</totfact>
</mgrwt>
</event>
<event>
 4    1  0.4940461E-001  0.8175709E+02  0.7546771E-02  0.1324138E+00
          4   -1    0    0  501    0  0.00000000000E+00  0.00000000000E+00  0.18171696886E+03  0.18171696886E+03  0.00000000000E+00 0. -1.
         -4   -1    0    0    0  501 -0.00000000000E+00 -0.00000000000E+00 -0.72743860534E+02  0.72743860534E+02  0.00000000000E+00 0.  1.
         24    1    1    2    0    0  0.55624772936E+01  0.13640557943E+02  0.14394134382E+03  0.16553951911E+03  0.80419002446E+02 0. -1.
        -24    1    1    2    0    0 -0.55624772936E+01 -0.13640557943E+02 -0.34968235488E+02  0.88921310281E+02  0.80419002446E+02 0.  1.
<mgrwt>
<rscale>  0 0.81757091E+02</rscale>
<asrwt>0</asrwt>
<pdfrwt beam="1">  1        4 0.27956457E-01 0.81757091E+02</pdfrwt>
<pdfrwt beam="2">  1       -4 0.11191363E-01 0.81757091E+02</pdfrwt>
<totfact> 0.11130558E+03</totfact>
</mgrwt>
</event>
<event>
 4    1  0.4940461E-001  0.1419484E+03  0.7546771E-02  0.1210731E+00
         -1   -1    0    0    0  501 -0.00000000000E+00  0.00000000000E+00  0.19571832206E+02  0.19571832206E+02  0.00000000000E+00 0.  1.
          1   -1    0    0  501    0  0.00000000000E+00 -0.00000000000E+00 -0.13888118500E+04  0.13888118500E+04  0.00000000000E+00 0. -1.
         24    1    1    2    0    0  0.58626623383E+02 -0.10121782140E+03 -0.32644058334E+03  0.35596741247E+03  0.80419002446E+02 0.  1.
        -24    1    1    2    0    0 -0.58626623383E+02  0.10121782140E+03 -0.10427994345E+04  0.10524162697E+04  0.80419002446E+02 0. -1.
<mgrwt>
<rscale>  0 0.14194839E+03</rscale>
<asrwt>0</asrwt>
<pdfrwt beam="1">  1        1 0.21366336E+00 0.14194839E+03</pdfrwt>
<pdfrwt beam="2">  1       -1 0.30110511E-02 0.14194839E+03</pdfrwt>
<totfact> 0.31566423E+03</totfact>
</mgrwt>
</event>
<event>
 4    1  0.4940461E-001  0.8166184E+02  0.7546771E-02  0.1324400E+00
         -3   -1    0    0    0  501 -0.00000000000E+00  0.00000000000E+00  0.63210402099E+02  0.63210402099E+02  0.00000000000E+00 0.  1.
          3   -1    0    0  501    0  0.00000000000E+00 -0.00000000000E+00 -0.12075444201E+03  0.12075444201E+03  0.00000000000E+00 0. -1.
         24    1    1    2    0    0  0.13648230745E+02 -0.38944433985E+01  0.39214173712E+01  0.81755943884E+02  0.80419002446E+02 0.  0.
        -24    1    1    2    0    0 -0.13648230745E+02  0.38944433985E+01 -0.61465457280E+02  0.10220890022E+03  0.80419002446E+02 0.  0.
<mgrwt>
<rscale>  0 0.81661844E+02</rscale>
<asrwt>0</asrwt>
<pdfrwt beam="1">  1        3 0.18577606E-01 0.81661844E+02</pdfrwt>
<pdfrwt beam="2">  1       -3 0.97246774E-02 0.81661844E+02</pdfrwt>
<totfact> 0.40455013E+03</totfact>
</mgrwt>
</event>
<event>
 4    1  0.4940461E-001  0.8841019E+02  0.7546771E-02  0.1306748E+00
          2   -1    0    0  501    0  0.00000000000E+00  0.00000000000E+00  0.56493244676E+03  0.56493244676E+03  0.00000000000E+00 0. -1.
         -2   -1    0    0    0  501 -0.00000000000E+00 -0.00000000000E+00 -0.22118850654E+02  0.22118850654E+02  0.00000000000E+00 0.  1.
         24    1    1    2    0    0  0.33405279176E+02  0.15271979384E+02  0.45102763075E+03  0.45961101563E+03  0.80419002446E+02 0. -1.
        -24    1    1    2    0    0 -0.33405279176E+02 -0.15271979384E+02  0.91785965354E+02  0.12744028179E+03  0.80419002446E+02 0.  1.
<mgrwt>
<rscale>  0 0.88410192E+02</rscale>
<asrwt>0</asrwt>
<pdfrwt beam="1">  1        2 0.86912673E-01 0.88410192E+02</pdfrwt>
<pdfrwt beam="2">  1       -2 0.34029005E-02 0.88410192E+02</pdfrwt>
<totfact> 0.17263632E+04</totfact>
</mgrwt>
</event>
<event>
 4    1  0.4940461E-001  0.1008025E+03  0.7546771E-02  0.1278618E+00
         -2   -1    0    0    0  501 -0.00000000000E+00  0.00000000000E+00  0.62006580295E+01  0.62006580295E+01  0.00000000000E+00 0.  1.
          2   -1    0    0  501    0  0.00000000000E+00 -0.00000000000E+00 -0.20380051274E+04  0.20380051274E+04  0.00000000000E+00 0. -1.
         24    1    1    2    0    0 -0.52639001312E+02 -0.30381800062E+02 -0.14683143869E+04  0.14717704552E+04  0.80419002446E+02 0.  0.
        -24    1    1    2    0    0  0.52639001312E+02  0.30381800062E+02 -0.56349008253E+03  0.57243533023E+03  0.80419002446E+02 0. -1.
<mgrwt>
<rscale>  0 0.10080245E+03</rscale>
<asrwt>0</asrwt>
<pdfrwt beam="1">  1        2 0.31353920E+00 0.10080245E+03</pdfrwt>
<pdfrwt beam="2">  1       -2 0.95394753E-03 0.10080245E+03</pdfrwt>
<totfact> 0.15597670E+04</totfact>
</mgrwt>
</event>
<event>
 4    1  0.4940461E-001  0.1017327E+03  0.7546771E-02  0.1276694E+00
          1   -1    0    0  501    0  0.00000000000E+00  0.00000000000E+00  0.78334603579E+03  0.78334603579E+03  0.00000000000E+00 0. -1.
         -1   -1    0    0    0  501 -0.00000000000E+00 -0.00000000000E+00 -0.15069984556E+02  0.15069984556E+02  0.00000000000E+00 0.  1.
         24    1    1    2    0    0  0.52989635956E+02  0.32778465283E+02  0.24396409235E+03  0.26432560151E+03  0.80419002446E+02 0.  0.
        -24    1    1    2    0    0 -0.52989635956E+02 -0.32778465283E+02  0.52431195889E+03  0.53409041884E+03  0.80419002446E+02 0. -1.
<mgrwt>
<rscale>  0 0.10173271E+03</rscale>
<asrwt>0</asrwt>
<pdfrwt beam="1">  1        1 0.12051474E+00 0.10173271E+03</pdfrwt>
<pdfrwt beam="2">  1       -1 0.23184598E-02 0.10173271E+03</pdfrwt>
<totfact> 0.12301091E+04</totfact>
</mgrwt>
</event>
<event>
 4    1  0.4940461E-001  0.1670825E+03  0.7546771E-02  0.1180925E+00
         -1   -1    0    0    0  501 -0.00000000000E+00  0.00000000000E+00  0.34539260281E+03  0.34539260281E+03  0.00000000000E+00 0.  1.
          1   -1    0    0  501    0  0.00000000000E+00 -0.00000000000E+00 -0.12120531245E+03  0.12120531245E+03  0.00000000000E+00 0. -1.
         24    1    1    2    0    0 -0.16940976097E+02  0.14547284736E+03  0.24675209767E+03  0.29799859001E+03  0.80419002446E+02 0. -1.
        -24    1    1    2    0    0  0.16940976097E+02 -0.14547284736E+03 -0.22564807306E+02  0.16859932525E+03  0.80419002446E+02 0.  1.
<mgrwt>
<rscale>  0 0.16708250E+03</rscale>
<asrwt>0</asrwt>
<pdfrwt beam="1">  1        1 0.18646971E-01 0.16708250E+03</pdfrwt>
<pdfrwt beam="2">  1       -1 0.53137323E-01 0.16708250E+03</pdfrwt>
<totfact> 0.10178038E+03</totfact>
</mgrwt>
</event>
<event>
 4    1  0.4940461E-001  0.1029699E+03  0.7546771E-02  0.1274172E+00
         -1   -1    0    0    0  501 -0.00000000000E+00  0.00000000000E+00  0.49868350062E+03  0.49868350062E+03  0.00000000000E+00 0.  1.
          1   -1    0    0  501    0  0.00000000000E+00 -0.00000000000E+00 -0.38899533888E+02  0.38899533888E+02  0.00000000000E+00 0. -1.
         24    1    1    2    0    0 -0.60511155842E+02  0.21771136786E+02  0.41088736006E+03  0.42359322585E+03  0.80419002446E+02 0.  1.
        -24    1    1    2    0    0  0.60511155842E+02 -0.21771136786E+02  0.48896606672E+02  0.11398980865E+03  0.80419002446E+02 0. -1.
<mgrwt>
<rscale>  0 0.10296989E+03</rscale>
<asrwt>0</asrwt>
<pdfrwt beam="1">  1        1 0.59845440E-02 0.10296989E+03</pdfrwt>
<pdfrwt beam="2">  1       -1 0.76720534E-01 0.10296989E+03</pdfrwt>
<totfact> 0.22048541E+03</totfact>
</mgrwt>
</event>
<event>
 4    1  0.4940461E-001  0.8251303E+02  0.7546771E-02  0.1322067E+00
         -1   -1    0    0    0  501 -0.00000000000E+00  0.00000000000E+00  0.56109732634E+01  0.56109732634E+01  0.00000000000E+00 0.  1.
          1   -1    0    0  501    0  0.00000000000E+00 -0.00000000000E+00 -0.19008439582E+04  0.19008439582E+04  0.00000000000E+00 0. -1.
         24    1    1    2    0    0 -0.14419266452E+02 -0.11544239021E+02 -0.37437265960E+03  0.38335791229E+03  0.80419002446E+02 0.  0.
        -24    1    1    2    0    0  0.14419266452E+02  0.11544239021E+02 -0.15208603254E+04  0.15230970192E+04  0.80419002446E+02 0. -1.
<mgrwt>
<rscale>  0 0.82513033E+02</rscale>
<asrwt>0</asrwt>
<pdfrwt beam="1">  1        1 0.29243805E+00 0.82513033E+02</pdfrwt>
<pdfrwt beam="2">  1       -1 0.86322514E-03 0.82513033E+02</pdfrwt>
<totfact> 0.87169550E+03</totfact>
</mgrwt>
</event>
<event>
 4    1  0.4940461E-001  0.8865112E+02  0.7546771E-02  0.1306151E+00
          1   -1    0    0  501    0  0.00000000000E+00  0.00000000000E+00  0.98711033146E+03  0.98711033146E+03  0.00000000000E+00 0. -1.
         -1   -1    0    0    0  501 -0.00000000000E+00 -0.00000000000E+00 -0.23078822605E+02  0.23078822605E+02  0.00000000000E+00 0.  1.
         24    1    1    2    0    0  0.22389674271E+02 -0.29841364732E+02  0.73224815336E+02  0.11498214687E+03  0.80419002446E+02 0.  1.
        -24    1    1    2    0    0 -0.22389674271E+02  0.29841364732E+02  0.89080669352E+03  0.89520700720E+03  0.80419002446E+02 0. -1.
<mgrwt>
<rscale>  0 0.88651117E+02</rscale>
<asrwt>0</asrwt>
<pdfrwt beam="1">  1        1 0.15186310E+00 0.88651117E+02</pdfrwt>
<pdfrwt beam="2">  1       -1 0.35505889E-02 0.88651117E+02</pdfrwt>
<totfact> 0.46080358E+03</totfact>
</mgrwt>
</event>
<event>
 4    1  0.4940461E-001  0.8110503E+02  0.7546771E-02  0.1325944E+00
          2   -1    0    0  501    0  0.00000000000E+00  0.00000000000E+00  0.18034505314E+03  0.18034505314E+03  0.00000000000E+00 0. -1.
         -2   -1    0    0    0  501 -0.00000000000E+00 -0.00000000000E+00 -0.74866672583E+02  0.74866672583E+02  0.00000000000E+00 0.  1.
         24    1    1    2    0    0  0.79237705912E+01 -0.69299752115E+01  0.14411826050E+03  0.16537260856E+03  0.80419002446E+02 0. -1.
        -24    1    1    2    0    0 -0.79237705912E+01  0.69299752115E+01 -0.38639879944E+02  0.89839117167E+02  0.80419002446E+02 0.  0.
<mgrwt>
<rscale>  0 0.81105035E+02</rscale>
<asrwt>0</asrwt>
<pdfrwt beam="1">  1        2 0.27745393E-01 0.81105035E+02</pdfrwt>
<pdfrwt beam="2">  1       -2 0.11517950E-01 0.81105035E+02</pdfrwt>
<totfact> 0.91319923E+03</totfact>
</mgrwt>
</event>
<event>
 4    1  0.4940461E-001  0.8537544E+02  0.7546771E-02  0.1314454E+00
         -1   -1    0    0    0  501 -0.00000000000E+00  0.00000000000E+00  0.32667172137E+01  0.32667172137E+01  0.00000000000E+00 0.  1.
          1   -1    0    0  501    0  0.00000000000E+00 -0.00000000000E+00 -0.22661720823E+04  0.22661720823E+04  0.00000000000E+00 0. -1.
         24    1    1    2    0    0 -0.27721633631E+02 -0.72979629983E+01 -0.99065448674E+03  0.99432654460E+03  0.80419002446E+02 0. -1.
        -24    1    1    2    0    0  0.27721633631E+02  0.72979629983E+01 -0.12722508784E+04  0.12751122549E+04  0.80419002446E+02 0.  1.
<mgrwt>
<rscale>  0 0.85375437E+02</rscale>
<asrwt>0</asrwt>
<pdfrwt beam="1">  1        1 0.34864219E+00 0.85375437E+02</pdfrwt>
<pdfrwt beam="2">  1       -1 0.50257140E-03 0.85375437E+02</pdfrwt>
<totfact> 0.10991579E+04</totfact>
</mgrwt>
</event>
<event>
 4    1  0.4940461E-001  0.1044768E+03  0.7546771E-02  0.1271154E+00
         -4   -1    0    0    0  501 -0.00000000000E+00  0.00000000000E+00  0.32271717672E+03  0.32271717672E+03  0.00000000000E+00 0.  1.
          4   -1    0    0  501    0  0.00000000000E+00 -0.00000000000E+00 -0.39821515693E+02  0.39821515693E+02  0.00000000000E+00 0. -1.
         24    1    1    2    0    0 -0.66680229950E+02  0.13911330738E+01  0.71096626394E+02  0.12637299773E+03  0.80419002446E+02 0. -1.
        -24    1    1    2    0    0  0.66680229950E+02 -0.13911330738E+01  0.21179903463E+03  0.23616569468E+03  0.80419002446E+02 0.  1.
<mgrwt>
<rscale>  0 0.10447681E+03</rscale>
<asrwt>0</asrwt>
<pdfrwt beam="1">  1        4 0.61263873E-02 0.10447681E+03</pdfrwt>
<pdfrwt beam="2">  1       -4 0.49648795E-01 0.10447681E+03</pdfrwt>
<totfact> 0.10517184E+03</totfact>
</mgrwt>
</event>
<event>
 4    1  0.4940461E-001  0.8176110E+02  0.7546771E-02  0.1324127E+00
         -2   -1    0    0    0  501 -0.00000000000E+00  0.00000000000E+00  0.36884994942E+02  0.36884994942E+02  0.00000000000E+00 0.  1.
          2   -1    0    0  501    0  0.00000000000E+00 -0.00000000000E+00 -0.60022286464E+03  0.60022286464E+03  0.00000000000E+00 0. -1.
         24    1    1    2    0    0 -0.11129922607E+02 -0.96843058797E+01 -0.54781930374E+03  0.55388705208E+03  0.80419002446E+02 0.  0.
        -24    1    1    2    0    0  0.11129922607E+02  0.96843058797E+01 -0.15518565960E+02  0.83220807503E+02  0.80419002446E+02 0.  1.
<mgrwt>
<rscale>  0 0.81761097E+02</rscale>
<asrwt>0</asrwt>
<pdfrwt beam="1">  1        2 0.92341976E-01 0.81761097E+02</pdfrwt>
<pdfrwt beam="2">  1       -2 0.56746148E-02 0.81761097E+02</pdfrwt>
<totfact> 0.75461101E+03</totfact>
</mgrwt>
</event>
<event>
 4    1  0.4940461E-001  0.8501808E+02  0.7546771E-02  0.1315385E+00
          3   -1    0    0  501    0  0.00000000000E+00  0.00000000000E+00  0.93090566716E+03  0.93090566716E+03  0.00000000000E+00 0. -1.
         -3   -1    0    0    0  501 -0.00000000000E+00 -0.00000000000E+00 -0.13190682882E+02  0.13190682882E+02  0.00000000000E+00 0.  1.
         24    1    1    2    0    0  0.21782481228E+02  0.16922790193E+02  0.15609820089E+03  0.17774904105E+03  0.80419002446E+02 0. -1.
        -24    1    1    2    0    0 -0.21782481228E+02 -0.16922790193E+02  0.76161678339E+03  0.76634730900E+03  0.80419002446E+02 0. -1.
<mgrwt>
<rscale>  0 0.85018076E+02</rscale>
<asrwt>0</asrwt>
<pdfrwt beam="1">  1        3 0.14321621E+00 0.85018076E+02</pdfrwt>
<pdfrwt beam="2">  1       -3 0.20293366E-02 0.85018076E+02</pdfrwt>
<totfact> 0.77106011E+02</totfact>
</mgrwt>
</event>
<event>
 4    1  0.4940461E-001  0.9528466E+02  0.7546771E-02  0.1290536E+00
          2   -1    0    0  501    0  0.00000000000E+00  0.00000000000E+00  0.66326875201E+02  0.66326875201E+02  0.00000000000E+00 0. -1.
         -2   -1    0    0    0  501 -0.00000000000E+00 -0.00000000000E+00 -0.15567569439E+04  0.15567569439E+04  0.00000000000E+00 0.  1.
         24    1    1    2    0    0  0.33908226898E+02  0.38238507274E+02  0.29826730066E+02  0.99843883492E+02  0.80419002446E+02 0. -1.
        -24    1    1    2    0    0 -0.33908226898E+02 -0.38238507274E+02 -0.15202567987E+04  0.15232399356E+04  0.80419002446E+02 0.  1.
<mgrwt>
<rscale>  0 0.95284664E+02</rscale>
<asrwt>0</asrwt>
<pdfrwt beam="1">  1        2 0.10204135E-01 0.95284664E+02</pdfrwt>
<pdfrwt beam="2">  1       -2 0.23950105E+00 0.95284664E+02</pdfrwt>
<totfact> 0.53362996E+01</totfact>
</mgrwt>
</event>
<event>
 4    1  0.4940461E-001  0.8634862E+02  0.7546771E-02  0.1311943E+00
          2   -1    0    0  501    0  0.00000000000E+00  0.00000000000E+00  0.42730798367E+02  0.42730798367E+02  0.00000000000E+00 0. -1.
         -2   -1    0    0    0  501 -0.00000000000E+00 -0.00000000000E+00 -0.21500309093E+03  0.21500309093E+03  0.00000000000E+00 0.  1.
         24    1    1    2    0    0 -0.83910296501E+01  0.30306073582E+02 -0.30196647264E+02  0.91476340848E+02  0.80419002446E+02 0.  0.
        -24    1    1    2    0    0  0.83910296501E+01 -0.30306073582E+02 -0.14207564529E+03  0.16625754844E+03  0.80419002446E+02 0.  0.
<mgrwt>
<rscale>  0 0.86348616E+02</rscale>
<asrwt>0</asrwt>
<pdfrwt beam="1">  1        2 0.65739690E-02 0.86348616E+02</pdfrwt>
<pdfrwt beam="2">  1       -2 0.33077398E-01 0.86348616E+02</pdfrwt>
<totfact> 0.84320453E+03</totfact>
</mgrwt>
</event>
<event>
 4    1  0.4940461E-001  0.8821141E+02  0.7546771E-02  0.1307242E+00
          2   -1    0    0  501    0  0.00000000000E+00  0.00000000000E+00  0.33168006273E+03  0.33168006273E+03  0.00000000000E+00 0. -1.
         -2   -1    0    0    0  501 -0.00000000000E+00 -0.00000000000E+00 -0.32693509345E+02  0.32693509345E+02  0.00000000000E+00 0.  1.
         24    1    1    2    0    0  0.16524245115E+02 -0.32264310976E+02  0.24631366002E+03  0.26163270344E+03  0.80419002446E+02 0. -1.
        -24    1    1    2    0    0 -0.16524245115E+02  0.32264310976E+02  0.52672893367E+02  0.10274086864E+03  0.80419002446E+02 0.  1.
<mgrwt>
<rscale>  0 0.88211407E+02</rscale>
<asrwt>0</asrwt>
<pdfrwt beam="1">  1        2 0.51027700E-01 0.88211407E+02</pdfrwt>
<pdfrwt beam="2">  1       -2 0.50297709E-02 0.88211407E+02</pdfrwt>
<totfact> 0.17117783E+04</totfact>
</mgrwt>
</event>
<event>
 4    1  0.4940461E-001  0.8733450E+02  0.7546771E-02  0.1309438E+00
          2   -1    0    0  501    0  0.00000000000E+00  0.00000000000E+00  0.99435969141E+03  0.99435969141E+03  0.00000000000E+00 0. -1.
         -2   -1    0    0    0  501 -0.00000000000E+00 -0.00000000000E+00 -0.11210923720E+02  0.11210923720E+02  0.00000000000E+00 0.  1.
         24    1    1    2    0    0 -0.29739000992E+02  0.16603930542E+02  0.77411744761E+03  0.77902832897E+03  0.80419002446E+02 0. -1.
        -24    1    1    2    0    0  0.29739000992E+02 -0.16603930542E+02  0.20903132008E+03  0.22654228616E+03  0.80419002446E+02 0.  1.
<mgrwt>
<rscale>  0 0.87334499E+02</rscale>
<asrwt>0</asrwt>
<pdfrwt beam="1">  1        2 0.15297834E+00 0.87334499E+02</pdfrwt>
<pdfrwt beam="2">  1       -2 0.17247583E-02 0.87334499E+02</pdfrwt>
<totfact> 0.23307715E+04</totfact>
</mgrwt>
</event>
<event>
 4    1  0.4940461E-001  0.8520355E+02  0.7546771E-02  0.1314901E+00
         -1   -1    0    0    0  501 -0.00000000000E+00  0.00000000000E+00  0.80332884679E+02  0.80332884679E+02  0.00000000000E+00 0.  1.
          1   -1    0    0  501    0  0.00000000000E+00 -0.00000000000E+00 -0.10337176565E+03  0.10337176565E+03  0.00000000000E+00 0. -1.
         24    1    1    2    0    0  0.27251601794E+02 -0.70554616299E+01  0.21056589005E+02  0.87766880052E+02  0.80419002446E+02 0.  0.
        -24    1    1    2    0    0 -0.27251601794E+02  0.70554616299E+01 -0.44095469979E+02  0.95937770280E+02  0.80419002446E+02 0.  0.
<mgrwt>
<rscale>  0 0.85203552E+02</rscale>
<asrwt>0</asrwt>
<pdfrwt beam="1">  1        1 0.15903349E-01 0.85203552E+02</pdfrwt>
<pdfrwt beam="2">  1       -1 0.12358905E-01 0.85203552E+02</pdfrwt>
<totfact> 0.13447883E+04</totfact>
</mgrwt>
</event>
<event>
 4    1  0.4940461E-001  0.8881083E+02  0.7546771E-02  0.1305757E+00
          1   -1    0    0  501    0  0.00000000000E+00  0.00000000000E+00  0.15154222009E+03  0.15154222009E+03  0.00000000000E+00 0. -1.
         -1   -1    0    0    0  501 -0.00000000000E+00 -0.00000000000E+00 -0.71390376877E+02  0.71390376877E+02  0.00000000000E+00 0.  1.
         24    1    1    2    0    0 -0.75003139957E-01  0.37684774520E+02 -0.17945249463E+02  0.90605716093E+02  0.80419002446E+02 0.  1.
        -24    1    1    2    0    0  0.75003139957E-01 -0.37684774520E+02  0.98097092677E+02  0.13232688088E+03  0.80419002446E+02 0. -1.
<mgrwt>
<rscale>  0 0.88810832E+02</rscale>
<asrwt>0</asrwt>
<pdfrwt beam="1">  1        1 0.23314188E-01 0.88810832E+02</pdfrwt>
<pdfrwt beam="2">  1       -1 0.10983135E-01 0.88810832E+02</pdfrwt>
<totfact> 0.99913320E+03</totfact>
</mgrwt>
</event>
<event>
 4    1  0.4940461E-001  0.8478233E+02  0.7546771E-02  0.1316003E+00
         -1   -1    0    0    0  501 -0.00000000000E+00  0.00000000000E+00  0.29934344983E+03  0.29934344983E+03  0.00000000000E+00 0.  1.
          1   -1    0    0  501    0  0.00000000000E+00 -0.00000000000E+00 -0.36862070831E+02  0.36862070831E+02  0.00000000000E+00 0. -1.
         24    1    1    2    0    0  0.25242447189E+02 -0.91458119134E+01  0.23048965659E+03  0.24558812016E+03  0.80419002446E+02 0.  1.
        -24    1    1    2    0    0 -0.25242447189E+02  0.91458119134E+01  0.31991722406E+02  0.90617400495E+02  0.80419002446E+02 0. -1.
<mgrwt>
<rscale>  0 0.84782327E+02</rscale>
<asrwt>0</asrwt>
<pdfrwt beam="1">  1        1 0.56710880E-02 0.84782327E+02</pdfrwt>
<pdfrwt beam="2">  1       -1 0.46052837E-01 0.84782327E+02</pdfrwt>
<totfact> 0.61074010E+03</totfact>
</mgrwt>
</event>
<event>
 4    1  0.4940461E-001  0.8806983E+02  0.7546771E-02  0.1307594E+00
          2   -1    0    0  501    0  0.00000000000E+00  0.00000000000E+00  0.18857875987E+03  0.18857875987E+03  0.00000000000E+00 0. -1.
         -2   -1    0    0    0  501 -0.00000000000E+00 -0.00000000000E+00 -0.54567022201E+02  0.54567022201E+02  0.00000000000E+00 0.  1.
         24    1    1    2    0    0  0.60912090319E+00  0.35898533872E+02  0.66778478040E+01  0.88322620931E+02  0.80419002446E+02 0.  0.
        -24    1    1    2    0    0 -0.60912090319E+00 -0.35898533872E+02  0.12733388986E+03  0.15482316114E+03  0.80419002446E+02 0.  0.
<mgrwt>
<rscale>  0 0.88069823E+02</rscale>
<asrwt>0</asrwt>
<pdfrwt beam="1">  1        2 0.29012117E-01 0.88069834E+02</pdfrwt>
<pdfrwt beam="2">  1       -2 0.83949266E-02 0.88069834E+02</pdfrwt>
<totfact> 0.14328089E+04</totfact>
</mgrwt>
</event>
<event>
 4    1  0.4940461E-001  0.1226722E+03  0.7546771E-02  0.1238753E+00
          2   -1    0    0  501    0  0.00000000000E+00  0.00000000000E+00  0.23762133281E+03  0.23762133281E+03  0.00000000000E+00 0. -1.
         -2   -1    0    0    0  501 -0.00000000000E+00 -0.00000000000E+00 -0.63768341318E+02  0.63768341318E+02  0.00000000000E+00 0.  1.
         24    1    1    2    0    0  0.88250525643E+02  0.28162112266E+02  0.99425500116E+02  0.15790473670E+03  0.80419002446E+02 0.  1.
        -24    1    1    2    0    0 -0.88250525643E+02 -0.28162112266E+02  0.74427491379E+02  0.14348493744E+03  0.80419002446E+02 0. -1.
<mgrwt>
<rscale>  0 0.12267223E+03</rscale>
<asrwt>0</asrwt>
<pdfrwt beam="1">  1        2 0.36557128E-01 0.12267223E+03</pdfrwt>
<pdfrwt beam="2">  1       -2 0.98105141E-02 0.12267223E+03</pdfrwt>
<totfact> 0.90562085E+03</totfact>
</mgrwt>
</event>
<event>
 4    1  0.4940461E-001  0.9163803E+02  0.7546771E-02  0.1298933E+00
          2   -1    0    0  501    0  0.00000000000E+00  0.00000000000E+00  0.11389428427E+04  0.11389428427E+04  0.00000000000E+00 0. -1.
         -2   -1    0    0    0  501 -0.00000000000E+00 -0.00000000000E+00 -0.83255758495E+01  0.83255758495E+01  0.00000000000E+00 0.  1.
         24    1    1    2    0    0  0.42108593543E+02  0.12537119548E+02  0.75933332012E+03  0.76484287276E+03  0.80419002446E+02 0. -1.
        -24    1    1    2    0    0 -0.42108593543E+02 -0.12537119548E+02  0.37128394675E+03  0.38242554581E+03  0.80419002446E+02 0.  1.
<mgrwt>
<rscale>  0 0.91638032E+02</rscale>
<asrwt>0</asrwt>
<pdfrwt beam="1">  1        2 0.17522185E+00 0.91638032E+02</pdfrwt>
<pdfrwt beam="2">  1       -2 0.12808587E-02 0.91638032E+02</pdfrwt>
<totfact> 0.29603863E+04</totfact>
</mgrwt>
</event>
<event>
 4    1  0.4940461E-001  0.9904217E+02  0.7546771E-02  0.1282323E+00
         -1   -1    0    0    0  501 -0.00000000000E+00  0.00000000000E+00  0.31050166139E+02  0.31050166139E+02  0.00000000000E+00 0.  1.
          1   -1    0    0  501    0  0.00000000000E+00 -0.00000000000E+00 -0.37512621931E+03  0.37512621931E+03  0.00000000000E+00 0. -1.
         24    1    1    2    0    0  0.49190923849E+02  0.30370854419E+02 -0.91355106570E+02  0.13474088926E+03  0.80419002446E+02 0.  0.
        -24    1    1    2    0    0 -0.49190923849E+02 -0.30370854419E+02 -0.25272094660E+03  0.27143549619E+03  0.80419002446E+02 0.  1.
<mgrwt>
<rscale>  0 0.99042172E+02</rscale>
<asrwt>0</asrwt>
<pdfrwt beam="1">  1        1 0.57711724E-01 0.99042172E+02</pdfrwt>
<pdfrwt beam="2">  1       -1 0.47769488E-02 0.99042172E+02</pdfrwt>
<totfact> 0.11436399E+04</totfact>
</mgrwt>
</event>
<event>
 4    1  0.4940461E-001  0.8140141E+02  0.7546771E-02  0.1325121E+00
          3   -1    0    0  501    0  0.00000000000E+00  0.00000000000E+00  0.63924227826E+01  0.63924227826E+01  0.00000000000E+00 0. -1.
         -3   -1    0    0    0  501 -0.00000000000E+00 -0.00000000000E+00 -0.10665592186E+04  0.10665592186E+04  0.00000000000E+00 0.  1.
         24    1    1    2    0    0  0.97962524714E+01 -0.79374608638E+01 -0.44012345553E+03  0.44758780358E+03  0.80419002446E+02 0.  1.
        -24    1    1    2    0    0 -0.97962524714E+01  0.79374608638E+01 -0.62004334026E+03  0.62536383778E+03  0.80419002446E+02 0.  0.
<mgrwt>
<rscale>  0 0.81401397E+02</rscale>
<asrwt>0</asrwt>
<pdfrwt beam="1">  1        3 0.98345004E-03 0.81401407E+02</pdfrwt>
<pdfrwt beam="2">  1       -3 0.16408597E+00 0.81401407E+02</pdfrwt>
<totfact> 0.16031197E+03</totfact>
</mgrwt>
</event>
<event>
 4    1  0.4940461E-001  0.8446450E+02  0.7546771E-02  0.1316839E+00
          2   -1    0    0  501    0  0.00000000000E+00  0.00000000000E+00  0.25970651933E+03  0.25970651933E+03  0.00000000000E+00 0. -1.
         -2   -1    0    0    0  501 -0.00000000000E+00 -0.00000000000E+00 -0.31998462153E+02  0.31998462153E+02  0.00000000000E+00 0.  1.
         24    1    1    2    0    0  0.56453209887E+00  0.25820857655E+02  0.16872008627E+03  0.18868152759E+03  0.80419002446E+02 0. -1.
        -24    1    1    2    0    0 -0.56453209887E+00 -0.25820857655E+02  0.58987970904E+02  0.10302345389E+03  0.80419002446E+02 0.  1.
<mgrwt>
<rscale>  0 0.84464498E+02</rscale>
<asrwt>0</asrwt>
<pdfrwt beam="1">  1        2 0.39954848E-01 0.84464498E+02</pdfrwt>
<pdfrwt beam="2">  1       -2 0.49228405E-02 0.84464498E+02</pdfrwt>
<totfact> 0.22704851E+04</totfact>
</mgrwt>
</event>
<event>
 4    1  0.4940461E-001  0.8205963E+02  0.7546771E-02  0.1323306E+00
          1   -1    0    0  501    0  0.00000000000E+00  0.00000000000E+00  0.11957201604E+04  0.11957201604E+04  0.00000000000E+00 0. -1.
         -1   -1    0    0    0  501 -0.00000000000E+00 -0.00000000000E+00 -0.66209358950E+01  0.66209358950E+01  0.00000000000E+00 0.  1.
         24    1    1    2    0    0 -0.90681724155E+01  0.13577031687E+02  0.36216029599E+03  0.37134062999E+03  0.80419002446E+02 0.  1.
        -24    1    1    2    0    0  0.90681724155E+01 -0.13577031687E+02  0.82693892856E+03  0.83100046635E+03  0.80419002446E+02 0.  0.
<mgrwt>
<rscale>  0 0.82059634E+02</rscale>
<asrwt>0</asrwt>
<pdfrwt beam="1">  1        1 0.18395678E+00 0.82059634E+02</pdfrwt>
<pdfrwt beam="2">  1       -1 0.10186065E-02 0.82059634E+02</pdfrwt>
<totfact> 0.19436654E+04</totfact>
</mgrwt>
</event>
<event>
 4    1  0.4940461E-001  0.8205757E+02  0.7546771E-02  0.1323312E+00
          2   -1    0    0  501    0  0.00000000000E+00  0.00000000000E+00  0.11471713338E+04  0.11471713338E+04  0.00000000000E+00 0. -1.
         -2   -1    0    0    0  501 -0.00000000000E+00 -0.00000000000E+00 -0.69057211627E+01  0.69057211627E+01  0.00000000000E+00 0.  1.
         24    1    1    2    0    0  0.85212001903E+01  0.13914693728E+02  0.79364642192E+03  0.79787723901E+03  0.80419002446E+02 0. -1.
        -24    1    1    2    0    0 -0.85212001903E+01 -0.13914693728E+02  0.34661919069E+03  0.35619981592E+03  0.80419002446E+02 0.  0.
<mgrwt>
<rscale>  0 0.82057574E+02</rscale>
<asrwt>0</asrwt>
<pdfrwt beam="1">  1        2 0.17648775E+00 0.82057574E+02</pdfrwt>
<pdfrwt beam="2">  1       -2 0.10624195E-02 0.82057574E+02</pdfrwt>
<totfact> 0.37779429E+04</totfact>
</mgrwt>
</event>
<event>
 4    1  0.4940461E-001  0.8927641E+02  0.7546771E-02  0.1304613E+00
          2   -1    0    0  501    0  0.00000000000E+00  0.00000000000E+00  0.89918549360E+03  0.89918549360E+03  0.00000000000E+00 0. -1.
         -2   -1    0    0    0  501 -0.00000000000E+00 -0.00000000000E+00 -0.24500525067E+02  0.24500525067E+02  0.00000000000E+00 0.  1.
         24    1    1    2    0    0  0.38722190016E+02  0.19115075567E+01  0.80630171713E+03  0.81122915188E+03  0.80419002446E+02 0. -1.
        -24    1    1    2    0    0 -0.38722190016E+02 -0.19115075567E+01  0.68383251405E+02  0.11245686679E+03  0.80419002446E+02 0.  1.
<mgrwt>
<rscale>  0 0.89276412E+02</rscale>
<asrwt>0</asrwt>
<pdfrwt beam="1">  1        2 0.13833620E+00 0.89276412E+02</pdfrwt>
<pdfrwt beam="2">  1       -2 0.37693122E-02 0.89276412E+02</pdfrwt>
<totfact> 0.86018885E+03</totfact>
</mgrwt>
</event>
<event>
 4    1  0.4940461E-001  0.8555815E+02  0.7546771E-02  0.1313979E+00
         -1   -1    0    0    0  501 -0.00000000000E+00  0.00000000000E+00  0.66020639375E+02  0.66020639375E+02  0.00000000000E+00 0.  1.
          1   -1    0    0  501    0  0.00000000000E+00 -0.00000000000E+00 -0.12222479217E+03  0.12222479217E+03  0.00000000000E+00 0. -1.
         24    1    1    2    0    0  0.23091979180E+02  0.17881309951E+02  0.57684859050E+00  0.85560092664E+02  0.80419002446E+02 0. -1.
        -24    1    1    2    0    0 -0.23091979180E+02 -0.17881309951E+02 -0.56781001383E+02  0.10268533888E+03  0.80419002446E+02 0. -1.
<mgrwt>
<rscale>  0 0.85558148E+02</rscale>
<asrwt>0</asrwt>
<pdfrwt beam="1">  1        1 0.18803814E-01 0.85558148E+02</pdfrwt>
<pdfrwt beam="2">  1       -1 0.10157021E-01 0.85558148E+02</pdfrwt>
<totfact> 0.14659414E+04</totfact>
</mgrwt>
</event>
<event>
 4    1  0.4940461E-001  0.1479991E+03  0.7546771E-02  0.1202953E+00
          2   -1    0    0  501    0  0.00000000000E+00  0.00000000000E+00  0.13274480491E+03  0.13274480491E+03  0.00000000000E+00 0. -1.
         -2   -1    0    0    0  501 -0.00000000000E+00 -0.00000000000E+00 -0.21301888005E+03  0.21301888005E+03  0.00000000000E+00 0.  1.
         24    1    1    2    0    0  0.12201511019E+03 -0.23427381877E+02  0.41939174397E+02  0.15382665452E+03  0.80419002446E+02 0. -1.
        -24    1    1    2    0    0 -0.12201511019E+03  0.23427381877E+02 -0.12221324953E+03  0.19193703044E+03  0.80419002446E+02 0.  1.
<mgrwt>
<rscale>  0 0.14799914E+03</rscale>
<asrwt>0</asrwt>
<pdfrwt beam="1">  1        2 0.20422278E-01 0.14799914E+03</pdfrwt>
<pdfrwt beam="2">  1       -2 0.32772135E-01 0.14799914E+03</pdfrwt>
<totfact> 0.22901653E+03</totfact>
</mgrwt>
</event>
<event>
 4    1  0.4940461E-001  0.9345063E+02  0.7546771E-02  0.1294704E+00
         -1   -1    0    0    0  501 -0.00000000000E+00  0.00000000000E+00  0.54639926488E+03  0.54639926488E+03  0.00000000000E+00 0.  1.
          1   -1    0    0  501    0  0.00000000000E+00 -0.00000000000E+00 -0.33908251879E+02  0.33908251879E+02  0.00000000000E+00 0. -1.
         24    1    1    2    0    0 -0.63445895419E+01  0.47175738244E+02  0.46721025583E+03  0.47646452460E+03  0.80419002446E+02 0.  1.
        -24    1    1    2    0    0  0.63445895419E+01 -0.47175738244E+02  0.45280757165E+02  0.10384299215E+03  0.80419002446E+02 0. -1.
<mgrwt>
<rscale>  0 0.93450629E+02</rscale>
<asrwt>0</asrwt>
<pdfrwt beam="1">  1        1 0.52166545E-02 0.93450629E+02</pdfrwt>
<pdfrwt beam="2">  1       -1 0.84061419E-01 0.93450629E+02</pdfrwt>
<totfact> 0.21917487E+03</totfact>
</mgrwt>
</event>
<event>
 4    1  0.4940461E-001  0.8573994E+02  0.7546771E-02  0.1313509E+00
         -1   -1    0    0    0  501 -0.00000000000E+00  0.00000000000E+00  0.10306290348E+04  0.10306290348E+04  0.00000000000E+00 0.  1.
          1   -1    0    0  501    0  0.00000000000E+00 -0.00000000000E+00 -0.10327089790E+02  0.10327089790E+02  0.00000000000E+00 0. -1.
         24    1    1    2    0    0 -0.21104456664E+02  0.20945714654E+02  0.79961609327E+03  0.80419974734E+03  0.80419002446E+02 0.  1.
        -24    1    1    2    0    0  0.21104456664E+02 -0.20945714654E+02  0.22068585169E+03  0.23675637720E+03  0.80419002446E+02 0. -1.
<mgrwt>
<rscale>  0 0.85739938E+02</rscale>
<asrwt>0</asrwt>
<pdfrwt beam="1">  1        1 0.15887839E-02 0.85739938E+02</pdfrwt>
<pdfrwt beam="2">  1       -1 0.15855823E+00 0.85739938E+02</pdfrwt>
<totfact> 0.25605482E+03</totfact>
</mgrwt>
</event>
<event>
 4    1  0.4940461E-001  0.8502317E+02  0.7546771E-02  0.1315372E+00
          2   -1    0    0  501    0  0.00000000000E+00  0.00000000000E+00  0.21158547375E+04  0.21158547375E+04  0.00000000000E+00 0. -1.
         -2   -1    0    0    0  501 -0.00000000000E+00 -0.00000000000E+00 -0.60380336763E+01  0.60380336763E+01  0.00000000000E+00 0.  1.
         24    1    1    2    0    0 -0.16681054955E+02 -0.21987873503E+02  0.17539750279E+04  0.17560345494E+04  0.80419002446E+02 0. -1.
        -24    1    1    2    0    0  0.16681054955E+02  0.21987873503E+02  0.35584167594E+03  0.36585822181E+03  0.80419002446E+02 0.  0.
<mgrwt>
<rscale>  0 0.85023174E+02</rscale>
<asrwt>0</asrwt>
<pdfrwt beam="1">  1        2 0.32551552E+00 0.85023174E+02</pdfrwt>
<pdfrwt beam="2">  1       -2 0.92892995E-03 0.85023174E+02</pdfrwt>
<totfact> 0.14669195E+04</totfact>
</mgrwt>
</event>
<event>
 4    1  0.4940461E-001  0.9442931E+02  0.7546771E-02  0.1292467E+00
          2   -1    0    0  501    0  0.00000000000E+00  0.00000000000E+00  0.54663908969E+02  0.54663908969E+02  0.00000000000E+00 0. -1.
         -2   -1    0    0    0  501 -0.00000000000E+00 -0.00000000000E+00 -0.16365475291E+03  0.16365475291E+03  0.00000000000E+00 0.  1.
         24    1    1    2    0    0  0.18648831649E+02  0.45846421232E+02 -0.60723250902E+02  0.11226843909E+03  0.80419002446E+02 0.  0.
        -24    1    1    2    0    0 -0.18648831649E+02 -0.45846421232E+02 -0.48267593043E+02  0.10605022279E+03  0.80419002446E+02 0.  0.
<mgrwt>
<rscale>  0 0.94429293E+02</rscale>
<asrwt>0</asrwt>
<pdfrwt beam="1">  1        2 0.84098322E-02 0.94429305E+02</pdfrwt>
<pdfrwt beam="2">  1       -2 0.25177654E-01 0.94429305E+02</pdfrwt>
<totfact> 0.10143100E+04</totfact>
</mgrwt>
</event>
<event>
 4    1  0.4940461E-001  0.8534771E+02  0.7546771E-02  0.1314526E+00
         -2   -1    0    0    0  501 -0.00000000000E+00  0.00000000000E+00  0.44882894754E+01  0.44882894754E+01  0.00000000000E+00 0.  1.
          2   -1    0    0  501    0  0.00000000000E+00 -0.00000000000E+00 -0.24169518627E+04  0.24169518627E+04  0.00000000000E+00 0. -1.
         24    1    1    2    0    0 -0.20686656250E+02 -0.19725069797E+02 -0.19001731554E+04  0.19020889181E+04  0.80419002446E+02 0. -1.
        -24    1    1    2    0    0  0.20686656250E+02  0.19725069797E+02 -0.51229041783E+03  0.51935123402E+03  0.80419002446E+02 0.  1.
<mgrwt>
<rscale>  0 0.85347713E+02</rscale>
<asrwt>0</asrwt>
<pdfrwt beam="1">  1        2 0.37183893E+00 0.85347713E+02</pdfrwt>
<pdfrwt beam="2">  1       -2 0.69050573E-03 0.85347713E+02</pdfrwt>
<totfact> 0.15637230E+04</totfact>
</mgrwt>
</event>
<event>
 4    1  0.4940461E-001  0.9500470E+02  0.7546771E-02  0.1291166E+00
         -2   -1    0    0    0  501 -0.00000000000E+00  0.00000000000E+00  0.49501230548E+02  0.49501230548E+02  0.00000000000E+00 0.  1.
          2   -1    0    0  501    0  0.00000000000E+00 -0.00000000000E+00 -0.47883229914E+03  0.47883229914E+03  0.00000000000E+00 0. -1.
         24    1    1    2    0    0  0.25496233953E+02 -0.43687736480E+02 -0.42253732959E+03  0.43308623519E+03  0.80419002446E+02 0. -1.
        -24    1    1    2    0    0 -0.25496233953E+02  0.43687736480E+02 -0.67937390044E+01  0.95247294495E+02  0.80419002446E+02 0.  1.
<mgrwt>
<rscale>  0 0.95004696E+02</rscale>
<asrwt>0</asrwt>
<pdfrwt beam="1">  1        2 0.73666507E-01 0.95004696E+02</pdfrwt>
<pdfrwt beam="2">  1       -2 0.76155740E-02 0.95004696E+02</pdfrwt>
<totfact> 0.62644926E+03</totfact>
</mgrwt>
</event>
<event>
 4    1  0.4940461E-001  0.9618263E+02  0.7546771E-02  0.1288534E+00
          2   -1    0    0  501    0  0.00000000000E+00  0.00000000000E+00  0.16446391632E+04  0.16446391632E+04  0.00000000000E+00 0. -1.
         -2   -1    0    0    0  501 -0.00000000000E+00 -0.00000000000E+00 -0.71227529805E+01  0.71227529805E+01  0.00000000000E+00 0.  1.
         24    1    1    2    0    0 -0.19097293011E+02 -0.49185125946E+02  0.11974738671E+04  0.12013304131E+04  0.80419002446E+02 0. -1.
        -24    1    1    2    0    0  0.19097293011E+02  0.49185125946E+02  0.44004254316E+03  0.45043150308E+03  0.80419002446E+02 0.  1.
<mgrwt>
<rscale>  0 0.96182634E+02</rscale>
<asrwt>0</asrwt>
<pdfrwt beam="1">  1        2 0.25302111E+00 0.96182634E+02</pdfrwt>
<pdfrwt beam="2">  1       -2 0.10958095E-02 0.96182634E+02</pdfrwt>
<totfact> 0.20168834E+04</totfact>
</mgrwt>
</event>
<event>
 4    1  0.4940461E-001  0.1221089E+03  0.7546771E-02  0.1239658E+00
          1   -1    0    0  501    0  0.00000000000E+00  0.00000000000E+00  0.25320131491E+03  0.25320131491E+03  0.00000000000E+00 0. -1.
         -1   -1    0    0    0  501 -0.00000000000E+00 -0.00000000000E+00 -0.35990877397E+03  0.35990877397E+03  0.00000000000E+00 0.  1.
         24    1    1    2    0    0  0.22446833046E+02 -0.89103877940E+02 -0.33371002827E+03  0.35534906824E+03  0.80419002446E+02 0.  1.
        -24    1    1    2    0    0 -0.22446833046E+02  0.89103877940E+02  0.22700256921E+03  0.25776102064E+03  0.80419002446E+02 0. -1.
<mgrwt>
<rscale>  0 0.12210887E+03</rscale>
<asrwt>0</asrwt>
<pdfrwt beam="1">  1        1 0.38954049E-01 0.12210887E+03</pdfrwt>
<pdfrwt beam="2">  1       -1 0.55370580E-01 0.12210887E+03</pdfrwt>
<totfact> 0.37349778E+02</totfact>
</mgrwt>
</event>
<event>
 4    1  0.4940461E-001  0.2176380E+03  0.7546771E-02  0.1135656E+00
         -2   -1    0    0    0  501 -0.00000000000E+00  0.00000000000E+00  0.62132747996E+02  0.62132747996E+02  0.00000000000E+00 0.  1.
          2   -1    0    0  501    0  0.00000000000E+00 -0.00000000000E+00 -0.76909555047E+03  0.76909555047E+03  0.00000000000E+00 0. -1.
         24    1    1    2    0    0 -0.15717667224E+03 -0.12725788310E+03 -0.39243291693E+03  0.44874256022E+03  0.80419002446E+02 0. -1.
        -24    1    1    2    0    0  0.15717667224E+03  0.12725788310E+03 -0.31452988555E+03  0.38248573825E+03  0.80419002446E+02 0.  1.
<mgrwt>
<rscale>  0 0.21763798E+03</rscale>
<asrwt>0</asrwt>
<pdfrwt beam="1">  1        2 0.11832240E+00 0.21763798E+03</pdfrwt>
<pdfrwt beam="2">  1       -2 0.95588838E-02 0.21763798E+03</pdfrwt>
<totfact> 0.26440853E+03</totfact>
</mgrwt>
</event>
<event>
 4    1  0.4940461E-001  0.8295475E+02  0.7546771E-02  0.1320869E+00
          2   -1    0    0  501    0  0.00000000000E+00  0.00000000000E+00  0.21137356086E+03  0.21137356086E+03  0.00000000000E+00 0. -1.
         -2   -1    0    0    0  501 -0.00000000000E+00 -0.00000000000E+00 -0.32668709706E+02  0.32668709706E+02  0.00000000000E+00 0.  1.
         24    1    1    2    0    0  0.18716672633E+02 -0.79975333955E+01  0.96517721084E+02  0.12726806674E+03  0.80419002446E+02 0.  0.
        -24    1    1    2    0    0 -0.18716672633E+02  0.79975333955E+01  0.82187130068E+02  0.11677420382E+03  0.80419002446E+02 0. -1.
<mgrwt>
<rscale>  0 0.82954749E+02</rscale>
<asrwt>0</asrwt>
<pdfrwt beam="1">  1        2 0.32519009E-01 0.82954749E+02</pdfrwt>
<pdfrwt beam="2">  1       -2 0.50259555E-02 0.82954749E+02</pdfrwt>
<totfact> 0.27288878E+04</totfact>
</mgrwt>
</event>
<event>
 4    1  0.4940461E-001  0.9138149E+02  0.7546771E-02  0.1299540E+00
          1   -1    0    0  501    0  0.00000000000E+00  0.00000000000E+00  0.85750401571E+03  0.85750401571E+03  0.00000000000E+00 0. -1.
         -1   -1    0    0    0  501 -0.00000000000E+00 -0.00000000000E+00 -0.10543120238E+02  0.10543120238E+02  0.00000000000E+00 0.  1.
         24    1    1    2    0    0 -0.10376595941E+02 -0.42138894568E+02  0.30355936187E+03  0.31701555531E+03  0.80419002446E+02 0.  1.
        -24    1    1    2    0    0  0.10376595941E+02  0.42138894568E+02  0.54340153360E+03  0.55103158063E+03  0.80419002446E+02 0. -1.
<mgrwt>
<rscale>  0 0.91381487E+02</rscale>
<asrwt>0</asrwt>
<pdfrwt beam="1">  1        1 0.13192364E+00 0.91381487E+02</pdfrwt>
<pdfrwt beam="2">  1       -1 0.16220192E-02 0.91381487E+02</pdfrwt>
<totfact> 0.17730703E+04</totfact>
</mgrwt>
</event>
<event>
 4    1  0.4940461E-001  0.9040600E+02  0.7546771E-02  0.1301871E+00
         -1   -1    0    0    0  501 -0.00000000000E+00  0.00000000000E+00  0.18541154006E+02  0.18541154006E+02  0.00000000000E+00 0.  1.
          1   -1    0    0  501    0  0.00000000000E+00 -0.00000000000E+00 -0.44524250234E+03  0.44524250234E+03  0.00000000000E+00 0. -1.
         24    1    1    2    0    0  0.26249774366E+02  0.31890090024E+02 -0.19023009635E+03  0.21061988037E+03  0.80419002446E+02 0.  0.
        -24    1    1    2    0    0 -0.26249774366E+02 -0.31890090024E+02 -0.23647125198E+03  0.25316377597E+03  0.80419002446E+02 0.  1.
<mgrwt>
<rscale>  0 0.90405998E+02</rscale>
<asrwt>0</asrwt>
<pdfrwt beam="1">  1        1 0.68498843E-01 0.90405998E+02</pdfrwt>
<pdfrwt beam="2">  1       -1 0.28524854E-02 0.90405998E+02</pdfrwt>
<totfact> 0.19345369E+04</totfact>
</mgrwt>
</event>
<event>
 4    1  0.4940461E-001  0.8755170E+02  0.7546771E-02  0.1308891E+00
         -2   -1    0    0    0  501 -0.00000000000E+00  0.00000000000E+00  0.15907403367E+02  0.15907403367E+02  0.00000000000E+00 0.  1.
          2   -1    0    0  501    0  0.00000000000E+00 -0.00000000000E+00 -0.57254405188E+03  0.57254405188E+03  0.00000000000E+00 0. -1.
         24    1    1    2    0    0 -0.29566004373E+02  0.17998208972E+02 -0.39540777224E+03  0.40498469902E+03  0.80419002446E+02 0.  1.
        -24    1    1    2    0    0  0.29566004373E+02 -0.17998208972E+02 -0.16122887628E+03  0.18346675623E+03  0.80419002446E+02 0.  0.
<mgrwt>
<rscale>  0 0.87551700E+02</rscale>
<asrwt>0</asrwt>
<pdfrwt beam="1">  1        2 0.88083691E-01 0.87551700E+02</pdfrwt>
<pdfrwt beam="2">  1       -2 0.24472931E-02 0.87551700E+02</pdfrwt>
<totfact> 0.27416079E+04</totfact>
</mgrwt>
</event>
<event>
 4    1  0.4940461E-001  0.9156834E+02  0.7546771E-02  0.1299098E+00
         -2   -1    0    0    0  501 -0.00000000000E+00  0.00000000000E+00  0.96869281181E+01  0.96869281181E+01  0.00000000000E+00 0.  1.
          2   -1    0    0  501    0  0.00000000000E+00 -0.00000000000E+00 -0.97959511319E+03  0.97959511319E+03  0.00000000000E+00 0. -1.
         24    1    1    2    0    0  0.96004539129E+01 -0.42724379914E+02 -0.31619831927E+03  0.32919011896E+03  0.80419002446E+02 0.  1.
        -24    1    1    2    0    0 -0.96004539129E+01  0.42724379914E+02 -0.65370986580E+03  0.66009192235E+03  0.80419002446E+02 0. -1.
<mgrwt>
<rscale>  0 0.91568332E+02</rscale>
<asrwt>0</asrwt>
<pdfrwt beam="1">  1        2 0.15070693E+00 0.91568343E+02</pdfrwt>
<pdfrwt beam="2">  1       -2 0.14902967E-02 0.91568343E+02</pdfrwt>
<totfact> 0.29427153E+04</totfact>
</mgrwt>
</event>
<event>
 4    1  0.4940461E-001  0.8353538E+02  0.7546771E-02  0.1319308E+00
         -1   -1    0    0    0  501 -0.00000000000E+00  0.00000000000E+00  0.47498213149E+02  0.47498213149E+02  0.00000000000E+00 0.  1.
          1   -1    0    0  501    0  0.00000000000E+00 -0.00000000000E+00 -0.14811192194E+03  0.14811192194E+03  0.00000000000E+00 0. -1.
         24    1    1    2    0    0 -0.23777226424E+01 -0.22478587826E+02 -0.59102456161E+02  0.10232915887E+03  0.80419002446E+02 0.  0.
        -24    1    1    2    0    0  0.23777226424E+01  0.22478587826E+02 -0.41511252627E+02  0.93280976221E+02  0.80419002446E+02 0.  0.
<mgrwt>
<rscale>  0 0.83535371E+02</rscale>
<asrwt>0</asrwt>
<pdfrwt beam="1">  1        1 0.22786449E-01 0.83535381E+02</pdfrwt>
<pdfrwt beam="2">  1       -1 0.73074176E-02 0.83535381E+02</pdfrwt>
<totfact> 0.18814066E+04</totfact>
</mgrwt>
</event>
<event>
 4    1  0.4940461E-001  0.8911601E+02  0.7546771E-02  0.1305007E+00
          2   -1    0    0  501    0  0.00000000000E+00  0.00000000000E+00  0.14164764099E+04  0.14164764099E+04  0.00000000000E+00 0. -1.
         -2   -1    0    0    0  501 -0.00000000000E+00 -0.00000000000E+00 -0.56203673263E+01  0.56203673263E+01  0.00000000000E+00 0.  1.
         24    1    1    2    0    0 -0.81080776576E+01  0.37532739840E+02  0.74057758038E+03  0.74592011368E+03  0.80419002446E+02 0. -1.
        -24    1    1    2    0    0  0.81080776576E+01 -0.37532739840E+02  0.67027846217E+03  0.67617666352E+03  0.80419002446E+02 0.  1.
<mgrwt>
<rscale>  0 0.89116011E+02</rscale>
<asrwt>0</asrwt>
<pdfrwt beam="1">  1        2 0.21791916E+00 0.89116011E+02</pdfrwt>
<pdfrwt beam="2">  1       -2 0.86467302E-03 0.89116011E+02</pdfrwt>
<totfact> 0.36652509E+04</totfact>
</mgrwt>
</event>
<event>
 4    1  0.4940461E-001  0.8884646E+02  0.7546771E-02  0.1305669E+00
         -2   -1    0    0    0  501 -0.00000000000E+00  0.00000000000E+00  0.13370321411E+02  0.13370321411E+02  0.00000000000E+00 0.  1.
          2   -1    0    0  501    0  0.00000000000E+00 -0.00000000000E+00 -0.61207610978E+03  0.61207610978E+03  0.00000000000E+00 0. -1.
         24    1    1    2    0    0  0.69613577503E+01  0.37121662752E+02 -0.35821767636E+03  0.36907126407E+03  0.80419002446E+02 0. -1.
        -24    1    1    2    0    0 -0.69613577503E+01 -0.37121662752E+02 -0.24048811201E+03  0.25637516713E+03  0.80419002446E+02 0.  1.
<mgrwt>
<rscale>  0 0.88846465E+02</rscale>
<asrwt>0</asrwt>
<pdfrwt beam="1">  1        2 0.94165567E-01 0.88846465E+02</pdfrwt>
<pdfrwt beam="2">  1       -2 0.20569723E-02 0.88846465E+02</pdfrwt>
<totfact> 0.32736929E+04</totfact>
</mgrwt>
</event>
<event>
 4    1  0.4940461E-001  0.8584600E+02  0.7546771E-02  0.1313235E+00
          2   -1    0    0  501    0  0.00000000000E+00  0.00000000000E+00  0.14855744428E+04  0.14855744428E+04  0.00000000000E+00 0. -1.
         -2   -1    0    0    0  501 -0.00000000000E+00 -0.00000000000E+00 -0.30268813922E+02  0.30268813922E+02  0.00000000000E+00 0.  1.
         24    1    1    2    0    0 -0.14393341453E+02 -0.26365738633E+02  0.14206894866E+04  0.14232807713E+04  0.80419002446E+02 0. -1.
        -24    1    1    2    0    0  0.14393341453E+02  0.26365738633E+02  0.34616142202E+02  0.92562485421E+02  0.80419002446E+02 0.  1.
<mgrwt>
<rscale>  0 0.85846004E+02</rscale>
<asrwt>0</asrwt>
<pdfrwt beam="1">  1        2 0.22854986E+00 0.85846004E+02</pdfrwt>
<pdfrwt beam="2">  1       -2 0.46567418E-02 0.85846004E+02</pdfrwt>
<totfact> 0.29931254E+03</totfact>
</mgrwt>
</event>
<event>
 4    1  0.4940461E-001  0.9219844E+02  0.7546771E-02  0.1297614E+00
         -1   -1    0    0    0  501 -0.00000000000E+00  0.00000000000E+00  0.37467046314E+02  0.37467046314E+02  0.00000000000E+00 0.  1.
          1   -1    0    0  501    0  0.00000000000E+00 -0.00000000000E+00 -0.63580302438E+03  0.63580302438E+03  0.00000000000E+00 0. -1.
         24    1    1    2    0    0  0.19798892599E+02  0.40513454603E+02 -0.29196193642E+02  0.96710753433E+02  0.80419002446E+02 0.  1.
        -24    1    1    2    0    0 -0.19798892599E+02 -0.40513454603E+02 -0.56913978442E+03  0.57655931726E+03  0.80419002446E+02 0. -1.
<mgrwt>
<rscale>  0 0.92198439E+02</rscale>
<asrwt>0</asrwt>
<pdfrwt beam="1">  1        1 0.97815844E-01 0.92198439E+02</pdfrwt>
<pdfrwt beam="2">  1       -1 0.57641613E-02 0.92198439E+02</pdfrwt>
<totfact> 0.43776043E+03</totfact>
</mgrwt>
</event>
<event>
 4    1  0.4940461E-001  0.8893555E+02  0.7546771E-02  0.1305450E+00
          1   -1    0    0  501    0  0.00000000000E+00  0.00000000000E+00  0.79090936016E+03  0.79090936016E+03  0.00000000000E+00 0. -1.
         -1   -1    0    0    0  501 -0.00000000000E+00 -0.00000000000E+00 -0.11288192830E+02  0.11288192830E+02  0.00000000000E+00 0.  1.
         24    1    1    2    0    0  0.26918485272E+02 -0.26790127387E+02  0.25434275569E+03  0.26944344323E+03  0.80419002446E+02 0.  1.
        -24    1    1    2    0    0 -0.26918485272E+02  0.26790127387E+02  0.52527841164E+03  0.53275410976E+03  0.80419002446E+02 0. -1.
<mgrwt>
<rscale>  0 0.88935548E+02</rscale>
<asrwt>0</asrwt>
<pdfrwt beam="1">  1        1 0.12167832E+00 0.88935548E+02</pdfrwt>
<pdfrwt beam="2">  1       -1 0.17366457E-02 0.88935548E+02</pdfrwt>
<totfact> 0.18122405E+04</totfact>
</mgrwt>
</event>
<event>
 4    1  0.4940461E-001  0.9476524E+02  0.7546771E-02  0.1291706E+00
         -2   -1    0    0    0  501 -0.00000000000E+00  0.00000000000E+00  0.85082888638E+02  0.85082888638E+02  0.00000000000E+00 0.  1.
          2   -1    0    0  501    0  0.00000000000E+00 -0.00000000000E+00 -0.32863109574E+03  0.32863109574E+03  0.00000000000E+00 0. -1.
         24    1    1    2    0    0  0.29865194322E+02 -0.40265426251E+02 -0.29220479978E+03  0.30718739452E+03  0.80419002446E+02 0. -1.
        -24    1    1    2    0    0 -0.29865194322E+02  0.40265426251E+02  0.48656592672E+02  0.10652658986E+03  0.80419002446E+02 0.  1.
<mgrwt>
<rscale>  0 0.94765238E+02</rscale>
<asrwt>0</asrwt>
<pdfrwt beam="1">  1        2 0.50558629E-01 0.94765238E+02</pdfrwt>
<pdfrwt beam="2">  1       -2 0.13089675E-01 0.94765238E+02</pdfrwt>
<totfact> 0.40097860E+03</totfact>
</mgrwt>
</event>
<event>
 4    1  0.4940461E-001  0.8374236E+02  0.7546771E-02  0.1318755E+00
         -2   -1    0    0    0  501 -0.00000000000E+00  0.00000000000E+00  0.18043612533E+03  0.18043612533E+03  0.00000000000E+00 0.  1.
          2   -1    0    0  501    0  0.00000000000E+00 -0.00000000000E+00 -0.39573317070E+02  0.39573317070E+02  0.00000000000E+00 0. -1.
         24    1    1    2    0    0  0.23262241972E+02  0.21052949475E+01  0.85141068838E+02  0.11942270189E+03  0.80419002446E+02 0.  0.
        -24    1    1    2    0    0 -0.23262241972E+02 -0.21052949475E+01  0.55721739419E+02  0.10058674051E+03  0.80419002446E+02 0.  1.
<mgrwt>
<rscale>  0 0.83742354E+02</rscale>
<asrwt>0</asrwt>
<pdfrwt beam="1">  1        2 0.60882028E-02 0.83742365E+02</pdfrwt>
<pdfrwt beam="2">  1       -2 0.27759403E-01 0.83742365E+02</pdfrwt>
<totfact> 0.12657339E+04</totfact>
</mgrwt>
</event>
<event>
 4    1  0.4940461E-001  0.8404909E+02  0.7546771E-02  0.1317938E+00
         -2   -1    0    0    0  501 -0.00000000000E+00  0.00000000000E+00  0.17322123423E+03  0.17322123423E+03  0.00000000000E+00 0.  1.
          2   -1    0    0  501    0  0.00000000000E+00 -0.00000000000E+00 -0.59523210793E+02  0.59523210793E+02  0.00000000000E+00 0. -1.
         24    1    1    2    0    0  0.11931707370E+02  0.21322950139E+02 -0.84503437451E+01  0.84472824667E+02  0.80419002446E+02 0. -1.
        -24    1    1    2    0    0 -0.11931707370E+02 -0.21322950139E+02  0.12214836718E+03  0.14827162035E+03  0.80419002446E+02 0.  1.
<mgrwt>
<rscale>  0 0.84049092E+02</rscale>
<asrwt>0</asrwt>
<pdfrwt beam="1">  1        2 0.91574171E-02 0.84049092E+02</pdfrwt>
<pdfrwt beam="2">  1       -2 0.26649420E-01 0.84049092E+02</pdfrwt>
<totfact> 0.81827881E+03</totfact>
</mgrwt>
</event>
<event>
 4    1  0.4940461E-001  0.8510780E+02  0.7546771E-02  0.1315151E+00
         -1   -1    0    0    0  501 -0.00000000000E+00  0.00000000000E+00  0.71970083157E+02  0.71970083157E+02  0.00000000000E+00 0.  1.
          1   -1    0    0  501    0  0.00000000000E+00 -0.00000000000E+00 -0.11126522340E+03  0.11126522340E+03  0.00000000000E+00 0. -1.
         24    1    1    2    0    0  0.75937285712E+01 -0.26803969683E+02 -0.47954542061E+02  0.97688134197E+02  0.80419002446E+02 0.  1.
        -24    1    1    2    0    0 -0.75937285712E+01  0.26803969683E+02  0.86594018179E+01  0.85547172359E+02  0.80419002446E+02 0.  0.
<mgrwt>
<rscale>  0 0.85107786E+02</rscale>
<asrwt>0</asrwt>
<pdfrwt beam="1">  1        1 0.17117726E-01 0.85107797E+02</pdfrwt>
<pdfrwt beam="2">  1       -1 0.11072321E-01 0.85107797E+02</pdfrwt>
<totfact> 0.14477311E+04</totfact>
</mgrwt>
</event>
<event>
 4    1  0.4940461E-001  0.9995031E+02  0.7546771E-02  0.1280400E+00
          2   -1    0    0  501    0  0.00000000000E+00  0.00000000000E+00  0.19505134020E+03  0.19505134020E+03  0.00000000000E+00 0. -1.
         -2   -1    0    0    0  501 -0.00000000000E+00 -0.00000000000E+00 -0.22901942771E+03  0.22901942771E+03  0.00000000000E+00 0.  1.
         24    1    1    2    0    0 -0.58945213040E+02  0.69505220865E+01  0.16984322909E+03  0.19707051103E+03  0.80419002446E+02 0. -1.
        -24    1    1    2    0    0  0.58945213040E+02 -0.69505220865E+01 -0.20381131659E+03  0.22700025688E+03  0.80419002446E+02 0.  1.
<mgrwt>
<rscale>  0 0.99950307E+02</rscale>
<asrwt>0</asrwt>
<pdfrwt beam="1">  1        2 0.30007899E-01 0.99950307E+02</pdfrwt>
<pdfrwt beam="2">  1       -2 0.35233758E-01 0.99950307E+02</pdfrwt>
<totfact> 0.12919003E+03</totfact>
</mgrwt>
</event>
<event>
 4    1  0.4940461E-001  0.1051447E+03  0.7546771E-02  0.1269835E+00
          1   -1    0    0  501    0  0.00000000000E+00  0.00000000000E+00  0.24407848173E+02  0.24407848173E+02  0.00000000000E+00 0. -1.
         -1   -1    0    0    0  501 -0.00000000000E+00 -0.00000000000E+00 -0.64873428295E+03  0.64873428295E+03  0.00000000000E+00 0.  1.
         24    1    1    2    0    0  0.38342922287E+02 -0.55839083269E+02 -0.12726256486E+03  0.16507925151E+03  0.80419002446E+02 0. -1.
        -24    1    1    2    0    0 -0.38342922287E+02  0.55839083269E+02 -0.49706386992E+03  0.50806287962E+03  0.80419002446E+02 0.  1.
<mgrwt>
<rscale>  0 0.10514467E+03</rscale>
<asrwt>0</asrwt>
<pdfrwt beam="1">  1        1 0.37550540E-02 0.10514468E+03</pdfrwt>
<pdfrwt beam="2">  1       -1 0.99805262E-01 0.10514468E+03</pdfrwt>
<totfact> 0.23985492E+03</totfact>
</mgrwt>
</event>
<event>
 4    1  0.4940461E-001  0.1051105E+03  0.7546771E-02  0.1269902E+00
         -2   -1    0    0    0  501 -0.00000000000E+00  0.00000000000E+00  0.48996237732E+02  0.48996237732E+02  0.00000000000E+00 0.  1.
          2   -1    0    0  501    0  0.00000000000E+00 -0.00000000000E+00 -0.26570190418E+03  0.26570190418E+03  0.00000000000E+00 0. -1.
         24    1    1    2    0    0 -0.47375076255E+02  0.48338431074E+02 -0.16956503323E+03  0.19950067222E+03  0.80419002446E+02 0. -1.
        -24    1    1    2    0    0  0.47375076255E+02 -0.48338431074E+02 -0.47140633225E+02  0.11519746969E+03  0.80419002446E+02 0.  1.
<mgrwt>
<rscale>  0 0.10511050E+03</rscale>
<asrwt>0</asrwt>
<pdfrwt beam="1">  1        2 0.40877215E-01 0.10511050E+03</pdfrwt>
<pdfrwt beam="2">  1       -2 0.75378829E-02 0.10511050E+03</pdfrwt>
<totfact> 0.11939573E+04</totfact>
</mgrwt>
</event>
<event>
 4    1  0.4940461E-001  0.9785837E+02  0.7546771E-02  0.1284865E+00
          3   -1    0    0  501    0  0.00000000000E+00  0.00000000000E+00  0.36384554150E+03  0.36384554150E+03  0.00000000000E+00 0. -1.
         -3   -1    0    0    0  501 -0.00000000000E+00 -0.00000000000E+00 -0.11564624007E+03  0.11564624007E+03  0.00000000000E+00 0.  1.
         24    1    1    2    0    0 -0.47796511309E+02  0.28714771382E+02 -0.86605896847E+02  0.13067839114E+03  0.80419002446E+02 0.  1.
        -24    1    1    2    0    0  0.47796511309E+02 -0.28714771382E+02  0.33480519828E+03  0.34881339042E+03  0.80419002446E+02 0. -1.
<mgrwt>
<rscale>  0 0.97858370E+02</rscale>
<asrwt>0</asrwt>
<pdfrwt beam="1">  1        3 0.55976237E-01 0.97858370E+02</pdfrwt>
<pdfrwt beam="2">  1       -3 0.17791729E-01 0.97858370E+02</pdfrwt>
<totfact> 0.19624896E+02</totfact>
</mgrwt>
</event>
<event>
 4    1  0.4940461E-001  0.9775626E+02  0.7546771E-02  0.1285086E+00
          2   -1    0    0  501    0  0.00000000000E+00  0.00000000000E+00  0.45710037182E+03  0.45710037182E+03  0.00000000000E+00 0. -1.
         -2   -1    0    0    0  501 -0.00000000000E+00 -0.00000000000E+00 -0.30114102533E+02  0.30114102533E+02  0.00000000000E+00 0.  1.
         24    1    1    2    0    0 -0.55274153955E+02 -0.58170020414E+01  0.34819785253E+03  0.36166010296E+03  0.80419002446E+02 0. -1.
        -24    1    1    2    0    0  0.55274153955E+02  0.58170020414E+01  0.78788416759E+02  0.12555437140E+03  0.80419002446E+02 0. -1.
<mgrwt>
<rscale>  0 0.97756256E+02</rscale>
<asrwt>0</asrwt>
<pdfrwt beam="1">  1        2 0.70323129E-01 0.97756256E+02</pdfrwt>
<pdfrwt beam="2">  1       -2 0.46329392E-02 0.97756256E+02</pdfrwt>
<totfact> 0.13925199E+04</totfact>
</mgrwt>
</event>
<event>
 4    1  0.4940461E-001  0.8207042E+02  0.7546771E-02  0.1323276E+00
         -1   -1    0    0    0  501 -0.00000000000E+00  0.00000000000E+00  0.23295095278E+03  0.23295095278E+03  0.00000000000E+00 0.  1.
          1   -1    0    0  501    0  0.00000000000E+00 -0.00000000000E+00 -0.81645208626E+02  0.81645208626E+02  0.00000000000E+00 0. -1.
         24    1    1    2    0    0  0.29203640275E+01  0.16118606126E+02  0.20206587742E+03  0.21809670507E+03  0.80419002446E+02 0.  1.
        -24    1    1    2    0    0 -0.29203640275E+01 -0.16118606126E+02 -0.50760133268E+02  0.96499456337E+02  0.80419002446E+02 0. -1.
<mgrwt>
<rscale>  0 0.82070421E+02</rscale>
<asrwt>0</asrwt>
<pdfrwt beam="1">  1        1 0.12560801E-01 0.82070421E+02</pdfrwt>
<pdfrwt beam="2">  1       -1 0.35838608E-01 0.82070421E+02</pdfrwt>
<totfact> 0.33035748E+03</totfact>
</mgrwt>
</event>
<event>
 4    1  0.4940461E-001  0.8270593E+02  0.7546771E-02  0.1321543E+00
         -2   -1    0    0    0  501 -0.00000000000E+00  0.00000000000E+00  0.27738638589E+02  0.27738638589E+02  0.00000000000E+00 0.  1.
          2   -1    0    0  501    0  0.00000000000E+00 -0.00000000000E+00 -0.62069797169E+03  0.62069797169E+03  0.00000000000E+00 0. -1.
         24    1    1    2    0    0 -0.17842911884E+02 -0.73950110960E+01 -0.54818455391E+03  0.55438847101E+03  0.80419002446E+02 0.  0.
        -24    1    1    2    0    0  0.17842911884E+02  0.73950110960E+01 -0.44774779194E+02  0.94048139268E+02  0.80419002446E+02 0.  1.
<mgrwt>
<rscale>  0 0.82705935E+02</rscale>
<asrwt>0</asrwt>
<pdfrwt beam="1">  1        2 0.95491987E-01 0.82705935E+02</pdfrwt>
<pdfrwt beam="2">  1       -2 0.42674832E-02 0.82705935E+02</pdfrwt>
<totfact> 0.11092882E+04</totfact>
</mgrwt>
</event>
<event>
 4    1  0.4940461E-001  0.8916762E+02  0.7546771E-02  0.1304880E+00
         -2   -1    0    0    0  501 -0.00000000000E+00  0.00000000000E+00  0.52829964661E+03  0.52829964661E+03  0.00000000000E+00 0.  1.
          2   -1    0    0  501    0  0.00000000000E+00 -0.00000000000E+00 -0.16816341218E+02  0.16816341218E+02  0.00000000000E+00 0. -1.
         24    1    1    2    0    0 -0.28486606703E+02 -0.25926078455E+02  0.16740497945E+03  0.18967153557E+03  0.80419002446E+02 0. -1.
        -24    1    1    2    0    0  0.28486606703E+02  0.25926078455E+02  0.34407832595E+03  0.35544445227E+03  0.80419002446E+02 0.  1.
<mgrwt>
<rscale>  0 0.89167619E+02</rscale>
<asrwt>0</asrwt>
<pdfrwt beam="1">  1        2 0.25871298E-02 0.89167619E+02</pdfrwt>
<pdfrwt beam="2">  1       -2 0.81276856E-01 0.89167619E+02</pdfrwt>
<totfact> 0.47983538E+03</totfact>
</mgrwt>
</event>
<event>
 4    1  0.4940461E-001  0.1022409E+03  0.7546771E-02  0.1275653E+00
          2   -1    0    0  501    0  0.00000000000E+00  0.00000000000E+00  0.17038045808E+04  0.17038045808E+04  0.00000000000E+00 0. -1.
         -2   -1    0    0    0  501 -0.00000000000E+00 -0.00000000000E+00 -0.10474626556E+02  0.10474626556E+02  0.00000000000E+00 0.  1.
         24    1    1    2    0    0  0.28083080649E+02  0.56544892439E+02  0.13983585435E+04  0.14020912297E+04  0.80419002446E+02 0.  1.
        -24    1    1    2    0    0 -0.28083080649E+02 -0.56544892439E+02  0.29497141075E+03  0.31218797766E+03  0.80419002446E+02 0.  0.
<mgrwt>
<rscale>  0 0.10224089E+03</rscale>
<asrwt>0</asrwt>
<pdfrwt beam="1">  1        2 0.26212356E+00 0.10224089E+03</pdfrwt>
<pdfrwt beam="2">  1       -2 0.16114824E-02 0.10224089E+03</pdfrwt>
<totfact> 0.10898114E+04</totfact>
</mgrwt>
</event>
<event>
 4    1  0.4940461E-001  0.9376109E+02  0.7546771E-02  0.1293991E+00
         -2   -1    0    0    0  501 -0.00000000000E+00  0.00000000000E+00  0.80513014732E+01  0.80513014732E+01  0.00000000000E+00 0.  1.
          2   -1    0    0  501    0  0.00000000000E+00 -0.00000000000E+00 -0.10927506671E+04  0.10927506671E+04  0.00000000000E+00 0. -1.
         24    1    1    2    0    0  0.47344351047E+02 -0.90793564275E+01 -0.52690594854E+03  0.53518316196E+03  0.80419002446E+02 0. -1.
        -24    1    1    2    0    0 -0.47344351047E+02  0.90793564275E+01 -0.55779341706E+03  0.56561880658E+03  0.80419002446E+02 0.  1.
<mgrwt>
<rscale>  0 0.93761082E+02</rscale>
<asrwt>0</asrwt>
<pdfrwt beam="1">  1        2 0.16811540E+00 0.93761093E+02</pdfrwt>
<pdfrwt beam="2">  1       -2 0.12386624E-02 0.93761093E+02</pdfrwt>
<totfact> 0.33020361E+04</totfact>
</mgrwt>
</event>
<event>
 4    1  0.4940461E-001  0.9213061E+02  0.7546771E-02  0.1297773E+00
         -2   -1    0    0    0  501 -0.00000000000E+00  0.00000000000E+00  0.96061586992E+03  0.96061586992E+03  0.00000000000E+00 0.  1.
          2   -1    0    0  501    0  0.00000000000E+00 -0.00000000000E+00 -0.23624497351E+03  0.23624497351E+03  0.00000000000E+00 0. -1.
         24    1    1    2    0    0 -0.39825301086E+02  0.20851339551E+02 -0.22494705976E+03  0.24308276084E+03  0.80419002446E+02 0. -1.
        -24    1    1    2    0    0  0.39825301086E+02 -0.20851339551E+02  0.94931795617E+03  0.95377808259E+03  0.80419002446E+02 0.  1.
<mgrwt>
<rscale>  0 0.92130608E+02</rscale>
<asrwt>0</asrwt>
<pdfrwt beam="1">  1        2 0.36345381E-01 0.92130608E+02</pdfrwt>
<pdfrwt beam="2">  1       -2 0.14778705E+00 0.92130608E+02</pdfrwt>
<totfact> 0.48964857E+01</totfact>
</mgrwt>
</event>
<event>
 4    1  0.4940461E-001  0.8623023E+02  0.7546771E-02  0.1312246E+00
         -3   -1    0    0    0  501 -0.00000000000E+00  0.00000000000E+00  0.88762745252E+03  0.88762745252E+03  0.00000000000E+00 0.  1.
          3   -1    0    0  501    0  0.00000000000E+00 -0.00000000000E+00 -0.86840186428E+01  0.86840186428E+01  0.00000000000E+00 0. -1.
         24    1    1    2    0    0 -0.28978151526E+02 -0.11344723228E+02  0.52373793687E+03  0.53078910923E+03  0.80419002446E+02 0.  1.
        -24    1    1    2    0    0  0.28978151526E+02  0.11344723228E+02  0.35520549701E+03  0.36552236193E+03  0.80419002446E+02 0. -1.
<mgrwt>
<rscale>  0 0.86230227E+02</rscale>
<asrwt>0</asrwt>
<pdfrwt beam="1">  1        3 0.13360036E-02 0.86230227E+02</pdfrwt>
<pdfrwt beam="2">  1       -3 0.13655800E+00 0.86230227E+02</pdfrwt>
<totfact> 0.16169186E+03</totfact>
</mgrwt>
</event>
<event>
 4    1  0.4940461E-001  0.8164864E+02  0.7546771E-02  0.1324437E+00
         -4   -1    0    0    0  501 -0.00000000000E+00  0.00000000000E+00  0.45425014322E+02  0.45425014322E+02  0.00000000000E+00 0.  1.
          4   -1    0    0  501    0  0.00000000000E+00 -0.00000000000E+00 -0.26566939141E+03  0.26566939141E+03  0.00000000000E+00 0. -1.
         24    1    1    2    0    0  0.72039941654E+00 -0.14098440522E+02 -0.21418666516E+03  0.22922135260E+03  0.80419002446E+02 0.  0.
        -24    1    1    2    0    0 -0.72039941654E+00  0.14098440522E+02 -0.60577119240E+01  0.81873053129E+02  0.80419002446E+02 0.  1.
<mgrwt>
<rscale>  0 0.81648643E+02</rscale>
<asrwt>0</asrwt>
<pdfrwt beam="1">  1        4 0.40872215E-01 0.81648643E+02</pdfrwt>
<pdfrwt beam="2">  1       -4 0.69884637E-02 0.81648643E+02</pdfrwt>
<totfact> 0.11763605E+03</totfact>
</mgrwt>
</event>
<event>
 4    1  0.4940461E-001  0.9090380E+02  0.7546771E-02  0.1300678E+00
         -2   -1    0    0    0  501 -0.00000000000E+00  0.00000000000E+00  0.48374644445E+01  0.48374644445E+01  0.00000000000E+00 0.  1.
          2   -1    0    0  501    0  0.00000000000E+00 -0.00000000000E+00 -0.21762624217E+04  0.21762624217E+04  0.00000000000E+00 0. -1.
         24    1    1    2    0    0  0.40703498041E+02  0.11811453018E+02 -0.15914532539E+04  0.15940473520E+04  0.80419002446E+02 0. -1.
        -24    1    1    2    0    0 -0.40703498041E+02 -0.11811453018E+02 -0.57997170331E+03  0.58705253408E+03  0.80419002446E+02 0.  1.
<mgrwt>
<rscale>  0 0.90903802E+02</rscale>
<asrwt>0</asrwt>
<pdfrwt beam="1">  1        2 0.33480995E+00 0.90903802E+02</pdfrwt>
<pdfrwt beam="2">  1       -2 0.74422452E-03 0.90903802E+02</pdfrwt>
<totfact> 0.18753155E+04</totfact>
</mgrwt>
</event>
<event>
 4    1  0.4940461E-001  0.1012794E+03  0.7546771E-02  0.1277628E+00
         -1   -1    0    0    0  501 -0.00000000000E+00  0.00000000000E+00  0.15554369771E+03  0.15554369771E+03  0.00000000000E+00 0.  1.
          1   -1    0    0  501    0  0.00000000000E+00 -0.00000000000E+00 -0.22119129400E+03  0.22119129400E+03  0.00000000000E+00 0. -1.
         24    1    1    2    0    0  0.61384731778E+02 -0.47129903360E+01  0.12498489104E+03  0.16086869340E+03  0.80419002446E+02 0.  1.
        -24    1    1    2    0    0 -0.61384731778E+02  0.47129903360E+01 -0.19063248732E+03  0.21586629832E+03  0.80419002446E+02 0. -1.
<mgrwt>
<rscale>  0 0.10127938E+03</rscale>
<asrwt>0</asrwt>
<pdfrwt beam="1">  1        1 0.34029430E-01 0.10127938E+03</pdfrwt>
<pdfrwt beam="2">  1       -1 0.23929800E-01 0.10127938E+03</pdfrwt>
<totfact> 0.18692643E+03</totfact>
</mgrwt>
</event>
<event>
 4    1  0.4940461E-001  0.1090616E+03  0.7546771E-02  0.1262317E+00
         -1   -1    0    0    0  501 -0.00000000000E+00  0.00000000000E+00  0.41975419733E+01  0.41975419733E+01  0.00000000000E+00 0.  1.
          1   -1    0    0  501    0  0.00000000000E+00 -0.00000000000E+00 -0.28784091930E+04  0.28784091930E+04  0.00000000000E+00 0. -1.
         24    1    1    2    0    0  0.73666347616E+02  0.70418539290E+00 -0.12574131680E+04  0.12621340331E+04  0.80419002446E+02 0.  1.
        -24    1    1    2    0    0 -0.73666347616E+02 -0.70418539290E+00 -0.16167984831E+04  0.16204727019E+04  0.80419002446E+02 0. -1.
<mgrwt>
<rscale>  0 0.10906165E+03</rscale>
<asrwt>0</asrwt>
<pdfrwt beam="1">  1        1 0.44283341E+00 0.10906165E+03</pdfrwt>
<pdfrwt beam="2">  1       -1 0.64577390E-03 0.10906165E+03</pdfrwt>
<totfact> 0.31130785E+03</totfact>
</mgrwt>
</event>
<event>
 4    1  0.4940461E-001  0.9088159E+02  0.7546771E-02  0.1300731E+00
         -1   -1    0    0    0  501 -0.00000000000E+00  0.00000000000E+00  0.28541047688E+02  0.28541047688E+02  0.00000000000E+00 0.  1.
          1   -1    0    0  501    0  0.00000000000E+00 -0.00000000000E+00 -0.57808793290E+03  0.57808793290E+03  0.00000000000E+00 0. -1.
         24    1    1    2    0    0  0.72579043685E+01 -0.41708151090E+02 -0.60425729118E+02  0.10913629890E+03  0.80419002446E+02 0. -1.
        -24    1    1    2    0    0 -0.72579043685E+01  0.41708151090E+02 -0.48912115610E+03  0.49749268170E+03  0.80419002446E+02 0. -1.
<mgrwt>
<rscale>  0 0.90881588E+02</rscale>
<asrwt>0</asrwt>
<pdfrwt beam="1">  1        1 0.88936606E-01 0.90881588E+02</pdfrwt>
<pdfrwt beam="2">  1       -1 0.43909304E-02 0.90881588E+02</pdfrwt>
<totfact> 0.74035658E+03</totfact>
</mgrwt>
</event>
<event>
 4    1  0.4940461E-001  0.8273046E+02  0.7546771E-02  0.1321477E+00
          2   -1    0    0  501    0  0.00000000000E+00  0.00000000000E+00  0.96012419495E+03  0.96012419495E+03  0.00000000000E+00 0. -1.
         -2   -1    0    0    0  501 -0.00000000000E+00 -0.00000000000E+00 -0.50302923975E+02  0.50302923975E+02  0.00000000000E+00 0.  1.
         24    1    1    2    0    0  0.16372526753E+02 -0.10442888832E+02  0.92295952372E+03  0.92665992248E+03  0.80419002446E+02 0. -1.
        -24    1    1    2    0    0 -0.16372526753E+02  0.10442888832E+02 -0.13138252747E+02  0.83767196438E+02  0.80419002446E+02 0.  1.
<mgrwt>
<rscale>  0 0.82730463E+02</rscale>
<asrwt>0</asrwt>
<pdfrwt beam="1">  1        2 0.14771140E+00 0.82730463E+02</pdfrwt>
<pdfrwt beam="2">  1       -2 0.77389121E-02 0.82730463E+02</pdfrwt>
<totfact> 0.26933701E+03</totfact>
</mgrwt>
</event>
<event>
 4    1  0.4940461E-001  0.8851303E+02  0.7546771E-02  0.1306493E+00
          2   -1    0    0  501    0  0.00000000000E+00  0.00000000000E+00  0.19576966276E+04  0.19576966276E+04  0.00000000000E+00 0. -1.
         -2   -1    0    0    0  501 -0.00000000000E+00 -0.00000000000E+00 -0.42981034892E+01  0.42981034892E+01  0.00000000000E+00 0.  1.
         24    1    1    2    0    0  0.36703258342E+02  0.44956992517E+01  0.12342161133E+04  0.12373859425E+04  0.80419002446E+02 0. -1.
        -24    1    1    2    0    0 -0.36703258342E+02 -0.44956992517E+01  0.71918241080E+03  0.72460878855E+03  0.80419002446E+02 0.  1.
<mgrwt>
<rscale>  0 0.88513030E+02</rscale>
<asrwt>0</asrwt>
<pdfrwt beam="1">  1        2 0.30118338E+00 0.88513030E+02</pdfrwt>
<pdfrwt beam="2">  1       -2 0.66124825E-03 0.88513030E+02</pdfrwt>
<totfact> 0.28497109E+04</totfact>
</mgrwt>
</event>
<event>
 4    1  0.4940461E-001  0.8135220E+02  0.7546771E-02  0.1325257E+00
          2   -1    0    0  501    0  0.00000000000E+00  0.00000000000E+00  0.29302756432E+03  0.29302756432E+03  0.00000000000E+00 0. -1.
         -2   -1    0    0    0  501 -0.00000000000E+00 -0.00000000000E+00 -0.22607794813E+02  0.22607794813E+02  0.00000000000E+00 0.  1.
         24    1    1    2    0    0 -0.96605348339E+01 -0.75919881745E+01  0.14016353128E+03  0.16206170329E+03  0.80419002446E+02 0. -1.
        -24    1    1    2    0    0  0.96605348339E+01  0.75919881745E+01  0.13025623822E+03  0.15357365584E+03  0.80419002446E+02 0.  1.
<mgrwt>
<rscale>  0 0.81352198E+02</rscale>
<asrwt>0</asrwt>
<pdfrwt beam="1">  1        2 0.45081161E-01 0.81352198E+02</pdfrwt>
<pdfrwt beam="2">  1       -2 0.34781225E-02 0.81352198E+02</pdfrwt>
<totfact> 0.33200529E+04</totfact>
</mgrwt>
</event>
<event>
 4    1  0.4940461E-001  0.9747248E+02  0.7546771E-02  0.1285703E+00
          1   -1    0    0  501    0  0.00000000000E+00  0.00000000000E+00  0.33065203876E+02  0.33065203876E+02  0.00000000000E+00 0. -1.
         -1   -1    0    0    0  501 -0.00000000000E+00 -0.00000000000E+00 -0.35941571056E+03  0.35941571056E+03  0.00000000000E+00 0.  1.
         24    1    1    2    0    0 -0.16020312174E+02 -0.52697414334E+02 -0.25105545227E+03  0.26931343069E+03  0.80419002446E+02 0.  1.
        -24    1    1    2    0    0  0.16020312174E+02  0.52697414334E+02 -0.75295054419E+02  0.12316748375E+03  0.80419002446E+02 0. -1.
<mgrwt>
<rscale>  0 0.97472477E+02</rscale>
<asrwt>0</asrwt>
<pdfrwt beam="1">  1        1 0.50869544E-02 0.97472477E+02</pdfrwt>
<pdfrwt beam="2">  1       -1 0.55294725E-01 0.97472477E+02</pdfrwt>
<totfact> 0.51373233E+03</totfact>
</mgrwt>
</event>
<event>
 4    1  0.4940461E-001  0.8283784E+02  0.7546771E-02  0.1321186E+00
         -1   -1    0    0    0  501 -0.00000000000E+00  0.00000000000E+00  0.18822950331E+02  0.18822950331E+02  0.00000000000E+00 0.  1.
          1   -1    0    0  501    0  0.00000000000E+00 -0.00000000000E+00 -0.85980354765E+03  0.85980354765E+03  0.00000000000E+00 0. -1.
         24    1    1    2    0    0 -0.79849612483E+01 -0.18197024005E+02 -0.87076317542E+02  0.12018482566E+03  0.80419002446E+02 0.  1.
        -24    1    1    2    0    0  0.79849612483E+01  0.18197024005E+02 -0.75390427978E+03  0.75844167232E+03  0.80419002446E+02 0. -1.
<mgrwt>
<rscale>  0 0.82837837E+02</rscale>
<asrwt>0</asrwt>
<pdfrwt beam="1">  1        1 0.13227745E+00 0.82837837E+02</pdfrwt>
<pdfrwt beam="2">  1       -1 0.28958390E-02 0.82837837E+02</pdfrwt>
<totfact> 0.76603689E+03</totfact>
</mgrwt>
</event>
<event>
 4    1  0.4940461E-001  0.8302539E+02  0.7546771E-02  0.1320679E+00
         -2   -1    0    0    0  501 -0.00000000000E+00  0.00000000000E+00  0.12472610590E+02  0.12472610590E+02  0.00000000000E+00 0.  1.
          2   -1    0    0  501    0  0.00000000000E+00 -0.00000000000E+00 -0.99468308478E+03  0.99468308478E+03  0.00000000000E+00 0. -1.
         24    1    1    2    0    0  0.10770489981E+02  0.17606696184E+02 -0.82679855887E+03  0.83095672096E+03  0.80419002446E+02 0. -1.
        -24    1    1    2    0    0 -0.10770489981E+02 -0.17606696184E+02 -0.15541191531E+03  0.17619897440E+03  0.80419002446E+02 0.  1.
<mgrwt>
<rscale>  0 0.83025389E+02</rscale>
<asrwt>0</asrwt>
<pdfrwt beam="1">  1        2 0.15302814E+00 0.83025389E+02</pdfrwt>
<pdfrwt beam="2">  1       -2 0.19188635E-02 0.83025389E+02</pdfrwt>
<totfact> 0.19911312E+04</totfact>
</mgrwt>
</event>
<event>
 4    1  0.4940461E-001  0.1002690E+03  0.7546771E-02  0.1279731E+00
         -2   -1    0    0    0  501 -0.00000000000E+00  0.00000000000E+00  0.38858568954E+02  0.38858568954E+02  0.00000000000E+00 0.  1.
          2   -1    0    0  501    0  0.00000000000E+00 -0.00000000000E+00 -0.47013945240E+03  0.47013945240E+03  0.00000000000E+00 0. -1.
         24    1    1    2    0    0  0.59616522428E+02  0.57023962087E+01 -0.38630185366E+03  0.39910272508E+03  0.80419002446E+02 0. -1.
        -24    1    1    2    0    0 -0.59616522428E+02 -0.57023962087E+01 -0.44979029786E+02  0.10989529628E+03  0.80419002446E+02 0.  1.
<mgrwt>
<rscale>  0 0.10026895E+03</rscale>
<asrwt>0</asrwt>
<pdfrwt beam="1">  1        2 0.72329145E-01 0.10026895E+03</pdfrwt>
<pdfrwt beam="2">  1       -2 0.59782415E-02 0.10026895E+03</pdfrwt>
<totfact> 0.92529842E+03</totfact>
</mgrwt>
</event>
<event>
 4    1  0.4940461E-001  0.9071877E+02  0.7546771E-02  0.1301120E+00
         -1   -1    0    0    0  501 -0.00000000000E+00  0.00000000000E+00  0.36638274965E+02  0.36638274965E+02  0.00000000000E+00 0.  1.
          1   -1    0    0  501    0  0.00000000000E+00 -0.00000000000E+00 -0.27032473635E+03  0.27032473635E+03  0.00000000000E+00 0. -1.
         24    1    1    2    0    0  0.26969144922E+02  0.32176755935E+02 -0.53737736565E+02  0.10544021380E+03  0.80419002446E+02 0.  1.
        -24    1    1    2    0    0 -0.26969144922E+02 -0.32176755935E+02 -0.17994872482E+03  0.20152279752E+03  0.80419002446E+02 0. -1.
<mgrwt>
<rscale>  0 0.90718765E+02</rscale>
<asrwt>0</asrwt>
<pdfrwt beam="1">  1        1 0.41588422E-01 0.90718765E+02</pdfrwt>
<pdfrwt beam="2">  1       -1 0.56366575E-02 0.90718765E+02</pdfrwt>
<totfact> 0.13304410E+04</totfact>
</mgrwt>
</event>
<event>
 4    1  0.4940461E-001  0.8831272E+02  0.7546771E-02  0.1306990E+00
         -2   -1    0    0    0  501 -0.00000000000E+00  0.00000000000E+00  0.86049937567E+02  0.86049937567E+02  0.00000000000E+00 0.  1.
          2   -1    0    0  501    0  0.00000000000E+00 -0.00000000000E+00 -0.50195873940E+03  0.50195873940E+03  0.00000000000E+00 0. -1.
         24    1    1    2    0    0 -0.36475545378E+02 -0.12065242415E+01 -0.47409529460E+03  0.48225043849E+03  0.80419002446E+02 0. -1.
        -24    1    1    2    0    0  0.36475545378E+02  0.12065242415E+01  0.58186492763E+02  0.10575823848E+03  0.80419002446E+02 0.  1.
<mgrwt>
<rscale>  0 0.88312723E+02</rscale>
<asrwt>0</asrwt>
<pdfrwt beam="1">  1        2 0.77224421E-01 0.88312723E+02</pdfrwt>
<pdfrwt beam="2">  1       -2 0.13238452E-01 0.88312723E+02</pdfrwt>
<totfact> 0.25067878E+03</totfact>
</mgrwt>
</event>
<event>
 4    1  0.4940461E-001  0.1335607E+03  0.7546771E-02  0.1222266E+00
         -1   -1    0    0    0  501 -0.00000000000E+00  0.00000000000E+00  0.44910287941E+02  0.44910287941E+02  0.00000000000E+00 0.  1.
          1   -1    0    0  501    0  0.00000000000E+00 -0.00000000000E+00 -0.41268999158E+03  0.41268999158E+03  0.00000000000E+00 0. -1.
         24    1    1    2    0    0 -0.30775521648E+01 -0.10659156951E+03 -0.13956535535E+03  0.19317592600E+03  0.80419002446E+02 0. -1.
        -24    1    1    2    0    0  0.30775521648E+01  0.10659156951E+03 -0.22821434829E+03  0.26442435352E+03  0.80419002446E+02 0.  1.
<mgrwt>
<rscale>  0 0.13356066E+03</rscale>
<asrwt>0</asrwt>
<pdfrwt beam="1">  1        1 0.63490769E-01 0.13356066E+03</pdfrwt>
<pdfrwt beam="2">  1       -1 0.69092750E-02 0.13356066E+03</pdfrwt>
<totfact> 0.60053238E+03</totfact>
</mgrwt>
</event>
<event>
 4    1  0.4940461E-001  0.1057312E+03  0.7546771E-02  0.1268686E+00
          1   -1    0    0  501    0  0.00000000000E+00  0.00000000000E+00  0.11422645452E+04  0.11422645452E+04  0.00000000000E+00 0. -1.
         -1   -1    0    0    0  501 -0.00000000000E+00 -0.00000000000E+00 -0.18468349098E+02  0.18468349098E+02  0.00000000000E+00 0.  1.
         24    1    1    2    0    0  0.51537987124E+02 -0.45339785251E+02  0.16398547753E+03  0.19511615268E+03  0.80419002446E+02 0. -1.
        -24    1    1    2    0    0 -0.51537987124E+02  0.45339785251E+02  0.95981071853E+03  0.96561674158E+03  0.80419002446E+02 0.  0.
<mgrwt>
<rscale>  0 0.10573115E+03</rscale>
<asrwt>0</asrwt>
<pdfrwt beam="1">  1        1 0.17573295E+00 0.10573115E+03</pdfrwt>
<pdfrwt beam="2">  1       -1 0.28412854E-02 0.10573115E+03</pdfrwt>
<totfact> 0.49831921E+03</totfact>
</mgrwt>
</event>
<event>
 4    1  0.4940461E-001  0.8147688E+02  0.7546771E-02  0.1324912E+00
          2   -1    0    0  501    0  0.00000000000E+00  0.00000000000E+00  0.54192408152E+03  0.54192408152E+03  0.00000000000E+00 0. -1.
         -2   -1    0    0    0  501 -0.00000000000E+00 -0.00000000000E+00 -0.13851470583E+02  0.13851470583E+02  0.00000000000E+00 0.  1.
         24    1    1    2    0    0  0.88306374559E+00 -0.13057062330E+02  0.35853000278E+03  0.36767138253E+03  0.80419002446E+02 0.  0.
        -24    1    1    2    0    0 -0.88306374559E+00  0.13057062330E+02  0.16954260815E+03  0.18810416957E+03  0.80419002446E+02 0.  1.
<mgrwt>
<rscale>  0 0.81476884E+02</rscale>
<asrwt>0</asrwt>
<pdfrwt beam="1">  1        2 0.83372919E-01 0.81476884E+02</pdfrwt>
<pdfrwt beam="2">  1       -2 0.21309959E-02 0.81476884E+02</pdfrwt>
<totfact> 0.35248202E+04</totfact>
</mgrwt>
</event>
<event>
 4    1  0.4940461E-001  0.8536483E+02  0.7546771E-02  0.1314481E+00
          2   -1    0    0  501    0  0.00000000000E+00  0.00000000000E+00  0.73767193136E+03  0.73767193136E+03  0.00000000000E+00 0. -1.
         -2   -1    0    0    0  501 -0.00000000000E+00 -0.00000000000E+00 -0.22057893183E+02  0.22057893183E+02  0.00000000000E+00 0.  1.
         24    1    1    2    0    0 -0.23900494893E+02 -0.15770388740E+02  0.64007295996E+03  0.64574031068E+03  0.80419002446E+02 0. -1.
        -24    1    1    2    0    0  0.23900494893E+02  0.15770388740E+02  0.75541078220E+02  0.11398951386E+03  0.80419002446E+02 0.  1.
<mgrwt>
<rscale>  0 0.85364833E+02</rscale>
<asrwt>0</asrwt>
<pdfrwt beam="1">  1        2 0.11348797E+00 0.85364833E+02</pdfrwt>
<pdfrwt beam="2">  1       -2 0.33935226E-02 0.85364833E+02</pdfrwt>
<totfact> 0.12750413E+04</totfact>
</mgrwt>
</event>
<event>
 4    1  0.4940461E-001  0.1060768E+03  0.7546771E-02  0.1268012E+00
          2   -1    0    0  501    0  0.00000000000E+00  0.00000000000E+00  0.10455819427E+03  0.10455819427E+03  0.00000000000E+00 0. -1.
         -2   -1    0    0    0  501 -0.00000000000E+00 -0.00000000000E+00 -0.11035426869E+03  0.11035426869E+03  0.00000000000E+00 0.  1.
         24    1    1    2    0    0 -0.35015007347E+01 -0.69085540099E+02 -0.19820301789E+02  0.10791261592E+03  0.80419002446E+02 0. -1.
        -24    1    1    2    0    0  0.35015007347E+01  0.69085540099E+02  0.14024227375E+02  0.10699984704E+03  0.80419002446E+02 0.  0.
<mgrwt>
<rscale>  0 0.10607682E+03</rscale>
<asrwt>0</asrwt>
<pdfrwt beam="1">  1        2 0.16085876E-01 0.10607683E+03</pdfrwt>
<pdfrwt beam="2">  1       -2 0.16977580E-01 0.10607683E+03</pdfrwt>
<totfact> 0.91895406E+03</totfact>
</mgrwt>
</event>
<event>
 4    1  0.4940461E-001  0.8441401E+02  0.7546771E-02  0.1316972E+00
         -2   -1    0    0    0  501 -0.00000000000E+00  0.00000000000E+00  0.51101988027E+01  0.51101988027E+01  0.00000000000E+00 0.  1.
          2   -1    0    0  501    0  0.00000000000E+00 -0.00000000000E+00 -0.18956595892E+04  0.18956595892E+04  0.00000000000E+00 0. -1.
         24    1    1    2    0    0 -0.10900585509E+02 -0.23231156746E+02 -0.14339779790E+04  0.14364604309E+04  0.80419002446E+02 0. -1.
        -24    1    1    2    0    0  0.10900585509E+02  0.23231156746E+02 -0.45657141141E+03  0.46430935709E+03  0.80419002446E+02 0. -1.
<mgrwt>
<rscale>  0 0.84414012E+02</rscale>
<asrwt>0</asrwt>
<pdfrwt beam="1">  1        2 0.29164011E+00 0.84414012E+02</pdfrwt>
<pdfrwt beam="2">  1       -2 0.78618396E-03 0.84414012E+02</pdfrwt>
<totfact> 0.23917186E+04</totfact>
</mgrwt>
</event>
<event>
 4    1  0.4940461E-001  0.8202192E+02  0.7546771E-02  0.1323410E+00
         -2   -1    0    0    0  501 -0.00000000000E+00  0.00000000000E+00  0.52896242630E+03  0.52896242630E+03  0.00000000000E+00 0.  1.
          2   -1    0    0  501    0  0.00000000000E+00 -0.00000000000E+00 -0.55250956907E+02  0.55250956907E+02  0.00000000000E+00 0. -1.
         24    1    1    2    0    0 -0.12424836789E+01 -0.16088351033E+02 -0.19434449373E+02  0.84292897574E+02  0.80419002446E+02 0. -1.
        -24    1    1    2    0    0  0.12424836789E+01  0.16088351033E+02  0.49314591876E+03  0.49992048563E+03  0.80419002446E+02 0.  1.
<mgrwt>
<rscale>  0 0.82021916E+02</rscale>
<asrwt>0</asrwt>
<pdfrwt beam="1">  1        2 0.85001476E-02 0.82021916E+02</pdfrwt>
<pdfrwt beam="2">  1       -2 0.81378831E-01 0.82021916E+02</pdfrwt>
<totfact> 0.10259361E+03</totfact>
</mgrwt>
</event>
<event>
 4    1  0.4940461E-001  0.8837582E+02  0.7546771E-02  0.1306833E+00
         -2   -1    0    0    0  501 -0.00000000000E+00  0.00000000000E+00  0.16188731413E+03  0.16188731413E+03  0.00000000000E+00 0.  1.
          2   -1    0    0  501    0  0.00000000000E+00 -0.00000000000E+00 -0.81130018641E+02  0.81130018641E+02  0.00000000000E+00 0. -1.
         24    1    1    2    0    0 -0.31128056648E+02  0.19342026853E+02 -0.36980947918E+02  0.95801233691E+02  0.80419002446E+02 0. -1.
        -24    1    1    2    0    0  0.31128056648E+02 -0.19342026853E+02  0.11773824341E+03  0.14721609908E+03  0.80419002446E+02 0.  1.
<mgrwt>
<rscale>  0 0.88375822E+02</rscale>
<asrwt>0</asrwt>
<pdfrwt beam="1">  1        2 0.12481541E-01 0.88375822E+02</pdfrwt>
<pdfrwt beam="2">  1       -2 0.24905741E-01 0.88375822E+02</pdfrwt>
<totfact> 0.63740566E+03</totfact>
</mgrwt>
</event>
<event>
 4    1  0.4940461E-001  0.9369531E+02  0.7546771E-02  0.1294142E+00
          1   -1    0    0  501    0  0.00000000000E+00  0.00000000000E+00  0.24349651646E+04  0.24349651646E+04  0.00000000000E+00 0. -1.
         -1   -1    0    0    0  501 -0.00000000000E+00 -0.00000000000E+00 -0.49108629410E+01  0.49108629410E+01  0.00000000000E+00 0.  1.
         24    1    1    2    0    0  0.45504240487E+02 -0.15522858438E+02  0.58601991504E+03  0.59346284788E+03  0.80419002446E+02 0.  1.
        -24    1    1    2    0    0 -0.45504240487E+02  0.15522858438E+02  0.18440343867E+04  0.18464131797E+04  0.80419002446E+02 0. -1.
<mgrwt>
<rscale>  0 0.93695309E+02</rscale>
<asrwt>0</asrwt>
<pdfrwt beam="1">  1        1 0.37460906E+00 0.93695309E+02</pdfrwt>
<pdfrwt beam="2">  1       -1 0.75551932E-03 0.93695309E+02</pdfrwt>
<totfact> 0.48644621E+03</totfact>
</mgrwt>
</event>
<event>
 4    1  0.4940461E-001  0.8167653E+02  0.7546771E-02  0.1324360E+00
          2   -1    0    0  501    0  0.00000000000E+00  0.00000000000E+00  0.14501764761E+04  0.14501764761E+04  0.00000000000E+00 0. -1.
         -2   -1    0    0    0  501 -0.00000000000E+00 -0.00000000000E+00 -0.66564756093E+01  0.66564756093E+01  0.00000000000E+00 0.  1.
         24    1    1    2    0    0  0.11384056654E+02  0.86164676451E+01  0.11266169244E+04  0.11295737030E+04  0.80419002446E+02 0.  0.
        -24    1    1    2    0    0 -0.11384056654E+02 -0.86164676451E+01  0.31690307607E+03  0.32725924866E+03  0.80419002446E+02 0.  1.
<mgrwt>
<rscale>  0 0.81676534E+02</rscale>
<asrwt>0</asrwt>
<pdfrwt beam="1">  1        2 0.22310382E+00 0.81676534E+02</pdfrwt>
<pdfrwt beam="2">  1       -2 0.10240743E-02 0.81676534E+02</pdfrwt>
<totfact> 0.27524304E+04</totfact>
</mgrwt>
</event>
<event>
 4    1  0.4940461E-001  0.8322699E+02  0.7546771E-02  0.1320135E+00
         -1   -1    0    0    0  501 -0.00000000000E+00  0.00000000000E+00  0.11650322447E+03  0.11650322447E+03  0.00000000000E+00 0.  1.
          1   -1    0    0  501    0  0.00000000000E+00 -0.00000000000E+00 -0.12241206752E+03  0.12241206752E+03  0.00000000000E+00 0. -1.
         24    1    1    2    0    0  0.21245696080E+02  0.28522756464E+01  0.82714468324E+02  0.11733888658E+03  0.80419002446E+02 0.  1.
        -24    1    1    2    0    0 -0.21245696080E+02 -0.28522756464E+01 -0.88623311377E+02  0.12157640541E+03  0.80419002446E+02 0. -1.
<mgrwt>
<rscale>  0 0.83226985E+02</rscale>
<asrwt>0</asrwt>
<pdfrwt beam="1">  1        1 0.18832626E-01 0.83226985E+02</pdfrwt>
<pdfrwt beam="2">  1       -1 0.17923573E-01 0.83226985E+02</pdfrwt>
<totfact> 0.60981900E+03</totfact>
</mgrwt>
</event>
<event>
 4    1  0.4940461E-001  0.1327431E+03  0.7546771E-02  0.1223441E+00
          2   -1    0    0  501    0  0.00000000000E+00  0.00000000000E+00  0.60124407245E+02  0.60124407245E+02  0.00000000000E+00 0. -1.
         -2   -1    0    0    0  501 -0.00000000000E+00 -0.00000000000E+00 -0.96527610758E+03  0.96527610758E+03  0.00000000000E+00 0.  1.
         24    1    1    2    0    0 -0.23570697083E+01 -0.10558384982E+03 -0.24728687534E+02  0.13502677165E+03  0.80419002446E+02 0. -1.
        -24    1    1    2    0    0  0.23570697083E+01  0.10558384982E+03 -0.88042301280E+03  0.89037374318E+03  0.80419002446E+02 0.  1.
<mgrwt>
<rscale>  0 0.13274306E+03</rscale>
<asrwt>0</asrwt>
<pdfrwt beam="1">  1        2 0.92499083E-02 0.13274306E+03</pdfrwt>
<pdfrwt beam="2">  1       -2 0.14850402E+00 0.13274306E+03</pdfrwt>
<totfact> 0.22904141E+02</totfact>
</mgrwt>
</event>
<event>
 4    1  0.4940461E-001  0.8437616E+02  0.7546771E-02  0.1317072E+00
         -1   -1    0    0    0  501 -0.00000000000E+00  0.00000000000E+00  0.48385651228E+02  0.48385651228E+02  0.00000000000E+00 0.  1.
          1   -1    0    0  501    0  0.00000000000E+00 -0.00000000000E+00 -0.21627490540E+03  0.21627490540E+03  0.00000000000E+00 0. -1.
         24    1    1    2    0    0  0.22165029044E+02  0.12681949929E+02 -0.91254061273E+01  0.84868188138E+02  0.80419002446E+02 0.  1.
        -24    1    1    2    0    0 -0.22165029044E+02 -0.12681949929E+02 -0.15876384804E+03  0.17979236849E+03  0.80419002446E+02 0. -1.
<mgrwt>
<rscale>  0 0.84376160E+02</rscale>
<asrwt>0</asrwt>
<pdfrwt beam="1">  1        1 0.33273063E-01 0.84376160E+02</pdfrwt>
<pdfrwt beam="2">  1       -1 0.74439463E-02 0.84376160E+02</pdfrwt>
<totfact> 0.11500617E+04</totfact>
</mgrwt>
</event>
<event>
 4    1  0.4940461E-001  0.8062905E+02  0.7546771E-02  0.1327276E+00
          2   -1    0    0  501    0  0.00000000000E+00  0.00000000000E+00  0.13723263519E+04  0.13723263519E+04  0.00000000000E+00 0. -1.
         -2   -1    0    0    0  501 -0.00000000000E+00 -0.00000000000E+00 -0.50001424879E+01  0.50001424879E+01  0.00000000000E+00 0.  1.
         24    1    1    2    0    0  0.28990273299E+01  0.50421096443E+01  0.84157349922E+03  0.84542710967E+03  0.80419002446E+02 0. -1.
        -24    1    1    2    0    0 -0.28990273299E+01 -0.50421096443E+01  0.52575271016E+03  0.53189938468E+03  0.80419002446E+02 0.  1.
<mgrwt>
<rscale>  0 0.80629047E+02</rscale>
<asrwt>0</asrwt>
<pdfrwt beam="1">  1        2 0.21112683E+00 0.80629047E+02</pdfrwt>
<pdfrwt beam="2">  1       -2 0.76925379E-03 0.80629047E+02</pdfrwt>
<totfact> 0.45107247E+04</totfact>
</mgrwt>
</event>
<event>
 4    1  0.4940461E-001  0.8441962E+02  0.7546771E-02  0.1316957E+00
          2   -1    0    0  501    0  0.00000000000E+00  0.00000000000E+00  0.82635331059E+03  0.82635331059E+03  0.00000000000E+00 0. -1.
         -2   -1    0    0    0  501 -0.00000000000E+00 -0.00000000000E+00 -0.11461543490E+02  0.11461543490E+02  0.00000000000E+00 0.  1.
         24    1    1    2    0    0  0.25388912635E+02  0.38547757946E+01  0.61587056105E+03  0.62162948780E+03  0.80419002446E+02 0. -1.
        -24    1    1    2    0    0 -0.25388912635E+02 -0.38547757946E+01  0.19902120605E+03  0.21618536628E+03  0.80419002446E+02 0.  1.
<mgrwt>
<rscale>  0 0.84419619E+02</rscale>
<asrwt>0</asrwt>
<pdfrwt beam="1">  1        2 0.12713123E+00 0.84419619E+02</pdfrwt>
<pdfrwt beam="2">  1       -2 0.17633150E-02 0.84419619E+02</pdfrwt>
<totfact> 0.28551776E+04</totfact>
</mgrwt>
</event>
<event>
 4    1  0.4940461E-001  0.8206547E+02  0.7546771E-02  0.1323290E+00
         -2   -1    0    0    0  501 -0.00000000000E+00  0.00000000000E+00  0.67378607209E+02  0.67378607209E+02  0.00000000000E+00 0.  1.
          2   -1    0    0  501    0  0.00000000000E+00 -0.00000000000E+00 -0.11435295569E+03  0.11435295569E+03  0.00000000000E+00 0. -1.
         24    1    1    2    0    0  0.10847673918E+01  0.16320199023E+02 -0.55731001300E+02  0.99200232241E+02  0.80419002446E+02 0. -1.
        -24    1    1    2    0    0 -0.10847673918E+01 -0.16320199023E+02  0.87566528226E+01  0.82531330654E+02  0.80419002446E+02 0.  1.
<mgrwt>
<rscale>  0 0.82065471E+02</rscale>
<asrwt>0</asrwt>
<pdfrwt beam="1">  1        2 0.17592762E-01 0.82065471E+02</pdfrwt>
<pdfrwt beam="2">  1       -2 0.10365940E-01 0.82065471E+02</pdfrwt>
<totfact> 0.17798671E+04</totfact>
</mgrwt>
</event>
<event>
 4    1  0.4940461E-001  0.9953445E+02  0.7546771E-02  0.1281278E+00
          2   -1    0    0  501    0  0.00000000000E+00  0.00000000000E+00  0.10653122085E+04  0.10653122085E+04  0.00000000000E+00 0. -1.
         -2   -1    0    0    0  501 -0.00000000000E+00 -0.00000000000E+00 -0.13239284870E+02  0.13239284870E+02  0.00000000000E+00 0.  1.
         24    1    1    2    0    0  0.40785097147E+02  0.42148161614E+02  0.82020934044E+03  0.82622664553E+03  0.80419002446E+02 0. -1.
        -24    1    1    2    0    0 -0.40785097147E+02 -0.42148161614E+02  0.23186358323E+03  0.25232484788E+03  0.80419002446E+02 0.  1.
<mgrwt>
<rscale>  0 0.99534454E+02</rscale>
<asrwt>0</asrwt>
<pdfrwt beam="1">  1        2 0.16389412E+00 0.99534454E+02</pdfrwt>
<pdfrwt beam="2">  1       -2 0.20368139E-02 0.99534454E+02</pdfrwt>
<totfact> 0.16884627E+04</totfact>
</mgrwt>
</event>
<event>
 4    1  0.4940461E-001  0.9580275E+02  0.7546771E-02  0.1289378E+00
         -1   -1    0    0    0  501 -0.00000000000E+00  0.00000000000E+00  0.22246739689E+03  0.22246739689E+03  0.00000000000E+00 0.  1.
          1   -1    0    0  501    0  0.00000000000E+00 -0.00000000000E+00 -0.95637467861E+02  0.95637467861E+02  0.00000000000E+00 0. -1.
         24    1    1    2    0    0  0.15200371569E+02 -0.49798589438E+02  0.18335131045E+03  0.20687162638E+03  0.80419002446E+02 0.  1.
        -24    1    1    2    0    0 -0.15200371569E+02  0.49798589438E+02 -0.56521381417E+02  0.11123323837E+03  0.80419002446E+02 0. -1.
<mgrwt>
<rscale>  0 0.95802749E+02</rscale>
<asrwt>0</asrwt>
<pdfrwt beam="1">  1        1 0.14713457E-01 0.95802749E+02</pdfrwt>
<pdfrwt beam="2">  1       -1 0.34225753E-01 0.95802749E+02</pdfrwt>
<totfact> 0.29434206E+03</totfact>
</mgrwt>
</event>
<event>
 4    1  0.4940461E-001  0.8278694E+02  0.7546771E-02  0.1321323E+00
         -1   -1    0    0    0  501 -0.00000000000E+00  0.00000000000E+00  0.44132167136E+02  0.44132167136E+02  0.00000000000E+00 0.  1.
          1   -1    0    0  501    0  0.00000000000E+00 -0.00000000000E+00 -0.43467240443E+03  0.43467240443E+03  0.00000000000E+00 0. -1.
         24    1    1    2    0    0  0.13109418620E+02  0.14649414502E+02 -0.33414522927E+01  0.82854350879E+02  0.80419002446E+02 0.  1.
        -24    1    1    2    0    0 -0.13109418620E+02 -0.14649414502E+02 -0.38719878500E+03  0.39595022069E+03  0.80419002446E+02 0. -1.
<mgrwt>
<rscale>  0 0.82786944E+02</rscale>
<asrwt>0</asrwt>
<pdfrwt beam="1">  1        1 0.66872677E-01 0.82786944E+02</pdfrwt>
<pdfrwt beam="2">  1       -1 0.67895643E-02 0.82786944E+02</pdfrwt>
<totfact> 0.55988056E+03</totfact>
</mgrwt>
</event>
<event>
 4    1  0.4940461E-001  0.1967543E+03  0.7546771E-02  0.1152507E+00
         -2   -1    0    0    0  501 -0.00000000000E+00  0.00000000000E+00  0.74172624965E+03  0.74172624965E+03  0.00000000000E+00 0.  1.
          2   -1    0    0  501    0  0.00000000000E+00 -0.00000000000E+00 -0.11542038037E+03  0.11542038037E+03  0.00000000000E+00 0. -1.
         24    1    1    2    0    0 -0.17120224921E+03  0.54173876352E+02  0.63035764902E+03  0.66035066491E+03  0.80419002446E+02 0.  1.
        -24    1    1    2    0    0  0.17120224921E+03 -0.54173876352E+02 -0.40517797344E+01  0.19679596511E+03  0.80419002446E+02 0. -1.
<mgrwt>
<rscale>  0 0.19675427E+03</rscale>
<asrwt>0</asrwt>
<pdfrwt beam="1">  1        2 0.17756982E-01 0.19675430E+03</pdfrwt>
<pdfrwt beam="2">  1       -2 0.11411173E+00 0.19675430E+03</pdfrwt>
<totfact> 0.20101088E+02</totfact>
</mgrwt>
</event>
<event>
 4    1  0.4940461E-001  0.8757412E+02  0.7546771E-02  0.1308835E+00
          1   -1    0    0  501    0  0.00000000000E+00  0.00000000000E+00  0.55786002786E+03  0.55786002786E+03  0.00000000000E+00 0. -1.
         -1   -1    0    0    0  501 -0.00000000000E+00 -0.00000000000E+00 -0.29070348182E+02  0.29070348182E+02  0.00000000000E+00 0.  1.
         24    1    1    2    0    0 -0.20275743640E+01 -0.34610688942E+02  0.51335756959E+02  0.10151151040E+03  0.80419002446E+02 0.  1.
        -24    1    1    2    0    0  0.20275743640E+01  0.34610688942E+02  0.47745392272E+03  0.48541886564E+03  0.80419002446E+02 0. -1.
<mgrwt>
<rscale>  0 0.87574122E+02</rscale>
<asrwt>0</asrwt>
<pdfrwt beam="1">  1        1 0.85824612E-01 0.87574122E+02</pdfrwt>
<pdfrwt beam="2">  1       -1 0.44723617E-02 0.87574122E+02</pdfrwt>
<totfact> 0.75346170E+03</totfact>
</mgrwt>
</event>
<event>
 4    1  0.4940461E-001  0.9408380E+02  0.7546771E-02  0.1293253E+00
          2   -1    0    0  501    0  0.00000000000E+00  0.00000000000E+00  0.71952608274E+02  0.71952608274E+02  0.00000000000E+00 0. -1.
         -2   -1    0    0    0  501 -0.00000000000E+00 -0.00000000000E+00 -0.66738765601E+03  0.66738765601E+03  0.00000000000E+00 0.  1.
         24    1    1    2    0    0  0.73798587940E+01 -0.48270925573E+02  0.36147250296E+02  0.10078881004E+03  0.80419002446E+02 0. -1.
        -24    1    1    2    0    0 -0.73798587940E+01  0.48270925573E+02 -0.63158229803E+03  0.63855145424E+03  0.80419002446E+02 0.  1.
<mgrwt>
<rscale>  0 0.94083795E+02</rscale>
<asrwt>0</asrwt>
<pdfrwt beam="1">  1        2 0.11069632E-01 0.94083795E+02</pdfrwt>
<pdfrwt beam="2">  1       -2 0.10267502E+00 0.94083795E+02</pdfrwt>
<totfact> 0.44528085E+02</totfact>
</mgrwt>
</event>
<event>
 4    1  0.4940461E-001  0.8250464E+02  0.7546771E-02  0.1322090E+00
          2   -1    0    0  501    0  0.00000000000E+00  0.00000000000E+00  0.21910859567E+04  0.21910859567E+04  0.00000000000E+00 0. -1.
         -2   -1    0    0    0  501 -0.00000000000E+00 -0.00000000000E+00 -0.62713446465E+01  0.62713446465E+01  0.00000000000E+00 0.  1.
         24    1    1    2    0    0 -0.47820006787E+01  0.17802567200E+02  0.18728730113E+04  0.18746893959E+04  0.80419002446E+02 0. -1.
        -24    1    1    2    0    0  0.47820006787E+01 -0.17802567200E+02  0.31194160078E+03  0.32266790540E+03  0.80419002446E+02 0.  0.
<mgrwt>
<rscale>  0 0.82504636E+02</rscale>
<asrwt>0</asrwt>
<pdfrwt beam="1">  1        2 0.33708954E+00 0.82504636E+02</pdfrwt>
<pdfrwt beam="2">  1       -2 0.96482400E-03 0.82504636E+02</pdfrwt>
<totfact> 0.12722125E+04</totfact>
</mgrwt>
</event>
<event>
 4    1  0.4940461E-001  0.1386273E+03  0.7546771E-02  0.1215188E+00
          2   -1    0    0  501    0  0.00000000000E+00  0.00000000000E+00  0.19179518200E+04  0.19179518200E+04  0.00000000000E+00 0. -1.
         -2   -1    0    0    0  501 -0.00000000000E+00 -0.00000000000E+00 -0.10058804081E+02  0.10058804081E+02  0.00000000000E+00 0.  1.
         24    1    1    2    0    0  0.11170888392E+03  0.16474960363E+02  0.89392606095E+03  0.90461114158E+03  0.80419002446E+02 0. -1.
        -24    1    1    2    0    0 -0.11170888392E+03 -0.16474960363E+02  0.10139669549E+04  0.10233994825E+04  0.80419002446E+02 0.  1.
<mgrwt>
<rscale>  0 0.13862727E+03</rscale>
<asrwt>0</asrwt>
<pdfrwt beam="1">  1        2 0.29506922E+00 0.13862729E+03</pdfrwt>
<pdfrwt beam="2">  1       -2 0.15475098E-02 0.13862729E+03</pdfrwt>
<totfact> 0.90980802E+03</totfact>
</mgrwt>
</event>
<event>
 4    1  0.4940461E-001  0.1052965E+03  0.7546771E-02  0.1269536E+00
         -1   -1    0    0    0  501 -0.00000000000E+00  0.00000000000E+00  0.12831797911E+02  0.12831797911E+02  0.00000000000E+00 0.  1.
          1   -1    0    0  501    0  0.00000000000E+00 -0.00000000000E+00 -0.96017099469E+03  0.96017099469E+03  0.00000000000E+00 0. -1.
         24    1    1    2    0    0  0.65486098695E+02  0.18212984318E+02 -0.62759538334E+03  0.63636728629E+03  0.80419002446E+02 0. -1.
        -24    1    1    2    0    0 -0.65486098695E+02 -0.18212984318E+02 -0.31974381344E+03  0.33663550631E+03  0.80419002446E+02 0.  1.
<mgrwt>
<rscale>  0 0.10529654E+03</rscale>
<asrwt>0</asrwt>
<pdfrwt beam="1">  1        1 0.14771863E+00 0.10529655E+03</pdfrwt>
<pdfrwt beam="2">  1       -1 0.19741225E-02 0.10529655E+03</pdfrwt>
<totfact> 0.11330877E+04</totfact>
</mgrwt>
</event>
<event>
 4    1  0.4940461E-001  0.1538530E+03  0.7546771E-02  0.1195817E+00
         -2   -1    0    0    0  501 -0.00000000000E+00  0.00000000000E+00  0.11688104974E+02  0.11688104974E+02  0.00000000000E+00 0. -1.
          2   -1    0    0  501    0  0.00000000000E+00 -0.00000000000E+00 -0.20417831027E+04  0.20417831027E+04  0.00000000000E+00 0.  1.
         24    1    1    2    0    0  0.95527920824E+02  0.89877293194E+02 -0.92251118398E+03  0.93525269954E+03  0.80419002446E+02 0.  0.
        -24    1    1    2    0    0 -0.95527920824E+02 -0.89877293194E+02 -0.11075838138E+04  0.11182185082E+04  0.80419002446E+02 0.  0.
<mgrwt>
<rscale>  0 0.15385296E+03</rscale>
<asrwt>0</asrwt>
<pdfrwt beam="1">  1        2 0.31412025E+00 0.15385298E+03</pdfrwt>
<pdfrwt beam="2">  1       -2 0.17981713E-02 0.15385298E+03</pdfrwt>
<totfact> 0.63393139E+03</totfact>
</mgrwt>
</event>
<event>
 4    1  0.4940461E-001  0.1053190E+03  0.7546771E-02  0.1269493E+00
          2   -1    0    0  501    0  0.00000000000E+00  0.00000000000E+00  0.70049085455E+03  0.70049085455E+03  0.00000000000E+00 0. -1.
         -2   -1    0    0    0  501 -0.00000000000E+00 -0.00000000000E+00 -0.15844172421E+02  0.15844172421E+02  0.00000000000E+00 0.  1.
         24    1    1    2    0    0 -0.67231626735E+02 -0.10235671513E+02  0.33357506547E+03  0.34980623331E+03  0.80419002446E+02 0. -1.
        -24    1    1    2    0    0  0.67231626735E+02  0.10235671513E+02  0.35107161666E+03  0.36652879367E+03  0.80419002446E+02 0.  0.
<mgrwt>
<rscale>  0 0.10531894E+03</rscale>
<asrwt>0</asrwt>
<pdfrwt beam="1">  1        2 0.10776780E+00 0.10531895E+03</pdfrwt>
<pdfrwt beam="2">  1       -2 0.24375655E-02 0.10531895E+03</pdfrwt>
<totfact> 0.22326222E+04</totfact>
</mgrwt>
</event>
<event>
 4    1  0.4940461E-001  0.8683981E+02  0.7546771E-02  0.1310690E+00
         -2   -1    0    0    0  501 -0.00000000000E+00  0.00000000000E+00  0.34595270769E+03  0.34595270769E+03  0.00000000000E+00 0.  1.
          2   -1    0    0  501    0  0.00000000000E+00 -0.00000000000E+00 -0.21940941923E+02  0.21940941923E+02  0.00000000000E+00 0. -1.
         24    1    1    2    0    0 -0.31606843340E+02  0.86568253444E+01  0.17684226689E+03  0.19701354391E+03  0.80419002446E+02 0.  1.
        -24    1    1    2    0    0  0.31606843340E+02 -0.86568253444E+01  0.14716949888E+03  0.17088010570E+03  0.80419002446E+02 0. -1.
<mgrwt>
<rscale>  0 0.86839801E+02</rscale>
<asrwt>0</asrwt>
<pdfrwt beam="1">  1        2 0.33755298E-02 0.86839812E+02</pdfrwt>
<pdfrwt beam="2">  1       -2 0.53223489E-01 0.86839812E+02</pdfrwt>
<totfact> 0.81074233E+03</totfact>
</mgrwt>
</event>
<event>
 4    1  0.4940461E-001  0.8159317E+02  0.7546771E-02  0.1324590E+00
          2   -1    0    0  501    0  0.00000000000E+00  0.00000000000E+00  0.12801287839E+04  0.12801287839E+04  0.00000000000E+00 0. -1.
         -2   -1    0    0    0  501 -0.00000000000E+00 -0.00000000000E+00 -0.43780357293E+02  0.43780357293E+02  0.00000000000E+00 0.  1.
         24    1    1    2    0    0 -0.71657368075E+01 -0.11784792822E+02  0.12395699192E+04  0.12422524017E+04  0.80419002446E+02 0. -1.
        -24    1    1    2    0    0  0.71657368075E+01  0.11784792822E+02 -0.32214925991E+01  0.81656739433E+02  0.80419002446E+02 0.  1.
<mgrwt>
<rscale>  0 0.81593168E+02</rscale>
<asrwt>0</asrwt>
<pdfrwt beam="1">  1        2 0.19694286E+00 0.81593168E+02</pdfrwt>
<pdfrwt beam="2">  1       -2 0.67354405E-02 0.81593168E+02</pdfrwt>
<totfact> 0.22037573E+03</totfact>
</mgrwt>
</event>
<event>
 4    1  0.4940461E-001  0.8062049E+02  0.7546771E-02  0.1327300E+00
          2   -1    0    0  501    0  0.00000000000E+00  0.00000000000E+00  0.13604313738E+04  0.13604313738E+04  0.00000000000E+00 0. -1.
         -2   -1    0    0    0  501 -0.00000000000E+00 -0.00000000000E+00 -0.54893740779E+01  0.54893740779E+01  0.00000000000E+00 0.  1.
         24    1    1    2    0    0  0.31975710262E+01  0.47140601422E+01  0.92338905170E+03  0.92690183060E+03  0.80419002446E+02 0.  0.
        -24    1    1    2    0    0 -0.31975710262E+01 -0.47140601422E+01  0.43155294804E+03  0.43901891729E+03  0.80419002446E+02 0.  0.
<mgrwt>
<rscale>  0 0.80620486E+02</rscale>
<asrwt>0</asrwt>
<pdfrwt beam="1">  1        2 0.20929687E+00 0.80620486E+02</pdfrwt>
<pdfrwt beam="2">  1       -2 0.84452017E-03 0.80620486E+02</pdfrwt>
<totfact> 0.40125126E+04</totfact>
</mgrwt>
</event>
<event>
 4    1  0.4940461E-001  0.8064870E+02  0.7546771E-02  0.1327221E+00
          2   -1    0    0  501    0  0.00000000000E+00  0.00000000000E+00  0.20379819010E+03  0.20379819010E+03  0.00000000000E+00 0. -1.
         -2   -1    0    0    0  501 -0.00000000000E+00 -0.00000000000E+00 -0.32934883456E+02  0.32934883456E+02  0.00000000000E+00 0.  1.
         24    1    1    2    0    0  0.38542917220E+01 -0.47055174069E+01  0.10626131583E+03  0.13340045223E+03  0.80419002446E+02 0.  0.
        -24    1    1    2    0    0 -0.38542917220E+01  0.47055174069E+01  0.64601990813E+02  0.10333262133E+03  0.80419002446E+02 0.  0.
<mgrwt>
<rscale>  0 0.80648704E+02</rscale>
<asrwt>0</asrwt>
<pdfrwt beam="1">  1        2 0.31353567E-01 0.80648704E+02</pdfrwt>
<pdfrwt beam="2">  1       -2 0.50669053E-02 0.80648704E+02</pdfrwt>
<totfact> 0.27931098E+04</totfact>
</mgrwt>
</event>
<event>
 4    1  0.4940461E-001  0.8371421E+02  0.7546771E-02  0.1318830E+00
          1   -1    0    0  501    0  0.00000000000E+00  0.00000000000E+00  0.86036680862E+02  0.86036680862E+02  0.00000000000E+00 0. -1.
         -1   -1    0    0    0  501 -0.00000000000E+00 -0.00000000000E+00 -0.82479187577E+02  0.82479187577E+02  0.00000000000E+00 0.  1.
         24    1    1    2    0    0 -0.20014747771E+02 -0.11843293139E+02 -0.76130143259E+01  0.84059667274E+02  0.80419002446E+02 0. -1.
        -24    1    1    2    0    0  0.20014747771E+02  0.11843293139E+02  0.11170507611E+02  0.84456201166E+02  0.80419002446E+02 0.  1.
<mgrwt>
<rscale>  0 0.83714214E+02</rscale>
<asrwt>0</asrwt>
<pdfrwt beam="1">  1        1 0.13236412E-01 0.83714214E+02</pdfrwt>
<pdfrwt beam="2">  1       -1 0.12689106E-01 0.83714214E+02</pdfrwt>
<totfact> 0.16301562E+04</totfact>
</mgrwt>
</event>
<event>
 4    1  0.4940461E-001  0.8330715E+02  0.7546771E-02  0.1319920E+00
          2   -1    0    0  501    0  0.00000000000E+00  0.00000000000E+00  0.15435189104E+04  0.15435189104E+04  0.00000000000E+00 0. -1.
         -2   -1    0    0    0  501 -0.00000000000E+00 -0.00000000000E+00 -0.54520081932E+01  0.54520081932E+01  0.00000000000E+00 0.  1.
         24    1    1    2    0    0  0.82731369348E+01 -0.20110228822E+02  0.10933012766E+04  0.10964705939E+04  0.80419002446E+02 0.  1.
        -24    1    1    2    0    0 -0.82731369348E+01  0.20110228822E+02  0.44476562566E+03  0.45250032466E+03  0.80419002446E+02 0. -1.
<mgrwt>
<rscale>  0 0.83307155E+02</rscale>
<asrwt>0</asrwt>
<pdfrwt beam="1">  1        2 0.23746410E+00 0.83307155E+02</pdfrwt>
<pdfrwt beam="2">  1       -2 0.83877172E-03 0.83307155E+02</pdfrwt>
<totfact> 0.32747785E+04</totfact>
</mgrwt>
</event>
<event>
 4    1  0.4940461E-001  0.8071370E+02  0.7546771E-02  0.1327038E+00
         -2   -1    0    0    0  501 -0.00000000000E+00  0.00000000000E+00  0.14874219726E+03  0.14874219726E+03  0.00000000000E+00 0.  1.
          2   -1    0    0  501    0  0.00000000000E+00 -0.00000000000E+00 -0.45310611205E+02  0.45310611205E+02  0.00000000000E+00 0. -1.
         24    1    1    2    0    0 -0.16292207274E+01 -0.66953690436E+01  0.69440095048E+02  0.10647358866E+03  0.80419002446E+02 0.  1.
        -24    1    1    2    0    0  0.16292207274E+01  0.66953690436E+01  0.33991491007E+02  0.87579219807E+02  0.80419002446E+02 0.  0.
<mgrwt>
<rscale>  0 0.80713691E+02</rscale>
<asrwt>0</asrwt>
<pdfrwt beam="1">  1        2 0.69708633E-02 0.80713701E+02</pdfrwt>
<pdfrwt beam="2">  1       -2 0.22883415E-01 0.80713701E+02</pdfrwt>
<totfact> 0.14841988E+04</totfact>
</mgrwt>
</event>
<event>
 4    1  0.4940461E-001  0.1459701E+03  0.7546771E-02  0.1205514E+00
         -1   -1    0    0    0  501 -0.00000000000E+00  0.00000000000E+00  0.11919212047E+03  0.11919212047E+03  0.00000000000E+00 0.  1.
          1   -1    0    0  501    0  0.00000000000E+00 -0.00000000000E+00 -0.40295429715E+03  0.40295429715E+03  0.00000000000E+00 0. -1.
         24    1    1    2    0    0 -0.12032937907E+03 -0.18997354848E+02  0.52853321282E+02  0.15524415764E+03  0.80419002446E+02 0.  1.
        -24    1    1    2    0    0  0.12032937907E+03  0.18997354848E+02 -0.33661549795E+03  0.36690225998E+03  0.80419002446E+02 0. -1.
<mgrwt>
<rscale>  0 0.14597012E+03</rscale>
<asrwt>0</asrwt>
<pdfrwt beam="1">  1        1 0.61992968E-01 0.14597012E+03</pdfrwt>
<pdfrwt beam="2">  1       -1 0.18337249E-01 0.14597012E+03</pdfrwt>
<totfact> 0.13804410E+03</totfact>
</mgrwt>
</event>
<event>
 4    1  0.4940461E-001  0.8900764E+02  0.7546771E-02  0.1305273E+00
         -1   -1    0    0    0  501 -0.00000000000E+00  0.00000000000E+00  0.11339211807E+03  0.11339211807E+03  0.00000000000E+00 0.  1.
          1   -1    0    0  501    0  0.00000000000E+00 -0.00000000000E+00 -0.12556082673E+03  0.12556082673E+03  0.00000000000E+00 0. -1.
         24    1    1    2    0    0 -0.32347833445E+02 -0.20217870390E+02  0.73487423776E+02  0.11542426963E+03  0.80419002446E+02 0.  0.
        -24    1    1    2    0    0  0.32347833445E+02  0.20217870390E+02 -0.85656132436E+02  0.12352867517E+03  0.80419002446E+02 0.  0.
<mgrwt>
<rscale>  0 0.89007643E+02</rscale>
<asrwt>0</asrwt>
<pdfrwt beam="1">  1        1 0.19317050E-01 0.89007643E+02</pdfrwt>
<pdfrwt beam="2">  1       -1 0.17444941E-01 0.89007643E+02</pdfrwt>
<totfact> 0.61967193E+03</totfact>
</mgrwt>
</event>
<event>
 4    1  0.4940461E-001  0.8249989E+02  0.7546771E-02  0.1322103E+00
         -2   -1    0    0    0  501 -0.00000000000E+00  0.00000000000E+00  0.44999470674E+03  0.44999470674E+03  0.00000000000E+00 0.  1.
          2   -1    0    0  501    0  0.00000000000E+00 -0.00000000000E+00 -0.12618800945E+04  0.12618800945E+04  0.00000000000E+00 0. -1.
         24    1    1    2    0    0 -0.15639172631E+02  0.97175889474E+01 -0.12567349155E+04  0.12594399069E+04  0.80419002446E+02 0. -1.
        -24    1    1    2    0    0  0.15639172631E+02 -0.97175889474E+01  0.44484952779E+03  0.45243489430E+03  0.80419002446E+02 0.  1.
<mgrwt>
<rscale>  0 0.82499886E+02</rscale>
<asrwt>0</asrwt>
<pdfrwt beam="1">  1        2 0.19413540E+00 0.82499886E+02</pdfrwt>
<pdfrwt beam="2">  1       -2 0.69229954E-01 0.82499886E+02</pdfrwt>
<totfact> 0.40196585E+01</totfact>
</mgrwt>
</event>
<event>
 4    1  0.4940461E-001  0.8571333E+02  0.7546771E-02  0.1313578E+00
         -2   -1    0    0    0  501 -0.00000000000E+00  0.00000000000E+00  0.70794959847E+03  0.70794959847E+03  0.00000000000E+00 0.  1.
          2   -1    0    0  501    0  0.00000000000E+00 -0.00000000000E+00 -0.17874112128E+02  0.17874112128E+02  0.00000000000E+00 0. -1.
         24    1    1    2    0    0  0.17273311803E+02 -0.24107932160E+02  0.11000938686E+03  0.13945910098E+03  0.80419002446E+02 0. -1.
        -24    1    1    2    0    0 -0.17273311803E+02  0.24107932160E+02  0.58006609947E+03  0.58636460961E+03  0.80419002446E+02 0. -1.
<mgrwt>
<rscale>  0 0.85713334E+02</rscale>
<asrwt>0</asrwt>
<pdfrwt beam="1">  1        2 0.27498639E-02 0.85713334E+02</pdfrwt>
<pdfrwt beam="2">  1       -2 0.10891530E+00 0.85713334E+02</pdfrwt>
<totfact> 0.22798768E+03</totfact>
</mgrwt>
</event>
<event>
 4    1  0.4940461E-001  0.8147143E+02  0.7546771E-02  0.1324927E+00
          2   -1    0    0  501    0  0.00000000000E+00  0.00000000000E+00  0.71486025975E+01  0.71486025975E+01  0.00000000000E+00 0. -1.
         -2   -1    0    0    0  501 -0.00000000000E+00 -0.00000000000E+00 -0.93727294771E+03  0.93727294771E+03  0.00000000000E+00 0.  1.
         24    1    1    2    0    0 -0.81860698203E+01  0.10166792201E+02 -0.51070589716E+03  0.51716351839E+03  0.80419002446E+02 0.  1.
        -24    1    1    2    0    0  0.81860698203E+01 -0.10166792201E+02 -0.41941844795E+03  0.42725803192E+03  0.80419002446E+02 0.  1.
<mgrwt>
<rscale>  0 0.81471425E+02</rscale>
<asrwt>0</asrwt>
<pdfrwt beam="1">  1        2 0.10997850E-02 0.81471435E+02</pdfrwt>
<pdfrwt beam="2">  1       -2 0.14419584E+00 0.81471435E+02</pdfrwt>
<totfact> 0.39749956E+03</totfact>
</mgrwt>
</event>
<event>
 4    1  0.4940461E-001  0.8061234E+02  0.7546771E-02  0.1327323E+00
          2   -1    0    0  501    0  0.00000000000E+00  0.00000000000E+00  0.34747640074E+03  0.34747640074E+03  0.00000000000E+00 0. -1.
         -2   -1    0    0    0  501 -0.00000000000E+00 -0.00000000000E+00 -0.21633894325E+02  0.21633894325E+02  0.00000000000E+00 0.  1.
         24    1    1    2    0    0 -0.51233044424E+01  0.22102848459E+01  0.23086755248E+03  0.24453665645E+03  0.80419002446E+02 0. -1.
        -24    1    1    2    0    0  0.51233044424E+01 -0.22102848459E+01  0.94974953936E+02  0.12457363861E+03  0.80419002446E+02 0.  0.
<mgrwt>
<rscale>  0 0.80612341E+02</rscale>
<asrwt>0</asrwt>
<pdfrwt beam="1">  1        2 0.53457904E-01 0.80612341E+02</pdfrwt>
<pdfrwt beam="2">  1       -2 0.33282917E-02 0.80612341E+02</pdfrwt>
<totfact> 0.29612425E+04</totfact>
</mgrwt>
</event>
<event>
 4    1  0.4940461E-001  0.8179266E+02  0.7546771E-02  0.1324040E+00
          2   -1    0    0  501    0  0.00000000000E+00  0.00000000000E+00  0.12871075793E+04  0.12871075793E+04  0.00000000000E+00 0. -1.
         -2   -1    0    0    0  501 -0.00000000000E+00 -0.00000000000E+00 -0.57845605692E+01  0.57845605692E+01  0.00000000000E+00 0.  1.
         24    1    1    2    0    0  0.76003245232E+01  0.12847522382E+02  0.84655987103E+03  0.85050200174E+03  0.80419002446E+02 0. -1.
        -24    1    1    2    0    0 -0.76003245232E+01 -0.12847522382E+02  0.43476314768E+03  0.44239013811E+03  0.80419002446E+02 0.  1.
<mgrwt>
<rscale>  0 0.81792663E+02</rscale>
<asrwt>0</asrwt>
<pdfrwt beam="1">  1        2 0.19801632E+00 0.81792663E+02</pdfrwt>
<pdfrwt beam="2">  1       -2 0.88993342E-03 0.81792663E+02</pdfrwt>
<totfact> 0.40774548E+04</totfact>
</mgrwt>
</event>
<event>
 4    1  0.4940461E-001  0.8440549E+02  0.7546771E-02  0.1316995E+00
          1   -1    0    0  501    0  0.00000000000E+00  0.00000000000E+00  0.74156189222E+02  0.74156189222E+02  0.00000000000E+00 0. -1.
         -1   -1    0    0    0  501 -0.00000000000E+00 -0.00000000000E+00 -0.15042965603E+03  0.15042965603E+03  0.00000000000E+00 0.  1.
         24    1    1    2    0    0  0.22426677613E+02 -0.12414331485E+02 -0.10563902094E+03  0.13521793592E+03  0.80419002446E+02 0.  1.
        -24    1    1    2    0    0 -0.22426677613E+02  0.12414331485E+02  0.29365554130E+02  0.89367909334E+02  0.80419002446E+02 0. -1.
<mgrwt>
<rscale>  0 0.84405494E+02</rscale>
<asrwt>0</asrwt>
<pdfrwt beam="1">  1        1 0.11408644E-01 0.84405494E+02</pdfrwt>
<pdfrwt beam="2">  1       -1 0.23143024E-01 0.84405494E+02</pdfrwt>
<totfact> 0.77173313E+03</totfact>
</mgrwt>
</event>
<event>
 4    1  0.4940461E-001  0.1008522E+03  0.7546771E-02  0.1278514E+00
         -1   -1    0    0    0  501 -0.00000000000E+00  0.00000000000E+00  0.12814457019E+04  0.12814457019E+04  0.00000000000E+00 0.  1.
          1   -1    0    0  501    0  0.00000000000E+00 -0.00000000000E+00 -0.15031666446E+02  0.15031666446E+02  0.00000000000E+00 0. -1.
         24    1    1    2    0    0 -0.19634684457E+02  0.57605841370E+02  0.10785446171E+04  0.10832495838E+04  0.80419002446E+02 0.  1.
        -24    1    1    2    0    0  0.19634684457E+02 -0.57605841370E+02  0.18786941841E+03  0.21322778459E+03  0.80419002446E+02 0. -1.
<mgrwt>
<rscale>  0 0.10085222E+03</rscale>
<asrwt>0</asrwt>
<pdfrwt beam="1">  1        1 0.23125651E-02 0.10085222E+03</pdfrwt>
<pdfrwt beam="2">  1       -1 0.19714541E+00 0.10085222E+03</pdfrwt>
<totfact> 0.83717506E+02</totfact>
</mgrwt>
</event>
<event>
 4    1  0.4940461E-001  0.1100094E+03  0.7546771E-02  0.1260552E+00
          2   -1    0    0  501    0  0.00000000000E+00  0.00000000000E+00  0.40041110092E+03  0.40041110092E+03  0.00000000000E+00 0. -1.
         -2   -1    0    0    0  501 -0.00000000000E+00 -0.00000000000E+00 -0.33719534990E+02  0.33719534990E+02  0.00000000000E+00 0.  1.
         24    1    1    2    0    0 -0.48303995133E+02  0.57459298488E+02  0.11345810398E+03  0.15803418694E+03  0.80419002446E+02 0.  1.
        -24    1    1    2    0    0  0.48303995133E+02 -0.57459298488E+02  0.25323346195E+03  0.27609644897E+03  0.80419002446E+02 0.  1.
<mgrwt>
<rscale>  0 0.11000939E+03</rscale>
<asrwt>0</asrwt>
<pdfrwt beam="1">  1        2 0.61601704E-01 0.11000940E+03</pdfrwt>
<pdfrwt beam="2">  1       -2 0.51876211E-02 0.11000940E+03</pdfrwt>
<totfact> 0.13689129E+04</totfact>
</mgrwt>
</event>
<event>
 4    1  0.4940461E-001  0.1436332E+03  0.7546771E-02  0.1208522E+00
         -1   -1    0    0    0  501 -0.00000000000E+00  0.00000000000E+00  0.80829040884E+03  0.80829040884E+03  0.00000000000E+00 0.  1.
          1   -1    0    0  501    0  0.00000000000E+00 -0.00000000000E+00 -0.12355377976E+03  0.12355377976E+03  0.00000000000E+00 0. -1.
         24    1    1    2    0    0  0.11355564880E+03 -0.35614665212E+02  0.75738458138E+03  0.77088384976E+03  0.80419002446E+02 0.  1.
        -24    1    1    2    0    0 -0.11355564880E+03  0.35614665212E+02 -0.72647952299E+02  0.16096033884E+03  0.80419002446E+02 0. -1.
<mgrwt>
<rscale>  0 0.14363323E+03</rscale>
<asrwt>0</asrwt>
<pdfrwt beam="1">  1        1 0.19008274E-01 0.14363323E+03</pdfrwt>
<pdfrwt beam="2">  1       -1 0.12435237E+00 0.14363323E+03</pdfrwt>
<totfact> 0.16898829E+02</totfact>
</mgrwt>
</event>
<event>
 4    1  0.4940461E-001  0.8918794E+02  0.7546771E-02  0.1304830E+00
         -2   -1    0    0    0  501 -0.00000000000E+00  0.00000000000E+00  0.63296824077E+02  0.63296824077E+02  0.00000000000E+00 0.  1.
          2   -1    0    0  501    0  0.00000000000E+00 -0.00000000000E+00 -0.18562757423E+03  0.18562757423E+03  0.00000000000E+00 0. -1.
         24    1    1    2    0    0  0.38160448548E+02 -0.55725284623E+01 -0.13190122396E+03  0.15922443827E+03  0.80419002446E+02 0. -1.
        -24    1    1    2    0    0 -0.38160448548E+02  0.55725284623E+01  0.95704738075E+01  0.89699960034E+02  0.80419002446E+02 0.  1.
<mgrwt>
<rscale>  0 0.89187941E+02</rscale>
<asrwt>0</asrwt>
<pdfrwt beam="1">  1        2 0.28558088E-01 0.89187941E+02</pdfrwt>
<pdfrwt beam="2">  1       -2 0.97379731E-02 0.89187941E+02</pdfrwt>
<totfact> 0.11607119E+04</totfact>
</mgrwt>
</event>
<event>
 4    1  0.4940461E-001  0.8105880E+02  0.7546771E-02  0.1326073E+00
         -4   -1    0    0    0  501 -0.00000000000E+00  0.00000000000E+00  0.30613680816E+03  0.30613680816E+03  0.00000000000E+00 0.  1.
          4   -1    0    0  501    0  0.00000000000E+00 -0.00000000000E+00 -0.22054876303E+02  0.22054876303E+02  0.00000000000E+00 0. -1.
         24    1    1    2    0    0 -0.10009514409E+02 -0.17670826485E+01  0.11515268355E+03  0.14082140975E+03  0.80419002446E+02 0. -1.
        -24    1    1    2    0    0  0.10009514409E+02  0.17670826485E+01  0.16892924830E+03  0.18737027471E+03  0.80419002446E+02 0.  1.
<mgrwt>
<rscale>  0 0.81058799E+02</rscale>
<asrwt>0</asrwt>
<pdfrwt beam="1">  1        4 0.33930581E-02 0.81058799E+02</pdfrwt>
<pdfrwt beam="2">  1       -4 0.47097968E-01 0.81058799E+02</pdfrwt>
<totfact> 0.27959598E+03</totfact>
</mgrwt>
</event>
<event>
 4    1  0.4940461E-001  0.8382355E+02  0.7546771E-02  0.1318538E+00
         -1   -1    0    0    0  501 -0.00000000000E+00  0.00000000000E+00  0.54453025142E+03  0.54453025142E+03  0.00000000000E+00 0.  1.
          1   -1    0    0  501    0  0.00000000000E+00 -0.00000000000E+00 -0.56182095211E+02  0.56182095211E+02  0.00000000000E+00 0. -1.
         24    1    1    2    0    0 -0.19388121284E+02 -0.13537802463E+02  0.50779130974E+03  0.51466338664E+03  0.80419002446E+02 0.  1.
        -24    1    1    2    0    0  0.19388121284E+02  0.13537802463E+02 -0.19443153531E+02  0.86048959994E+02  0.80419002446E+02 0. -1.
<mgrwt>
<rscale>  0 0.83823549E+02</rscale>
<asrwt>0</asrwt>
<pdfrwt beam="1">  1        1 0.86433996E-02 0.83823549E+02</pdfrwt>
<pdfrwt beam="2">  1       -1 0.83773881E-01 0.83823549E+02</pdfrwt>
<totfact> 0.11195162E+03</totfact>
</mgrwt>
</event>
<event>
 4    1  0.4940461E-001  0.8920245E+02  0.7546771E-02  0.1304795E+00
         -2   -1    0    0    0  501 -0.00000000000E+00  0.00000000000E+00  0.72802964729E+02  0.72802964729E+02  0.00000000000E+00 0.  1.
          2   -1    0    0  501    0  0.00000000000E+00 -0.00000000000E+00 -0.15530612133E+03  0.15530612133E+03  0.00000000000E+00 0. -1.
         24    1    1    2    0    0 -0.33191550693E+02  0.19702323423E+02 -0.10333058380E+03  0.13650745800E+03  0.80419002446E+02 0. -1.
        -24    1    1    2    0    0  0.33191550693E+02 -0.19702323423E+02  0.20827427199E+02  0.91601628063E+02  0.80419002446E+02 0.  1.
<mgrwt>
<rscale>  0 0.89202447E+02</rscale>
<asrwt>0</asrwt>
<pdfrwt beam="1">  1        2 0.23893249E-01 0.89202447E+02</pdfrwt>
<pdfrwt beam="2">  1       -2 0.11200456E-01 0.89202447E+02</pdfrwt>
<totfact> 0.11320053E+04</totfact>
</mgrwt>
</event>
<event>
 4    1  0.4940461E-001  0.8508748E+02  0.7546771E-02  0.1315204E+00
         -2   -1    0    0    0  501 -0.00000000000E+00  0.00000000000E+00  0.93954565194E+01  0.93954565194E+01  0.00000000000E+00 0.  1.
          2   -1    0    0  501    0  0.00000000000E+00 -0.00000000000E+00 -0.93178888337E+03  0.93178888337E+03  0.00000000000E+00 0. -1.
         24    1    1    2    0    0  0.25925554398E+02 -0.10026394594E+02 -0.65694174036E+03  0.66242911254E+03  0.80419002446E+02 0. -1.
        -24    1    1    2    0    0 -0.25925554398E+02  0.10026394594E+02 -0.26545168649E+03  0.27875522735E+03  0.80419002446E+02 0.  1.
<mgrwt>
<rscale>  0 0.85087478E+02</rscale>
<asrwt>0</asrwt>
<pdfrwt beam="1">  1        2 0.14335217E+00 0.85087478E+02</pdfrwt>
<pdfrwt beam="2">  1       -2 0.14454545E-02 0.85087478E+02</pdfrwt>
<totfact> 0.32591028E+04</totfact>
</mgrwt>
</event>
<event>
 4    1  0.4940461E-001  0.9203309E+02  0.7546771E-02  0.1298002E+00
          2   -1    0    0  501    0  0.00000000000E+00  0.00000000000E+00  0.48718864654E+03  0.48718864654E+03  0.00000000000E+00 0. -1.
         -2   -1    0    0    0  501 -0.00000000000E+00 -0.00000000000E+00 -0.17605832801E+02  0.17605832801E+02  0.00000000000E+00 0.  1.
         24    1    1    2    0    0  0.22544886203E+02 -0.38660076324E+02  0.26301757626E+03  0.27865450790E+03  0.80419002446E+02 0. -1.
        -24    1    1    2    0    0 -0.22544886203E+02  0.38660076324E+02  0.20656523748E+03  0.22613997145E+03  0.80419002446E+02 0.  1.
<mgrwt>
<rscale>  0 0.92033088E+02</rscale>
<asrwt>0</asrwt>
<pdfrwt beam="1">  1        2 0.74952089E-01 0.92033088E+02</pdfrwt>
<pdfrwt beam="2">  1       -2 0.27085900E-02 0.92033088E+02</pdfrwt>
<totfact> 0.28385214E+04</totfact>
</mgrwt>
</event>
<event>
 4    1  0.4940461E-001  0.8478609E+02  0.7546771E-02  0.1315993E+00
          1   -1    0    0  501    0  0.00000000000E+00  0.00000000000E+00  0.29228536727E+02  0.29228536727E+02  0.00000000000E+00 0. -1.
         -1   -1    0    0    0  501 -0.00000000000E+00 -0.00000000000E+00 -0.30407886506E+03  0.30407886506E+03  0.00000000000E+00 0.  1.
         24    1    1    2    0    0 -0.47239187591E+01 -0.26441429965E+02 -0.21029163550E+03  0.22674049603E+03  0.80419002446E+02 0.  1.
        -24    1    1    2    0    0  0.47239187591E+01  0.26441429965E+02 -0.64558692838E+02  0.10656690576E+03  0.80419002446E+02 0. -1.
<mgrwt>
<rscale>  0 0.84786087E+02</rscale>
<asrwt>0</asrwt>
<pdfrwt beam="1">  1        1 0.44966981E-02 0.84786087E+02</pdfrwt>
<pdfrwt beam="2">  1       -1 0.46781363E-01 0.84786087E+02</pdfrwt>
<totfact> 0.81186887E+03</totfact>
</mgrwt>
</event>
<event>
 4    1  0.4940461E-001  0.9733311E+02  0.7546771E-02  0.1286006E+00
          1   -1    0    0  501    0  0.00000000000E+00  0.00000000000E+00  0.10805268697E+04  0.10805268697E+04  0.00000000000E+00 0. -1.
         -1   -1    0    0    0  501 -0.00000000000E+00 -0.00000000000E+00 -0.15363435716E+02  0.15363435716E+02  0.00000000000E+00 0.  1.
         24    1    1    2    0    0 -0.24632857740E+02  0.48987139999E+02  0.17355679479E+03  0.19898666925E+03  0.80419002446E+02 0.  1.
        -24    1    1    2    0    0  0.24632857740E+02 -0.48987139999E+02  0.89160663915E+03  0.89690363613E+03  0.80419002446E+02 0. -1.
<mgrwt>
<rscale>  0 0.97333106E+02</rscale>
<asrwt>0</asrwt>
<pdfrwt beam="1">  1        1 0.16623484E+00 0.97333106E+02</pdfrwt>
<pdfrwt beam="2">  1       -1 0.23636063E-02 0.97333106E+02</pdfrwt>
<totfact> 0.71395198E+03</totfact>
</mgrwt>
</event>
<event>
 4    1  0.4940461E-001  0.2282267E+03  0.7546771E-02  0.1127894E+00
          3   -1    0    0  501    0  0.00000000000E+00  0.00000000000E+00  0.38102378659E+03  0.38102378659E+03  0.00000000000E+00 0. -1.
         -3   -1    0    0    0  501 -0.00000000000E+00 -0.00000000000E+00 -0.25182983218E+03  0.25182983218E+03  0.00000000000E+00 0.  1.
         24    1    1    2    0    0 -0.89165101462E+02 -0.19408703939E+03 -0.14935012079E+03  0.27275056135E+03  0.80419002446E+02 0.  1.
        -24    1    1    2    0    0  0.89165101462E+02  0.19408703939E+03  0.27854407521E+03  0.36010305742E+03  0.80419002446E+02 0. -1.
<mgrwt>
<rscale>  0 0.22822666E+03</rscale>
<asrwt>0</asrwt>
<pdfrwt beam="1">  1        3 0.58619044E-01 0.22822666E+03</pdfrwt>
<pdfrwt beam="2">  1       -3 0.38743051E-01 0.22822666E+03</pdfrwt>
<totfact> 0.47091704E+01</totfact>
</mgrwt>
</event>
<event>
 4    1  0.4940461E-001  0.8119971E+02  0.7546771E-02  0.1325681E+00
          2   -1    0    0  501    0  0.00000000000E+00  0.00000000000E+00  0.21863845658E+04  0.21863845658E+04  0.00000000000E+00 0. -1.
         -2   -1    0    0    0  501 -0.00000000000E+00 -0.00000000000E+00 -0.76078770948E+01  0.76078770948E+01  0.00000000000E+00 0.  1.
         24    1    1    2    0    0 -0.11903213870E+01  0.11169619097E+02  0.19416728191E+04  0.19433699415E+04  0.80419002446E+02 0. -1.
        -24    1    1    2    0    0  0.11903213870E+01 -0.11169619097E+02  0.23710386966E+03  0.25062250142E+03  0.80419002446E+02 0.  1.
<mgrwt>
<rscale>  0 0.81199712E+02</rscale>
<asrwt>0</asrwt>
<pdfrwt beam="1">  1        2 0.33636635E+00 0.81199712E+02</pdfrwt>
<pdfrwt beam="2">  1       -2 0.11704444E-02 0.81199712E+02</pdfrwt>
<totfact> 0.97298154E+03</totfact>
</mgrwt>
</event>
<event>
 4    1  0.4940461E-001  0.8956837E+02  0.7546771E-02  0.1303900E+00
         -2   -1    0    0    0  501 -0.00000000000E+00  0.00000000000E+00  0.48967582098E+02  0.48967582098E+02  0.00000000000E+00 0.  1.
          2   -1    0    0  501    0  0.00000000000E+00 -0.00000000000E+00 -0.14394815838E+04  0.14394815838E+04  0.00000000000E+00 0. -1.
         24    1    1    2    0    0  0.13255078630E+02  0.37142686021E+02 -0.13958511854E+04  0.13987219252E+04  0.80419002446E+02 0. -1.
        -24    1    1    2    0    0 -0.13255078630E+02 -0.37142686021E+02  0.53371837444E+01  0.89727240674E+02  0.80419002446E+02 0.  1.
<mgrwt>
<rscale>  0 0.89568366E+02</rscale>
<asrwt>0</asrwt>
<pdfrwt beam="1">  1        2 0.22145865E+00 0.89568366E+02</pdfrwt>
<pdfrwt beam="2">  1       -2 0.75334761E-02 0.89568366E+02</pdfrwt>
<totfact> 0.15378920E+03</totfact>
</mgrwt>
</event>
<event>
 4    1  0.4940461E-001  0.1009840E+03  0.7546771E-02  0.1278240E+00
          1   -1    0    0  501    0  0.00000000000E+00  0.00000000000E+00  0.94051999783E+03  0.94051999783E+03  0.00000000000E+00 0. -1.
         -1   -1    0    0    0  501 -0.00000000000E+00 -0.00000000000E+00 -0.35985889277E+02  0.35985889277E+02  0.00000000000E+00 0.  1.
         24    1    1    2    0    0  0.59798218746E+02 -0.12438828167E+02  0.44145986863E+02  0.11021177579E+03  0.80419002446E+02 0.  1.
        -24    1    1    2    0    0 -0.59798218746E+02  0.12438828167E+02  0.86038812169E+03  0.86629411132E+03  0.80419002446E+02 0. -1.
<mgrwt>
<rscale>  0 0.10098400E+03</rscale>
<asrwt>0</asrwt>
<pdfrwt beam="1">  1        1 0.14469537E+00 0.10098400E+03</pdfrwt>
<pdfrwt beam="2">  1       -1 0.55362914E-02 0.10098400E+03</pdfrwt>
<totfact> 0.26202859E+03</totfact>
</mgrwt>
</event>
<event>
 4    1  0.4940461E-001  0.1193127E+03  0.7546771E-02  0.1244235E+00
          2   -1    0    0  501    0  0.00000000000E+00  0.00000000000E+00  0.79117171933E+03  0.79117171933E+03  0.00000000000E+00 0. -1.
         -2   -1    0    0    0  501 -0.00000000000E+00 -0.00000000000E+00 -0.18250906896E+02  0.18250906896E+02  0.00000000000E+00 0.  1.
         24    1    1    2    0    0  0.50736680820E+02 -0.72070139560E+02  0.43457279701E+03  0.45065402212E+03  0.80419002446E+02 0. -1.
        -24    1    1    2    0    0 -0.50736680820E+02  0.72070139560E+02  0.33834801542E+03  0.35876860410E+03  0.80419002446E+02 0.  0.
<mgrwt>
<rscale>  0 0.11931275E+03</rscale>
<asrwt>0</asrwt>
<pdfrwt beam="1">  1        2 0.12171870E+00 0.11931275E+03</pdfrwt>
<pdfrwt beam="2">  1       -2 0.28078324E-02 0.11931275E+03</pdfrwt>
<totfact> 0.15863456E+04</totfact>
</mgrwt>
</event>
<event>
 4    1  0.4940461E-001  0.8446867E+02  0.7546771E-02  0.1316828E+00
          2   -1    0    0  501    0  0.00000000000E+00  0.00000000000E+00  0.64776872939E+03  0.64776872939E+03  0.00000000000E+00 0. -1.
         -2   -1    0    0    0  501 -0.00000000000E+00 -0.00000000000E+00 -0.84477851600E+02  0.84477851600E+02  0.00000000000E+00 0.  1.
         24    1    1    2    0    0  0.25813549223E+02 -0.11838214608E+01  0.62306688909E+03  0.62876649480E+03  0.80419002446E+02 0. -1.
        -24    1    1    2    0    0 -0.25813549223E+02  0.11838214608E+01 -0.59776011295E+02  0.10348008619E+03  0.80419002446E+02 0.  1.
<mgrwt>
<rscale>  0 0.84468673E+02</rscale>
<asrwt>0</asrwt>
<pdfrwt beam="1">  1        2 0.99656724E-01 0.84468673E+02</pdfrwt>
<pdfrwt beam="2">  1       -2 0.12996593E-01 0.84468673E+02</pdfrwt>
<totfact> 0.19439554E+03</totfact>
</mgrwt>
</event>
<event>
 4    1  0.4940461E-001  0.8508032E+02  0.7546771E-02  0.1315223E+00
         -1   -1    0    0    0  501 -0.00000000000E+00  0.00000000000E+00  0.18114139618E+02  0.18114139618E+02  0.00000000000E+00 0.  1.
          1   -1    0    0  501    0  0.00000000000E+00 -0.00000000000E+00 -0.46602648727E+03  0.46602648727E+03  0.00000000000E+00 0. -1.
         24    1    1    2    0    0 -0.48760512426E+01  0.27343552466E+02 -0.13257400033E+03  0.15752627481E+03  0.80419002446E+02 0.  0.
        -24    1    1    2    0    0  0.48760512426E+01 -0.27343552466E+02 -0.31533834733E+03  0.32661435208E+03  0.80419002446E+02 0.  1.
<mgrwt>
<rscale>  0 0.85080325E+02</rscale>
<asrwt>0</asrwt>
<pdfrwt beam="1">  1        1 0.71696366E-01 0.85080325E+02</pdfrwt>
<pdfrwt beam="2">  1       -1 0.27867914E-02 0.85080325E+02</pdfrwt>
<totfact> 0.18766283E+04</totfact>
</mgrwt>
</event>
<event>
 4    1  0.4940461E-001  0.9470290E+02  0.7546771E-02  0.1291847E+00
          2   -1    0    0  501    0  0.00000000000E+00  0.00000000000E+00  0.64730896828E+02  0.64730896828E+02  0.00000000000E+00 0. -1.
         -2   -1    0    0    0  501 -0.00000000000E+00 -0.00000000000E+00 -0.13863756991E+03  0.13863756991E+03  0.00000000000E+00 0.  1.
         24    1    1    2    0    0  0.11133759477E+02 -0.48759190826E+02 -0.39470426796E+02  0.10259897580E+03  0.80419002446E+02 0. -1.
        -24    1    1    2    0    0 -0.11133759477E+02  0.48759190826E+02 -0.34436246282E+02  0.10076949093E+03  0.80419002446E+02 0.  1.
<mgrwt>
<rscale>  0 0.94702891E+02</rscale>
<asrwt>0</asrwt>
<pdfrwt beam="1">  1        2 0.99585997E-02 0.94702902E+02</pdfrwt>
<pdfrwt beam="2">  1       -2 0.21328857E-01 0.94702902E+02</pdfrwt>
<totfact> 0.10959043E+04</totfact>
</mgrwt>
</event>
<event>
 4    1  0.4940461E-001  0.9222276E+02  0.7546771E-02  0.1297557E+00
          1   -1    0    0  501    0  0.00000000000E+00  0.00000000000E+00  0.28844112616E+03  0.28844112616E+03  0.00000000000E+00 0. -1.
         -1   -1    0    0    0  501 -0.00000000000E+00 -0.00000000000E+00 -0.34009220187E+02  0.34009220187E+02  0.00000000000E+00 0.  1.
         24    1    1    2    0    0 -0.76403982985E+01 -0.44490955309E+02  0.68419908392E+02  0.11483170559E+03  0.80419002446E+02 0.  1.
        -24    1    1    2    0    0  0.76403982985E+01  0.44490955309E+02  0.18601199759E+03  0.20761864076E+03  0.80419002446E+02 0. -1.
<mgrwt>
<rscale>  0 0.92222756E+02</rscale>
<asrwt>0</asrwt>
<pdfrwt beam="1">  1        1 0.44375556E-01 0.92222756E+02</pdfrwt>
<pdfrwt beam="2">  1       -1 0.52321879E-02 0.92222756E+02</pdfrwt>
<totfact> 0.13733705E+04</totfact>
</mgrwt>
</event>
<event>
 4    1  0.4940461E-001  0.9291765E+02  0.7546771E-02  0.1295936E+00
         -2   -1    0    0    0  501 -0.00000000000E+00  0.00000000000E+00  0.16540120253E+03  0.16540120253E+03  0.00000000000E+00 0.  1.
          2   -1    0    0  501    0  0.00000000000E+00 -0.00000000000E+00 -0.53100448623E+02  0.53100448623E+02  0.00000000000E+00 0. -1.
         24    1    1    2    0    0 -0.26781151886E+02  0.38068937607E+02  0.41911581839E+02  0.10193267755E+03  0.80419002446E+02 0. -1.
        -24    1    1    2    0    0  0.26781151886E+02 -0.38068937607E+02  0.70389172067E+02  0.11656897360E+03  0.80419002446E+02 0.  1.
<mgrwt>
<rscale>  0 0.92917652E+02</rscale>
<asrwt>0</asrwt>
<pdfrwt beam="1">  1        2 0.81692998E-02 0.92917652E+02</pdfrwt>
<pdfrwt beam="2">  1       -2 0.25446339E-01 0.92917652E+02</pdfrwt>
<totfact> 0.10305717E+04</totfact>
</mgrwt>
</event>
<event>
 4    1  0.4940461E-001  0.1014275E+03  0.7546771E-02  0.1277323E+00
          1   -1    0    0  501    0  0.00000000000E+00  0.00000000000E+00  0.65281148060E+02  0.65281148060E+02  0.00000000000E+00 0. -1.
         -1   -1    0    0    0  501 -0.00000000000E+00 -0.00000000000E+00 -0.23031932779E+03  0.23031932779E+03  0.00000000000E+00 0.  1.
         24    1    1    2    0    0  0.22530212547E+02 -0.57556104250E+02 -0.16557497757E+03  0.19417158588E+03  0.80419002446E+02 0.  1.
        -24    1    1    2    0    0 -0.22530212547E+02  0.57556104250E+02  0.53679783469E+00  0.10142888997E+03  0.80419002446E+02 0. -1.
<mgrwt>
<rscale>  0 0.10142747E+03</rscale>
<asrwt>0</asrwt>
<pdfrwt beam="1">  1        1 0.10043254E-01 0.10142747E+03</pdfrwt>
<pdfrwt beam="2">  1       -1 0.35433743E-01 0.10142747E+03</pdfrwt>
<totfact> 0.45726346E+03</totfact>
</mgrwt>
</event>
<event>
 4    1  0.4940461E-001  0.8049100E+02  0.7546771E-02  0.1327664E+00
          1   -1    0    0  501    0  0.00000000000E+00  0.00000000000E+00  0.32052850153E+03  0.32052850153E+03  0.00000000000E+00 0. -1.
         -1   -1    0    0    0  501 -0.00000000000E+00 -0.00000000000E+00 -0.27750496123E+02  0.27750496123E+02  0.00000000000E+00 0.  1.
         24    1    1    2    0    0 -0.23809598354E+01  0.24322859713E+01  0.55632195373E+02  0.97845501180E+02  0.80419002446E+02 0.  1.
        -24    1    1    2    0    0  0.23809598354E+01 -0.24322859713E+01  0.23714581004E+03  0.25043349647E+03  0.80419002446E+02 0.  0.
<mgrwt>
<rscale>  0 0.80490999E+02</rscale>
<asrwt>0</asrwt>
<pdfrwt beam="1">  1        1 0.49312075E-01 0.80490999E+02</pdfrwt>
<pdfrwt beam="2">  1       -1 0.42693073E-02 0.80490999E+02</pdfrwt>
<totfact> 0.16024756E+04</totfact>
</mgrwt>
</event>
<event>
 4    1  0.4940461E-001  0.8958426E+02  0.7546771E-02  0.1303862E+00
         -1   -1    0    0    0  501 -0.00000000000E+00  0.00000000000E+00  0.71452627637E+01  0.71452627637E+01  0.00000000000E+00 0.  1.
          1   -1    0    0  501    0  0.00000000000E+00 -0.00000000000E+00 -0.13585882115E+04  0.13585882115E+04  0.00000000000E+00 0. -1.
         24    1    1    2    0    0 -0.30551410873E+02  0.24994689345E+02 -0.39146341204E+03  0.40158304511E+03  0.80419002446E+02 0.  1.
        -24    1    1    2    0    0  0.30551410873E+02 -0.24994689345E+02 -0.95997953671E+03  0.96415042916E+03  0.80419002446E+02 0. -1.
<mgrwt>
<rscale>  0 0.89584257E+02</rscale>
<asrwt>0</asrwt>
<pdfrwt beam="1">  1        1 0.20901356E+00 0.89584257E+02</pdfrwt>
<pdfrwt beam="2">  1       -1 0.10992713E-02 0.89584257E+02</pdfrwt>
<totfact> 0.13724768E+04</totfact>
</mgrwt>
</event>
<event>
 4    1  0.4940461E-001  0.8564525E+02  0.7546771E-02  0.1313754E+00
         -2   -1    0    0    0  501 -0.00000000000E+00  0.00000000000E+00  0.45349627239E+02  0.45349627239E+02  0.00000000000E+00 0.  1.
          2   -1    0    0  501    0  0.00000000000E+00 -0.00000000000E+00 -0.19504428190E+03  0.19504428190E+03  0.00000000000E+00 0. -1.
         24    1    1    2    0    0  0.27209288145E+02 -0.11293701568E+02 -0.12451107195E+03  0.15112285085E+03  0.80419002446E+02 0.  0.
        -24    1    1    2    0    0 -0.27209288145E+02  0.11293701568E+02 -0.25183582720E+02  0.89271058297E+02  0.80419002446E+02 0.  1.
<mgrwt>
<rscale>  0 0.85645251E+02</rscale>
<asrwt>0</asrwt>
<pdfrwt beam="1">  1        2 0.30006813E-01 0.85645251E+02</pdfrwt>
<pdfrwt beam="2">  1       -2 0.69768657E-02 0.85645251E+02</pdfrwt>
<totfact> 0.18261791E+04</totfact>
</mgrwt>
</event>
<event>
 4    1  0.4940461E-001  0.8444157E+02  0.7546771E-02  0.1316899E+00
         -4   -1    0    0    0  501 -0.00000000000E+00  0.00000000000E+00  0.18148917835E+03  0.18148917835E+03  0.00000000000E+00 0.  1.
          4   -1    0    0  501    0  0.00000000000E+00 -0.00000000000E+00 -0.75302534760E+02  0.75302534760E+02  0.00000000000E+00 0. -1.
         24    1    1    2    0    0 -0.23423648753E+02  0.10700235430E+02 -0.35700770109E+02  0.91678368768E+02  0.80419002446E+02 0. -1.
        -24    1    1    2    0    0  0.23423648753E+02 -0.10700235430E+02  0.14188741370E+03  0.16511334434E+03  0.80419002446E+02 0.  1.
<mgrwt>
<rscale>  0 0.84441567E+02</rscale>
<asrwt>0</asrwt>
<pdfrwt beam="1">  1        4 0.11585005E-01 0.84441567E+02</pdfrwt>
<pdfrwt beam="2">  1       -4 0.27921412E-01 0.84441567E+02</pdfrwt>
<totfact> 0.10613658E+03</totfact>
</mgrwt>
</event>
<event>
 4    1  0.4940461E-001  0.1041721E+03  0.7546771E-02  0.1271759E+00
         -2   -1    0    0    0  501 -0.00000000000E+00  0.00000000000E+00  0.42929312858E+02  0.42929312858E+02  0.00000000000E+00 0.  1.
          2   -1    0    0  501    0  0.00000000000E+00 -0.00000000000E+00 -0.46541128554E+03  0.46541128554E+03  0.00000000000E+00 0. -1.
         24    1    1    2    0    0 -0.64113592876E+02  0.16554679543E+02 -0.38303825434E+03  0.39695104289E+03  0.80419002446E+02 0. -1.
        -24    1    1    2    0    0  0.64113592876E+02 -0.16554679543E+02 -0.39443718342E+02  0.11138955551E+03  0.80419002446E+02 0.  1.
<mgrwt>
<rscale>  0 0.10417210E+03</rscale>
<asrwt>0</asrwt>
<pdfrwt beam="1">  1        2 0.71601736E-01 0.10417210E+03</pdfrwt>
<pdfrwt beam="2">  1       -2 0.66045097E-02 0.10417210E+03</pdfrwt>
<totfact> 0.80710058E+03</totfact>
</mgrwt>
</event>
<event>
 4    1  0.4940461E-001  0.1628153E+03  0.7546771E-02  0.1185554E+00
         -1   -1    0    0    0  501 -0.00000000000E+00  0.00000000000E+00  0.69264598812E+02  0.69264598812E+02  0.00000000000E+00 0.  1.
          1   -1    0    0  501    0  0.00000000000E+00 -0.00000000000E+00 -0.50995737008E+03  0.50995737008E+03  0.00000000000E+00 0. -1.
         24    1    1    2    0    0 -0.34047997653E+02 -0.13741301193E+03 -0.75683001109E+02  0.17954591224E+03  0.80419002446E+02 0.  1.
        -24    1    1    2    0    0  0.34047997653E+02  0.13741301193E+03 -0.36500977016E+03  0.39967605665E+03  0.80419002446E+02 0. -1.
<mgrwt>
<rscale>  0 0.16281529E+03</rscale>
<asrwt>0</asrwt>
<pdfrwt beam="1">  1        1 0.78454977E-01 0.16281529E+03</pdfrwt>
<pdfrwt beam="2">  1       -1 0.10656092E-01 0.16281529E+03</pdfrwt>
<totfact> 0.23897229E+03</totfact>
</mgrwt>
</event>
<event>
 4    1  0.4940461E-001  0.8322659E+02  0.7546771E-02  0.1320136E+00
         -2   -1    0    0    0  501 -0.00000000000E+00  0.00000000000E+00  0.13103755438E+02  0.13103755438E+02  0.00000000000E+00 0.  1.
          2   -1    0    0  501    0  0.00000000000E+00 -0.00000000000E+00 -0.69587914153E+03  0.69587914153E+03  0.00000000000E+00 0. -1.
         24    1    1    2    0    0  0.61710398926E+01  0.20527245171E+02 -0.51519087866E+03  0.52187000962E+03  0.80419002446E+02 0. -1.
        -24    1    1    2    0    0 -0.61710398926E+01 -0.20527245171E+02 -0.16758450743E+03  0.18711288735E+03  0.80419002446E+02 0.  1.
<mgrwt>
<rscale>  0 0.83226591E+02</rscale>
<asrwt>0</asrwt>
<pdfrwt beam="1">  1        2 0.10705831E+00 0.83226591E+02</pdfrwt>
<pdfrwt beam="2">  1       -2 0.20159628E-02 0.83226591E+02</pdfrwt>
<totfact> 0.28900795E+04</totfact>
</mgrwt>
</event>
<event>
 4    1  0.4940461E-001  0.8534146E+02  0.7546771E-02  0.1314542E+00
          3   -1    0    0  501    0  0.00000000000E+00  0.00000000000E+00  0.18234818528E+03  0.18234818528E+03  0.00000000000E+00 0. -1.
         -3   -1    0    0    0  501 -0.00000000000E+00 -0.00000000000E+00 -0.61531891096E+02  0.61531891096E+02  0.00000000000E+00 0.  1.
         24    1    1    2    0    0  0.40016079205E+01  0.28283131785E+02 -0.11824200049E+02  0.86156694869E+02  0.80419002446E+02 0.  1.
        -24    1    1    2    0    0 -0.40016079205E+01 -0.28283131785E+02  0.13264049424E+03  0.15772338151E+03  0.80419002446E+02 0. -1.
<mgrwt>
<rscale>  0 0.85341457E+02</rscale>
<asrwt>0</asrwt>
<pdfrwt beam="1">  1        3 0.28053567E-01 0.85341457E+02</pdfrwt>
<pdfrwt beam="2">  1       -3 0.94664449E-02 0.85341457E+02</pdfrwt>
<totfact> 0.20596773E+03</totfact>
</mgrwt>
</event>
<event>
 4    1  0.4940461E-001  0.8513338E+02  0.7546771E-02  0.1315084E+00
          1   -1    0    0  501    0  0.00000000000E+00  0.00000000000E+00  0.84901795381E+03  0.84901795381E+03  0.00000000000E+00 0. -1.
         -1   -1    0    0    0  501 -0.00000000000E+00 -0.00000000000E+00 -0.20307113837E+03  0.20307113837E+03  0.00000000000E+00 0.  1.
         24    1    1    2    0    0 -0.19684468357E+02 -0.19824191757E+02 -0.19189568770E+03  0.20993248387E+03  0.80419002446E+02 0.  1.
        -24    1    1    2    0    0  0.19684468357E+02  0.19824191757E+02  0.83784250315E+03  0.84215660830E+03  0.80419002446E+02 0. -1.
<mgrwt>
<rscale>  0 0.85133383E+02</rscale>
<asrwt>0</asrwt>
<pdfrwt beam="1">  1        1 0.13061814E+00 0.85133383E+02</pdfrwt>
<pdfrwt beam="2">  1       -1 0.31241714E-01 0.85133383E+02</pdfrwt>
<totfact> 0.21134608E+02</totfact>
</mgrwt>
</event>
<event>
 4    1  0.4940461E-001  0.8797779E+02  0.7546771E-02  0.1307824E+00
          1   -1    0    0  501    0  0.00000000000E+00  0.00000000000E+00  0.10233739707E+04  0.10233739707E+04  0.00000000000E+00 0. -1.
         -1   -1    0    0    0  501 -0.00000000000E+00 -0.00000000000E+00 -0.10164342064E+02  0.10164342064E+02  0.00000000000E+00 0.  1.
         24    1    1    2    0    0 -0.26533726617E+01  0.35578572065E+02  0.24519006731E+03  0.26049618085E+03  0.80419002446E+02 0.  1.
        -24    1    1    2    0    0  0.26533726617E+01 -0.35578572065E+02  0.76801956130E+03  0.77304213189E+03  0.80419002446E+02 0. -1.
<mgrwt>
<rscale>  0 0.87977788E+02</rscale>
<asrwt>0</asrwt>
<pdfrwt beam="1">  1        1 0.15744207E+00 0.87977788E+02</pdfrwt>
<pdfrwt beam="2">  1       -1 0.15637457E-02 0.87977788E+02</pdfrwt>
<totfact> 0.14028683E+04</totfact>
</mgrwt>
</event>
<event>
 4    1  0.4940461E-001  0.8738421E+02  0.7546771E-02  0.1309313E+00
         -1   -1    0    0    0  501 -0.00000000000E+00  0.00000000000E+00  0.44034876526E+02  0.44034876526E+02  0.00000000000E+00 0.  1.
          1   -1    0    0  501    0  0.00000000000E+00 -0.00000000000E+00 -0.30849165231E+03  0.30849165231E+03  0.00000000000E+00 0. -1.
         24    1    1    2    0    0 -0.56616823280E+01 -0.33715365855E+02 -0.24886680601E+03  0.26376255160E+03  0.80419002446E+02 0. -1.
        -24    1    1    2    0    0  0.56616823280E+01  0.33715365855E+02 -0.15589969773E+02  0.88763977228E+02  0.80419002446E+02 0.  0.
<mgrwt>
<rscale>  0 0.87384200E+02</rscale>
<asrwt>0</asrwt>
<pdfrwt beam="1">  1        1 0.47460252E-01 0.87384211E+02</pdfrwt>
<pdfrwt beam="2">  1       -1 0.67745967E-02 0.87384211E+02</pdfrwt>
<totfact> 0.86063340E+03</totfact>
</mgrwt>
</event>
<event>
 4    1  0.4940461E-001  0.8392460E+02  0.7546771E-02  0.1318269E+00
          2   -1    0    0  501    0  0.00000000000E+00  0.00000000000E+00  0.11514995264E+03  0.11514995264E+03  0.00000000000E+00 0. -1.
         -2   -1    0    0    0  501 -0.00000000000E+00 -0.00000000000E+00 -0.28691924606E+03  0.28691924606E+03  0.00000000000E+00 0.  1.
         24    1    1    2    0    0  0.10119603425E+02 -0.21765023796E+02  0.92438340352E+02  0.12485265458E+03  0.80419002446E+02 0. -1.
        -24    1    1    2    0    0 -0.10119603425E+02  0.21765023796E+02 -0.26420763377E+03  0.27721654412E+03  0.80419002446E+02 0.  1.
<mgrwt>
<rscale>  0 0.83924601E+02</rscale>
<asrwt>0</asrwt>
<pdfrwt beam="1">  1        2 0.17715377E-01 0.83924601E+02</pdfrwt>
<pdfrwt beam="2">  1       -2 0.44141422E-01 0.83924601E+02</pdfrwt>
<totfact> 0.15010244E+03</totfact>
</mgrwt>
</event>
<event>
 4    1  0.4940461E-001  0.1157118E+03  0.7546771E-02  0.1250344E+00
         -2   -1    0    0    0  501 -0.00000000000E+00  0.00000000000E+00  0.87451673734E+02  0.87451673734E+02  0.00000000000E+00 0.  1.
          2   -1    0    0  501    0  0.00000000000E+00 -0.00000000000E+00 -0.15426554752E+03  0.15426554752E+03  0.00000000000E+00 0. -1.
         24    1    1    2    0    0 -0.83020205060E+02  0.54444975684E+01 -0.43893572399E+02  0.12375725698E+03  0.80419002446E+02 0.  1.
        -24    1    1    2    0    0  0.83020205060E+02 -0.54444975684E+01 -0.22920301384E+02  0.11795996428E+03  0.80419002446E+02 0. -1.
<mgrwt>
<rscale>  0 0.11571177E+03</rscale>
<asrwt>0</asrwt>
<pdfrwt beam="1">  1        2 0.23733161E-01 0.11571177E+03</pdfrwt>
<pdfrwt beam="2">  1       -2 0.13454104E-01 0.11571177E+03</pdfrwt>
<totfact> 0.87185468E+03</totfact>
</mgrwt>
</event>
<event>
 4    1  0.4940461E-001  0.8748207E+02  0.7546771E-02  0.1309066E+00
          2   -1    0    0  501    0  0.00000000000E+00  0.00000000000E+00  0.19862978503E+04  0.19862978503E+04  0.00000000000E+00 0. -1.
         -2   -1    0    0    0  501 -0.00000000000E+00 -0.00000000000E+00 -0.49647848168E+01  0.49647848168E+01  0.00000000000E+00 0.  1.
         24    1    1    2    0    0  0.24497544027E+00  0.34435970048E+02  0.14618259853E+04  0.14644413007E+04  0.80419002446E+02 0. -1.
        -24    1    1    2    0    0 -0.24497544027E+00 -0.34435970048E+02  0.51950708027E+03  0.52682133447E+03  0.80419002446E+02 0.  1.
<mgrwt>
<rscale>  0 0.87482067E+02</rscale>
<asrwt>0</asrwt>
<pdfrwt beam="1">  1        2 0.30558365E+00 0.87482067E+02</pdfrwt>
<pdfrwt beam="2">  1       -2 0.76381463E-03 0.87482067E+02</pdfrwt>
<totfact> 0.22491902E+04</totfact>
</mgrwt>
</event>
<event>
 4    1  0.4940461E-001  0.1257076E+03  0.7546771E-02  0.1233968E+00
         -2   -1    0    0    0  501 -0.00000000000E+00  0.00000000000E+00  0.88439752890E+02  0.88439752890E+02  0.00000000000E+00 0.  1.
          2   -1    0    0  501    0  0.00000000000E+00 -0.00000000000E+00 -0.35571003013E+03  0.35571003013E+03  0.00000000000E+00 0. -1.
         24    1    1    2    0    0  0.11487322017E+02 -0.95933416428E+02 -0.29030128245E+03  0.31634985301E+03  0.80419002446E+02 0. -1.
        -24    1    1    2    0    0 -0.11487322017E+02  0.95933416428E+02  0.23031005210E+02  0.12779993001E+03  0.80419002446E+02 0.  1.
<mgrwt>
<rscale>  0 0.12570758E+03</rscale>
<asrwt>0</asrwt>
<pdfrwt beam="1">  1        2 0.54724619E-01 0.12570758E+03</pdfrwt>
<pdfrwt beam="2">  1       -2 0.13606116E-01 0.12570758E+03</pdfrwt>
<totfact> 0.35201620E+03</totfact>
</mgrwt>
</event>
<event>
 4    1  0.4940461E-001  0.8159740E+02  0.7546771E-02  0.1324578E+00
         -2   -1    0    0    0  501 -0.00000000000E+00  0.00000000000E+00  0.13465148473E+02  0.13465148473E+02  0.00000000000E+00 0.  1.
          2   -1    0    0  501    0  0.00000000000E+00 -0.00000000000E+00 -0.59365271699E+03  0.59365271699E+03  0.00000000000E+00 0. -1.
         24    1    1    2    0    0  0.11833262070E+02  0.71339938674E+01 -0.41417067272E+03  0.42213206708E+03  0.80419002446E+02 0. -1.
        -24    1    1    2    0    0 -0.11833262070E+02 -0.71339938674E+01 -0.16601689579E+03  0.18498579838E+03  0.80419002446E+02 0.  1.
<mgrwt>
<rscale>  0 0.81597401E+02</rscale>
<asrwt>0</asrwt>
<pdfrwt beam="1">  1        2 0.91331174E-01 0.81597401E+02</pdfrwt>
<pdfrwt beam="2">  1       -2 0.20715616E-02 0.81597401E+02</pdfrwt>
<totfact> 0.33210670E+04</totfact>
</mgrwt>
</event>
<event>
 4    1  0.4940461E-001  0.1104423E+03  0.7546771E-02  0.1259753E+00
          1   -1    0    0  501    0  0.00000000000E+00  0.00000000000E+00  0.11352921612E+04  0.11352921612E+04  0.00000000000E+00 0. -1.
         -1   -1    0    0    0  501 -0.00000000000E+00 -0.00000000000E+00 -0.25541452022E+02  0.25541452022E+02  0.00000000000E+00 0.  1.
         24    1    1    2    0    0 -0.64652976962E+02  0.39373696930E+02  0.11308977921E+03  0.15807216566E+03  0.80419002446E+02 0.  1.
        -24    1    1    2    0    0  0.64652976962E+02 -0.39373696930E+02  0.99666092996E+03  0.10027614476E+04  0.80419002446E+02 0. -1.
<mgrwt>
<rscale>  0 0.11044234E+03</rscale>
<asrwt>0</asrwt>
<pdfrwt beam="1">  1        1 0.17466029E+00 0.11044234E+03</pdfrwt>
<pdfrwt beam="2">  1       -1 0.39294551E-02 0.11044234E+03</pdfrwt>
<totfact> 0.31518285E+03</totfact>
</mgrwt>
</event>
<event>
 4    1  0.4940461E-001  0.1478583E+03  0.7546771E-02  0.1203130E+00
         -2   -1    0    0    0  501 -0.00000000000E+00  0.00000000000E+00  0.30854668558E+02  0.30854668558E+02  0.00000000000E+00 0.  1.
          2   -1    0    0  501    0  0.00000000000E+00 -0.00000000000E+00 -0.16960991154E+04  0.16960991154E+04  0.00000000000E+00 0. -1.
         24    1    1    2    0    0 -0.57198686088E+02 -0.11010527107E+03 -0.14914993807E+04  0.14988103546E+04  0.80419002446E+02 0. -1.
        -24    1    1    2    0    0  0.57198686088E+02  0.11010527107E+03 -0.17374506615E+03  0.22814342939E+03  0.80419002446E+02 0.  1.
<mgrwt>
<rscale>  0 0.14785830E+03</rscale>
<asrwt>0</asrwt>
<pdfrwt beam="1">  1        2 0.26093830E+00 0.14785830E+03</pdfrwt>
<pdfrwt beam="2">  1       -2 0.47468726E-02 0.14785830E+03</pdfrwt>
<totfact> 0.22811024E+03</totfact>
</mgrwt>
</event>
<event>
 4    1  0.4940461E-001  0.8538849E+02  0.7546771E-02  0.1314420E+00
          2   -1    0    0  501    0  0.00000000000E+00  0.00000000000E+00  0.22532259014E+03  0.22532259014E+03  0.00000000000E+00 0. -1.
         -2   -1    0    0    0  501 -0.00000000000E+00 -0.00000000000E+00 -0.75147636479E+02  0.75147636479E+02  0.00000000000E+00 0.  1.
         24    1    1    2    0    0 -0.28490124268E+02 -0.35058462441E+01  0.18845233554E+03  0.20689484494E+03  0.80419002446E+02 0. -1.
        -24    1    1    2    0    0  0.28490124268E+02  0.35058462441E+01 -0.38277381877E+02  0.93575381679E+02  0.80419002446E+02 0.  1.
<mgrwt>
<rscale>  0 0.85388489E+02</rscale>
<asrwt>0</asrwt>
<pdfrwt beam="1">  1        2 0.34665014E-01 0.85388489E+02</pdfrwt>
<pdfrwt beam="2">  1       -2 0.11561175E-01 0.85388489E+02</pdfrwt>
<totfact> 0.71964451E+03</totfact>
</mgrwt>
</event>
<event>
 4    1  0.4940461E-001  0.8731687E+02  0.7546771E-02  0.1309483E+00
         -2   -1    0    0    0  501 -0.00000000000E+00  0.00000000000E+00  0.13363614878E+03  0.13363614878E+03  0.00000000000E+00 0.  1.
          2   -1    0    0  501    0  0.00000000000E+00 -0.00000000000E+00 -0.66845751910E+02  0.66845751910E+02  0.00000000000E+00 0. -1.
         24    1    1    2    0    0 -0.26419134174E+01  0.33912234475E+02 -0.49736306880E+01  0.87458403314E+02  0.80419002446E+02 0. -1.
        -24    1    1    2    0    0  0.26419134174E+01 -0.33912234475E+02  0.71764027561E+02  0.11302349738E+03  0.80419002446E+02 0.  1.
<mgrwt>
<rscale>  0 0.87316867E+02</rscale>
<asrwt>0</asrwt>
<pdfrwt beam="1">  1        2 0.10283962E-01 0.87316867E+02</pdfrwt>
<pdfrwt beam="2">  1       -2 0.20559408E-01 0.87316867E+02</pdfrwt>
<totfact> 0.11123665E+04</totfact>
</mgrwt>
</event>
<event>
 4    1  0.4940461E-001  0.8145501E+02  0.7546771E-02  0.1324972E+00
          1   -1    0    0  501    0  0.00000000000E+00  0.00000000000E+00  0.60274792657E+03  0.60274792657E+03  0.00000000000E+00 0. -1.
         -1   -1    0    0    0  501 -0.00000000000E+00 -0.00000000000E+00 -0.12094785290E+02  0.12094785290E+02  0.00000000000E+00 0.  1.
         24    1    1    2    0    0  0.38573624027E+01  0.12362193180E+02  0.20316497832E+03  0.21888564922E+03  0.80419002446E+02 0.  1.
        -24    1    1    2    0    0 -0.38573624027E+01 -0.12362193180E+02  0.38748816296E+03  0.39595706264E+03  0.80419002446E+02 0. -1.
<mgrwt>
<rscale>  0 0.81455012E+02</rscale>
<asrwt>0</asrwt>
<pdfrwt beam="1">  1        1 0.92730427E-01 0.81455012E+02</pdfrwt>
<pdfrwt beam="2">  1       -1 0.18607367E-02 0.81455012E+02</pdfrwt>
<totfact> 0.23815146E+04</totfact>
</mgrwt>
</event>
<event>
 4    1  0.4940461E-001  0.1062798E+03  0.7546771E-02  0.1267618E+00
         -4   -1    0    0    0  501 -0.00000000000E+00  0.00000000000E+00  0.35840800082E+02  0.35840800082E+02  0.00000000000E+00 0.  1.
          4   -1    0    0  501    0  0.00000000000E+00 -0.00000000000E+00 -0.31854554391E+03  0.31854554391E+03  0.00000000000E+00 0. -1.
         24    1    1    2    0    0  0.67014816676E+02 -0.18362589616E+02 -0.15963478439E+03  0.19177760738E+03  0.80419002446E+02 0.  1.
        -24    1    1    2    0    0 -0.67014816676E+02  0.18362589616E+02 -0.12306995944E+03  0.16260873661E+03  0.80419002446E+02 0.  0.
<mgrwt>
<rscale>  0 0.10627975E+03</rscale>
<asrwt>0</asrwt>
<pdfrwt beam="1">  1        4 0.49007008E-01 0.10627975E+03</pdfrwt>
<pdfrwt beam="2">  1       -4 0.55139691E-02 0.10627975E+03</pdfrwt>
<totfact> 0.12849202E+03</totfact>
</mgrwt>
</event>
<event>
 4    1  0.4940461E-001  0.9162453E+02  0.7546771E-02  0.1298965E+00
         -2   -1    0    0    0  501 -0.00000000000E+00  0.00000000000E+00  0.86781324819E+02  0.86781324819E+02  0.00000000000E+00 0.  1.
          2   -1    0    0  501    0  0.00000000000E+00 -0.00000000000E+00 -0.10844310728E+03  0.10844310728E+03  0.00000000000E+00 0. -1.
         24    1    1    2    0    0  0.23782845739E+02 -0.36908139316E+02  0.21238534494E+02  0.94053845222E+02  0.80419002446E+02 0.  0.
        -24    1    1    2    0    0 -0.23782845739E+02  0.36908139316E+02 -0.42900316951E+02  0.10117058687E+03  0.80419002446E+02 0.  1.
<mgrwt>
<rscale>  0 0.91624519E+02</rscale>
<asrwt>0</asrwt>
<pdfrwt beam="1">  1        2 0.16683555E-01 0.91624531E+02</pdfrwt>
<pdfrwt beam="2">  1       -2 0.13350973E-01 0.91624531E+02</pdfrwt>
<totfact> 0.12837651E+04</totfact>
</mgrwt>
</event>
<event>
 4    1  0.4940461E-001  0.9113744E+02  0.7546771E-02  0.1300120E+00
         -2   -1    0    0    0  501 -0.00000000000E+00  0.00000000000E+00  0.21995484844E+03  0.21995484844E+03  0.00000000000E+00 0.  1.
          2   -1    0    0  501    0  0.00000000000E+00 -0.00000000000E+00 -0.37762670132E+02  0.37762670132E+02  0.00000000000E+00 0. -1.
         24    1    1    2    0    0 -0.30607394133E+02  0.30033333735E+02  0.91420731827E+02  0.12908826389E+03  0.80419002446E+02 0. -1.
        -24    1    1    2    0    0  0.30607394133E+02 -0.30033333735E+02  0.90771446482E+02  0.12862925469E+03  0.80419002446E+02 0.  0.
<mgrwt>
<rscale>  0 0.91137433E+02</rscale>
<asrwt>0</asrwt>
<pdfrwt beam="1">  1        2 0.58096417E-02 0.91137445E+02</pdfrwt>
<pdfrwt beam="2">  1       -2 0.33839207E-01 0.91137445E+02</pdfrwt>
<totfact> 0.95160581E+03</totfact>
</mgrwt>
</event>
<event>
 4    1  0.4940461E-001  0.9091348E+02  0.7546771E-02  0.1300655E+00
         -1   -1    0    0    0  501 -0.00000000000E+00  0.00000000000E+00  0.98967951387E+02  0.98967951387E+02  0.00000000000E+00 0.  1.
          1   -1    0    0  501    0  0.00000000000E+00 -0.00000000000E+00 -0.14992867404E+03  0.14992867404E+03  0.00000000000E+00 0. -1.
         24    1    1    2    0    0 -0.20447927517E+02  0.37147364368E+02  0.57347606185E+02  0.10748957302E+03  0.80419002446E+02 0.  1.
        -24    1    1    2    0    0  0.20447927517E+02 -0.37147364368E+02 -0.10830832883E+03  0.14140705240E+03  0.80419002446E+02 0. -1.
<mgrwt>
<rscale>  0 0.90913477E+02</rscale>
<asrwt>0</asrwt>
<pdfrwt beam="1">  1        1 0.23065950E-01 0.90913477E+02</pdfrwt>
<pdfrwt beam="2">  1       -1 0.15225839E-01 0.90913477E+02</pdfrwt>
<totfact> 0.61477613E+03</totfact>
</mgrwt>
</event>
<event>
 4    1  0.4940461E-001  0.1176191E+03  0.7546771E-02  0.1247077E+00
         -2   -1    0    0    0  501 -0.00000000000E+00  0.00000000000E+00  0.51643465418E+02  0.51643465418E+02  0.00000000000E+00 0.  1.
          2   -1    0    0  501    0  0.00000000000E+00 -0.00000000000E+00 -0.33950841562E+03  0.33950841562E+03  0.00000000000E+00 0. -1.
         24    1    1    2    0    0 -0.85828081242E+02  0.76431812903E+00 -0.23376474000E+03  0.26168724335E+03  0.80419002446E+02 0.  1.
        -24    1    1    2    0    0  0.85828081242E+02 -0.76431812903E+00 -0.54100210196E+02  0.12946463768E+03  0.80419002446E+02 0. -1.
<mgrwt>
<rscale>  0 0.11761913E+03</rscale>
<asrwt>0</asrwt>
<pdfrwt beam="1">  1        2 0.52232065E-01 0.11761913E+03</pdfrwt>
<pdfrwt beam="2">  1       -2 0.79451484E-02 0.11761913E+03</pdfrwt>
<totfact> 0.85860236E+03</totfact>
</mgrwt>
</event>
<event>
 4    1  0.4940461E-001  0.9624893E+02  0.7546771E-02  0.1288388E+00
         -2   -1    0    0    0  501 -0.00000000000E+00  0.00000000000E+00  0.63514477944E+02  0.63514477944E+02  0.00000000000E+00 0.  1.
          2   -1    0    0  501    0  0.00000000000E+00 -0.00000000000E+00 -0.14938533516E+03  0.14938533516E+03  0.00000000000E+00 0. -1.
         24    1    1    2    0    0 -0.48307439261E+02  0.21518195352E+02 -0.59301505780E+02  0.11305098833E+03  0.80419002446E+02 0. -1.
        -24    1    1    2    0    0  0.48307439261E+02 -0.21518195352E+02 -0.26569351434E+02  0.99848824776E+02  0.80419002446E+02 0.  1.
<mgrwt>
<rscale>  0 0.96248934E+02</rscale>
<asrwt>0</asrwt>
<pdfrwt beam="1">  1        2 0.22982359E-01 0.96248934E+02</pdfrwt>
<pdfrwt beam="2">  1       -2 0.97714583E-02 0.96248934E+02</pdfrwt>
<totfact> 0.14728710E+04</totfact>
</mgrwt>
</event>
<event>
 4    1  0.4940461E-001  0.1276065E+03  0.7546771E-02  0.1231051E+00
         -2   -1    0    0    0  501 -0.00000000000E+00  0.00000000000E+00  0.32226126292E+02  0.32226126292E+02  0.00000000000E+00 0.  1.
          2   -1    0    0  501    0  0.00000000000E+00 -0.00000000000E+00 -0.53928284847E+03  0.53928284847E+03  0.00000000000E+00 0. -1.
         24    1    1    2    0    0 -0.38087152096E+02 -0.91463568984E+02 -0.32527472575E+03  0.34940961459E+03  0.80419002446E+02 0. -1.
        -24    1    1    2    0    0  0.38087152096E+02  0.91463568984E+02 -0.18178199643E+03  0.22209936016E+03  0.80419002446E+02 0.  0.
<mgrwt>
<rscale>  0 0.12760655E+03</rscale>
<asrwt>0</asrwt>
<pdfrwt beam="1">  1        2 0.82966587E-01 0.12760655E+03</pdfrwt>
<pdfrwt beam="2">  1       -2 0.49578659E-02 0.12760655E+03</pdfrwt>
<totfact> 0.10737947E+04</totfact>
</mgrwt>
</event>
<event>
 4    1  0.4940461E-001  0.9151236E+02  0.7546771E-02  0.1299230E+00
         -1   -1    0    0    0  501 -0.00000000000E+00  0.00000000000E+00  0.52363678459E+02  0.52363678459E+02  0.00000000000E+00 0.  1.
          1   -1    0    0  501    0  0.00000000000E+00 -0.00000000000E+00 -0.18527334917E+03  0.18527334917E+03  0.00000000000E+00 0. -1.
         24    1    1    2    0    0  0.42465655197E+02  0.10196253572E+02 -0.22509624254E+02  0.94240090178E+02  0.80419002446E+02 0.  0.
        -24    1    1    2    0    0 -0.42465655197E+02 -0.10196253572E+02 -0.11040004646E+03  0.14339693745E+03  0.80419002446E+02 0.  1.
<mgrwt>
<rscale>  0 0.91512357E+02</rscale>
<asrwt>0</asrwt>
<pdfrwt beam="1">  1        1 0.28503592E-01 0.91512357E+02</pdfrwt>
<pdfrwt beam="2">  1       -1 0.80559505E-02 0.91512357E+02</pdfrwt>
<totfact> 0.12457432E+04</totfact>
</mgrwt>
</event>
<event>
 4    1  0.4940461E-001  0.9472167E+02  0.7546771E-02  0.1291804E+00
          2   -1    0    0  501    0  0.00000000000E+00  0.00000000000E+00  0.69346182311E+03  0.69346182311E+03  0.00000000000E+00 0. -1.
         -2   -1    0    0    0  501 -0.00000000000E+00 -0.00000000000E+00 -0.23753541703E+02  0.23753541703E+02  0.00000000000E+00 0.  1.
         24    1    1    2    0    0  0.19455521534E+02 -0.46113580597E+02  0.57683116989E+03  0.58455657908E+03  0.80419002446E+02 0.  1.
        -24    1    1    2    0    0 -0.19455521534E+02  0.46113580597E+02  0.92877111510E+02  0.13265878573E+03  0.80419002446E+02 0. -1.
<mgrwt>
<rscale>  0 0.94721674E+02</rscale>
<asrwt>0</asrwt>
<pdfrwt beam="1">  1        2 0.10668642E+00 0.94721674E+02</pdfrwt>
<pdfrwt beam="2">  1       -2 0.36543916E-02 0.94721674E+02</pdfrwt>
<totfact> 0.12406281E+04</totfact>
</mgrwt>
</event>
<event>
 4    1  0.4940461E-001  0.8981702E+02  0.7546771E-02  0.1303295E+00
          1   -1    0    0  501    0  0.00000000000E+00  0.00000000000E+00  0.66579324936E+03  0.66579324936E+03  0.00000000000E+00 0. -1.
         -1   -1    0    0    0  501 -0.00000000000E+00 -0.00000000000E+00 -0.13485696688E+02  0.13485696688E+02  0.00000000000E+00 0.  1.
         24    1    1    2    0    0 -0.39188248825E+02  0.80101434349E+01  0.21793285717E+03  0.23571556468E+03  0.80419002446E+02 0.  1.
        -24    1    1    2    0    0  0.39188248825E+02 -0.80101434349E+01  0.43437469551E+03  0.44356338137E+03  0.80419002446E+02 0. -1.
<mgrwt>
<rscale>  0 0.89817021E+02</rscale>
<asrwt>0</asrwt>
<pdfrwt beam="1">  1        1 0.10242971E+00 0.89817021E+02</pdfrwt>
<pdfrwt beam="2">  1       -1 0.20747231E-02 0.89817021E+02</pdfrwt>
<totfact> 0.17995074E+04</totfact>
</mgrwt>
</event>
<event>
 4    1  0.4940461E-001  0.9490183E+02  0.7546771E-02  0.1291397E+00
         -1   -1    0    0    0  501 -0.00000000000E+00  0.00000000000E+00  0.18404655608E+02  0.18404655608E+02  0.00000000000E+00 0.  1.
          1   -1    0    0  501    0  0.00000000000E+00 -0.00000000000E+00 -0.58759941715E+03  0.58759941715E+03  0.00000000000E+00 0. -1.
         24    1    1    2    0    0  0.30251307194E+02  0.40298886663E+02 -0.16069914948E+03  0.18662951120E+03  0.80419002446E+02 0. -1.
        -24    1    1    2    0    0 -0.30251307194E+02 -0.40298886663E+02 -0.40849561206E+03  0.41937456156E+03  0.80419002446E+02 0.  0.
<mgrwt>
<rscale>  0 0.94901832E+02</rscale>
<asrwt>0</asrwt>
<pdfrwt beam="1">  1        1 0.90399890E-01 0.94901832E+02</pdfrwt>
<pdfrwt beam="2">  1       -1 0.28314861E-02 0.94901832E+02</pdfrwt>
<totfact> 0.13719975E+04</totfact>
</mgrwt>
</event>
<event>
 4    1  0.4940461E-001  0.8174623E+02  0.7546771E-02  0.1324168E+00
         -2   -1    0    0    0  501 -0.00000000000E+00  0.00000000000E+00  0.36307477445E+01  0.36307477445E+01  0.00000000000E+00 0.  1.
          2   -1    0    0  501    0  0.00000000000E+00 -0.00000000000E+00 -0.18417324025E+04  0.18417324025E+04  0.00000000000E+00 0. -1.
         24    1    1    2    0    0 -0.39700592158E+01  0.14123220210E+02 -0.89532050913E+03  0.89904463557E+03  0.80419002446E+02 0.  0.
        -24    1    1    2    0    0  0.39700592158E+01 -0.14123220210E+02 -0.94278114558E+03  0.94631851463E+03  0.80419002446E+02 0.  0.
<mgrwt>
<rscale>  0 0.81746219E+02</rscale>
<asrwt>0</asrwt>
<pdfrwt beam="1">  1        2 0.28334435E+00 0.81746229E+02</pdfrwt>
<pdfrwt beam="2">  1       -2 0.55857479E-03 0.81746229E+02</pdfrwt>
<totfact> 0.41002050E+04</totfact>
</mgrwt>
</event>
<event>
 4    1  0.4940461E-001  0.1544516E+03  0.7546771E-02  0.1195107E+00
         -1   -1    0    0    0  501 -0.00000000000E+00  0.00000000000E+00  0.30001825707E+03  0.30001825707E+03  0.00000000000E+00 0.  1.
          1   -1    0    0  501    0  0.00000000000E+00 -0.00000000000E+00 -0.81040933757E+02  0.81040933757E+02  0.00000000000E+00 0. -1.
         24    1    1    2    0    0  0.94094968892E+02  0.92380790828E+02  0.83325400625E+02  0.17549476354E+03  0.80419002446E+02 0. -1.
        -24    1    1    2    0    0 -0.94094968892E+02 -0.92380790828E+02  0.13565192269E+03  0.20556442729E+03  0.80419002446E+02 0.  1.
<mgrwt>
<rscale>  0 0.15445160E+03</rscale>
<asrwt>0</asrwt>
<pdfrwt beam="1">  1        1 0.12467836E-01 0.15445162E+03</pdfrwt>
<pdfrwt beam="2">  1       -1 0.46156654E-01 0.15445162E+03</pdfrwt>
<totfact> 0.22166096E+03</totfact>
</mgrwt>
</event>
<event>
 4    1  0.4940461E-001  0.9076325E+02  0.7546771E-02  0.1301014E+00
          2   -1    0    0  501    0  0.00000000000E+00  0.00000000000E+00  0.70151304893E+02  0.70151304893E+02  0.00000000000E+00 0. -1.
         -2   -1    0    0    0  501 -0.00000000000E+00 -0.00000000000E+00 -0.11819229735E+03  0.11819229735E+03  0.00000000000E+00 0.  1.
         24    1    1    2    0    0 -0.21701447810E+02 -0.36052719230E+02 -0.16464641647E+02  0.92244521680E+02  0.80419002446E+02 0.  1.
        -24    1    1    2    0    0  0.21701447810E+02  0.36052719230E+02 -0.31576350814E+02  0.96099080568E+02  0.80419002446E+02 0. -1.
<mgrwt>
<rscale>  0 0.90763249E+02</rscale>
<asrwt>0</asrwt>
<pdfrwt beam="1">  1        2 0.10792509E-01 0.90763249E+02</pdfrwt>
<pdfrwt beam="2">  1       -2 0.18183430E-01 0.90763249E+02</pdfrwt>
<totfact> 0.12933454E+04</totfact>
</mgrwt>
</event>
<event>
 4    1  0.4940461E-001  0.9247326E+02  0.7546771E-02  0.1296970E+00
          1   -1    0    0  501    0  0.00000000000E+00  0.00000000000E+00  0.28986795690E+03  0.28986795690E+03  0.00000000000E+00 0. -1.
         -1   -1    0    0    0  501 -0.00000000000E+00 -0.00000000000E+00 -0.57845167383E+02  0.57845167383E+02  0.00000000000E+00 0.  1.
         24    1    1    2    0    0  0.36142898915E+02 -0.27888699769E+02 -0.56889406661E+01  0.92648090736E+02  0.80419002446E+02 0.  1.
        -24    1    1    2    0    0 -0.36142898915E+02  0.27888699769E+02  0.23771173018E+03  0.25506503354E+03  0.80419002446E+02 0. -1.
<mgrwt>
<rscale>  0 0.92473265E+02</rscale>
<asrwt>0</asrwt>
<pdfrwt beam="1">  1        1 0.44595070E-01 0.92473265E+02</pdfrwt>
<pdfrwt beam="2">  1       -1 0.88992567E-02 0.92473265E+02</pdfrwt>
<totfact> 0.62125785E+03</totfact>
</mgrwt>
</event>
<event>
 4    1  0.4940461E-001  0.1102280E+03  0.7546771E-02  0.1260148E+00
         -2   -1    0    0    0  501 -0.00000000000E+00  0.00000000000E+00  0.18013581810E+03  0.18013581810E+03  0.00000000000E+00 0.  1.
          2   -1    0    0  501    0  0.00000000000E+00 -0.00000000000E+00 -0.81028156483E+02  0.81028156483E+02  0.00000000000E+00 0. -1.
         24    1    1    2    0    0 -0.59392824349E+02  0.46427162303E+02 -0.39003640442E+01  0.11029695271E+03  0.80419002446E+02 0.  1.
        -24    1    1    2    0    0  0.59392824349E+02 -0.46427162303E+02  0.10300802567E+03  0.15086702188E+03  0.80419002446E+02 0.  0.
<mgrwt>
<rscale>  0 0.11022797E+03</rscale>
<asrwt>0</asrwt>
<pdfrwt beam="1">  1        2 0.12465870E-01 0.11022797E+03</pdfrwt>
<pdfrwt beam="2">  1       -2 0.27713203E-01 0.11022797E+03</pdfrwt>
<totfact> 0.53923637E+03</totfact>
</mgrwt>
</event>
<event>
 4    1  0.4940461E-001  0.8238910E+02  0.7546771E-02  0.1322405E+00
         -1   -1    0    0    0  501 -0.00000000000E+00  0.00000000000E+00  0.98378506457E+02  0.98378506457E+02  0.00000000000E+00 0.  1.
          1   -1    0    0  501    0  0.00000000000E+00 -0.00000000000E+00 -0.73387196361E+02  0.73387196361E+02  0.00000000000E+00 0. -1.
         24    1    1    2    0    0 -0.13844806743E+02  0.11360710905E+02 -0.85067291714E+01  0.82827077828E+02  0.80419002446E+02 0.  1.
        -24    1    1    2    0    0  0.13844806743E+02 -0.11360710905E+02  0.33498039267E+02  0.88938624990E+02  0.80419002446E+02 0.  0.
<mgrwt>
<rscale>  0 0.82389090E+02</rscale>
<asrwt>0</asrwt>
<pdfrwt beam="1">  1        1 0.11290338E-01 0.82389100E+02</pdfrwt>
<pdfrwt beam="2">  1       -1 0.15135155E-01 0.82389100E+02</pdfrwt>
<totfact> 0.15237539E+04</totfact>
</mgrwt>
</event>
<event>
 4    1  0.4940461E-001  0.1628934E+03  0.7546771E-02  0.1185468E+00
         -2   -1    0    0    0  501 -0.00000000000E+00  0.00000000000E+00  0.21674281835E+02  0.21674281835E+02  0.00000000000E+00 0.  1.
          2   -1    0    0  501    0  0.00000000000E+00 -0.00000000000E+00 -0.21217655249E+04  0.21217655249E+04  0.00000000000E+00 0. -1.
         24    1    1    2    0    0  0.55565908194E+02  0.13030525990E+03 -0.17470878447E+04  0.17546652627E+04  0.80419002446E+02 0. -1.
        -24    1    1    2    0    0 -0.55565908194E+02 -0.13030525990E+03 -0.35300339830E+03  0.38877454402E+03  0.80419002446E+02 0.  1.
<mgrwt>
<rscale>  0 0.16289336E+03</rscale>
<asrwt>0</asrwt>
<pdfrwt beam="1">  1        2 0.32642552E+00 0.16289336E+03</pdfrwt>
<pdfrwt beam="2">  1       -2 0.33345043E-02 0.16289336E+03</pdfrwt>
<totfact> 0.23307315E+03</totfact>
</mgrwt>
</event>
<event>
 4    1  0.4940461E-001  0.8051569E+02  0.7546771E-02  0.1327594E+00
          2   -1    0    0  501    0  0.00000000000E+00  0.00000000000E+00  0.20737816545E+03  0.20737816545E+03  0.00000000000E+00 0. -1.
         -2   -1    0    0    0  501 -0.00000000000E+00 -0.00000000000E+00 -0.45812818085E+02  0.45812818085E+02  0.00000000000E+00 0.  1.
         24    1    1    2    0    0  0.14581412904E+01  0.36652313891E+01  0.15213179053E+03  0.17212454137E+03  0.80419002446E+02 0.  0.
        -24    1    1    2    0    0 -0.14581412904E+01 -0.36652313891E+01  0.94335568380E+01  0.81066442170E+02  0.80419002446E+02 0.  1.
<mgrwt>
<rscale>  0 0.80515688E+02</rscale>
<asrwt>0</asrwt>
<pdfrwt beam="1">  1        2 0.31904333E-01 0.80515688E+02</pdfrwt>
<pdfrwt beam="2">  1       -2 0.70481260E-02 0.80515688E+02</pdfrwt>
<totfact> 0.16736755E+04</totfact>
</mgrwt>
</event>
<event>
 4    1  0.4940461E-001  0.1018576E+03  0.7546771E-02  0.1276437E+00
         -1   -1    0    0    0  501 -0.00000000000E+00  0.00000000000E+00  0.37336948732E+03  0.37336948732E+03  0.00000000000E+00 0.  1.
          1   -1    0    0  501    0  0.00000000000E+00 -0.00000000000E+00 -0.28705306952E+02  0.28705306952E+02  0.00000000000E+00 0. -1.
         24    1    1    2    0    0  0.22255132072E+01 -0.62472468355E+02  0.20828120450E+03  0.23185348458E+03  0.80419002446E+02 0. -1.
        -24    1    1    2    0    0 -0.22255132072E+01  0.62472468355E+02  0.13638297588E+03  0.17022130970E+03  0.80419002446E+02 0.  0.
<mgrwt>
<rscale>  0 0.10185764E+03</rscale>
<asrwt>0</asrwt>
<pdfrwt beam="1">  1        1 0.44162014E-02 0.10185764E+03</pdfrwt>
<pdfrwt beam="2">  1       -1 0.57441456E-01 0.10185764E+03</pdfrwt>
<totfact> 0.58193976E+03</totfact>
</mgrwt>
</event>
<event>
 4    1  0.4940461E-001  0.1297094E+03  0.7546771E-02  0.1227888E+00
         -1   -1    0    0    0  501 -0.00000000000E+00  0.00000000000E+00  0.18670906368E+03  0.18670906368E+03  0.00000000000E+00 0.  1.
          1   -1    0    0  501    0  0.00000000000E+00 -0.00000000000E+00 -0.23483153953E+03  0.23483153953E+03  0.00000000000E+00 0. -1.
         24    1    1    2    0    0 -0.99039340127E+02 -0.23420750505E+02  0.14140001445E+03  0.19188148031E+03  0.80419002446E+02 0.  1.
        -24    1    1    2    0    0  0.99039340127E+02  0.23420750505E+02 -0.18952249029E+03  0.22965912289E+03  0.80419002446E+02 0. -1.
<mgrwt>
<rscale>  0 0.12970944E+03</rscale>
<asrwt>0</asrwt>
<pdfrwt beam="1">  1        1 0.36127929E-01 0.12970944E+03</pdfrwt>
<pdfrwt beam="2">  1       -1 0.28724471E-01 0.12970944E+03</pdfrwt>
<totfact> 0.12964061E+03</totfact>
</mgrwt>
</event>
<event>
 4    1  0.4940461E-001  0.8309017E+02  0.7546771E-02  0.1320504E+00
         -1   -1    0    0    0  501 -0.00000000000E+00  0.00000000000E+00  0.44288933473E+01  0.44288933473E+01  0.00000000000E+00 0.  1.
          1   -1    0    0  501    0  0.00000000000E+00 -0.00000000000E+00 -0.16049037663E+04  0.16049037663E+04  0.00000000000E+00 0. -1.
         24    1    1    2    0    0 -0.20849882119E+02  0.14283469836E+01 -0.93654847281E+03  0.94022710854E+03  0.80419002446E+02 0.  0.
        -24    1    1    2    0    0  0.20849882119E+02 -0.14283469836E+01 -0.66392640014E+03  0.66910555110E+03  0.80419002446E+02 0.  0.
<mgrwt>
<rscale>  0 0.83090165E+02</rscale>
<asrwt>0</asrwt>
<pdfrwt beam="1">  1        1 0.24690799E+00 0.83090175E+02</pdfrwt>
<pdfrwt beam="2">  1       -1 0.68136898E-03 0.83090175E+02</pdfrwt>
<totfact> 0.18612306E+04</totfact>
</mgrwt>
</event>
<event>
 4    1  0.4940461E-001  0.1062159E+03  0.7546771E-02  0.1267742E+00
         -1   -1    0    0    0  501 -0.00000000000E+00  0.00000000000E+00  0.35903915259E+03  0.35903915259E+03  0.00000000000E+00 0.  1.
          1   -1    0    0  501    0  0.00000000000E+00 -0.00000000000E+00 -0.31547884541E+02  0.31547884541E+02  0.00000000000E+00 0. -1.
         24    1    1    2    0    0 -0.26557239794E+02 -0.64103979829E+02  0.17606908694E+03  0.20562623019E+03  0.80419002446E+02 0.  1.
        -24    1    1    2    0    0  0.26557239794E+02  0.64103979829E+02  0.15142218112E+03  0.18496080694E+03  0.80419002446E+02 0. -1.
<mgrwt>
<rscale>  0 0.10621593E+03</rscale>
<asrwt>0</asrwt>
<pdfrwt beam="1">  1        1 0.48535209E-02 0.10621593E+03</pdfrwt>
<pdfrwt beam="2">  1       -1 0.55236790E-01 0.10621593E+03</pdfrwt>
<totfact> 0.55232082E+03</totfact>
</mgrwt>
</event>
<event>
 4    1  0.4940461E-001  0.9418804E+02  0.7546771E-02  0.1293015E+00
          2   -1    0    0  501    0  0.00000000000E+00  0.00000000000E+00  0.73355964443E+03  0.73355964443E+03  0.00000000000E+00 0. -1.
         -2   -1    0    0    0  501 -0.00000000000E+00 -0.00000000000E+00 -0.33421825299E+02  0.33421825299E+02  0.00000000000E+00 0.  1.
         24    1    1    2    0    0  0.11553376224E+01  0.49018738478E+02  0.65641829025E+03  0.66314128153E+03  0.80419002446E+02 0. -1.
        -24    1    1    2    0    0 -0.11553376224E+01 -0.49018738478E+02  0.43719528879E+02  0.10384018821E+03  0.80419002446E+02 0.  1.
<mgrwt>
<rscale>  0 0.94188043E+02</rscale>
<asrwt>0</asrwt>
<pdfrwt beam="1">  1        2 0.11285532E+00 0.94188043E+02</pdfrwt>
<pdfrwt beam="2">  1       -2 0.51418198E-02 0.94188043E+02</pdfrwt>
<totfact> 0.70094045E+03</totfact>
</mgrwt>
</event>
<event>
 4    1  0.4940461E-001  0.8067224E+02  0.7546771E-02  0.1327154E+00
          1   -1    0    0  501    0  0.00000000000E+00  0.00000000000E+00  0.11379058817E+03  0.11379058817E+03  0.00000000000E+00 0. -1.
         -1   -1    0    0    0  501 -0.00000000000E+00 -0.00000000000E+00 -0.26883388660E+03  0.26883388660E+03  0.00000000000E+00 0.  1.
         24    1    1    2    0    0 -0.61380792958E+01  0.17660880076E+01 -0.24726808278E+03  0.26009520526E+03  0.80419002446E+02 0.  1.
        -24    1    1    2    0    0  0.61380792958E+01 -0.17660880076E+01  0.92224784349E+02  0.12252926951E+03  0.80419002446E+02 0.  0.
<mgrwt>
<rscale>  0 0.80672245E+02</rscale>
<asrwt>0</asrwt>
<pdfrwt beam="1">  1        1 0.17506244E-01 0.80672245E+02</pdfrwt>
<pdfrwt beam="2">  1       -1 0.41359059E-01 0.80672245E+02</pdfrwt>
<totfact> 0.16898409E+03</totfact>
</mgrwt>
</event>
<event>
 4    1  0.4940461E-001  0.9800690E+02  0.7546771E-02  0.1284544E+00
         -1   -1    0    0    0  501 -0.00000000000E+00  0.00000000000E+00  0.21345892778E+04  0.21345892778E+04  0.00000000000E+00 0.  1.
          1   -1    0    0  501    0  0.00000000000E+00 -0.00000000000E+00 -0.46914591112E+01  0.46914591112E+01  0.00000000000E+00 0. -1.
         24    1    1    2    0    0  0.46192856024E+02  0.31691599693E+02  0.12811113845E+04  0.12848547516E+04  0.80419002446E+02 0.  0.
        -24    1    1    2    0    0 -0.46192856024E+02 -0.31691599693E+02  0.84878643424E+03  0.85442598529E+03  0.80419002446E+02 0.  1.
<mgrwt>
<rscale>  0 0.98006905E+02</rscale>
<asrwt>0</asrwt>
<pdfrwt beam="1">  1        1 0.72176464E-03 0.98006905E+02</pdfrwt>
<pdfrwt beam="2">  1       -1 0.32839758E+00 0.98006905E+02</pdfrwt>
<totfact> 0.64769845E+02</totfact>
</mgrwt>
</event>
<event>
 4    1  0.4940461E-001  0.1367844E+03  0.7546771E-02  0.1217722E+00
         -2   -1    0    0    0  501 -0.00000000000E+00  0.00000000000E+00  0.90939500901E+02  0.90939500901E+02  0.00000000000E+00 0.  1.
          2   -1    0    0  501    0  0.00000000000E+00 -0.00000000000E+00 -0.39499390222E+03  0.39499390222E+03  0.00000000000E+00 0. -1.
         24    1    1    2    0    0 -0.35439354077E+02  0.10481797947E+03 -0.32020667027E+03  0.34819862762E+03  0.80419002446E+02 0. -1.
        -24    1    1    2    0    0  0.35439354077E+02 -0.10481797947E+03  0.16152268943E+02  0.13773477551E+03  0.80419002446E+02 0.  1.
<mgrwt>
<rscale>  0 0.13678440E+03</rscale>
<asrwt>0</asrwt>
<pdfrwt beam="1">  1        2 0.60768292E-01 0.13678440E+03</pdfrwt>
<pdfrwt beam="2">  1       -2 0.13990693E-01 0.13678440E+03</pdfrwt>
<totfact> 0.30217939E+03</totfact>
</mgrwt>
</event>
<event>
 4    1  0.4940461E-001  0.8332065E+02  0.7546771E-02  0.1319884E+00
          3   -1    0    0  501    0  0.00000000000E+00  0.00000000000E+00  0.50469113240E+03  0.50469113240E+03  0.00000000000E+00 0. -1.
         -3   -1    0    0    0  501 -0.00000000000E+00 -0.00000000000E+00 -0.28903508817E+02  0.28903508817E+02  0.00000000000E+00 0.  1.
         24    1    1    2    0    0  0.28181982227E+01 -0.21614176747E+02  0.44749252774E+02  0.94577092659E+02  0.80419002446E+02 0.  1.
        -24    1    1    2    0    0 -0.28181982227E+01  0.21614176747E+02  0.43103837081E+03  0.43901754856E+03  0.80419002446E+02 0. -1.
<mgrwt>
<rscale>  0 0.83320651E+02</rscale>
<asrwt>0</asrwt>
<pdfrwt beam="1">  1        3 0.77644783E-01 0.83320651E+02</pdfrwt>
<pdfrwt beam="2">  1       -3 0.44466940E-02 0.83320651E+02</pdfrwt>
<totfact> 0.92722787E+02</totfact>
</mgrwt>
</event>
<event>
 4    1  0.4940461E-001  0.8239142E+02  0.7546771E-02  0.1322399E+00
          2   -1    0    0  501    0  0.00000000000E+00  0.00000000000E+00  0.25598928197E+03  0.25598928197E+03  0.00000000000E+00 0. -1.
         -2   -1    0    0    0  501 -0.00000000000E+00 -0.00000000000E+00 -0.36846255281E+02  0.36846255281E+02  0.00000000000E+00 0.  1.
         24    1    1    2    0    0  0.27003083987E+01  0.17715497910E+02  0.18709061347E+03  0.20442906871E+03  0.80419002446E+02 0. -1.
        -24    1    1    2    0    0 -0.27003083987E+01 -0.17715497910E+02  0.32052413217E+02  0.88406468536E+02  0.80419002446E+02 0.  1.
<mgrwt>
<rscale>  0 0.82391422E+02</rscale>
<asrwt>0</asrwt>
<pdfrwt beam="1">  1        2 0.39382965E-01 0.82391422E+02</pdfrwt>
<pdfrwt beam="2">  1       -2 0.56686548E-02 0.82391422E+02</pdfrwt>
<totfact> 0.18638694E+04</totfact>
</mgrwt>
</event>
<event>
 4    1  0.4940461E-001  0.9083920E+02  0.7546771E-02  0.1300832E+00
          3   -1    0    0  501    0  0.00000000000E+00  0.00000000000E+00  0.10728672938E+03  0.10728672938E+03  0.00000000000E+00 0. -1.
         -3   -1    0    0    0  501 -0.00000000000E+00 -0.00000000000E+00 -0.12515923113E+03  0.12515923113E+03  0.00000000000E+00 0.  1.
         24    1    1    2    0    0 -0.31843530728E+02 -0.27758428015E+02  0.63222953491E+02  0.11067474228E+03  0.80419002446E+02 0.  0.
        -24    1    1    2    0    0  0.31843530728E+02  0.27758428015E+02 -0.81095455245E+02  0.12177121824E+03  0.80419002446E+02 0.  1.
<mgrwt>
<rscale>  0 0.90839192E+02</rscale>
<asrwt>0</asrwt>
<pdfrwt beam="1">  1        3 0.16505651E-01 0.90839203E+02</pdfrwt>
<pdfrwt beam="2">  1       -3 0.19255266E-01 0.90839203E+02</pdfrwt>
<totfact> 0.16100938E+03</totfact>
</mgrwt>
</event>
<event>
 4    1  0.4940461E-001  0.8717974E+02  0.7546771E-02  0.1309829E+00
         -1   -1    0    0    0  501 -0.00000000000E+00  0.00000000000E+00  0.23157395615E+04  0.23157395615E+04  0.00000000000E+00 0.  1.
          1   -1    0    0  501    0  0.00000000000E+00 -0.00000000000E+00 -0.11999160543E+02  0.11999160543E+02  0.00000000000E+00 0. -1.
         24    1    1    2    0    0  0.32755359997E+02 -0.77573959104E+01  0.21438796134E+04  0.21456514404E+04  0.80419002446E+02 0.  1.
        -24    1    1    2    0    0 -0.32755359997E+02  0.77573959104E+01  0.15986078757E+03  0.18208728170E+03  0.80419002446E+02 0. -1.
<mgrwt>
<rscale>  0 0.87179738E+02</rscale>
<asrwt>0</asrwt>
<pdfrwt beam="1">  1        1 0.18460265E-02 0.87179738E+02</pdfrwt>
<pdfrwt beam="2">  1       -1 0.35626727E+00 0.87179738E+02</pdfrwt>
<totfact> 0.11831182E+02</totfact>
</mgrwt>
</event>
<event>
 4    1  0.4940461E-001  0.8306432E+02  0.7546771E-02  0.1320574E+00
          1   -1    0    0  501    0  0.00000000000E+00  0.00000000000E+00  0.12225065753E+03  0.12225065753E+03  0.00000000000E+00 0. -1.
         -1   -1    0    0    0  501 -0.00000000000E+00 -0.00000000000E+00 -0.18331927794E+03  0.18331927794E+03  0.00000000000E+00 0.  1.
         24    1    1    2    0    0 -0.20206322923E+02 -0.49163526997E+01 -0.15764261860E+03  0.17818775818E+03  0.80419002446E+02 0.  1.
        -24    1    1    2    0    0  0.20206322923E+02  0.49163526997E+01  0.96573998189E+02  0.12738217729E+03  0.80419002446E+02 0. -1.
<mgrwt>
<rscale>  0 0.83064324E+02</rscale>
<asrwt>0</asrwt>
<pdfrwt beam="1">  1        1 0.18807793E-01 0.83064324E+02</pdfrwt>
<pdfrwt beam="2">  1       -1 0.28202966E-01 0.83064324E+02</pdfrwt>
<totfact> 0.29515958E+03</totfact>
</mgrwt>
</event>
<event>
 4    1  0.4940461E-001  0.9869837E+02  0.7546771E-02  0.1283057E+00
          1   -1    0    0  501    0  0.00000000000E+00  0.00000000000E+00  0.76069321907E+03  0.76069321907E+03  0.00000000000E+00 0. -1.
         -1   -1    0    0    0  501 -0.00000000000E+00 -0.00000000000E+00 -0.13657649707E+02  0.13657649707E+02  0.00000000000E+00 0.  1.
         24    1    1    2    0    0 -0.30972095289E+02  0.48113218655E+02  0.27682959976E+03  0.29389793424E+03  0.80419002446E+02 0.  1.
        -24    1    1    2    0    0  0.30972095289E+02 -0.48113218655E+02  0.47020596961E+03  0.48045293454E+03  0.80419002446E+02 0. -1.
<mgrwt>
<rscale>  0 0.98698371E+02</rscale>
<asrwt>0</asrwt>
<pdfrwt beam="1">  1        1 0.11702969E+00 0.98698371E+02</pdfrwt>
<pdfrwt beam="2">  1       -1 0.21011775E-02 0.98698371E+02</pdfrwt>
<totfact> 0.14752224E+04</totfact>
</mgrwt>
</event>
<event>
 4    1  0.4940461E-001  0.9408152E+02  0.7546771E-02  0.1293258E+00
         -1   -1    0    0    0  501 -0.00000000000E+00  0.00000000000E+00  0.10161199840E+02  0.10161199840E+02  0.00000000000E+00 0.  1.
          1   -1    0    0  501    0  0.00000000000E+00 -0.00000000000E+00 -0.90766050904E+03  0.90766050904E+03  0.00000000000E+00 0. -1.
         24    1    1    2    0    0 -0.28698689806E+02  0.39503182225E+02 -0.35663584234E+03  0.36883662535E+03  0.80419002446E+02 0.  1.
        -24    1    1    2    0    0  0.28698689806E+02 -0.39503182225E+02 -0.54086346685E+03  0.54898508353E+03  0.80419002446E+02 0. -1.
<mgrwt>
<rscale>  0 0.94081519E+02</rscale>
<asrwt>0</asrwt>
<pdfrwt beam="1">  1        1 0.13964014E+00 0.94081519E+02</pdfrwt>
<pdfrwt beam="2">  1       -1 0.15632608E-02 0.94081519E+02</pdfrwt>
<totfact> 0.17150061E+04</totfact>
</mgrwt>
</event>
<event>
 4    1  0.4940461E-001  0.8482500E+02  0.7546771E-02  0.1315891E+00
          1   -1    0    0  501    0  0.00000000000E+00  0.00000000000E+00  0.40915952239E+03  0.40915952239E+03  0.00000000000E+00 0. -1.
         -1   -1    0    0    0  501 -0.00000000000E+00 -0.00000000000E+00 -0.35777893179E+02  0.35777893179E+02  0.00000000000E+00 0.  1.
         24    1    1    2    0    0 -0.16337409539E+02 -0.21474478017E+02  0.28053148465E+02  0.89343490248E+02  0.80419002446E+02 0.  1.
        -24    1    1    2    0    0  0.16337409539E+02  0.21474478017E+02  0.34532848074E+03  0.35559392532E+03  0.80419002446E+02 0. -1.
<mgrwt>
<rscale>  0 0.84824997E+02</rscale>
<asrwt>0</asrwt>
<pdfrwt beam="1">  1        1 0.62947615E-01 0.84824997E+02</pdfrwt>
<pdfrwt beam="2">  1       -1 0.55042916E-02 0.84824997E+02</pdfrwt>
<totfact> 0.82361971E+03</totfact>
</mgrwt>
</event>
<event>
 4    1  0.4940461E-001  0.1175696E+03  0.7546771E-02  0.1247161E+00
         -1   -1    0    0    0  501 -0.00000000000E+00  0.00000000000E+00  0.41085917137E+02  0.41085917137E+02  0.00000000000E+00 0.  1.
          1   -1    0    0  501    0  0.00000000000E+00 -0.00000000000E+00 -0.65329962258E+03  0.65329962258E+03  0.00000000000E+00 0. -1.
         24    1    1    2    0    0 -0.80673627990E+02 -0.29105884680E+02 -0.64308329418E+02  0.13400807425E+03  0.80419002446E+02 0.  1.
        -24    1    1    2    0    0  0.80673627990E+02  0.29105884680E+02 -0.54790537603E+03  0.56037746547E+03  0.80419002446E+02 0. -1.
<mgrwt>
<rscale>  0 0.11756957E+03</rscale>
<asrwt>0</asrwt>
<pdfrwt beam="1">  1        1 0.10050762E+00 0.11756957E+03</pdfrwt>
<pdfrwt beam="2">  1       -1 0.63209109E-02 0.11756957E+03</pdfrwt>
<totfact> 0.37228609E+03</totfact>
</mgrwt>
</event>
<event>
 4    1  0.4940461E-001  0.9982461E+02  0.7546771E-02  0.1280665E+00
         -2   -1    0    0    0  501 -0.00000000000E+00  0.00000000000E+00  0.51488249977E+01  0.51488249977E+01  0.00000000000E+00 0.  1.
          2   -1    0    0  501    0  0.00000000000E+00 -0.00000000000E+00 -0.19358772138E+04  0.19358772138E+04  0.00000000000E+00 0. -1.
         24    1    1    2    0    0  0.56752948806E+02 -0.16638483429E+02 -0.98085898639E+03  0.98592560747E+03  0.80419002446E+02 0.  0.
        -24    1    1    2    0    0 -0.56752948806E+02  0.16638483429E+02 -0.94986940243E+03  0.95510043134E+03  0.80419002446E+02 0.  1.
<mgrwt>
<rscale>  0 0.99824608E+02</rscale>
<asrwt>0</asrwt>
<pdfrwt beam="1">  1        2 0.29782744E+00 0.99824608E+02</pdfrwt>
<pdfrwt beam="2">  1       -2 0.79212645E-03 0.99824608E+02</pdfrwt>
<totfact> 0.22839885E+04</totfact>
</mgrwt>
</event>
<event>
 4    1  0.4940461E-001  0.8562836E+02  0.7546771E-02  0.1313797E+00
         -2   -1    0    0    0  501 -0.00000000000E+00  0.00000000000E+00  0.22994584180E+01  0.22994584180E+01  0.00000000000E+00 0.  1.
          2   -1    0    0  501    0  0.00000000000E+00 -0.00000000000E+00 -0.34343961679E+04  0.34343961679E+04  0.00000000000E+00 0. -1.
         24    1    1    2    0    0  0.28515348833E+02 -0.72023712998E+01 -0.21756812895E+04  0.21773656764E+04  0.80419002446E+02 0.  1.
        -24    1    1    2    0    0 -0.28515348833E+02  0.72023712998E+01 -0.12564154200E+04  0.12593299499E+04  0.80419002446E+02 0.  0.
<mgrwt>
<rscale>  0 0.85628355E+02</rscale>
<asrwt>0</asrwt>
<pdfrwt beam="1">  1        2 0.52836885E+00 0.85628355E+02</pdfrwt>
<pdfrwt beam="2">  1       -2 0.35376269E-03 0.85628355E+02</pdfrwt>
<totfact> 0.10635272E+04</totfact>
</mgrwt>
</event>
<event>
 4    1  0.4940461E-001  0.8257725E+02  0.7546771E-02  0.1321893E+00
         -1   -1    0    0    0  501 -0.00000000000E+00  0.00000000000E+00  0.38003864089E+02  0.38003864089E+02  0.00000000000E+00 0.  1.
          1   -1    0    0  501    0  0.00000000000E+00 -0.00000000000E+00 -0.19159177301E+03  0.19159177301E+03  0.00000000000E+00 0. -1.
         24    1    1    2    0    0 -0.19834308039E+01  0.18650809951E+02 -0.47869973795E+02  0.95449133338E+02  0.80419002446E+02 0.  1.
        -24    1    1    2    0    0  0.19834308039E+01 -0.18650809951E+02 -0.10571793513E+03  0.13414650377E+03  0.80419002446E+02 0. -1.
<mgrwt>
<rscale>  0 0.82577253E+02</rscale>
<asrwt>0</asrwt>
<pdfrwt beam="1">  1        1 0.29475658E-01 0.82577253E+02</pdfrwt>
<pdfrwt beam="2">  1       -1 0.58467482E-02 0.82577253E+02</pdfrwt>
<totfact> 0.19006117E+04</totfact>
</mgrwt>
</event>
<event>
 4    1  0.4940461E-001  0.8069823E+02  0.7546771E-02  0.1327082E+00
         -2   -1    0    0    0  501 -0.00000000000E+00  0.00000000000E+00  0.72578634925E+02  0.72578634925E+02  0.00000000000E+00 0.  1.
          2   -1    0    0  501    0  0.00000000000E+00 -0.00000000000E+00 -0.16527210999E+03  0.16527210999E+03  0.00000000000E+00 0. -1.
         24    1    1    2    0    0  0.64279538083E+01  0.19157587506E+01 -0.12675121431E+03  0.15026002464E+03  0.80419002446E+02 0.  0.
        -24    1    1    2    0    0 -0.64279538083E+01 -0.19157587506E+01  0.34057739243E+02  0.87590720276E+02  0.80419002446E+02 0.  1.
<mgrwt>
<rscale>  0 0.80698232E+02</rscale>
<asrwt>0</asrwt>
<pdfrwt beam="1">  1        2 0.25426478E-01 0.80698232E+02</pdfrwt>
<pdfrwt beam="2">  1       -2 0.11165944E-01 0.80698232E+02</pdfrwt>
<totfact> 0.10528297E+04</totfact>
</mgrwt>
</event>
<event>
 4    1  0.4940461E-001  0.1101602E+03  0.7546771E-02  0.1260274E+00
          2   -1    0    0  501    0  0.00000000000E+00  0.00000000000E+00  0.47408660189E+02  0.47408660189E+02  0.00000000000E+00 0. -1.
         -2   -1    0    0    0  501 -0.00000000000E+00 -0.00000000000E+00 -0.29882179570E+03  0.29882179570E+03  0.00000000000E+00 0.  1.
         24    1    1    2    0    0  0.66826259907E+02  0.34674207486E+02 -0.60151529911E+02  0.12551283673E+03  0.80419002446E+02 0. -1.
        -24    1    1    2    0    0 -0.66826259907E+02 -0.34674207486E+02 -0.19126160560E+03  0.22071761917E+03  0.80419002446E+02 0.  1.
<mgrwt>
<rscale>  0 0.11016018E+03</rscale>
<asrwt>0</asrwt>
<pdfrwt beam="1">  1        2 0.72936401E-02 0.11016018E+03</pdfrwt>
<pdfrwt beam="2">  1       -2 0.45972584E-01 0.11016018E+03</pdfrwt>
<totfact> 0.40820935E+03</totfact>
</mgrwt>
</event>
<event>
 4    1  0.4940461E-001  0.1493151E+03  0.7546771E-02  0.1201317E+00
         -4   -1    0    0    0  501 -0.00000000000E+00  0.00000000000E+00  0.80210725559E+02  0.80210725559E+02  0.00000000000E+00 0.  1.
          4   -1    0    0  501    0  0.00000000000E+00 -0.00000000000E+00 -0.35718951471E+03  0.35718951471E+03  0.00000000000E+00 0. -1.
         24    1    1    2    0    0  0.12445378667E+03 -0.18413217842E+02 -0.24149376797E+03  0.28392648261E+03  0.80419002446E+02 0. -1.
        -24    1    1    2    0    0 -0.12445378667E+03  0.18413217842E+02 -0.35485021185E+02  0.15347375766E+03  0.80419002446E+02 0.  1.
<mgrwt>
<rscale>  0 0.14931513E+03</rscale>
<asrwt>0</asrwt>
<pdfrwt beam="1">  1        4 0.54952234E-01 0.14931513E+03</pdfrwt>
<pdfrwt beam="2">  1       -4 0.12340112E-01 0.14931513E+03</pdfrwt>
<totfact> 0.28632070E+02</totfact>
</mgrwt>
</event>
<event>
 4    1  0.4940461E-001  0.8383417E+02  0.7546771E-02  0.1318510E+00
          2   -1    0    0  501    0  0.00000000000E+00  0.00000000000E+00  0.51764831833E+03  0.51764831833E+03  0.00000000000E+00 0. -1.
         -2   -1    0    0    0  501 -0.00000000000E+00 -0.00000000000E+00 -0.18500053310E+02  0.18500053310E+02  0.00000000000E+00 0.  1.
         24    1    1    2    0    0 -0.81865302981E+01 -0.22224607354E+02  0.38786098827E+03  0.39681773477E+03  0.80419002446E+02 0. -1.
        -24    1    1    2    0    0  0.81865302981E+01  0.22224607354E+02  0.11128727675E+03  0.13933063687E+03  0.80419002446E+02 0.  0.
<mgrwt>
<rscale>  0 0.83834172E+02</rscale>
<asrwt>0</asrwt>
<pdfrwt beam="1">  1        2 0.79638192E-01 0.83834172E+02</pdfrwt>
<pdfrwt beam="2">  1       -2 0.28461624E-02 0.83834172E+02</pdfrwt>
<totfact> 0.24494299E+04</totfact>
</mgrwt>
</event>
<event>
 4    1  0.4940461E-001  0.1208122E+03  0.7546771E-02  0.1241763E+00
         -2   -1    0    0    0  501 -0.00000000000E+00  0.00000000000E+00  0.95457865357E+01  0.95457865357E+01  0.00000000000E+00 0.  1.
          2   -1    0    0  501    0  0.00000000000E+00 -0.00000000000E+00 -0.15520401890E+04  0.15520401890E+04  0.00000000000E+00 0. -1.
         24    1    1    2    0    0 -0.67003513311E+02  0.60323273791E+02 -0.67613156868E+03  0.68684021598E+03  0.80419002446E+02 0. -1.
        -24    1    1    2    0    0  0.67003513311E+02 -0.60323273791E+02 -0.86636283377E+03  0.87474575955E+03  0.80419002446E+02 0.  0.
<mgrwt>
<rscale>  0 0.12081220E+03</rscale>
<asrwt>0</asrwt>
<pdfrwt beam="1">  1        2 0.23877518E+00 0.12081222E+03</pdfrwt>
<pdfrwt beam="2">  1       -2 0.14685840E-02 0.12081222E+03</pdfrwt>
<totfact> 0.15006628E+04</totfact>
</mgrwt>
</event>
<event>
 4    1  0.4940461E-001  0.8741338E+02  0.7546771E-02  0.1309239E+00
         -1   -1    0    0    0  501 -0.00000000000E+00  0.00000000000E+00  0.11331256820E+03  0.11331256820E+03  0.00000000000E+00 0.  1.
          1   -1    0    0  501    0  0.00000000000E+00 -0.00000000000E+00 -0.93943172805E+02  0.93943172805E+02  0.00000000000E+00 0. -1.
         24    1    1    2    0    0  0.13855104558E+02 -0.31335515927E+02 -0.45363598042E+02  0.98483249654E+02  0.80419002446E+02 0.  0.
        -24    1    1    2    0    0 -0.13855104558E+02  0.31335515927E+02  0.64732993437E+02  0.10877249135E+03  0.80419002446E+02 0.  1.
<mgrwt>
<rscale>  0 0.87413365E+02</rscale>
<asrwt>0</asrwt>
<pdfrwt beam="1">  1        1 0.14452796E-01 0.87413376E+02</pdfrwt>
<pdfrwt beam="2">  1       -1 0.17432703E-01 0.87413376E+02</pdfrwt>
<totfact> 0.89495591E+03</totfact>
</mgrwt>
</event>
<event>
 4    1  0.4940461E-001  0.8274400E+02  0.7546771E-02  0.1321440E+00
          1   -1    0    0  501    0  0.00000000000E+00  0.00000000000E+00  0.15082691258E+03  0.15082691258E+03  0.00000000000E+00 0. -1.
         -1   -1    0    0    0  501 -0.00000000000E+00 -0.00000000000E+00 -0.21802156004E+03  0.21802156004E+03  0.00000000000E+00 0.  1.
         24    1    1    2    0    0 -0.18530991954E+02  0.59963470927E+01 -0.19770311132E+03  0.21432006444E+03  0.80419002446E+02 0.  1.
        -24    1    1    2    0    0  0.18530991954E+02 -0.59963470927E+01  0.13050846386E+03  0.15452840818E+03  0.80419002446E+02 0. -1.
<mgrwt>
<rscale>  0 0.82744002E+02</rscale>
<asrwt>0</asrwt>
<pdfrwt beam="1">  1        1 0.23204141E-01 0.82744002E+02</pdfrwt>
<pdfrwt beam="2">  1       -1 0.33541778E-01 0.82744002E+02</pdfrwt>
<totfact> 0.17015201E+03</totfact>
</mgrwt>
</event>
<event>
 4    1  0.4940461E-001  0.8199169E+02  0.7546771E-02  0.1323492E+00
          1   -1    0    0  501    0  0.00000000000E+00  0.00000000000E+00  0.49205549963E+03  0.49205549963E+03  0.00000000000E+00 0. -1.
         -1   -1    0    0    0  501 -0.00000000000E+00 -0.00000000000E+00 -0.15477062669E+02  0.15477062669E+02  0.00000000000E+00 0.  1.
         24    1    1    2    0    0 -0.15981330228E+02  0.13261277264E+00  0.15139455738E+03  0.17217127653E+03  0.80419002446E+02 0.  1.
        -24    1    1    2    0    0  0.15981330228E+02 -0.13261277264E+00  0.32518387958E+03  0.33536128578E+03  0.80419002446E+02 0. -1.
<mgrwt>
<rscale>  0 0.81991685E+02</rscale>
<asrwt>0</asrwt>
<pdfrwt beam="1">  1        1 0.75700834E-01 0.81991685E+02</pdfrwt>
<pdfrwt beam="2">  1       -1 0.23810869E-02 0.81991685E+02</pdfrwt>
<totfact> 0.21852728E+04</totfact>
</mgrwt>
</event>
<event>
 4    1  0.4940461E-001  0.8042177E+02  0.7546771E-02  0.1327859E+00
          3   -1    0    0  501    0  0.00000000000E+00  0.00000000000E+00  0.16450497053E+03  0.16450497053E+03  0.00000000000E+00 0. -1.
         -3   -1    0    0    0  501 -0.00000000000E+00 -0.00000000000E+00 -0.50296604711E+02  0.50296604711E+02  0.00000000000E+00 0.  1.
         24    1    1    2    0    0 -0.62671459247E+00  0.23040493717E+00  0.69215854016E+01  0.80719081737E+02  0.80419002446E+02 0.  1.
        -24    1    1    2    0    0  0.62671459247E+00 -0.23040493717E+00  0.10728678042E+03  0.13408249351E+03  0.80419002446E+02 0.  0.
<mgrwt>
<rscale>  0 0.80421774E+02</rscale>
<asrwt>0</asrwt>
<pdfrwt beam="1">  1        3 0.25308457E-01 0.80421774E+02</pdfrwt>
<pdfrwt beam="2">  1       -3 0.77379393E-02 0.80421774E+02</pdfrwt>
<totfact> 0.33893043E+03</totfact>
</mgrwt>
</event>
<event>
 4    1  0.4940461E-001  0.8158140E+02  0.7546771E-02  0.1324623E+00
          2   -1    0    0  501    0  0.00000000000E+00  0.00000000000E+00  0.18834629075E+04  0.18834629075E+04  0.00000000000E+00 0. -1.
         -2   -1    0    0    0  501 -0.00000000000E+00 -0.00000000000E+00 -0.37079027496E+01  0.37079027496E+01  0.00000000000E+00 0.  1.
         24    1    1    2    0    0 -0.84660176406E+01  0.10799797399E+02  0.11444227745E+04  0.11473268984E+04  0.80419002446E+02 0. -1.
        -24    1    1    2    0    0  0.84660176406E+01 -0.10799797399E+02  0.73533223022E+03  0.73984391180E+03  0.80419002446E+02 0. -1.
<mgrwt>
<rscale>  0 0.81581401E+02</rscale>
<asrwt>0</asrwt>
<pdfrwt beam="1">  1        2 0.28976276E+00 0.81581401E+02</pdfrwt>
<pdfrwt beam="2">  1       -2 0.57044808E-03 0.81581401E+02</pdfrwt>
<totfact> 0.37944410E+04</totfact>
</mgrwt>
</event>
<event>
 4    1  0.4940461E-001  0.8534727E+02  0.7546771E-02  0.1314527E+00
         -2   -1    0    0    0  501 -0.00000000000E+00  0.00000000000E+00  0.68998012409E+02  0.68998012409E+02  0.00000000000E+00 0.  1.
          2   -1    0    0  501    0  0.00000000000E+00 -0.00000000000E+00 -0.12821674810E+03  0.12821674810E+03  0.00000000000E+00 0. -1.
         24    1    1    2    0    0  0.21967524531E+02 -0.18285725778E+02 -0.71050824041E+02  0.11105122896E+03  0.80419002446E+02 0. -1.
        -24    1    1    2    0    0 -0.21967524531E+02  0.18285725778E+02  0.11832088347E+02  0.86163531556E+02  0.80419002446E+02 0. -1.
<mgrwt>
<rscale>  0 0.85347266E+02</rscale>
<asrwt>0</asrwt>
<pdfrwt beam="1">  1        2 0.19725653E-01 0.85347266E+02</pdfrwt>
<pdfrwt beam="2">  1       -2 0.10615079E-01 0.85347266E+02</pdfrwt>
<totfact> 0.15147705E+04</totfact>
</mgrwt>
</event>
<event>
 4    1  0.4940461E-001  0.8091709E+02  0.7546771E-02  0.1326469E+00
         -1   -1    0    0    0  501 -0.00000000000E+00  0.00000000000E+00  0.13028391176E+03  0.13028391176E+03  0.00000000000E+00 0.  1.
          1   -1    0    0  501    0  0.00000000000E+00 -0.00000000000E+00 -0.37817164937E+03  0.37817164937E+03  0.00000000000E+00 0. -1.
         24    1    1    2    0    0 -0.65923208965E+00 -0.89401049594E+01  0.11278948610E+03  0.13881298279E+03  0.80419002446E+02 0.  1.
        -24    1    1    2    0    0  0.65923208965E+00  0.89401049594E+01 -0.36067722371E+03  0.36964257833E+03  0.80419002446E+02 0. -1.
<mgrwt>
<rscale>  0 0.80917093E+02</rscale>
<asrwt>0</asrwt>
<pdfrwt beam="1">  1        1 0.58180254E-01 0.80917093E+02</pdfrwt>
<pdfrwt beam="2">  1       -1 0.20043679E-01 0.80917093E+02</pdfrwt>
<totfact> 0.12783336E+03</totfact>
</mgrwt>
</event>
<event>
 4    1  0.4940461E-001  0.8921891E+02  0.7546771E-02  0.1304754E+00
         -1   -1    0    0    0  501 -0.00000000000E+00  0.00000000000E+00  0.14563202611E+02  0.14563202611E+02  0.00000000000E+00 0.  1.
          1   -1    0    0  501    0  0.00000000000E+00 -0.00000000000E+00 -0.14185204432E+04  0.14185204432E+04  0.00000000000E+00 0. -1.
         24    1    1    2    0    0  0.17524405106E+02 -0.34433897810E+02 -0.14019877934E+03  0.16617975741E+03  0.80419002446E+02 0.  1.
        -24    1    1    2    0    0 -0.17524405106E+02  0.34433897810E+02 -0.12637584613E+04  0.12669038884E+04  0.80419002446E+02 0. -1.
<mgrwt>
<rscale>  0 0.89218911E+02</rscale>
<asrwt>0</asrwt>
<pdfrwt beam="1">  1        1 0.21823398E+00 0.89218911E+02</pdfrwt>
<pdfrwt beam="2">  1       -1 0.22404920E-02 0.89218911E+02</pdfrwt>
<totfact> 0.45656782E+03</totfact>
</mgrwt>
</event>
<event>
 4    1  0.4940461E-001  0.1670837E+03  0.7546771E-02  0.1180924E+00
         -2   -1    0    0    0  501 -0.00000000000E+00  0.00000000000E+00  0.29530786119E+02  0.29530786119E+02  0.00000000000E+00 0.  1.
          2   -1    0    0  501    0  0.00000000000E+00 -0.00000000000E+00 -0.10049064705E+04  0.10049064705E+04  0.00000000000E+00 0. -1.
         24    1    1    2    0    0 -0.61885740699E+02  0.13273992897E+03 -0.61360161216E+03  0.63594330568E+03  0.80419002446E+02 0.  0.
        -24    1    1    2    0    0  0.61885740699E+02 -0.13273992897E+03 -0.36177407222E+03  0.39849395093E+03  0.80419002446E+02 0.  1.
<mgrwt>
<rscale>  0 0.16708366E+03</rscale>
<asrwt>0</asrwt>
<pdfrwt beam="1">  1        2 0.15460099E+00 0.16708366E+03</pdfrwt>
<pdfrwt beam="2">  1       -2 0.45431980E-02 0.16708366E+03</pdfrwt>
<totfact> 0.58005360E+03</totfact>
</mgrwt>
</event>
<event>
 4    1  0.4940461E-001  0.8673453E+02  0.7546771E-02  0.1310958E+00
         -2   -1    0    0    0  501 -0.00000000000E+00  0.00000000000E+00  0.46361553657E+01  0.46361553657E+01  0.00000000000E+00 0.  1.
          2   -1    0    0  501    0  0.00000000000E+00 -0.00000000000E+00 -0.26944461404E+04  0.26944461404E+04  0.00000000000E+00 0. -1.
         24    1    1    2    0    0 -0.17258699022E+02 -0.27528174548E+02 -0.21960558297E+04  0.21977679783E+04  0.80419002446E+02 0. -1.
        -24    1    1    2    0    0  0.17258699022E+02  0.27528174548E+02 -0.49375415526E+03  0.50131431745E+03  0.80419002446E+02 0.  1.
<mgrwt>
<rscale>  0 0.86734532E+02</rscale>
<asrwt>0</asrwt>
<pdfrwt beam="1">  1        2 0.41453029E+00 0.86734532E+02</pdfrwt>
<pdfrwt beam="2">  1       -2 0.71325448E-03 0.86734532E+02</pdfrwt>
<totfact> 0.10669873E+04</totfact>
</mgrwt>
</event>
<event>
 4    1  0.4940461E-001  0.9436627E+02  0.7546771E-02  0.1292610E+00
          4   -1    0    0  501    0  0.00000000000E+00  0.00000000000E+00  0.91008194804E+02  0.91008194804E+02  0.00000000000E+00 0. -1.
         -4   -1    0    0    0  501 -0.00000000000E+00 -0.00000000000E+00 -0.17777779725E+03  0.17777779725E+03  0.00000000000E+00 0.  1.
         24    1    1    2    0    0 -0.16194708167E+02 -0.46642352743E+02  0.46729044065E+02  0.10530240812E+03  0.80419002446E+02 0. -1.
        -24    1    1    2    0    0  0.16194708167E+02  0.46642352743E+02 -0.13349864651E+03  0.16348358393E+03  0.80419002446E+02 0.  1.
<mgrwt>
<rscale>  0 0.94366274E+02</rscale>
<asrwt>0</asrwt>
<pdfrwt beam="1">  1        4 0.14001261E-01 0.94366274E+02</pdfrwt>
<pdfrwt beam="2">  1       -4 0.27350430E-01 0.94366274E+02</pdfrwt>
<totfact> 0.82088767E+02</totfact>
</mgrwt>
</event>
<event>
 4    1  0.4940461E-001  0.1203217E+03  0.7546771E-02  0.1242567E+00
         -2   -1    0    0    0  501 -0.00000000000E+00  0.00000000000E+00  0.89538882070E+01  0.89538882070E+01  0.00000000000E+00 0.  1.
          2   -1    0    0  501    0  0.00000000000E+00 -0.00000000000E+00 -0.16341127950E+04  0.16341127950E+04  0.00000000000E+00 0. -1.
         24    1    1    2    0    0  0.11975481717E+02 -0.88694381540E+02 -0.89695569876E+03  0.90498997064E+03  0.80419002446E+02 0.  1.
        -24    1    1    2    0    0 -0.11975481717E+02  0.88694381540E+02 -0.72820320800E+03  0.73807671253E+03  0.80419002446E+02 0. -1.
<mgrwt>
<rscale>  0 0.12032174E+03</rscale>
<asrwt>0</asrwt>
<pdfrwt beam="1">  1        2 0.25140209E+00 0.12032174E+03</pdfrwt>
<pdfrwt beam="2">  1       -2 0.13775206E-02 0.12032174E+03</pdfrwt>
<totfact> 0.14927785E+04</totfact>
</mgrwt>
</event>
<event>
 4    1  0.4940461E-001  0.8410886E+02  0.7546771E-02  0.1317780E+00
         -1   -1    0    0    0  501 -0.00000000000E+00  0.00000000000E+00  0.13082576878E+02  0.13082576878E+02  0.00000000000E+00 0.  1.
          1   -1    0    0  501    0  0.00000000000E+00 -0.00000000000E+00 -0.56542026870E+03  0.56542026870E+03  0.00000000000E+00 0. -1.
         24    1    1    2    0    0 -0.95664418015E+01 -0.22706130888E+02 -0.21573982238E+03  0.23155554863E+03  0.80419002446E+02 0.  1.
        -24    1    1    2    0    0  0.95664418015E+01  0.22706130888E+02 -0.33659786945E+03  0.34694729695E+03  0.80419002446E+02 0. -1.
<mgrwt>
<rscale>  0 0.84108865E+02</rscale>
<asrwt>0</asrwt>
<pdfrwt beam="1">  1        1 0.86987738E-01 0.84108865E+02</pdfrwt>
<pdfrwt beam="2">  1       -1 0.20127040E-02 0.84108865E+02</pdfrwt>
<totfact> 0.23262257E+04</totfact>
</mgrwt>
</event>
<event>
 4    1  0.4940461E-001  0.8691429E+02  0.7546771E-02  0.1310501E+00
          1   -1    0    0  501    0  0.00000000000E+00  0.00000000000E+00  0.42709158377E+02  0.42709158377E+02  0.00000000000E+00 0. -1.
         -1   -1    0    0    0  501 -0.00000000000E+00 -0.00000000000E+00 -0.58025905276E+03  0.58025905276E+03  0.00000000000E+00 0.  1.
         24    1    1    2    0    0  0.36380050437E+01  0.32766479347E+02 -0.52848299910E+03  0.53558227523E+03  0.80419002446E+02 0.  1.
        -24    1    1    2    0    0 -0.36380050437E+01 -0.32766479347E+02 -0.90668952823E+01  0.87385935905E+02  0.80419002446E+02 0. -1.
<mgrwt>
<rscale>  0 0.86914287E+02</rscale>
<asrwt>0</asrwt>
<pdfrwt beam="1">  1        1 0.65706404E-02 0.86914287E+02</pdfrwt>
<pdfrwt beam="2">  1       -1 0.89270615E-01 0.86914287E+02</pdfrwt>
<totfact> 0.14139450E+03</totfact>
</mgrwt>
</event>
<event>
 4    1  0.4940461E-001  0.8075046E+02  0.7546771E-02  0.1326935E+00
          2   -1    0    0  501    0  0.00000000000E+00  0.00000000000E+00  0.86466784563E+02  0.86466784563E+02  0.00000000000E+00 0. -1.
         -2   -1    0    0    0  501 -0.00000000000E+00 -0.00000000000E+00 -0.75578314328E+02  0.75578314328E+02  0.00000000000E+00 0.  1.
         24    1    1    2    0    0  0.23565669130E+01 -0.69183951917E+01  0.16435127301E+01  0.80767163427E+02  0.80419002446E+02 0.  1.
        -24    1    1    2    0    0 -0.23565669130E+01  0.69183951917E+01  0.92449575048E+01  0.81277935464E+02  0.80419002446E+02 0. -1.
<mgrwt>
<rscale>  0 0.80750450E+02</rscale>
<asrwt>0</asrwt>
<pdfrwt beam="1">  1        2 0.13302582E-01 0.80750460E+02</pdfrwt>
<pdfrwt beam="2">  1       -2 0.11627433E-01 0.80750460E+02</pdfrwt>
<totfact> 0.20472638E+04</totfact>
</mgrwt>
</event>
<event>
 4    1  0.4940461E-001  0.8164667E+02  0.7546771E-02  0.1324442E+00
         -2   -1    0    0    0  501 -0.00000000000E+00  0.00000000000E+00  0.31191256530E+02  0.31191256530E+02  0.00000000000E+00 0.  1.
          2   -1    0    0  501    0  0.00000000000E+00 -0.00000000000E+00 -0.36580318138E+03  0.36580318138E+03  0.00000000000E+00 0. -1.
         24    1    1    2    0    0 -0.13308814014E+01 -0.14042511616E+02 -0.29529477645E+03  0.30637425533E+03  0.80419002446E+02 0.  0.
        -24    1    1    2    0    0  0.13308814014E+01  0.14042511616E+02 -0.39317148401E+02  0.90620182579E+02  0.80419002446E+02 0.  1.
<mgrwt>
<rscale>  0 0.81646674E+02</rscale>
<asrwt>0</asrwt>
<pdfrwt beam="1">  1        2 0.56277413E-01 0.81646674E+02</pdfrwt>
<pdfrwt beam="2">  1       -2 0.47986548E-02 0.81646674E+02</pdfrwt>
<totfact> 0.16439091E+04</totfact>
</mgrwt>
</event>
<event>
 4    1  0.4940461E-001  0.8126745E+02  0.7546771E-02  0.1325493E+00
         -2   -1    0    0    0  501 -0.00000000000E+00  0.00000000000E+00  0.81168898835E+02  0.81168898835E+02  0.00000000000E+00 0.  1.
          2   -1    0    0  501    0  0.00000000000E+00 -0.00000000000E+00 -0.96380761238E+03  0.96380761238E+03  0.00000000000E+00 0. -1.
         24    1    1    2    0    0  0.10973970461E+02  0.40931428706E+01 -0.94126676206E+03  0.94476849819E+03  0.80419002446E+02 0. -1.
        -24    1    1    2    0    0 -0.10973970461E+02 -0.40931428706E+01  0.58628048523E+02  0.10020801302E+03  0.80419002446E+02 0.  1.
<mgrwt>
<rscale>  0 0.81267446E+02</rscale>
<asrwt>0</asrwt>
<pdfrwt beam="1">  1        2 0.14827810E+00 0.81267446E+02</pdfrwt>
<pdfrwt beam="2">  1       -2 0.12487523E-01 0.81267446E+02</pdfrwt>
<totfact> 0.12763023E+03</totfact>
</mgrwt>
</event>
<event>
 4    1  0.4940461E-001  0.8981804E+02  0.7546771E-02  0.1303293E+00
         -2   -1    0    0    0  501 -0.00000000000E+00  0.00000000000E+00  0.26797289216E+02  0.26797289216E+02  0.00000000000E+00 0.  1.
          2   -1    0    0  501    0  0.00000000000E+00 -0.00000000000E+00 -0.53346963273E+03  0.53346963273E+03  0.00000000000E+00 0. -1.
         24    1    1    2    0    0 -0.37228109250E+01  0.39827198126E+02 -0.43824090891E+03  0.44735039425E+03  0.80419002446E+02 0.  0.
        -24    1    1    2    0    0  0.37228109250E+01 -0.39827198126E+02 -0.68431434594E+02  0.11291652770E+03  0.80419002446E+02 0.  0.
<mgrwt>
<rscale>  0 0.89818044E+02</rscale>
<asrwt>0</asrwt>
<pdfrwt beam="1">  1        2 0.82072254E-01 0.89818044E+02</pdfrwt>
<pdfrwt beam="2">  1       -2 0.41226597E-02 0.89818044E+02</pdfrwt>
<totfact> 0.13898028E+04</totfact>
</mgrwt>
</event>
<event>
 4    1  0.4940461E-001  0.8766979E+02  0.7546771E-02  0.1308595E+00
         -1   -1    0    0    0  501 -0.00000000000E+00  0.00000000000E+00  0.15497308158E+02  0.15497308158E+02  0.00000000000E+00 0.  1.
          1   -1    0    0  501    0  0.00000000000E+00 -0.00000000000E+00 -0.18350369633E+04  0.18350369633E+04  0.00000000000E+00 0. -1.
         24    1    1    2    0    0 -0.20172683815E+01 -0.34852653596E+02 -0.11936780346E+03  0.14810356273E+03  0.80419002446E+02 0.  1.
        -24    1    1    2    0    0  0.20172683815E+01  0.34852653596E+02 -0.17001718517E+04  0.17024307087E+04  0.80419002446E+02 0. -1.
<mgrwt>
<rscale>  0 0.87669794E+02</rscale>
<asrwt>0</asrwt>
<pdfrwt beam="1">  1        1 0.28231319E+00 0.87669794E+02</pdfrwt>
<pdfrwt beam="2">  1       -1 0.23842029E-02 0.87669794E+02</pdfrwt>
<totfact> 0.22775157E+03</totfact>
</mgrwt>
</event>
<event>
 4    1  0.4940461E-001  0.8887400E+02  0.7546771E-02  0.1305602E+00
          2   -1    0    0  501    0  0.00000000000E+00  0.00000000000E+00  0.20460804888E+04  0.20460804888E+04  0.00000000000E+00 0. -1.
         -2   -1    0    0    0  501 -0.00000000000E+00 -0.00000000000E+00 -0.56559206575E+01  0.56559206575E+01  0.00000000000E+00 0.  1.
         24    1    1    2    0    0  0.34777490804E+02 -0.14896214860E+02  0.15982300035E+04  0.16006991382E+04  0.80419002446E+02 0. -1.
        -24    1    1    2    0    0 -0.34777490804E+02  0.14896214860E+02  0.44219456464E+03  0.45103727123E+03  0.80419002446E+02 0.  1.
<mgrwt>
<rscale>  0 0.88873995E+02</rscale>
<asrwt>0</asrwt>
<pdfrwt beam="1">  1        2 0.31478102E+00 0.88873995E+02</pdfrwt>
<pdfrwt beam="2">  1       -2 0.87014328E-03 0.88873995E+02</pdfrwt>
<totfact> 0.17482899E+04</totfact>
</mgrwt>
</event>
<event>
 4    1  0.4940461E-001  0.8262974E+02  0.7546771E-02  0.1321750E+00
         -1   -1    0    0    0  501 -0.00000000000E+00  0.00000000000E+00  0.19332823416E+02  0.19332823416E+02  0.00000000000E+00 0.  1.
          1   -1    0    0  501    0  0.00000000000E+00 -0.00000000000E+00 -0.13022008634E+04  0.13022008634E+04  0.00000000000E+00 0. -1.
         24    1    1    2    0    0  0.16386911879E+02 -0.95879049307E+01 -0.77341180686E+02  0.11317832384E+03  0.80419002446E+02 0.  1.
        -24    1    1    2    0    0 -0.16386911879E+02  0.95879049307E+01 -0.12055268593E+04  0.12083553630E+04  0.80419002446E+02 0. -1.
<mgrwt>
<rscale>  0 0.82629745E+02</rscale>
<asrwt>0</asrwt>
<pdfrwt beam="1">  1        1 0.20033854E+00 0.82629745E+02</pdfrwt>
<pdfrwt beam="2">  1       -1 0.29742813E-02 0.82629745E+02</pdfrwt>
<totfact> 0.36102652E+03</totfact>
</mgrwt>
</event>
<event>
 4    1  0.4940461E-001  0.1051223E+03  0.7546771E-02  0.1269879E+00
          1   -1    0    0  501    0  0.00000000000E+00  0.00000000000E+00  0.37338909948E+03  0.37338909948E+03  0.00000000000E+00 0. -1.
         -1   -1    0    0    0  501 -0.00000000000E+00 -0.00000000000E+00 -0.32076346439E+02  0.32076346439E+02  0.00000000000E+00 0.  1.
         24    1    1    2    0    0 -0.66307444890E+02 -0.13667549033E+02  0.11427732708E+03  0.15527395978E+03  0.80419002446E+02 0.  1.
        -24    1    1    2    0    0  0.66307444890E+02  0.13667549033E+02  0.22703542596E+03  0.25019148614E+03  0.80419002446E+02 0.  0.
<mgrwt>
<rscale>  0 0.10512229E+03</rscale>
<asrwt>0</asrwt>
<pdfrwt beam="1">  1        1 0.57444474E-01 0.10512229E+03</pdfrwt>
<pdfrwt beam="2">  1       -1 0.49348228E-02 0.10512229E+03</pdfrwt>
<totfact> 0.11022472E+04</totfact>
</mgrwt>
</event>
<event>
 4    1  0.4940461E-001  0.1421944E+03  0.7546771E-02  0.1210406E+00
         -2   -1    0    0    0  501 -0.00000000000E+00  0.00000000000E+00  0.37854436865E+02  0.37854436865E+02  0.00000000000E+00 0.  1.
          2   -1    0    0  501    0  0.00000000000E+00 -0.00000000000E+00 -0.57270680042E+03  0.57270680042E+03  0.00000000000E+00 0. -1.
         24    1    1    2    0    0 -0.11677729465E+03 -0.10728004545E+02 -0.34665595263E+03  0.37468599130E+03  0.80419002446E+02 0. -1.
        -24    1    1    2    0    0  0.11677729465E+03  0.10728004545E+02 -0.18819641092E+03  0.23587524598E+03  0.80419002446E+02 0.  1.
<mgrwt>
<rscale>  0 0.14219438E+03</rscale>
<asrwt>0</asrwt>
<pdfrwt beam="1">  1        2 0.88108724E-01 0.14219438E+03</pdfrwt>
<pdfrwt beam="2">  1       -2 0.58237605E-02 0.14219438E+03</pdfrwt>
<totfact> 0.79332065E+03</totfact>
</mgrwt>
</event>
<event>
 4    1  0.4940461E-001  0.9189521E+02  0.7546771E-02  0.1298326E+00
         -1   -1    0    0    0  501 -0.00000000000E+00  0.00000000000E+00  0.50972867584E+02  0.50972867584E+02  0.00000000000E+00 0.  1.
          1   -1    0    0  501    0  0.00000000000E+00 -0.00000000000E+00 -0.16824664087E+03  0.16824664087E+03  0.00000000000E+00 0. -1.
         24    1    1    2    0    0 -0.25421739744E+02 -0.36486271512E+02 -0.45075193581E+02  0.10235478441E+03  0.80419002446E+02 0.  0.
        -24    1    1    2    0    0  0.25421739744E+02  0.36486271512E+02 -0.72198579703E+02  0.11686472404E+03  0.80419002446E+02 0. -1.
<mgrwt>
<rscale>  0 0.91895206E+02</rscale>
<asrwt>0</asrwt>
<pdfrwt beam="1">  1        1 0.25884099E-01 0.91895206E+02</pdfrwt>
<pdfrwt beam="2">  1       -1 0.78419795E-02 0.91895206E+02</pdfrwt>
<totfact> 0.14612517E+04</totfact>
</mgrwt>
</event>
<event>
 4    1  0.4940461E-001  0.8053495E+02  0.7546771E-02  0.1327540E+00
          1   -1    0    0  501    0  0.00000000000E+00  0.00000000000E+00  0.87729727242E+03  0.87729727242E+03  0.00000000000E+00 0. -1.
         -1   -1    0    0    0  501 -0.00000000000E+00 -0.00000000000E+00 -0.37759705502E+02  0.37759705502E+02  0.00000000000E+00 0.  1.
         24    1    1    2    0    0 -0.16878431844E+01 -0.39766946064E+01  0.94678386938E+01  0.81089572933E+02  0.80419002446E+02 0.  0.
        -24    1    1    2    0    0  0.16878431844E+01  0.39766946064E+01  0.83006972823E+03  0.83396740499E+03  0.80419002446E+02 0. -1.
<mgrwt>
<rscale>  0 0.80534954E+02</rscale>
<asrwt>0</asrwt>
<pdfrwt beam="1">  1        1 0.13496880E+00 0.80534954E+02</pdfrwt>
<pdfrwt beam="2">  1       -1 0.58091861E-02 0.80534954E+02</pdfrwt>
<totfact> 0.27035352E+03</totfact>
</mgrwt>
</event>
<event>
 4    1  0.4940461E-001  0.1413033E+03  0.7546771E-02  0.1211586E+00
          2   -1    0    0  501    0  0.00000000000E+00  0.00000000000E+00  0.52890344410E+03  0.52890344410E+03  0.00000000000E+00 0. -1.
         -2   -1    0    0    0  501 -0.00000000000E+00 -0.00000000000E+00 -0.37800236235E+02  0.37800236235E+02  0.00000000000E+00 0.  1.
         24    1    1    2    0    0 -0.91597741542E+02  0.71479063591E+02  0.23532226169E+03  0.27448713192E+03  0.80419002446E+02 0. -1.
        -24    1    1    2    0    0  0.91597741542E+02 -0.71479063591E+02  0.25578094617E+03  0.29221654841E+03  0.80419002446E+02 0.  0.
<mgrwt>
<rscale>  0 0.14130330E+03</rscale>
<asrwt>0</asrwt>
<pdfrwt beam="1">  1        2 0.81369755E-01 0.14130332E+03</pdfrwt>
<pdfrwt beam="2">  1       -2 0.58154213E-02 0.14130332E+03</pdfrwt>
<totfact> 0.86871799E+03</totfact>
</mgrwt>
</event>
<event>
 4    1  0.4940461E-001  0.8702786E+02  0.7546771E-02  0.1310213E+00
          1   -1    0    0  501    0  0.00000000000E+00  0.00000000000E+00  0.12939124181E+04  0.12939124181E+04  0.00000000000E+00 0. -1.
         -1   -1    0    0    0  501 -0.00000000000E+00 -0.00000000000E+00 -0.21380176640E+02  0.21380176640E+02  0.00000000000E+00 0.  1.
         24    1    1    2    0    0  0.30268529368E+02 -0.13800319458E+02  0.75829222499E+02  0.11542928409E+03  0.80419002446E+02 0.  1.
        -24    1    1    2    0    0 -0.30268529368E+02  0.13800319458E+02  0.11967030189E+04  0.11998633106E+04  0.80419002446E+02 0. -1.
<mgrwt>
<rscale>  0 0.87027861E+02</rscale>
<asrwt>0</asrwt>
<pdfrwt beam="1">  1        1 0.19906339E+00 0.87027861E+02</pdfrwt>
<pdfrwt beam="2">  1       -1 0.32892590E-02 0.87027861E+02</pdfrwt>
<totfact> 0.31680956E+03</totfact>
</mgrwt>
</event>
<event>
 4    1  0.4940461E-001  0.8801301E+02  0.7546771E-02  0.1307736E+00
         -2   -1    0    0    0  501 -0.00000000000E+00  0.00000000000E+00  0.78570071047E+01  0.78570071047E+01  0.00000000000E+00 0.  1.
          2   -1    0    0  501    0  0.00000000000E+00 -0.00000000000E+00 -0.18314972606E+04  0.18314972606E+04  0.00000000000E+00 0. -1.
         24    1    1    2    0    0 -0.34098956442E+02 -0.10785674058E+02 -0.28691800218E+03  0.30011368767E+03  0.80419002446E+02 0.  1.
        -24    1    1    2    0    0  0.34098956442E+02  0.10785674058E+02 -0.15367222513E+04  0.15392405801E+04  0.80419002446E+02 0. -1.
<mgrwt>
<rscale>  0 0.88012996E+02</rscale>
<asrwt>0</asrwt>
<pdfrwt beam="1">  1        2 0.28176881E+00 0.88013007E+02</pdfrwt>
<pdfrwt beam="2">  1       -2 0.12087703E-02 0.88013007E+02</pdfrwt>
<totfact> 0.14058909E+04</totfact>
</mgrwt>
</event>
<event>
 4    1  0.4940461E-001  0.9555532E+02  0.7546771E-02  0.1289930E+00
          1   -1    0    0  501    0  0.00000000000E+00  0.00000000000E+00  0.90359272188E+02  0.90359272188E+02  0.00000000000E+00 0. -1.
         -1   -1    0    0    0  501 -0.00000000000E+00 -0.00000000000E+00 -0.22022711483E+03  0.22022711483E+03  0.00000000000E+00 0.  1.
         24    1    1    2    0    0 -0.49144340810E+02 -0.15761878861E+02 -0.17917259876E+03  0.20306067851E+03  0.80419002446E+02 0.  1.
        -24    1    1    2    0    0  0.49144340810E+02  0.15761878861E+02  0.49304756116E+02  0.10752570850E+03  0.80419002446E+02 0. -1.
<mgrwt>
<rscale>  0 0.95555319E+02</rscale>
<asrwt>0</asrwt>
<pdfrwt beam="1">  1        1 0.13901427E-01 0.95555319E+02</pdfrwt>
<pdfrwt beam="2">  1       -1 0.33881094E-01 0.95555319E+02</pdfrwt>
<totfact> 0.32203133E+03</totfact>
</mgrwt>
</event>
<event>
 4    1  0.4940461E-001  0.1206119E+03  0.7546771E-02  0.1242091E+00
          1   -1    0    0  501    0  0.00000000000E+00  0.00000000000E+00  0.35840539669E+03  0.35840539669E+03  0.00000000000E+00 0. -1.
         -1   -1    0    0    0  501 -0.00000000000E+00 -0.00000000000E+00 -0.82519357768E+02  0.82519357768E+02  0.00000000000E+00 0.  1.
         24    1    1    2    0    0  0.46067674209E+02  0.77186729881E+02 -0.19209732046E+02  0.12213210731E+03  0.80419002446E+02 0.  1.
        -24    1    1    2    0    0 -0.46067674209E+02 -0.77186729881E+02  0.29509577097E+03  0.31879264715E+03  0.80419002446E+02 0. -1.
<mgrwt>
<rscale>  0 0.12061193E+03</rscale>
<asrwt>0</asrwt>
<pdfrwt beam="1">  1        1 0.55139291E-01 0.12061193E+03</pdfrwt>
<pdfrwt beam="2">  1       -1 0.12695286E-01 0.12061193E+03</pdfrwt>
<totfact> 0.28292821E+03</totfact>
</mgrwt>
</event>
<event>
 4    1  0.4940461E-001  0.8495495E+02  0.7546771E-02  0.1315550E+00
         -1   -1    0    0    0  501 -0.00000000000E+00  0.00000000000E+00  0.44604281669E+02  0.44604281669E+02  0.00000000000E+00 0.  1.
          1   -1    0    0  501    0  0.00000000000E+00 -0.00000000000E+00 -0.42875032582E+03  0.42875032582E+03  0.00000000000E+00 0. -1.
         24    1    1    2    0    0  0.14918552635E+02 -0.22968774670E+02 -0.53220619910E+01  0.85121490358E+02  0.80419002446E+02 0.  0.
        -24    1    1    2    0    0 -0.14918552635E+02  0.22968774670E+02 -0.37882398216E+03  0.38823311713E+03  0.80419002446E+02 0. -1.
<mgrwt>
<rscale>  0 0.84954951E+02</rscale>
<asrwt>0</asrwt>
<pdfrwt beam="1">  1        1 0.65961591E-01 0.84954951E+02</pdfrwt>
<pdfrwt beam="2">  1       -1 0.68621969E-02 0.84954951E+02</pdfrwt>
<totfact> 0.56168492E+03</totfact>
</mgrwt>
</event>
<event>
 4    1  0.4940461E-001  0.8045343E+02  0.7546771E-02  0.1327770E+00
          2   -1    0    0  501    0  0.00000000000E+00  0.00000000000E+00  0.36393693404E+02  0.36393693404E+02  0.00000000000E+00 0. -1.
         -2   -1    0    0    0  501 -0.00000000000E+00 -0.00000000000E+00 -0.17952810946E+03  0.17952810946E+03  0.00000000000E+00 0.  1.
         24    1    1    2    0    0 -0.10880788558E+01 -0.20869430827E+01 -0.61141072529E+02  0.10104942331E+03  0.80419002446E+02 0. -1.
        -24    1    1    2    0    0  0.10880788558E+01  0.20869430827E+01 -0.81993343525E+02  0.11487237955E+03  0.80419002446E+02 0.  0.
<mgrwt>
<rscale>  0 0.80453435E+02</rscale>
<asrwt>0</asrwt>
<pdfrwt beam="1">  1        2 0.55990296E-02 0.80453435E+02</pdfrwt>
<pdfrwt beam="2">  1       -2 0.27619710E-01 0.80453435E+02</pdfrwt>
<totfact> 0.14139040E+04</totfact>
</mgrwt>
</event>
<event>
 4    1  0.4940461E-001  0.8743678E+02  0.7546771E-02  0.1309180E+00
          1   -1    0    0  501    0  0.00000000000E+00  0.00000000000E+00  0.51698222527E+03  0.51698222527E+03  0.00000000000E+00 0. -1.
         -1   -1    0    0    0  501 -0.00000000000E+00 -0.00000000000E+00 -0.14847212227E+02  0.14847212227E+02  0.00000000000E+00 0.  1.
         24    1    1    2    0    0  0.33954184230E+02  0.50087197586E+01  0.23429017127E+03  0.25007413742E+03  0.80419002446E+02 0.  1.
        -24    1    1    2    0    0 -0.33954184230E+02 -0.50087197586E+01  0.26784484177E+03  0.28175530007E+03  0.80419002446E+02 0. -1.
<mgrwt>
<rscale>  0 0.87436776E+02</rscale>
<asrwt>0</asrwt>
<pdfrwt beam="1">  1        1 0.79535713E-01 0.87436776E+02</pdfrwt>
<pdfrwt beam="2">  1       -1 0.22841869E-02 0.87436776E+02</pdfrwt>
<totfact> 0.21913910E+04</totfact>
</mgrwt>
</event>
<event>
 4    1  0.4940461E-001  0.1741560E+03  0.7546771E-02  0.1173582E+00
         -2   -1    0    0    0  501 -0.00000000000E+00  0.00000000000E+00  0.25862908164E+02  0.25862908164E+02  0.00000000000E+00 0.  1.
          2   -1    0    0  501    0  0.00000000000E+00 -0.00000000000E+00 -0.21603494671E+04  0.21603494671E+04  0.00000000000E+00 0. -1.
         24    1    1    2    0    0 -0.14995367803E+03 -0.37107916506E+02 -0.18063280060E+04  0.18147041589E+04  0.80419002446E+02 0. -1.
        -24    1    1    2    0    0  0.14995367803E+03  0.37107916506E+02 -0.32815855290E+03  0.37150821635E+03  0.80419002446E+02 0.  1.
<mgrwt>
<rscale>  0 0.17415602E+03</rscale>
<asrwt>0</asrwt>
<pdfrwt beam="1">  1        2 0.33236135E+00 0.17415602E+03</pdfrwt>
<pdfrwt beam="2">  1       -2 0.39789102E-02 0.17415602E+03</pdfrwt>
<totfact> 0.17091773E+03</totfact>
</mgrwt>
</event>
<event>
 4    1  0.4940461E-001  0.1091399E+03  0.7546771E-02  0.1262171E+00
         -2   -1    0    0    0  501 -0.00000000000E+00  0.00000000000E+00  0.11864280931E+03  0.11864280931E+03  0.00000000000E+00 0.  1.
          2   -1    0    0  501    0  0.00000000000E+00 -0.00000000000E+00 -0.76363103105E+03  0.76363103105E+03  0.00000000000E+00 0. -1.
         24    1    1    2    0    0 -0.64128027749E+02 -0.36495107865E+02 -0.73361037972E+03  0.74168436820E+03  0.80419002446E+02 0. -1.
        -24    1    1    2    0    0  0.64128027749E+02  0.36495107865E+02  0.88622157982E+02  0.14058947215E+03  0.80419002446E+02 0.  1.
<mgrwt>
<rscale>  0 0.10913988E+03</rscale>
<asrwt>0</asrwt>
<pdfrwt beam="1">  1        2 0.11748169E+00 0.10913988E+03</pdfrwt>
<pdfrwt beam="2">  1       -2 0.18252741E-01 0.10913988E+03</pdfrwt>
<totfact> 0.92750484E+02</totfact>
</mgrwt>
</event>
<event>
 4    1  0.4940461E-001  0.1403625E+03  0.7546771E-02  0.1212842E+00
          1   -1    0    0  501    0  0.00000000000E+00  0.00000000000E+00  0.13109439109E+04  0.13109439109E+04  0.00000000000E+00 0. -1.
         -1   -1    0    0    0  501 -0.00000000000E+00 -0.00000000000E+00 -0.76982151368E+02  0.76982151368E+02  0.00000000000E+00 0.  1.
         24    1    1    2    0    0 -0.67847504331E+02  0.92903915889E+02 -0.55694317663E+01  0.14047297233E+03  0.80419002446E+02 0.  1.
        -24    1    1    2    0    0  0.67847504331E+02 -0.92903915889E+02  0.12395311913E+04  0.12474530899E+04  0.80419002446E+02 0. -1.
<mgrwt>
<rscale>  0 0.14036252E+03</rscale>
<asrwt>0</asrwt>
<pdfrwt beam="1">  1        1 0.20168366E+00 0.14036252E+03</pdfrwt>
<pdfrwt beam="2">  1       -1 0.11843409E-01 0.14036252E+03</pdfrwt>
<totfact> 0.45956223E+02</totfact>
</mgrwt>
</event>
<event>
 4    1  0.4940461E-001  0.1549833E+03  0.7546771E-02  0.1194480E+00
         -2   -1    0    0    0  501 -0.00000000000E+00  0.00000000000E+00  0.18001950582E+02  0.18001950582E+02  0.00000000000E+00 0.  1.
          2   -1    0    0  501    0  0.00000000000E+00 -0.00000000000E+00 -0.14328790850E+04  0.14328790850E+04  0.00000000000E+00 0. -1.
         24    1    1    2    0    0  0.97010101928E+02 -0.90231156135E+02 -0.89772580109E+03  0.91100573615E+03  0.80419002446E+02 0. -1.
        -24    1    1    2    0    0 -0.97010101928E+02  0.90231156135E+02 -0.51715133334E+03  0.53987529944E+03  0.80419002446E+02 0.  1.
<mgrwt>
<rscale>  0 0.15498335E+03</rscale>
<asrwt>0</asrwt>
<pdfrwt beam="1">  1        2 0.22044299E+00 0.15498335E+03</pdfrwt>
<pdfrwt beam="2">  1       -2 0.27695302E-02 0.15498335E+03</pdfrwt>
<totfact> 0.69637267E+03</totfact>
</mgrwt>
</event>
<event>
 4    1  0.4940461E-001  0.8218565E+02  0.7546771E-02  0.1322961E+00
         -1   -1    0    0    0  501 -0.00000000000E+00  0.00000000000E+00  0.27942255650E+02  0.27942255650E+02  0.00000000000E+00 0.  1.
          1   -1    0    0  501    0  0.00000000000E+00 -0.00000000000E+00 -0.25702587358E+03  0.25702587358E+03  0.00000000000E+00 0. -1.
         24    1    1    2    0    0  0.15617332272E+02  0.65851851565E+01 -0.79782998833E+02  0.11454173295E+03  0.80419002446E+02 0.  0.
        -24    1    1    2    0    0 -0.15617332272E+02 -0.65851851565E+01 -0.14930061910E+03  0.17042639628E+03  0.80419002446E+02 0. -1.
<mgrwt>
<rscale>  0 0.82185654E+02</rscale>
<asrwt>0</asrwt>
<pdfrwt beam="1">  1        1 0.39542444E-01 0.82185654E+02</pdfrwt>
<pdfrwt beam="2">  1       -1 0.42988083E-02 0.82185654E+02</pdfrwt>
<totfact> 0.20796409E+04</totfact>
</mgrwt>
</event>
<event>
 4    1  0.4940461E-001  0.8980087E+02  0.7546771E-02  0.1303335E+00
          2   -1    0    0  501    0  0.00000000000E+00  0.00000000000E+00  0.10797566030E+03  0.10797566030E+03  0.00000000000E+00 0. -1.
         -2   -1    0    0    0  501 -0.00000000000E+00 -0.00000000000E+00 -0.13303768357E+03  0.13303768357E+03  0.00000000000E+00 0.  1.
         24    1    1    2    0    0 -0.37685221842E+02  0.13296770403E+02  0.67278197419E+02  0.11220762831E+03  0.80419002446E+02 0. -1.
        -24    1    1    2    0    0  0.37685221842E+02 -0.13296770403E+02 -0.92340220691E+02  0.12880571556E+03  0.80419002446E+02 0.  1.
<mgrwt>
<rscale>  0 0.89800869E+02</rscale>
<asrwt>0</asrwt>
<pdfrwt beam="1">  1        2 0.16611640E-01 0.89800869E+02</pdfrwt>
<pdfrwt beam="2">  1       -2 0.20467336E-01 0.89800869E+02</pdfrwt>
<totfact> 0.63984863E+03</totfact>
</mgrwt>
</event>
<event>
 4    1  0.4940461E-001  0.8073694E+02  0.7546771E-02  0.1326973E+00
          2   -1    0    0  501    0  0.00000000000E+00  0.00000000000E+00  0.59238714411E+02  0.59238714411E+02  0.00000000000E+00 0. -1.
         -2   -1    0    0    0  501 -0.00000000000E+00 -0.00000000000E+00 -0.50065527024E+03  0.50065527024E+03  0.00000000000E+00 0.  1.
         24    1    1    2    0    0 -0.23235048054E+01 -0.67704818054E+01  0.26568112167E+02  0.84995991887E+02  0.80419002446E+02 0. -1.
        -24    1    1    2    0    0  0.23235048054E+01  0.67704818054E+01 -0.46798466800E+03  0.47489799277E+03  0.80419002446E+02 0.  1.
<mgrwt>
<rscale>  0 0.80736944E+02</rscale>
<asrwt>0</asrwt>
<pdfrwt beam="1">  1        2 0.91136482E-02 0.80736944E+02</pdfrwt>
<pdfrwt beam="2">  1       -2 0.77023889E-01 0.80736944E+02</pdfrwt>
<totfact> 0.10601397E+03</totfact>
</mgrwt>
</event>
<event>
 4    1  0.4940461E-001  0.9897990E+02  0.7546771E-02  0.1282456E+00
          1   -1    0    0  501    0  0.00000000000E+00  0.00000000000E+00  0.86412270332E+02  0.86412270332E+02  0.00000000000E+00 0. -1.
         -1   -1    0    0    0  501 -0.00000000000E+00 -0.00000000000E+00 -0.16624866322E+03  0.16624866322E+03  0.00000000000E+00 0.  1.
         24    1    1    2    0    0  0.39563951052E+02 -0.42005941998E+02 -0.11116203080E+03  0.14884226023E+03  0.80419002446E+02 0.  1.
        -24    1    1    2    0    0 -0.39563951052E+02  0.42005941998E+02  0.31325637905E+02  0.10381867332E+03  0.80419002446E+02 0. -1.
<mgrwt>
<rscale>  0 0.98979904E+02</rscale>
<asrwt>0</asrwt>
<pdfrwt beam="1">  1        1 0.13294195E-01 0.98979904E+02</pdfrwt>
<pdfrwt beam="2">  1       -1 0.25576717E-01 0.98979904E+02</pdfrwt>
<totfact> 0.54555428E+03</totfact>
</mgrwt>
</event>
<event>
 4    1  0.4940461E-001  0.8694278E+02  0.7546771E-02  0.1310429E+00
         -1   -1    0    0    0  501 -0.00000000000E+00  0.00000000000E+00  0.19700395927E+03  0.19700395927E+03  0.00000000000E+00 0.  1.
          1   -1    0    0  501    0  0.00000000000E+00 -0.00000000000E+00 -0.51065887072E+02  0.51065887072E+02  0.00000000000E+00 0. -1.
         24    1    1    2    0    0  0.26274341636E+02  0.20037230040E+02  0.13481474562E+03  0.16041840046E+03  0.80419002446E+02 0.  1.
        -24    1    1    2    0    0 -0.26274341636E+02 -0.20037230040E+02  0.11123326577E+02  0.87651445878E+02  0.80419002446E+02 0. -1.
<mgrwt>
<rscale>  0 0.86942783E+02</rscale>
<asrwt>0</asrwt>
<pdfrwt beam="1">  1        1 0.78562904E-02 0.86942783E+02</pdfrwt>
<pdfrwt beam="2">  1       -1 0.30308301E-01 0.86942783E+02</pdfrwt>
<totfact> 0.81214889E+03</totfact>
</mgrwt>
</event>
<event>
 4    1  0.4940461E-001  0.8169215E+02  0.7546771E-02  0.1324317E+00
          1   -1    0    0  501    0  0.00000000000E+00  0.00000000000E+00  0.22934790556E+03  0.22934790556E+03  0.00000000000E+00 0. -1.
         -1   -1    0    0    0  501 -0.00000000000E+00 -0.00000000000E+00 -0.32752552881E+02  0.32752552881E+02  0.00000000000E+00 0.  1.
         24    1    1    2    0    0 -0.12699762019E+02 -0.67159270020E+01  0.14207230064E+03  0.16388453921E+03  0.80419002446E+02 0. -1.
        -24    1    1    2    0    0  0.12699762019E+02  0.67159270020E+01  0.54523052039E+02  0.98215919223E+02  0.80419002446E+02 0.  0.
<mgrwt>
<rscale>  0 0.81692137E+02</rscale>
<asrwt>0</asrwt>
<pdfrwt beam="1">  1        1 0.35284292E-01 0.81692147E+02</pdfrwt>
<pdfrwt beam="2">  1       -1 0.50388544E-02 0.81692147E+02</pdfrwt>
<totfact> 0.18945676E+04</totfact>
</mgrwt>
</event>
<event>
 4    1  0.4940461E-001  0.9191001E+02  0.7546771E-02  0.1298291E+00
         -2   -1    0    0    0  501 -0.00000000000E+00  0.00000000000E+00  0.27695749133E+02  0.27695749133E+02  0.00000000000E+00 0.  1.
          2   -1    0    0  501    0  0.00000000000E+00 -0.00000000000E+00 -0.40910557464E+03  0.40910557464E+03  0.00000000000E+00 0. -1.
         24    1    1    2    0    0 -0.15255819385E+00  0.44499564651E+02 -0.30087270381E+03  0.31459789316E+03  0.80419002446E+02 0. -1.
        -24    1    1    2    0    0  0.15255819385E+00 -0.44499564651E+02 -0.80537121698E+02  0.12220343061E+03  0.80419002446E+02 0.  1.
<mgrwt>
<rscale>  0 0.91910013E+02</rscale>
<asrwt>0</asrwt>
<pdfrwt beam="1">  1        2 0.62939322E-01 0.91910013E+02</pdfrwt>
<pdfrwt beam="2">  1       -2 0.42608843E-02 0.91910013E+02</pdfrwt>
<totfact> 0.17631544E+04</totfact>
</mgrwt>
</event>
<event>
 4    1  0.4940461E-001  0.9081776E+02  0.7546771E-02  0.1300883E+00
         -2   -1    0    0    0  501 -0.00000000000E+00  0.00000000000E+00  0.57637202909E+01  0.57637202909E+01  0.00000000000E+00 0.  1.
          2   -1    0    0  501    0  0.00000000000E+00 -0.00000000000E+00 -0.20319338781E+04  0.20319338781E+04  0.00000000000E+00 0. -1.
         24    1    1    2    0    0  0.26955176365E+02  0.32466400714E+02 -0.15671612745E+04  0.15697905354E+04  0.80419002446E+02 0. -1.
        -24    1    1    2    0    0 -0.26955176365E+02 -0.32466400714E+02 -0.45900888329E+03  0.46790706300E+03  0.80419002446E+02 0.  1.
<mgrwt>
<rscale>  0 0.90817755E+02</rscale>
<asrwt>0</asrwt>
<pdfrwt beam="1">  1        2 0.31260504E+00 0.90817755E+02</pdfrwt>
<pdfrwt beam="2">  1       -2 0.88672670E-03 0.90817755E+02</pdfrwt>
<totfact> 0.17324600E+04</totfact>
</mgrwt>
</event>
<event>
 4    1  0.4940461E-001  0.1295631E+03  0.7546771E-02  0.1228105E+00
         -2   -1    0    0    0  501 -0.00000000000E+00  0.00000000000E+00  0.99111167345E+02  0.99111167345E+02  0.00000000000E+00 0.  1.
          2   -1    0    0  501    0  0.00000000000E+00 -0.00000000000E+00 -0.29199034349E+03  0.29199034349E+03  0.00000000000E+00 0. -1.
         24    1    1    2    0    0  0.98450039948E+02  0.25039449710E+02 -0.22316216079E+03  0.25804641127E+03  0.80419002446E+02 0. -1.
        -24    1    1    2    0    0 -0.98450039948E+02 -0.25039449710E+02  0.30282984641E+02  0.13305509957E+03  0.80419002446E+02 0.  1.
<mgrwt>
<rscale>  0 0.12956311E+03</rscale>
<asrwt>0</asrwt>
<pdfrwt beam="1">  1        2 0.44921590E-01 0.12956311E+03</pdfrwt>
<pdfrwt beam="2">  1       -2 0.15247872E-01 0.12956311E+03</pdfrwt>
<totfact> 0.36105982E+03</totfact>
</mgrwt>
</event>
<event>
 4    1  0.4940461E-001  0.9178263E+02  0.7546771E-02  0.1298591E+00
          1   -1    0    0  501    0  0.00000000000E+00  0.00000000000E+00  0.41195519518E+03  0.41195519518E+03  0.00000000000E+00 0. -1.
         -1   -1    0    0    0  501 -0.00000000000E+00 -0.00000000000E+00 -0.25211435035E+02  0.25211435035E+02  0.00000000000E+00 0.  1.
         24    1    1    2    0    0  0.16109530057E+01  0.44206784120E+02  0.98369372060E+02  0.13453841179E+03  0.80419002446E+02 0.  1.
        -24    1    1    2    0    0 -0.16109530057E+01 -0.44206784120E+02  0.28837438808E+03  0.30262821843E+03  0.80419002446E+02 0. -1.
<mgrwt>
<rscale>  0 0.91782628E+02</rscale>
<asrwt>0</asrwt>
<pdfrwt beam="1">  1        1 0.63377717E-01 0.91782628E+02</pdfrwt>
<pdfrwt beam="2">  1       -1 0.38786826E-02 0.91782628E+02</pdfrwt>
<totfact> 0.13699512E+04</totfact>
</mgrwt>
</event>
<event>
 4    1  0.4940461E-001  0.1107321E+03  0.7546771E-02  0.1259220E+00
          1   -1    0    0  501    0  0.00000000000E+00  0.00000000000E+00  0.83784794695E+02  0.83784794695E+02  0.00000000000E+00 0. -1.
         -1   -1    0    0    0  501 -0.00000000000E+00 -0.00000000000E+00 -0.17810315696E+03  0.17810315696E+03  0.00000000000E+00 0.  1.
         24    1    1    2    0    0  0.15590797620E+02 -0.74507168355E+02 -0.10245183842E+03  0.15085750315E+03  0.80419002446E+02 0.  0.
        -24    1    1    2    0    0 -0.15590797620E+02  0.74507168355E+02  0.81334761533E+01  0.11103044851E+03  0.80419002446E+02 0. -1.
<mgrwt>
<rscale>  0 0.11073214E+03</rscale>
<asrwt>0</asrwt>
<pdfrwt beam="1">  1        1 0.12889969E-01 0.11073214E+03</pdfrwt>
<pdfrwt beam="2">  1       -1 0.27400485E-01 0.11073214E+03</pdfrwt>
<totfact> 0.51128701E+03</totfact>
</mgrwt>
</event>
<event>
 4    1  0.4940461E-001  0.8073921E+02  0.7546771E-02  0.1326967E+00
          1   -1    0    0  501    0  0.00000000000E+00  0.00000000000E+00  0.16714671333E+04  0.16714671333E+04  0.00000000000E+00 0. -1.
         -1   -1    0    0    0  501 -0.00000000000E+00 -0.00000000000E+00 -0.42832287246E+01  0.42832287246E+01  0.00000000000E+00 0.  1.
         24    1    1    2    0    0 -0.71522140626E+01 -0.67094030228E+00  0.58298717882E+03  0.58855150238E+03  0.80419002446E+02 0.  1.
        -24    1    1    2    0    0  0.71522140626E+01  0.67094030228E+00  0.10841967258E+04  0.10871988597E+04  0.80419002446E+02 0. -1.
<mgrwt>
<rscale>  0 0.80739212E+02</rscale>
<asrwt>0</asrwt>
<pdfrwt beam="1">  1        1 0.25714827E+00 0.80739212E+02</pdfrwt>
<pdfrwt beam="2">  1       -1 0.65895960E-03 0.80739212E+02</pdfrwt>
<totfact> 0.17675096E+04</totfact>
</mgrwt>
</event>
<event>
 4    1  0.4940461E-001  0.8082004E+02  0.7546771E-02  0.1326740E+00
          1   -1    0    0  501    0  0.00000000000E+00  0.00000000000E+00  0.22732449729E+03  0.22732449729E+03  0.00000000000E+00 0. -1.
         -1   -1    0    0    0  501 -0.00000000000E+00 -0.00000000000E+00 -0.30766852176E+02  0.30766852176E+02  0.00000000000E+00 0.  1.
         24    1    1    2    0    0 -0.78605633487E+01 -0.16954060775E+01  0.65105837065E+02  0.10378173651E+03  0.80419002446E+02 0.  1.
        -24    1    1    2    0    0  0.78605633487E+01  0.16954060775E+01  0.13145180805E+03  0.15430961296E+03  0.80419002446E+02 0.  1.
<mgrwt>
<rscale>  0 0.80820040E+02</rscale>
<asrwt>0</asrwt>
<pdfrwt beam="1">  1        1 0.34972998E-01 0.80820040E+02</pdfrwt>
<pdfrwt beam="2">  1       -1 0.47333620E-02 0.80820040E+02</pdfrwt>
<totfact> 0.20953596E+04</totfact>
</mgrwt>
</event>
<event>
 4    1  0.4940461E-001  0.8061435E+02  0.7546771E-02  0.1327317E+00
          2   -1    0    0  501    0  0.00000000000E+00  0.00000000000E+00  0.18771491483E+03  0.18771491483E+03  0.00000000000E+00 0. -1.
         -2   -1    0    0    0  501 -0.00000000000E+00 -0.00000000000E+00 -0.76737846978E+02  0.76737846978E+02  0.00000000000E+00 0.  1.
         24    1    1    2    0    0  0.16412415267E+01  0.53631893563E+01  0.15344809989E+03  0.17333491509E+03  0.80419002446E+02 0.  0.
        -24    1    1    2    0    0 -0.16412415267E+01 -0.53631893563E+01 -0.42471032041E+02  0.91117846720E+02  0.80419002446E+02 0.  1.
<mgrwt>
<rscale>  0 0.80614350E+02</rscale>
<asrwt>0</asrwt>
<pdfrwt beam="1">  1        2 0.28879218E-01 0.80614350E+02</pdfrwt>
<pdfrwt beam="2">  1       -2 0.11805823E-01 0.80614350E+02</pdfrwt>
<totfact> 0.84112725E+03</totfact>
</mgrwt>
</event>
<event>
 4    1  0.4940461E-001  0.1379169E+03  0.7546771E-02  0.1216160E+00
          2   -1    0    0  501    0  0.00000000000E+00  0.00000000000E+00  0.24806813145E+03  0.24806813145E+03  0.00000000000E+00 0. -1.
         -2   -1    0    0    0  501 -0.00000000000E+00 -0.00000000000E+00 -0.77313418740E+02  0.77313418740E+02  0.00000000000E+00 0.  1.
         24    1    1    2    0    0 -0.73623004688E+02  0.84460030921E+02  0.10014088572E+03  0.17043842463E+03  0.80419002446E+02 0. -1.
        -24    1    1    2    0    0  0.73623004688E+02 -0.84460030921E+02  0.70613826995E+02  0.15494312556E+03  0.80419002446E+02 0.  0.
<mgrwt>
<rscale>  0 0.13791686E+03</rscale>
<asrwt>0</asrwt>
<pdfrwt beam="1">  1        2 0.38164328E-01 0.13791686E+03</pdfrwt>
<pdfrwt beam="2">  1       -2 0.11894372E-01 0.13791686E+03</pdfrwt>
<totfact> 0.64338750E+03</totfact>
</mgrwt>
</event>
<event>
 4    1  0.4940461E-001  0.9381551E+02  0.7546771E-02  0.1293866E+00
          4   -1    0    0  501    0  0.00000000000E+00  0.00000000000E+00  0.96271819339E+02  0.96271819339E+02  0.00000000000E+00 0. -1.
         -4   -1    0    0    0  501 -0.00000000000E+00 -0.00000000000E+00 -0.10750165212E+03  0.10750165212E+03  0.00000000000E+00 0.  1.
         24    1    1    2    0    0 -0.27030832265E+02 -0.40043338173E+02  0.33789964122E+02  0.99715156595E+02  0.80419002446E+02 0. -1.
        -24    1    1    2    0    0  0.27030832265E+02  0.40043338173E+02 -0.45019796903E+02  0.10405831486E+03  0.80419002446E+02 0.  1.
<mgrwt>
<rscale>  0 0.93815515E+02</rscale>
<asrwt>0</asrwt>
<pdfrwt beam="1">  1        4 0.14811049E-01 0.93815515E+02</pdfrwt>
<pdfrwt beam="2">  1       -4 0.16538716E-01 0.93815515E+02</pdfrwt>
<totfact> 0.18379309E+03</totfact>
</mgrwt>
</event>
<event>
 4    1  0.4940461E-001  0.9613345E+02  0.7546771E-02  0.1288643E+00
         -2   -1    0    0    0  501 -0.00000000000E+00  0.00000000000E+00  0.25595964172E+04  0.25595964172E+04  0.00000000000E+00 0.  1.
          2   -1    0    0  501    0  0.00000000000E+00 -0.00000000000E+00 -0.66499717480E+01  0.66499717480E+01  0.00000000000E+00 0. -1.
         24    1    1    2    0    0 -0.39679026138E+02 -0.34640994507E+02  0.40900921917E+03  0.42015494872E+03  0.80419002446E+02 0. -1.
        -24    1    1    2    0    0  0.39679026138E+02  0.34640994507E+02  0.21439372263E+04  0.21460914402E+04  0.80419002446E+02 0.  1.
<mgrwt>
<rscale>  0 0.96133447E+02</rscale>
<asrwt>0</asrwt>
<pdfrwt beam="1">  1        2 0.10230746E-02 0.96133447E+02</pdfrwt>
<pdfrwt beam="2">  1       -2 0.39378328E+00 0.96133447E+02</pdfrwt>
<totfact> 0.13948945E+02</totfact>
</mgrwt>
</event>
<event>
 4    1  0.4940461E-001  0.8546895E+02  0.7546771E-02  0.1314211E+00
          2   -1    0    0  501    0  0.00000000000E+00  0.00000000000E+00  0.28767042145E+04  0.28767042145E+04  0.00000000000E+00 0. -1.
         -2   -1    0    0    0  501 -0.00000000000E+00 -0.00000000000E+00 -0.25508914808E+01  0.25508914808E+01  0.00000000000E+00 0.  1.
         24    1    1    2    0    0  0.26879802999E+02  0.10733228417E+02  0.15339368636E+04  0.15363161275E+04  0.80419002446E+02 0.  0.
        -24    1    1    2    0    0 -0.26879802999E+02 -0.10733228417E+02  0.13402164594E+04  0.13429389785E+04  0.80419002446E+02 0. -1.
<mgrwt>
<rscale>  0 0.85468953E+02</rscale>
<asrwt>0</asrwt>
<pdfrwt beam="1">  1        2 0.44256729E+00 0.85468953E+02</pdfrwt>
<pdfrwt beam="2">  1       -2 0.39244714E-03 0.85468953E+02</pdfrwt>
<totfact> 0.19573063E+04</totfact>
</mgrwt>
</event>
<event>
 4    1  0.4940461E-001  0.8477900E+02  0.7546771E-02  0.1316011E+00
          1   -1    0    0  501    0  0.00000000000E+00  0.00000000000E+00  0.82000476015E+03  0.82000476015E+03  0.00000000000E+00 0. -1.
         -1   -1    0    0    0  501 -0.00000000000E+00 -0.00000000000E+00 -0.19823529017E+02  0.19823529017E+02  0.00000000000E+00 0.  1.
         24    1    1    2    0    0 -0.34046409517E+01  0.26620867092E+02  0.86462178634E+02  0.12109164477E+03  0.80419002446E+02 0.  1.
        -24    1    1    2    0    0  0.34046409517E+01 -0.26620867092E+02  0.71371905250E+03  0.71873664439E+03  0.80419002446E+02 0. -1.
<mgrwt>
<rscale>  0 0.84778996E+02</rscale>
<asrwt>0</asrwt>
<pdfrwt beam="1">  1        1 0.12615455E+00 0.84778996E+02</pdfrwt>
<pdfrwt beam="2">  1       -1 0.30497743E-02 0.84778996E+02</pdfrwt>
<totfact> 0.76503501E+03</totfact>
</mgrwt>
</event>
<event>
 4    1  0.4940461E-001  0.8081584E+02  0.7546771E-02  0.1326752E+00
          2   -1    0    0  501    0  0.00000000000E+00  0.00000000000E+00  0.18845723492E+04  0.18845723492E+04  0.00000000000E+00 0. -1.
         -2   -1    0    0    0  501 -0.00000000000E+00 -0.00000000000E+00 -0.40079047772E+01  0.40079047772E+01  0.00000000000E+00 0.  1.
         24    1    1    2    0    0  0.68402658279E+01 -0.41461908295E+01  0.59293505673E+03  0.59841722701E+03  0.80419002446E+02 0.  0.
        -24    1    1    2    0    0 -0.68402658279E+01  0.41461908295E+01  0.12876293877E+04  0.12901630270E+04  0.80419002446E+02 0. -1.
<mgrwt>
<rscale>  0 0.80815826E+02</rscale>
<asrwt>0</asrwt>
<pdfrwt beam="1">  1        2 0.28993350E+00 0.80815836E+02</pdfrwt>
<pdfrwt beam="2">  1       -2 0.61660224E-03 0.80815836E+02</pdfrwt>
<totfact> 0.33958817E+04</totfact>
</mgrwt>
</event>
<event>
 4    1  0.4940461E-001  0.8597119E+02  0.7546771E-02  0.1312912E+00
         -2   -1    0    0    0  501 -0.00000000000E+00  0.00000000000E+00  0.23888418437E+02  0.23888418437E+02  0.00000000000E+00 0.  1.
          2   -1    0    0  501    0  0.00000000000E+00 -0.00000000000E+00 -0.94256767561E+03  0.94256767561E+03  0.00000000000E+00 0. -1.
         24    1    1    2    0    0 -0.30208705579E+02  0.33562131331E+01 -0.85539478312E+03  0.85970418226E+03  0.80419002446E+02 0. -1.
        -24    1    1    2    0    0  0.30208705579E+02 -0.33562131331E+01 -0.63284474058E+02  0.10675191179E+03  0.80419002446E+02 0.  1.
<mgrwt>
<rscale>  0 0.85971193E+02</rscale>
<asrwt>0</asrwt>
<pdfrwt beam="1">  1        2 0.14501040E+00 0.85971193E+02</pdfrwt>
<pdfrwt beam="2">  1       -2 0.36751416E-02 0.85971193E+02</pdfrwt>
<totfact> 0.83780308E+03</totfact>
</mgrwt>
</event>
<event>
 4    1  0.4940461E-001  0.1074620E+03  0.7546771E-02  0.1265343E+00
          2   -1    0    0  501    0  0.00000000000E+00  0.00000000000E+00  0.44385316117E+03  0.44385316117E+03  0.00000000000E+00 0. -1.
         -2   -1    0    0    0  501 -0.00000000000E+00 -0.00000000000E+00 -0.28948190481E+02  0.28948190481E+02  0.00000000000E+00 0.  1.
         24    1    1    2    0    0  0.98398818574E+01  0.70597786875E+02  0.28266672829E+03  0.30240463955E+03  0.80419002446E+02 0.  0.
        -24    1    1    2    0    0 -0.98398818574E+01 -0.70597786875E+02  0.13223824240E+03  0.17039671210E+03  0.80419002446E+02 0. -1.
<mgrwt>
<rscale>  0 0.10746202E+03</rscale>
<asrwt>0</asrwt>
<pdfrwt beam="1">  1        2 0.68285097E-01 0.10746202E+03</pdfrwt>
<pdfrwt beam="2">  1       -2 0.44535681E-02 0.10746202E+03</pdfrwt>
<totfact> 0.15365826E+04</totfact>
</mgrwt>
</event>
<event>
 4    1  0.4940461E-001  0.9512883E+02  0.7546771E-02  0.1290886E+00
          2   -1    0    0  501    0  0.00000000000E+00  0.00000000000E+00  0.11986901280E+04  0.11986901280E+04  0.00000000000E+00 0. -1.
         -2   -1    0    0    0  501 -0.00000000000E+00 -0.00000000000E+00 -0.81086835059E+01  0.81086835059E+01  0.00000000000E+00 0.  1.
         24    1    1    2    0    0  0.30872592653E+02 -0.40362880445E+02  0.75374796191E+03  0.75972724391E+03  0.80419002446E+02 0.  1.
        -24    1    1    2    0    0 -0.30872592653E+02  0.40362880445E+02  0.43683348256E+03  0.44707156758E+03  0.80419002446E+02 0.  0.
<mgrwt>
<rscale>  0 0.95128834E+02</rscale>
<asrwt>0</asrwt>
<pdfrwt beam="1">  1        2 0.18441373E+00 0.95128834E+02</pdfrwt>
<pdfrwt beam="2">  1       -2 0.12474907E-02 0.95128834E+02</pdfrwt>
<totfact> 0.28595975E+04</totfact>
</mgrwt>
</event>
<event>
 4    1  0.4940461E-001  0.9008730E+02  0.7546771E-02  0.1302640E+00
         -1   -1    0    0    0  501 -0.00000000000E+00  0.00000000000E+00  0.48363565213E+02  0.48363565213E+02  0.00000000000E+00 0.  1.
          1   -1    0    0  501    0  0.00000000000E+00 -0.00000000000E+00 -0.18568921064E+03  0.18568921064E+03  0.00000000000E+00 0. -1.
         24    1    1    2    0    0  0.12330211035E+01  0.40583068769E+02 -0.32346083381E+02  0.95718289142E+02  0.80419002446E+02 0.  0.
        -24    1    1    2    0    0 -0.12330211035E+01 -0.40583068769E+02 -0.10497956204E+03  0.13833448671E+03  0.80419002446E+02 0.  1.
<mgrwt>
<rscale>  0 0.90087301E+02</rscale>
<asrwt>0</asrwt>
<pdfrwt beam="1">  1        1 0.28567571E-01 0.90087301E+02</pdfrwt>
<pdfrwt beam="2">  1       -1 0.74405484E-02 0.90087301E+02</pdfrwt>
<totfact> 0.13962890E+04</totfact>
</mgrwt>
</event>
<event>
 4    1  0.4940461E-001  0.8079572E+02  0.7546771E-02  0.1326808E+00
          2   -1    0    0  501    0  0.00000000000E+00  0.00000000000E+00  0.29766132883E+03  0.29766132883E+03  0.00000000000E+00 0. -1.
         -2   -1    0    0    0  501 -0.00000000000E+00 -0.00000000000E+00 -0.23388926050E+02  0.23388926050E+02  0.00000000000E+00 0.  1.
         24    1    1    2    0    0  0.37326079096E+01 -0.68408196642E+01  0.97055216060E+02  0.12628404529E+03  0.80419002446E+02 0.  0.
        -24    1    1    2    0    0 -0.37326079096E+01  0.68408196642E+01  0.17721718672E+03  0.19476620959E+03  0.80419002446E+02 0. -1.
<mgrwt>
<rscale>  0 0.80795710E+02</rscale>
<asrwt>0</asrwt>
<pdfrwt beam="1">  1        2 0.45794048E-01 0.80795720E+02</pdfrwt>
<pdfrwt beam="2">  1       -2 0.35982965E-02 0.80795720E+02</pdfrwt>
<totfact> 0.31058460E+04</totfact>
</mgrwt>
</event>
<event>
 4    1  0.4940461E-001  0.1001990E+03  0.7546771E-02  0.1279878E+00
          2   -1    0    0  501    0  0.00000000000E+00  0.00000000000E+00  0.26691191389E+04  0.26691191389E+04  0.00000000000E+00 0. -1.
         -2   -1    0    0    0  501 -0.00000000000E+00 -0.00000000000E+00 -0.70195855715E+01  0.70195855715E+01  0.00000000000E+00 0.  1.
         24    1    1    2    0    0 -0.57373884555E+02 -0.16758649598E+02  0.22426525757E+04  0.22448898427E+04  0.80419002446E+02 0. -1.
        -24    1    1    2    0    0  0.57373884555E+02  0.16758649598E+02  0.41944697765E+03  0.43124888171E+03  0.80419002446E+02 0.  1.
<mgrwt>
<rscale>  0 0.10019896E+03</rscale>
<asrwt>0</asrwt>
<pdfrwt beam="1">  1        2 0.41063291E+00 0.10019896E+03</pdfrwt>
<pdfrwt beam="2">  1       -2 0.10799384E-02 0.10019896E+03</pdfrwt>
<totfact> 0.61437823E+03</totfact>
</mgrwt>
</event>
<event>
 4    1  0.4940461E-001  0.8879658E+02  0.7546771E-02  0.1305792E+00
          2   -1    0    0  501    0  0.00000000000E+00  0.00000000000E+00  0.49065428572E+03  0.49065428572E+03  0.00000000000E+00 0. -1.
         -2   -1    0    0    0  501 -0.00000000000E+00 -0.00000000000E+00 -0.16074245208E+02  0.16074245208E+02  0.00000000000E+00 0.  1.
         24    1    1    2    0    0 -0.34842120787E+02 -0.14270360929E+02  0.24138948880E+03  0.25720365052E+03  0.80419002446E+02 0.  0.
        -24    1    1    2    0    0  0.34842120787E+02  0.14270360929E+02  0.23319055171E+03  0.24952488041E+03  0.80419002446E+02 0.  1.
<mgrwt>
<rscale>  0 0.88796580E+02</rscale>
<asrwt>0</asrwt>
<pdfrwt beam="1">  1        2 0.75485263E-01 0.88796580E+02</pdfrwt>
<pdfrwt beam="2">  1       -2 0.24729612E-02 0.88796580E+02</pdfrwt>
<totfact> 0.32005340E+04</totfact>
</mgrwt>
</event>
<event>
 4    1  0.4940461E-001  0.8959346E+02  0.7546771E-02  0.1303839E+00
          2   -1    0    0  501    0  0.00000000000E+00  0.00000000000E+00  0.67941721138E+03  0.67941721138E+03  0.00000000000E+00 0. -1.
         -2   -1    0    0    0  501 -0.00000000000E+00 -0.00000000000E+00 -0.50519125303E+02  0.50519125303E+02  0.00000000000E+00 0.  1.
         24    1    1    2    0    0 -0.58718950352E+01  0.39055000775E+02  0.63390309314E+03  0.64020318625E+03  0.80419002446E+02 0. -1.
        -24    1    1    2    0    0  0.58718950352E+01 -0.39055000775E+02 -0.50050070628E+01  0.89733150435E+02  0.80419002446E+02 0.  1.
<mgrwt>
<rscale>  0 0.89593461E+02</rscale>
<asrwt>0</asrwt>
<pdfrwt beam="1">  1        2 0.10452572E+00 0.89593461E+02</pdfrwt>
<pdfrwt beam="2">  1       -2 0.77721736E-02 0.89593461E+02</pdfrwt>
<totfact> 0.41043521E+03</totfact>
</mgrwt>
</event>
<event>
 4    1  0.4940461E-001  0.9765415E+02  0.7546771E-02  0.1285308E+00
         -2   -1    0    0    0  501 -0.00000000000E+00  0.00000000000E+00  0.46873392340E+02  0.46873392340E+02  0.00000000000E+00 0.  1.
          2   -1    0    0  501    0  0.00000000000E+00 -0.00000000000E+00 -0.23484879923E+03  0.23484879923E+03  0.00000000000E+00 0. -1.
         24    1    1    2    0    0 -0.51505723503E+02 -0.20402884696E+02 -0.14549420298E+03  0.17522812649E+03  0.80419002446E+02 0. -1.
        -24    1    1    2    0    0  0.51505723503E+02  0.20402884696E+02 -0.42481203909E+02  0.10649406508E+03  0.80419002446E+02 0.  1.
<mgrwt>
<rscale>  0 0.97654151E+02</rscale>
<asrwt>0</asrwt>
<pdfrwt beam="1">  1        2 0.36130585E-01 0.97654151E+02</pdfrwt>
<pdfrwt beam="2">  1       -2 0.72112911E-02 0.97654151E+02</pdfrwt>
<totfact> 0.14452384E+04</totfact>
</mgrwt>
</event>
<event>
 4    1  0.4940461E-001  0.9825838E+02  0.7546771E-02  0.1284002E+00
          2   -1    0    0  501    0  0.00000000000E+00  0.00000000000E+00  0.55557754519E+03  0.55557754519E+03  0.00000000000E+00 0. -1.
         -2   -1    0    0    0  501 -0.00000000000E+00 -0.00000000000E+00 -0.23071079979E+02  0.23071079979E+02  0.00000000000E+00 0.  1.
         24    1    1    2    0    0  0.28693137880E+02 -0.48623018578E+02  0.40997832947E+03  0.42158859175E+03  0.80419002446E+02 0. -1.
        -24    1    1    2    0    0 -0.28693137880E+02  0.48623018578E+02  0.12252813573E+03  0.15706003342E+03  0.80419002446E+02 0.  1.
<mgrwt>
<rscale>  0 0.98258384E+02</rscale>
<asrwt>0</asrwt>
<pdfrwt beam="1">  1        2 0.85473458E-01 0.98258384E+02</pdfrwt>
<pdfrwt beam="2">  1       -2 0.35493973E-02 0.98258384E+02</pdfrwt>
<totfact> 0.16694042E+04</totfact>
</mgrwt>
</event>
<event>
 4    1  0.4940461E-001  0.8473615E+02  0.7546771E-02  0.1316124E+00
          1   -1    0    0  501    0  0.00000000000E+00  0.00000000000E+00  0.26468705232E+04  0.26468705232E+04  0.00000000000E+00 0. -1.
         -1   -1    0    0    0  501 -0.00000000000E+00 -0.00000000000E+00 -0.33959465336E+01  0.33959465336E+01  0.00000000000E+00 0.  1.
         24    1    1    2    0    0 -0.19750096269E+01  0.26628908636E+02  0.72736045713E+03  0.73227962555E+03  0.80419002446E+02 0.  1.
        -24    1    1    2    0    0  0.19750096269E+01 -0.26628908636E+02  0.19161141196E+04  0.19179868442E+04  0.80419002446E+02 0. -1.
<mgrwt>
<rscale>  0 0.84736152E+02</rscale>
<asrwt>0</asrwt>
<pdfrwt beam="1">  1        1 0.40720920E+00 0.84736152E+02</pdfrwt>
<pdfrwt beam="2">  1       -1 0.52245543E-03 0.84736152E+02</pdfrwt>
<totfact> 0.59365374E+03</totfact>
</mgrwt>
</event>
<event>
 4    1  0.4940461E-001  0.1019395E+03  0.7546771E-02  0.1276269E+00
         -2   -1    0    0    0  501 -0.00000000000E+00  0.00000000000E+00  0.33744599279E+02  0.33744599279E+02  0.00000000000E+00 0.  1.
          2   -1    0    0  501    0  0.00000000000E+00 -0.00000000000E+00 -0.81089035259E+03  0.81089035259E+03  0.00000000000E+00 0. -1.
         24    1    1    2    0    0  0.11368975698E+02  0.61605211850E+02 -0.72116804946E+03  0.72833716591E+03  0.80419002446E+02 0. -1.
        -24    1    1    2    0    0 -0.11368975698E+02 -0.61605211850E+02 -0.55977703853E+02  0.11629778596E+03  0.80419002446E+02 0.  1.
<mgrwt>
<rscale>  0 0.10193955E+03</rscale>
<asrwt>0</asrwt>
<pdfrwt beam="1">  1        2 0.12475235E+00 0.10193955E+03</pdfrwt>
<pdfrwt beam="2">  1       -2 0.51914774E-02 0.10193955E+03</pdfrwt>
<totfact> 0.61489756E+03</totfact>
</mgrwt>
</event>
<event>
 4    1  0.4940461E-001  0.8219954E+02  0.7546771E-02  0.1322923E+00
         -1   -1    0    0    0  501 -0.00000000000E+00  0.00000000000E+00  0.25439646311E+03  0.25439646311E+03  0.00000000000E+00 0.  1.
          1   -1    0    0  501    0  0.00000000000E+00 -0.00000000000E+00 -0.17601869573E+03  0.17601869573E+03  0.00000000000E+00 0. -1.
         24    1    1    2    0    0 -0.14693278610E+02  0.85823170366E+01  0.23749622356E+03  0.25131896220E+03  0.80419002446E+02 0.  1.
        -24    1    1    2    0    0  0.14693278610E+02 -0.85823170366E+01 -0.15911845617E+03  0.17909619664E+03  0.80419002446E+02 0. -1.
<mgrwt>
<rscale>  0 0.82199541E+02</rscale>
<asrwt>0</asrwt>
<pdfrwt beam="1">  1        1 0.27079800E-01 0.82199541E+02</pdfrwt>
<pdfrwt beam="2">  1       -1 0.39137917E-01 0.82199541E+02</pdfrwt>
<totfact> 0.10808893E+03</totfact>
</mgrwt>
</event>
<event>
 4    1  0.4940461E-001  0.8393662E+02  0.7546771E-02  0.1318237E+00
          2   -1    0    0  501    0  0.00000000000E+00  0.00000000000E+00  0.20370224006E+03  0.20370224006E+03  0.00000000000E+00 0. -1.
         -2   -1    0    0    0  501 -0.00000000000E+00 -0.00000000000E+00 -0.11707579218E+03  0.11707579218E+03  0.00000000000E+00 0.  1.
         24    1    1    2    0    0  0.83871582979E+01 -0.22534321210E+02  0.17794257413E+03  0.19674581495E+03  0.80419002446E+02 0. -1.
        -24    1    1    2    0    0 -0.83871582979E+01  0.22534321210E+02 -0.91316126259E+02  0.12403221729E+03  0.80419002446E+02 0.  1.
<mgrwt>
<rscale>  0 0.83936619E+02</rscale>
<asrwt>0</asrwt>
<pdfrwt beam="1">  1        2 0.31338806E-01 0.83936619E+02</pdfrwt>
<pdfrwt beam="2">  1       -2 0.18011660E-01 0.83936619E+02</pdfrwt>
<totfact> 0.39187434E+03</totfact>
</mgrwt>
</event>
<event>
 4    1  0.4940461E-001  0.8142774E+02  0.7546771E-02  0.1325048E+00
          2   -1    0    0  501    0  0.00000000000E+00  0.00000000000E+00  0.35550925446E+04  0.35550925446E+04  0.00000000000E+00 0. -1.
         -2   -1    0    0    0  501 -0.00000000000E+00 -0.00000000000E+00 -0.42188897847E+01  0.42188897847E+01  0.00000000000E+00 0.  1.
         24    1    1    2    0    0  0.12707419869E+02  0.13350570198E+01  0.31047399265E+04  0.31058075420E+04  0.80419002446E+02 0. -1.
        -24    1    1    2    0    0 -0.12707419869E+02 -0.13350570198E+01  0.44613372831E+03  0.45350389236E+03  0.80419002446E+02 0.  0.
<mgrwt>
<rscale>  0 0.81427740E+02</rscale>
<asrwt>0</asrwt>
<pdfrwt beam="1">  1        2 0.54693492E+00 0.81427740E+02</pdfrwt>
<pdfrwt beam="2">  1       -2 0.64906281E-03 0.81427740E+02</pdfrwt>
<totfact> 0.38178249E+03</totfact>
</mgrwt>
</event>
<event>
 4    1  0.4940461E-001  0.8458450E+02  0.7546771E-02  0.1316523E+00
          2   -1    0    0  501    0  0.00000000000E+00  0.00000000000E+00  0.35265807111E+03  0.35265807111E+03  0.00000000000E+00 0. -1.
         -2   -1    0    0    0  501 -0.00000000000E+00 -0.00000000000E+00 -0.20358570323E+02  0.20358570323E+02  0.00000000000E+00 0.  1.
         24    1    1    2    0    0 -0.12638289224E+02 -0.22969382567E+02  0.15512661020E+03  0.17668842644E+03  0.80419002446E+02 0.  0.
        -24    1    1    2    0    0  0.12638289224E+02  0.22969382567E+02  0.17717289058E+03  0.19632821499E+03  0.80419002446E+02 0.  0.
<mgrwt>
<rscale>  0 0.84584494E+02</rscale>
<asrwt>0</asrwt>
<pdfrwt beam="1">  1        2 0.54255083E-01 0.84584505E+02</pdfrwt>
<pdfrwt beam="2">  1       -2 0.31320880E-02 0.84584505E+02</pdfrwt>
<totfact> 0.32034917E+04</totfact>
</mgrwt>
</event>
<event>
 4    1  0.4940461E-001  0.8586509E+02  0.7546771E-02  0.1313186E+00
          1   -1    0    0  501    0  0.00000000000E+00  0.00000000000E+00  0.13765067944E+04  0.13765067944E+04  0.00000000000E+00 0. -1.
         -1   -1    0    0    0  501 -0.00000000000E+00 -0.00000000000E+00 -0.77660924721E+01  0.77660924721E+01  0.00000000000E+00 0.  1.
         24    1    1    2    0    0 -0.20827236018E+02  0.21721521788E+02  0.29881091991E+03  0.31090316833E+03  0.80419002446E+02 0.  1.
        -24    1    1    2    0    0  0.20827236018E+02 -0.21721521788E+02  0.10699297820E+04  0.10733697185E+04  0.80419002446E+02 0. -1.
<mgrwt>
<rscale>  0 0.85865093E+02</rscale>
<asrwt>0</asrwt>
<pdfrwt beam="1">  1        1 0.21177008E+00 0.85865093E+02</pdfrwt>
<pdfrwt beam="2">  1       -1 0.11947846E-02 0.85865093E+02</pdfrwt>
<totfact> 0.11845052E+04</totfact>
</mgrwt>
</event>
<event>
 4    1  0.4940461E-001  0.9080811E+02  0.7546771E-02  0.1300906E+00
         -3   -1    0    0    0  501 -0.00000000000E+00  0.00000000000E+00  0.98350634413E+02  0.98350634413E+02  0.00000000000E+00 0.  1.
          3   -1    0    0  501    0  0.00000000000E+00 -0.00000000000E+00 -0.85749479248E+02  0.85749479248E+02  0.00000000000E+00 0. -1.
         24    1    1    2    0    0 -0.40081834847E+02 -0.13127830229E+02 -0.74212465179E+01  0.91110835061E+02  0.80419002446E+02 0. -1.
        -24    1    1    2    0    0  0.40081834847E+02  0.13127830229E+02  0.20022401683E+02  0.92989278601E+02  0.80419002446E+02 0.  1.
<mgrwt>
<rscale>  0 0.90808102E+02</rscale>
<asrwt>0</asrwt>
<pdfrwt beam="1">  1        3 0.13192227E-01 0.90808114E+02</pdfrwt>
<pdfrwt beam="2">  1       -3 0.15130867E-01 0.90808114E+02</pdfrwt>
<totfact> 0.35567945E+03</totfact>
</mgrwt>
</event>
<event>
 4    1  0.4940461E-001  0.1625146E+03  0.7546771E-02  0.1185887E+00
          1   -1    0    0  501    0  0.00000000000E+00  0.00000000000E+00  0.13673824188E+04  0.13673824188E+04  0.00000000000E+00 0. -1.
         -1   -1    0    0    0  501 -0.00000000000E+00 -0.00000000000E+00 -0.31356693751E+02  0.31356693751E+02  0.00000000000E+00 0.  1.
         24    1    1    2    0    0  0.14049411687E+03 -0.14323711970E+02  0.23461625225E+03  0.28540456790E+03  0.80419002446E+02 0. -1.
        -24    1    1    2    0    0 -0.14049411687E+03  0.14323711970E+02  0.11014094728E+04  0.11133345446E+04  0.80419002446E+02 0.  1.
<mgrwt>
<rscale>  0 0.16251456E+03</rscale>
<asrwt>0</asrwt>
<pdfrwt beam="1">  1        1 0.21036648E+00 0.16251456E+03</pdfrwt>
<pdfrwt beam="2">  1       -1 0.48241078E-02 0.16251456E+03</pdfrwt>
<totfact> 0.16329126E+03</totfact>
</mgrwt>
</event>
<event>
 4    1  0.4940461E-001  0.9380130E+02  0.7546771E-02  0.1293899E+00
         -3   -1    0    0    0  501 -0.00000000000E+00  0.00000000000E+00  0.23925555085E+03  0.23925555085E+03  0.00000000000E+00 0.  1.
          3   -1    0    0  501    0  0.00000000000E+00 -0.00000000000E+00 -0.36800730213E+02  0.36800730213E+02  0.00000000000E+00 0. -1.
         24    1    1    2    0    0  0.48095505764E+02 -0.42766342287E+01  0.10485921056E+03  0.14069163895E+03  0.80419002446E+02 0.  1.
        -24    1    1    2    0    0 -0.48095505764E+02  0.42766342287E+01  0.97595610071E+02  0.13536464211E+03  0.80419002446E+02 0. -1.
<mgrwt>
<rscale>  0 0.93801297E+02</rscale>
<asrwt>0</asrwt>
<pdfrwt beam="1">  1        3 0.56616509E-02 0.93801297E+02</pdfrwt>
<pdfrwt beam="2">  1       -3 0.36808545E-01 0.93801297E+02</pdfrwt>
<totfact> 0.28964837E+03</totfact>
</mgrwt>
</event>
<event>
 4    1  0.4940461E-001  0.9893552E+02  0.7546771E-02  0.1282550E+00
          2   -1    0    0  501    0  0.00000000000E+00  0.00000000000E+00  0.30413469359E+03  0.30413469359E+03  0.00000000000E+00 0. -1.
         -2   -1    0    0    0  501 -0.00000000000E+00 -0.00000000000E+00 -0.32766320170E+02  0.32766320170E+02  0.00000000000E+00 0.  1.
         24    1    1    2    0    0 -0.99835441581E+01 -0.56756932388E+02  0.15814273576E+03  0.18654050862E+03  0.80419002446E+02 0. -1.
        -24    1    1    2    0    0  0.99835441581E+01  0.56756932388E+02  0.11322563766E+03  0.15036050514E+03  0.80419002446E+02 0.  1.
<mgrwt>
<rscale>  0 0.98935517E+02</rscale>
<asrwt>0</asrwt>
<pdfrwt beam="1">  1        2 0.46789951E-01 0.98935517E+02</pdfrwt>
<pdfrwt beam="2">  1       -2 0.50409725E-02 0.98935517E+02</pdfrwt>
<totfact> 0.18897047E+04</totfact>
</mgrwt>
</event>
<event>
 4    1  0.4940461E-001  0.8366700E+02  0.7546771E-02  0.1318956E+00
          2   -1    0    0  501    0  0.00000000000E+00  0.00000000000E+00  0.68281861127E+03  0.68281861127E+03  0.00000000000E+00 0. -1.
         -2   -1    0    0    0  501 -0.00000000000E+00 -0.00000000000E+00 -0.14838730669E+02  0.14838730669E+02  0.00000000000E+00 0.  1.
         24    1    1    2    0    0  0.62121623526E+01  0.22234222352E+02  0.52793180934E+03  0.53452049809E+03  0.80419002446E+02 0.  0.
        -24    1    1    2    0    0 -0.62121623526E+01 -0.22234222352E+02  0.14004807126E+03  0.16313684385E+03  0.80419002446E+02 0.  1.
<mgrwt>
<rscale>  0 0.83667004E+02</rscale>
<asrwt>0</asrwt>
<pdfrwt beam="1">  1        2 0.10504899E+00 0.83667004E+02</pdfrwt>
<pdfrwt beam="2">  1       -2 0.22828822E-02 0.83667004E+02</pdfrwt>
<totfact> 0.24725352E+04</totfact>
</mgrwt>
</event>
<event>
 4    1  0.4940461E-001  0.1624949E+03  0.7546771E-02  0.1185908E+00
          4   -1    0    0  501    0  0.00000000000E+00  0.00000000000E+00  0.62818629628E+03  0.62818629628E+03  0.00000000000E+00 0. -1.
         -4   -1    0    0    0  501 -0.00000000000E+00 -0.00000000000E+00 -0.55783441790E+02  0.55783441790E+02  0.00000000000E+00 0.  1.
         24    1    1    2    0    0 -0.55888887366E+02  0.12966808294E+03  0.45599120418E+03  0.48407909861E+03  0.80419002446E+02 0. -1.
        -24    1    1    2    0    0  0.55888887366E+02 -0.12966808294E+03  0.11641165031E+03  0.19989063946E+03  0.80419002446E+02 0.  1.
<mgrwt>
<rscale>  0 0.16249491E+03</rscale>
<asrwt>0</asrwt>
<pdfrwt beam="1">  1        4 0.96644041E-01 0.16249491E+03</pdfrwt>
<pdfrwt beam="2">  1       -4 0.85820684E-02 0.16249491E+03</pdfrwt>
<totfact> 0.15673342E+02</totfact>
</mgrwt>
</event>
<event>
 4    1  0.4940461E-001  0.8468729E+02  0.7546771E-02  0.1316252E+00
          1   -1    0    0  501    0  0.00000000000E+00  0.00000000000E+00  0.23338506049E+03  0.23338506049E+03  0.00000000000E+00 0. -1.
         -1   -1    0    0    0  501 -0.00000000000E+00 -0.00000000000E+00 -0.31004965486E+02  0.31004965486E+02  0.00000000000E+00 0.  1.
         24    1    1    2    0    0 -0.27465072222E+01  0.26404125130E+02  0.88742305461E+02  0.12266675939E+03  0.80419002446E+02 0.  1.
        -24    1    1    2    0    0  0.27465072222E+01 -0.26404125130E+02  0.11363778954E+03  0.14172326659E+03  0.80419002446E+02 0. -1.
<mgrwt>
<rscale>  0 0.84687290E+02</rscale>
<asrwt>0</asrwt>
<pdfrwt beam="1">  1        1 0.35905393E-01 0.84687290E+02</pdfrwt>
<pdfrwt beam="2">  1       -1 0.47699948E-02 0.84687290E+02</pdfrwt>
<totfact> 0.20172276E+04</totfact>
</mgrwt>
</event>
<event>
 4    1  0.4940461E-001  0.9730297E+02  0.7546771E-02  0.1286072E+00
         -4   -1    0    0    0  501 -0.00000000000E+00  0.00000000000E+00  0.32112948745E+02  0.32112948745E+02  0.00000000000E+00 0.  1.
          4   -1    0    0  501    0  0.00000000000E+00 -0.00000000000E+00 -0.12345733211E+04  0.12345733211E+04  0.00000000000E+00 0. -1.
         24    1    1    2    0    0  0.22900403527E+02 -0.49761660381E+02 -0.11537975109E+04  0.11578931572E+04  0.80419002446E+02 0. -1.
        -24    1    1    2    0    0 -0.22900403527E+02  0.49761660381E+02 -0.48662861466E+02  0.10879311268E+03  0.80419002446E+02 0.  1.
<mgrwt>
<rscale>  0 0.97302966E+02</rscale>
<asrwt>0</asrwt>
<pdfrwt beam="1">  1        4 0.18993436E+00 0.97302966E+02</pdfrwt>
<pdfrwt beam="2">  1       -4 0.49404537E-02 0.97302966E+02</pdfrwt>
<totfact> 0.66099212E+01</totfact>
</mgrwt>
</event>
<event>
 4    1  0.4940461E-001  0.9463568E+02  0.7546771E-02  0.1291999E+00
          1   -1    0    0  501    0  0.00000000000E+00  0.00000000000E+00  0.34999647398E+03  0.34999647398E+03  0.00000000000E+00 0. -1.
         -1   -1    0    0    0  501 -0.00000000000E+00 -0.00000000000E+00 -0.31247207298E+02  0.31247207298E+02  0.00000000000E+00 0.  1.
         24    1    1    2    0    0  0.20872012864E+02 -0.45310659308E+02  0.78255630146E+02  0.12280006666E+03  0.80419002446E+02 0.  1.
        -24    1    1    2    0    0 -0.20872012864E+02  0.45310659308E+02  0.24049363653E+03  0.25844361461E+03  0.80419002446E+02 0. -1.
<mgrwt>
<rscale>  0 0.94635684E+02</rscale>
<asrwt>0</asrwt>
<pdfrwt beam="1">  1        1 0.53845609E-01 0.94635684E+02</pdfrwt>
<pdfrwt beam="2">  1       -1 0.48072629E-02 0.94635684E+02</pdfrwt>
<totfact> 0.12295808E+04</totfact>
</mgrwt>
</event>
<event>
 4    1  0.4940461E-001  0.8140951E+02  0.7546771E-02  0.1325098E+00
          1   -1    0    0  501    0  0.00000000000E+00  0.00000000000E+00  0.53850579862E+03  0.53850579862E+03  0.00000000000E+00 0. -1.
         -1   -1    0    0    0  501 -0.00000000000E+00 -0.00000000000E+00 -0.30022730567E+03  0.30022730567E+03  0.00000000000E+00 0.  1.
         24    1    1    2    0    0  0.92946851051E+01 -0.85965755593E+01 -0.29154181666E+03  0.30269479529E+03  0.80419002446E+02 0.  1.
        -24    1    1    2    0    0 -0.92946851051E+01  0.85965755593E+01  0.52982030961E+03  0.53603830899E+03  0.80419002446E+02 0. -1.
<mgrwt>
<rscale>  0 0.81409509E+02</rscale>
<asrwt>0</asrwt>
<pdfrwt beam="1">  1        1 0.82847046E-01 0.81409509E+02</pdfrwt>
<pdfrwt beam="2">  1       -1 0.46188816E-01 0.81409509E+02</pdfrwt>
<totfact> 0.20387221E+02</totfact>
</mgrwt>
</event>
<event>
 4    1  0.4940461E-001  0.8523415E+02  0.7546771E-02  0.1314821E+00
         -3   -1    0    0    0  501 -0.00000000000E+00  0.00000000000E+00  0.37079570145E+01  0.37079570145E+01  0.00000000000E+00 0.  1.
          3   -1    0    0  501    0  0.00000000000E+00 -0.00000000000E+00 -0.22349821480E+04  0.22349821480E+04  0.00000000000E+00 0. -1.
         24    1    1    2    0    0  0.10912576472E+02  0.26049192257E+02 -0.72248471964E+03  0.72749503834E+03  0.80419002446E+02 0. -1.
        -24    1    1    2    0    0 -0.10912576472E+02 -0.26049192257E+02 -0.15087894714E+04  0.15111950667E+04  0.80419002446E+02 0. -1.
<mgrwt>
<rscale>  0 0.85234152E+02</rscale>
<asrwt>0</asrwt>
<pdfrwt beam="1">  1        3 0.34384392E+00 0.85234152E+02</pdfrwt>
<pdfrwt beam="2">  1       -3 0.57045408E-03 0.85234152E+02</pdfrwt>
<totfact> 0.37953220E+02</totfact>
</mgrwt>
</event>
<event>
 4    1  0.4940461E-001  0.8598307E+02  0.7546771E-02  0.1312882E+00
         -1   -1    0    0    0  501 -0.00000000000E+00  0.00000000000E+00  0.10114566810E+03  0.10114566810E+03  0.00000000000E+00 0.  1.
          1   -1    0    0  501    0  0.00000000000E+00 -0.00000000000E+00 -0.77556601079E+02  0.77556601079E+02  0.00000000000E+00 0. -1.
         24    1    1    2    0    0  0.26097353397E+02 -0.15646076581E+02  0.33228900902E+02  0.92180515166E+02  0.80419002446E+02 0.  1.
        -24    1    1    2    0    0 -0.26097353397E+02  0.15646076581E+02 -0.96398338762E+01  0.86521754017E+02  0.80419002446E+02 0. -1.
<mgrwt>
<rscale>  0 0.85983065E+02</rscale>
<asrwt>0</asrwt>
<pdfrwt beam="1">  1        1 0.11931785E-01 0.85983065E+02</pdfrwt>
<pdfrwt beam="2">  1       -1 0.15560872E-01 0.85983065E+02</pdfrwt>
<totfact> 0.13651242E+04</totfact>
</mgrwt>
</event>
<event>
 4    1  0.4940461E-001  0.8113108E+02  0.7546771E-02  0.1325872E+00
          1   -1    0    0  501    0  0.00000000000E+00  0.00000000000E+00  0.10051260736E+02  0.10051260736E+02  0.00000000000E+00 0. -1.
         -1   -1    0    0    0  501 -0.00000000000E+00 -0.00000000000E+00 -0.86832960719E+03  0.86832960719E+03  0.00000000000E+00 0.  1.
         24    1    1    2    0    0  0.38965351213E+00  0.10718420199E+02 -0.64689516855E+03  0.65196289113E+03  0.80419002446E+02 0.  0.
        -24    1    1    2    0    0 -0.38965351213E+00 -0.10718420199E+02 -0.21138317790E+03  0.22641797680E+03  0.80419002446E+02 0. -1.
<mgrwt>
<rscale>  0 0.81131081E+02</rscale>
<asrwt>0</asrwt>
<pdfrwt beam="1">  1        1 0.15463472E-02 0.81131081E+02</pdfrwt>
<pdfrwt beam="2">  1       -1 0.13358922E+00 0.81131081E+02</pdfrwt>
<totfact> 0.40775744E+03</totfact>
</mgrwt>
</event>
<event>
 4    1  0.4940461E-001  0.9172015E+02  0.7546771E-02  0.1298739E+00
         -2   -1    0    0    0  501 -0.00000000000E+00  0.00000000000E+00  0.35050685118E+02  0.35050685118E+02  0.00000000000E+00 0.  1.
          2   -1    0    0  501    0  0.00000000000E+00 -0.00000000000E+00 -0.51753653805E+03  0.51753653805E+03  0.00000000000E+00 0. -1.
         24    1    1    2    0    0 -0.26713762421E+02 -0.35096226375E+02 -0.44356860439E+03  0.45295219722E+03  0.80419002446E+02 0. -1.
        -24    1    1    2    0    0  0.26713762421E+02  0.35096226375E+02 -0.38917248546E+02  0.99635025955E+02  0.80419002446E+02 0.  1.
<mgrwt>
<rscale>  0 0.91720151E+02</rscale>
<asrwt>0</asrwt>
<pdfrwt beam="1">  1        2 0.79621006E-01 0.91720151E+02</pdfrwt>
<pdfrwt beam="2">  1       -2 0.53924131E-02 0.91720151E+02</pdfrwt>
<totfact> 0.96676372E+03</totfact>
</mgrwt>
</event>
<event>
 4    1  0.4940461E-001  0.8143942E+02  0.7546771E-02  0.1325015E+00
         -4   -1    0    0    0  501 -0.00000000000E+00  0.00000000000E+00  0.30365230232E+02  0.30365230232E+02  0.00000000000E+00 0.  1.
          4   -1    0    0  501    0  0.00000000000E+00 -0.00000000000E+00 -0.24530808538E+03  0.24530808538E+03  0.00000000000E+00 0. -1.
         24    1    1    2    0    0 -0.67290265417E+01 -0.10949153598E+02 -0.15310527769E+03  0.17341743215E+03  0.80419002446E+02 0. -1.
        -24    1    1    2    0    0  0.67290265417E+01  0.10949153598E+02 -0.61837577463E+02  0.10225588347E+03  0.80419002446E+02 0. -1.
<mgrwt>
<rscale>  0 0.81439424E+02</rscale>
<asrwt>0</asrwt>
<pdfrwt beam="1">  1        4 0.37739706E-01 0.81439424E+02</pdfrwt>
<pdfrwt beam="2">  1       -4 0.46715738E-02 0.81439424E+02</pdfrwt>
<totfact> 0.26165075E+03</totfact>
</mgrwt>
</event>
<event>
 4    1  0.4940461E-001  0.9114796E+02  0.7546771E-02  0.1300095E+00
          1   -1    0    0  501    0  0.00000000000E+00  0.00000000000E+00  0.81314973746E+03  0.81314973746E+03  0.00000000000E+00 0. -1.
         -1   -1    0    0    0  501 -0.00000000000E+00 -0.00000000000E+00 -0.12158428497E+02  0.12158428497E+02  0.00000000000E+00 0.  1.
         24    1    1    2    0    0 -0.80064835432E+01 -0.42150095450E+02  0.23560038188E+03  0.25261728014E+03  0.80419002446E+02 0.  0.
        -24    1    1    2    0    0  0.80064835432E+01  0.42150095450E+02  0.56539092708E+03  0.57269088582E+03  0.80419002446E+02 0.  0.
<mgrwt>
<rscale>  0 0.91147958E+02</rscale>
<asrwt>0</asrwt>
<pdfrwt beam="1">  1        1 0.12509992E+00 0.91147958E+02</pdfrwt>
<pdfrwt beam="2">  1       -1 0.18705281E-02 0.91147958E+02</pdfrwt>
<totfact> 0.15681452E+04</totfact>
</mgrwt>
</event>
<event>
 4    1  0.4940461E-001  0.1052917E+03  0.7546771E-02  0.1269546E+00
         -2   -1    0    0    0  501 -0.00000000000E+00  0.00000000000E+00  0.17565945350E+02  0.17565945350E+02  0.00000000000E+00 0.  1.
          2   -1    0    0  501    0  0.00000000000E+00 -0.00000000000E+00 -0.75946462977E+03  0.75946462977E+03  0.00000000000E+00 0. -1.
         24    1    1    2    0    0 -0.13635976563E+02 -0.66582185232E+02 -0.53065903163E+03  0.54100402129E+03  0.80419002446E+02 0. -1.
        -24    1    1    2    0    0  0.13635976563E+02  0.66582185232E+02 -0.21123965279E+03  0.23602655383E+03  0.80419002446E+02 0.  1.
<mgrwt>
<rscale>  0 0.10529171E+03</rscale>
<asrwt>0</asrwt>
<pdfrwt beam="1">  1        2 0.11684073E+00 0.10529171E+03</pdfrwt>
<pdfrwt beam="2">  1       -2 0.27024527E-02 0.10529171E+03</pdfrwt>
<totfact> 0.17456425E+04</totfact>
</mgrwt>
</event>
<event>
 4    1  0.4940461E-001  0.9682719E+02  0.7546771E-02  0.1287113E+00
          2   -1    0    0  501    0  0.00000000000E+00  0.00000000000E+00  0.28364302309E+03  0.28364302309E+03  0.00000000000E+00 0. -1.
         -2   -1    0    0    0  501 -0.00000000000E+00 -0.00000000000E+00 -0.51352359189E+02  0.51352359189E+02  0.00000000000E+00 0.  1.
         24    1    1    2    0    0  0.34467837722E+02 -0.41475985390E+02  0.21613059872E+03  0.23682892741E+03  0.80419002446E+02 0. -1.
        -24    1    1    2    0    0 -0.34467837722E+02  0.41475985390E+02  0.16160065187E+02  0.98166454874E+02  0.80419002446E+02 0.  1.
<mgrwt>
<rscale>  0 0.96827192E+02</rscale>
<asrwt>0</asrwt>
<pdfrwt beam="1">  1        2 0.43637387E-01 0.96827192E+02</pdfrwt>
<pdfrwt beam="2">  1       -2 0.79003631E-02 0.96827192E+02</pdfrwt>
<totfact> 0.10302063E+04</totfact>
</mgrwt>
</event>
<event>
 4    1  0.4940461E-001  0.1390323E+03  0.7546771E-02  0.1214637E+00
         -1   -1    0    0    0  501 -0.00000000000E+00  0.00000000000E+00  0.47097870434E+03  0.47097870434E+03  0.00000000000E+00 0.  1.
          1   -1    0    0  501    0  0.00000000000E+00 -0.00000000000E+00 -0.59740922067E+02  0.59740922067E+02  0.00000000000E+00 0. -1.
         24    1    1    2    0    0  0.80264617811E+02  0.80127049654E+02  0.35407770130E+03  0.38039582999E+03  0.80419002446E+02 0.  1.
        -24    1    1    2    0    0 -0.80264617811E+02 -0.80127049654E+02  0.57160080968E+02  0.15032379642E+03  0.80419002446E+02 0. -1.
<mgrwt>
<rscale>  0 0.13903226E+03</rscale>
<asrwt>0</asrwt>
<pdfrwt beam="1">  1        1 0.91909114E-02 0.13903226E+03</pdfrwt>
<pdfrwt beam="2">  1       -1 0.72458260E-01 0.13903226E+03</pdfrwt>
<totfact> 0.14093098E+03</totfact>
</mgrwt>
</event>
<event>
 4    1  0.4940461E-001  0.9604292E+02  0.7546771E-02  0.1288844E+00
         -1   -1    0    0    0  501 -0.00000000000E+00  0.00000000000E+00  0.73628008562E+01  0.73628008562E+01  0.00000000000E+00 0.  1.
          1   -1    0    0  501    0  0.00000000000E+00 -0.00000000000E+00 -0.14779333529E+04  0.14779333529E+04  0.00000000000E+00 0. -1.
         24    1    1    2    0    0 -0.30978109154E+02  0.42395500531E+02 -0.10251262204E+04  0.10296154648E+04  0.80419002446E+02 0. -1.
        -24    1    1    2    0    0  0.30978109154E+02 -0.42395500531E+02 -0.44544433166E+03  0.45568068894E+03  0.80419002446E+02 0. -1.
<mgrwt>
<rscale>  0 0.96042907E+02</rscale>
<asrwt>0</asrwt>
<pdfrwt beam="1">  1        1 0.22737420E+00 0.96042919E+02</pdfrwt>
<pdfrwt beam="2">  1       -1 0.11327394E-02 0.96042919E+02</pdfrwt>
<totfact> 0.11067127E+04</totfact>
</mgrwt>
</event>
<event>
 4    1  0.4940461E-001  0.1117387E+03  0.7546771E-02  0.1257384E+00
          2   -1    0    0  501    0  0.00000000000E+00  0.00000000000E+00  0.69768082276E+02  0.69768082276E+02  0.00000000000E+00 0. -1.
         -2   -1    0    0    0  501 -0.00000000000E+00 -0.00000000000E+00 -0.29436095055E+03  0.29436095055E+03  0.00000000000E+00 0.  1.
         24    1    1    2    0    0 -0.23705734525E+02 -0.73867126323E+02  0.17008171230E+01  0.11175161267E+03  0.80419002446E+02 0. -1.
        -24    1    1    2    0    0  0.23705734525E+02  0.73867126323E+02 -0.22629368539E+03  0.25237742016E+03  0.80419002446E+02 0.  1.
<mgrwt>
<rscale>  0 0.11173867E+03</rscale>
<asrwt>0</asrwt>
<pdfrwt beam="1">  1        2 0.10733551E-01 0.11173867E+03</pdfrwt>
<pdfrwt beam="2">  1       -2 0.45286299E-01 0.11173867E+03</pdfrwt>
<totfact> 0.26103687E+03</totfact>
</mgrwt>
</event>
<event>
 4    1  0.4940461E-001  0.8070320E+02  0.7546771E-02  0.1327068E+00
          1   -1    0    0  501    0  0.00000000000E+00  0.00000000000E+00  0.17912989940E+03  0.17912989940E+03  0.00000000000E+00 0. -1.
         -1   -1    0    0    0  501 -0.00000000000E+00 -0.00000000000E+00 -0.14367527787E+03  0.14367527787E+03  0.00000000000E+00 0.  1.
         24    1    1    2    0    0 -0.67650244985E+01  0.15798069141E+00 -0.12176556251E+03  0.14608168496E+03  0.80419002446E+02 0.  1.
        -24    1    1    2    0    0  0.67650244985E+01 -0.15798069141E+00  0.15722018403E+03  0.17672349232E+03  0.80419002446E+02 0. -1.
<mgrwt>
<rscale>  0 0.80703200E+02</rscale>
<asrwt>0</asrwt>
<pdfrwt beam="1">  1        1 0.27558446E-01 0.80703200E+02</pdfrwt>
<pdfrwt beam="2">  1       -1 0.22103889E-01 0.80703200E+02</pdfrwt>
<totfact> 0.27213407E+03</totfact>
</mgrwt>
</event>
<event>
 4    1  0.4940461E-001  0.8096052E+02  0.7546771E-02  0.1326347E+00
         -3   -1    0    0    0  501 -0.00000000000E+00  0.00000000000E+00  0.20068323043E+03  0.20068323043E+03  0.00000000000E+00 0.  1.
          3   -1    0    0  501    0  0.00000000000E+00 -0.00000000000E+00 -0.12806381636E+03  0.12806381636E+03  0.00000000000E+00 0. -1.
         24    1    1    2    0    0  0.91395796753E+01  0.19643067059E+01  0.17818220187E+03  0.19571280856E+03  0.80419002446E+02 0.  1.
        -24    1    1    2    0    0 -0.91395796753E+01 -0.19643067059E+01 -0.10556278781E+03  0.13303423823E+03  0.80419002446E+02 0.  0.
<mgrwt>
<rscale>  0 0.80960524E+02</rscale>
<asrwt>0</asrwt>
<pdfrwt beam="1">  1        3 0.19702125E-01 0.80960524E+02</pdfrwt>
<pdfrwt beam="2">  1       -3 0.30874343E-01 0.80960524E+02</pdfrwt>
<totfact> 0.50041004E+02</totfact>
</mgrwt>
</event>
<event>
 4    1  0.4940461E-001  0.1139777E+03  0.7546771E-02  0.1253376E+00
         -2   -1    0    0    0  501 -0.00000000000E+00  0.00000000000E+00  0.29238208079E+02  0.29238208079E+02  0.00000000000E+00 0.  1.
          2   -1    0    0  501    0  0.00000000000E+00 -0.00000000000E+00 -0.10009408671E+04  0.10009408671E+04  0.00000000000E+00 0. -1.
         24    1    1    2    0    0  0.73733969544E+01  0.80432171761E+02 -0.86996607029E+03  0.87740063862E+03  0.80419002446E+02 0. -1.
        -24    1    1    2    0    0 -0.73733969544E+01 -0.80432171761E+02 -0.10173658873E+03  0.15277843656E+03  0.80419002446E+02 0.  1.
<mgrwt>
<rscale>  0 0.11397770E+03</rscale>
<asrwt>0</asrwt>
<pdfrwt beam="1">  1        2 0.15399088E+00 0.11397770E+03</pdfrwt>
<pdfrwt beam="2">  1       -2 0.44981865E-02 0.11397770E+03</pdfrwt>
<totfact> 0.58277290E+03</totfact>
</mgrwt>
</event>
<event>
 4    1  0.4940461E-001  0.8974966E+02  0.7546771E-02  0.1303459E+00
          1   -1    0    0  501    0  0.00000000000E+00  0.00000000000E+00  0.15370712159E+04  0.15370712159E+04  0.00000000000E+00 0. -1.
         -1   -1    0    0    0  501 -0.00000000000E+00 -0.00000000000E+00 -0.54476743927E+01  0.54476743927E+01  0.00000000000E+00 0.  1.
         24    1    1    2    0    0  0.35981450146E+02 -0.17120793033E+02  0.61540194074E+03  0.62191201221E+03  0.80419002446E+02 0.  1.
        -24    1    1    2    0    0 -0.35981450146E+02  0.17120793033E+02  0.91622160079E+03  0.92060687811E+03  0.80419002446E+02 0. -1.
<mgrwt>
<rscale>  0 0.89749664E+02</rscale>
<asrwt>0</asrwt>
<pdfrwt beam="1">  1        1 0.23647215E+00 0.89749664E+02</pdfrwt>
<pdfrwt beam="2">  1       -1 0.83810498E-03 0.89749664E+02</pdfrwt>
<totfact> 0.15451155E+04</totfact>
</mgrwt>
</event>
<event>
 4    1  0.4940461E-001  0.8384141E+02  0.7546771E-02  0.1318490E+00
         -2   -1    0    0    0  501 -0.00000000000E+00  0.00000000000E+00  0.54987182003E+02  0.54987182003E+02  0.00000000000E+00 0.  1.
          2   -1    0    0  501    0  0.00000000000E+00 -0.00000000000E+00 -0.58078488258E+03  0.58078488258E+03  0.00000000000E+00 0. -1.
         24    1    1    2    0    0  0.23174812829E+02 -0.50094316854E+01 -0.54362833829E+03  0.55005559038E+03  0.80419002446E+02 0. -1.
        -24    1    1    2    0    0 -0.23174812829E+02  0.50094316854E+01  0.17830637711E+02  0.85716474210E+02  0.80419002446E+02 0.  1.
<mgrwt>
<rscale>  0 0.83841412E+02</rscale>
<asrwt>0</asrwt>
<pdfrwt beam="1">  1        2 0.89351521E-01 0.83841412E+02</pdfrwt>
<pdfrwt beam="2">  1       -2 0.84595664E-02 0.83841412E+02</pdfrwt>
<totfact> 0.42896276E+03</totfact>
</mgrwt>
</event>
<event>
 4    1  0.4940461E-001  0.8849136E+02  0.7546771E-02  0.1306547E+00
         -1   -1    0    0    0  501 -0.00000000000E+00  0.00000000000E+00  0.42640514637E+01  0.42640514637E+01  0.00000000000E+00 0.  1.
          1   -1    0    0  501    0  0.00000000000E+00 -0.00000000000E+00 -0.18877479542E+04  0.18877479542E+04  0.00000000000E+00 0. -1.
         24    1    1    2    0    0  0.91477131485E+01 -0.35774624427E+02 -0.78579787578E+03  0.79076483353E+03  0.80419002446E+02 0.  1.
        -24    1    1    2    0    0 -0.91477131485E+01  0.35774624427E+02 -0.10976860269E+04  0.11012471721E+04  0.80419002446E+02 0. -1.
<mgrwt>
<rscale>  0 0.88491358E+02</rscale>
<asrwt>0</asrwt>
<pdfrwt beam="1">  1        1 0.29042361E+00 0.88491358E+02</pdfrwt>
<pdfrwt beam="2">  1       -1 0.65600600E-03 0.88491358E+02</pdfrwt>
<totfact> 0.13106044E+04</totfact>
</mgrwt>
</event>
<event>
 4    1  0.4940461E-001  0.8450856E+02  0.7546771E-02  0.1316723E+00
          1   -1    0    0  501    0  0.00000000000E+00  0.00000000000E+00  0.56920446857E+03  0.56920446857E+03  0.00000000000E+00 0. -1.
         -1   -1    0    0    0  501 -0.00000000000E+00 -0.00000000000E+00 -0.12945165533E+02  0.12945165533E+02  0.00000000000E+00 0.  1.
         24    1    1    2    0    0 -0.23662516037E+02  0.10703521138E+02  0.22706852332E+03  0.24228456465E+03  0.80419002446E+02 0.  1.
        -24    1    1    2    0    0  0.23662516037E+02 -0.10703521138E+02  0.32919077971E+03  0.33986506945E+03  0.80419002446E+02 0. -1.
<mgrwt>
<rscale>  0 0.84508556E+02</rscale>
<asrwt>0</asrwt>
<pdfrwt beam="1">  1        1 0.87569899E-01 0.84508556E+02</pdfrwt>
<pdfrwt beam="2">  1       -1 0.19915644E-02 0.84508556E+02</pdfrwt>
<totfact> 0.23419983E+04</totfact>
</mgrwt>
</event>
<event>
 4    1  0.4940461E-001  0.8728974E+02  0.7546771E-02  0.1309551E+00
         -2   -1    0    0    0  501 -0.00000000000E+00  0.00000000000E+00  0.15421630115E+02  0.15421630115E+02  0.00000000000E+00 0.  1.
          2   -1    0    0  501    0  0.00000000000E+00 -0.00000000000E+00 -0.12798864949E+04  0.12798864949E+04  0.00000000000E+00 0. -1.
         24    1    1    2    0    0 -0.33685534612E+02  0.41913416154E+01 -0.11397084692E+04  0.11430463216E+04  0.80419002446E+02 0. -1.
        -24    1    1    2    0    0  0.33685534612E+02 -0.41913416154E+01 -0.12475639557E+03  0.15226180340E+03  0.80419002446E+02 0.  1.
<mgrwt>
<rscale>  0 0.87289739E+02</rscale>
<asrwt>0</asrwt>
<pdfrwt beam="1">  1        2 0.19690566E+00 0.87289739E+02</pdfrwt>
<pdfrwt beam="2">  1       -2 0.23725580E-02 0.87289739E+02</pdfrwt>
<totfact> 0.10239914E+04</totfact>
</mgrwt>
</event>
<event>
 4    1  0.4940461E-001  0.1377602E+03  0.7546771E-02  0.1216375E+00
         -4   -1    0    0    0  501 -0.00000000000E+00  0.00000000000E+00  0.34073139985E+02  0.34073139985E+02  0.00000000000E+00 0.  1.
          4   -1    0    0  501    0  0.00000000000E+00 -0.00000000000E+00 -0.60873931803E+03  0.60873931803E+03  0.00000000000E+00 0. -1.
         24    1    1    2    0    0 -0.43336291798E+02  0.10311465209E+03 -0.38105789316E+03  0.40519501423E+03  0.80419002446E+02 0. -1.
        -24    1    1    2    0    0  0.43336291798E+02 -0.10311465209E+03 -0.19360828489E+03  0.23761744379E+03  0.80419002446E+02 0.  1.
<mgrwt>
<rscale>  0 0.13776023E+03</rscale>
<asrwt>0</asrwt>
<pdfrwt beam="1">  1        4 0.93652198E-01 0.13776023E+03</pdfrwt>
<pdfrwt beam="2">  1       -4 0.52420218E-02 0.13776023E+03</pdfrwt>
<totfact> 0.36766014E+02</totfact>
</mgrwt>
</event>
<event>
 4    1  0.4940461E-001  0.8431615E+02  0.7546771E-02  0.1317231E+00
         -2   -1    0    0    0  501 -0.00000000000E+00  0.00000000000E+00  0.17710178613E+02  0.17710178613E+02  0.00000000000E+00 0.  1.
          2   -1    0    0  501    0  0.00000000000E+00 -0.00000000000E+00 -0.40257140347E+03  0.40257140347E+03  0.00000000000E+00 0. -1.
         24    1    1    2    0    0 -0.59424444591E+01 -0.24630967103E+02 -0.20367082747E+03  0.22043370682E+03  0.80419002446E+02 0.  1.
        -24    1    1    2    0    0  0.59424444591E+01  0.24630967103E+02 -0.18119039739E+03  0.19984787527E+03  0.80419002446E+02 0. -1.
<mgrwt>
<rscale>  0 0.84316150E+02</rscale>
<asrwt>0</asrwt>
<pdfrwt beam="1">  1        2 0.61934066E-01 0.84316150E+02</pdfrwt>
<pdfrwt beam="2">  1       -2 0.27246427E-02 0.84316150E+02</pdfrwt>
<totfact> 0.34121184E+04</totfact>
</mgrwt>
</event>
<event>
 4    1  0.4940461E-001  0.1101738E+03  0.7546771E-02  0.1260248E+00
          2   -1    0    0  501    0  0.00000000000E+00  0.00000000000E+00  0.21146350434E+04  0.21146350434E+04  0.00000000000E+00 0. -1.
         -2   -1    0    0    0  501 -0.00000000000E+00 -0.00000000000E+00 -0.15823024194E+02  0.15823024194E+02  0.00000000000E+00 0.  1.
         24    1    1    2    0    0 -0.66746973743E+02  0.34869686707E+02  0.18997427838E+04  0.19029348160E+04  0.80419002446E+02 0. -1.
        -24    1    1    2    0    0  0.66746973743E+02 -0.34869686707E+02  0.19906923538E+03  0.22752325152E+03  0.80419002446E+02 0.  1.
<mgrwt>
<rscale>  0 0.11017381E+03</rscale>
<asrwt>0</asrwt>
<pdfrwt beam="1">  1        2 0.32532824E+00 0.11017381E+03</pdfrwt>
<pdfrwt beam="2">  1       -2 0.24343131E-02 0.11017381E+03</pdfrwt>
<totfact> 0.37319557E+03</totfact>
</mgrwt>
</event>
<event>
 4    1  0.4940461E-001  0.8085345E+02  0.7546771E-02  0.1326647E+00
          2   -1    0    0  501    0  0.00000000000E+00  0.00000000000E+00  0.31559618340E+03  0.31559618340E+03  0.00000000000E+00 0. -1.
         -2   -1    0    0    0  501 -0.00000000000E+00 -0.00000000000E+00 -0.13958379625E+03  0.13958379625E+03  0.00000000000E+00 0.  1.
         24    1    1    2    0    0 -0.75720726767E+01 -0.35676304600E+01  0.29803133793E+03  0.30880407804E+03  0.80419002446E+02 0. -1.
        -24    1    1    2    0    0  0.75720726767E+01  0.35676304600E+01 -0.12201895077E+03  0.14637590161E+03  0.80419002446E+02 0.  1.
<mgrwt>
<rscale>  0 0.80853449E+02</rscale>
<asrwt>0</asrwt>
<pdfrwt beam="1">  1        2 0.48553259E-01 0.80853449E+02</pdfrwt>
<pdfrwt beam="2">  1       -2 0.21474430E-01 0.80853449E+02</pdfrwt>
<totfact> 0.18431466E+03</totfact>
</mgrwt>
</event>
<event>
 4    1  0.4940461E-001  0.9519628E+02  0.7546771E-02  0.1290735E+00
         -1   -1    0    0    0  501 -0.00000000000E+00  0.00000000000E+00  0.16221562000E+02  0.16221562000E+02  0.00000000000E+00 0.  1.
          1   -1    0    0  501    0  0.00000000000E+00 -0.00000000000E+00 -0.73283699929E+03  0.73283699929E+03  0.00000000000E+00 0. -1.
         24    1    1    2    0    0  0.36301665828E+02 -0.35739412830E+02 -0.17571733878E+03  0.19984723084E+03  0.80419002446E+02 0.  1.
        -24    1    1    2    0    0 -0.36301665828E+02  0.35739412830E+02 -0.54089809850E+03  0.54921133045E+03  0.80419002446E+02 0. -1.
<mgrwt>
<rscale>  0 0.95196284E+02</rscale>
<asrwt>0</asrwt>
<pdfrwt beam="1">  1        1 0.11274418E+00 0.95196284E+02</pdfrwt>
<pdfrwt beam="2">  1       -1 0.24956243E-02 0.95196284E+02</pdfrwt>
<totfact> 0.12130403E+04</totfact>
</mgrwt>
</event>
<event>
 4    1  0.4940461E-001  0.1713813E+03  0.7546771E-02  0.1176415E+00
         -2   -1    0    0    0  501 -0.00000000000E+00  0.00000000000E+00  0.29551331347E+02  0.29551331347E+02  0.00000000000E+00 0.  1.
          2   -1    0    0  501    0  0.00000000000E+00 -0.00000000000E+00 -0.18156107573E+04  0.18156107573E+04  0.00000000000E+00 0. -1.
         24    1    1    2    0    0  0.15109411829E+03  0.86552198161E+01 -0.15136818140E+04  0.15233529451E+04  0.80419002446E+02 0. -1.
        -24    1    1    2    0    0 -0.15109411829E+03 -0.86552198161E+01 -0.27237761195E+03  0.32180914353E+03  0.80419002446E+02 0.  1.
<mgrwt>
<rscale>  0 0.17138133E+03</rscale>
<asrwt>0</asrwt>
<pdfrwt beam="1">  1        2 0.27932484E+00 0.17138133E+03</pdfrwt>
<pdfrwt beam="2">  1       -2 0.45463568E-02 0.17138133E+03</pdfrwt>
<totfact> 0.21110694E+03</totfact>
</mgrwt>
</event>
<event>
 4    1  0.4940461E-001  0.2495075E+03  0.7546771E-02  0.1113616E+00
         -2   -1    0    0    0  501 -0.00000000000E+00  0.00000000000E+00  0.40383424395E+03  0.40383424395E+03  0.00000000000E+00 0.  1.
          2   -1    0    0  501    0  0.00000000000E+00 -0.00000000000E+00 -0.15578642339E+03  0.15578642339E+03  0.00000000000E+00 0. -1.
         24    1    1    2    0    0 -0.21858871620E+03  0.89474900874E+02  0.95410170972E+02  0.26712750030E+03  0.80419002446E+02 0.  1.
        -24    1    1    2    0    0  0.21858871620E+03 -0.89474900874E+02  0.15263764958E+03  0.29249316704E+03  0.80419002446E+02 0. -1.
<mgrwt>
<rscale>  0 0.24950752E+03</rscale>
<asrwt>0</asrwt>
<pdfrwt beam="1">  1        2 0.23967142E-01 0.24950752E+03</pdfrwt>
<pdfrwt beam="2">  1       -2 0.62128345E-01 0.24950752E+03</pdfrwt>
<totfact> 0.55568243E+02</totfact>
</mgrwt>
</event>
<event>
 4    1  0.4940461E-001  0.8720263E+02  0.7546771E-02  0.1309771E+00
          2   -1    0    0  501    0  0.00000000000E+00  0.00000000000E+00  0.16181123784E+04  0.16181123784E+04  0.00000000000E+00 0. -1.
         -2   -1    0    0    0  501 -0.00000000000E+00 -0.00000000000E+00 -0.10659305770E+02  0.10659305770E+02  0.00000000000E+00 0.  1.
         24    1    1    2    0    0  0.31373187027E+02  0.12361460121E+02  0.14126774297E+04  0.14153663196E+04  0.80419002446E+02 0. -1.
        -24    1    1    2    0    0 -0.31373187027E+02 -0.12361460121E+02  0.19477564300E+03  0.21340536455E+03  0.80419002446E+02 0.  1.
<mgrwt>
<rscale>  0 0.87202629E+02</rscale>
<asrwt>0</asrwt>
<pdfrwt beam="1">  1        2 0.24894017E+00 0.87202629E+02</pdfrwt>
<pdfrwt beam="2">  1       -2 0.16398945E-02 0.87202629E+02</pdfrwt>
<totfact> 0.11647877E+04</totfact>
</mgrwt>
</event>
<event>
 4    1  0.4940461E-001  0.1021730E+03  0.7546771E-02  0.1275792E+00
          1   -1    0    0  501    0  0.00000000000E+00  0.00000000000E+00  0.11555630159E+03  0.11555630159E+03  0.00000000000E+00 0. -1.
         -1   -1    0    0    0  501 -0.00000000000E+00 -0.00000000000E+00 -0.11596221187E+03  0.11596221187E+03  0.00000000000E+00 0.  1.
         24    1    1    2    0    0 -0.25117731476E+02 -0.57803183099E+02 -0.54616639669E+02  0.11585465763E+03  0.80419002446E+02 0.  1.
        -24    1    1    2    0    0  0.25117731476E+02  0.57803183099E+02  0.54210729393E+02  0.11566385583E+03  0.80419002446E+02 0. -1.
<mgrwt>
<rscale>  0 0.10217301E+03</rscale>
<asrwt>0</asrwt>
<pdfrwt beam="1">  1        1 0.17777893E-01 0.10217301E+03</pdfrwt>
<pdfrwt beam="2">  1       -1 0.17840340E-01 0.10217301E+03</pdfrwt>
<totfact> 0.67165177E+03</totfact>
</mgrwt>
</event>
<event>
 4    1  0.4940461E-001  0.1032035E+03  0.7546771E-02  0.1273700E+00
         -3   -1    0    0    0  501 -0.00000000000E+00  0.00000000000E+00  0.94132199804E+03  0.94132199804E+03  0.00000000000E+00 0.  1.
          3   -1    0    0  501    0  0.00000000000E+00 -0.00000000000E+00 -0.21358296194E+02  0.21358296194E+02  0.00000000000E+00 0. -1.
         24    1    1    2    0    0  0.62350303688E+02  0.17210128528E+02  0.79005414249E+03  0.79676628500E+03  0.80419002446E+02 0.  1.
        -24    1    1    2    0    0 -0.62350303688E+02 -0.17210128528E+02  0.12990955936E+03  0.16591400924E+03  0.80419002446E+02 0. -1.
<mgrwt>
<rscale>  0 0.10320351E+03</rscale>
<asrwt>0</asrwt>
<pdfrwt beam="1">  1        3 0.32858924E-02 0.10320351E+03</pdfrwt>
<pdfrwt beam="2">  1       -3 0.14481874E+00 0.10320351E+03</pdfrwt>
<totfact> 0.37044385E+02</totfact>
</mgrwt>
</event>
<event>
 4    1  0.4940461E-001  0.1060274E+03  0.7546771E-02  0.1268109E+00
         -2   -1    0    0    0  501 -0.00000000000E+00  0.00000000000E+00  0.10329558263E+02  0.10329558263E+02  0.00000000000E+00 0.  1.
          2   -1    0    0  501    0  0.00000000000E+00 -0.00000000000E+00 -0.12724168278E+04  0.12724168278E+04  0.00000000000E+00 0. -1.
         24    1    1    2    0    0 -0.14136203011E+02  0.67636938983E+02 -0.87500791070E+03  0.88140833187E+03  0.80419002446E+02 0.  1.
        -24    1    1    2    0    0  0.14136203011E+02 -0.67636938983E+02 -0.38707935887E+03  0.40133805422E+03  0.80419002446E+02 0.  1.
<mgrwt>
<rscale>  0 0.10602737E+03</rscale>
<asrwt>0</asrwt>
<pdfrwt beam="1">  1        2 0.19575624E+00 0.10602737E+03</pdfrwt>
<pdfrwt beam="2">  1       -2 0.15891644E-02 0.10602737E+03</pdfrwt>
<totfact> 0.18621845E+04</totfact>
</mgrwt>
</event>
<event>
 4    1  0.4940461E-001  0.8795266E+02  0.7546771E-02  0.1307887E+00
         -2   -1    0    0    0  501 -0.00000000000E+00  0.00000000000E+00  0.20795046956E+02  0.20795046956E+02  0.00000000000E+00 0.  1.
          2   -1    0    0  501    0  0.00000000000E+00 -0.00000000000E+00 -0.50613233117E+03  0.50613233117E+03  0.00000000000E+00 0. -1.
         24    1    1    2    0    0  0.33306920326E+02 -0.12613644815E+02 -0.37830065323E+03  0.38839033866E+03  0.80419002446E+02 0.  0.
        -24    1    1    2    0    0 -0.33306920326E+02  0.12613644815E+02 -0.10703663099E+03  0.13853703947E+03  0.80419002446E+02 0. -1.
<mgrwt>
<rscale>  0 0.87952663E+02</rscale>
<asrwt>0</asrwt>
<pdfrwt beam="1">  1        2 0.77866512E-01 0.87952663E+02</pdfrwt>
<pdfrwt beam="2">  1       -2 0.31992380E-02 0.87952663E+02</pdfrwt>
<totfact> 0.21285637E+04</totfact>
</mgrwt>
</event>
<event>
 4    1  0.4940461E-001  0.8795529E+02  0.7546771E-02  0.1307880E+00
         -2   -1    0    0    0  501 -0.00000000000E+00  0.00000000000E+00  0.25299145186E+02  0.25299145186E+02  0.00000000000E+00 0.  1.
          2   -1    0    0  501    0  0.00000000000E+00 -0.00000000000E+00 -0.31339557047E+03  0.31339557047E+03  0.00000000000E+00 0. -1.
         24    1    1    2    0    0 -0.35198379488E+02 -0.54763560572E+01 -0.17043600847E+03  0.19179302733E+03  0.80419002446E+02 0. -1.
        -24    1    1    2    0    0  0.35198379488E+02  0.54763560572E+01 -0.11766041681E+03  0.14690168833E+03  0.80419002446E+02 0.  1.
<mgrwt>
<rscale>  0 0.87955286E+02</rscale>
<asrwt>0</asrwt>
<pdfrwt beam="1">  1        2 0.48214701E-01 0.87955286E+02</pdfrwt>
<pdfrwt beam="2">  1       -2 0.38921764E-02 0.87955286E+02</pdfrwt>
<totfact> 0.26506397E+04</totfact>
</mgrwt>
</event>
<event>
 4    1  0.4940461E-001  0.9364702E+02  0.7546771E-02  0.1294253E+00
          1   -1    0    0  501    0  0.00000000000E+00  0.00000000000E+00  0.57501054310E+02  0.57501054310E+02  0.00000000000E+00 0. -1.
         -1   -1    0    0    0  501 -0.00000000000E+00 -0.00000000000E+00 -0.16737079956E+03  0.16737079956E+03  0.00000000000E+00 0.  1.
         24    1    1    2    0    0 -0.46222125109E+02  0.12886590069E+02 -0.88432602966E+02  0.12880252433E+03  0.80419002446E+02 0. -1.
        -24    1    1    2    0    0  0.46222125109E+02 -0.12886590069E+02 -0.21437142281E+02  0.96069329532E+02  0.80419002446E+02 0.  1.
<mgrwt>
<rscale>  0 0.93647023E+02</rscale>
<asrwt>0</asrwt>
<pdfrwt beam="1">  1        1 0.88463160E-02 0.93647023E+02</pdfrwt>
<pdfrwt beam="2">  1       -1 0.25749354E-01 0.93647023E+02</pdfrwt>
<totfact> 0.91432658E+03</totfact>
</mgrwt>
</event>
<event>
 4    1  0.4940461E-001  0.1056760E+03  0.7546771E-02  0.1268794E+00
          1   -1    0    0  501    0  0.00000000000E+00  0.00000000000E+00  0.71811237848E+02  0.71811237848E+02  0.00000000000E+00 0. -1.
         -1   -1    0    0    0  501 -0.00000000000E+00 -0.00000000000E+00 -0.16972569538E+03  0.16972569538E+03  0.00000000000E+00 0.  1.
         24    1    1    2    0    0  0.23234888717E+02  0.64500645417E+02 -0.83907819359E+02  0.13493676822E+03  0.80419002446E+02 0.  0.
        -24    1    1    2    0    0 -0.23234888717E+02 -0.64500645417E+02 -0.14006638173E+02  0.10660016501E+03  0.80419002446E+02 0. -1.
<mgrwt>
<rscale>  0 0.10567596E+03</rscale>
<asrwt>0</asrwt>
<pdfrwt beam="1">  1        1 0.11047883E-01 0.10567596E+03</pdfrwt>
<pdfrwt beam="2">  1       -1 0.26111645E-01 0.10567596E+03</pdfrwt>
<totfact> 0.67432090E+03</totfact>
</mgrwt>
</event>
<event>
 4    1  0.4940461E-001  0.1035772E+03  0.7546771E-02  0.1272948E+00
         -1   -1    0    0    0  501 -0.00000000000E+00  0.00000000000E+00  0.18730028230E+02  0.18730028230E+02  0.00000000000E+00 0.  1.
          1   -1    0    0  501    0  0.00000000000E+00 -0.00000000000E+00 -0.68255707616E+03  0.68255707616E+03  0.00000000000E+00 0. -1.
         24    1    1    2    0    0 -0.48596330332E+02  0.43582317490E+02 -0.19129365221E+03  0.21753505246E+03  0.80419002446E+02 0.  1.
        -24    1    1    2    0    0  0.48596330332E+02 -0.43582317490E+02 -0.47253339573E+03  0.48375205194E+03  0.80419002446E+02 0. -1.
<mgrwt>
<rscale>  0 0.10357721E+03</rscale>
<asrwt>0</asrwt>
<pdfrwt beam="1">  1        1 0.10500878E+00 0.10357721E+03</pdfrwt>
<pdfrwt beam="2">  1       -1 0.28815428E-02 0.10357721E+03</pdfrwt>
<totfact> 0.10978182E+04</totfact>
</mgrwt>
</event>
<event>
 4    1  0.4940461E-001  0.8187072E+02  0.7546771E-02  0.1323825E+00
         -3   -1    0    0    0  501 -0.00000000000E+00  0.00000000000E+00  0.36275713192E+02  0.36275713192E+02  0.00000000000E+00 0.  1.
          3   -1    0    0  501    0  0.00000000000E+00 -0.00000000000E+00 -0.19097154236E+03  0.19097154236E+03  0.00000000000E+00 0. -1.
         24    1    1    2    0    0 -0.15307413557E+02 -0.11309137988E+01 -0.97816648656E+02  0.12755747169E+03  0.80419002446E+02 0.  0.
        -24    1    1    2    0    0  0.15307413557E+02  0.11309137988E+01 -0.56879180510E+02  0.99689783858E+02  0.80419002446E+02 0.  0.
<mgrwt>
<rscale>  0 0.81870712E+02</rscale>
<asrwt>0</asrwt>
<pdfrwt beam="1">  1        3 0.29380237E-01 0.81870722E+02</pdfrwt>
<pdfrwt beam="2">  1       -3 0.55808790E-02 0.81870722E+02</pdfrwt>
<totfact> 0.43673644E+03</totfact>
</mgrwt>
</event>
<event>
 4    1  0.4940461E-001  0.8202622E+02  0.7546771E-02  0.1323398E+00
          4   -1    0    0  501    0  0.00000000000E+00  0.00000000000E+00  0.69224486414E+01  0.69224486414E+01  0.00000000000E+00 0. -1.
         -4   -1    0    0    0  501 -0.00000000000E+00 -0.00000000000E+00 -0.12662660641E+04  0.12662660641E+04  0.00000000000E+00 0.  1.
         24    1    1    2    0    0  0.13820287026E+02  0.83715984904E+01 -0.32276646762E+03  0.33302626408E+03  0.80419002446E+02 0.  0.
        -24    1    1    2    0    0 -0.13820287026E+02 -0.83715984904E+01 -0.93657714786E+03  0.94016224868E+03  0.80419002446E+02 0.  0.
<mgrwt>
<rscale>  0 0.82026215E+02</rscale>
<asrwt>0</asrwt>
<pdfrwt beam="1">  1        4 0.10649908E-02 0.82026215E+02</pdfrwt>
<pdfrwt beam="2">  1       -4 0.19481040E+00 0.82026215E+02</pdfrwt>
<totfact> 0.63116460E+02</totfact>
</mgrwt>
</event>
<event>
 4    1  0.4940461E-001  0.8736763E+02  0.7546771E-02  0.1309355E+00
          2   -1    0    0  501    0  0.00000000000E+00  0.00000000000E+00  0.48351406350E+03  0.48351406350E+03  0.00000000000E+00 0. -1.
         -2   -1    0    0    0  501 -0.00000000000E+00 -0.00000000000E+00 -0.29396702701E+03  0.29396702701E+03  0.00000000000E+00 0.  1.
         24    1    1    2    0    0  0.80577910906E+01 -0.33180710846E+02  0.47293188756E+03  0.48093416784E+03  0.80419002446E+02 0. -1.
        -24    1    1    2    0    0 -0.80577910906E+01  0.33180710846E+02 -0.28338485108E+03  0.29654692267E+03  0.80419002446E+02 0.  1.
<mgrwt>
<rscale>  0 0.87367634E+02</rscale>
<asrwt>0</asrwt>
<pdfrwt beam="1">  1        2 0.74386779E-01 0.87367634E+02</pdfrwt>
<pdfrwt beam="2">  1       -2 0.45225696E-01 0.87367634E+02</pdfrwt>
<totfact> 0.30964726E+02</totfact>
</mgrwt>
</event>
<event>
 4    1  0.4940461E-001  0.1103969E+03  0.7546771E-02  0.1259837E+00
          1   -1    0    0  501    0  0.00000000000E+00  0.00000000000E+00  0.42983509524E+03  0.42983509524E+03  0.00000000000E+00 0. -1.
         -1   -1    0    0    0  501 -0.00000000000E+00 -0.00000000000E+00 -0.52772960471E+02  0.52772960471E+02  0.00000000000E+00 0.  1.
         24    1    1    2    0    0  0.30822275107E+01  0.75569634205E+02  0.24387585972E+02  0.11305856909E+03  0.80419002446E+02 0.  1.
        -24    1    1    2    0    0 -0.30822275107E+01 -0.75569634205E+02  0.35267454880E+03  0.36954948662E+03  0.80419002446E+02 0. -1.
<mgrwt>
<rscale>  0 0.11039695E+03</rscale>
<asrwt>0</asrwt>
<pdfrwt beam="1">  1        1 0.66128474E-01 0.11039695E+03</pdfrwt>
<pdfrwt beam="2">  1       -1 0.81189173E-02 0.11039695E+03</pdfrwt>
<totfact> 0.44297588E+03</totfact>
</mgrwt>
</event>
<event>
 4    1  0.4940461E-001  0.8321764E+02  0.7546771E-02  0.1320161E+00
          2   -1    0    0  501    0  0.00000000000E+00  0.00000000000E+00  0.16041999666E+04  0.16041999666E+04  0.00000000000E+00 0. -1.
         -2   -1    0    0    0  501 -0.00000000000E+00 -0.00000000000E+00 -0.58487689178E+01  0.58487689178E+01  0.00000000000E+00 0.  1.
         24    1    1    2    0    0 -0.15208147772E+02  0.15055632084E+02  0.12111660602E+04  0.12140215819E+04  0.80419002446E+02 0. -1.
        -24    1    1    2    0    0  0.15208147772E+02 -0.15055632084E+02  0.38718513749E+03  0.39602715369E+03  0.80419002446E+02 0.  1.
<mgrwt>
<rscale>  0 0.83217641E+02</rscale>
<asrwt>0</asrwt>
<pdfrwt beam="1">  1        2 0.24679964E+00 0.83217641E+02</pdfrwt>
<pdfrwt beam="2">  1       -2 0.89981188E-03 0.83217641E+02</pdfrwt>
<totfact> 0.27639546E+04</totfact>
</mgrwt>
</event>
<event>
 4    1  0.4940461E-001  0.1180297E+03  0.7546771E-02  0.1246383E+00
          2   -1    0    0  501    0  0.00000000000E+00  0.00000000000E+00  0.16530295431E+03  0.16530295431E+03  0.00000000000E+00 0. -1.
         -2   -1    0    0    0  501 -0.00000000000E+00 -0.00000000000E+00 -0.87965993842E+02  0.87965993842E+02  0.00000000000E+00 0.  1.
         24    1    1    2    0    0 -0.26048470886E+02  0.82372698329E+02  0.64606262341E+02  0.13455470766E+03  0.80419002446E+02 0. -1.
        -24    1    1    2    0    0  0.26048470886E+02 -0.82372698329E+02  0.12730698123E+02  0.11871424049E+03  0.80419002446E+02 0.  1.
<mgrwt>
<rscale>  0 0.11802966E+03</rscale>
<asrwt>0</asrwt>
<pdfrwt beam="1">  1        2 0.25431224E-01 0.11802966E+03</pdfrwt>
<pdfrwt beam="2">  1       -2 0.13533230E-01 0.11802966E+03</pdfrwt>
<totfact> 0.80168009E+03</totfact>
</mgrwt>
</event>
<event>
 4    1  0.4940461E-001  0.9187167E+02  0.7546771E-02  0.1298381E+00
         -2   -1    0    0    0  501 -0.00000000000E+00  0.00000000000E+00  0.30444691612E+02  0.30444691612E+02  0.00000000000E+00 0.  1.
          2   -1    0    0  501    0  0.00000000000E+00 -0.00000000000E+00 -0.29712234313E+03  0.29712234313E+03  0.00000000000E+00 0. -1.
         24    1    1    2    0    0  0.32132634850E+02  0.30670535356E+02 -0.17570954863E+03  0.19827821211E+03  0.80419002446E+02 0. -1.
        -24    1    1    2    0    0 -0.32132634850E+02 -0.30670535356E+02 -0.90968102888E+02  0.12928882264E+03  0.80419002446E+02 0.  1.
<mgrwt>
<rscale>  0 0.91871671E+02</rscale>
<asrwt>0</asrwt>
<pdfrwt beam="1">  1        2 0.45711130E-01 0.91871671E+02</pdfrwt>
<pdfrwt beam="2">  1       -2 0.46837987E-02 0.91871671E+02</pdfrwt>
<totfact> 0.21434308E+04</totfact>
</mgrwt>
</event>
<event>
 4    1  0.4940461E-001  0.1014549E+03  0.7546771E-02  0.1277266E+00
         -1   -1    0    0    0  501 -0.00000000000E+00  0.00000000000E+00  0.26018479997E+02  0.26018479997E+02  0.00000000000E+00 0.  1.
          1   -1    0    0  501    0  0.00000000000E+00 -0.00000000000E+00 -0.73941310361E+03  0.73941310361E+03  0.00000000000E+00 0. -1.
         24    1    1    2    0    0 -0.59139836425E+02  0.18120920709E+02 -0.95728065266E+02  0.13948823052E+03  0.80419002446E+02 0.  1.
        -24    1    1    2    0    0  0.59139836425E+02 -0.18120920709E+02 -0.61766655834E+03  0.62594335308E+03  0.80419002446E+02 0. -1.
<mgrwt>
<rscale>  0 0.10145494E+03</rscale>
<asrwt>0</asrwt>
<pdfrwt beam="1">  1        1 0.11375586E+00 0.10145494E+03</pdfrwt>
<pdfrwt beam="2">  1       -1 0.40028431E-02 0.10145494E+03</pdfrwt>
<totfact> 0.60748413E+03</totfact>
</mgrwt>
</event>
<event>
 4    1  0.4940461E-001  0.8115543E+02  0.7546771E-02  0.1325804E+00
         -2   -1    0    0    0  501 -0.00000000000E+00  0.00000000000E+00  0.34301070283E+02  0.34301070283E+02  0.00000000000E+00 0.  1.
          2   -1    0    0  501    0  0.00000000000E+00 -0.00000000000E+00 -0.19886863976E+04  0.19886863976E+04  0.00000000000E+00 0. -1.
         24    1    1    2    0    0  0.10288853694E+02 -0.36232673562E+01 -0.19386162648E+04  0.19403142082E+04  0.80419002446E+02 0. -1.
        -24    1    1    2    0    0 -0.10288853694E+02  0.36232673562E+01 -0.15769062537E+02  0.82673259669E+02  0.80419002446E+02 0.  1.
<mgrwt>
<rscale>  0 0.81155434E+02</rscale>
<asrwt>0</asrwt>
<pdfrwt beam="1">  1        2 0.30595176E+00 0.81155434E+02</pdfrwt>
<pdfrwt beam="2">  1       -2 0.52770876E-02 0.81155434E+02</pdfrwt>
<totfact> 0.13905668E+03</totfact>
</mgrwt>
</event>
<event>
 4    1  0.4940461E-001  0.9990414E+02  0.7546771E-02  0.1280498E+00
          1   -1    0    0  501    0  0.00000000000E+00  0.00000000000E+00  0.42586060350E+03  0.42586060350E+03  0.00000000000E+00 0. -1.
         -1   -1    0    0    0  501 -0.00000000000E+00 -0.00000000000E+00 -0.23907089506E+02  0.23907089506E+02  0.00000000000E+00 0.  1.
         24    1    1    2    0    0  0.30388213739E+02 -0.50893797711E+02  0.16943783684E+03  0.19669778516E+03  0.80419002446E+02 0.  0.
        -24    1    1    2    0    0 -0.30388213739E+02  0.50893797711E+02  0.23251567716E+03  0.25306990785E+03  0.80419002446E+02 0. -1.
<mgrwt>
<rscale>  0 0.99904145E+02</rscale>
<asrwt>0</asrwt>
<pdfrwt beam="1">  1        1 0.65517010E-01 0.99904145E+02</pdfrwt>
<pdfrwt beam="2">  1       -1 0.36780141E-02 0.99904145E+02</pdfrwt>
<totfact> 0.14305176E+04</totfact>
</mgrwt>
</event>
<event>
 4    1  0.4940461E-001  0.1108634E+03  0.7546771E-02  0.1258979E+00
          2   -1    0    0  501    0  0.00000000000E+00  0.00000000000E+00  0.78272518473E+03  0.78272518473E+03  0.00000000000E+00 0. -1.
         -2   -1    0    0    0  501 -0.00000000000E+00 -0.00000000000E+00 -0.24526356538E+02  0.24526356538E+02  0.00000000000E+00 0.  1.
         24    1    1    2    0    0 -0.66205300841E+02  0.37951675779E+02  0.62119858814E+03  0.63101376642E+03  0.80419002446E+02 0. -1.
        -24    1    1    2    0    0  0.66205300841E+02 -0.37951675779E+02  0.13700024006E+03  0.17623777485E+03  0.80419002446E+02 0.  1.
<mgrwt>
<rscale>  0 0.11086337E+03</rscale>
<asrwt>0</asrwt>
<pdfrwt beam="1">  1        2 0.12041924E+00 0.11086337E+03</pdfrwt>
<pdfrwt beam="2">  1       -2 0.37732862E-02 0.11086337E+03</pdfrwt>
<totfact> 0.10362448E+04</totfact>
</mgrwt>
</event>
<event>
 4    1  0.4940461E-001  0.8092736E+02  0.7546771E-02  0.1326440E+00
          2   -1    0    0  501    0  0.00000000000E+00  0.00000000000E+00  0.74251186749E+01  0.74251186749E+01  0.00000000000E+00 0. -1.
         -2   -1    0    0    0  501 -0.00000000000E+00 -0.00000000000E+00 -0.13647328899E+04  0.13647328899E+04  0.00000000000E+00 0.  1.
         24    1    1    2    0    0 -0.86819879692E+01  0.25776999930E+01 -0.27062903415E+03  0.28247001882E+03  0.80419002446E+02 0. -1.
        -24    1    1    2    0    0  0.86819879692E+01 -0.25776999930E+01 -0.10866787371E+04  0.10896879898E+04  0.80419002446E+02 0.  0.
<mgrwt>
<rscale>  0 0.80927359E+02</rscale>
<asrwt>0</asrwt>
<pdfrwt beam="1">  1        2 0.11423253E-02 0.80927359E+02</pdfrwt>
<pdfrwt beam="2">  1       -2 0.20995903E+00 0.80927359E+02</pdfrwt>
<totfact> 0.13842958E+03</totfact>
</mgrwt>
</event>
<event>
 4    1  0.4940461E-001  0.1111299E+03  0.7546771E-02  0.1258492E+00
         -2   -1    0    0    0  501 -0.00000000000E+00  0.00000000000E+00  0.62610333665E+02  0.62610333665E+02  0.00000000000E+00 0.  1.
          2   -1    0    0  501    0  0.00000000000E+00 -0.00000000000E+00 -0.73308992112E+03  0.73308992112E+03  0.00000000000E+00 0. -1.
         24    1    1    2    0    0  0.48963674634E+02  0.59035484398E+02 -0.67538055972E+03  0.68446237753E+03  0.80419002446E+02 0. -1.
        -24    1    1    2    0    0 -0.48963674634E+02 -0.59035484398E+02  0.49009722686E+01  0.11123787725E+03  0.80419002446E+02 0.  1.
<mgrwt>
<rscale>  0 0.11112986E+03</rscale>
<asrwt>0</asrwt>
<pdfrwt beam="1">  1        2 0.11278307E+00 0.11112986E+03</pdfrwt>
<pdfrwt beam="2">  1       -2 0.96323587E-02 0.11112986E+03</pdfrwt>
<totfact> 0.27211072E+03</totfact>
</mgrwt>
</event>
<event>
 4    1  0.4940461E-001  0.8639084E+02  0.7546771E-02  0.1311835E+00
          4   -1    0    0  501    0  0.00000000000E+00  0.00000000000E+00  0.81275413254E+03  0.81275413254E+03  0.00000000000E+00 0.  1.
         -4   -1    0    0    0  501 -0.00000000000E+00 -0.00000000000E+00 -0.15545351802E+02  0.15545351802E+02  0.00000000000E+00 0. -1.
         24    1    1    2    0    0 -0.27928837538E+02  0.14701768233E+02  0.66355930199E+03  0.66915941686E+03  0.80419002446E+02 0.  0.
        -24    1    1    2    0    0  0.27928837538E+02 -0.14701768233E+02  0.13364947875E+03  0.15914006749E+03  0.80419002446E+02 0.  0.
<mgrwt>
<rscale>  0 0.86390844E+02</rscale>
<asrwt>0</asrwt>
<pdfrwt beam="1">  1        4 0.12503906E+00 0.86390844E+02</pdfrwt>
<pdfrwt beam="2">  1       -4 0.23915932E-02 0.86390844E+02</pdfrwt>
<totfact> 0.58264414E+02</totfact>
</mgrwt>
</event>
<event>
 4    1  0.4940461E-001  0.8493375E+02  0.7546771E-02  0.1315606E+00
         -2   -1    0    0    0  501 -0.00000000000E+00  0.00000000000E+00  0.95267060030E+01  0.95267060030E+01  0.00000000000E+00 0.  1.
          2   -1    0    0  501    0  0.00000000000E+00 -0.00000000000E+00 -0.16491536365E+04  0.16491536365E+04  0.00000000000E+00 0. -1.
         24    1    1    2    0    0 -0.27176436064E+02  0.28225683112E+01 -0.14297297428E+04  0.14322502850E+04  0.80419002446E+02 0.  0.
        -24    1    1    2    0    0  0.27176436064E+02 -0.28225683112E+01 -0.20989718768E+03  0.22643005746E+03  0.80419002446E+02 0.  0.
<mgrwt>
<rscale>  0 0.84933748E+02</rscale>
<asrwt>0</asrwt>
<pdfrwt beam="1">  1        2 0.25371602E+00 0.84933748E+02</pdfrwt>
<pdfrwt beam="2">  1       -2 0.14656466E-02 0.84933748E+02</pdfrwt>
<totfact> 0.13168016E+04</totfact>
</mgrwt>
</event>
<event>
 4    1  0.4940461E-001  0.8215880E+02  0.7546771E-02  0.1323034E+00
          1   -1    0    0  501    0  0.00000000000E+00  0.00000000000E+00  0.16361769929E+02  0.16361769929E+02  0.00000000000E+00 0. -1.
         -1   -1    0    0    0  501 -0.00000000000E+00 -0.00000000000E+00 -0.48207206920E+03  0.48207206920E+03  0.00000000000E+00 0.  1.
         24    1    1    2    0    0  0.19450502174E+01  0.16705361715E+02 -0.32749608991E+03  0.33764442420E+03  0.80419002446E+02 0.  0.
        -24    1    1    2    0    0 -0.19450502174E+01 -0.16705361715E+02 -0.13821420936E+03  0.16078941493E+03  0.80419002446E+02 0. -1.
<mgrwt>
<rscale>  0 0.82158799E+02</rscale>
<asrwt>0</asrwt>
<pdfrwt beam="1">  1        1 0.25171957E-02 0.82158799E+02</pdfrwt>
<pdfrwt beam="2">  1       -1 0.74164923E-01 0.82158799E+02</pdfrwt>
<totfact> 0.75301871E+03</totfact>
</mgrwt>
</event>
<event>
 4    1  0.4940461E-001  0.8187342E+02  0.7546771E-02  0.1323817E+00
          4   -1    0    0  501    0  0.00000000000E+00  0.00000000000E+00  0.14761603583E+03  0.14761603583E+03  0.00000000000E+00 0. -1.
         -4   -1    0    0    0  501 -0.00000000000E+00 -0.00000000000E+00 -0.51505875704E+02  0.51505875704E+02  0.00000000000E+00 0.  1.
         24    1    1    2    0    0  0.15189096442E+02  0.23090881129E+01  0.82306276875E+02  0.11609297871E+03  0.80419002446E+02 0. -1.
        -24    1    1    2    0    0 -0.15189096442E+02 -0.23090881129E+01  0.13803883251E+02  0.83028932824E+02  0.80419002446E+02 0.  1.
<mgrwt>
<rscale>  0 0.81873417E+02</rscale>
<asrwt>0</asrwt>
<pdfrwt beam="1">  1        4 0.22710159E-01 0.81873417E+02</pdfrwt>
<pdfrwt beam="2">  1       -4 0.79239809E-02 0.81873417E+02</pdfrwt>
<totfact> 0.28859921E+03</totfact>
</mgrwt>
</event>
<event>
 4    1  0.4940461E-001  0.9920467E+02  0.7546771E-02  0.1281977E+00
         -1   -1    0    0    0  501 -0.00000000000E+00  0.00000000000E+00  0.44333636392E+03  0.44333636392E+03  0.00000000000E+00 0.  1.
          1   -1    0    0  501    0  0.00000000000E+00 -0.00000000000E+00 -0.31399006376E+02  0.31399006376E+02  0.00000000000E+00 0. -1.
         24    1    1    2    0    0  0.26347716334E+02 -0.51770149489E+02  0.33445614502E+03  0.34885882450E+03  0.80419002446E+02 0. -1.
        -24    1    1    2    0    0 -0.26347716334E+02  0.51770149489E+02  0.77481212531E+02  0.12587654580E+03  0.80419002446E+02 0. -1.
<mgrwt>
<rscale>  0 0.99204670E+02</rscale>
<asrwt>0</asrwt>
<pdfrwt beam="1">  1        1 0.48306167E-02 0.99204670E+02</pdfrwt>
<pdfrwt beam="2">  1       -1 0.68205590E-01 0.99204670E+02</pdfrwt>
<totfact> 0.37070166E+03</totfact>
</mgrwt>
</event>
<event>
 4    1  0.4940461E-001  0.8380430E+02  0.7546771E-02  0.1318589E+00
         -2   -1    0    0    0  501 -0.00000000000E+00  0.00000000000E+00  0.56189178685E+02  0.56189178685E+02  0.00000000000E+00 0.  1.
          2   -1    0    0  501    0  0.00000000000E+00 -0.00000000000E+00 -0.14618632354E+03  0.14618632354E+03  0.00000000000E+00 0. -1.
         24    1    1    2    0    0 -0.30478869671E+01  0.23380647757E+02 -0.83527879712E+02  0.11832187857E+03  0.80419002446E+02 0. -1.
        -24    1    1    2    0    0  0.30478869671E+01 -0.23380647757E+02 -0.64692651475E+01  0.84053623660E+02  0.80419002446E+02 0.  1.
<mgrwt>
<rscale>  0 0.83804297E+02</rscale>
<asrwt>0</asrwt>
<pdfrwt beam="1">  1        2 0.22490203E-01 0.83804297E+02</pdfrwt>
<pdfrwt beam="2">  1       -2 0.86444892E-02 0.83804297E+02</pdfrwt>
<totfact> 0.17962186E+04</totfact>
</mgrwt>
</event>
<event>
 4    1  0.4940461E-001  0.1426969E+03  0.7546771E-02  0.1209746E+00
         -1   -1    0    0    0  501 -0.00000000000E+00  0.00000000000E+00  0.23157328632E+03  0.23157328632E+03  0.00000000000E+00 0.  1.
          1   -1    0    0  501    0  0.00000000000E+00 -0.00000000000E+00 -0.10706646649E+03  0.10706646649E+03  0.00000000000E+00 0. -1.
         24    1    1    2    0    0 -0.11737612238E+03 -0.10864084755E+02  0.13383548352E+03  0.19563827603E+03  0.80419002446E+02 0.  1.
        -24    1    1    2    0    0  0.11737612238E+03  0.10864084755E+02 -0.93286636865E+01  0.14300147678E+03  0.80419002446E+02 0. -1.
<mgrwt>
<rscale>  0 0.14269688E+03</rscale>
<asrwt>0</asrwt>
<pdfrwt beam="1">  1        1 0.16471764E-01 0.14269688E+03</pdfrwt>
<pdfrwt beam="2">  1       -1 0.35626659E-01 0.14269688E+03</pdfrwt>
<totfact> 0.24260985E+03</totfact>
</mgrwt>
</event>
<event>
 4    1  0.4940461E-001  0.8833654E+02  0.7546771E-02  0.1306931E+00
          1   -1    0    0  501    0  0.00000000000E+00  0.00000000000E+00  0.17370558222E+03  0.17370558222E+03  0.00000000000E+00 0. -1.
         -1   -1    0    0    0  501 -0.00000000000E+00 -0.00000000000E+00 -0.53323575949E+02  0.53323575949E+02  0.00000000000E+00 0.  1.
         24    1    1    2    0    0 -0.28821573825E+02 -0.22482108455E+02  0.15135147322E+02  0.89623752193E+02  0.80419002446E+02 0.  0.
        -24    1    1    2    0    0  0.28821573825E+02  0.22482108455E+02  0.10524685895E+03  0.13740540597E+03  0.80419002446E+02 0.  0.
<mgrwt>
<rscale>  0 0.88336540E+02</rscale>
<asrwt>0</asrwt>
<pdfrwt beam="1">  1        1 0.26723935E-01 0.88336540E+02</pdfrwt>
<pdfrwt beam="2">  1       -1 0.82036272E-02 0.88336540E+02</pdfrwt>
<totfact> 0.13080636E+04</totfact>
</mgrwt>
</event>
<event>
 4    1  0.4940461E-001  0.8235897E+02  0.7546771E-02  0.1322487E+00
         -3   -1    0    0    0  501 -0.00000000000E+00  0.00000000000E+00  0.42492837026E+02  0.42492837026E+02  0.00000000000E+00 0.  1.
          3   -1    0    0  501    0  0.00000000000E+00 -0.00000000000E+00 -0.16091542564E+03  0.16091542564E+03  0.00000000000E+00 0. -1.
         24    1    1    2    0    0  0.11053771882E+02 -0.13913822444E+02 -0.68312531310E+02  0.10700279537E+03  0.80419002446E+02 0.  1.
        -24    1    1    2    0    0 -0.11053771882E+02  0.13913822444E+02 -0.50110057303E+02  0.96405467299E+02  0.80419002446E+02 0. -1.
<mgrwt>
<rscale>  0 0.82358958E+02</rscale>
<asrwt>0</asrwt>
<pdfrwt beam="1">  1        3 0.24756219E-01 0.82358968E+02</pdfrwt>
<pdfrwt beam="2">  1       -3 0.65373596E-02 0.82358968E+02</pdfrwt>
<totfact> 0.46380636E+03</totfact>
</mgrwt>
</event>
<event>
 4    1  0.4940461E-001  0.1155824E+03  0.7546771E-02  0.1250568E+00
         -2   -1    0    0    0  501 -0.00000000000E+00  0.00000000000E+00  0.84727829928E+02  0.84727829928E+02  0.00000000000E+00 0.  1.
          2   -1    0    0  501    0  0.00000000000E+00 -0.00000000000E+00 -0.21675667691E+03  0.21675667691E+03  0.00000000000E+00 0. -1.
         24    1    1    2    0    0  0.17444072270E+02  0.81165117345E+02 -0.14471585992E+03  0.18520790480E+03  0.80419002446E+02 0. -1.
        -24    1    1    2    0    0 -0.17444072270E+02 -0.81165117345E+02  0.12687012941E+02  0.11627660204E+03  0.80419002446E+02 0.  1.
<mgrwt>
<rscale>  0 0.11558239E+03</rscale>
<asrwt>0</asrwt>
<pdfrwt beam="1">  1        2 0.33347180E-01 0.11558239E+03</pdfrwt>
<pdfrwt beam="2">  1       -2 0.13035051E-01 0.11558239E+03</pdfrwt>
<totfact> 0.63420845E+03</totfact>
</mgrwt>
</event>
<event>
 4    1  0.4940461E-001  0.1197244E+03  0.7546771E-02  0.1243552E+00
          2   -1    0    0  501    0  0.00000000000E+00  0.00000000000E+00  0.18620433785E+04  0.18620433785E+04  0.00000000000E+00 0. -1.
         -2   -1    0    0    0  501 -0.00000000000E+00 -0.00000000000E+00 -0.30758890583E+02  0.30758890583E+02  0.00000000000E+00 0.  1.
         24    1    1    2    0    0 -0.31696511177E+02 -0.82837423303E+02  0.17351034404E+04  0.17392291029E+04  0.80419002446E+02 0. -1.
        -24    1    1    2    0    0  0.31696511177E+02  0.82837423303E+02  0.96181047546E+02  0.15357316622E+03  0.80419002446E+02 0.  1.
<mgrwt>
<rscale>  0 0.11972436E+03</rscale>
<asrwt>0</asrwt>
<pdfrwt beam="1">  1        2 0.28646812E+00 0.11972436E+03</pdfrwt>
<pdfrwt beam="2">  1       -2 0.47321385E-02 0.11972436E+03</pdfrwt>
<totfact> 0.18870313E+03</totfact>
</mgrwt>
</event>
<event>
 4    1  0.4940461E-001  0.1578247E+03  0.7546771E-02  0.1191175E+00
          2   -1    0    0  501    0  0.00000000000E+00  0.00000000000E+00  0.18491344233E+03  0.18491344233E+03  0.00000000000E+00 0. -1.
         -2   -1    0    0    0  501 -0.00000000000E+00 -0.00000000000E+00 -0.27705376100E+03  0.27705376100E+03  0.00000000000E+00 0.  1.
         24    1    1    2    0    0  0.42623687101E+02  0.12893659615E+03  0.11949806794E+03  0.19796067469E+03  0.80419002446E+02 0.  0.
        -24    1    1    2    0    0 -0.42623687101E+02 -0.12893659615E+03 -0.21163838660E+03  0.26400652865E+03  0.80419002446E+02 0. -1.
<mgrwt>
<rscale>  0 0.15782471E+03</rscale>
<asrwt>0</asrwt>
<pdfrwt beam="1">  1        2 0.28448222E-01 0.15782471E+03</pdfrwt>
<pdfrwt beam="2">  1       -2 0.42623655E-01 0.15782471E+03</pdfrwt>
<totfact> 0.97048338E+02</totfact>
</mgrwt>
</event>
<event>
 4    1  0.4940461E-001  0.8079098E+02  0.7546771E-02  0.1326822E+00
         -4   -1    0    0    0  501 -0.00000000000E+00  0.00000000000E+00  0.13375753882E+02  0.13375753882E+02  0.00000000000E+00 0.  1.
          4   -1    0    0  501    0  0.00000000000E+00 -0.00000000000E+00 -0.48981963032E+03  0.48981963032E+03  0.00000000000E+00 0. -1.
         24    1    1    2    0    0 -0.15409581332E+01  0.75886988814E+01 -0.22282762986E+03  0.23702179538E+03  0.80419002446E+02 0.  1.
        -24    1    1    2    0    0  0.15409581332E+01 -0.75886988814E+01 -0.25361624658E+03  0.26617358882E+03  0.80419002446E+02 0. -1.
<mgrwt>
<rscale>  0 0.80790968E+02</rscale>
<asrwt>0</asrwt>
<pdfrwt beam="1">  1        4 0.75356870E-01 0.80790978E+02</pdfrwt>
<pdfrwt beam="2">  1       -4 0.20578082E-02 0.80790978E+02</pdfrwt>
<totfact> 0.22765636E+03</totfact>
</mgrwt>
</event>
<event>
 4    1  0.4940461E-001  0.8123521E+02  0.7546771E-02  0.1325582E+00
          1   -1    0    0  501    0  0.00000000000E+00  0.00000000000E+00  0.86677990793E+03  0.86677990793E+03  0.00000000000E+00 0. -1.
         -1   -1    0    0    0  501 -0.00000000000E+00 -0.00000000000E+00 -0.14833461919E+03  0.14833461919E+03  0.00000000000E+00 0.  1.
         24    1    1    2    0    0  0.11465072888E+02  0.70355517275E+00 -0.13513761522E+03  0.15767477252E+03  0.80419002446E+02 0.  1.
        -24    1    1    2    0    0 -0.11465072888E+02 -0.70355517275E+00  0.85358290396E+03  0.85743975460E+03  0.80419002446E+02 0. -1.
<mgrwt>
<rscale>  0 0.81235207E+02</rscale>
<asrwt>0</asrwt>
<pdfrwt beam="1">  1        1 0.13335075E+00 0.81235207E+02</pdfrwt>
<pdfrwt beam="2">  1       -1 0.22820711E-01 0.81235207E+02</pdfrwt>
<totfact> 0.34264190E+02</totfact>
</mgrwt>
</event>
<event>
 4    1  0.4940461E-001  0.8180812E+02  0.7546771E-02  0.1323997E+00
          1   -1    0    0  501    0  0.00000000000E+00  0.00000000000E+00  0.23934674982E+03  0.23934674982E+03  0.00000000000E+00 0. -1.
         -1   -1    0    0    0  501 -0.00000000000E+00 -0.00000000000E+00 -0.21523778566E+03  0.21523778566E+03  0.00000000000E+00 0.  1.
         24    1    1    2    0    0  0.57128353363E+01 -0.13882193173E+02 -0.19996044611E+03  0.21604802183E+03  0.80419002446E+02 0.  1.
        -24    1    1    2    0    0 -0.57128353363E+01  0.13882193173E+02  0.22406941026E+03  0.23853651365E+03  0.80419002446E+02 0. -1.
<mgrwt>
<rscale>  0 0.81808115E+02</rscale>
<asrwt>0</asrwt>
<pdfrwt beam="1">  1        1 0.36822577E-01 0.81808115E+02</pdfrwt>
<pdfrwt beam="2">  1       -1 0.33113505E-01 0.81808115E+02</pdfrwt>
<totfact> 0.98639235E+02</totfact>
</mgrwt>
</event>
<event>
 4    1  0.4940461E-001  0.9374556E+02  0.7546771E-02  0.1294027E+00
         -1   -1    0    0    0  501 -0.00000000000E+00  0.00000000000E+00  0.33530709971E+02  0.33530709971E+02  0.00000000000E+00 0.  1.
          1   -1    0    0  501    0  0.00000000000E+00 -0.00000000000E+00 -0.38900127803E+03  0.38900127803E+03  0.00000000000E+00 0. -1.
         24    1    1    2    0    0 -0.24842518382E+02 -0.41277875131E+02 -0.57066280141E+02  0.10974875844E+03  0.80419002446E+02 0.  1.
        -24    1    1    2    0    0  0.24842518382E+02  0.41277875131E+02 -0.29840428792E+03  0.31278322956E+03  0.80419002446E+02 0. -1.
<mgrwt>
<rscale>  0 0.93745558E+02</rscale>
<asrwt>0</asrwt>
<pdfrwt beam="1">  1        1 0.59846348E-01 0.93745558E+02</pdfrwt>
<pdfrwt beam="2">  1       -1 0.51585710E-02 0.93745558E+02</pdfrwt>
<totfact> 0.97235898E+03</totfact>
</mgrwt>
</event>
<event>
 4    1  0.4940461E-001  0.8724227E+02  0.7546771E-02  0.1309671E+00
          2   -1    0    0  501    0  0.00000000000E+00  0.00000000000E+00  0.14560117672E+03  0.14560117672E+03  0.00000000000E+00 0. -1.
         -2   -1    0    0    0  501 -0.00000000000E+00 -0.00000000000E+00 -0.74163644999E+02  0.74163644999E+02  0.00000000000E+00 0.  1.
         24    1    1    2    0    0  0.54442554174E+01 -0.33382009976E+02  0.95415148617E+02  0.12928752858E+03  0.80419002446E+02 0.  1.
        -24    1    1    2    0    0 -0.54442554174E+01  0.33382009976E+02 -0.23977616895E+02  0.90477293137E+02  0.80419002446E+02 0.  1.
<mgrwt>
<rscale>  0 0.87242275E+02</rscale>
<asrwt>0</asrwt>
<pdfrwt beam="1">  1        2 0.22400181E-01 0.87242275E+02</pdfrwt>
<pdfrwt beam="2">  1       -2 0.11409792E-01 0.87242275E+02</pdfrwt>
<totfact> 0.11776708E+04</totfact>
</mgrwt>
</event>
<event>
 4    1  0.4940461E-001  0.8044572E+02  0.7546771E-02  0.1327791E+00
          2   -1    0    0  501    0  0.00000000000E+00  0.00000000000E+00  0.21095933669E+04  0.21095933669E+04  0.00000000000E+00 0. -1.
         -2   -1    0    0    0  501 -0.00000000000E+00 -0.00000000000E+00 -0.39705178309E+01  0.39705178309E+01  0.00000000000E+00 0.  1.
         24    1    1    2    0    0  0.14329005811E+01  0.14983509094E+01  0.15567430379E+04  0.15588201950E+04  0.80419002446E+02 0.  0.
        -24    1    1    2    0    0 -0.14329005811E+01 -0.14983509094E+01  0.54887981114E+03  0.55474368972E+03  0.80419002446E+02 0.  1.
<mgrwt>
<rscale>  0 0.80445722E+02</rscale>
<asrwt>0</asrwt>
<pdfrwt beam="1">  1        2 0.32455193E+00 0.80445722E+02</pdfrwt>
<pdfrwt beam="2">  1       -2 0.61085058E-03 0.80445722E+02</pdfrwt>
<totfact> 0.26545652E+04</totfact>
</mgrwt>
</event>
<event>
 4    1  0.4940461E-001  0.8980518E+02  0.7546771E-02  0.1303324E+00
         -4   -1    0    0    0  501 -0.00000000000E+00  0.00000000000E+00  0.95198450401E+03  0.95198450401E+03  0.00000000000E+00 0.  1.
          4   -1    0    0  501    0  0.00000000000E+00 -0.00000000000E+00 -0.14239106962E+02  0.14239106962E+02  0.00000000000E+00 0. -1.
         24    1    1    2    0    0 -0.35848442743E+02 -0.17681743902E+02  0.16140829527E+03  0.18470952507E+03  0.80419002446E+02 0. -1.
        -24    1    1    2    0    0  0.35848442743E+02  0.17681743902E+02  0.77633710178E+03  0.78151408591E+03  0.80419002446E+02 0.  1.
<mgrwt>
<rscale>  0 0.89805183E+02</rscale>
<asrwt>0</asrwt>
<pdfrwt beam="1">  1        4 0.21906326E-02 0.89805183E+02</pdfrwt>
<pdfrwt beam="2">  1       -4 0.14645910E+00 0.89805183E+02</pdfrwt>
<totfact> 0.45710070E+02</totfact>
</mgrwt>
</event>
<event>
 4    1  0.4940461E-001  0.1013547E+03  0.7546771E-02  0.1277473E+00
         -1   -1    0    0    0  501 -0.00000000000E+00  0.00000000000E+00  0.94450261141E+03  0.94450261141E+03  0.00000000000E+00 0.  1.
          1   -1    0    0  501    0  0.00000000000E+00 -0.00000000000E+00 -0.33531455194E+02  0.33531455194E+02  0.00000000000E+00 0. -1.
         24    1    1    2    0    0 -0.59874088435E+02 -0.14854612552E+02  0.85744333302E+03  0.86341290891E+03  0.80419002446E+02 0.  1.
        -24    1    1    2    0    0  0.59874088435E+02  0.14854612552E+02  0.53527823194E+02  0.11462115769E+03  0.80419002446E+02 0. -1.
<mgrwt>
<rscale>  0 0.10135473E+03</rscale>
<asrwt>0</asrwt>
<pdfrwt beam="1">  1        1 0.51586861E-02 0.10135473E+03</pdfrwt>
<pdfrwt beam="2">  1       -1 0.14530807E+00 0.10135473E+03</pdfrwt>
<totfact> 0.64417100E+02</totfact>
</mgrwt>
</event>
<event>
 4    1  0.4940461E-001  0.8126763E+02  0.7546771E-02  0.1325492E+00
         -1   -1    0    0    0  501 -0.00000000000E+00  0.00000000000E+00  0.43463212309E+02  0.43463212309E+02  0.00000000000E+00 0.  1.
          1   -1    0    0  501    0  0.00000000000E+00 -0.00000000000E+00 -0.51930956699E+03  0.51930956699E+03  0.00000000000E+00 0. -1.
         24    1    1    2    0    0 -0.10367010933E+02  0.54531696826E+01 -0.12587523530E+01  0.81277379308E+02  0.80419002446E+02 0.  1.
        -24    1    1    2    0    0  0.10367010933E+02 -0.54531696826E+01 -0.47458760233E+03  0.48149540000E+03  0.80419002446E+02 0.  0.
<mgrwt>
<rscale>  0 0.81267632E+02</rscale>
<asrwt>0</asrwt>
<pdfrwt beam="1">  1        1 0.79893782E-01 0.81267632E+02</pdfrwt>
<pdfrwt beam="2">  1       -1 0.66866479E-02 0.81267632E+02</pdfrwt>
<totfact> 0.45642642E+03</totfact>
</mgrwt>
</event>
<event>
 4    1  0.4940461E-001  0.8353753E+02  0.7546771E-02  0.1319302E+00
         -2   -1    0    0    0  501 -0.00000000000E+00  0.00000000000E+00  0.25458907242E+02  0.25458907242E+02  0.00000000000E+00 0.  1.
          2   -1    0    0  501    0  0.00000000000E+00 -0.00000000000E+00 -0.29228519711E+03  0.29228519711E+03  0.00000000000E+00 0. -1.
         24    1    1    2    0    0 -0.11518948296E+02  0.19458069258E+02 -0.17303129652E+03  0.19214147954E+03  0.80419002446E+02 0.  0.
        -24    1    1    2    0    0  0.11518948296E+02 -0.19458069258E+02 -0.93794993351E+02  0.12560262482E+03  0.80419002446E+02 0.  0.
<mgrwt>
<rscale>  0 0.83537528E+02</rscale>
<asrwt>0</asrwt>
<pdfrwt beam="1">  1        2 0.44966954E-01 0.83537528E+02</pdfrwt>
<pdfrwt beam="2">  1       -2 0.39167549E-02 0.83537528E+02</pdfrwt>
<totfact> 0.28073967E+04</totfact>
</mgrwt>
</event>
<event>
 4    1  0.4940461E-001  0.1146601E+03  0.7546771E-02  0.1252176E+00
          1   -1    0    0  501    0  0.00000000000E+00  0.00000000000E+00  0.46612090733E+03  0.46612090733E+03  0.00000000000E+00 0. -1.
         -1   -1    0    0    0  501 -0.00000000000E+00 -0.00000000000E+00 -0.35149644440E+02  0.35149644440E+02  0.00000000000E+00 0.  1.
         24    1    1    2    0    0 -0.63539570432E+02 -0.51404737315E+02  0.10408010133E+03  0.15485350328E+03  0.80419002446E+02 0.  1.
        -24    1    1    2    0    0  0.63539570432E+02  0.51404737315E+02  0.32689116155E+03  0.34641704849E+03  0.80419002446E+02 0. -1.
<mgrwt>
<rscale>  0 0.11466011E+03</rscale>
<asrwt>0</asrwt>
<pdfrwt beam="1">  1        1 0.71710904E-01 0.11466011E+03</pdfrwt>
<pdfrwt beam="2">  1       -1 0.54076379E-02 0.11466011E+03</pdfrwt>
<totfact> 0.73343711E+03</totfact>
</mgrwt>
</event>
<event>
 4    1  0.4940461E-001  0.9334099E+02  0.7546771E-02  0.1294957E+00
         -2   -1    0    0    0  501 -0.00000000000E+00  0.00000000000E+00  0.29669363872E+01  0.29669363872E+01  0.00000000000E+00 0.  1.
          2   -1    0    0  501    0  0.00000000000E+00 -0.00000000000E+00 -0.29682388100E+04  0.29682388100E+04  0.00000000000E+00 0. -1.
         24    1    1    2    0    0 -0.12219372005E+01  0.47369089691E+02 -0.16361493191E+04  0.16388096699E+04  0.80419002446E+02 0.  0.
        -24    1    1    2    0    0  0.12219372005E+01 -0.47369089691E+02 -0.13291225546E+04  0.13323960765E+04  0.80419002446E+02 0.  1.
<mgrwt>
<rscale>  0 0.93340986E+02</rscale>
<asrwt>0</asrwt>
<pdfrwt beam="1">  1        2 0.45665221E+00 0.93340986E+02</pdfrwt>
<pdfrwt beam="2">  1       -2 0.45645167E-03 0.93340986E+02</pdfrwt>
<totfact> 0.14124723E+04</totfact>
</mgrwt>
</event>
<event>
 4    1  0.4940461E-001  0.8888760E+02  0.7546771E-02  0.1305568E+00
          1   -1    0    0  501    0  0.00000000000E+00  0.00000000000E+00  0.88109386962E+03  0.88109386962E+03  0.00000000000E+00 0. -1.
         -1   -1    0    0    0  501 -0.00000000000E+00 -0.00000000000E+00 -0.43642298230E+02  0.43642298230E+02  0.00000000000E+00 0.  1.
         24    1    1    2    0    0 -0.97358871141E+01  0.36592379201E+02  0.65879744797E+01  0.89131403420E+02  0.80419002446E+02 0.  1.
        -24    1    1    2    0    0  0.97358871141E+01 -0.36592379201E+02  0.83086359691E+03  0.83560476443E+03  0.80419002446E+02 0. -1.
<mgrwt>
<rscale>  0 0.88887601E+02</rscale>
<asrwt>0</asrwt>
<pdfrwt beam="1">  1        1 0.13555289E+00 0.88887601E+02</pdfrwt>
<pdfrwt beam="2">  1       -1 0.67142004E-02 0.88887601E+02</pdfrwt>
<totfact> 0.21768376E+03</totfact>
</mgrwt>
</event>
<event>
 4    1  0.4940461E-001  0.8222486E+02  0.7546771E-02  0.1322854E+00
          3   -1    0    0  501    0  0.00000000000E+00  0.00000000000E+00  0.46032002596E+03  0.46032002596E+03  0.00000000000E+00 0. -1.
         -3   -1    0    0    0  501 -0.00000000000E+00 -0.00000000000E+00 -0.57945062329E+02  0.57945062329E+02  0.00000000000E+00 0.  1.
         24    1    1    2    0    0 -0.70995515703E+01  0.15598326512E+02 -0.22707837129E+02  0.85302832567E+02  0.80419002446E+02 0.  1.
        -24    1    1    2    0    0  0.70995515703E+01 -0.15598326512E+02  0.42508280076E+03  0.43296225572E+03  0.80419002446E+02 0. -1.
<mgrwt>
<rscale>  0 0.82224859E+02</rscale>
<asrwt>0</asrwt>
<pdfrwt beam="1">  1        3 0.70818463E-01 0.82224859E+02</pdfrwt>
<pdfrwt beam="2">  1       -3 0.89146252E-02 0.82224859E+02</pdfrwt>
<totfact> 0.37319502E+02</totfact>
</mgrwt>
</event>
<event>
 4    1  0.4940461E-001  0.1106478E+03  0.7546771E-02  0.1259375E+00
         -2   -1    0    0    0  501 -0.00000000000E+00  0.00000000000E+00  0.83799031748E+01  0.83799031748E+01  0.00000000000E+00 0.  1.
          2   -1    0    0  501    0  0.00000000000E+00 -0.00000000000E+00 -0.14649485109E+04  0.14649485109E+04  0.00000000000E+00 0. -1.
         24    1    1    2    0    0  0.65872571435E+02  0.37901463949E+02 -0.76659051941E+03  0.77453467130E+03  0.80419002446E+02 0.  1.
        -24    1    1    2    0    0 -0.65872571435E+02 -0.37901463949E+02 -0.68997808833E+03  0.69879374279E+03  0.80419002446E+02 0. -1.
<mgrwt>
<rscale>  0 0.11064779E+03</rscale>
<asrwt>0</asrwt>
<pdfrwt beam="1">  1        2 0.22537666E+00 0.11064779E+03</pdfrwt>
<pdfrwt beam="2">  1       -2 0.12892161E-02 0.11064779E+03</pdfrwt>
<totfact> 0.19954307E+04</totfact>
</mgrwt>
</event>
<event>
 4    1  0.4940461E-001  0.8651435E+02  0.7546771E-02  0.1311519E+00
          1   -1    0    0  501    0  0.00000000000E+00  0.00000000000E+00  0.11769115056E+04  0.11769115056E+04  0.00000000000E+00 0. -1.
         -1   -1    0    0    0  501 -0.00000000000E+00 -0.00000000000E+00 -0.89146893935E+01  0.89146893935E+01  0.00000000000E+00 0.  1.
         24    1    1    2    0    0  0.19498178831E+02  0.25245565029E+02  0.26657599694E+03  0.28026326129E+03  0.80419002446E+02 0.  0.
        -24    1    1    2    0    0 -0.19498178831E+02 -0.25245565029E+02  0.90142081930E+03  0.90556293373E+03  0.80419002446E+02 0.  0.
<mgrwt>
<rscale>  0 0.86514354E+02</rscale>
<asrwt>0</asrwt>
<pdfrwt beam="1">  1        1 0.18106319E+00 0.86514354E+02</pdfrwt>
<pdfrwt beam="2">  1       -1 0.13714916E-02 0.86514354E+02</pdfrwt>
<totfact> 0.13208609E+04</totfact>
</mgrwt>
</event>
<event>
 4    1  0.4940461E-001  0.8199392E+02  0.7546771E-02  0.1323486E+00
         -2   -1    0    0    0  501 -0.00000000000E+00  0.00000000000E+00  0.11280581132E+03  0.11280581132E+03  0.00000000000E+00 0.  1.
          2   -1    0    0  501    0  0.00000000000E+00 -0.00000000000E+00 -0.92792535179E+02  0.92792535179E+02  0.00000000000E+00 0. -1.
         24    1    1    2    0    0  0.33298282151E+01  0.15642874946E+02 -0.51477947832E+02  0.96814164046E+02  0.80419002446E+02 0. -1.
        -24    1    1    2    0    0 -0.33298282151E+01 -0.15642874946E+02  0.71491223974E+02  0.10878418245E+03  0.80419002446E+02 0.  1.
<mgrwt>
<rscale>  0 0.81993922E+02</rscale>
<asrwt>0</asrwt>
<pdfrwt beam="1">  1        2 0.14275775E-01 0.81993922E+02</pdfrwt>
<pdfrwt beam="2">  1       -2 0.17354740E-01 0.81993922E+02</pdfrwt>
<totfact> 0.99347173E+03</totfact>
</mgrwt>
</event>
<event>
 4    1  0.4940461E-001  0.1331189E+03  0.7546771E-02  0.1222900E+00
         -1   -1    0    0    0  501 -0.00000000000E+00  0.00000000000E+00  0.97661725991E+02  0.97661725991E+02  0.00000000000E+00 0.  1.
          1   -1    0    0  501    0  0.00000000000E+00 -0.00000000000E+00 -0.41538940003E+03  0.41538940003E+03  0.00000000000E+00 0. -1.
         24    1    1    2    0    0  0.30752296467E+02 -0.10152699845E+03  0.33647046362E+02  0.13730540716E+03  0.80419002446E+02 0.  1.
        -24    1    1    2    0    0 -0.30752296467E+02  0.10152699845E+03 -0.35137472040E+03  0.37574571886E+03  0.80419002446E+02 0. -1.
<mgrwt>
<rscale>  0 0.13311894E+03</rscale>
<asrwt>0</asrwt>
<pdfrwt beam="1">  1        1 0.63906061E-01 0.13311894E+03</pdfrwt>
<pdfrwt beam="2">  1       -1 0.15024881E-01 0.13311894E+03</pdfrwt>
<totfact> 0.18160500E+03</totfact>
</mgrwt>
</event>
<event>
 4    1  0.4940461E-001  0.8237666E+02  0.7546771E-02  0.1322439E+00
         -2   -1    0    0    0  501 -0.00000000000E+00  0.00000000000E+00  0.35586319924E+01  0.35586319924E+01  0.00000000000E+00 0.  1.
          2   -1    0    0  501    0  0.00000000000E+00 -0.00000000000E+00 -0.19158150814E+04  0.19158150814E+04  0.00000000000E+00 0. -1.
         24    1    1    2    0    0  0.12307320228E+02  0.12931686306E+02 -0.10216361954E+04  0.10249519161E+04  0.80419002446E+02 0.  0.
        -24    1    1    2    0    0 -0.12307320228E+02 -0.12931686306E+02 -0.89062025398E+03  0.89442179725E+03  0.80419002446E+02 0. -1.
<mgrwt>
<rscale>  0 0.82376663E+02</rscale>
<asrwt>0</asrwt>
<pdfrwt beam="1">  1        2 0.29474120E+00 0.82376663E+02</pdfrwt>
<pdfrwt beam="2">  1       -2 0.54748107E-03 0.82376663E+02</pdfrwt>
<totfact> 0.38755171E+04</totfact>
</mgrwt>
</event>
<event>
 4    1  0.4940461E-001  0.9615208E+02  0.7546771E-02  0.1288602E+00
          1   -1    0    0  501    0  0.00000000000E+00  0.00000000000E+00  0.19711792351E+04  0.19711792351E+04  0.00000000000E+00 0. -1.
         -1   -1    0    0    0  501 -0.00000000000E+00 -0.00000000000E+00 -0.64297419566E+01  0.64297419566E+01  0.00000000000E+00 0.  1.
         24    1    1    2    0    0  0.52352443276E+02  0.61015346302E+01  0.46805733319E+03  0.47783144533E+03  0.80419002446E+02 0. -1.
        -24    1    1    2    0    0 -0.52352443276E+02 -0.61015346302E+01  0.14966921600E+04  0.14997775317E+04  0.80419002446E+02 0.  0.
<mgrwt>
<rscale>  0 0.96152083E+02</rscale>
<asrwt>0</asrwt>
<pdfrwt beam="1">  1        1 0.30325786E+00 0.96152083E+02</pdfrwt>
<pdfrwt beam="2">  1       -1 0.98919264E-03 0.96152083E+02</pdfrwt>
<totfact> 0.65458865E+03</totfact>
</mgrwt>
</event>
<event>
 4    1  0.4940461E-001  0.1248339E+03  0.7546771E-02  0.1235329E+00
         -2   -1    0    0    0  501 -0.00000000000E+00  0.00000000000E+00  0.11164054832E+04  0.11164054832E+04  0.00000000000E+00 0.  1.
          2   -1    0    0  501    0  0.00000000000E+00 -0.00000000000E+00 -0.54471905195E+02  0.54471905195E+02  0.00000000000E+00 0. -1.
         24    1    1    2    0    0 -0.32540078333E+02  0.89763133132E+02  0.26080229107E+02  0.12752909892E+03  0.80419002446E+02 0. -1.
        -24    1    1    2    0    0  0.32540078333E+02 -0.89763133132E+02  0.10358533489E+04  0.10433482895E+04  0.80419002446E+02 0.  1.
<mgrwt>
<rscale>  0 0.12483386E+03</rscale>
<asrwt>0</asrwt>
<pdfrwt beam="1">  1        2 0.83802940E-02 0.12483386E+03</pdfrwt>
<pdfrwt beam="2">  1       -2 0.17175467E+00 0.12483386E+03</pdfrwt>
<totfact> 0.17710742E+02</totfact>
</mgrwt>
</event>
<event>
 4    1  0.4940461E-001  0.1399645E+03  0.7546771E-02  0.1213377E+00
         -4   -1    0    0    0  501 -0.00000000000E+00  0.00000000000E+00  0.30206051088E+03  0.30206051088E+03  0.00000000000E+00 0.  1.
          4   -1    0    0  501    0  0.00000000000E+00 -0.00000000000E+00 -0.17599789158E+03  0.17599789158E+03  0.00000000000E+00 0. -1.
         24    1    1    2    0    0 -0.91297862583E+02  0.69192172577E+02 -0.12691833025E+03  0.18894003008E+03  0.80419002446E+02 0. -1.
        -24    1    1    2    0    0  0.91297862583E+02 -0.69192172577E+02  0.25298094955E+03  0.28911837238E+03  0.80419002446E+02 0.  1.
<mgrwt>
<rscale>  0 0.13996454E+03</rscale>
<asrwt>0</asrwt>
<pdfrwt beam="1">  1        4 0.27076599E-01 0.13996454E+03</pdfrwt>
<pdfrwt beam="2">  1       -4 0.46470848E-01 0.13996454E+03</pdfrwt>
<totfact> 0.98005997E+01</totfact>
</mgrwt>
</event>
<event>
 4    1  0.4940461E-001  0.8139001E+02  0.7546771E-02  0.1325152E+00
         -2   -1    0    0    0  501 -0.00000000000E+00  0.00000000000E+00  0.11414806770E+02  0.11414806770E+02  0.00000000000E+00 0.  1.
          2   -1    0    0  501    0  0.00000000000E+00 -0.00000000000E+00 -0.25879867450E+04  0.25879867450E+04  0.00000000000E+00 0. -1.
         24    1    1    2    0    0  0.10418776032E+02 -0.69689802321E+01 -0.24330270991E+04  0.24343880542E+04  0.80419002446E+02 0. -1.
        -24    1    1    2    0    0 -0.10418776032E+02  0.69689802321E+01 -0.14354483909E+03  0.16501349752E+03  0.80419002446E+02 0.  0.
<mgrwt>
<rscale>  0 0.81390009E+02</rscale>
<asrwt>0</asrwt>
<pdfrwt beam="1">  1        2 0.39815150E+00 0.81390009E+02</pdfrwt>
<pdfrwt beam="2">  1       -2 0.17561255E-02 0.81390009E+02</pdfrwt>
<totfact> 0.33931397E+03</totfact>
</mgrwt>
</event>
<event>
 4    1  0.4940461E-001  0.8220563E+02  0.7546771E-02  0.1322906E+00
          2   -1    0    0  501    0  0.00000000000E+00  0.00000000000E+00  0.68263760239E+02  0.68263760239E+02  0.00000000000E+00 0. -1.
         -2   -1    0    0    0  501 -0.00000000000E+00 -0.00000000000E+00 -0.18515197978E+03  0.18515197978E+03  0.00000000000E+00 0.  1.
         24    1    1    2    0    0 -0.49574099798E+01  0.16308690637E+02  0.27989938326E+02  0.86840093885E+02  0.80419002446E+02 0. -1.
        -24    1    1    2    0    0  0.49574099798E+01 -0.16308690637E+02 -0.14487815787E+03  0.16657564614E+03  0.80419002446E+02 0.  1.
<mgrwt>
<rscale>  0 0.82205628E+02</rscale>
<asrwt>0</asrwt>
<pdfrwt beam="1">  1        2 0.10502117E-01 0.82205628E+02</pdfrwt>
<pdfrwt beam="2">  1       -2 0.28484920E-01 0.82205628E+02</pdfrwt>
<totfact> 0.61550350E+03</totfact>
</mgrwt>
</event>
<event>
 4    1  0.4940461E-001  0.1020877E+03  0.7546771E-02  0.1275966E+00
          2   -1    0    0  501    0  0.00000000000E+00  0.00000000000E+00  0.17567884430E+04  0.17567884430E+04  0.00000000000E+00 0. -1.
         -2   -1    0    0    0  501 -0.00000000000E+00 -0.00000000000E+00 -0.79613901394E+01  0.79613901394E+01  0.00000000000E+00 0.  1.
         24    1    1    2    0    0  0.44092672803E+02 -0.44838730529E+02  0.13198682389E+04  0.13238104319E+04  0.80419002446E+02 0. -1.
        -24    1    1    2    0    0 -0.44092672803E+02  0.44838730529E+02  0.42895881391E+03  0.44093940120E+03  0.80419002446E+02 0.  1.
<mgrwt>
<rscale>  0 0.10208767E+03</rscale>
<asrwt>0</asrwt>
<pdfrwt beam="1">  1        2 0.27027484E+00 0.10208767E+03</pdfrwt>
<pdfrwt beam="2">  1       -2 0.12248306E-02 0.10208767E+03</pdfrwt>
<totfact> 0.15165292E+04</totfact>
</mgrwt>
</event>
<event>
 4    1  0.4940461E-001  0.8869416E+02  0.7546771E-02  0.1306045E+00
         -2   -1    0    0    0  501 -0.00000000000E+00  0.00000000000E+00  0.46218951798E+02  0.46218951798E+02  0.00000000000E+00 0.  1.
          2   -1    0    0  501    0  0.00000000000E+00 -0.00000000000E+00 -0.16523689104E+04  0.16523689104E+04  0.00000000000E+00 0. -1.
         24    1    1    2    0    0  0.30618658178E+02  0.21492711667E+02 -0.16074392346E+04  0.16098843275E+04  0.80419002446E+02 0. -1.
        -24    1    1    2    0    0 -0.30618658178E+02 -0.21492711667E+02  0.12892760332E+01  0.88703534713E+02  0.80419002446E+02 0.  1.
<mgrwt>
<rscale>  0 0.88694165E+02</rscale>
<asrwt>0</asrwt>
<pdfrwt beam="1">  1        2 0.25421056E+00 0.88694165E+02</pdfrwt>
<pdfrwt beam="2">  1       -2 0.71106093E-02 0.88694165E+02</pdfrwt>
<totfact> 0.13086207E+03</totfact>
</mgrwt>
</event>
<event>
 4    1  0.4940461E-001  0.8066545E+02  0.7546771E-02  0.1327174E+00
          1   -1    0    0  501    0  0.00000000000E+00  0.00000000000E+00  0.10367551833E+04  0.10367551833E+04  0.00000000000E+00 0. -1.
         -1   -1    0    0    0  501 -0.00000000000E+00 -0.00000000000E+00 -0.50819049126E+02  0.50819049126E+02  0.00000000000E+00 0.  1.
         24    1    1    2    0    0 -0.62841407946E+01  0.45735898085E+00 -0.16133564748E+02  0.82263038290E+02  0.80419002446E+02 0.  1.
        -24    1    1    2    0    0  0.62841407946E+01 -0.45735898085E+00  0.10020696990E+04  0.10053111942E+04  0.80419002446E+02 0. -1.
<mgrwt>
<rscale>  0 0.80665455E+02</rscale>
<asrwt>0</asrwt>
<pdfrwt beam="1">  1        1 0.15950078E+00 0.80665455E+02</pdfrwt>
<pdfrwt beam="2">  1       -1 0.78183161E-02 0.80665455E+02</pdfrwt>
<totfact> 0.13333625E+03</totfact>
</mgrwt>
</event>
<event>
 4    1  0.4940461E-001  0.8474546E+02  0.7546771E-02  0.1316100E+00
         -1   -1    0    0    0  501 -0.00000000000E+00  0.00000000000E+00  0.71968199575E+01  0.71968199575E+01  0.00000000000E+00 0.  1.
          1   -1    0    0  501    0  0.00000000000E+00 -0.00000000000E+00 -0.99930398783E+03  0.99930398783E+03  0.00000000000E+00 0. -1.
         24    1    1    2    0    0  0.82810563861E+01  0.25416548884E+02 -0.47727092033E+03  0.48473634504E+03  0.80419002446E+02 0.  1.
        -24    1    1    2    0    0 -0.82810563861E+01 -0.25416548884E+02 -0.51483624754E+03  0.52176446275E+03  0.80419002446E+02 0.  0.
<mgrwt>
<rscale>  0 0.84745459E+02</rscale>
<asrwt>0</asrwt>
<pdfrwt beam="1">  1        1 0.15373907E+00 0.84745459E+02</pdfrwt>
<pdfrwt beam="2">  1       -1 0.11072031E-02 0.84745459E+02</pdfrwt>
<totfact> 0.23705794E+04</totfact>
</mgrwt>
</event>
<event>
 4    1  0.4940461E-001  0.8880324E+02  0.7546771E-02  0.1305776E+00
          1   -1    0    0  501    0  0.00000000000E+00  0.00000000000E+00  0.15446723352E+04  0.15446723352E+04  0.00000000000E+00 0. -1.
         -1   -1    0    0    0  501 -0.00000000000E+00 -0.00000000000E+00 -0.60124167152E+01  0.60124167152E+01  0.00000000000E+00 0.  1.
         24    1    1    2    0    0  0.22213780166E+02  0.30419473346E+02  0.10704925919E+04  0.10741696336E+04  0.80419002446E+02 0. -1.
        -24    1    1    2    0    0 -0.22213780166E+02 -0.30419473346E+02  0.46816732655E+03  0.47651511832E+03  0.80419002446E+02 0.  1.
<mgrwt>
<rscale>  0 0.88803234E+02</rscale>
<asrwt>0</asrwt>
<pdfrwt beam="1">  1        1 0.23764158E+00 0.88803245E+02</pdfrwt>
<pdfrwt beam="2">  1       -1 0.92498842E-03 0.88803245E+02</pdfrwt>
<totfact> 0.13290237E+04</totfact>
</mgrwt>
</event>
<event>
 4    1  0.4940461E-001  0.8791860E+02  0.7546771E-02  0.1307972E+00
          2   -1    0    0  501    0  0.00000000000E+00  0.00000000000E+00  0.31577169142E+03  0.31577169142E+03  0.00000000000E+00 0. -1.
         -2   -1    0    0    0  501 -0.00000000000E+00 -0.00000000000E+00 -0.24599200798E+02  0.24599200798E+02  0.00000000000E+00 0.  1.
         24    1    1    2    0    0  0.35319378271E+02  0.38732952538E+01  0.13367443652E+03  0.15999541191E+03  0.80419002446E+02 0.  1.
        -24    1    1    2    0    0 -0.35319378271E+02 -0.38732952538E+01  0.15749805410E+03  0.18037548031E+03  0.80419002446E+02 0. -1.
<mgrwt>
<rscale>  0 0.87918592E+02</rscale>
<asrwt>0</asrwt>
<pdfrwt beam="1">  1        2 0.48580257E-01 0.87918603E+02</pdfrwt>
<pdfrwt beam="2">  1       -2 0.37844927E-02 0.87918603E+02</pdfrwt>
<totfact> 0.27401433E+04</totfact>
</mgrwt>
</event>
<event>
 4    1  0.4940461E-001  0.8770733E+02  0.7546771E-02  0.1308501E+00
          1   -1    0    0  501    0  0.00000000000E+00  0.00000000000E+00  0.41144849082E+03  0.41144849082E+03  0.00000000000E+00 0. -1.
         -1   -1    0    0    0  501 -0.00000000000E+00 -0.00000000000E+00 -0.22708800414E+02  0.22708800414E+02  0.00000000000E+00 0.  1.
         24    1    1    2    0    0  0.27438203769E+01  0.34897434558E+02  0.10312126795E+03  0.13537566748E+03  0.80419002446E+02 0.  1.
        -24    1    1    2    0    0 -0.27438203769E+01 -0.34897434558E+02  0.28561842246E+03  0.29878162376E+03  0.80419002446E+02 0. -1.
<mgrwt>
<rscale>  0 0.87707328E+02</rscale>
<asrwt>0</asrwt>
<pdfrwt beam="1">  1        1 0.63299762E-01 0.87707328E+02</pdfrwt>
<pdfrwt beam="2">  1       -1 0.34936619E-02 0.87707328E+02</pdfrwt>
<totfact> 0.15893503E+04</totfact>
</mgrwt>
</event>
<event>
 4    1  0.4940461E-001  0.8768159E+02  0.7546771E-02  0.1308565E+00
         -1   -1    0    0    0  501 -0.00000000000E+00  0.00000000000E+00  0.28467039258E+02  0.28467039258E+02  0.00000000000E+00 0.  1.
          1   -1    0    0  501    0  0.00000000000E+00 -0.00000000000E+00 -0.53651796032E+03  0.53651796032E+03  0.00000000000E+00 0. -1.
         24    1    1    2    0    0 -0.22865179873E+02 -0.26420242336E+02 -0.54948089764E+02  0.10347634599E+03  0.80419002446E+02 0.  1.
        -24    1    1    2    0    0  0.22865179873E+02  0.26420242336E+02 -0.45310283130E+03  0.46150865359E+03  0.80419002446E+02 0. -1.
<mgrwt>
<rscale>  0 0.87681592E+02</rscale>
<asrwt>0</asrwt>
<pdfrwt beam="1">  1        1 0.82541224E-01 0.87681592E+02</pdfrwt>
<pdfrwt beam="2">  1       -1 0.43795445E-02 0.87681592E+02</pdfrwt>
<totfact> 0.81753422E+03</totfact>
</mgrwt>
</event>
<event>
 4    1  0.4940461E-001  0.1059567E+03  0.7546771E-02  0.1268246E+00
          3   -1    0    0  501    0  0.00000000000E+00  0.00000000000E+00  0.17065960308E+03  0.17065960308E+03  0.00000000000E+00 0. -1.
         -3   -1    0    0    0  501 -0.00000000000E+00 -0.00000000000E+00 -0.13370598140E+03  0.13370598140E+03  0.00000000000E+00 0.  1.
         24    1    1    2    0    0 -0.33381888791E+02  0.60375979119E+02 -0.89988888042E+02  0.13901375932E+03  0.80419002446E+02 0.  1.
        -24    1    1    2    0    0  0.33381888791E+02 -0.60375979119E+02  0.12694250972E+03  0.16535182516E+03  0.80419002446E+02 0. -1.
<mgrwt>
<rscale>  0 0.10595671E+03</rscale>
<asrwt>0</asrwt>
<pdfrwt beam="1">  1        3 0.26255324E-01 0.10595671E+03</pdfrwt>
<pdfrwt beam="2">  1       -3 0.20570151E-01 0.10595671E+03</pdfrwt>
<totfact> 0.65268656E+02</totfact>
</mgrwt>
</event>
<event>
 4    1  0.4940461E-001  0.9935491E+02  0.7546771E-02  0.1281658E+00
         -1   -1    0    0    0  501 -0.00000000000E+00  0.00000000000E+00  0.10875340277E+02  0.10875340277E+02  0.00000000000E+00 0.  1.
          1   -1    0    0  501    0  0.00000000000E+00 -0.00000000000E+00 -0.95351057666E+03  0.95351057666E+03  0.00000000000E+00 0. -1.
         24    1    1    2    0    0  0.57340577182E+02 -0.10781443501E+02 -0.36561007901E+03  0.37886953842E+03  0.80419002446E+02 0.  0.
        -24    1    1    2    0    0 -0.57340577182E+02  0.10781443501E+02 -0.57702515737E+03  0.58551637852E+03  0.80419002446E+02 0.  1.
<mgrwt>
<rscale>  0 0.99354906E+02</rscale>
<asrwt>0</asrwt>
<pdfrwt beam="1">  1        1 0.14669406E+00 0.99354906E+02</pdfrwt>
<pdfrwt beam="2">  1       -1 0.16731279E-02 0.99354906E+02</pdfrwt>
<totfact> 0.14454069E+04</totfact>
</mgrwt>
</event>
<event>
 4    1  0.4940461E-001  0.8794481E+02  0.7546771E-02  0.1307906E+00
         -2   -1    0    0    0  501 -0.00000000000E+00  0.00000000000E+00  0.14573305534E+02  0.14573305534E+02  0.00000000000E+00 0.  1.
          2   -1    0    0  501    0  0.00000000000E+00 -0.00000000000E+00 -0.53582706108E+03  0.53582706108E+03  0.00000000000E+00 0. -1.
         24    1    1    2    0    0  0.26383255411E+02  0.23895557430E+02 -0.28750396004E+03  0.30065398189E+03  0.80419002446E+02 0.  1.
        -24    1    1    2    0    0 -0.26383255411E+02 -0.23895557430E+02 -0.23374979550E+03  0.24974638472E+03  0.80419002446E+02 0. -1.
<mgrwt>
<rscale>  0 0.87944811E+02</rscale>
<asrwt>0</asrwt>
<pdfrwt beam="1">  1        2 0.82434934E-01 0.87944811E+02</pdfrwt>
<pdfrwt beam="2">  1       -2 0.22420470E-02 0.87944811E+02</pdfrwt>
<totfact> 0.33469961E+04</totfact>
</mgrwt>
</event>
<event>
 4    1  0.4940461E-001  0.8435263E+02  0.7546771E-02  0.1317134E+00
         -2   -1    0    0    0  501 -0.00000000000E+00  0.00000000000E+00  0.16189872698E+03  0.16189872698E+03  0.00000000000E+00 0.  1.
          2   -1    0    0  501    0  0.00000000000E+00 -0.00000000000E+00 -0.46104295554E+02  0.46104295554E+02  0.00000000000E+00 0. -1.
         24    1    1    2    0    0  0.17835598742E+02 -0.18167027174E+02  0.35413211218E+02  0.91484757976E+02  0.80419002446E+02 0. -1.
        -24    1    1    2    0    0 -0.17835598742E+02  0.18167027174E+02  0.80381220207E+02  0.11651826456E+03  0.80419002446E+02 0.  1.
<mgrwt>
<rscale>  0 0.84352625E+02</rscale>
<asrwt>0</asrwt>
<pdfrwt beam="1">  1        2 0.70929686E-02 0.84352625E+02</pdfrwt>
<pdfrwt beam="2">  1       -2 0.24907496E-01 0.84352625E+02</pdfrwt>
<totfact> 0.12621500E+04</totfact>
</mgrwt>
</event>
<event>
 4    1  0.4940461E-001  0.8350844E+02  0.7546771E-02  0.1319380E+00
          2   -1    0    0  501    0  0.00000000000E+00  0.00000000000E+00  0.50863476573E+02  0.50863476573E+02  0.00000000000E+00 0. -1.
         -2   -1    0    0    0  501 -0.00000000000E+00 -0.00000000000E+00 -0.34122776880E+03  0.34122776880E+03  0.00000000000E+00 0.  1.
         24    1    1    2    0    0  0.22416598640E+02 -0.19849820131E+01  0.64461343459E+01  0.83756866289E+02  0.80419002446E+02 0. -1.
        -24    1    1    2    0    0 -0.22416598640E+02  0.19849820131E+01 -0.29681042658E+03  0.30833437909E+03  0.80419002446E+02 0.  1.
<mgrwt>
<rscale>  0 0.83508443E+02</rscale>
<asrwt>0</asrwt>
<pdfrwt beam="1">  1        2 0.78251499E-02 0.83508443E+02</pdfrwt>
<pdfrwt beam="2">  1       -2 0.52496582E-01 0.83508443E+02</pdfrwt>
<totfact> 0.28239492E+03</totfact>
</mgrwt>
</event>
<event>
 4    1  0.4940461E-001  0.8546684E+02  0.7546771E-02  0.1314216E+00
         -1   -1    0    0    0  501 -0.00000000000E+00  0.00000000000E+00  0.10507673472E+02  0.10507673472E+02  0.00000000000E+00 0.  1.
          1   -1    0    0  501    0  0.00000000000E+00 -0.00000000000E+00 -0.70255381631E+03  0.70255381631E+03  0.00000000000E+00 0. -1.
         24    1    1    2    0    0 -0.12346397086E+02  0.26171197213E+02 -0.30946318179E+03  0.32104834827E+03  0.80419002446E+02 0.  1.
        -24    1    1    2    0    0  0.12346397086E+02 -0.26171197213E+02 -0.38258296105E+03  0.39201314152E+03  0.80419002446E+02 0. -1.
<mgrwt>
<rscale>  0 0.85466842E+02</rscale>
<asrwt>0</asrwt>
<pdfrwt beam="1">  1        1 0.10808520E+00 0.85466842E+02</pdfrwt>
<pdfrwt beam="2">  1       -1 0.16165653E-02 0.85466842E+02</pdfrwt>
<totfact> 0.23697031E+04</totfact>
</mgrwt>
</event>
<event>
 4    1  0.4940461E-001  0.8460181E+02  0.7546771E-02  0.1316477E+00
         -2   -1    0    0    0  501 -0.00000000000E+00  0.00000000000E+00  0.13985099318E+02  0.13985099318E+02  0.00000000000E+00 0.  1.
          2   -1    0    0  501    0  0.00000000000E+00 -0.00000000000E+00 -0.22203410283E+04  0.22203410283E+04  0.00000000000E+00 0. -1.
         24    1    1    2    0    0  0.19736971788E+02  0.17340787842E+02 -0.20831651662E+04  0.20848823891E+04  0.80419002446E+02 0.  0.
        -24    1    1    2    0    0 -0.19736971788E+02 -0.17340787842E+02 -0.12319076280E+03  0.14944373849E+03  0.80419002446E+02 0.  1.
<mgrwt>
<rscale>  0 0.84601814E+02</rscale>
<asrwt>0</asrwt>
<pdfrwt beam="1">  1        2 0.34159099E+00 0.84601814E+02</pdfrwt>
<pdfrwt beam="2">  1       -2 0.21515533E-02 0.84601814E+02</pdfrwt>
<totfact> 0.39317739E+03</totfact>
</mgrwt>
</event>
<event>
 4    1  0.4940461E-001  0.8233622E+02  0.7546771E-02  0.1322549E+00
          2   -1    0    0  501    0  0.00000000000E+00  0.00000000000E+00  0.63019610502E+02  0.63019610502E+02  0.00000000000E+00 0. -1.
         -2   -1    0    0    0  501 -0.00000000000E+00 -0.00000000000E+00 -0.11216921636E+03  0.11216921636E+03  0.00000000000E+00 0.  1.
         24    1    1    2    0    0  0.17658059315E+02 -0.47917600362E+00 -0.68448834651E+01  0.82620246020E+02  0.80419002446E+02 0. -1.
        -24    1    1    2    0    0 -0.17658059315E+02  0.47917600362E+00 -0.42304722397E+02  0.92568580846E+02  0.80419002446E+02 0. -1.
<mgrwt>
<rscale>  0 0.82336217E+02</rscale>
<asrwt>0</asrwt>
<pdfrwt beam="1">  1        2 0.96953248E-02 0.82336217E+02</pdfrwt>
<pdfrwt beam="2">  1       -2 0.17256802E-01 0.82336217E+02</pdfrwt>
<totfact> 0.15873917E+04</totfact>
</mgrwt>
</event>
<event>
 4    1  0.4940461E-001  0.8348973E+02  0.7546771E-02  0.1319430E+00
         -2   -1    0    0    0  501 -0.00000000000E+00  0.00000000000E+00  0.24307032611E+03  0.24307032611E+03  0.00000000000E+00 0.  1.
          2   -1    0    0  501    0  0.00000000000E+00 -0.00000000000E+00 -0.14443753062E+04  0.14443753062E+04  0.00000000000E+00 0. -1.
         24    1    1    2    0    0 -0.89620242189E+01  0.20566979182E+02 -0.14359575613E+04  0.14383826516E+04  0.80419002446E+02 0. -1.
        -24    1    1    2    0    0  0.89620242189E+01 -0.20566979182E+02  0.23465258125E+03  0.24906298070E+03  0.80419002446E+02 0.  0.
<mgrwt>
<rscale>  0 0.83489727E+02</rscale>
<asrwt>0</asrwt>
<pdfrwt beam="1">  1        2 0.22221158E+00 0.83489727E+02</pdfrwt>
<pdfrwt beam="2">  1       -2 0.37395436E-01 0.83489727E+02</pdfrwt>
<totfact> 0.10842728E+02</totfact>
</mgrwt>
</event>
<event>
 4    1  0.4940461E-001  0.1119156E+03  0.7546771E-02  0.1257063E+00
         -2   -1    0    0    0  501 -0.00000000000E+00  0.00000000000E+00  0.99661669083E+02  0.99661669083E+02  0.00000000000E+00 0.  1.
          2   -1    0    0  501    0  0.00000000000E+00 -0.00000000000E+00 -0.12577498157E+03  0.12577498157E+03  0.00000000000E+00 0. -1.
         24    1    1    2    0    0  0.14175702840E+02 -0.76530651645E+02 -0.16214382561E+02  0.11308409857E+03  0.80419002446E+02 0. -1.
        -24    1    1    2    0    0 -0.14175702840E+02  0.76530651645E+02 -0.98989299257E+01  0.11235255209E+03  0.80419002446E+02 0.  1.
<mgrwt>
<rscale>  0 0.11191563E+03</rscale>
<asrwt>0</asrwt>
<pdfrwt beam="1">  1        2 0.19349997E-01 0.11191563E+03</pdfrwt>
<pdfrwt beam="2">  1       -2 0.15332564E-01 0.11191563E+03</pdfrwt>
<totfact> 0.88369531E+03</totfact>
</mgrwt>
</event>
<event>
 4    1  0.4940461E-001  0.9519323E+02  0.7546771E-02  0.1290741E+00
          2   -1    0    0  501    0  0.00000000000E+00  0.00000000000E+00  0.49147350998E+03  0.49147350998E+03  0.00000000000E+00 0. -1.
         -2   -1    0    0    0  501 -0.00000000000E+00 -0.00000000000E+00 -0.25632373738E+02  0.25632373738E+02  0.00000000000E+00 0.  1.
         24    1    1    2    0    0 -0.18677594915E+01  0.50902318104E+02  0.36989954187E+03  0.38195211944E+03  0.80419002446E+02 0. -1.
        -24    1    1    2    0    0  0.18677594915E+01 -0.50902318104E+02  0.95941594371E+02  0.13515376428E+03  0.80419002446E+02 0.  1.
<mgrwt>
<rscale>  0 0.95193227E+02</rscale>
<asrwt>0</asrwt>
<pdfrwt beam="1">  1        2 0.75611302E-01 0.95193227E+02</pdfrwt>
<pdfrwt beam="2">  1       -2 0.39434425E-02 0.95193227E+02</pdfrwt>
<totfact> 0.16303667E+04</totfact>
</mgrwt>
</event>
<event>
 4    1  0.4940461E-001  0.8837658E+02  0.7546771E-02  0.1306831E+00
          2   -1    0    0  501    0  0.00000000000E+00  0.00000000000E+00  0.27885349127E+03  0.27885349127E+03  0.00000000000E+00 0. -1.
         -2   -1    0    0    0  501 -0.00000000000E+00 -0.00000000000E+00 -0.28325090693E+02  0.28325090693E+02  0.00000000000E+00 0.  1.
         24    1    1    2    0    0 -0.35748080150E+02 -0.80794963369E+01  0.14148796124E+03  0.16682104971E+03  0.80419002446E+02 0.  1.
        -24    1    1    2    0    0  0.35748080150E+02  0.80794963369E+01  0.10904043934E+03  0.14035753226E+03  0.80419002446E+02 0. -1.
<mgrwt>
<rscale>  0 0.88376577E+02</rscale>
<asrwt>0</asrwt>
<pdfrwt beam="1">  1        2 0.42900535E-01 0.88376577E+02</pdfrwt>
<pdfrwt beam="2">  1       -2 0.43577065E-02 0.88376577E+02</pdfrwt>
<totfact> 0.25372096E+04</totfact>
</mgrwt>
</event>
<event>
 4    1  0.4940461E-001  0.8121490E+02  0.7546771E-02  0.1325639E+00
          2   -1    0    0  501    0  0.00000000000E+00  0.00000000000E+00  0.91222146047E+03  0.91222146047E+03  0.00000000000E+00 0. -1.
         -2   -1    0    0    0  501 -0.00000000000E+00 -0.00000000000E+00 -0.11280509184E+02  0.11280509184E+02  0.00000000000E+00 0.  1.
         24    1    1    2    0    0  0.58838963469E+01 -0.96966054313E+01  0.72714485905E+03  0.73166625342E+03  0.80419002446E+02 0. -1.
        -24    1    1    2    0    0 -0.58838963469E+01  0.96966054313E+01  0.17379609223E+03  0.19183571623E+03  0.80419002446E+02 0.  0.
<mgrwt>
<rscale>  0 0.81214902E+02</rscale>
<asrwt>0</asrwt>
<pdfrwt beam="1">  1        2 0.14034171E+00 0.81214902E+02</pdfrwt>
<pdfrwt beam="2">  1       -2 0.17354637E-02 0.81214902E+02</pdfrwt>
<totfact> 0.25693880E+04</totfact>
</mgrwt>
</event>
<event>
 4    1  0.4940461E-001  0.2780494E+03  0.7546771E-02  0.1096759E+00
         -4   -1    0    0    0  501 -0.00000000000E+00  0.00000000000E+00  0.10059441228E+03  0.10059441228E+03  0.00000000000E+00 0.  1.
          4   -1    0    0  501    0  0.00000000000E+00 -0.00000000000E+00 -0.99572082546E+03  0.99572082546E+03  0.00000000000E+00 0. -1.
         24    1    1    2    0    0  0.24814077561E+03  0.96282826324E+02 -0.18573485794E+03  0.33437834944E+03  0.80419002446E+02 0. -1.
        -24    1    1    2    0    0 -0.24814077561E+03 -0.96282826324E+02 -0.70939155524E+03  0.76193688831E+03  0.80419002446E+02 0.  1.
<mgrwt>
<rscale>  0 0.27804939E+03</rscale>
<asrwt>0</asrwt>
<pdfrwt beam="1">  1        4 0.15318782E+00 0.27804942E+03</pdfrwt>
<pdfrwt beam="2">  1       -4 0.15476064E-01 0.27804942E+03</pdfrwt>
<totfact> 0.19593535E+01</totfact>
</mgrwt>
</event>
<event>
 4    1  0.4940461E-001  0.1088073E+03  0.7546771E-02  0.1262795E+00
          2   -1    0    0  501    0  0.00000000000E+00  0.00000000000E+00  0.18678516705E+04  0.18678516705E+04  0.00000000000E+00 0. -1.
         -2   -1    0    0    0  501 -0.00000000000E+00 -0.00000000000E+00 -0.70445350824E+01  0.70445350824E+01  0.00000000000E+00 0.  1.
         24    1    1    2    0    0 -0.69645076722E+02 -0.22833875793E+02  0.12272214503E+04  0.12320355217E+04  0.80419002446E+02 0. -1.
        -24    1    1    2    0    0  0.69645076722E+02  0.22833875793E+02  0.63358568509E+03  0.64286068390E+03  0.80419002446E+02 0.  1.
<mgrwt>
<rscale>  0 0.10880735E+03</rscale>
<asrwt>0</asrwt>
<pdfrwt beam="1">  1        2 0.28736140E+00 0.10880735E+03</pdfrwt>
<pdfrwt beam="2">  1       -2 0.10837761E-02 0.10880735E+03</pdfrwt>
<totfact> 0.15919900E+04</totfact>
</mgrwt>
</event>
<event>
 4    1  0.4940461E-001  0.1087022E+03  0.7546771E-02  0.1262992E+00
          2   -1    0    0  501    0  0.00000000000E+00  0.00000000000E+00  0.14151736636E+04  0.14151736636E+04  0.00000000000E+00 0. -1.
         -2   -1    0    0    0  501 -0.00000000000E+00 -0.00000000000E+00 -0.89679922209E+01  0.89679922209E+01  0.00000000000E+00 0.  1.
         24    1    1    2    0    0  0.54560351126E+02 -0.48704393588E+02  0.51612087903E+03  0.52744376723E+03  0.80419002446E+02 0.  1.
        -24    1    1    2    0    0 -0.54560351126E+02  0.48704393588E+02  0.89008479237E+03  0.89669788861E+03  0.80419002446E+02 0. -1.
<mgrwt>
<rscale>  0 0.10870220E+03</rscale>
<asrwt>0</asrwt>
<pdfrwt beam="1">  1        2 0.21771885E+00 0.10870222E+03</pdfrwt>
<pdfrwt beam="2">  1       -2 0.13796922E-02 0.10870222E+03</pdfrwt>
<totfact> 0.19198667E+04</totfact>
</mgrwt>
</event>
<event>
 4    1  0.4940461E-001  0.1157971E+03  0.7546771E-02  0.1250196E+00
          2   -1    0    0  501    0  0.00000000000E+00  0.00000000000E+00  0.60929884164E+03  0.60929884164E+03  0.00000000000E+00 0. -1.
         -2   -1    0    0    0  501 -0.00000000000E+00 -0.00000000000E+00 -0.35576670422E+02  0.35576670422E+02  0.00000000000E+00 0.  1.
         24    1    1    2    0    0 -0.67990076952E+02 -0.48157122765E+02  0.48599458878E+03  0.49959955496E+03  0.80419002446E+02 0. -1.
        -24    1    1    2    0    0  0.67990076952E+02  0.48157122765E+02  0.87727582433E+02  0.14527595710E+03  0.80419002446E+02 0.  1.
<mgrwt>
<rscale>  0 0.11579713E+03</rscale>
<asrwt>0</asrwt>
<pdfrwt beam="1">  1        2 0.93738276E-01 0.11579713E+03</pdfrwt>
<pdfrwt beam="2">  1       -2 0.54733343E-02 0.11579713E+03</pdfrwt>
<totfact> 0.80198669E+03</totfact>
</mgrwt>
</event>
<event>
 4    1  0.4940461E-001  0.8776768E+02  0.7546771E-02  0.1308349E+00
          1   -1    0    0  501    0  0.00000000000E+00  0.00000000000E+00  0.11249406156E+03  0.11249406156E+03  0.00000000000E+00 0. -1.
         -1   -1    0    0    0  501 -0.00000000000E+00 -0.00000000000E+00 -0.72379587239E+02  0.72379587239E+02  0.00000000000E+00 0.  1.
         24    1    1    2    0    0  0.27334855426E+02  0.22107729446E+02  0.41523661234E+02  0.97094677604E+02  0.80419002446E+02 0. -1.
        -24    1    1    2    0    0 -0.27334855426E+02 -0.22107729446E+02 -0.14091869104E+01  0.87778971198E+02  0.80419002446E+02 0.  1.
<mgrwt>
<rscale>  0 0.87767670E+02</rscale>
<asrwt>0</asrwt>
<pdfrwt beam="1">  1        1 0.17306779E-01 0.87767681E+02</pdfrwt>
<pdfrwt beam="2">  1       -1 0.11135321E-01 0.87767681E+02</pdfrwt>
<totfact> 0.14201523E+04</totfact>
</mgrwt>
</event>
<event>
 4    1  0.4940461E-001  0.8605928E+02  0.7546771E-02  0.1312685E+00
         -1   -1    0    0    0  501 -0.00000000000E+00  0.00000000000E+00  0.69935105176E+01  0.69935105176E+01  0.00000000000E+00 0.  1.
          1   -1    0    0  501    0  0.00000000000E+00 -0.00000000000E+00 -0.11538395110E+04  0.11538395110E+04  0.00000000000E+00 0. -1.
         24    1    1    2    0    0  0.28963481853E+02 -0.10005027953E+02 -0.40702884208E+03  0.41602725644E+03  0.80419002446E+02 0.  0.
        -24    1    1    2    0    0 -0.28963481853E+02  0.10005027953E+02 -0.73981715844E+03  0.74480576511E+03  0.80419002446E+02 0.  1.
<mgrwt>
<rscale>  0 0.86059281E+02</rscale>
<asrwt>0</asrwt>
<pdfrwt beam="1">  1        1 0.17751363E+00 0.86059281E+02</pdfrwt>
<pdfrwt beam="2">  1       -1 0.10759255E-02 0.86059281E+02</pdfrwt>
<totfact> 0.19283887E+04</totfact>
</mgrwt>
</event>
<event>
 4    1  0.4940461E-001  0.1014823E+03  0.7546771E-02  0.1277209E+00
          2   -1    0    0  501    0  0.00000000000E+00  0.00000000000E+00  0.11797647383E+03  0.11797647383E+03  0.00000000000E+00 0. -1.
         -2   -1    0    0    0  501 -0.00000000000E+00 -0.00000000000E+00 -0.99467613712E+02  0.99467613712E+02  0.00000000000E+00 0.  1.
         24    1    1    2    0    0 -0.61133061776E+02  0.97050588227E+01  0.47289475347E+02  0.11195959022E+03  0.80419002446E+02 0. -1.
        -24    1    1    2    0    0  0.61133061776E+02 -0.97050588227E+01 -0.28780615227E+02  0.10548449733E+03  0.80419002446E+02 0.  1.
<mgrwt>
<rscale>  0 0.10148229E+03</rscale>
<asrwt>0</asrwt>
<pdfrwt beam="1">  1        2 0.18150227E-01 0.10148229E+03</pdfrwt>
<pdfrwt beam="2">  1       -2 0.15302710E-01 0.10148229E+03</pdfrwt>
<totfact> 0.94505539E+03</totfact>
</mgrwt>
</event>
<event>
 4    1  0.4940461E-001  0.9323175E+02  0.7546771E-02  0.1295209E+00
         -2   -1    0    0    0  501 -0.00000000000E+00  0.00000000000E+00  0.47903585721E+02  0.47903585721E+02  0.00000000000E+00 0.  1.
          2   -1    0    0  501    0  0.00000000000E+00 -0.00000000000E+00 -0.30557927918E+03  0.30557927918E+03  0.00000000000E+00 0. -1.
         24    1    1    2    0    0 -0.53605532662E+01  0.46863710883E+02 -0.24148276167E+03  0.25885533231E+03  0.80419002446E+02 0. -1.
        -24    1    1    2    0    0  0.53605532662E+01 -0.46863710883E+02 -0.16192931789E+02  0.94627532586E+02  0.80419002446E+02 0.  1.
<mgrwt>
<rscale>  0 0.93231748E+02</rscale>
<asrwt>0</asrwt>
<pdfrwt beam="1">  1        2 0.47012197E-01 0.93231748E+02</pdfrwt>
<pdfrwt beam="2">  1       -2 0.73697823E-02 0.93231748E+02</pdfrwt>
<totfact> 0.10561352E+04</totfact>
</mgrwt>
</event>
<event>
 4    1  0.4940461E-001  0.9278120E+02  0.7546771E-02  0.1296253E+00
          1   -1    0    0  501    0  0.00000000000E+00  0.00000000000E+00  0.10740712047E+03  0.10740712047E+03  0.00000000000E+00 0. -1.
         -1   -1    0    0    0  501 -0.00000000000E+00 -0.00000000000E+00 -0.11541090451E+03  0.11541090451E+03  0.00000000000E+00 0.  1.
         24    1    1    2    0    0  0.36901242901E+02 -0.27918329402E+02 -0.65585133044E+02  0.11362112689E+03  0.80419002446E+02 0.  1.
        -24    1    1    2    0    0 -0.36901242901E+02  0.27918329402E+02  0.57581349004E+02  0.10919689809E+03  0.80419002446E+02 0. -1.
<mgrwt>
<rscale>  0 0.92781199E+02</rscale>
<asrwt>0</asrwt>
<pdfrwt beam="1">  1        1 0.16524172E-01 0.92781199E+02</pdfrwt>
<pdfrwt beam="2">  1       -1 0.17755524E-01 0.92781199E+02</pdfrwt>
<totfact> 0.73685653E+03</totfact>
</mgrwt>
</event>
<event>
 4    1  0.4940461E-001  0.8282917E+02  0.7546771E-02  0.1321209E+00
          2   -1    0    0  501    0  0.00000000000E+00  0.00000000000E+00  0.14840568459E+04  0.14840568459E+04  0.00000000000E+00 0. -1.
         -2   -1    0    0    0  501 -0.00000000000E+00 -0.00000000000E+00 -0.57030521032E+01  0.57030521032E+01  0.00000000000E+00 0.  1.
         24    1    1    2    0    0 -0.16612703680E+02 -0.10838490856E+02  0.10633461131E+04  0.10665672163E+04  0.80419002446E+02 0. -1.
        -24    1    1    2    0    0  0.16612703680E+02  0.10838490856E+02  0.41500768072E+03  0.42319268166E+03  0.80419002446E+02 0.  1.
<mgrwt>
<rscale>  0 0.82829166E+02</rscale>
<asrwt>0</asrwt>
<pdfrwt beam="1">  1        2 0.22831613E+00 0.82829166E+02</pdfrwt>
<pdfrwt beam="2">  1       -2 0.87739381E-03 0.82829166E+02</pdfrwt>
<totfact> 0.32932685E+04</totfact>
</mgrwt>
</event>
<event>
 4    1  0.4940461E-001  0.8416520E+02  0.7546771E-02  0.1317630E+00
          1   -1    0    0  501    0  0.00000000000E+00  0.00000000000E+00  0.60901638741E+02  0.60901638741E+02  0.00000000000E+00 0. -1.
         -1   -1    0    0    0  501 -0.00000000000E+00 -0.00000000000E+00 -0.59321860644E+03  0.59321860644E+03  0.00000000000E+00 0.  1.
         24    1    1    2    0    0 -0.14601866892E+02 -0.20083587702E+02 -0.55940675817E+03  0.56570283900E+03  0.80419002446E+02 0.  1.
        -24    1    1    2    0    0  0.14601866892E+02  0.20083587702E+02  0.27089790479E+02  0.88417406173E+02  0.80419002446E+02 0. -1.
<mgrwt>
<rscale>  0 0.84165200E+02</rscale>
<asrwt>0</asrwt>
<pdfrwt beam="1">  1        1 0.93694830E-02 0.84165200E+02</pdfrwt>
<pdfrwt beam="2">  1       -1 0.91264400E-01 0.84165200E+02</pdfrwt>
<totfact> 0.84297682E+02</totfact>
</mgrwt>
</event>
<event>
 4    1  0.4940461E-001  0.1425536E+03  0.7546771E-02  0.1209934E+00
          2   -1    0    0  501    0  0.00000000000E+00  0.00000000000E+00  0.80087810569E+03  0.80087810569E+03  0.00000000000E+00 0. -1.
         -2   -1    0    0    0  501 -0.00000000000E+00 -0.00000000000E+00 -0.25603908109E+02  0.25603908109E+02  0.00000000000E+00 0.  1.
         24    1    1    2    0    0 -0.53581541098E+02  0.10480132797E+03  0.42679202345E+03  0.44996994025E+03  0.80419002446E+02 0. -1.
        -24    1    1    2    0    0  0.53581541098E+02 -0.10480132797E+03  0.34848217413E+03  0.37651207355E+03  0.80419002446E+02 0.  1.
<mgrwt>
<rscale>  0 0.14255355E+03</rscale>
<asrwt>0</asrwt>
<pdfrwt beam="1">  1        2 0.12321200E+00 0.14255355E+03</pdfrwt>
<pdfrwt beam="2">  1       -2 0.39390634E-02 0.14255355E+03</pdfrwt>
<totfact> 0.96013948E+03</totfact>
</mgrwt>
</event>
<event>
 4    1  0.4940461E-001  0.8683570E+02  0.7546771E-02  0.1310701E+00
         -2   -1    0    0    0  501 -0.00000000000E+00  0.00000000000E+00  0.74514135775E+01  0.74514135775E+01  0.00000000000E+00 0.  1.
          2   -1    0    0  501    0  0.00000000000E+00 -0.00000000000E+00 -0.11872429099E+04  0.11872429099E+04  0.00000000000E+00 0. -1.
         24    1    1    2    0    0  0.24975698667E+02  0.21199923013E+02 -0.81942734163E+03  0.82401553773E+03  0.80419002446E+02 0. -1.
        -24    1    1    2    0    0 -0.24975698667E+02 -0.21199923013E+02 -0.36036415469E+03  0.37067878575E+03  0.80419002446E+02 0.  1.
<mgrwt>
<rscale>  0 0.86835697E+02</rscale>
<asrwt>0</asrwt>
<pdfrwt beam="1">  1        2 0.18265269E+00 0.86835697E+02</pdfrwt>
<pdfrwt beam="2">  1       -2 0.11463717E-02 0.86835697E+02</pdfrwt>
<totfact> 0.32437265E+04</totfact>
</mgrwt>
</event>
<event>
 4    1  0.4940461E-001  0.8909211E+02  0.7546771E-02  0.1305065E+00
          1   -1    0    0  501    0  0.00000000000E+00  0.00000000000E+00  0.96166492641E+01  0.96166492641E+01  0.00000000000E+00 0. -1.
         -1   -1    0    0    0  501 -0.00000000000E+00 -0.00000000000E+00 -0.12075953297E+04  0.12075953297E+04  0.00000000000E+00 0.  1.
         24    1    1    2    0    0  0.38281626298E+02  0.21689435174E+01 -0.94138541701E+03  0.94559182872E+03  0.80419002446E+02 0.  1.
        -24    1    1    2    0    0 -0.38281626298E+02 -0.21689435174E+01 -0.25659326340E+03  0.27162015021E+03  0.80419002446E+02 0. -1.
<mgrwt>
<rscale>  0 0.89092105E+02</rscale>
<asrwt>0</asrwt>
<pdfrwt beam="1">  1        1 0.14794844E-02 0.89092105E+02</pdfrwt>
<pdfrwt beam="2">  1       -1 0.18578391E+00 0.89092105E+02</pdfrwt>
<totfact> 0.18339037E+03</totfact>
</mgrwt>
</event>
<event>
 4    1  0.4940461E-001  0.8379484E+02  0.7546771E-02  0.1318615E+00
          2   -1    0    0  501    0  0.00000000000E+00  0.00000000000E+00  0.22279080626E+04  0.22279080626E+04  0.00000000000E+00 0. -1.
         -2   -1    0    0    0  501 -0.00000000000E+00 -0.00000000000E+00 -0.48407584461E+01  0.48407584461E+01  0.00000000000E+00 0.  1.
         24    1    1    2    0    0  0.15684716426E+02  0.17559888759E+02  0.17709846624E+04  0.17729659473E+04  0.80419002446E+02 0. -1.
        -24    1    1    2    0    0 -0.15684716426E+02 -0.17559888759E+02  0.45208264177E+03  0.45978287372E+03  0.80419002446E+02 0.  1.
<mgrwt>
<rscale>  0 0.83794845E+02</rscale>
<asrwt>0</asrwt>
<pdfrwt beam="1">  1        2 0.34275427E+00 0.83794845E+02</pdfrwt>
<pdfrwt beam="2">  1       -2 0.74473384E-03 0.83794845E+02</pdfrwt>
<totfact> 0.17561808E+04</totfact>
</mgrwt>
</event>
<event>
 4    1  0.4940461E-001  0.1241734E+03  0.7546771E-02  0.1236367E+00
          1   -1    0    0  501    0  0.00000000000E+00  0.00000000000E+00  0.31736446538E+03  0.31736446538E+03  0.00000000000E+00 0. -1.
         -1   -1    0    0    0  501 -0.00000000000E+00 -0.00000000000E+00 -0.55675949420E+02  0.55675949420E+02  0.00000000000E+00 0.  1.
         24    1    1    2    0    0  0.94410192597E+02 -0.62075059271E+01  0.64277753821E+02  0.13982368607E+03  0.80419002446E+02 0.  1.
        -24    1    1    2    0    0 -0.94410192597E+02  0.62075059271E+01  0.19741076214E+03  0.23321672872E+03  0.80419002446E+02 0. -1.
<mgrwt>
<rscale>  0 0.12417340E+03</rscale>
<asrwt>0</asrwt>
<pdfrwt beam="1">  1        1 0.48825302E-01 0.12417340E+03</pdfrwt>
<pdfrwt beam="2">  1       -1 0.85655308E-02 0.12417340E+03</pdfrwt>
<totfact> 0.60070307E+03</totfact>
</mgrwt>
</event>
<event>
 4    1  0.4940461E-001  0.1150305E+03  0.7546771E-02  0.1251528E+00
         -1   -1    0    0    0  501 -0.00000000000E+00  0.00000000000E+00  0.77059119155E+01  0.77059119155E+01  0.00000000000E+00 0.  1.
          1   -1    0    0  501    0  0.00000000000E+00 -0.00000000000E+00 -0.17793115530E+04  0.17793115530E+04  0.00000000000E+00 0. -1.
         24    1    1    2    0    0 -0.74964292547E+02 -0.33840098812E+02 -0.10528431415E+04  0.10591084430E+04  0.80419002446E+02 0. -1.
        -24    1    1    2    0    0  0.74964292547E+02  0.33840098812E+02 -0.71876249961E+03  0.72790902195E+03  0.80419002446E+02 0.  1.
<mgrwt>
<rscale>  0 0.11503050E+03</rscale>
<asrwt>0</asrwt>
<pdfrwt beam="1">  1        1 0.27374018E+00 0.11503052E+03</pdfrwt>
<pdfrwt beam="2">  1       -1 0.11855252E-02 0.11503052E+03</pdfrwt>
<totfact> 0.67330339E+03</totfact>
</mgrwt>
</event>
<event>
 4    1  0.4940461E-001  0.9797979E+02  0.7546771E-02  0.1284602E+00
         -2   -1    0    0    0  501 -0.00000000000E+00  0.00000000000E+00  0.82005764692E+02  0.82005764692E+02  0.00000000000E+00 0. -1.
          2   -1    0    0  501    0  0.00000000000E+00 -0.00000000000E+00 -0.15880760505E+03  0.15880760505E+03  0.00000000000E+00 0.  1.
         24    1    1    2    0    0 -0.22766979335E+02  0.51132015998E+02  0.23330014529E+02  0.10071903465E+03  0.80419002446E+02 0. -1.
        -24    1    1    2    0    0  0.22766979335E+02 -0.51132015998E+02 -0.10013185489E+03  0.14009433509E+03  0.80419002446E+02 0.  0.
<mgrwt>
<rscale>  0 0.97979777E+02</rscale>
<asrwt>0</asrwt>
<pdfrwt beam="1">  1        2 0.24431939E-01 0.97979790E+02</pdfrwt>
<pdfrwt beam="2">  1       -2 0.12616272E-01 0.97979790E+02</pdfrwt>
<totfact> 0.92306444E+03</totfact>
</mgrwt>
</event>
<event>
 4    1  0.4940461E-001  0.9769387E+02  0.7546771E-02  0.1285222E+00
         -3   -1    0    0    0  501 -0.00000000000E+00  0.00000000000E+00  0.19372094719E+03  0.19372094719E+03  0.00000000000E+00 0.  1.
          3   -1    0    0  501    0  0.00000000000E+00 -0.00000000000E+00 -0.61728536438E+02  0.61728536438E+02  0.00000000000E+00 0. -1.
         24    1    1    2    0    0  0.38792226794E+01  0.55333787353E+02  0.12338327142E+03  0.15737701234E+03  0.80419002446E+02 0.  1.
        -24    1    1    2    0    0 -0.38792226794E+01 -0.55333787353E+02  0.86091393368E+01  0.98072471295E+02  0.80419002446E+02 0. -1.
<mgrwt>
<rscale>  0 0.97693871E+02</rscale>
<asrwt>0</asrwt>
<pdfrwt beam="1">  1        3 0.94966980E-02 0.97693871E+02</pdfrwt>
<pdfrwt beam="2">  1       -3 0.29803222E-01 0.97693871E+02</pdfrwt>
<totfact> 0.18854053E+03</totfact>
</mgrwt>
</event>
<event>
 4    1  0.4940461E-001  0.8895488E+02  0.7546771E-02  0.1305403E+00
         -2   -1    0    0    0  501 -0.00000000000E+00  0.00000000000E+00  0.19467361559E+03  0.19467361559E+03  0.00000000000E+00 0.  1.
          2   -1    0    0  501    0  0.00000000000E+00 -0.00000000000E+00 -0.10177778654E+03  0.10177778654E+03  0.00000000000E+00 0. -1.
         24    1    1    2    0    0 -0.24548440603E+02 -0.29036670521E+02 -0.68427130956E+02  0.11222852746E+03  0.80419002446E+02 0. -1.
        -24    1    1    2    0    0  0.24548440603E+02  0.29036670521E+02  0.16132296001E+03  0.18422287467E+03  0.80419002446E+02 0.  1.
<mgrwt>
<rscale>  0 0.88954877E+02</rscale>
<asrwt>0</asrwt>
<pdfrwt beam="1">  1        2 0.15658121E-01 0.88954877E+02</pdfrwt>
<pdfrwt beam="2">  1       -2 0.29949787E-01 0.88954877E+02</pdfrwt>
<totfact> 0.35434471E+03</totfact>
</mgrwt>
</event>
<event>
 4    1  0.4940461E-001  0.1094869E+03  0.7546771E-02  0.1261523E+00
         -2   -1    0    0    0  501 -0.00000000000E+00  0.00000000000E+00  0.45235795752E+02  0.45235795752E+02  0.00000000000E+00 0.  1.
          2   -1    0    0  501    0  0.00000000000E+00 -0.00000000000E+00 -0.27169235513E+03  0.27169235513E+03  0.00000000000E+00 0. -1.
         24    1    1    2    0    0 -0.51983611353E+02 -0.53083635917E+02 -0.13810278855E+03  0.17623780642E+03  0.80419002446E+02 0. -1.
        -24    1    1    2    0    0  0.51983611353E+02  0.53083635917E+02 -0.88353770827E+02  0.14069034446E+03  0.80419002446E+02 0.  1.
<mgrwt>
<rscale>  0 0.10948691E+03</rscale>
<asrwt>0</asrwt>
<pdfrwt beam="1">  1        2 0.41798824E-01 0.10948691E+03</pdfrwt>
<pdfrwt beam="2">  1       -2 0.69593532E-02 0.10948691E+03</pdfrwt>
<totfact> 0.13220867E+04</totfact>
</mgrwt>
</event>
<event>
 4    1  0.4940461E-001  0.8254847E+02  0.7546771E-02  0.1321971E+00
         -1   -1    0    0    0  501 -0.00000000000E+00  0.00000000000E+00  0.34049575729E+02  0.34049575729E+02  0.00000000000E+00 0.  1.
          1   -1    0    0  501    0  0.00000000000E+00 -0.00000000000E+00 -0.46142751281E+03  0.46142751281E+03  0.00000000000E+00 0. -1.
         24    1    1    2    0    0 -0.12066206672E+02  0.14192950311E+02 -0.27260714298E+02  0.86933282927E+02  0.80419002446E+02 0.  1.
        -24    1    1    2    0    0  0.12066206672E+02 -0.14192950311E+02 -0.40011722278E+03  0.40854380561E+03  0.80419002446E+02 0. -1.
<mgrwt>
<rscale>  0 0.82548465E+02</rscale>
<asrwt>0</asrwt>
<pdfrwt beam="1">  1        1 0.70988841E-01 0.82548465E+02</pdfrwt>
<pdfrwt beam="2">  1       -1 0.52383968E-02 0.82548465E+02</pdfrwt>
<totfact> 0.76018341E+03</totfact>
</mgrwt>
</event>
<event>
 4    1  0.4940461E-001  0.9593323E+02  0.7546771E-02  0.1289088E+00
          2   -1    0    0  501    0  0.00000000000E+00  0.00000000000E+00  0.70217754558E+02  0.70217754558E+02  0.00000000000E+00 0. -1.
         -2   -1    0    0    0  501 -0.00000000000E+00 -0.00000000000E+00 -0.18451711434E+03  0.18451711434E+03  0.00000000000E+00 0.  1.
         24    1    1    2    0    0  0.41648376695E+01  0.52140415678E+02  0.11401831617E+02  0.96608418570E+02  0.80419002446E+02 0. -1.
        -24    1    1    2    0    0 -0.41648376695E+01 -0.52140415678E+02 -0.12570119140E+03  0.15812645033E+03  0.80419002446E+02 0.  1.
<mgrwt>
<rscale>  0 0.95933231E+02</rscale>
<asrwt>0</asrwt>
<pdfrwt beam="1">  1        2 0.10802731E-01 0.95933231E+02</pdfrwt>
<pdfrwt beam="2">  1       -2 0.28387249E-01 0.95933231E+02</pdfrwt>
<totfact> 0.60663304E+03</totfact>
</mgrwt>
</event>
<event>
 4    1  0.4940461E-001  0.9020117E+02  0.7546771E-02  0.1302365E+00
          3   -1    0    0  501    0  0.00000000000E+00  0.00000000000E+00  0.15239555903E+03  0.15239555903E+03  0.00000000000E+00 0. -1.
         -3   -1    0    0    0  501 -0.00000000000E+00 -0.00000000000E+00 -0.18434746850E+03  0.18434746850E+03  0.00000000000E+00 0.  1.
         24    1    1    2    0    0  0.38090874954E+02 -0.14768915847E+02 -0.15788718526E+03  0.18183678081E+03  0.80419002446E+02 0.  1.
        -24    1    1    2    0    0 -0.38090874954E+02  0.14768915847E+02  0.12593527580E+03  0.15490624673E+03  0.80419002446E+02 0. -1.
<mgrwt>
<rscale>  0 0.90201173E+02</rscale>
<asrwt>0</asrwt>
<pdfrwt beam="1">  1        3 0.23445470E-01 0.90201173E+02</pdfrwt>
<pdfrwt beam="2">  1       -3 0.28361149E-01 0.90201173E+02</pdfrwt>
<totfact> 0.43867121E+02</totfact>
</mgrwt>
</event>
<event>
 4    1  0.4940461E-001  0.8198454E+02  0.7546771E-02  0.1323512E+00
         -2   -1    0    0    0  501 -0.00000000000E+00  0.00000000000E+00  0.56310555670E+02  0.56310555670E+02  0.00000000000E+00 0.  1.
          2   -1    0    0  501    0  0.00000000000E+00 -0.00000000000E+00 -0.12006251902E+03  0.12006251902E+03  0.00000000000E+00 0. -1.
         24    1    1    2    0    0  0.15809752501E+02 -0.20739547074E+01 -0.38601402996E+02  0.90617513925E+02  0.80419002446E+02 0.  1.
        -24    1    1    2    0    0 -0.15809752501E+02  0.20739547074E+01 -0.25150560358E+02  0.85755560770E+02  0.80419002446E+02 0. -1.
<mgrwt>
<rscale>  0 0.81984544E+02</rscale>
<asrwt>0</asrwt>
<pdfrwt beam="1">  1        2 0.18471157E-01 0.81984544E+02</pdfrwt>
<pdfrwt beam="2">  1       -2 0.86631625E-02 0.81984544E+02</pdfrwt>
<totfact> 0.22223819E+04</totfact>
</mgrwt>
</event>
<event>
 4    1  0.4940461E-001  0.9509152E+02  0.7546771E-02  0.1290970E+00
         -2   -1    0    0    0  501 -0.00000000000E+00  0.00000000000E+00  0.25497502508E+02  0.25497502508E+02  0.00000000000E+00 0.  1.
          2   -1    0    0  501    0  0.00000000000E+00 -0.00000000000E+00 -0.66962968232E+03  0.66962968232E+03  0.00000000000E+00 0. -1.
         24    1    1    2    0    0  0.45632027929E+02 -0.22201346210E+02 -0.56044404112E+03  0.56845397433E+03  0.80419002446E+02 0. -1.
        -24    1    1    2    0    0 -0.45632027929E+02  0.22201346210E+02 -0.83688138690E+02  0.12667321050E+03  0.80419002446E+02 0.  1.
<mgrwt>
<rscale>  0 0.95091523E+02</rscale>
<asrwt>0</asrwt>
<pdfrwt beam="1">  1        2 0.10301996E+00 0.95091523E+02</pdfrwt>
<pdfrwt beam="2">  1       -2 0.39226922E-02 0.95091523E+02</pdfrwt>
<totfact> 0.11646519E+04</totfact>
</mgrwt>
</event>
<event>
 4    1  0.4940461E-001  0.1061648E+03  0.7546771E-02  0.1267842E+00
          1   -1    0    0  501    0  0.00000000000E+00  0.00000000000E+00  0.22841155232E+04  0.22841155232E+04  0.00000000000E+00 0. -1.
         -1   -1    0    0    0  501 -0.00000000000E+00 -0.00000000000E+00 -0.54265158075E+01  0.54265158075E+01  0.00000000000E+00 0.  1.
         24    1    1    2    0    0 -0.65161294423E+02 -0.23616676988E+02  0.79463788501E+03  0.80169840088E+03  0.80419002446E+02 0.  0.
        -24    1    1    2    0    0  0.65161294423E+02  0.23616676988E+02  0.14840511223E+04  0.14878436381E+04  0.80419002446E+02 0.  1.
<mgrwt>
<rscale>  0 0.10616477E+03</rscale>
<asrwt>0</asrwt>
<pdfrwt beam="1">  1        1 0.35140162E+00 0.10616477E+03</pdfrwt>
<pdfrwt beam="2">  1       -1 0.83485041E-03 0.10616477E+03</pdfrwt>
<totfact> 0.52929804E+03</totfact>
</mgrwt>
</event>
<event>
 4    1  0.4940461E-001  0.1053008E+03  0.7546771E-02  0.1269528E+00
         -1   -1    0    0    0  501 -0.00000000000E+00  0.00000000000E+00  0.76551518653E+01  0.76551518653E+01  0.00000000000E+00 0.  1.
          1   -1    0    0  501    0  0.00000000000E+00 -0.00000000000E+00 -0.14889242605E+04  0.14889242605E+04  0.00000000000E+00 0. -1.
         24    1    1    2    0    0 -0.47269535308E+02 -0.48853125435E+02 -0.61729024097E+03  0.62620722958E+03  0.80419002446E+02 0.  1.
        -24    1    1    2    0    0  0.47269535308E+02  0.48853125435E+02 -0.86397886770E+03  0.87037218282E+03  0.80419002446E+02 0. -1.
<mgrwt>
<rscale>  0 0.10530077E+03</rscale>
<asrwt>0</asrwt>
<pdfrwt beam="1">  1        1 0.22906531E+00 0.10530077E+03</pdfrwt>
<pdfrwt beam="2">  1       -1 0.11777155E-02 0.10530077E+03</pdfrwt>
<totfact> 0.10358809E+04</totfact>
</mgrwt>
</event>
<event>
 4    1  0.4940461E-001  0.1025426E+03  0.7546771E-02  0.1275038E+00
          2   -1    0    0  501    0  0.00000000000E+00  0.00000000000E+00  0.18505205829E+04  0.18505205829E+04  0.00000000000E+00 0. -1.
         -2   -1    0    0    0  501 -0.00000000000E+00 -0.00000000000E+00 -0.15439217902E+02  0.15439217902E+02  0.00000000000E+00 0.  1.
         24    1    1    2    0    0 -0.63200901755E+02 -0.73089023221E+01  0.16592242346E+04  0.16623898612E+04  0.80419002446E+02 0. -1.
        -24    1    1    2    0    0  0.63200901755E+02  0.73089023221E+01  0.17585713038E+03  0.20356993957E+03  0.80419002446E+02 0.  1.
<mgrwt>
<rscale>  0 0.10254263E+03</rscale>
<asrwt>0</asrwt>
<pdfrwt beam="1">  1        2 0.28469530E+00 0.10254263E+03</pdfrwt>
<pdfrwt beam="2">  1       -2 0.23752658E-02 0.10254263E+03</pdfrwt>
<totfact> 0.52563792E+03</totfact>
</mgrwt>
</event>
<event>
 4    1  0.4940461E-001  0.8533878E+02  0.7546771E-02  0.1314549E+00
         -1   -1    0    0    0  501 -0.00000000000E+00  0.00000000000E+00  0.18209464212E+03  0.18209464212E+03  0.00000000000E+00 0.  1.
          1   -1    0    0  501    0  0.00000000000E+00 -0.00000000000E+00 -0.40349139097E+02  0.40349139097E+02  0.00000000000E+00 0. -1.
         24    1    1    2    0    0  0.21651335022E+02 -0.18620070355E+02  0.60439053974E+02  0.10457333564E+03  0.80419002446E+02 0.  0.
        -24    1    1    2    0    0 -0.21651335022E+02  0.18620070355E+02  0.81306449051E+02  0.11787044557E+03  0.80419002446E+02 0. -1.
<mgrwt>
<rscale>  0 0.85338767E+02</rscale>
<asrwt>0</asrwt>
<pdfrwt beam="1">  1        1 0.62075600E-02 0.85338777E+02</pdfrwt>
<pdfrwt beam="2">  1       -1 0.28014560E-01 0.85338777E+02</pdfrwt>
<totfact> 0.12631744E+04</totfact>
</mgrwt>
</event>
<event>
 4    1  0.4940461E-001  0.8223496E+02  0.7546771E-02  0.1322826E+00
          2   -1    0    0  501    0  0.00000000000E+00  0.00000000000E+00  0.16915273309E+03  0.16915273309E+03  0.00000000000E+00 0. -1.
         -2   -1    0    0    0  501 -0.00000000000E+00 -0.00000000000E+00 -0.84299625809E+02  0.84299625809E+02  0.00000000000E+00 0.  1.
         24    1    1    2    0    0 -0.59420564507E+01 -0.16126541273E+02  0.13431386150E+03  0.15748905586E+03  0.80419002446E+02 0. -1.
        -24    1    1    2    0    0  0.59420564507E+01  0.16126541273E+02 -0.49460754222E+02  0.95963303043E+02  0.80419002446E+02 0.  1.
<mgrwt>
<rscale>  0 0.82234964E+02</rscale>
<asrwt>0</asrwt>
<pdfrwt beam="1">  1        2 0.26023497E-01 0.82234964E+02</pdfrwt>
<pdfrwt beam="2">  1       -2 0.12969173E-01 0.82234964E+02</pdfrwt>
<totfact> 0.81227421E+03</totfact>
</mgrwt>
</event>
<event>
 4    1  0.4940461E-001  0.8943408E+02  0.7546771E-02  0.1304228E+00
         -1   -1    0    0    0  501 -0.00000000000E+00  0.00000000000E+00  0.10361100345E+03  0.10361100345E+03  0.00000000000E+00 0.  1.
          1   -1    0    0  501    0  0.00000000000E+00 -0.00000000000E+00 -0.95061746167E+02  0.95061746167E+02  0.00000000000E+00 0. -1.
         24    1    1    2    0    0 -0.23906326439E+02 -0.30979435124E+02  0.47337640874E+02  0.10118945618E+03  0.80419002446E+02 0.  1.
        -24    1    1    2    0    0  0.23906326439E+02  0.30979435124E+02 -0.38788383586E+02  0.97483293441E+02  0.80419002446E+02 0. -1.
<mgrwt>
<rscale>  0 0.89434075E+02</rscale>
<asrwt>0</asrwt>
<pdfrwt beam="1">  1        1 0.14624884E-01 0.89434075E+02</pdfrwt>
<pdfrwt beam="2">  1       -1 0.15940154E-01 0.89434075E+02</pdfrwt>
<totfact> 0.10159824E+04</totfact>
</mgrwt>
</event>
<event>
 4    1  0.4940461E-001  0.8580833E+02  0.7546771E-02  0.1313332E+00
          4   -1    0    0  501    0  0.00000000000E+00  0.00000000000E+00  0.55254329439E+02  0.55254329439E+02  0.00000000000E+00 0. -1.
         -4   -1    0    0    0  501 -0.00000000000E+00 -0.00000000000E+00 -0.13375031925E+03  0.13375031925E+03  0.00000000000E+00 0.  1.
         24    1    1    2    0    0 -0.23915483432E+02 -0.17997198462E+02 -0.44983160861E+02  0.96884210353E+02  0.80419002446E+02 0.  1.
        -24    1    1    2    0    0  0.23915483432E+02  0.17997198462E+02 -0.33512828947E+02  0.92120438333E+02  0.80419002446E+02 0. -1.
<mgrwt>
<rscale>  0 0.85808317E+02</rscale>
<asrwt>0</asrwt>
<pdfrwt beam="1">  1        4 0.85006661E-02 0.85808328E+02</pdfrwt>
<pdfrwt beam="2">  1       -4 0.20576972E-01 0.85808328E+02</pdfrwt>
<totfact> 0.31107414E+03</totfact>
</mgrwt>
</event>
<event>
 4    1  0.4940461E-001  0.8939053E+02  0.7546771E-02  0.1304334E+00
          3   -1    0    0  501    0  0.00000000000E+00  0.00000000000E+00  0.36928610375E+03  0.36928610375E+03  0.00000000000E+00 0. -1.
         -3   -1    0    0    0  501 -0.00000000000E+00 -0.00000000000E+00 -0.31295835413E+02  0.31295835413E+02  0.00000000000E+00 0.  1.
         24    1    1    2    0    0 -0.32713178938E+02  0.21290831571E+02  0.57731137453E+02  0.10641217868E+03  0.80419002446E+02 0.  1.
        -24    1    1    2    0    0  0.32713178938E+02 -0.21290831571E+02  0.28025913088E+03  0.29416976048E+03  0.80419002446E+02 0. -1.
<mgrwt>
<rscale>  0 0.89390534E+02</rscale>
<asrwt>0</asrwt>
<pdfrwt beam="1">  1        3 0.56813243E-01 0.89390534E+02</pdfrwt>
<pdfrwt beam="2">  1       -3 0.48147442E-02 0.89390534E+02</pdfrwt>
<totfact> 0.15876280E+03</totfact>
</mgrwt>
</event>
<event>
 4    1  0.4940461E-001  0.8881733E+02  0.7546771E-02  0.1305741E+00
          2   -1    0    0  501    0  0.00000000000E+00  0.00000000000E+00  0.64386945081E+03  0.64386945081E+03  0.00000000000E+00 0. -1.
         -2   -1    0    0    0  501 -0.00000000000E+00 -0.00000000000E+00 -0.20347897044E+02  0.20347897044E+02  0.00000000000E+00 0.  1.
         24    1    1    2    0    0  0.17188558665E+02  0.33553769391E+02  0.52124920899E+03  0.52876200300E+03  0.80419002446E+02 0. -1.
        -24    1    1    2    0    0 -0.17188558665E+02 -0.33553769391E+02  0.10227234478E+03  0.13545534486E+03  0.80419002446E+02 0.  1.
<mgrwt>
<rscale>  0 0.88817329E+02</rscale>
<asrwt>0</asrwt>
<pdfrwt beam="1">  1        2 0.99056823E-01 0.88817329E+02</pdfrwt>
<pdfrwt beam="2">  1       -2 0.31304462E-02 0.88817329E+02</pdfrwt>
<totfact> 0.16848226E+04</totfact>
</mgrwt>
</event>
<event>
 4    1  0.4940461E-001  0.9136401E+02  0.7546771E-02  0.1299582E+00
          2   -1    0    0  501    0  0.00000000000E+00  0.00000000000E+00  0.21096674371E+04  0.21096674371E+04  0.00000000000E+00 0. -1.
         -2   -1    0    0    0  501 -0.00000000000E+00 -0.00000000000E+00 -0.50164974546E+01  0.50164974546E+01  0.00000000000E+00 0.  1.
         24    1    1    2    0    0 -0.37691610356E+02 -0.21436169218E+02  0.15383079586E+04  0.15410187404E+04  0.80419002446E+02 0. -1.
        -24    1    1    2    0    0  0.37691610356E+02  0.21436169218E+02  0.56634298108E+03  0.57366519418E+03  0.80419002446E+02 0.  1.
<mgrwt>
<rscale>  0 0.91364013E+02</rscale>
<asrwt>0</asrwt>
<pdfrwt beam="1">  1        2 0.32456351E+00 0.91364013E+02</pdfrwt>
<pdfrwt beam="2">  1       -2 0.77177052E-03 0.91364013E+02</pdfrwt>
<totfact> 0.19261739E+04</totfact>
</mgrwt>
</event>
<event>
 4    1  0.4940461E-001  0.8652454E+02  0.7546771E-02  0.1311493E+00
         -2   -1    0    0    0  501 -0.00000000000E+00  0.00000000000E+00  0.23102669211E+02  0.23102669211E+02  0.00000000000E+00 0.  1.
          2   -1    0    0  501    0  0.00000000000E+00 -0.00000000000E+00 -0.38152501760E+03  0.38152501760E+03  0.00000000000E+00 0. -1.
         24    1    1    2    0    0  0.90814424334E+01 -0.30607322866E+02 -0.25773312587E+03  0.27186919821E+03  0.80419002446E+02 0. -1.
        -24    1    1    2    0    0 -0.90814424334E+01  0.30607322866E+02 -0.10068922251E+03  0.13275848860E+03  0.80419002446E+02 0.  1.
<mgrwt>
<rscale>  0 0.86524544E+02</rscale>
<asrwt>0</asrwt>
<pdfrwt beam="1">  1        2 0.58696151E-01 0.86524544E+02</pdfrwt>
<pdfrwt beam="2">  1       -2 0.35542571E-02 0.86524544E+02</pdfrwt>
<totfact> 0.24603042E+04</totfact>
</mgrwt>
</event>
<event>
 4    1  0.4940461E-001  0.8860876E+02  0.7546771E-02  0.1306256E+00
          3   -1    0    0  501    0  0.00000000000E+00  0.00000000000E+00  0.61409020176E+02  0.61409020176E+02  0.00000000000E+00 0. -1.
         -3   -1    0    0    0  501 -0.00000000000E+00 -0.00000000000E+00 -0.34651574255E+03  0.34651574255E+03  0.00000000000E+00 0.  1.
         24    1    1    2    0    0 -0.17156457994E+02  0.33014424320E+02 -0.30457499103E+03  0.31720251792E+03  0.80419002446E+02 0.  1.
        -24    1    1    2    0    0  0.17156457994E+02 -0.33014424320E+02  0.19468268648E+02  0.90722244806E+02  0.80419002446E+02 0. -1.
<mgrwt>
<rscale>  0 0.88608759E+02</rscale>
<asrwt>0</asrwt>
<pdfrwt beam="1">  1        3 0.94475415E-02 0.88608759E+02</pdfrwt>
<pdfrwt beam="2">  1       -3 0.53310114E-01 0.88608759E+02</pdfrwt>
<totfact> 0.61458888E+02</totfact>
</mgrwt>
</event>
<event>
 4    1  0.4940461E-001  0.8240718E+02  0.7546771E-02  0.1322356E+00
          2   -1    0    0  501    0  0.00000000000E+00  0.00000000000E+00  0.59659208793E+03  0.59659208793E+03  0.00000000000E+00 0. -1.
         -2   -1    0    0    0  501 -0.00000000000E+00 -0.00000000000E+00 -0.25541211642E+02  0.25541211642E+02  0.00000000000E+00 0.  1.
         24    1    1    2    0    0 -0.16314502200E+02 -0.75870883923E+01  0.51712544726E+03  0.52365033281E+03  0.80419002446E+02 0.  0.
        -24    1    1    2    0    0  0.16314502200E+02  0.75870883923E+01  0.53925429027E+02  0.98482966763E+02  0.80419002446E+02 0.  0.
<mgrwt>
<rscale>  0 0.82407177E+02</rscale>
<asrwt>0</asrwt>
<pdfrwt beam="1">  1        2 0.91783388E-01 0.82407177E+02</pdfrwt>
<pdfrwt beam="2">  1       -2 0.39294176E-02 0.82407177E+02</pdfrwt>
<totfact> 0.13084347E+04</totfact>
</mgrwt>
</event>
<event>
 4    1  0.4940461E-001  0.8649487E+02  0.7546771E-02  0.1311569E+00
          1   -1    0    0  501    0  0.00000000000E+00  0.00000000000E+00  0.20963239908E+02  0.20963239908E+02  0.00000000000E+00 0. -1.
         -1   -1    0    0    0  501 -0.00000000000E+00 -0.00000000000E+00 -0.10572985570E+04  0.10572985570E+04  0.00000000000E+00 0.  1.
         24    1    1    2    0    0  0.31781565930E+02  0.20194502231E+01 -0.95697532836E+03  0.96087623613E+03  0.80419002446E+02 0.  1.
        -24    1    1    2    0    0 -0.31781565930E+02 -0.20194502231E+01 -0.79359988711E+02  0.11738556076E+03  0.80419002446E+02 0. -1.
<mgrwt>
<rscale>  0 0.86494867E+02</rscale>
<asrwt>0</asrwt>
<pdfrwt beam="1">  1        1 0.32251144E-02 0.86494867E+02</pdfrwt>
<pdfrwt beam="2">  1       -1 0.16266129E+00 0.86494867E+02</pdfrwt>
<totfact> 0.90567597E+02</totfact>
</mgrwt>
</event>
<event>
 4    1  0.4940461E-001  0.9751748E+02  0.7546771E-02  0.1285605E+00
          3   -1    0    0  501    0  0.00000000000E+00  0.00000000000E+00  0.35100429995E+02  0.35100429995E+02  0.00000000000E+00 0. -1.
         -3   -1    0    0    0  501 -0.00000000000E+00 -0.00000000000E+00 -0.14604535982E+04  0.14604535982E+04  0.00000000000E+00 0.  1.
         24    1    1    2    0    0  0.52990222159E+02  0.15312693892E+02 -0.13875390705E+04  0.13909616567E+04  0.80419002446E+02 0.  1.
        -24    1    1    2    0    0 -0.52990222159E+02 -0.15312693892E+02 -0.37814097701E+02  0.10459237151E+03  0.80419002446E+02 0. -1.
<mgrwt>
<rscale>  0 0.97517476E+02</rscale>
<asrwt>0</asrwt>
<pdfrwt beam="1">  1        3 0.54000673E-02 0.97517476E+02</pdfrwt>
<pdfrwt beam="2">  1       -3 0.22468512E+00 0.97517476E+02</pdfrwt>
<totfact> 0.53335339E+01</totfact>
</mgrwt>
</event>
<event>
 4    1  0.4940461E-001  0.8643682E+02  0.7546771E-02  0.1311717E+00
          2   -1    0    0  501    0  0.00000000000E+00  0.00000000000E+00  0.57125706956E+03  0.57125706956E+03  0.00000000000E+00 0. -1.
         -2   -1    0    0    0  501 -0.00000000000E+00 -0.00000000000E+00 -0.13581215288E+03  0.13581215288E+03  0.00000000000E+00 0.  1.
         24    1    1    2    0    0  0.27260146509E+02  0.16155241324E+02  0.55380350758E+03  0.56050838386E+03  0.80419002446E+02 0. -1.
        -24    1    1    2    0    0 -0.27260146509E+02 -0.16155241324E+02 -0.11835859090E+03  0.14656083858E+03  0.80419002446E+02 0.  1.
<mgrwt>
<rscale>  0 0.86436817E+02</rscale>
<asrwt>0</asrwt>
<pdfrwt beam="1">  1        2 0.87885701E-01 0.86436817E+02</pdfrwt>
<pdfrwt beam="2">  1       -2 0.20894178E-01 0.86436817E+02</pdfrwt>
<totfact> 0.10306747E+03</totfact>
</mgrwt>
</event>
<event>
 4    1  0.4940461E-001  0.8729731E+02  0.7546771E-02  0.1309532E+00
          1   -1    0    0  501    0  0.00000000000E+00  0.00000000000E+00  0.10757032518E+04  0.10757032518E+04  0.00000000000E+00 0. -1.
         -1   -1    0    0    0  501 -0.00000000000E+00 -0.00000000000E+00 -0.98460664723E+01  0.98460664723E+01  0.00000000000E+00 0.  1.
         24    1    1    2    0    0 -0.15638547196E+02 -0.30150303855E+02  0.24547625751E+03  0.26053678040E+03  0.80419002446E+02 0.  1.
        -24    1    1    2    0    0  0.15638547196E+02  0.30150303855E+02  0.82038092784E+03  0.82501253790E+03  0.80419002446E+02 0. -1.
<mgrwt>
<rscale>  0 0.87297313E+02</rscale>
<asrwt>0</asrwt>
<pdfrwt beam="1">  1        1 0.16549271E+00 0.87297313E+02</pdfrwt>
<pdfrwt beam="2">  1       -1 0.15147803E-02 0.87297313E+02</pdfrwt>
<totfact> 0.13473266E+04</totfact>
</mgrwt>
</event>
<event>
 4    1  0.4940461E-001  0.8700685E+02  0.7546771E-02  0.1310266E+00
          2   -1    0    0  501    0  0.00000000000E+00  0.00000000000E+00  0.73377463958E+02  0.73377463958E+02  0.00000000000E+00 0. -1.
         -2   -1    0    0    0  501 -0.00000000000E+00 -0.00000000000E+00 -0.10371421137E+03  0.10371421137E+03  0.00000000000E+00 0.  1.
         24    1    1    2    0    0 -0.17341861936E+02 -0.28323760817E+02 -0.87413675897E+01  0.87444857276E+02  0.80419002446E+02 0. -1.
        -24    1    1    2    0    0  0.17341861936E+02  0.28323760817E+02 -0.21595379818E+02  0.89646818048E+02  0.80419002446E+02 0.  1.
<mgrwt>
<rscale>  0 0.87006848E+02</rscale>
<asrwt>0</asrwt>
<pdfrwt beam="1">  1        2 0.11288841E-01 0.87006848E+02</pdfrwt>
<pdfrwt beam="2">  1       -2 0.15956032E-01 0.87006848E+02</pdfrwt>
<totfact> 0.15116414E+04</totfact>
</mgrwt>
</event>
<event>
 4    1  0.4940461E-001  0.9451929E+02  0.7546771E-02  0.1292262E+00
         -1   -1    0    0    0  501 -0.00000000000E+00  0.00000000000E+00  0.13028385902E+04  0.13028385902E+04  0.00000000000E+00 0.  1.
          1   -1    0    0  501    0  0.00000000000E+00 -0.00000000000E+00 -0.54580442329E+02  0.54580442329E+02  0.00000000000E+00 0. -1.
         24    1    1    2    0    0  0.41302505250E+02  0.27582315462E+02  0.12587730056E+04  0.12623166705E+04  0.80419002446E+02 0.  1.
        -24    1    1    2    0    0 -0.41302505250E+02 -0.27582315462E+02 -0.10514857768E+02  0.95102361981E+02  0.80419002446E+02 0. -1.
<mgrwt>
<rscale>  0 0.94519294E+02</rscale>
<asrwt>0</asrwt>
<pdfrwt beam="1">  1        1 0.83969921E-02 0.94519294E+02</pdfrwt>
<pdfrwt beam="2">  1       -1 0.20043668E+00 0.94519294E+02</pdfrwt>
<totfact> 0.13846919E+02</totfact>
</mgrwt>
</event>
<event>
 4    1  0.4940461E-001  0.9436819E+02  0.7546771E-02  0.1292605E+00
         -1   -1    0    0    0  501 -0.00000000000E+00  0.00000000000E+00  0.25961464247E+02  0.25961464247E+02  0.00000000000E+00 0.  1.
          1   -1    0    0  501    0  0.00000000000E+00 -0.00000000000E+00 -0.40216568459E+03  0.40216568459E+03  0.00000000000E+00 0. -1.
         24    1    1    2    0    0 -0.33665739383E+02 -0.36121427961E+02 -0.10601137320E+03  0.14192873834E+03  0.80419002446E+02 0. -1.
        -24    1    1    2    0    0  0.33665739383E+02  0.36121427961E+02 -0.27019284715E+03  0.28619841050E+03  0.80419002446E+02 0.  0.
<mgrwt>
<rscale>  0 0.94368191E+02</rscale>
<asrwt>0</asrwt>
<pdfrwt beam="1">  1        1 0.61871644E-01 0.94368191E+02</pdfrwt>
<pdfrwt beam="2">  1       -1 0.39940714E-02 0.94368191E+02</pdfrwt>
<totfact> 0.13561960E+04</totfact>
</mgrwt>
</event>
<event>
 4    1  0.4940461E-001  0.1270414E+03  0.7546771E-02  0.1231913E+00
         -1   -1    0    0    0  501 -0.00000000000E+00  0.00000000000E+00  0.10678331484E+03  0.10678331484E+03  0.00000000000E+00 0.  1.
          1   -1    0    0  501    0  0.00000000000E+00 -0.00000000000E+00 -0.15525215383E+03  0.15525215383E+03  0.00000000000E+00 0. -1.
         24    1    1    2    0    0  0.85024341698E+02 -0.49428264591E+02 -0.29182807663E+01  0.12707487690E+03  0.80419002446E+02 0. -1.
        -24    1    1    2    0    0 -0.85024341698E+02  0.49428264591E+02 -0.45550558227E+02  0.13496059177E+03  0.80419002446E+02 0.  1.
<mgrwt>
<rscale>  0 0.12704136E+03</rscale>
<asrwt>0</asrwt>
<pdfrwt beam="1">  1        1 0.23884947E-01 0.12704136E+03</pdfrwt>
<pdfrwt beam="2">  1       -1 0.16428202E-01 0.12704136E+03</pdfrwt>
<totfact> 0.53518242E+03</totfact>
</mgrwt>
</event>
<event>
 4    1  0.4940461E-001  0.9234340E+02  0.7546771E-02  0.1297274E+00
          1   -1    0    0  501    0  0.00000000000E+00  0.00000000000E+00  0.69140058540E+03  0.69140058540E+03  0.00000000000E+00 0. -1.
         -1   -1    0    0    0  501 -0.00000000000E+00 -0.00000000000E+00 -0.12493153277E+02  0.12493153277E+02  0.00000000000E+00 0.  1.
         24    1    1    2    0    0 -0.16843590734E+02  0.42147130288E+02  0.29965224230E+03  0.31355823927E+03  0.80419002446E+02 0.  0.
        -24    1    1    2    0    0  0.16843590734E+02 -0.42147130288E+02  0.37925518982E+03  0.39033549941E+03  0.80419002446E+02 0. -1.
<mgrwt>
<rscale>  0 0.92343398E+02</rscale>
<asrwt>0</asrwt>
<pdfrwt beam="1">  1        1 0.10636929E+00 0.92343398E+02</pdfrwt>
<pdfrwt beam="2">  1       -1 0.19220241E-02 0.92343398E+02</pdfrwt>
<totfact> 0.19091825E+04</totfact>
</mgrwt>
</event>
<event>
 4    1  0.4940461E-001  0.8351351E+02  0.7546771E-02  0.1319366E+00
         -2   -1    0    0    0  501 -0.00000000000E+00  0.00000000000E+00  0.14055753546E+04  0.14055753546E+04  0.00000000000E+00 0.  1.
          2   -1    0    0  501    0  0.00000000000E+00 -0.00000000000E+00 -0.65810003250E+01  0.65810003250E+01  0.00000000000E+00 0. -1.
         24    1    1    2    0    0  0.42578096697E+01 -0.22117004031E+02  0.34928898018E+03  0.35913409535E+03  0.80419002446E+02 0. -1.
        -24    1    1    2    0    0 -0.42578096697E+01  0.22117004031E+02  0.10497053741E+04  0.10530222596E+04  0.80419002446E+02 0. -1.
<mgrwt>
<rscale>  0 0.83513512E+02</rscale>
<asrwt>0</asrwt>
<pdfrwt beam="1">  1        2 0.10124627E-02 0.83513512E+02</pdfrwt>
<pdfrwt beam="2">  1       -2 0.21624212E+00 0.83513512E+02</pdfrwt>
<totfact> 0.15011511E+03</totfact>
</mgrwt>
</event>
<event>
 4    1  0.4940461E-001  0.8244453E+02  0.7546771E-02  0.1322254E+00
          1   -1    0    0  501    0  0.00000000000E+00  0.00000000000E+00  0.63528913624E+03  0.63528913624E+03  0.00000000000E+00 0. -1.
         -1   -1    0    0    0  501 -0.00000000000E+00 -0.00000000000E+00 -0.15133404468E+02  0.15133404468E+02  0.00000000000E+00 0.  1.
         24    1    1    2    0    0  0.58122346971E+01 -0.17207629466E+02  0.13404086193E+03  0.15736598491E+03  0.80419002446E+02 0.  0.
        -24    1    1    2    0    0 -0.58122346971E+01  0.17207629466E+02  0.48611486984E+03  0.49305655580E+03  0.80419002446E+02 0. -1.
<mgrwt>
<rscale>  0 0.82444530E+02</rscale>
<asrwt>0</asrwt>
<pdfrwt beam="1">  1        1 0.97736770E-01 0.82444530E+02</pdfrwt>
<pdfrwt beam="2">  1       -1 0.23282166E-02 0.82444530E+02</pdfrwt>
<totfact> 0.16145582E+04</totfact>
</mgrwt>
</event>
<event>
 4    1  0.4940461E-001  0.8681617E+02  0.7546771E-02  0.1310750E+00
         -2   -1    0    0    0  501 -0.00000000000E+00  0.00000000000E+00  0.59719182981E+01  0.59719182981E+01  0.00000000000E+00 0.  1.
          2   -1    0    0  501    0  0.00000000000E+00 -0.00000000000E+00 -0.12622101667E+04  0.12622101667E+04  0.00000000000E+00 0. -1.
         24    1    1    2    0    0  0.93380307499E+01 -0.31346905167E+02 -0.62169890956E+03  0.62773129394E+03  0.80419002446E+02 0.  1.
        -24    1    1    2    0    0 -0.93380307499E+01  0.31346905167E+02 -0.63453933883E+03  0.64045079105E+03  0.80419002446E+02 0. -1.
<mgrwt>
<rscale>  0 0.86816157E+02</rscale>
<asrwt>0</asrwt>
<pdfrwt beam="1">  1        2 0.19418616E+00 0.86816168E+02</pdfrwt>
<pdfrwt beam="2">  1       -2 0.91875674E-03 0.86816168E+02</pdfrwt>
<totfact> 0.40425433E+04</totfact>
</mgrwt>
</event>
<event>
 4    1  0.4940461E-001  0.1503276E+03  0.7546771E-02  0.1200071E+00
          2   -1    0    0  501    0  0.00000000000E+00  0.00000000000E+00  0.28185118026E+03  0.28185118026E+03  0.00000000000E+00 0. -1.
         -2   -1    0    0    0  501 -0.00000000000E+00 -0.00000000000E+00 -0.81222684686E+02  0.81222684686E+02  0.00000000000E+00 0.  1.
         24    1    1    2    0    0 -0.10465237964E+03  0.71965571636E+02  0.79730080325E+02  0.17016246863E+03  0.80419002446E+02 0.  0.
        -24    1    1    2    0    0  0.10465237964E+03 -0.71965571636E+02  0.12089841525E+03  0.19291139632E+03  0.80419002446E+02 0.  0.
<mgrwt>
<rscale>  0 0.15032759E+03</rscale>
<asrwt>0</asrwt>
<pdfrwt beam="1">  1        2 0.43361719E-01 0.15032761E+03</pdfrwt>
<pdfrwt beam="2">  1       -2 0.12495798E-01 0.15032761E+03</pdfrwt>
<totfact> 0.52170443E+03</totfact>
</mgrwt>
</event>
<event>
 4    1  0.4940461E-001  0.1303283E+03  0.7546771E-02  0.1226969E+00
          4   -1    0    0  501    0  0.00000000000E+00  0.00000000000E+00  0.16770656350E+03  0.16770656350E+03  0.00000000000E+00 0. -1.
         -4   -1    0    0    0  501 -0.00000000000E+00 -0.00000000000E+00 -0.11189009334E+03  0.11189009334E+03  0.00000000000E+00 0.  1.
         24    1    1    2    0    0  0.79692690466E+02 -0.64554845747E+02 -0.15139238990E+02  0.13120467040E+03  0.80419002446E+02 0.  1.
        -24    1    1    2    0    0 -0.79692690466E+02  0.64554845747E+02  0.70955709158E+02  0.14839198644E+03  0.80419002446E+02 0. -1.
<mgrwt>
<rscale>  0 0.13032833E+03</rscale>
<asrwt>0</asrwt>
<pdfrwt beam="1">  1        4 0.25801010E-01 0.13032834E+03</pdfrwt>
<pdfrwt beam="2">  1       -4 0.17213861E-01 0.13032834E+03</pdfrwt>
<totfact> 0.68505493E+02</totfact>
</mgrwt>
</event>
<event>
 4    1  0.4940461E-001  0.8712259E+02  0.7546771E-02  0.1309973E+00
          1   -1    0    0  501    0  0.00000000000E+00  0.00000000000E+00  0.84307489686E+03  0.84307489686E+03  0.00000000000E+00 0. -1.
         -1   -1    0    0    0  501 -0.00000000000E+00 -0.00000000000E+00 -0.12539245858E+02  0.12539245858E+02  0.00000000000E+00 0.  1.
         24    1    1    2    0    0 -0.10050130335E+02 -0.31970692855E+02  0.18808627375E+03  0.20728432804E+03  0.80419002446E+02 0.  1.
        -24    1    1    2    0    0  0.10050130335E+02  0.31970692855E+02  0.64244937725E+03  0.64832981468E+03  0.80419002446E+02 0. -1.
<mgrwt>
<rscale>  0 0.87122593E+02</rscale>
<asrwt>0</asrwt>
<pdfrwt beam="1">  1        1 0.12970379E+00 0.87122593E+02</pdfrwt>
<pdfrwt beam="2">  1       -1 0.19291154E-02 0.87122593E+02</pdfrwt>
<totfact> 0.14158887E+04</totfact>
</mgrwt>
</event>
<event>
 4    1  0.4940461E-001  0.9980474E+02  0.7546771E-02  0.1280707E+00
          1   -1    0    0  501    0  0.00000000000E+00  0.00000000000E+00  0.13559775666E+02  0.13559775666E+02  0.00000000000E+00 0. -1.
         -1   -1    0    0    0  501 -0.00000000000E+00 -0.00000000000E+00 -0.74874388716E+03  0.74874388716E+03  0.00000000000E+00 0.  1.
         24    1    1    2    0    0 -0.56810218224E+02  0.16320810717E+02 -0.41998159980E+03  0.43167757630E+03  0.80419002446E+02 0.  0.
        -24    1    1    2    0    0  0.56810218224E+02 -0.16320810717E+02 -0.31520251170E+03  0.33062608653E+03  0.80419002446E+02 0.  1.
<mgrwt>
<rscale>  0 0.99804738E+02</rscale>
<asrwt>0</asrwt>
<pdfrwt beam="1">  1        1 0.20861199E-02 0.99804738E+02</pdfrwt>
<pdfrwt beam="2">  1       -1 0.11519134E+00 0.99804738E+02</pdfrwt>
<totfact> 0.38918162E+03</totfact>
</mgrwt>
</event>
<event>
 4    1  0.4940461E-001  0.1098283E+03  0.7546771E-02  0.1260888E+00
         -1   -1    0    0    0  501 -0.00000000000E+00  0.00000000000E+00  0.50870490734E+03  0.50870490734E+03  0.00000000000E+00 0.  1.
          1   -1    0    0  501    0  0.00000000000E+00 -0.00000000000E+00 -0.44303501854E+02  0.44303501854E+02  0.00000000000E+00 0. -1.
         24    1    1    2    0    0  0.55344883340E+02 -0.50318848795E+02  0.42070874271E+03  0.43480812413E+03  0.80419002446E+02 0.  1.
        -24    1    1    2    0    0 -0.55344883340E+02  0.50318848795E+02  0.43692662774E+02  0.11820028507E+03  0.80419002446E+02 0. -1.
<mgrwt>
<rscale>  0 0.10982831E+03</rscale>
<asrwt>0</asrwt>
<pdfrwt beam="1">  1        1 0.68159237E-02 0.10982831E+03</pdfrwt>
<pdfrwt beam="2">  1       -1 0.78262289E-01 0.10982831E+03</pdfrwt>
<totfact> 0.17841785E+03</totfact>
</mgrwt>
</event>
<event>
 4    1  0.4940461E-001  0.1045613E+03  0.7546771E-02  0.1270986E+00
          1   -1    0    0  501    0  0.00000000000E+00  0.00000000000E+00  0.58442144302E+03  0.58442144302E+03  0.00000000000E+00 0. -1.
         -1   -1    0    0    0  501 -0.00000000000E+00 -0.00000000000E+00 -0.25186760828E+02  0.25186760828E+02  0.00000000000E+00 0.  1.
         24    1    1    2    0    0  0.30032255917E+02 -0.59698514830E+02  0.12502166979E+03  0.16298307562E+03  0.80419002446E+02 0.  1.
        -24    1    1    2    0    0 -0.30032255917E+02  0.59698514830E+02  0.43421301240E+03  0.44662512823E+03  0.80419002446E+02 0. -1.
<mgrwt>
<rscale>  0 0.10456130E+03</rscale>
<asrwt>0</asrwt>
<pdfrwt beam="1">  1        1 0.89910981E-01 0.10456130E+03</pdfrwt>
<pdfrwt beam="2">  1       -1 0.38748867E-02 0.10456130E+03</pdfrwt>
<totfact> 0.88416490E+03</totfact>
</mgrwt>
</event>
<event>
 4    1  0.4940461E-001  0.8802365E+02  0.7546771E-02  0.1307710E+00
          2   -1    0    0  501    0  0.00000000000E+00  0.00000000000E+00  0.12837223353E+04  0.12837223353E+04  0.00000000000E+00 0. -1.
         -2   -1    0    0    0  501 -0.00000000000E+00 -0.00000000000E+00 -0.65492305358E+01  0.65492305358E+01  0.00000000000E+00 0.  1.
         24    1    1    2    0    0  0.18720935243E+02 -0.30503667974E+02  0.81923700427E+03  0.82395232404E+03  0.80419002446E+02 0. -1.
        -24    1    1    2    0    0 -0.18720935243E+02  0.30503667974E+02  0.45793610052E+03  0.46631924181E+03  0.80419002446E+02 0.  1.
<mgrwt>
<rscale>  0 0.88023651E+02</rscale>
<asrwt>0</asrwt>
<pdfrwt beam="1">  1        2 0.19749554E+00 0.88023651E+02</pdfrwt>
<pdfrwt beam="2">  1       -2 0.10075750E-02 0.88023651E+02</pdfrwt>
<totfact> 0.34607864E+04</totfact>
</mgrwt>
</event>
<event>
 4    1  0.4940461E-001  0.9043852E+02  0.7546771E-02  0.1301793E+00
          2   -1    0    0  501    0  0.00000000000E+00  0.00000000000E+00  0.14461682116E+03  0.14461682116E+03  0.00000000000E+00 0. -1.
         -2   -1    0    0    0  501 -0.00000000000E+00 -0.00000000000E+00 -0.15331592734E+03  0.15331592734E+03  0.00000000000E+00 0.  1.
         24    1    1    2    0    0 -0.39193964459E+02 -0.13256843807E+02  0.11399264139E+03  0.14551099272E+03  0.80419002446E+02 0. -1.
        -24    1    1    2    0    0  0.39193964459E+02  0.13256843807E+02 -0.12269174757E+03  0.15242175578E+03  0.80419002446E+02 0.  1.
<mgrwt>
<rscale>  0 0.90438524E+02</rscale>
<asrwt>0</asrwt>
<pdfrwt beam="1">  1        2 0.22248742E-01 0.90438524E+02</pdfrwt>
<pdfrwt beam="2">  1       -2 0.23587066E-01 0.90438524E+02</pdfrwt>
<totfact> 0.36252701E+03</totfact>
</mgrwt>
</event>
<event>
 4    1  0.4940461E-001  0.1167992E+03  0.7546771E-02  0.1248473E+00
          2   -1    0    0  501    0  0.00000000000E+00  0.00000000000E+00  0.15859779445E+03  0.15859779445E+03  0.00000000000E+00 0. -1.
         -2   -1    0    0    0  501 -0.00000000000E+00 -0.00000000000E+00 -0.10523460597E+03  0.10523460597E+03  0.00000000000E+00 0.  1.
         24    1    1    2    0    0  0.67211979522E+02 -0.51549783047E+02  0.83054805557E+02  0.14331834148E+03  0.80419002446E+02 0. -1.
        -24    1    1    2    0    0 -0.67211979522E+02  0.51549783047E+02 -0.29691617079E+02  0.12051405894E+03  0.80419002446E+02 0.  1.
<mgrwt>
<rscale>  0 0.11679917E+03</rscale>
<asrwt>0</asrwt>
<pdfrwt beam="1">  1        2 0.24399661E-01 0.11679917E+03</pdfrwt>
<pdfrwt beam="2">  1       -2 0.16189939E-01 0.11679917E+03</pdfrwt>
<totfact> 0.62639380E+03</totfact>
</mgrwt>
</event>
<event>
 4    1  0.4940461E-001  0.9393919E+02  0.7546771E-02  0.1293583E+00
         -1   -1    0    0    0  501 -0.00000000000E+00  0.00000000000E+00  0.15944154350E+03  0.15944154350E+03  0.00000000000E+00 0.  1.
          1   -1    0    0  501    0  0.00000000000E+00 -0.00000000000E+00 -0.97082987704E+03  0.97082987704E+03  0.00000000000E+00 0. -1.
         24    1    1    2    0    0  0.68469459202E+01  0.48067403825E+02  0.14309604326E+03  0.17117549337E+03  0.80419002446E+02 0.  1.
        -24    1    1    2    0    0 -0.68469459202E+01 -0.48067403825E+02 -0.95448437680E+03  0.95909592716E+03  0.80419002446E+02 0. -1.
<mgrwt>
<rscale>  0 0.93939193E+02</rscale>
<asrwt>0</asrwt>
<pdfrwt beam="1">  1        1 0.14935844E+00 0.93939193E+02</pdfrwt>
<pdfrwt beam="2">  1       -1 0.24529468E-01 0.93939193E+02</pdfrwt>
<totfact> 0.25389429E+02</totfact>
</mgrwt>
</event>
<event>
 4    1  0.4940461E-001  0.8767128E+02  0.7546771E-02  0.1308591E+00
          1   -1    0    0  501    0  0.00000000000E+00  0.00000000000E+00  0.67024157925E+03  0.67024157925E+03  0.00000000000E+00 0. -1.
         -1   -1    0    0    0  501 -0.00000000000E+00 -0.00000000000E+00 -0.15184677937E+02  0.15184677937E+02  0.00000000000E+00 0.  1.
         24    1    1    2    0    0  0.12079727445E+01  0.34893813055E+02  0.15797285236E+03  0.18067007341E+03  0.80419002446E+02 0.  1.
        -24    1    1    2    0    0 -0.12079727445E+01 -0.34893813055E+02  0.49708404896E+03  0.50475618378E+03  0.80419002446E+02 0. -1.
<mgrwt>
<rscale>  0 0.87671280E+02</rscale>
<asrwt>0</asrwt>
<pdfrwt beam="1">  1        1 0.10311407E+00 0.87671280E+02</pdfrwt>
<pdfrwt beam="2">  1       -1 0.23361048E-02 0.87671280E+02</pdfrwt>
<totfact> 0.15015910E+04</totfact>
</mgrwt>
</event>
<event>
 4    1  0.4940461E-001  0.8935029E+02  0.7546771E-02  0.1304433E+00
          2   -1    0    0  501    0  0.00000000000E+00  0.00000000000E+00  0.19127083309E+04  0.19127083309E+04  0.00000000000E+00 0. -1.
         -2   -1    0    0    0  501 -0.00000000000E+00 -0.00000000000E+00 -0.43446797617E+01  0.43446797617E+01  0.00000000000E+00 0.  1.
         24    1    1    2    0    0 -0.15087747570E+02 -0.35897323409E+02  0.11442151403E+04  0.11476984627E+04  0.80419002446E+02 0. -1.
        -24    1    1    2    0    0  0.15087747570E+02  0.35897323409E+02  0.76414851088E+03  0.76935454804E+03  0.80419002446E+02 0.  1.
<mgrwt>
<rscale>  0 0.89350288E+02</rscale>
<asrwt>0</asrwt>
<pdfrwt beam="1">  1        2 0.29426215E+00 0.89350288E+02</pdfrwt>
<pdfrwt beam="2">  1       -2 0.66841380E-03 0.89350288E+02</pdfrwt>
<totfact> 0.29584178E+04</totfact>
</mgrwt>
</event>
<event>
 4    1  0.4940461E-001  0.9633486E+02  0.7546771E-02  0.1288198E+00
         -2   -1    0    0    0  501 -0.00000000000E+00  0.00000000000E+00  0.62214763919E+02  0.62214763919E+02  0.00000000000E+00 0.  1.
          2   -1    0    0  501    0  0.00000000000E+00 -0.00000000000E+00 -0.34310856353E+03  0.34310856353E+03  0.00000000000E+00 0. -1.
         24    1    1    2    0    0  0.14658635696E+02 -0.50973665519E+02 -0.29281392033E+03  0.30825378841E+03  0.80419002446E+02 0. -1.
        -24    1    1    2    0    0 -0.14658635696E+02  0.50973665519E+02  0.11920120718E+02  0.97069539039E+02  0.80419002446E+02 0.  1.
<mgrwt>
<rscale>  0 0.96334865E+02</rscale>
<asrwt>0</asrwt>
<pdfrwt beam="1">  1        2 0.52785934E-01 0.96334865E+02</pdfrwt>
<pdfrwt beam="2">  1       -2 0.95715019E-02 0.96334865E+02</pdfrwt>
<totfact> 0.62777808E+03</totfact>
</mgrwt>
</event>
<event>
 4    1  0.4940461E-001  0.8217615E+02  0.7546771E-02  0.1322987E+00
         -1   -1    0    0    0  501 -0.00000000000E+00  0.00000000000E+00  0.96630681708E+01  0.96630681708E+01  0.00000000000E+00 0.  1.
          1   -1    0    0  501    0  0.00000000000E+00 -0.00000000000E+00 -0.20532878213E+04  0.20532878213E+04  0.00000000000E+00 0. -1.
         24    1    1    2    0    0 -0.12775579837E+02 -0.11067417281E+02 -0.18406044076E+03  0.20157173654E+03  0.80419002446E+02 0.  1.
        -24    1    1    2    0    0  0.12775579837E+02  0.11067417281E+02 -0.18595643124E+04  0.18613791529E+04  0.80419002446E+02 0.  0.
<mgrwt>
<rscale>  0 0.82176147E+02</rscale>
<asrwt>0</asrwt>
<pdfrwt beam="1">  1        1 0.31589067E+00 0.82176147E+02</pdfrwt>
<pdfrwt beam="2">  1       -1 0.14866247E-02 0.82176147E+02</pdfrwt>
<totfact> 0.32543198E+03</totfact>
</mgrwt>
</event>
<event>
 4    1  0.4940461E-001  0.8329279E+02  0.7546771E-02  0.1319958E+00
         -2   -1    0    0    0  501 -0.00000000000E+00  0.00000000000E+00  0.16094220068E+03  0.16094220068E+03  0.00000000000E+00 0.  1.
          2   -1    0    0  501    0  0.00000000000E+00 -0.00000000000E+00 -0.43113681593E+02  0.43113681593E+02  0.00000000000E+00 0. -1.
         24    1    1    2    0    0 -0.17819534266E+02  0.12366661601E+02  0.60213228543E+02  0.10277800819E+03  0.80419002446E+02 0.  1.
        -24    1    1    2    0    0  0.17819534266E+02 -0.12366661601E+02  0.57615290540E+02  0.10127787408E+03  0.80419002446E+02 0. -1.
<mgrwt>
<rscale>  0 0.83292784E+02</rscale>
<asrwt>0</asrwt>
<pdfrwt beam="1">  1        2 0.66328742E-02 0.83292794E+02</pdfrwt>
<pdfrwt beam="2">  1       -2 0.24760338E-01 0.83292794E+02</pdfrwt>
<totfact> 0.13850734E+04</totfact>
</mgrwt>
</event>
<event>
 4    1  0.4940461E-001  0.8706579E+02  0.7546771E-02  0.1310117E+00
          2   -1    0    0  501    0  0.00000000000E+00  0.00000000000E+00  0.72187210146E+02  0.72187210146E+02  0.00000000000E+00 0. -1.
         -2   -1    0    0    0  501 -0.00000000000E+00 -0.00000000000E+00 -0.38384067213E+03  0.38384067213E+03  0.00000000000E+00 0.  1.
         24    1    1    2    0    0 -0.12990532739E+02 -0.30732426524E+02  0.38510222833E+02  0.95202359204E+02  0.80419002446E+02 0. -1.
        -24    1    1    2    0    0  0.12990532739E+02  0.30732426524E+02 -0.35016368482E+03  0.36082552307E+03  0.80419002446E+02 0.  1.
<mgrwt>
<rscale>  0 0.87065791E+02</rscale>
<asrwt>0</asrwt>
<pdfrwt beam="1">  1        2 0.11105725E-01 0.87065791E+02</pdfrwt>
<pdfrwt beam="2">  1       -2 0.59052411E-01 0.87065791E+02</pdfrwt>
<totfact> 0.14601683E+03</totfact>
</mgrwt>
</event>
<event>
 4    1  0.4940461E-001  0.9094343E+02  0.7546771E-02  0.1300583E+00
         -1   -1    0    0    0  501 -0.00000000000E+00  0.00000000000E+00  0.43752898912E+02  0.43752898912E+02  0.00000000000E+00 0.  1.
          1   -1    0    0  501    0  0.00000000000E+00 -0.00000000000E+00 -0.22467243317E+03  0.22467243317E+03  0.00000000000E+00 0. -1.
         24    1    1    2    0    0 -0.22840483903E+02  0.35802279682E+02 -0.37004702837E+02  0.98183781358E+02  0.80419002446E+02 0.  1.
        -24    1    1    2    0    0  0.22840483903E+02 -0.35802279682E+02 -0.14391483142E+03  0.17024155073E+03  0.80419002446E+02 0. -1.
<mgrwt>
<rscale>  0 0.90943427E+02</rscale>
<asrwt>0</asrwt>
<pdfrwt beam="1">  1        1 0.34564990E-01 0.90943427E+02</pdfrwt>
<pdfrwt beam="2">  1       -1 0.67312151E-02 0.90943427E+02</pdfrwt>
<totfact> 0.12837397E+04</totfact>
</mgrwt>
</event>
<event>
 4    1  0.4940461E-001  0.8454836E+02  0.7546771E-02  0.1316618E+00
         -1   -1    0    0    0  501 -0.00000000000E+00  0.00000000000E+00  0.15558472261E+02  0.15558472261E+02  0.00000000000E+00 0.  1.
          1   -1    0    0  501    0  0.00000000000E+00 -0.00000000000E+00 -0.47786848801E+03  0.47786848801E+03  0.00000000000E+00 0. -1.
         24    1    1    2    0    0  0.14294228349E+02 -0.21837681414E+02 -0.18272649596E+03  0.20133901156E+03  0.80419002446E+02 0.  1.
        -24    1    1    2    0    0 -0.14294228349E+02  0.21837681414E+02 -0.27958351979E+03  0.29208794872E+03  0.80419002446E+02 0. -1.
<mgrwt>
<rscale>  0 0.84548360E+02</rscale>
<asrwt>0</asrwt>
<pdfrwt beam="1">  1        1 0.73518223E-01 0.84548360E+02</pdfrwt>
<pdfrwt beam="2">  1       -1 0.23936113E-02 0.84548360E+02</pdfrwt>
<totfact> 0.22587175E+04</totfact>
</mgrwt>
</event>
<event>
 4    1  0.4940461E-001  0.1072337E+03  0.7546771E-02  0.1265780E+00
         -1   -1    0    0    0  501 -0.00000000000E+00  0.00000000000E+00  0.22043446192E+03  0.22043446192E+03  0.00000000000E+00 0.  1.
          1   -1    0    0  501    0  0.00000000000E+00 -0.00000000000E+00 -0.94854432380E+02  0.94854432380E+02  0.00000000000E+00 0. -1.
         24    1    1    2    0    0  0.68764945727E+02 -0.17413413891E+02  0.16854669632E+03  0.19976748870E+03  0.80419002446E+02 0.  0.
        -24    1    1    2    0    0 -0.68764945727E+02  0.17413413891E+02 -0.42966666783E+02  0.11552140560E+03  0.80419002446E+02 0.  0.
<mgrwt>
<rscale>  0 0.10723367E+03</rscale>
<asrwt>0</asrwt>
<pdfrwt beam="1">  1        1 0.14592990E-01 0.10723367E+03</pdfrwt>
<pdfrwt beam="2">  1       -1 0.33912994E-01 0.10723367E+03</pdfrwt>
<totfact> 0.30412129E+03</totfact>
</mgrwt>
</event>
<event>
 4    1  0.4940461E-001  0.8408478E+02  0.7546771E-02  0.1317843E+00
         -2   -1    0    0    0  501 -0.00000000000E+00  0.00000000000E+00  0.56839145031E+02  0.56839145031E+02  0.00000000000E+00 0.  1.
          2   -1    0    0  501    0  0.00000000000E+00 -0.00000000000E+00 -0.15321932287E+04  0.15321932287E+04  0.00000000000E+00 0. -1.
         24    1    1    2    0    0  0.19665063782E+02 -0.14707818601E+02 -0.14992594067E+04  0.15016154698E+04  0.80419002446E+02 0. -1.
        -24    1    1    2    0    0 -0.19665063782E+02  0.14707818601E+02  0.23905323052E+02  0.87416903892E+02  0.80419002446E+02 0.  1.
<mgrwt>
<rscale>  0 0.84084782E+02</rscale>
<asrwt>0</asrwt>
<pdfrwt beam="1">  1        2 0.23572200E+00 0.84084782E+02</pdfrwt>
<pdfrwt beam="2">  1       -2 0.87444850E-02 0.84084782E+02</pdfrwt>
<totfact> 0.10983363E+03</totfact>
</mgrwt>
</event>
<event>
 4    1  0.4940461E-001  0.8112554E+02  0.7546771E-02  0.1325887E+00
         -2   -1    0    0    0  501 -0.00000000000E+00  0.00000000000E+00  0.38704913271E+02  0.38704913271E+02  0.00000000000E+00 0.  1.
          2   -1    0    0  501    0  0.00000000000E+00 -0.00000000000E+00 -0.67044801818E+03  0.67044801818E+03  0.00000000000E+00 0. -1.
         24    1    1    2    0    0  0.22255449766E+01  0.10449105743E+02 -0.62220175959E+03  0.62746823223E+03  0.80419002446E+02 0. -1.
        -24    1    1    2    0    0 -0.22255449766E+01 -0.10449105743E+02 -0.95413453098E+01  0.81684699216E+02  0.80419002446E+02 0.  1.
<mgrwt>
<rscale>  0 0.81125537E+02</rscale>
<asrwt>0</asrwt>
<pdfrwt beam="1">  1        2 0.10314584E+00 0.81125537E+02</pdfrwt>
<pdfrwt beam="2">  1       -2 0.59546024E-02 0.81125537E+02</pdfrwt>
<totfact> 0.61944267E+03</totfact>
</mgrwt>
</event>
<event>
 4    1  0.4940461E-001  0.8521336E+02  0.7546771E-02  0.1314876E+00
          1   -1    0    0  501    0  0.00000000000E+00  0.00000000000E+00  0.12817604667E+03  0.12817604667E+03  0.00000000000E+00 0. -1.
         -1   -1    0    0    0  501 -0.00000000000E+00 -0.00000000000E+00 -0.58310883168E+02  0.58310883168E+02  0.00000000000E+00 0.  1.
         24    1    1    2    0    0  0.23104239749E+02 -0.16133556551E+02  0.50664070532E+02  0.99137084578E+02  0.80419002446E+02 0. -1.
        -24    1    1    2    0    0 -0.23104239749E+02  0.16133556551E+02  0.19201092971E+02  0.87349845261E+02  0.80419002446E+02 0.  1.
<mgrwt>
<rscale>  0 0.85213352E+02</rscale>
<asrwt>0</asrwt>
<pdfrwt beam="1">  1        1 0.19719392E-01 0.85213362E+02</pdfrwt>
<pdfrwt beam="2">  1       -1 0.89709052E-02 0.85213362E+02</pdfrwt>
<totfact> 0.16636978E+04</totfact>
</mgrwt>
</event>
<event>
 4    1  0.4940461E-001  0.8345494E+02  0.7546771E-02  0.1319523E+00
          2   -1    0    0  501    0  0.00000000000E+00  0.00000000000E+00  0.41495442363E+03  0.41495442363E+03  0.00000000000E+00 0. -1.
         -2   -1    0    0    0  501 -0.00000000000E+00 -0.00000000000E+00 -0.31179867069E+02  0.31179867069E+02  0.00000000000E+00 0.  1.
         24    1    1    2    0    0  0.22190582869E+02  0.22558668815E+01  0.34345705199E+03  0.35345080763E+03  0.80419002446E+02 0.  0.
        -24    1    1    2    0    0 -0.22190582869E+02 -0.22558668815E+01  0.40317504572E+02  0.92683483063E+02  0.80419002446E+02 0.  0.
<mgrwt>
<rscale>  0 0.83454939E+02</rscale>
<asrwt>0</asrwt>
<pdfrwt beam="1">  1        2 0.63839138E-01 0.83454939E+02</pdfrwt>
<pdfrwt beam="2">  1       -2 0.47969029E-02 0.83454939E+02</pdfrwt>
<totfact> 0.14444447E+04</totfact>
</mgrwt>
</event>
<event>
 4    1  0.4940461E-001  0.8379850E+02  0.7546771E-02  0.1318605E+00
          1   -1    0    0  501    0  0.00000000000E+00  0.00000000000E+00  0.92661222960E+02  0.92661222960E+02  0.00000000000E+00 0. -1.
         -1   -1    0    0    0  501 -0.00000000000E+00 -0.00000000000E+00 -0.14087516914E+03  0.14087516914E+03  0.00000000000E+00 0.  1.
         24    1    1    2    0    0  0.23125690634E+02  0.44917573204E+01 -0.10347948700E+03  0.13315477323E+03  0.80419002446E+02 0.  1.
        -24    1    1    2    0    0 -0.23125690634E+02 -0.44917573204E+01  0.55265540814E+02  0.10038161887E+03  0.80419002446E+02 0. -1.
<mgrwt>
<rscale>  0 0.83798505E+02</rscale>
<asrwt>0</asrwt>
<pdfrwt beam="1">  1        1 0.14255573E-01 0.83798505E+02</pdfrwt>
<pdfrwt beam="2">  1       -1 0.21673103E-01 0.83798505E+02</pdfrwt>
<totfact> 0.64302903E+03</totfact>
</mgrwt>
</event>
<event>
 4    1  0.4940461E-001  0.1280669E+03  0.7546771E-02  0.1230353E+00
          2   -1    0    0  501    0  0.00000000000E+00  0.00000000000E+00  0.30706652445E+03  0.30706652445E+03  0.00000000000E+00 0. -1.
         -2   -1    0    0    0  501 -0.00000000000E+00 -0.00000000000E+00 -0.13224476452E+03  0.13224476452E+03  0.00000000000E+00 0.  1.
         24    1    1    2    0    0  0.93056047341E+02 -0.35700051705E+02  0.25700297367E+03  0.28714398142E+03  0.80419002446E+02 0. -1.
        -24    1    1    2    0    0 -0.93056047341E+02  0.35700051705E+02 -0.82181213741E+02  0.15216730754E+03  0.80419002446E+02 0.  1.
<mgrwt>
<rscale>  0 0.12806693E+03</rscale>
<asrwt>0</asrwt>
<pdfrwt beam="1">  1        2 0.47241004E-01 0.12806693E+03</pdfrwt>
<pdfrwt beam="2">  1       -2 0.20345348E-01 0.12806693E+03</pdfrwt>
<totfact> 0.21179183E+03</totfact>
</mgrwt>
</event>
<event>
 4    1  0.4940461E-001  0.8639375E+02  0.7546771E-02  0.1311827E+00
          2   -1    0    0  501    0  0.00000000000E+00  0.00000000000E+00  0.41775151187E+02  0.41775151187E+02  0.00000000000E+00 0. -1.
         -2   -1    0    0    0  501 -0.00000000000E+00 -0.00000000000E+00 -0.31826620597E+03  0.31826620597E+03  0.00000000000E+00 0.  1.
         24    1    1    2    0    0  0.20335288613E+02  0.24148289244E+02 -0.19020574847E+02  0.88462772160E+02  0.80419002446E+02 0.  0.
        -24    1    1    2    0    0 -0.20335288613E+02 -0.24148289244E+02 -0.25747047994E+03  0.27157858500E+03  0.80419002446E+02 0. -1.
<mgrwt>
<rscale>  0 0.86393749E+02</rscale>
<asrwt>0</asrwt>
<pdfrwt beam="1">  1        2 0.64269464E-02 0.86393749E+02</pdfrwt>
<pdfrwt beam="2">  1       -2 0.48964031E-01 0.86393749E+02</pdfrwt>
<totfact> 0.41537935E+03</totfact>
</mgrwt>
</event>
<event>
 4    1  0.4940461E-001  0.1279858E+03  0.7546771E-02  0.1230475E+00
          1   -1    0    0  501    0  0.00000000000E+00  0.00000000000E+00  0.14000776763E+04  0.14000776763E+04  0.00000000000E+00 0. -1.
         -1   -1    0    0    0  501 -0.00000000000E+00 -0.00000000000E+00 -0.15495193745E+02  0.15495193745E+02  0.00000000000E+00 0.  1.
         24    1    1    2    0    0  0.89527643208E+02  0.43565376838E+02  0.34198872377E+03  0.36515290509E+03  0.80419002446E+02 0. -1.
        -24    1    1    2    0    0 -0.89527643208E+02 -0.43565376838E+02  0.10425937588E+04  0.10504199650E+04  0.80419002446E+02 0.  1.
<mgrwt>
<rscale>  0 0.12798577E+03</rscale>
<asrwt>0</asrwt>
<pdfrwt beam="1">  1        1 0.21539647E+00 0.12798577E+03</pdfrwt>
<pdfrwt beam="2">  1       -1 0.23838771E-02 0.12798577E+03</pdfrwt>
<totfact> 0.43449959E+03</totfact>
</mgrwt>
</event>
<event>
 4    1  0.4940461E-001  0.1336251E+03  0.7546771E-02  0.1222174E+00
         -2   -1    0    0    0  501 -0.00000000000E+00  0.00000000000E+00  0.40774832214E+02  0.40774832214E+02  0.00000000000E+00 0.  1.
          2   -1    0    0  501    0  0.00000000000E+00 -0.00000000000E+00 -0.46508370579E+03  0.46508370579E+03  0.00000000000E+00 0. -1.
         24    1    1    2    0    0 -0.10668978977E+03 -0.23956909562E+01 -0.27329308722E+03  0.30421173228E+03  0.80419002446E+02 0.  1.
        -24    1    1    2    0    0  0.10668978977E+03  0.23956909562E+01 -0.15101578635E+03  0.20164680573E+03  0.80419002446E+02 0.  0.
<mgrwt>
<rscale>  0 0.13362510E+03</rscale>
<asrwt>0</asrwt>
<pdfrwt beam="1">  1        2 0.71551341E-01 0.13362510E+03</pdfrwt>
<pdfrwt beam="2">  1       -2 0.62730510E-02 0.13362510E+03</pdfrwt>
<totfact> 0.88857077E+03</totfact>
</mgrwt>
</event>
<event>
 4    1  0.4940461E-001  0.8709995E+02  0.7546771E-02  0.1310031E+00
         -1   -1    0    0    0  501 -0.00000000000E+00  0.00000000000E+00  0.10976017086E+04  0.10976017086E+04  0.00000000000E+00 0.  1.
          1   -1    0    0  501    0  0.00000000000E+00 -0.00000000000E+00 -0.11123743626E+02  0.11123743626E+02  0.00000000000E+00 0. -1.
         24    1    1    2    0    0 -0.31043219499E+02  0.12470086186E+02  0.88436115781E+03  0.88864000468E+03  0.80419002446E+02 0.  1.
        -24    1    1    2    0    0  0.31043219499E+02 -0.12470086186E+02  0.20211680713E+03  0.22008544751E+03  0.80419002446E+02 0. -1.
<mgrwt>
<rscale>  0 0.87099945E+02</rscale>
<asrwt>0</asrwt>
<pdfrwt beam="1">  1        1 0.17113460E-02 0.87099945E+02</pdfrwt>
<pdfrwt beam="2">  1       -1 0.16886172E+00 0.87099945E+02</pdfrwt>
<totfact> 0.19552737E+03</totfact>
</mgrwt>
</event>
<event>
 4    1  0.4940461E-001  0.8247501E+02  0.7546771E-02  0.1322171E+00
         -1   -1    0    0    0  501 -0.00000000000E+00  0.00000000000E+00  0.89760680370E+02  0.89760680370E+02  0.00000000000E+00 0.  1.
          1   -1    0    0  501    0  0.00000000000E+00 -0.00000000000E+00 -0.67395457976E+03  0.67395457976E+03  0.00000000000E+00 0. -1.
         24    1    1    2    0    0 -0.16043267437E+02 -0.88048183572E+01  0.67652286736E+02  0.10667220402E+03  0.80419002446E+02 0.  1.
        -24    1    1    2    0    0  0.16043267437E+02  0.88048183572E+01 -0.65184618612E+03  0.65704305610E+03  0.80419002446E+02 0.  0.
<mgrwt>
<rscale>  0 0.82475010E+02</rscale>
<asrwt>0</asrwt>
<pdfrwt beam="1">  1        1 0.10368532E+00 0.82475010E+02</pdfrwt>
<pdfrwt beam="2">  1       -1 0.13809336E-01 0.82475010E+02</pdfrwt>
<totfact> 0.10849532E+03</totfact>
</mgrwt>
</event>
<event>
 4    1  0.4940461E-001  0.1176392E+03  0.7546771E-02  0.1247043E+00
          1   -1    0    0  501    0  0.00000000000E+00  0.00000000000E+00  0.88584197542E+03  0.88584197542E+03  0.00000000000E+00 0. -1.
         -1   -1    0    0    0  501 -0.00000000000E+00 -0.00000000000E+00 -0.15871495274E+02  0.15871495274E+02  0.00000000000E+00 0.  1.
         24    1    1    2    0    0  0.27888078650E+02  0.81203474157E+02  0.49146915102E+03  0.50535224498E+03  0.80419002446E+02 0. -1.
        -24    1    1    2    0    0 -0.27888078650E+02 -0.81203474157E+02  0.37850132912E+03  0.39636122571E+03  0.80419002446E+02 0.  1.
<mgrwt>
<rscale>  0 0.11763915E+03</rscale>
<asrwt>0</asrwt>
<pdfrwt beam="1">  1        1 0.13628334E+00 0.11763916E+03</pdfrwt>
<pdfrwt beam="2">  1       -1 0.24417692E-02 0.11763916E+03</pdfrwt>
<totfact> 0.95645289E+03</totfact>
</mgrwt>
</event>
<event>
 4    1  0.4940461E-001  0.9683898E+02  0.7546771E-02  0.1287087E+00
         -1   -1    0    0    0  501 -0.00000000000E+00  0.00000000000E+00  0.47401334733E+02  0.47401334733E+02  0.00000000000E+00 0.  1.
          1   -1    0    0  501    0  0.00000000000E+00 -0.00000000000E+00 -0.20273578645E+03  0.20273578645E+03  0.00000000000E+00 0. -1.
         24    1    1    2    0    0 -0.53855044471E+02  0.31947063422E+01 -0.58227936655E+02  0.11299681644E+03  0.80419002446E+02 0.  1.
        -24    1    1    2    0    0  0.53855044471E+02 -0.31947063422E+01 -0.97106515060E+02  0.13714030474E+03  0.80419002446E+02 0. -1.
<mgrwt>
<rscale>  0 0.96838979E+02</rscale>
<asrwt>0</asrwt>
<pdfrwt beam="1">  1        1 0.31190121E-01 0.96838979E+02</pdfrwt>
<pdfrwt beam="2">  1       -1 0.72925130E-02 0.96838979E+02</pdfrwt>
<totfact> 0.13004718E+04</totfact>
</mgrwt>
</event>
<event>
 4    1  0.4940461E-001  0.1154110E+03  0.7546771E-02  0.1250865E+00
          2   -1    0    0  501    0  0.00000000000E+00  0.00000000000E+00  0.31449591017E+04  0.31449591017E+04  0.00000000000E+00 0. -1.
         -2   -1    0    0    0  501 -0.00000000000E+00 -0.00000000000E+00 -0.47538719485E+01  0.47538719485E+01  0.00000000000E+00 0.  1.
         24    1    1    2    0    0  0.72990420681E+02  0.39049720031E+02  0.20902678826E+04  0.20934515803E+04  0.80419002446E+02 0.  1.
        -24    1    1    2    0    0 -0.72990420681E+02 -0.39049720031E+02  0.10499373471E+04  0.10562613933E+04  0.80419002446E+02 0. -1.
<mgrwt>
<rscale>  0 0.11541100E+03</rscale>
<asrwt>0</asrwt>
<pdfrwt beam="1">  1        2 0.48383820E+00 0.11541100E+03</pdfrwt>
<pdfrwt beam="2">  1       -2 0.73136743E-03 0.11541100E+03</pdfrwt>
<totfact> 0.57611954E+03</totfact>
</mgrwt>
</event>
<event>
 4    1  0.4940461E-001  0.1206783E+03  0.7546771E-02  0.1241982E+00
         -1   -1    0    0    0  501 -0.00000000000E+00  0.00000000000E+00  0.33442527667E+02  0.33442527667E+02  0.00000000000E+00 0.  1.
          1   -1    0    0  501    0  0.00000000000E+00 -0.00000000000E+00 -0.12401500055E+04  0.12401500055E+04  0.00000000000E+00 0. -1.
         24    1    1    2    0    0 -0.78383285980E+01 -0.89635897058E+02 -0.90404078381E+02  0.15078510132E+03  0.80419002446E+02 0.  1.
        -24    1    1    2    0    0  0.78383285980E+01  0.89635897058E+02 -0.11163033995E+04  0.11228074319E+04  0.80419002446E+02 0. -1.
<mgrwt>
<rscale>  0 0.12067829E+03</rscale>
<asrwt>0</asrwt>
<pdfrwt beam="1">  1        1 0.19079230E+00 0.12067829E+03</pdfrwt>
<pdfrwt beam="2">  1       -1 0.51450045E-02 0.12067829E+03</pdfrwt>
<totfact> 0.18029471E+03</totfact>
</mgrwt>
</event>
<event>
 4    1  0.4940461E-001  0.1000217E+03  0.7546771E-02  0.1280250E+00
          4   -1    0    0  501    0  0.00000000000E+00  0.00000000000E+00  0.90857036791E+02  0.90857036791E+02  0.00000000000E+00 0. -1.
         -4   -1    0    0    0  501 -0.00000000000E+00 -0.00000000000E+00 -0.11027197239E+03  0.11027197239E+03  0.00000000000E+00 0.  1.
         24    1    1    2    0    0  0.23359363854E+02  0.54694316153E+02 -0.58632119110E+01  0.10019341948E+03  0.80419002446E+02 0.  1.
        -24    1    1    2    0    0 -0.23359363854E+02 -0.54694316153E+02 -0.13551723691E+02  0.10093558970E+03  0.80419002446E+02 0. -1.
<mgrwt>
<rscale>  0 0.10002172E+03</rscale>
<asrwt>0</asrwt>
<pdfrwt beam="1">  1        4 0.13978006E-01 0.10002172E+03</pdfrwt>
<pdfrwt beam="2">  1       -4 0.16964919E-01 0.10002172E+03</pdfrwt>
<totfact> 0.19742376E+03</totfact>
</mgrwt>
</event>
<event>
 4    1  0.4940461E-001  0.9978806E+02  0.7546771E-02  0.1280742E+00
         -1   -1    0    0    0  501 -0.00000000000E+00  0.00000000000E+00  0.35535520836E+03  0.35535520836E+03  0.00000000000E+00 0.  1.
          1   -1    0    0  501    0  0.00000000000E+00 -0.00000000000E+00 -0.28624416768E+02  0.28624416768E+02  0.00000000000E+00 0. -1.
         24    1    1    2    0    0 -0.19307902161E+02  0.55835846506E+02  0.13550605704E+03  0.16828411776E+03  0.80419002446E+02 0. -1.
        -24    1    1    2    0    0  0.19307902161E+02 -0.55835846506E+02  0.19122473455E+03  0.21569550737E+03  0.80419002446E+02 0.  1.
<mgrwt>
<rscale>  0 0.99788052E+02</rscale>
<asrwt>0</asrwt>
<pdfrwt beam="1">  1        1 0.44037567E-02 0.99788064E+02</pdfrwt>
<pdfrwt beam="2">  1       -1 0.54670029E-01 0.99788064E+02</pdfrwt>
<totfact> 0.63919865E+03</totfact>
</mgrwt>
</event>
<event>
 4    1  0.4940461E-001  0.1060307E+03  0.7546771E-02  0.1268102E+00
          2   -1    0    0  501    0  0.00000000000E+00  0.00000000000E+00  0.87715505303E+03  0.87715505303E+03  0.00000000000E+00 0. -1.
         -2   -1    0    0    0  501 -0.00000000000E+00 -0.00000000000E+00 -0.41798349783E+02  0.41798349783E+02  0.00000000000E+00 0.  1.
         24    1    1    2    0    0  0.37118811327E+02  0.58288056324E+02  0.80027664794E+03  0.80727023533E+03  0.80419002446E+02 0. -1.
        -24    1    1    2    0    0 -0.37118811327E+02 -0.58288056324E+02  0.35080055315E+02  0.11168316749E+03  0.80419002446E+02 0.  1.
<mgrwt>
<rscale>  0 0.10603075E+03</rscale>
<asrwt>0</asrwt>
<pdfrwt beam="1">  1        2 0.13494692E+00 0.10603075E+03</pdfrwt>
<pdfrwt beam="2">  1       -2 0.64305160E-02 0.10603075E+03</pdfrwt>
<totfact> 0.40468386E+03</totfact>
</mgrwt>
</event>
<event>
 4    1  0.4940461E-001  0.8732849E+02  0.7546771E-02  0.1309453E+00
          2   -1    0    0  501    0  0.00000000000E+00  0.00000000000E+00  0.16406125285E+02  0.16406125285E+02  0.00000000000E+00 0. -1.
         -2   -1    0    0    0  501 -0.00000000000E+00 -0.00000000000E+00 -0.46696451205E+03  0.46696451205E+03  0.00000000000E+00 0.  1.
         24    1    1    2    0    0 -0.16236915045E+02 -0.29923372421E+02 -0.24157212229E+03  0.25687224811E+03  0.80419002446E+02 0.  0.
        -24    1    1    2    0    0  0.16236915045E+02  0.29923372421E+02 -0.20898626448E+03  0.22649838922E+03  0.80419002446E+02 0. -1.
<mgrwt>
<rscale>  0 0.87328480E+02</rscale>
<asrwt>0</asrwt>
<pdfrwt beam="1">  1        2 0.25240198E-02 0.87328491E+02</pdfrwt>
<pdfrwt beam="2">  1       -2 0.71840679E-01 0.87328491E+02</pdfrwt>
<totfact> 0.64509603E+03</totfact>
</mgrwt>
</event>
<event>
 4    1  0.4940461E-001  0.8388952E+02  0.7546771E-02  0.1318362E+00
         -1   -1    0    0    0  501 -0.00000000000E+00  0.00000000000E+00  0.35309274010E+03  0.35309274010E+03  0.00000000000E+00 0.  1.
          1   -1    0    0  501    0  0.00000000000E+00 -0.00000000000E+00 -0.41184834272E+02  0.41184834272E+02  0.00000000000E+00 0. -1.
         24    1    1    2    0    0  0.23387247702E+02 -0.48240846063E+01  0.29757350944E+03  0.30917219251E+03  0.80419002446E+02 0.  0.
        -24    1    1    2    0    0 -0.23387247702E+02  0.48240846063E+01  0.14334396386E+02  0.85105381860E+02  0.80419002446E+02 0. -1.
<mgrwt>
<rscale>  0 0.83889517E+02</rscale>
<asrwt>0</asrwt>
<pdfrwt beam="1">  1        1 0.63361286E-02 0.83889517E+02</pdfrwt>
<pdfrwt beam="2">  1       -1 0.54321958E-01 0.83889517E+02</pdfrwt>
<totfact> 0.39057934E+03</totfact>
</mgrwt>
</event>
<event>
 4    1  0.4940461E-001  0.8114127E+02  0.7546771E-02  0.1325844E+00
          2   -1    0    0  501    0  0.00000000000E+00  0.00000000000E+00  0.44619244053E+02  0.44619244053E+02  0.00000000000E+00 0. -1.
         -2   -1    0    0    0  501 -0.00000000000E+00 -0.00000000000E+00 -0.20139636661E+03  0.20139636661E+03  0.00000000000E+00 0.  1.
         24    1    1    2    0    0 -0.98948965368E+01 -0.43336477249E+01 -0.14788916709E+02  0.82477981861E+02  0.80419002446E+02 0. -1.
        -24    1    1    2    0    0  0.98948965368E+01  0.43336477249E+01 -0.14198820585E+03  0.16353762881E+03  0.80419002446E+02 0.  0.
<mgrwt>
<rscale>  0 0.81141268E+02</rscale>
<asrwt>0</asrwt>
<pdfrwt beam="1">  1        2 0.68644992E-02 0.81141268E+02</pdfrwt>
<pdfrwt beam="2">  1       -2 0.30984056E-01 0.81141268E+02</pdfrwt>
<totfact> 0.89257647E+03</totfact>
</mgrwt>
</event>
<event>
 4    1  0.4940461E-001  0.8050746E+02  0.7546771E-02  0.1327617E+00
          1   -1    0    0  501    0  0.00000000000E+00  0.00000000000E+00  0.49072239135E+03  0.49072239135E+03  0.00000000000E+00 0. -1.
         -1   -1    0    0    0  501 -0.00000000000E+00 -0.00000000000E+00 -0.99182286103E+02  0.99182286103E+02  0.00000000000E+00 0.  1.
         24    1    1    2    0    0  0.27729966763E+01  0.25585651940E+01 -0.78841703618E+02  0.11268303311E+03  0.80419002446E+02 0.  1.
        -24    1    1    2    0    0 -0.27729966763E+01 -0.25585651940E+01  0.47038180887E+03  0.47722164435E+03  0.80419002446E+02 0.  0.
<mgrwt>
<rscale>  0 0.80507464E+02</rscale>
<asrwt>0</asrwt>
<pdfrwt beam="1">  1        1 0.75495751E-01 0.80507464E+02</pdfrwt>
<pdfrwt beam="2">  1       -1 0.15258814E-01 0.80507464E+02</pdfrwt>
<totfact> 0.14142891E+03</totfact>
</mgrwt>
</event>
<event>
 4    1  0.4940461E-001  0.1081672E+03  0.7546771E-02  0.1264002E+00
          2   -1    0    0  501    0  0.00000000000E+00  0.00000000000E+00  0.86737748290E+02  0.86737748290E+02  0.00000000000E+00 0. -1.
         -2   -1    0    0    0  501 -0.00000000000E+00 -0.00000000000E+00 -0.19630852228E+03  0.19630852228E+03  0.00000000000E+00 0.  1.
         24    1    1    2    0    0 -0.60986325238E+02  0.38904995072E+02  0.24374253357E+02  0.11087944214E+03  0.80419002446E+02 0. -1.
        -24    1    1    2    0    0  0.60986325238E+02 -0.38904995072E+02 -0.13394502735E+03  0.17216682844E+03  0.80419002446E+02 0.  1.
<mgrwt>
<rscale>  0 0.10816722E+03</rscale>
<asrwt>0</asrwt>
<pdfrwt beam="1">  1        2 0.13344269E-01 0.10816722E+03</pdfrwt>
<pdfrwt beam="2">  1       -2 0.30201311E-01 0.10816722E+03</pdfrwt>
<totfact> 0.42631047E+03</totfact>
</mgrwt>
</event>
<event>
 4    1  0.4940461E-001  0.1033011E+03  0.7546771E-02  0.1273503E+00
         -1   -1    0    0    0  501 -0.00000000000E+00  0.00000000000E+00  0.14997652346E+02  0.14997652346E+02  0.00000000000E+00 0.  1.
          1   -1    0    0  501    0  0.00000000000E+00 -0.00000000000E+00 -0.10794400113E+04  0.10794400113E+04  0.00000000000E+00 0. -1.
         24    1    1    2    0    0 -0.24707479256E+02  0.59945322170E+02 -0.21274463818E+03  0.23649819917E+03  0.80419002446E+02 0.  1.
        -24    1    1    2    0    0  0.24707479256E+02 -0.59945322170E+02 -0.85169772082E+03  0.85793946453E+03  0.80419002446E+02 0. -1.
<mgrwt>
<rscale>  0 0.10330110E+03</rscale>
<asrwt>0</asrwt>
<pdfrwt beam="1">  1        1 0.16606772E+00 0.10330110E+03</pdfrwt>
<pdfrwt beam="2">  1       -1 0.23073308E-02 0.10330110E+03</pdfrwt>
<totfact> 0.74280663E+03</totfact>
</mgrwt>
</event>
<event>
 4    1  0.4940461E-001  0.9018162E+02  0.7546771E-02  0.1302412E+00
          2   -1    0    0  501    0  0.00000000000E+00  0.00000000000E+00  0.62988823155E+03  0.62988823155E+03  0.00000000000E+00 0. -1.
         -2   -1    0    0    0  501 -0.00000000000E+00 -0.00000000000E+00 -0.28018440246E+02  0.28018440246E+02  0.00000000000E+00 0.  1.
         24    1    1    2    0    0 -0.13934564321E+02  0.38358014891E+02  0.54248226954E+03  0.54992702980E+03  0.80419002446E+02 0. -1.
        -24    1    1    2    0    0  0.13934564321E+02 -0.38358014891E+02  0.59387521766E+02  0.10797964199E+03  0.80419002446E+02 0.  1.
<mgrwt>
<rscale>  0 0.90181624E+02</rscale>
<asrwt>0</asrwt>
<pdfrwt beam="1">  1        2 0.96905872E-01 0.90181624E+02</pdfrwt>
<pdfrwt beam="2">  1       -2 0.43105297E-02 0.90181624E+02</pdfrwt>
<totfact> 0.10826106E+04</totfact>
</mgrwt>
</event>
<event>
 4    1  0.4940461E-001  0.1037623E+03  0.7546771E-02  0.1272578E+00
         -1   -1    0    0    0  501 -0.00000000000E+00  0.00000000000E+00  0.30532861092E+03  0.30532861092E+03  0.00000000000E+00 0.  1.
          1   -1    0    0  501    0  0.00000000000E+00 -0.00000000000E+00 -0.43267701879E+02  0.43267701879E+02  0.00000000000E+00 0. -1.
         24    1    1    2    0    0 -0.38202911874E+02  0.53291020265E+02  0.20600269280E+03  0.23065931742E+03  0.80419002446E+02 0.  1.
        -24    1    1    2    0    0  0.38202911874E+02 -0.53291020265E+02  0.56058216238E+02  0.11793699538E+03  0.80419002446E+02 0. -1.
<mgrwt>
<rscale>  0 0.10376228E+03</rscale>
<asrwt>0</asrwt>
<pdfrwt beam="1">  1        1 0.66565697E-02 0.10376228E+03</pdfrwt>
<pdfrwt beam="2">  1       -1 0.46973631E-01 0.10376228E+03</pdfrwt>
<totfact> 0.48336871E+03</totfact>
</mgrwt>
</event>
<event>
 4    1  0.4940461E-001  0.1329722E+03  0.7546771E-02  0.1223111E+00
         -1   -1    0    0    0  501 -0.00000000000E+00  0.00000000000E+00  0.20812383530E+02  0.20812383530E+02  0.00000000000E+00 0.  1.
          1   -1    0    0  501    0  0.00000000000E+00 -0.00000000000E+00 -0.19112496929E+04  0.19112496929E+04  0.00000000000E+00 0. -1.
         24    1    1    2    0    0  0.82095222424E+02  0.66893633700E+02 -0.22522462574E+03  0.26154871777E+03  0.80419002446E+02 0.  1.
        -24    1    1    2    0    0 -0.82095222424E+02 -0.66893633700E+02 -0.16652126836E+04  0.16705133586E+04  0.80419002446E+02 0. -1.
<mgrwt>
<rscale>  0 0.13297218E+03</rscale>
<asrwt>0</asrwt>
<pdfrwt beam="1">  1        1 0.29403848E+00 0.13297218E+03</pdfrwt>
<pdfrwt beam="2">  1       -1 0.32019044E-02 0.13297218E+03</pdfrwt>
<totfact> 0.13320908E+03</totfact>
</mgrwt>
</event>
<event>
 4    1  0.4940461E-001  0.9295487E+02  0.7546771E-02  0.1295850E+00
          2   -1    0    0  501    0  0.00000000000E+00  0.00000000000E+00  0.13442270215E+04  0.13442270215E+04  0.00000000000E+00 0. -1.
         -2   -1    0    0    0  501 -0.00000000000E+00 -0.00000000000E+00 -0.14177848092E+02  0.14177848092E+02  0.00000000000E+00 0.  1.
         24    1    1    2    0    0  0.24625154431E+02 -0.39585266916E+02  0.11671849332E+04  0.11708805557E+04  0.80419002446E+02 0.  1.
        -24    1    1    2    0    0 -0.24625154431E+02  0.39585266916E+02  0.16286424018E+03  0.18752431381E+03  0.80419002446E+02 0.  0.
<mgrwt>
<rscale>  0 0.92954868E+02</rscale>
<asrwt>0</asrwt>
<pdfrwt beam="1">  1        2 0.20680406E+00 0.92954868E+02</pdfrwt>
<pdfrwt beam="2">  1       -2 0.21812085E-02 0.92954868E+02</pdfrwt>
<totfact> 0.10729984E+04</totfact>
</mgrwt>
</event>
<event>
 4    1  0.4940461E-001  0.8684883E+02  0.7546771E-02  0.1310667E+00
         -3   -1    0    0    0  501 -0.00000000000E+00  0.00000000000E+00  0.63435636955E+03  0.63435636955E+03  0.00000000000E+00 0.  1.
          3   -1    0    0  501    0  0.00000000000E+00 -0.00000000000E+00 -0.13669682168E+02  0.13669682168E+02  0.00000000000E+00 0. -1.
         24    1    1    2    0    0  0.23393558519E+02 -0.22983581981E+02  0.42724259122E+03  0.43598044833E+03  0.80419002446E+02 0.  1.
        -24    1    1    2    0    0 -0.23393558519E+02  0.22983581981E+02  0.19344409616E+03  0.21204560338E+03  0.80419002446E+02 0. -1.
<mgrwt>
<rscale>  0 0.86848832E+02</rscale>
<asrwt>0</asrwt>
<pdfrwt beam="1">  1        3 0.21030285E-02 0.86848832E+02</pdfrwt>
<pdfrwt beam="2">  1       -3 0.97593265E-01 0.86848832E+02</pdfrwt>
<totfact> 0.17839826E+03</totfact>
</mgrwt>
</event>
<event>
 4    1  0.4940461E-001  0.8530253E+02  0.7546771E-02  0.1314643E+00
          1   -1    0    0  501    0  0.00000000000E+00  0.00000000000E+00  0.52150421799E+03  0.52150421799E+03  0.00000000000E+00 0. -1.
         -1   -1    0    0    0  501 -0.00000000000E+00 -0.00000000000E+00 -0.66196930593E+02  0.66196930593E+02  0.00000000000E+00 0.  1.
         24    1    1    2    0    0 -0.15668032635E+02  0.23744868510E+02 -0.33397589776E+02  0.91607428653E+02  0.80419002446E+02 0.  1.
        -24    1    1    2    0    0  0.15668032635E+02 -0.23744868510E+02  0.48870487717E+03  0.49609371993E+03  0.80419002446E+02 0. -1.
<mgrwt>
<rscale>  0 0.85302532E+02</rscale>
<asrwt>0</asrwt>
<pdfrwt beam="1">  1        1 0.80231415E-01 0.85302532E+02</pdfrwt>
<pdfrwt beam="2">  1       -1 0.10184144E-01 0.85302532E+02</pdfrwt>
<totfact> 0.24301056E+03</totfact>
</mgrwt>
</event>
<event>
 4    1  0.4940461E-001  0.8090018E+02  0.7546771E-02  0.1326516E+00
          2   -1    0    0  501    0  0.00000000000E+00  0.00000000000E+00  0.48063188749E+02  0.48063188749E+02  0.00000000000E+00 0. -1.
         -2   -1    0    0    0  501 -0.00000000000E+00 -0.00000000000E+00 -0.13817982991E+03  0.13817982991E+03  0.00000000000E+00 0.  1.
         24    1    1    2    0    0 -0.80195323660E+01 -0.36479770598E+01 -0.56284837108E+02  0.98553637572E+02  0.80419002446E+02 0.  1.
        -24    1    1    2    0    0  0.80195323660E+01  0.36479770598E+01 -0.33831804056E+02  0.87689381091E+02  0.80419002446E+02 0. -1.
<mgrwt>
<rscale>  0 0.80900174E+02</rscale>
<asrwt>0</asrwt>
<pdfrwt beam="1">  1        2 0.73943368E-02 0.80900185E+02</pdfrwt>
<pdfrwt beam="2">  1       -2 0.21258435E-01 0.80900185E+02</pdfrwt>
<totfact> 0.15625512E+04</totfact>
</mgrwt>
</event>
<event>
 4    1  0.4940461E-001  0.8129922E+02  0.7546771E-02  0.1325404E+00
          1   -1    0    0  501    0  0.00000000000E+00  0.00000000000E+00  0.44170667935E+02  0.44170667935E+02  0.00000000000E+00 0. -1.
         -1   -1    0    0    0  501 -0.00000000000E+00 -0.00000000000E+00 -0.15410080894E+03  0.15410080894E+03  0.00000000000E+00 0.  1.
         24    1    1    2    0    0 -0.11917334363E+02  0.56952597863E+00 -0.71837746283E+02  0.10849066763E+03  0.80419002446E+02 0.  1.
        -24    1    1    2    0    0  0.11917334363E+02 -0.56952597863E+00 -0.38092394722E+02  0.89780809242E+02  0.80419002446E+02 0. -1.
<mgrwt>
<rscale>  0 0.81299220E+02</rscale>
<asrwt>0</asrwt>
<pdfrwt beam="1">  1        1 0.67954874E-02 0.81299220E+02</pdfrwt>
<pdfrwt beam="2">  1       -1 0.23707817E-01 0.81299220E+02</pdfrwt>
<totfact> 0.14611261E+04</totfact>
</mgrwt>
</event>
<event>
 4    1  0.4940461E-001  0.9394148E+02  0.7546771E-02  0.1293578E+00
          2   -1    0    0  501    0  0.00000000000E+00  0.00000000000E+00  0.35793341895E+03  0.35793341895E+03  0.00000000000E+00 0. -1.
         -2   -1    0    0    0  501 -0.00000000000E+00 -0.00000000000E+00 -0.24765330570E+02  0.24765330570E+02  0.00000000000E+00 0.  1.
         24    1    1    2    0    0 -0.83833934150E+01 -0.47827859661E+02  0.17933111019E+03  0.20244665589E+03  0.80419002446E+02 0. -1.
        -24    1    1    2    0    0  0.83833934150E+01  0.47827859661E+02  0.15383697819E+03  0.18025209363E+03  0.80419002446E+02 0.  0.
<mgrwt>
<rscale>  0 0.93941479E+02</rscale>
<asrwt>0</asrwt>
<pdfrwt beam="1">  1        2 0.55066676E-01 0.93941479E+02</pdfrwt>
<pdfrwt beam="2">  1       -2 0.38100511E-02 0.93941479E+02</pdfrwt>
<totfact> 0.23973872E+04</totfact>
</mgrwt>
</event>
<event>
 4    1  0.4940461E-001  0.9232488E+02  0.7546771E-02  0.1297317E+00
         -1   -1    0    0    0  501 -0.00000000000E+00  0.00000000000E+00  0.70737795025E+01  0.70737795025E+01  0.00000000000E+00 0.  1.
          1   -1    0    0  501    0  0.00000000000E+00 -0.00000000000E+00 -0.12959569363E+04  0.12959569363E+04  0.00000000000E+00 0. -1.
         24    1    1    2    0    0 -0.10882531637E+02 -0.44025427039E+02 -0.47183623149E+03  0.48078406069E+03  0.80419002446E+02 0.  1.
        -24    1    1    2    0    0  0.10882531637E+02  0.44025427039E+02 -0.81704692533E+03  0.82224665513E+03  0.80419002446E+02 0. -1.
<mgrwt>
<rscale>  0 0.92324881E+02</rscale>
<asrwt>0</asrwt>
<pdfrwt beam="1">  1        1 0.19937794E+00 0.92324881E+02</pdfrwt>
<pdfrwt beam="2">  1       -1 0.10882741E-02 0.92324881E+02</pdfrwt>
<totfact> 0.15332041E+04</totfact>
</mgrwt>
</event>
<event>
 4    1  0.4940461E-001  0.1001817E+03  0.7546771E-02  0.1279914E+00
          2   -1    0    0  501    0  0.00000000000E+00  0.00000000000E+00  0.25950890562E+03  0.25950890562E+03  0.00000000000E+00 0. -1.
         -2   -1    0    0    0  501 -0.00000000000E+00 -0.00000000000E+00 -0.44896767192E+02  0.44896767192E+02  0.00000000000E+00 0.  1.
         24    1    1    2    0    0 -0.33664140756E+02 -0.49354662792E+02  0.16396783318E+03  0.19215052273E+03  0.80419002446E+02 0. -1.
        -24    1    1    2    0    0  0.33664140756E+02  0.49354662792E+02  0.50644305244E+02  0.11225515008E+03  0.80419002446E+02 0.  1.
<mgrwt>
<rscale>  0 0.10018170E+03</rscale>
<asrwt>0</asrwt>
<pdfrwt beam="1">  1        2 0.39924446E-01 0.10018170E+03</pdfrwt>
<pdfrwt beam="2">  1       -2 0.69071951E-02 0.10018170E+03</pdfrwt>
<totfact> 0.13920216E+04</totfact>
</mgrwt>
</event>
<event>
 4    1  0.4940461E-001  0.1080852E+03  0.7546771E-02  0.1264158E+00
          2   -1    0    0  501    0  0.00000000000E+00  0.00000000000E+00  0.14824540265E+03  0.14824540265E+03  0.00000000000E+00 0. -1.
         -2   -1    0    0    0  501 -0.00000000000E+00 -0.00000000000E+00 -0.78959687893E+02  0.78959687893E+02  0.00000000000E+00 0.  1.
         24    1    1    2    0    0 -0.70337035156E+02 -0.16367212893E+02  0.39679703580E+02  0.11513852093E+03  0.80419002446E+02 0. -1.
        -24    1    1    2    0    0  0.70337035156E+02  0.16367212893E+02  0.29606011181E+02  0.11206656961E+03  0.80419002446E+02 0.  0.
<mgrwt>
<rscale>  0 0.10808515E+03</rscale>
<asrwt>0</asrwt>
<pdfrwt beam="1">  1        2 0.22806985E-01 0.10808515E+03</pdfrwt>
<pdfrwt beam="2">  1       -2 0.12147644E-01 0.10808515E+03</pdfrwt>
<totfact> 0.10666341E+04</totfact>
</mgrwt>
</event>
<event>
 4    1  0.4940461E-001  0.1199921E+03  0.7546771E-02  0.1243110E+00
          4   -1    0    0  501    0  0.00000000000E+00  0.00000000000E+00  0.71644554628E+03  0.71644554628E+03  0.00000000000E+00 0. -1.
         -4   -1    0    0    0  501 -0.00000000000E+00 -0.00000000000E+00 -0.63955376854E+02  0.63955376854E+02  0.00000000000E+00 0.  1.
         24    1    1    2    0    0  0.89055386581E+02  0.17503150048E+00  0.64937530909E+03  0.66036838244E+03  0.80419002446E+02 0. -1.
        -24    1    1    2    0    0 -0.89055386581E+02 -0.17503150048E+00  0.31148603317E+01  0.12003254069E+03  0.80419002446E+02 0.  1.
<mgrwt>
<rscale>  0 0.11999212E+03</rscale>
<asrwt>0</asrwt>
<pdfrwt beam="1">  1        4 0.11022239E+00 0.11999212E+03</pdfrwt>
<pdfrwt beam="2">  1       -4 0.98392892E-02 0.11999212E+03</pdfrwt>
<totfact> 0.87402618E+01</totfact>
</mgrwt>
</event>
<event>
 4    1  0.4940461E-001  0.8742381E+02  0.7546771E-02  0.1309213E+00
          2   -1    0    0  501    0  0.00000000000E+00  0.00000000000E+00  0.92384151833E+03  0.92384151833E+03  0.00000000000E+00 0. -1.
         -2   -1    0    0    0  501 -0.00000000000E+00 -0.00000000000E+00 -0.20944721661E+02  0.20944721661E+02  0.00000000000E+00 0.  1.
         24    1    1    2    0    0 -0.19521016694E+02  0.28189311628E+02  0.81888668310E+03  0.82354011626E+03  0.80419002446E+02 0. -1.
        -24    1    1    2    0    0  0.19521016694E+02 -0.28189311628E+02  0.84010113571E+02  0.12124612373E+03  0.80419002446E+02 0.  1.
<mgrwt>
<rscale>  0 0.87423814E+02</rscale>
<asrwt>0</asrwt>
<pdfrwt beam="1">  1        2 0.14212943E+00 0.87423814E+02</pdfrwt>
<pdfrwt beam="2">  1       -2 0.32222656E-02 0.87423814E+02</pdfrwt>
<totfact> 0.10431039E+04</totfact>
</mgrwt>
</event>
<event>
 4    1  0.4940461E-001  0.8508624E+02  0.7546771E-02  0.1315207E+00
          1   -1    0    0  501    0  0.00000000000E+00  0.00000000000E+00  0.18550840907E+04  0.18550840907E+04  0.00000000000E+00 0. -1.
         -1   -1    0    0    0  501 -0.00000000000E+00 -0.00000000000E+00 -0.11719798615E+02  0.11719798615E+02  0.00000000000E+00 0.  1.
         24    1    1    2    0    0  0.25393672620E+02 -0.11296651846E+02  0.15936807805E+03  0.18065949521E+03  0.80419002446E+02 0.  1.
        -24    1    1    2    0    0 -0.25393672620E+02  0.11296651846E+02  0.16839962140E+04  0.16861443941E+04  0.80419002446E+02 0. -1.
<mgrwt>
<rscale>  0 0.85086244E+02</rscale>
<asrwt>0</asrwt>
<pdfrwt beam="1">  1        1 0.28539732E+00 0.85086244E+02</pdfrwt>
<pdfrwt beam="2">  1       -1 0.18030474E-02 0.85086244E+02</pdfrwt>
<totfact> 0.32940353E+03</totfact>
</mgrwt>
</event>
<event>
 4    1  0.4940461E-001  0.1336693E+03  0.7546771E-02  0.1222111E+00
         -2   -1    0    0    0  501 -0.00000000000E+00  0.00000000000E+00  0.41027626254E+02  0.41027626254E+02  0.00000000000E+00 0.  1.
          2   -1    0    0  501    0  0.00000000000E+00 -0.00000000000E+00 -0.47939897759E+03  0.47939897759E+03  0.00000000000E+00 0. -1.
         24    1    1    2    0    0 -0.50739771396E+01 -0.10665140781E+03 -0.29792901730E+03  0.32654124293E+03  0.80419002446E+02 0. -1.
        -24    1    1    2    0    0  0.50739771396E+01  0.10665140781E+03 -0.14044233403E+03  0.19388536091E+03  0.80419002446E+02 0.  0.
<mgrwt>
<rscale>  0 0.13366931E+03</rscale>
<asrwt>0</asrwt>
<pdfrwt beam="1">  1        2 0.73753690E-01 0.13366931E+03</pdfrwt>
<pdfrwt beam="2">  1       -2 0.63119424E-02 0.13366931E+03</pdfrwt>
<totfact> 0.85171903E+03</totfact>
</mgrwt>
</event>
<event>
 4    1  0.4940461E-001  0.1088380E+03  0.7546771E-02  0.1262737E+00
          2   -1    0    0  501    0  0.00000000000E+00  0.00000000000E+00  0.40903424349E+03  0.40903424349E+03  0.00000000000E+00 0. -1.
         -2   -1    0    0    0  501 -0.00000000000E+00 -0.00000000000E+00 -0.40556014130E+02  0.40556014130E+02  0.00000000000E+00 0.  1.
         24    1    1    2    0    0  0.66879115242E+02  0.30094371007E+02  0.30444074509E+03  0.32331079544E+03  0.80419002446E+02 0. -1.
        -24    1    1    2    0    0 -0.66879115242E+02 -0.30094371007E+02  0.64037484262E+02  0.12627946217E+03  0.80419002446E+02 0.  1.
<mgrwt>
<rscale>  0 0.10883797E+03</rscale>
<asrwt>0</asrwt>
<pdfrwt beam="1">  1        2 0.62928342E-01 0.10883797E+03</pdfrwt>
<pdfrwt beam="2">  1       -2 0.62393871E-02 0.10883797E+03</pdfrwt>
<totfact> 0.10130745E+04</totfact>
</mgrwt>
</event>
<event>
 4    1  0.4940461E-001  0.9196947E+02  0.7546771E-02  0.1298151E+00
         -1   -1    0    0    0  501 -0.00000000000E+00  0.00000000000E+00  0.64772486004E+01  0.64772486004E+01  0.00000000000E+00 0.  1.
          1   -1    0    0  501    0  0.00000000000E+00 -0.00000000000E+00 -0.13232763401E+04  0.13232763401E+04  0.00000000000E+00 0. -1.
         24    1    1    2    0    0  0.44421798360E+02 -0.42268935622E+01 -0.73467705022E+03  0.74041120121E+03  0.80419002446E+02 0. -1.
        -24    1    1    2    0    0 -0.44421798360E+02  0.42268935622E+01 -0.58212204130E+03  0.58934238752E+03  0.80419002446E+02 0.  1.
<mgrwt>
<rscale>  0 0.91969456E+02</rscale>
<asrwt>0</asrwt>
<pdfrwt beam="1">  1        1 0.20358119E+00 0.91969468E+02</pdfrwt>
<pdfrwt beam="2">  1       -1 0.99649872E-03 0.91969468E+02</pdfrwt>
<totfact> 0.16655116E+04</totfact>
</mgrwt>
</event>
<event>
 4    1  0.4940461E-001  0.1027834E+03  0.7546771E-02  0.1274549E+00
         -1   -1    0    0    0  501 -0.00000000000E+00  0.00000000000E+00  0.49320147041E+02  0.49320147041E+02  0.00000000000E+00 0.  1.
          1   -1    0    0  501    0  0.00000000000E+00 -0.00000000000E+00 -0.72970616572E+03  0.72970616572E+03  0.00000000000E+00 0. -1.
         24    1    1    2    0    0  0.60352084949E+02 -0.21327029617E+02 -0.12803642444E+02  0.10357782371E+03  0.80419002446E+02 0.  1.
        -24    1    1    2    0    0 -0.60352084949E+02  0.21327029617E+02 -0.66758237624E+03  0.67544848906E+03  0.80419002446E+02 0. -1.
<mgrwt>
<rscale>  0 0.10278342E+03</rscale>
<asrwt>0</asrwt>
<pdfrwt beam="1">  1        1 0.11226248E+00 0.10278342E+03</pdfrwt>
<pdfrwt beam="2">  1       -1 0.75877154E-02 0.10278342E+03</pdfrwt>
<totfact> 0.24135145E+03</totfact>
</mgrwt>
</event>
<event>
 4    1  0.4940461E-001  0.1645935E+03  0.7546771E-02  0.1183606E+00
         -2   -1    0    0    0  501 -0.00000000000E+00  0.00000000000E+00  0.17355644655E+03  0.17355644655E+03  0.00000000000E+00 0.  1.
          2   -1    0    0  501    0  0.00000000000E+00 -0.00000000000E+00 -0.18631727015E+03  0.18631727015E+03  0.00000000000E+00 0. -1.
         24    1    1    2    0    0  0.13283579267E+03 -0.54575198160E+02 -0.78852138166E+02  0.18250664567E+03  0.80419002446E+02 0.  1.
        -24    1    1    2    0    0 -0.13283579267E+03  0.54575198160E+02  0.66091314566E+02  0.17736707102E+03  0.80419002446E+02 0. -1.
<mgrwt>
<rscale>  0 0.16459349E+03</rscale>
<asrwt>0</asrwt>
<pdfrwt beam="1">  1        2 0.28664196E-01 0.16459349E+03</pdfrwt>
<pdfrwt beam="2">  1       -2 0.26700992E-01 0.16459349E+03</pdfrwt>
<totfact> 0.22818736E+03</totfact>
</mgrwt>
</event>
<event>
 4    1  0.4940461E-001  0.9394913E+02  0.7546771E-02  0.1293561E+00
         -1   -1    0    0    0  501 -0.00000000000E+00  0.00000000000E+00  0.88816624666E+02  0.88816624666E+02  0.00000000000E+00 0.  1.
          1   -1    0    0  501    0  0.00000000000E+00 -0.00000000000E+00 -0.25951035694E+03  0.25951035694E+03  0.00000000000E+00 0. -1.
         24    1    1    2    0    0 -0.44814757122E+02 -0.18731282426E+02  0.51463499407E+02  0.10712110494E+03  0.80419002446E+02 0.  1.
        -24    1    1    2    0    0  0.44814757122E+02  0.18731282426E+02 -0.22215723168E+03  0.24120587667E+03  0.80419002446E+02 0. -1.
<mgrwt>
<rscale>  0 0.93949132E+02</rscale>
<asrwt>0</asrwt>
<pdfrwt beam="1">  1        1 0.39924670E-01 0.93949132E+02</pdfrwt>
<pdfrwt beam="2">  1       -1 0.13664096E-01 0.93949132E+02</pdfrwt>
<totfact> 0.37091608E+03</totfact>
</mgrwt>
</event>
<event>
 4    1  0.4940461E-001  0.9870881E+02  0.7546771E-02  0.1283035E+00
         -2   -1    0    0    0  501 -0.00000000000E+00  0.00000000000E+00  0.12046315552E+02  0.12046315552E+02  0.00000000000E+00 0.  1.
          2   -1    0    0  501    0  0.00000000000E+00 -0.00000000000E+00 -0.88229962978E+03  0.88229962978E+03  0.00000000000E+00 0. -1.
         24    1    1    2    0    0 -0.54010597279E+02 -0.18949091426E+02 -0.56416525927E+03  0.57273542618E+03  0.80419002446E+02 0. -1.
        -24    1    1    2    0    0  0.54010597279E+02  0.18949091426E+02 -0.30608805496E+03  0.32161051915E+03  0.80419002446E+02 0.  1.
<mgrwt>
<rscale>  0 0.98708807E+02</rscale>
<asrwt>0</asrwt>
<pdfrwt beam="1">  1        2 0.13573837E+00 0.98708807E+02</pdfrwt>
<pdfrwt beam="2">  1       -2 0.18532798E-02 0.98708807E+02</pdfrwt>
<totfact> 0.24863758E+04</totfact>
</mgrwt>
</event>
<event>
 4    1  0.4940461E-001  0.8277809E+02  0.7546771E-02  0.1321347E+00
         -2   -1    0    0    0  501 -0.00000000000E+00  0.00000000000E+00  0.74116554193E+01  0.74116554193E+01  0.00000000000E+00 0.  1.
          2   -1    0    0  501    0  0.00000000000E+00 -0.00000000000E+00 -0.16428659393E+04  0.16428659393E+04  0.00000000000E+00 0. -1.
         24    1    1    2    0    0  0.17833581538E+02 -0.81828757474E+01 -0.13633508588E+04  0.13658615509E+04  0.80419002446E+02 0. -1.
        -24    1    1    2    0    0 -0.17833581538E+02  0.81828757474E+01 -0.27210342508E+03  0.28441604382E+03  0.80419002446E+02 0.  0.
<mgrwt>
<rscale>  0 0.82778089E+02</rscale>
<asrwt>0</asrwt>
<pdfrwt beam="1">  1        2 0.25274865E+00 0.82778089E+02</pdfrwt>
<pdfrwt beam="2">  1       -2 0.11402545E-02 0.82778089E+02</pdfrwt>
<totfact> 0.18909152E+04</totfact>
</mgrwt>
</event>
<event>
 4    1  0.4940461E-001  0.8373823E+02  0.7546771E-02  0.1318766E+00
         -2   -1    0    0    0  501 -0.00000000000E+00  0.00000000000E+00  0.53226237462E+02  0.53226237462E+02  0.00000000000E+00 0.  1.
          2   -1    0    0  501    0  0.00000000000E+00 -0.00000000000E+00 -0.13615407700E+03  0.13615407700E+03  0.00000000000E+00 0. -1.
         24    1    1    2    0    0  0.22769214060E+02  0.51418529714E+01 -0.58510895930E+02  0.10215486605E+03  0.80419002446E+02 0. -1.
        -24    1    1    2    0    0 -0.22769214060E+02 -0.51418529714E+01 -0.24416943606E+02  0.87225448410E+02  0.80419002446E+02 0.  1.
<mgrwt>
<rscale>  0 0.83738233E+02</rscale>
<asrwt>0</asrwt>
<pdfrwt beam="1">  1        2 0.20946781E-01 0.83738233E+02</pdfrwt>
<pdfrwt beam="2">  1       -2 0.81886521E-02 0.83738233E+02</pdfrwt>
<totfact> 0.21105226E+04</totfact>
</mgrwt>
</event>
<event>
 4    1  0.4940461E-001  0.1011911E+03  0.7546771E-02  0.1277811E+00
          1   -1    0    0  501    0  0.00000000000E+00  0.00000000000E+00  0.28527403197E+03  0.28527403197E+03  0.00000000000E+00 0. -1.
         -1   -1    0    0    0  501 -0.00000000000E+00 -0.00000000000E+00 -0.40067818798E+02  0.40067818798E+02  0.00000000000E+00 0.  1.
         24    1    1    2    0    0 -0.54506543097E+02 -0.28310044069E+02  0.70100997402E+02  0.12310072147E+03  0.80419002446E+02 0.  1.
        -24    1    1    2    0    0  0.54506543097E+02  0.28310044069E+02  0.17510521577E+03  0.20224112930E+03  0.80419002446E+02 0. -1.
<mgrwt>
<rscale>  0 0.10119110E+03</rscale>
<asrwt>0</asrwt>
<pdfrwt beam="1">  1        1 0.43888311E-01 0.10119110E+03</pdfrwt>
<pdfrwt beam="2">  1       -1 0.61642800E-02 0.10119110E+03</pdfrwt>
<totfact> 0.11026513E+04</totfact>
</mgrwt>
</event>
<event>
 4    1  0.4940461E-001  0.8321841E+02  0.7546771E-02  0.1320158E+00
         -2   -1    0    0    0  501 -0.00000000000E+00  0.00000000000E+00  0.54892959065E+01  0.54892959065E+01  0.00000000000E+00 0.  1.
          2   -1    0    0  501    0  0.00000000000E+00 -0.00000000000E+00 -0.18639090527E+04  0.18639090527E+04  0.00000000000E+00 0. -1.
         24    1    1    2    0    0 -0.20625525479E+02  0.57162229871E+01 -0.14605451993E+04  0.14629140722E+04  0.80419002446E+02 0.  0.
        -24    1    1    2    0    0  0.20625525479E+02 -0.57162229871E+01 -0.39787455755E+03  0.40648427646E+03  0.80419002446E+02 0.  0.
<mgrwt>
<rscale>  0 0.83218408E+02</rscale>
<asrwt>0</asrwt>
<pdfrwt beam="1">  1        2 0.28675525E+00 0.83218408E+02</pdfrwt>
<pdfrwt beam="2">  1       -2 0.84450704E-03 0.83218408E+02</pdfrwt>
<totfact> 0.22407287E+04</totfact>
</mgrwt>
</event>
<event>
 4    1  0.4940461E-001  0.1238285E+03  0.7546771E-02  0.1236912E+00
          1   -1    0    0  501    0  0.00000000000E+00  0.00000000000E+00  0.46134228575E+03  0.46134228575E+03  0.00000000000E+00 0. -1.
         -1   -1    0    0    0  501 -0.00000000000E+00 -0.00000000000E+00 -0.71110949745E+02  0.71110949745E+02  0.00000000000E+00 0.  1.
         24    1    1    2    0    0  0.93901521057E+02 -0.69839911020E+01  0.82347664655E+00  0.12383119904E+03  0.80419002446E+02 0.  1.
        -24    1    1    2    0    0 -0.93901521057E+02  0.69839911020E+01  0.38940785936E+03  0.40862203645E+03  0.80419002446E+02 0. -1.
<mgrwt>
<rscale>  0 0.12382846E+03</rscale>
<asrwt>0</asrwt>
<pdfrwt beam="1">  1        1 0.70975734E-01 0.12382846E+03</pdfrwt>
<pdfrwt beam="2">  1       -1 0.10940146E-01 0.12382846E+03</pdfrwt>
<totfact> 0.25901061E+03</totfact>
</mgrwt>
</event>
<event>
 4    1  0.4940461E-001  0.9810046E+02  0.7546771E-02  0.1284342E+00
         -2   -1    0    0    0  501 -0.00000000000E+00  0.00000000000E+00  0.94214432539E+01  0.94214432539E+01  0.00000000000E+00 0.  1.
          2   -1    0    0  501    0  0.00000000000E+00 -0.00000000000E+00 -0.15901685424E+04  0.15901685424E+04  0.00000000000E+00 0. -1.
         24    1    1    2    0    0 -0.52484280165E+02 -0.20047037095E+02 -0.12686720997E+04  0.12724592708E+04  0.80419002446E+02 0. -1.
        -24    1    1    2    0    0  0.52484280165E+02  0.20047037095E+02 -0.31207499947E+03  0.32713071487E+03  0.80419002446E+02 0.  1.
<mgrwt>
<rscale>  0 0.98100455E+02</rscale>
<asrwt>0</asrwt>
<pdfrwt beam="1">  1        2 0.24464115E+00 0.98100455E+02</pdfrwt>
<pdfrwt beam="2">  1       -2 0.14494538E-02 0.98100455E+02</pdfrwt>
<totfact> 0.14449107E+04</totfact>
</mgrwt>
</event>
<event>
 4    1  0.4940461E-001  0.8480775E+02  0.7546771E-02  0.1315936E+00
         -1   -1    0    0    0  501 -0.00000000000E+00  0.00000000000E+00  0.60233398741E+01  0.60233398741E+01  0.00000000000E+00 0.  1.
          1   -1    0    0  501    0  0.00000000000E+00 -0.00000000000E+00 -0.12065374744E+04  0.12065374744E+04  0.00000000000E+00 0. -1.
         24    1    1    2    0    0 -0.54700625988E+01 -0.26366910438E+02 -0.66186162388E+03  0.66727292817E+03  0.80419002446E+02 0.  1.
        -24    1    1    2    0    0  0.54700625988E+01  0.26366910438E+02 -0.53865251064E+03  0.54528788610E+03  0.80419002446E+02 0. -1.
<mgrwt>
<rscale>  0 0.84807743E+02</rscale>
<asrwt>0</asrwt>
<pdfrwt beam="1">  1        1 0.18562099E+00 0.84807754E+02</pdfrwt>
<pdfrwt beam="2">  1       -1 0.92666847E-03 0.84807754E+02</pdfrwt>
<totfact> 0.21897999E+04</totfact>
</mgrwt>
</event>
<event>
 4    1  0.4940461E-001  0.1015940E+03  0.7546771E-02  0.1276979E+00
          1   -1    0    0  501    0  0.00000000000E+00  0.00000000000E+00  0.63662236439E+02  0.63662236439E+02  0.00000000000E+00 0. -1.
         -1   -1    0    0    0  501 -0.00000000000E+00 -0.00000000000E+00 -0.16295339208E+03  0.16295339208E+03  0.00000000000E+00 0.  1.
         24    1    1    2    0    0 -0.19253730851E+02 -0.59020472815E+02 -0.57716836514E+02  0.11684421909E+03  0.80419002446E+02 0.  0.
        -24    1    1    2    0    0  0.19253730851E+02  0.59020472815E+02 -0.41574319127E+02  0.10977140943E+03  0.80419002446E+02 0. -1.
<mgrwt>
<rscale>  0 0.10159399E+03</rscale>
<asrwt>0</asrwt>
<pdfrwt beam="1">  1        1 0.97941903E-02 0.10159399E+03</pdfrwt>
<pdfrwt beam="2">  1       -1 0.25069752E-01 0.10159399E+03</pdfrwt>
<totfact> 0.84135798E+03</totfact>
</mgrwt>
</event>
<event>
 4    1  0.4940461E-001  0.8338458E+02  0.7546771E-02  0.1319712E+00
          2   -1    0    0  501    0  0.00000000000E+00  0.00000000000E+00  0.12837627387E+04  0.12837627387E+04  0.00000000000E+00 0. -1.
         -2   -1    0    0    0  501 -0.00000000000E+00 -0.00000000000E+00 -0.10986143760E+02  0.10986143760E+02  0.00000000000E+00 0.  1.
         24    1    1    2    0    0  0.21520319967E+02 -0.47589321553E+01  0.10973472012E+04  0.11005107303E+04  0.80419002446E+02 0. -1.
        -24    1    1    2    0    0 -0.21520319967E+02  0.47589321553E+01  0.17542939377E+03  0.19423815217E+03  0.80419002446E+02 0.  1.
<mgrwt>
<rscale>  0 0.83384576E+02</rscale>
<asrwt>0</asrwt>
<pdfrwt beam="1">  1        2 0.19750184E+00 0.83384576E+02</pdfrwt>
<pdfrwt beam="2">  1       -2 0.16901770E-02 0.83384576E+02</pdfrwt>
<totfact> 0.16523653E+04</totfact>
</mgrwt>
</event>
<event>
 4    1  0.4940461E-001  0.8233921E+02  0.7546771E-02  0.1322541E+00
          2   -1    0    0  501    0  0.00000000000E+00  0.00000000000E+00  0.12943686870E+04  0.12943686870E+04  0.00000000000E+00 0. -1.
         -2   -1    0    0    0  501 -0.00000000000E+00 -0.00000000000E+00 -0.68656405642E+01  0.68656405642E+01  0.00000000000E+00 0.  1.
         24    1    1    2    0    0  0.14221980398E+02 -0.10500703292E+02  0.96054811021E+03  0.96407075336E+03  0.80419002446E+02 0. -1.
        -24    1    1    2    0    0 -0.14221980398E+02  0.10500703292E+02  0.32695493626E+03  0.33716357424E+03  0.80419002446E+02 0.  1.
<mgrwt>
<rscale>  0 0.82339210E+02</rscale>
<asrwt>0</asrwt>
<pdfrwt beam="1">  1        2 0.19913345E+00 0.82339210E+02</pdfrwt>
<pdfrwt beam="2">  1       -2 0.10562534E-02 0.82339210E+02</pdfrwt>
<totfact> 0.31759180E+04</totfact>
</mgrwt>
</event>
<event>
 4    1  0.4940461E-001  0.8370351E+02  0.7546771E-02  0.1318858E+00
         -2   -1    0    0    0  501 -0.00000000000E+00  0.00000000000E+00  0.51564514154E+01  0.51564514154E+01  0.00000000000E+00 0.  1.
          2   -1    0    0  501    0  0.00000000000E+00 -0.00000000000E+00 -0.21475968201E+04  0.21475968201E+04  0.00000000000E+00 0. -1.
         24    1    1    2    0    0  0.19784333379E+02 -0.12150818646E+02 -0.17235795530E+04  0.17256108349E+04  0.80419002446E+02 0. -1.
        -24    1    1    2    0    0 -0.19784333379E+02  0.12150818646E+02 -0.41886081574E+03  0.42714243662E+03  0.80419002446E+02 0.  1.
<mgrwt>
<rscale>  0 0.83703514E+02</rscale>
<asrwt>0</asrwt>
<pdfrwt beam="1">  1        2 0.33039936E+00 0.83703514E+02</pdfrwt>
<pdfrwt beam="2">  1       -2 0.79330058E-03 0.83703514E+02</pdfrwt>
<totfact> 0.17644822E+04</totfact>
</mgrwt>
</event>
<event>
 4    1  0.4940461E-001  0.8272878E+02  0.7546771E-02  0.1321481E+00
         -1   -1    0    0    0  501 -0.00000000000E+00  0.00000000000E+00  0.39066007696E+01  0.39066007696E+01  0.00000000000E+00 0.  1.
          1   -1    0    0  501    0  0.00000000000E+00 -0.00000000000E+00 -0.18659730714E+04  0.18659730714E+04  0.00000000000E+00 0. -1.
         24    1    1    2    0    0  0.82286147200E+01 -0.17581949750E+02 -0.69988799079E+03  0.70476042076E+03  0.80419002446E+02 0.  1.
        -24    1    1    2    0    0 -0.82286147200E+01  0.17581949750E+02 -0.11621784799E+04  0.11651192514E+04  0.80419002446E+02 0.  0.
<mgrwt>
<rscale>  0 0.82728780E+02</rscale>
<asrwt>0</asrwt>
<pdfrwt beam="1">  1        1 0.28707208E+00 0.82728780E+02</pdfrwt>
<pdfrwt beam="2">  1       -1 0.60101697E-03 0.82728780E+02</pdfrwt>
<totfact> 0.15221948E+04</totfact>
</mgrwt>
</event>
<event>
 4    1  0.4940461E-001  0.1190177E+03  0.7546771E-02  0.1244726E+00
          2   -1    0    0  501    0  0.00000000000E+00  0.00000000000E+00  0.69867236782E+03  0.69867236782E+03  0.00000000000E+00 0. -1.
         -2   -1    0    0    0  501 -0.00000000000E+00 -0.00000000000E+00 -0.97694286680E+02  0.97694286680E+02  0.00000000000E+00 0.  1.
         24    1    1    2    0    0 -0.86168395870E+02 -0.16522897859E+02  0.65495501006E+03  0.66568106459E+03  0.80419002446E+02 0. -1.
        -24    1    1    2    0    0  0.86168395870E+02  0.16522897859E+02 -0.53976928917E+02  0.13068558991E+03  0.80419002446E+02 0.  1.
<mgrwt>
<rscale>  0 0.11901771E+03</rscale>
<asrwt>0</asrwt>
<pdfrwt beam="1">  1        2 0.10748805E+00 0.11901771E+03</pdfrwt>
<pdfrwt beam="2">  1       -2 0.15029891E-01 0.11901771E+03</pdfrwt>
<totfact> 0.14213573E+03</totfact>
</mgrwt>
</event>
<event>
 4    1  0.4940461E-001  0.8149236E+02  0.7546771E-02  0.1324869E+00
          1   -1    0    0  501    0  0.00000000000E+00  0.00000000000E+00  0.25012014439E+03  0.25012014439E+03  0.00000000000E+00 0. -1.
         -1   -1    0    0    0  501 -0.00000000000E+00 -0.00000000000E+00 -0.28750766041E+02  0.28750766041E+02  0.00000000000E+00 0.  1.
         24    1    1    2    0    0 -0.12066421005E+02 -0.53094242887E+01  0.72118094221E+02  0.10882106400E+03  0.80419002446E+02 0.  0.
        -24    1    1    2    0    0  0.12066421005E+02  0.53094242887E+01  0.14925128412E+03  0.17004984643E+03  0.80419002446E+02 0. -1.
<mgrwt>
<rscale>  0 0.81492358E+02</rscale>
<asrwt>0</asrwt>
<pdfrwt beam="1">  1        1 0.38480021E-01 0.81492358E+02</pdfrwt>
<pdfrwt beam="2">  1       -1 0.44231950E-02 0.81492358E+02</pdfrwt>
<totfact> 0.20604824E+04</totfact>
</mgrwt>
</event>
<event>
 4    1  0.4940461E-001  0.8450995E+02  0.7546771E-02  0.1316719E+00
          4   -1    0    0  501    0  0.00000000000E+00  0.00000000000E+00  0.17820537665E+03  0.17820537665E+03  0.00000000000E+00 0. -1.
         -4   -1    0    0    0  501 -0.00000000000E+00 -0.00000000000E+00 -0.95108122169E+02  0.95108122169E+02  0.00000000000E+00 0.  1.
         24    1    1    2    0    0  0.64255697948E+01 -0.25167975394E+02  0.14549913135E+03  0.16826148730E+03  0.80419002446E+02 0.  0.
        -24    1    1    2    0    0 -0.64255697948E+01  0.25167975394E+02 -0.62401876866E+02  0.10505201152E+03  0.80419002446E+02 0.  1.
<mgrwt>
<rscale>  0 0.84509945E+02</rscale>
<asrwt>0</asrwt>
<pdfrwt beam="1">  1        4 0.27416212E-01 0.84509945E+02</pdfrwt>
<pdfrwt beam="2">  1       -4 0.14632019E-01 0.84509945E+02</pdfrwt>
<totfact> 0.73743133E+02</totfact>
</mgrwt>
</event>
<event>
 4    1  0.4940461E-001  0.1559486E+03  0.7546771E-02  0.1193348E+00
         -1   -1    0    0    0  501 -0.00000000000E+00  0.00000000000E+00  0.74956765543E+02  0.74956765543E+02  0.00000000000E+00 0.  1.
          1   -1    0    0  501    0  0.00000000000E+00 -0.00000000000E+00 -0.32568419768E+03  0.32568419768E+03  0.00000000000E+00 0. -1.
         24    1    1    2    0    0  0.56894013906E+02 -0.12089594087E+03 -0.11304883863E+03  0.19261363713E+03  0.80419002446E+02 0. -1.
        -24    1    1    2    0    0 -0.56894013906E+02  0.12089594087E+03 -0.13767859351E+03  0.20802732610E+03  0.80419002446E+02 0.  1.
<mgrwt>
<rscale>  0 0.15594862E+03</rscale>
<asrwt>0</asrwt>
<pdfrwt beam="1">  1        1 0.50105260E-01 0.15594862E+03</pdfrwt>
<pdfrwt beam="2">  1       -1 0.11531810E-01 0.15594862E+03</pdfrwt>
<totfact> 0.37408617E+03</totfact>
</mgrwt>
</event>
<event>
 4    1  0.4940461E-001  0.9717149E+02  0.7546771E-02  0.1286359E+00
          2   -1    0    0  501    0  0.00000000000E+00  0.00000000000E+00  0.44918294772E+03  0.44918294772E+03  0.00000000000E+00 0. -1.
         -2   -1    0    0    0  501 -0.00000000000E+00 -0.00000000000E+00 -0.21317542066E+02  0.21317542066E+02  0.00000000000E+00 0.  1.
         24    1    1    2    0    0  0.23279610117E+02 -0.49326900516E+02  0.24167641774E+03  0.26047992285E+03  0.80419002446E+02 0. -1.
        -24    1    1    2    0    0 -0.23279610117E+02  0.49326900516E+02  0.18618898792E+03  0.21002056694E+03  0.80419002446E+02 0.  1.
<mgrwt>
<rscale>  0 0.97171494E+02</rscale>
<asrwt>0</asrwt>
<pdfrwt beam="1">  1        2 0.69105062E-01 0.97171494E+02</pdfrwt>
<pdfrwt beam="2">  1       -2 0.32796222E-02 0.97171494E+02</pdfrwt>
<totfact> 0.23576186E+04</totfact>
</mgrwt>
</event>
<event>
 4    1  0.4940461E-001  0.8547728E+02  0.7546771E-02  0.1314189E+00
         -2   -1    0    0    0  501 -0.00000000000E+00  0.00000000000E+00  0.87757334892E+01  0.87757334892E+01  0.00000000000E+00 0.  1.
          2   -1    0    0  501    0  0.00000000000E+00 -0.00000000000E+00 -0.11372516354E+04  0.11372516354E+04  0.00000000000E+00 0. -1.
         24    1    1    2    0    0  0.28383033010E+02 -0.57925132359E+01 -0.86083282483E+03  0.86506619286E+03  0.80419002446E+02 0. -1.
        -24    1    1    2    0    0 -0.28383033010E+02  0.57925132359E+01 -0.26764307713E+03  0.28096117607E+03  0.80419002446E+02 0.  1.
<mgrwt>
<rscale>  0 0.85477282E+02</rscale>
<asrwt>0</asrwt>
<pdfrwt beam="1">  1        2 0.17496172E+00 0.85477282E+02</pdfrwt>
<pdfrwt beam="2">  1       -2 0.13501134E-02 0.85477282E+02</pdfrwt>
<totfact> 0.27352081E+04</totfact>
</mgrwt>
</event>
<event>
 4    1  0.4940461E-001  0.9214304E+02  0.7546771E-02  0.1297743E+00
         -1   -1    0    0    0  501 -0.00000000000E+00  0.00000000000E+00  0.35321324251E+02  0.35321324251E+02  0.00000000000E+00 0.  1.
          1   -1    0    0  501    0  0.00000000000E+00 -0.00000000000E+00 -0.24492623958E+03  0.24492623958E+03  0.00000000000E+00 0. -1.
         24    1    1    2    0    0 -0.19011220199E+02  0.40763915067E+02 -0.85699896901E+02  0.12583644761E+03  0.80419002446E+02 0.  1.
        -24    1    1    2    0    0  0.19011220199E+02 -0.40763915067E+02 -0.12390501843E+03  0.15441111622E+03  0.80419002446E+02 0. -1.
<mgrwt>
<rscale>  0 0.92143037E+02</rscale>
<asrwt>0</asrwt>
<pdfrwt beam="1">  1        1 0.37680960E-01 0.92143037E+02</pdfrwt>
<pdfrwt beam="2">  1       -1 0.54340499E-02 0.92143037E+02</pdfrwt>
<totfact> 0.15859416E+04</totfact>
</mgrwt>
</event>
<event>
 4    1  0.4940461E-001  0.9353094E+02  0.7546771E-02  0.1294520E+00
         -1   -1    0    0    0  501 -0.00000000000E+00  0.00000000000E+00  0.25269962246E+02  0.25269962246E+02  0.00000000000E+00 0.  1.
          1   -1    0    0  501    0  0.00000000000E+00 -0.00000000000E+00 -0.34810136110E+03  0.34810136110E+03  0.00000000000E+00 0. -1.
         24    1    1    2    0    0 -0.32027831835E+02  0.35426453850E+02 -0.17527438759E+03  0.19866842362E+03  0.80419002446E+02 0. -1.
        -24    1    1    2    0    0  0.32027831835E+02 -0.35426453850E+02 -0.14755701126E+03  0.17470289972E+03  0.80419002446E+02 0.  1.
<mgrwt>
<rscale>  0 0.93530924E+02</rscale>
<asrwt>0</asrwt>
<pdfrwt beam="1">  1        1 0.53554057E-01 0.93530936E+02</pdfrwt>
<pdfrwt beam="2">  1       -1 0.38876864E-02 0.93530936E+02</pdfrwt>
<totfact> 0.16848868E+04</totfact>
</mgrwt>
</event>
<event>
 4    1  0.4940461E-001  0.8512434E+02  0.7546771E-02  0.1315108E+00
         -1   -1    0    0    0  501 -0.00000000000E+00  0.00000000000E+00  0.20891286543E+02  0.20891286543E+02  0.00000000000E+00 0.  1.
          1   -1    0    0  501    0  0.00000000000E+00 -0.00000000000E+00 -0.64872939871E+03  0.64872939871E+03  0.00000000000E+00 0. -1.
         24    1    1    2    0    0  0.21569760996E+02  0.17711112297E+02 -0.85525721949E+02  0.12066815304E+03  0.80419002446E+02 0.  1.
        -24    1    1    2    0    0 -0.21569760996E+02 -0.17711112297E+02 -0.54231239022E+03  0.54895253222E+03  0.80419002446E+02 0.  1.
<mgrwt>
<rscale>  0 0.85124345E+02</rscale>
<asrwt>0</asrwt>
<pdfrwt beam="1">  1        1 0.99804505E-01 0.85124345E+02</pdfrwt>
<pdfrwt beam="2">  1       -1 0.32140447E-02 0.85124345E+02</pdfrwt>
<totfact> 0.99111898E+03</totfact>
</mgrwt>
</event>
<event>
 4    1  0.4940461E-001  0.9158595E+02  0.7546771E-02  0.1299056E+00
          2   -1    0    0  501    0  0.00000000000E+00  0.00000000000E+00  0.12862159756E+04  0.12862159756E+04  0.00000000000E+00 0. -1.
         -2   -1    0    0    0  501 -0.00000000000E+00 -0.00000000000E+00 -0.65627365858E+01  0.65627365858E+01  0.00000000000E+00 0.  1.
         24    1    1    2    0    0  0.42689792732E+02 -0.99172673248E+01  0.69109897668E+03  0.69714114935E+03  0.80419002446E+02 0.  0.
        -24    1    1    2    0    0 -0.42689792732E+02  0.99172673248E+01  0.58855426233E+03  0.59563756283E+03  0.80419002446E+02 0. -1.
<mgrwt>
<rscale>  0 0.91585952E+02</rscale>
<asrwt>0</asrwt>
<pdfrwt beam="1">  1        2 0.19787918E+00 0.91585952E+02</pdfrwt>
<pdfrwt beam="2">  1       -2 0.10096528E-02 0.91585952E+02</pdfrwt>
<totfact> 0.34529231E+04</totfact>
</mgrwt>
</event>
<event>
 4    1  0.4940461E-001  0.8382782E+02  0.7546771E-02  0.1318527E+00
          4   -1    0    0  501    0  0.00000000000E+00  0.00000000000E+00  0.23075124316E+02  0.23075124316E+02  0.00000000000E+00 0. -1.
         -4   -1    0    0    0  501 -0.00000000000E+00 -0.00000000000E+00 -0.39670645901E+03  0.39670645901E+03  0.00000000000E+00 0.  1.
         24    1    1    2    0    0 -0.29773909084E+01 -0.23473875939E+02 -0.85642562226E+02  0.11984052790E+03  0.80419002446E+02 0. -1.
        -24    1    1    2    0    0  0.29773909084E+01  0.23473875939E+02 -0.28798877247E+03  0.29994105543E+03  0.80419002446E+02 0.  1.
<mgrwt>
<rscale>  0 0.83827822E+02</rscale>
<asrwt>0</asrwt>
<pdfrwt beam="1">  1        4 0.35500194E-02 0.83827822E+02</pdfrwt>
<pdfrwt beam="2">  1       -4 0.61031758E-01 0.83827822E+02</pdfrwt>
<totfact> 0.15506649E+03</totfact>
</mgrwt>
</event>
<event>
 4    1  0.4940461E-001  0.8590423E+02  0.7546771E-02  0.1313085E+00
          2   -1    0    0  501    0  0.00000000000E+00  0.00000000000E+00  0.89534498138E+02  0.89534498138E+02  0.00000000000E+00 0. -1.
         -2   -1    0    0    0  501 -0.00000000000E+00 -0.00000000000E+00 -0.82960204522E+02  0.82960204522E+02  0.00000000000E+00 0.  1.
         24    1    1    2    0    0 -0.26115815536E+02 -0.15175144926E+02  0.10239390179E+02  0.86512322303E+02  0.80419002446E+02 0.  0.
        -24    1    1    2    0    0  0.26115815536E+02  0.15175144926E+02 -0.36650965627E+01  0.85982380357E+02  0.80419002446E+02 0.  1.
<mgrwt>
<rscale>  0 0.85904230E+02</rscale>
<asrwt>0</asrwt>
<pdfrwt beam="1">  1        2 0.13774538E-01 0.85904230E+02</pdfrwt>
<pdfrwt beam="2">  1       -2 0.12763108E-01 0.85904230E+02</pdfrwt>
<totfact> 0.17087386E+04</totfact>
</mgrwt>
</event>
<event>
 4    1  0.4940461E-001  0.1049044E+03  0.7546771E-02  0.1270308E+00
         -2   -1    0    0    0  501 -0.00000000000E+00  0.00000000000E+00  0.63534850742E+02  0.63534850742E+02  0.00000000000E+00 0.  1.
          2   -1    0    0  501    0  0.00000000000E+00 -0.00000000000E+00 -0.21296682704E+03  0.21296682704E+03  0.00000000000E+00 0. -1.
         24    1    1    2    0    0 -0.54991087927E+01 -0.67137695951E+02 -0.13444879682E+03  0.17053271045E+03  0.80419002446E+02 0. -1.
        -24    1    1    2    0    0  0.54991087927E+01  0.67137695951E+02 -0.14983179483E+02  0.10596896733E+03  0.80419002446E+02 0.  1.
<mgrwt>
<rscale>  0 0.10490437E+03</rscale>
<asrwt>0</asrwt>
<pdfrwt beam="1">  1        2 0.32764127E-01 0.10490437E+03</pdfrwt>
<pdfrwt beam="2">  1       -2 0.97745925E-02 0.10490437E+03</pdfrwt>
<totfact> 0.10107895E+04</totfact>
</mgrwt>
</event>
<event>
 4    1  0.4940461E-001  0.8097226E+02  0.7546771E-02  0.1326315E+00
         -2   -1    0    0    0  501 -0.00000000000E+00  0.00000000000E+00  0.20744675975E+03  0.20744675975E+03  0.00000000000E+00 0.  1.
          2   -1    0    0  501    0  0.00000000000E+00 -0.00000000000E+00 -0.48010324075E+02  0.48010324075E+02  0.00000000000E+00 0. -1.
         24    1    1    2    0    0  0.88719328839E+01  0.32525925383E+01  0.50555738273E+01  0.81129928710E+02  0.80419002446E+02 0.  0.
        -24    1    1    2    0    0 -0.88719328839E+01 -0.32525925383E+01  0.15438086185E+03  0.17432715512E+03  0.80419002446E+02 0.  0.
<mgrwt>
<rscale>  0 0.80972258E+02</rscale>
<asrwt>0</asrwt>
<pdfrwt beam="1">  1        2 0.73862038E-02 0.80972258E+02</pdfrwt>
<pdfrwt beam="2">  1       -2 0.31914886E-01 0.80972258E+02</pdfrwt>
<totfact> 0.77231300E+03</totfact>
</mgrwt>
</event>
<event>
 4    1  0.4940461E-001  0.1083309E+03  0.7546771E-02  0.1263692E+00
         -1   -1    0    0    0  501 -0.00000000000E+00  0.00000000000E+00  0.23393280369E+04  0.23393280369E+04  0.00000000000E+00 0.  1.
          1   -1    0    0  501    0  0.00000000000E+00 -0.00000000000E+00 -0.53414441239E+01  0.53414441239E+01  0.00000000000E+00 0. -1.
         24    1    1    2    0    0 -0.72061699581E+02 -0.86872764075E+01  0.14560820198E+04  0.14601063049E+04  0.80419002446E+02 0.  1.
        -24    1    1    2    0    0  0.72061699581E+02  0.86872764075E+01  0.87790457295E+03  0.88456317608E+03  0.80419002446E+02 0. -1.
<mgrwt>
<rscale>  0 0.10833085E+03</rscale>
<asrwt>0</asrwt>
<pdfrwt beam="1">  1        1 0.82176250E-03 0.10833085E+03</pdfrwt>
<pdfrwt beam="2">  1       -1 0.35989580E+00 0.10833085E+03</pdfrwt>
<totfact> 0.34459004E+02</totfact>
</mgrwt>
</event>
<event>
 4    1  0.4940461E-001  0.8124303E+02  0.7546771E-02  0.1325560E+00
         -1   -1    0    0    0  501 -0.00000000000E+00  0.00000000000E+00  0.22095674902E+01  0.22095674902E+01  0.00000000000E+00 0.  1.
          1   -1    0    0  501    0  0.00000000000E+00 -0.00000000000E+00 -0.34835490543E+04  0.34835490543E+04  0.00000000000E+00 0. -1.
         24    1    1    2    0    0  0.27563985698E+01 -0.11207833918E+02 -0.10827875635E+04  0.10858311733E+04  0.80419002446E+02 0.  0.
        -24    1    1    2    0    0 -0.27563985698E+01  0.11207833918E+02 -0.23985519232E+04  0.23999274484E+04  0.80419002446E+02 0. -1.
<mgrwt>
<rscale>  0 0.81243026E+02</rscale>
<asrwt>0</asrwt>
<pdfrwt beam="1">  1        1 0.53592950E+00 0.81243026E+02</pdfrwt>
<pdfrwt beam="2">  1       -1 0.33993418E-03 0.81243026E+02</pdfrwt>
<totfact> 0.28806225E+03</totfact>
</mgrwt>
</event>
<event>
 4    1  0.4940461E-001  0.8895023E+02  0.7546771E-02  0.1305414E+00
          2   -1    0    0  501    0  0.00000000000E+00  0.00000000000E+00  0.83711963860E+02  0.83711963860E+02  0.00000000000E+00 0. -1.
         -2   -1    0    0    0  501 -0.00000000000E+00 -0.00000000000E+00 -0.26377504609E+03  0.26377504609E+03  0.00000000000E+00 0.  1.
         24    1    1    2    0    0  0.32169526641E+02 -0.20249652022E+02  0.49145410268E+02  0.10162388576E+03  0.80419002446E+02 0. -1.
        -24    1    1    2    0    0 -0.32169526641E+02  0.20249652022E+02 -0.22920849250E+03  0.24586312420E+03  0.80419002446E+02 0.  1.
<mgrwt>
<rscale>  0 0.88950227E+02</rscale>
<asrwt>0</asrwt>
<pdfrwt beam="1">  1        2 0.12878764E-01 0.88950227E+02</pdfrwt>
<pdfrwt beam="2">  1       -2 0.40580776E-01 0.88950227E+02</pdfrwt>
<totfact> 0.25516841E+03</totfact>
</mgrwt>
</event>
<event>
 4    1  0.4940461E-001  0.9331278E+02  0.7546771E-02  0.1295022E+00
         -2   -1    0    0    0  501 -0.00000000000E+00  0.00000000000E+00  0.25657080491E+02  0.25657080491E+02  0.00000000000E+00 0.  1.
          2   -1    0    0  501    0  0.00000000000E+00 -0.00000000000E+00 -0.45356407058E+03  0.45356407058E+03  0.00000000000E+00 0. -1.
         24    1    1    2    0    0  0.26541303158E+02 -0.39186954745E+02 -0.33418164343E+03  0.34696490450E+03  0.80419002446E+02 0. -1.
        -24    1    1    2    0    0 -0.26541303158E+02  0.39186954745E+02 -0.93725346653E+02  0.13225624656E+03  0.80419002446E+02 0.  1.
<mgrwt>
<rscale>  0 0.93312776E+02</rscale>
<asrwt>0</asrwt>
<pdfrwt beam="1">  1        2 0.69779086E-01 0.93312776E+02</pdfrwt>
<pdfrwt beam="2">  1       -2 0.39472432E-02 0.93312776E+02</pdfrwt>
<totfact> 0.17712651E+04</totfact>
</mgrwt>
</event>
<event>
 4    1  0.4940461E-001  0.8931648E+02  0.7546771E-02  0.1304515E+00
         -2   -1    0    0    0  501 -0.00000000000E+00  0.00000000000E+00  0.11493747703E+02  0.11493747703E+02  0.00000000000E+00 0.  1.
          2   -1    0    0  501    0  0.00000000000E+00 -0.00000000000E+00 -0.75956653265E+03  0.75956653265E+03  0.00000000000E+00 0. -1.
         24    1    1    2    0    0 -0.58137450798E+01  0.38424175250E+02 -0.48724879184E+03  0.49536735660E+03  0.80419002446E+02 0. -1.
        -24    1    1    2    0    0  0.58137450798E+01 -0.38424175250E+02 -0.26082399310E+03  0.27569292375E+03  0.80419002446E+02 0.  1.
<mgrwt>
<rscale>  0 0.89316476E+02</rscale>
<asrwt>0</asrwt>
<pdfrwt beam="1">  1        2 0.11685639E+00 0.89316476E+02</pdfrwt>
<pdfrwt beam="2">  1       -2 0.17682688E-02 0.89316476E+02</pdfrwt>
<totfact> 0.31688813E+04</totfact>
</mgrwt>
</event>
<event>
 4    1  0.4940461E-001  0.9289937E+02  0.7546771E-02  0.1295979E+00
          4   -1    0    0  501    0  0.00000000000E+00  0.00000000000E+00  0.50480515554E+03  0.50480515554E+03  0.00000000000E+00 0. -1.
         -4   -1    0    0    0  501 -0.00000000000E+00 -0.00000000000E+00 -0.18660819839E+02  0.18660819839E+02  0.00000000000E+00 0.  1.
         24    1    1    2    0    0 -0.34157753635E+02  0.31564622458E+02  0.31885756620E+03  0.33211510204E+03  0.80419002446E+02 0. -1.
        -24    1    1    2    0    0  0.34157753635E+02 -0.31564622458E+02  0.16728676951E+03  0.19135087335E+03  0.80419002446E+02 0.  1.
<mgrwt>
<rscale>  0 0.92899373E+02</rscale>
<asrwt>0</asrwt>
<pdfrwt beam="1">  1        4 0.77662321E-01 0.92899373E+02</pdfrwt>
<pdfrwt beam="2">  1       -4 0.28708957E-02 0.92899373E+02</pdfrwt>
<totfact> 0.13263398E+03</totfact>
</mgrwt>
</event>
<event>
 4    1  0.4940461E-001  0.8086455E+02  0.7546771E-02  0.1326616E+00
         -1   -1    0    0    0  501 -0.00000000000E+00  0.00000000000E+00  0.14911684340E+03  0.14911684340E+03  0.00000000000E+00 0.  1.
          1   -1    0    0  501    0  0.00000000000E+00 -0.00000000000E+00 -0.46189551260E+02  0.46189551260E+02  0.00000000000E+00 0. -1.
         24    1    1    2    0    0  0.39457969759E+01 -0.75026330851E+01  0.73431788058E+02  0.10923050063E+03  0.80419002446E+02 0.  0.
        -24    1    1    2    0    0 -0.39457969759E+01  0.75026330851E+01  0.29495504082E+02  0.86075894026E+02  0.80419002446E+02 0. -1.
<mgrwt>
<rscale>  0 0.80864546E+02</rscale>
<asrwt>0</asrwt>
<pdfrwt beam="1">  1        1 0.71060849E-02 0.80864546E+02</pdfrwt>
<pdfrwt beam="2">  1       -1 0.22941053E-01 0.80864546E+02</pdfrwt>
<totfact> 0.14507601E+04</totfact>
</mgrwt>
</event>
<event>
 4    1  0.4940461E-001  0.8508666E+02  0.7546771E-02  0.1315206E+00
          1   -1    0    0  501    0  0.00000000000E+00  0.00000000000E+00  0.22716275612E+03  0.22716275612E+03  0.00000000000E+00 0. -1.
         -1   -1    0    0    0  501 -0.00000000000E+00 -0.00000000000E+00 -0.32041722252E+02  0.32041722252E+02  0.00000000000E+00 0.  1.
         24    1    1    2    0    0  0.26902743366E+02 -0.69829907912E+01  0.10704122957E+03  0.13673902348E+03  0.80419002446E+02 0.  0.
        -24    1    1    2    0    0 -0.26902743366E+02  0.69829907912E+01  0.88079804296E+02  0.12246545489E+03  0.80419002446E+02 0.  0.
<mgrwt>
<rscale>  0 0.85086647E+02</rscale>
<asrwt>0</asrwt>
<pdfrwt beam="1">  1        1 0.34948115E-01 0.85086658E+02</pdfrwt>
<pdfrwt beam="2">  1       -1 0.49294959E-02 0.85086658E+02</pdfrwt>
<totfact> 0.19881687E+04</totfact>
</mgrwt>
</event>
<event>
 4    1  0.4940461E-001  0.8943483E+02  0.7546771E-02  0.1304226E+00
         -1   -1    0    0    0  501 -0.00000000000E+00  0.00000000000E+00  0.10494153374E+02  0.10494153374E+02  0.00000000000E+00 0.  1.
          1   -1    0    0  501    0  0.00000000000E+00 -0.00000000000E+00 -0.77718892896E+03  0.77718892896E+03  0.00000000000E+00 0. -1.
         24    1    1    2    0    0 -0.13981809714E+02 -0.36549706988E+02 -0.32864322825E+03  0.34059500805E+03  0.80419002446E+02 0.  0.
        -24    1    1    2    0    0  0.13981809714E+02  0.36549706988E+02 -0.43805154734E+03  0.44708807429E+03  0.80419002446E+02 0.  1.
<mgrwt>
<rscale>  0 0.89434826E+02</rscale>
<asrwt>0</asrwt>
<pdfrwt beam="1">  1        1 0.11956754E+00 0.89434826E+02</pdfrwt>
<pdfrwt beam="2">  1       -1 0.16144849E-02 0.89434826E+02</pdfrwt>
<totfact> 0.20636072E+04</totfact>
</mgrwt>
</event>
<event>
 4    1  0.4940461E-001  0.8953422E+02  0.7546771E-02  0.1303984E+00
          1   -1    0    0  501    0  0.00000000000E+00  0.00000000000E+00  0.14931945868E+03  0.14931945868E+03  0.00000000000E+00 0. -1.
         -1   -1    0    0    0  501 -0.00000000000E+00 -0.00000000000E+00 -0.72460823116E+02  0.72460823116E+02  0.00000000000E+00 0.  1.
         24    1    1    2    0    0  0.26360644754E+02  0.29228014268E+02 -0.18016050194E+02  0.91328825838E+02  0.80419002446E+02 0.  1.
        -24    1    1    2    0    0 -0.26360644754E+02 -0.29228014268E+02  0.94874685759E+02  0.13045145596E+03  0.80419002446E+02 0. -1.
<mgrwt>
<rscale>  0 0.89534219E+02</rscale>
<asrwt>0</asrwt>
<pdfrwt beam="1">  1        1 0.22972224E-01 0.89534219E+02</pdfrwt>
<pdfrwt beam="2">  1       -1 0.11147819E-01 0.89534219E+02</pdfrwt>
<totfact> 0.99569693E+03</totfact>
</mgrwt>
</event>
<event>
 4    1  0.4940461E-001  0.8355296E+02  0.7546771E-02  0.1319261E+00
         -2   -1    0    0    0  501 -0.00000000000E+00  0.00000000000E+00  0.45773455343E+02  0.45773455343E+02  0.00000000000E+00 0.  1.
          2   -1    0    0  501    0  0.00000000000E+00 -0.00000000000E+00 -0.17880182262E+03  0.17880182262E+03  0.00000000000E+00 0. -1.
         24    1    1    2    0    0 -0.21471646038E+02 -0.72697770522E+01 -0.10956907406E+03  0.13779143365E+03  0.80419002446E+02 0. -1.
        -24    1    1    2    0    0  0.21471646038E+02  0.72697770522E+01 -0.23459293221E+02  0.86783844319E+02  0.80419002446E+02 0.  1.
<mgrwt>
<rscale>  0 0.83552960E+02</rscale>
<asrwt>0</asrwt>
<pdfrwt beam="1">  1        2 0.27507973E-01 0.83552960E+02</pdfrwt>
<pdfrwt beam="2">  1       -2 0.70420701E-02 0.83552960E+02</pdfrwt>
<totfact> 0.19709744E+04</totfact>
</mgrwt>
</event>
<event>
 4    1  0.4940461E-001  0.1047566E+03  0.7546771E-02  0.1270600E+00
         -2   -1    0    0    0  501 -0.00000000000E+00  0.00000000000E+00  0.21434212313E+02  0.21434212313E+02  0.00000000000E+00 0.  1.
          2   -1    0    0  501    0  0.00000000000E+00 -0.00000000000E+00 -0.70552373274E+03  0.70552373274E+03  0.00000000000E+00 0. -1.
         24    1    1    2    0    0 -0.20145188339E+02 -0.64038343149E+02 -0.53241961399E+03  0.54262749591E+03  0.80419002446E+02 0. -1.
        -24    1    1    2    0    0  0.20145188339E+02  0.64038343149E+02 -0.15166990644E+03  0.18433044914E+03  0.80419002446E+02 0.  1.
<mgrwt>
<rscale>  0 0.10475664E+03</rscale>
<asrwt>0</asrwt>
<pdfrwt beam="1">  1        2 0.10854208E+00 0.10475664E+03</pdfrwt>
<pdfrwt beam="2">  1       -2 0.32975720E-02 0.10475664E+03</pdfrwt>
<totfact> 0.14247054E+04</totfact>
</mgrwt>
</event>
<event>
 4    1  0.4940461E-001  0.1017602E+03  0.7546771E-02  0.1276637E+00
          3   -1    0    0  501    0  0.00000000000E+00  0.00000000000E+00  0.95631224223E+03  0.95631224223E+03  0.00000000000E+00 0. -1.
         -3   -1    0    0    0  501 -0.00000000000E+00 -0.00000000000E+00 -0.12500227134E+02  0.12500227134E+02  0.00000000000E+00 0.  1.
         24    1    1    2    0    0  0.60970617017E+02 -0.13057928588E+02  0.64906868953E+03  0.65699718822E+03  0.80419002446E+02 0.  0.
        -24    1    1    2    0    0 -0.60970617017E+02  0.13057928588E+02  0.29474332557E+03  0.31181528115E+03  0.80419002446E+02 0. -1.
<mgrwt>
<rscale>  0 0.10176023E+03</rscale>
<asrwt>0</asrwt>
<pdfrwt beam="1">  1        3 0.14712490E+00 0.10176024E+03</pdfrwt>
<pdfrwt beam="2">  1       -3 0.19231126E-02 0.10176024E+03</pdfrwt>
<totfact> 0.80828661E+02</totfact>
</mgrwt>
</event>
<event>
 4    1  0.4940461E-001  0.1209528E+03  0.7546771E-02  0.1241533E+00
          1   -1    0    0  501    0  0.00000000000E+00  0.00000000000E+00  0.76370183742E+02  0.76370183742E+02  0.00000000000E+00 0. -1.
         -1   -1    0    0    0  501 -0.00000000000E+00 -0.00000000000E+00 -0.19968526163E+03  0.19968526163E+03  0.00000000000E+00 0.  1.
         24    1    1    2    0    0 -0.64039521522E+02  0.63728338334E+02 -0.89497925043E+02  0.15046413514E+03  0.80419002446E+02 0. -1.
        -24    1    1    2    0    0  0.64039521522E+02 -0.63728338334E+02 -0.33817152843E+02  0.12559131023E+03  0.80419002446E+02 0.  1.
<mgrwt>
<rscale>  0 0.12095279E+03</rscale>
<asrwt>0</asrwt>
<pdfrwt beam="1">  1        1 0.11749259E-01 0.12095279E+03</pdfrwt>
<pdfrwt beam="2">  1       -1 0.30720809E-01 0.12095279E+03</pdfrwt>
<totfact> 0.47972251E+03</totfact>
</mgrwt>
</event>
<event>
 4    1  0.4940461E-001  0.1340875E+03  0.7546771E-02  0.1221514E+00
          4   -1    0    0  501    0  0.00000000000E+00  0.00000000000E+00  0.10278354762E+03  0.10278354762E+03  0.00000000000E+00 0. -1.
         -4   -1    0    0    0  501 -0.00000000000E+00 -0.00000000000E+00 -0.17649534991E+03  0.17649534991E+03  0.00000000000E+00 0.  1.
         24    1    1    2    0    0 -0.19775251723E+02 -0.10545699240E+03 -0.50025834660E+02  0.14311547057E+03  0.80419002446E+02 0.  0.
        -24    1    1    2    0    0  0.19775251723E+02  0.10545699240E+03 -0.23685967626E+02  0.13616342697E+03  0.80419002446E+02 0.  0.
<mgrwt>
<rscale>  0 0.13408750E+03</rscale>
<asrwt>0</asrwt>
<pdfrwt beam="1">  1        4 0.15812853E-01 0.13408752E+03</pdfrwt>
<pdfrwt beam="2">  1       -4 0.27153131E-01 0.13408752E+03</pdfrwt>
<totfact> 0.72774826E+02</totfact>
</mgrwt>
</event>
<event>
 4    1  0.4940461E-001  0.1033749E+03  0.7546771E-02  0.1273355E+00
         -2   -1    0    0    0  501 -0.00000000000E+00  0.00000000000E+00  0.44864372995E+03  0.44864372995E+03  0.00000000000E+00 0.  1.
          2   -1    0    0  501    0  0.00000000000E+00 -0.00000000000E+00 -0.35684973406E+02  0.35684973406E+02  0.00000000000E+00 0. -1.
         24    1    1    2    0    0  0.63622088424E+02  0.13091007738E+02  0.66837881646E+02  0.12310021526E+03  0.80419002446E+02 0. -1.
        -24    1    1    2    0    0 -0.63622088424E+02 -0.13091007738E+02  0.34612087490E+03  0.36122848810E+03  0.80419002446E+02 0.  1.
<mgrwt>
<rscale>  0 0.10337485E+03</rscale>
<asrwt>0</asrwt>
<pdfrwt beam="1">  1        2 0.54899962E-02 0.10337485E+03</pdfrwt>
<pdfrwt beam="2">  1       -2 0.69022108E-01 0.10337485E+03</pdfrwt>
<totfact> 0.25675315E+03</totfact>
</mgrwt>
</event>
<event>
 4    1  0.4940461E-001  0.8819572E+02  0.7546771E-02  0.1307281E+00
          1   -1    0    0  501    0  0.00000000000E+00  0.00000000000E+00  0.66216323669E+03  0.66216323669E+03  0.00000000000E+00 0. -1.
         -1   -1    0    0    0  501 -0.00000000000E+00 -0.00000000000E+00 -0.12557970480E+02  0.12557970480E+02  0.00000000000E+00 0.  1.
         24    1    1    2    0    0 -0.26938781994E+02 -0.24198486603E+02  0.41052956603E+03  0.41989642207E+03  0.80419002446E+02 0.  1.
        -24    1    1    2    0    0  0.26938781994E+02  0.24198486603E+02  0.23907570018E+03  0.25482478510E+03  0.80419002446E+02 0. -1.
<mgrwt>
<rscale>  0 0.88195706E+02</rscale>
<asrwt>0</asrwt>
<pdfrwt beam="1">  1        1 0.10187124E+00 0.88195717E+02</pdfrwt>
<pdfrwt beam="2">  1       -1 0.19319960E-02 0.88195717E+02</pdfrwt>
<totfact> 0.20035800E+04</totfact>
</mgrwt>
</event>
<event>
 4    1  0.4940461E-001  0.8939220E+02  0.7546771E-02  0.1304330E+00
          1   -1    0    0  501    0  0.00000000000E+00  0.00000000000E+00  0.85183437224E+02  0.85183437224E+02  0.00000000000E+00 0. -1.
         -1   -1    0    0    0  501 -0.00000000000E+00 -0.00000000000E+00 -0.93950320971E+02  0.93950320971E+02  0.00000000000E+00 0.  1.
         24    1    1    2    0    0  0.38665110794E+02 -0.53627607040E+01 -0.78582424390E+01  0.89736937343E+02  0.80419002446E+02 0.  0.
        -24    1    1    2    0    0 -0.38665110794E+02  0.53627607040E+01 -0.90864130779E+00  0.89396820852E+02  0.80419002446E+02 0.  1.
<mgrwt>
<rscale>  0 0.89392203E+02</rscale>
<asrwt>0</asrwt>
<pdfrwt beam="1">  1        1 0.13105144E-01 0.89392203E+02</pdfrwt>
<pdfrwt beam="2">  1       -1 0.14453896E-01 0.89392203E+02</pdfrwt>
<totfact> 0.13614166E+04</totfact>
</mgrwt>
</event>
<event>
 4    1  0.4940461E-001  0.9175000E+02  0.7546771E-02  0.1298668E+00
          2   -1    0    0  501    0  0.00000000000E+00  0.00000000000E+00  0.96633575209E+03  0.96633575209E+03  0.00000000000E+00 0. -1.
         -2   -1    0    0    0  501 -0.00000000000E+00 -0.00000000000E+00 -0.95230747269E+01  0.95230747269E+01  0.00000000000E+00 0.  1.
         24    1    1    2    0    0  0.25257416715E+02 -0.36234088374E+02  0.62086215748E+03  0.62760487634E+03  0.80419002446E+02 0. -1.
        -24    1    1    2    0    0 -0.25257416715E+02  0.36234088374E+02  0.33595051988E+03  0.34825395048E+03  0.80419002446E+02 0.  1.
<mgrwt>
<rscale>  0 0.91749998E+02</rscale>
<asrwt>0</asrwt>
<pdfrwt beam="1">  1        2 0.14866696E+00 0.91749998E+02</pdfrwt>
<pdfrwt beam="2">  1       -2 0.14650892E-02 0.91749998E+02</pdfrwt>
<totfact> 0.30710133E+04</totfact>
</mgrwt>
</event>
<event>
 4    1  0.4940461E-001  0.1897462E+03  0.7546771E-02  0.1158690E+00
         -2   -1    0    0    0  501 -0.00000000000E+00  0.00000000000E+00  0.31627770182E+03  0.31627770182E+03  0.00000000000E+00 0.  1.
          2   -1    0    0  501    0  0.00000000000E+00 -0.00000000000E+00 -0.28093586413E+03  0.28093586413E+03  0.00000000000E+00 0. -1.
         24    1    1    2    0    0 -0.56763475338E+02  0.16221690521E+03 -0.21262421741E+03  0.28497840313E+03  0.80419002446E+02 0. -1.
        -24    1    1    2    0    0  0.56763475338E+02 -0.16221690521E+03  0.24796605510E+03  0.31223516282E+03  0.80419002446E+02 0.  1.
<mgrwt>
<rscale>  0 0.18974623E+03</rscale>
<asrwt>0</asrwt>
<pdfrwt beam="1">  1        2 0.43220902E-01 0.18974623E+03</pdfrwt>
<pdfrwt beam="2">  1       -2 0.48658108E-01 0.18974623E+03</pdfrwt>
<totfact> 0.47835289E+02</totfact>
</mgrwt>
</event>
<event>
 4    1  0.4940461E-001  0.8057752E+02  0.7546771E-02  0.1327420E+00
         -2   -1    0    0    0  501 -0.00000000000E+00  0.00000000000E+00  0.11753660982E+02  0.11753660982E+02  0.00000000000E+00 0.  1.
          2   -1    0    0  501    0  0.00000000000E+00 -0.00000000000E+00 -0.57279939716E+03  0.57279939716E+03  0.00000000000E+00 0. -1.
         24    1    1    2    0    0  0.37314253540E+01 -0.34054970225E+01 -0.33567828011E+03  0.34521391142E+03  0.80419002446E+02 0. -1.
        -24    1    1    2    0    0 -0.37314253540E+01  0.34054970225E+01 -0.22536745606E+03  0.23933914672E+03  0.80419002446E+02 0.  0.
<mgrwt>
<rscale>  0 0.80577521E+02</rscale>
<asrwt>0</asrwt>
<pdfrwt beam="1">  1        2 0.88123003E-01 0.80577521E+02</pdfrwt>
<pdfrwt beam="2">  1       -2 0.18082552E-02 0.80577521E+02</pdfrwt>
<totfact> 0.41904432E+04</totfact>
</mgrwt>
</event>
<event>
 4    1  0.4940461E-001  0.8857265E+02  0.7546771E-02  0.1306346E+00
         -2   -1    0    0    0  501 -0.00000000000E+00  0.00000000000E+00  0.45615385736E+03  0.45615385736E+03  0.00000000000E+00 0.  1.
          2   -1    0    0  501    0  0.00000000000E+00 -0.00000000000E+00 -0.17199835171E+02  0.17199835171E+02  0.00000000000E+00 0. -1.
         24    1    1    2    0    0 -0.78167277681E+01 -0.36287646293E+02  0.22164890995E+03  0.23869090837E+03  0.80419002446E+02 0.  1.
        -24    1    1    2    0    0  0.78167277681E+01  0.36287646293E+02  0.21730511225E+03  0.23466278416E+03  0.80419002446E+02 0. -1.
<mgrwt>
<rscale>  0 0.88572639E+02</rscale>
<asrwt>0</asrwt>
<pdfrwt beam="1">  1        2 0.26461288E-02 0.88572650E+02</pdfrwt>
<pdfrwt beam="2">  1       -2 0.70177507E-01 0.88572650E+02</pdfrwt>
<totfact> 0.63738772E+03</totfact>
</mgrwt>
</event>
<event>
 4    1  0.4940461E-001  0.9786933E+02  0.7546771E-02  0.1284841E+00
          1   -1    0    0  501    0  0.00000000000E+00  0.00000000000E+00  0.67894736830E+02  0.67894736830E+02  0.00000000000E+00 0. -1.
         -1   -1    0    0    0  501 -0.00000000000E+00 -0.00000000000E+00 -0.16772493721E+03  0.16772493721E+03  0.00000000000E+00 0.  1.
         24    1    1    2    0    0 -0.91799623424E+01  0.55017432678E+02 -0.96873378032E+02  0.13770568954E+03  0.80419002446E+02 0.  0.
        -24    1    1    2    0    0  0.91799623424E+01 -0.55017432678E+02 -0.29568223489E+01  0.97913984496E+02  0.80419002446E+02 0. -1.
<mgrwt>
<rscale>  0 0.97869329E+02</rscale>
<asrwt>0</asrwt>
<pdfrwt beam="1">  1        1 0.10445344E-01 0.97869329E+02</pdfrwt>
<pdfrwt beam="2">  1       -1 0.25803836E-01 0.97869329E+02</pdfrwt>
<totfact> 0.73522794E+03</totfact>
</mgrwt>
</event>
<event>
 4    1  0.4940461E-001  0.9448599E+02  0.7546771E-02  0.1292338E+00
          1   -1    0    0  501    0  0.00000000000E+00  0.00000000000E+00  0.94875138376E+02  0.94875138376E+02  0.00000000000E+00 0. -1.
         -1   -1    0    0    0  501 -0.00000000000E+00 -0.00000000000E+00 -0.18866884988E+03  0.18866884988E+03  0.00000000000E+00 0.  1.
         24    1    1    2    0    0 -0.48483828549E+02  0.10474019018E+02 -0.14727010409E+03  0.17497453020E+03  0.80419002446E+02 0. -1.
        -24    1    1    2    0    0  0.48483828549E+02 -0.10474019018E+02  0.53476392585E+02  0.10856945806E+03  0.80419002446E+02 0.  0.
<mgrwt>
<rscale>  0 0.94485992E+02</rscale>
<asrwt>0</asrwt>
<pdfrwt beam="1">  1        1 0.14596175E-01 0.94485992E+02</pdfrwt>
<pdfrwt beam="2">  1       -1 0.29025976E-01 0.94485992E+02</pdfrwt>
<totfact> 0.39158902E+03</totfact>
</mgrwt>
</event>
<event>
 4    1  0.4940461E-001  0.8417736E+02  0.7546771E-02  0.1317598E+00
          3   -1    0    0  501    0  0.00000000000E+00  0.00000000000E+00  0.18593434192E+02  0.18593434192E+02  0.00000000000E+00 0. -1.
         -3   -1    0    0    0  501 -0.00000000000E+00 -0.00000000000E+00 -0.43184114568E+03  0.43184114568E+03  0.00000000000E+00 0.  1.
         24    1    1    2    0    0 -0.14180678599E+02 -0.20433311320E+02 -0.28382962646E+03  0.29604912543E+03  0.80419002446E+02 0.  1.
        -24    1    1    2    0    0  0.14180678599E+02  0.20433311320E+02 -0.12941808503E+03  0.15438545445E+03  0.80419002446E+02 0. -1.
<mgrwt>
<rscale>  0 0.84177359E+02</rscale>
<asrwt>0</asrwt>
<pdfrwt beam="1">  1        3 0.28605283E-02 0.84177359E+02</pdfrwt>
<pdfrwt beam="2">  1       -3 0.66437101E-01 0.84177359E+02</pdfrwt>
<totfact> 0.25409609E+03</totfact>
</mgrwt>
</event>
<event>
 4    1  0.4940461E-001  0.1141441E+03  0.7546771E-02  0.1253083E+00
          2   -1    0    0  501    0  0.00000000000E+00  0.00000000000E+00  0.15627110353E+04  0.15627110353E+04  0.00000000000E+00 0. -1.
         -2   -1    0    0    0  501 -0.00000000000E+00 -0.00000000000E+00 -0.10161300596E+02  0.10161300596E+02  0.00000000000E+00 0.  1.
         24    1    1    2    0    0  0.57283456846E+02  0.57273577632E+02  0.11094672331E+04  0.11153234573E+04  0.80419002446E+02 0. -1.
        -24    1    1    2    0    0 -0.57283456846E+02 -0.57273577632E+02  0.44308250157E+03  0.45754887856E+03  0.80419002446E+02 0.  1.
<mgrwt>
<rscale>  0 0.11414409E+03</rscale>
<asrwt>0</asrwt>
<pdfrwt beam="1">  1        2 0.24041689E+00 0.11414409E+03</pdfrwt>
<pdfrwt beam="2">  1       -2 0.15632783E-02 0.11414409E+03</pdfrwt>
<totfact> 0.13504481E+04</totfact>
</mgrwt>
</event>
<event>
 4    1  0.4940461E-001  0.1087493E+03  0.7546771E-02  0.1262904E+00
         -2   -1    0    0    0  501 -0.00000000000E+00  0.00000000000E+00  0.19347163308E+02  0.19347163308E+02  0.00000000000E+00 0.  1.
          2   -1    0    0  501    0  0.00000000000E+00 -0.00000000000E+00 -0.15908576810E+04  0.15908576810E+04  0.00000000000E+00 0. -1.
         24    1    1    2    0    0 -0.11649749007E+02  0.72273664479E+02 -0.14175212894E+04  0.14216866818E+04  0.80419002446E+02 0. -1.
        -24    1    1    2    0    0  0.11649749007E+02 -0.72273664479E+02 -0.15398922832E+03  0.18851816258E+03  0.80419002446E+02 0.  1.
<mgrwt>
<rscale>  0 0.10874932E+03</rscale>
<asrwt>0</asrwt>
<pdfrwt beam="1">  1        2 0.24474738E+00 0.10874932E+03</pdfrwt>
<pdfrwt beam="2">  1       -2 0.29764861E-02 0.10874932E+03</pdfrwt>
<totfact> 0.51324988E+03</totfact>
</mgrwt>
</event>
<event>
 4    1  0.4940461E-001  0.8321095E+02  0.7546771E-02  0.1320178E+00
         -2   -1    0    0    0  501 -0.00000000000E+00  0.00000000000E+00  0.79343371418E+02  0.79343371418E+02  0.00000000000E+00 0.  1.
          2   -1    0    0  501    0  0.00000000000E+00 -0.00000000000E+00 -0.13424086815E+03  0.13424086815E+03  0.00000000000E+00 0. -1.
         24    1    1    2    0    0  0.21115146479E+02  0.33162474186E+01 -0.90620760439E+02  0.12302920419E+03  0.80419002446E+02 0. -1.
        -24    1    1    2    0    0 -0.21115146479E+02 -0.33162474186E+01  0.35723263705E+02  0.90555035375E+02  0.80419002446E+02 0.  1.
<mgrwt>
<rscale>  0 0.83210954E+02</rscale>
<asrwt>0</asrwt>
<pdfrwt beam="1">  1        2 0.20652441E-01 0.83210954E+02</pdfrwt>
<pdfrwt beam="2">  1       -2 0.12206673E-01 0.83210954E+02</pdfrwt>
<totfact> 0.11528812E+04</totfact>
</mgrwt>
</event>
<event>
 4    1  0.4940461E-001  0.8751370E+02  0.7546771E-02  0.1308987E+00
         -2   -1    0    0    0  501 -0.00000000000E+00  0.00000000000E+00  0.30532960405E+02  0.30532960405E+02  0.00000000000E+00 0.  1.
          2   -1    0    0  501    0  0.00000000000E+00 -0.00000000000E+00 -0.28981425430E+03  0.28981425430E+03  0.00000000000E+00 0. -1.
         24    1    1    2    0    0 -0.17566276883E+02 -0.29712932221E+02 -0.18838466856E+03  0.20771959881E+03  0.80419002446E+02 0.  0.
        -24    1    1    2    0    0  0.17566276883E+02  0.29712932221E+02 -0.70896625331E+02  0.11262761590E+03  0.80419002446E+02 0.  0.
<mgrwt>
<rscale>  0 0.87513704E+02</rscale>
<asrwt>0</asrwt>
<pdfrwt beam="1">  1        2 0.44586809E-01 0.87513704E+02</pdfrwt>
<pdfrwt beam="2">  1       -2 0.46973785E-02 0.87513704E+02</pdfrwt>
<totfact> 0.21789335E+04</totfact>
</mgrwt>
</event>
<event>
 4    1  0.4940461E-001  0.8139982E+02  0.7546771E-02  0.1325125E+00
         -2   -1    0    0    0  501 -0.00000000000E+00  0.00000000000E+00  0.73373460127E+02  0.73373460127E+02  0.00000000000E+00 0.  1.
          2   -1    0    0  501    0  0.00000000000E+00 -0.00000000000E+00 -0.12118855335E+03  0.12118855335E+03  0.00000000000E+00 0. -1.
         24    1    1    2    0    0 -0.12407086587E+02 -0.21861673554E+01 -0.73017165483E+02  0.10935006875E+03  0.80419002446E+02 0. -1.
        -24    1    1    2    0    0  0.12407086587E+02  0.21861673554E+01  0.25202072256E+02  0.85211944736E+02  0.80419002446E+02 0.  1.
<mgrwt>
<rscale>  0 0.81399822E+02</rscale>
<asrwt>0</asrwt>
<pdfrwt beam="1">  1        2 0.18644393E-01 0.81399822E+02</pdfrwt>
<pdfrwt beam="2">  1       -2 0.11288225E-01 0.81399822E+02</pdfrwt>
<totfact> 0.14581424E+04</totfact>
</mgrwt>
</event>
<event>
 4    1  0.4940461E-001  0.8598344E+02  0.7546771E-02  0.1312881E+00
          2   -1    0    0  501    0  0.00000000000E+00  0.00000000000E+00  0.11399099840E+04  0.11399099840E+04  0.00000000000E+00 0. -1.
         -2   -1    0    0    0  501 -0.00000000000E+00 -0.00000000000E+00 -0.11144649145E+02  0.11144649145E+02  0.00000000000E+00 0.  1.
         24    1    1    2    0    0  0.26668866201E+02  0.14652920113E+02  0.93649594086E+03  0.94043489923E+03  0.80419002446E+02 0.  0.
        -24    1    1    2    0    0 -0.26668866201E+02 -0.14652920113E+02  0.19226939401E+03  0.21061973393E+03  0.80419002446E+02 0.  1.
<mgrwt>
<rscale>  0 0.85983443E+02</rscale>
<asrwt>0</asrwt>
<pdfrwt beam="1">  1        2 0.17537068E+00 0.85983443E+02</pdfrwt>
<pdfrwt beam="2">  1       -2 0.17145623E-02 0.85983443E+02</pdfrwt>
<totfact> 0.19403818E+04</totfact>
</mgrwt>
</event>
<event>
 4    1  0.4940461E-001  0.9145324E+02  0.7546771E-02  0.1299370E+00
          2   -1    0    0  501    0  0.00000000000E+00  0.00000000000E+00  0.19684026179E+03  0.19684026179E+03  0.00000000000E+00 0. -1.
         -2   -1    0    0    0  501 -0.00000000000E+00 -0.00000000000E+00 -0.10178160763E+03  0.10178160763E+03  0.00000000000E+00 0.  1.
         24    1    1    2    0    0 -0.37825198450E+02 -0.21580878100E+02  0.16148985316E+03  0.18558736100E+03  0.80419002446E+02 0. -1.
        -24    1    1    2    0    0  0.37825198450E+02  0.21580878100E+02 -0.66431199003E+02  0.11303450842E+03  0.80419002446E+02 0.  1.
<mgrwt>
<rscale>  0 0.91453244E+02</rscale>
<asrwt>0</asrwt>
<pdfrwt beam="1">  1        2 0.30283117E-01 0.91453244E+02</pdfrwt>
<pdfrwt beam="2">  1       -2 0.15658709E-01 0.91453244E+02</pdfrwt>
<totfact> 0.51426383E+03</totfact>
</mgrwt>
</event>
<event>
 4    1  0.4940461E-001  0.8196248E+02  0.7546771E-02  0.1323573E+00
         -1   -1    0    0    0  501 -0.00000000000E+00  0.00000000000E+00  0.54151744642E+02  0.54151744642E+02  0.00000000000E+00 0.  1.
          1   -1    0    0  501    0  0.00000000000E+00 -0.00000000000E+00 -0.12406786031E+03  0.12406786031E+03  0.00000000000E+00 0. -1.
         24    1    1    2    0    0  0.18017321314E+01 -0.15728403702E+02 -0.35831989958E+02  0.89452648817E+02  0.80419002446E+02 0. -1.
        -24    1    1    2    0    0 -0.18017321314E+01  0.15728403702E+02 -0.34084125711E+02  0.88766956135E+02  0.80419002446E+02 0.  0.
<mgrwt>
<rscale>  0 0.81962470E+02</rscale>
<asrwt>0</asrwt>
<pdfrwt beam="1">  1        1 0.19087363E-01 0.81962481E+02</pdfrwt>
<pdfrwt beam="2">  1       -1 0.83310376E-02 0.81962481E+02</pdfrwt>
<totfact> 0.19272928E+04</totfact>
</mgrwt>
</event>
<event>
 4    1  0.4940461E-001  0.9461500E+02  0.7546771E-02  0.1292046E+00
          4   -1    0    0  501    0  0.00000000000E+00  0.00000000000E+00  0.13173429998E+03  0.13173429998E+03  0.00000000000E+00 0. -1.
         -4   -1    0    0    0  501 -0.00000000000E+00 -0.00000000000E+00 -0.79699282219E+02  0.79699282219E+02  0.00000000000E+00 0.  1.
         24    1    1    2    0    0  0.19586427355E+02  0.45838347347E+02  0.66599268458E+02  0.11570419499E+03  0.80419002446E+02 0.  0.
        -24    1    1    2    0    0 -0.19586427355E+02 -0.45838347347E+02 -0.14564250694E+02  0.95729387215E+02  0.80419002446E+02 0.  0.
<mgrwt>
<rscale>  0 0.94615000E+02</rscale>
<asrwt>0</asrwt>
<pdfrwt beam="1">  1        4 0.20266815E-01 0.94615000E+02</pdfrwt>
<pdfrwt beam="2">  1       -4 0.12261428E-01 0.94615000E+02</pdfrwt>
<totfact> 0.17778724E+03</totfact>
</mgrwt>
</event>
<event>
 4    1  0.4940461E-001  0.1012609E+03  0.7546771E-02  0.1277667E+00
          2   -1    0    0  501    0  0.00000000000E+00  0.00000000000E+00  0.35645139906E+03  0.35645139906E+03  0.00000000000E+00 0. -1.
         -2   -1    0    0    0  501 -0.00000000000E+00 -0.00000000000E+00 -0.28785862113E+02  0.28785862113E+02  0.00000000000E+00 0.  1.
         24    1    1    2    0    0 -0.57617151965E+02 -0.21605779345E+02  0.16886343457E+03  0.19689748955E+03  0.80419002446E+02 0. -1.
        -24    1    1    2    0    0  0.57617151965E+02  0.21605779345E+02  0.15880210238E+03  0.18833977163E+03  0.80419002446E+02 0.  1.
<mgrwt>
<rscale>  0 0.10126086E+03</rscale>
<asrwt>0</asrwt>
<pdfrwt beam="1">  1        2 0.54838674E-01 0.10126086E+03</pdfrwt>
<pdfrwt beam="2">  1       -2 0.44285944E-02 0.10126086E+03</pdfrwt>
<totfact> 0.19436289E+04</totfact>
</mgrwt>
</event>
<event>
 4    1  0.4940461E-001  0.8724483E+02  0.7546771E-02  0.1309664E+00
         -2   -1    0    0    0  501 -0.00000000000E+00  0.00000000000E+00  0.13579884499E+03  0.13579884499E+03  0.00000000000E+00 0.  1.
          2   -1    0    0  501    0  0.00000000000E+00 -0.00000000000E+00 -0.68143153411E+02  0.68143153411E+02  0.00000000000E+00 0. -1.
         24    1    1    2    0    0  0.21751634949E+02  0.25909678945E+02 -0.91275166859E+01  0.87720992933E+02  0.80419002446E+02 0. -1.
        -24    1    1    2    0    0 -0.21751634949E+02 -0.25909678945E+02  0.76783208262E+02  0.11622100547E+03  0.80419002446E+02 0.  1.
<mgrwt>
<rscale>  0 0.87244834E+02</rscale>
<asrwt>0</asrwt>
<pdfrwt beam="1">  1        2 0.10483562E-01 0.87244834E+02</pdfrwt>
<pdfrwt beam="2">  1       -2 0.20892130E-01 0.87244834E+02</pdfrwt>
<totfact> 0.10578336E+04</totfact>
</mgrwt>
</event>
<event>
 4    1  0.4940461E-001  0.8418077E+02  0.7546771E-02  0.1317589E+00
          2   -1    0    0  501    0  0.00000000000E+00  0.00000000000E+00  0.22610867483E+03  0.22610867483E+03  0.00000000000E+00 0. -1.
         -2   -1    0    0    0  501 -0.00000000000E+00 -0.00000000000E+00 -0.37719201235E+02  0.37719201235E+02  0.00000000000E+00 0.  1.
         24    1    1    2    0    0 -0.24249643575E+02 -0.55803895038E+01  0.14844090917E+03  0.17064907099E+03  0.80419002446E+02 0. -1.
        -24    1    1    2    0    0  0.24249643575E+02  0.55803895038E+01  0.39948564418E+02  0.93178805068E+02  0.80419002446E+02 0.  1.
<mgrwt>
<rscale>  0 0.84180769E+02</rscale>
<asrwt>0</asrwt>
<pdfrwt beam="1">  1        2 0.34785949E-01 0.84180769E+02</pdfrwt>
<pdfrwt beam="2">  1       -2 0.58029542E-02 0.84180769E+02</pdfrwt>
<totfact> 0.20553756E+04</totfact>
</mgrwt>
</event>
<event>
 4    1  0.4940461E-001  0.8838591E+02  0.7546771E-02  0.1306808E+00
          2   -1    0    0  501    0  0.00000000000E+00  0.00000000000E+00  0.22167658653E+04  0.22167658653E+04  0.00000000000E+00 0. -1.
         -2   -1    0    0    0  501 -0.00000000000E+00 -0.00000000000E+00 -0.42376930076E+01  0.42376930076E+01  0.00000000000E+00 0.  1.
         24    1    1    2    0    0 -0.34422880509E+02  0.12645763269E+02  0.65055771083E+03  0.65653438685E+03  0.80419002446E+02 0.  1.
        -24    1    1    2    0    0  0.34422880509E+02 -0.12645763269E+02  0.15619704614E+04  0.15644691714E+04  0.80419002446E+02 0. -1.
<mgrwt>
<rscale>  0 0.88385904E+02</rscale>
<asrwt>0</asrwt>
<pdfrwt beam="1">  1        2 0.34103998E+00 0.88385915E+02</pdfrwt>
<pdfrwt beam="2">  1       -2 0.65195454E-03 0.88385915E+02</pdfrwt>
<totfact> 0.21513634E+04</totfact>
</mgrwt>
</event>
<event>
 4    1  0.4940461E-001  0.9516780E+02  0.7546771E-02  0.1290799E+00
          2   -1    0    0  501    0  0.00000000000E+00  0.00000000000E+00  0.16837504250E+04  0.16837504250E+04  0.00000000000E+00 0. -1.
         -2   -1    0    0    0  501 -0.00000000000E+00 -0.00000000000E+00 -0.21176360179E+02  0.21176360179E+02  0.00000000000E+00 0.  1.
         24    1    1    2    0    0  0.30804554137E+02  0.40506463653E+02  0.15675656790E+04  0.15704518675E+04  0.80419002446E+02 0. -1.
        -24    1    1    2    0    0 -0.30804554137E+02 -0.40506463653E+02  0.95008385759E+02  0.13447491763E+03  0.80419002446E+02 0.  1.
<mgrwt>
<rscale>  0 0.95167800E+02</rscale>
<asrwt>0</asrwt>
<pdfrwt beam="1">  1        2 0.25903842E+00 0.95167800E+02</pdfrwt>
<pdfrwt beam="2">  1       -2 0.32579029E-02 0.95167800E+02</pdfrwt>
<totfact> 0.40223635E+03</totfact>
</mgrwt>
</event>
<event>
 4    1  0.4940461E-001  0.1097580E+03  0.7546771E-02  0.1261019E+00
         -2   -1    0    0    0  501 -0.00000000000E+00  0.00000000000E+00  0.31102676075E+02  0.31102676075E+02  0.00000000000E+00 0.  1.
          2   -1    0    0  501    0  0.00000000000E+00 -0.00000000000E+00 -0.40375119650E+03  0.40375119650E+03  0.00000000000E+00 0. -1.
         24    1    1    2    0    0  0.74589581596E+02  0.39985789162E+01 -0.23018129670E+03  0.25501027356E+03  0.80419002446E+02 0. -1.
        -24    1    1    2    0    0 -0.74589581596E+02 -0.39985789162E+01 -0.14246722372E+03  0.17984359901E+03  0.80419002446E+02 0.  0.
<mgrwt>
<rscale>  0 0.10975796E+03</rscale>
<asrwt>0</asrwt>
<pdfrwt beam="1">  1        2 0.62115570E-01 0.10975796E+03</pdfrwt>
<pdfrwt beam="2">  1       -2 0.47850270E-02 0.10975796E+03</pdfrwt>
<totfact> 0.15305348E+04</totfact>
</mgrwt>
</event>
<event>
 4    1  0.4940461E-001  0.8187396E+02  0.7546771E-02  0.1323816E+00
         -1   -1    0    0    0  501 -0.00000000000E+00  0.00000000000E+00  0.81421839039E+02  0.81421839039E+02  0.00000000000E+00 0.  1.
          1   -1    0    0  501    0  0.00000000000E+00 -0.00000000000E+00 -0.82538054577E+02  0.82538054577E+02  0.00000000000E+00 0. -1.
         24    1    1    2    0    0 -0.15366233762E+02  0.72019093898E-01 -0.46883261454E+01  0.82008064745E+02  0.80419002446E+02 0.  0.
        -24    1    1    2    0    0  0.15366233762E+02 -0.72019093898E-01  0.35721106079E+01  0.81951828871E+02  0.80419002446E+02 0.  1.
<mgrwt>
<rscale>  0 0.81873952E+02</rscale>
<asrwt>0</asrwt>
<pdfrwt beam="1">  1        1 0.12698162E-01 0.81873962E+02</pdfrwt>
<pdfrwt beam="2">  1       -1 0.12526437E-01 0.81873962E+02</pdfrwt>
<totfact> 0.17493947E+04</totfact>
</mgrwt>
</event>
<event>
 4    1  0.4940461E-001  0.2331179E+03  0.7546771E-02  0.1124464E+00
          2   -1    0    0  501    0  0.00000000000E+00  0.00000000000E+00  0.61099181986E+03  0.61099181986E+03  0.00000000000E+00 0. -1.
         -2   -1    0    0    0  501 -0.00000000000E+00 -0.00000000000E+00 -0.91631436823E+02  0.91631436823E+02  0.00000000000E+00 0.  1.
         24    1    1    2    0    0 -0.14750193784E+03  0.16161643283E+03  0.19951311548E+03  0.30683772948E+03  0.80419002446E+02 0.  0.
        -24    1    1    2    0    0  0.14750193784E+03 -0.16161643283E+03  0.31984726756E+03  0.39578552721E+03  0.80419002446E+02 0.  0.
<mgrwt>
<rscale>  0 0.23311783E+03</rscale>
<asrwt>0</asrwt>
<pdfrwt beam="1">  1        2 0.93998739E-01 0.23311786E+03</pdfrwt>
<pdfrwt beam="2">  1       -2 0.14097144E-01 0.23311786E+03</pdfrwt>
<totfact> 0.18680994E+03</totfact>
</mgrwt>
</event>
<event>
 4    1  0.4940461E-001  0.8291872E+02  0.7546771E-02  0.1320967E+00
          2   -1    0    0  501    0  0.00000000000E+00  0.00000000000E+00  0.45652968593E+03  0.45652968593E+03  0.00000000000E+00 0. -1.
         -2   -1    0    0    0  501 -0.00000000000E+00 -0.00000000000E+00 -0.15679717479E+02  0.15679717479E+02  0.00000000000E+00 0.  1.
         24    1    1    2    0    0 -0.20069138237E+01  0.20106381332E+02  0.17350050639E+03  0.19229647929E+03  0.80419002446E+02 0.  0.
        -24    1    1    2    0    0  0.20069138237E+01 -0.20106381332E+02  0.26734946205E+03  0.27991292412E+03  0.80419002446E+02 0.  0.
<mgrwt>
<rscale>  0 0.82918707E+02</rscale>
<asrwt>0</asrwt>
<pdfrwt beam="1">  1        2 0.70235326E-01 0.82918717E+02</pdfrwt>
<pdfrwt beam="2">  1       -2 0.24122646E-02 0.82918717E+02</pdfrwt>
<totfact> 0.35544980E+04</totfact>
</mgrwt>
</event>
<event>
 4    1  0.4940461E-001  0.8252186E+02  0.7546771E-02  0.1322043E+00
         -2   -1    0    0    0  501 -0.00000000000E+00  0.00000000000E+00  0.85533566810E+01  0.85533566810E+01  0.00000000000E+00 0.  1.
          2   -1    0    0  501    0  0.00000000000E+00 -0.00000000000E+00 -0.18688145456E+04  0.18688145456E+04  0.00000000000E+00 0. -1.
         24    1    1    2    0    0  0.13983560814E+02  0.12128519512E+02 -0.16412881674E+04  0.16433614044E+04  0.80419002446E+02 0.  0.
        -24    1    1    2    0    0 -0.13983560814E+02 -0.12128519512E+02 -0.21897302151E+03  0.23400649791E+03  0.80419002446E+02 0.  1.
<mgrwt>
<rscale>  0 0.82521857E+02</rscale>
<asrwt>0</asrwt>
<pdfrwt beam="1">  1        2 0.28750989E+00 0.82521857E+02</pdfrwt>
<pdfrwt beam="2">  1       -2 0.13159012E-02 0.82521857E+02</pdfrwt>
<totfact> 0.11899069E+04</totfact>
</mgrwt>
</event>
<event>
 4    1  0.4940461E-001  0.8683878E+02  0.7546771E-02  0.1310693E+00
          2   -1    0    0  501    0  0.00000000000E+00  0.00000000000E+00  0.48282088807E+03  0.48282088807E+03  0.00000000000E+00 0. -1.
         -2   -1    0    0    0  501 -0.00000000000E+00 -0.00000000000E+00 -0.16184980587E+02  0.16184980587E+02  0.00000000000E+00 0.  1.
         24    1    1    2    0    0 -0.23527835224E+02  0.22807858949E+02  0.27999291815E+03  0.29315014519E+03  0.80419002446E+02 0. -1.
        -24    1    1    2    0    0  0.23527835224E+02 -0.22807858949E+02  0.18664298934E+03  0.20585572346E+03  0.80419002446E+02 0.  1.
<mgrwt>
<rscale>  0 0.86838778E+02</rscale>
<asrwt>0</asrwt>
<pdfrwt beam="1">  1        2 0.74280126E-01 0.86838778E+02</pdfrwt>
<pdfrwt beam="2">  1       -2 0.24899974E-02 0.86838778E+02</pdfrwt>
<totfact> 0.32159940E+04</totfact>
</mgrwt>
</event>
<event>
 4    1  0.4940461E-001  0.1040470E+03  0.7546771E-02  0.1272009E+00
         -2   -1    0    0    0  501 -0.00000000000E+00  0.00000000000E+00  0.30161512388E+02  0.30161512388E+02  0.00000000000E+00 0.  1.
          2   -1    0    0  501    0  0.00000000000E+00 -0.00000000000E+00 -0.63297837590E+03  0.63297837590E+03  0.00000000000E+00 0. -1.
         24    1    1    2    0    0  0.28550055103E+02 -0.59526876299E+02 -0.51957941553E+03  0.52989483829E+03  0.80419002446E+02 0. -1.
        -24    1    1    2    0    0 -0.28550055103E+02  0.59526876299E+02 -0.83237447979E+02  0.13324505000E+03  0.80419002446E+02 0.  1.
<mgrwt>
<rscale>  0 0.10404696E+03</rscale>
<asrwt>0</asrwt>
<pdfrwt beam="1">  1        2 0.97381300E-01 0.10404696E+03</pdfrwt>
<pdfrwt beam="2">  1       -2 0.46402321E-02 0.10404696E+03</pdfrwt>
<totfact> 0.97568642E+03</totfact>
</mgrwt>
</event>
<event>
 4    1  0.4940461E-001  0.9302775E+02  0.7546771E-02  0.1295681E+00
         -4   -1    0    0    0  501 -0.00000000000E+00  0.00000000000E+00  0.58035358219E+03  0.58035358219E+03  0.00000000000E+00 0.  1.
          4   -1    0    0  501    0  0.00000000000E+00 -0.00000000000E+00 -0.16750118011E+02  0.16750118011E+02  0.00000000000E+00 0. -1.
         24    1    1    2    0    0 -0.30757294618E+02 -0.35226908205E+02  0.18289818613E+03  0.20519724335E+03  0.80419002446E+02 0.  1.
        -24    1    1    2    0    0  0.30757294618E+02  0.35226908205E+02  0.38070527805E+03  0.39190645685E+03  0.80419002446E+02 0. -1.
<mgrwt>
<rscale>  0 0.93027750E+02</rscale>
<asrwt>0</asrwt>
<pdfrwt beam="1">  1        4 0.25769417E-02 0.93027750E+02</pdfrwt>
<pdfrwt beam="2">  1       -4 0.89285151E-01 0.93027750E+02</pdfrwt>
<totfact> 0.11526221E+03</totfact>
</mgrwt>
</event>
<event>
 4    1  0.4940461E-001  0.8101001E+02  0.7546771E-02  0.1326209E+00
          1   -1    0    0  501    0  0.00000000000E+00  0.00000000000E+00  0.13005692007E+03  0.13005692007E+03  0.00000000000E+00 0. -1.
         -1   -1    0    0    0  501 -0.00000000000E+00 -0.00000000000E+00 -0.71387099438E+02  0.71387099438E+02  0.00000000000E+00 0.  1.
         24    1    1    2    0    0 -0.24211087543E+01  0.94627298706E+01 -0.25199813644E+02  0.84838974453E+02  0.80419002446E+02 0.  0.
        -24    1    1    2    0    0  0.24211087543E+01 -0.94627298706E+01  0.83869634276E+02  0.11660504505E+03  0.80419002446E+02 0.  0.
<mgrwt>
<rscale>  0 0.81010005E+02</rscale>
<asrwt>0</asrwt>
<pdfrwt beam="1">  1        1 0.20008757E-01 0.81010005E+02</pdfrwt>
<pdfrwt beam="2">  1       -1 0.10982631E-01 0.81010005E+02</pdfrwt>
<totfact> 0.11982505E+04</totfact>
</mgrwt>
</event>
<event>
 4    1  0.4940461E-001  0.8680757E+02  0.7546771E-02  0.1310772E+00
         -1   -1    0    0    0  501 -0.00000000000E+00  0.00000000000E+00  0.96462526130E+02  0.96462526130E+02  0.00000000000E+00 0.  1.
          1   -1    0    0  501    0  0.00000000000E+00 -0.00000000000E+00 -0.95090554873E+02  0.95090554873E+02  0.00000000000E+00 0. -1.
         24    1    1    2    0    0 -0.76351924391E+01 -0.31781171703E+02  0.41148364808E+02  0.96066346444E+02  0.80419002446E+02 0.  1.
        -24    1    1    2    0    0  0.76351924391E+01  0.31781171703E+02 -0.39776393552E+02  0.95486734559E+02  0.80419002446E+02 0. -1.
<mgrwt>
<rscale>  0 0.86807575E+02</rscale>
<asrwt>0</asrwt>
<pdfrwt beam="1">  1        1 0.14629316E-01 0.86807575E+02</pdfrwt>
<pdfrwt beam="2">  1       -1 0.14840389E-01 0.86807575E+02</pdfrwt>
<totfact> 0.11314112E+04</totfact>
</mgrwt>
</event>
<event>
 4    1  0.4940461E-001  0.1226171E+03  0.7546771E-02  0.1238841E+00
          2   -1    0    0  501    0  0.00000000000E+00  0.00000000000E+00  0.50644897216E+03  0.50644897216E+03  0.00000000000E+00 0. -1.
         -2   -1    0    0    0  501 -0.00000000000E+00 -0.00000000000E+00 -0.98827294138E+02  0.98827294138E+02  0.00000000000E+00 0.  1.
         24    1    1    2    0    0  0.51066262970E+02  0.77200918968E+02  0.45694499165E+03  0.47311064927E+03  0.80419002446E+02 0. -1.
        -24    1    1    2    0    0 -0.51066262970E+02 -0.77200918968E+02 -0.49323313628E+02  0.13216561703E+03  0.80419002446E+02 0.  1.
<mgrwt>
<rscale>  0 0.12261713E+03</rscale>
<asrwt>0</asrwt>
<pdfrwt beam="1">  1        2 0.77915225E-01 0.12261713E+03</pdfrwt>
<pdfrwt beam="2">  1       -2 0.15204199E-01 0.12261713E+03</pdfrwt>
<totfact> 0.20097577E+03</totfact>
</mgrwt>
</event>
<event>
 4    1  0.4940461E-001  0.8762613E+02  0.7546771E-02  0.1308704E+00
          1   -1    0    0  501    0  0.00000000000E+00  0.00000000000E+00  0.64509048561E+02  0.64509048561E+02  0.00000000000E+00 0. -1.
         -1   -1    0    0    0  501 -0.00000000000E+00 -0.00000000000E+00 -0.12536489929E+03  0.12536489929E+03  0.00000000000E+00 0.  1.
         24    1    1    2    0    0 -0.20185048554E+02 -0.28349370951E+02 -0.51773566923E+02  0.10177839262E+03  0.80419002446E+02 0.  1.
        -24    1    1    2    0    0  0.20185048554E+02  0.28349370951E+02 -0.90822838110E+01  0.88095555234E+02  0.80419002446E+02 0. -1.
<mgrwt>
<rscale>  0 0.87626132E+02</rscale>
<asrwt>0</asrwt>
<pdfrwt beam="1">  1        1 0.99244692E-02 0.87626132E+02</pdfrwt>
<pdfrwt beam="2">  1       -1 0.19286907E-01 0.87626132E+02</pdfrwt>
<totfact> 0.12420781E+04</totfact>
</mgrwt>
</event>
<event>
 4    1  0.4940461E-001  0.9866653E+02  0.7546771E-02  0.1283125E+00
          1   -1    0    0  501    0  0.00000000000E+00  0.00000000000E+00  0.94017064186E+03  0.94017064186E+03  0.00000000000E+00 0. -1.
         -1   -1    0    0    0  501 -0.00000000000E+00 -0.00000000000E+00 -0.11259285897E+02  0.11259285897E+02  0.00000000000E+00 0.  1.
         24    1    1    2    0    0  0.68949725515E+01  0.56747878744E+02  0.59930336830E+03  0.60737106088E+03  0.80419002446E+02 0. -1.
        -24    1    1    2    0    0 -0.68949725515E+01 -0.56747878744E+02  0.32960798766E+03  0.34405886687E+03  0.80419002446E+02 0.  1.
<mgrwt>
<rscale>  0 0.98666513E+02</rscale>
<asrwt>0</asrwt>
<pdfrwt beam="1">  1        1 0.14464158E+00 0.98666525E+02</pdfrwt>
<pdfrwt beam="2">  1       -1 0.17321986E-02 0.98666525E+02</pdfrwt>
<totfact> 0.14065343E+04</totfact>
</mgrwt>
</event>
<event>
 4    1  0.4940461E-001  0.8124455E+02  0.7546771E-02  0.1325556E+00
          2   -1    0    0  501    0  0.00000000000E+00  0.00000000000E+00  0.94033144006E+02  0.94033144006E+02  0.00000000000E+00 0. -1.
         -2   -1    0    0    0  501 -0.00000000000E+00 -0.00000000000E+00 -0.25709437664E+03  0.25709437664E+03  0.00000000000E+00 0.  1.
         24    1    1    2    0    0 -0.21589607469E+01 -0.11348986011E+02  0.68159203192E+02  0.10604882616E+03  0.80419002446E+02 0. -1.
        -24    1    1    2    0    0  0.21589607469E+01  0.11348986011E+02 -0.23122043583E+03  0.24507869449E+03  0.80419002446E+02 0.  1.
<mgrwt>
<rscale>  0 0.81244548E+02</rscale>
<asrwt>0</asrwt>
<pdfrwt beam="1">  1        2 0.14466637E-01 0.81244548E+02</pdfrwt>
<pdfrwt beam="2">  1       -2 0.39552981E-01 0.81244548E+02</pdfrwt>
<totfact> 0.23240861E+03</totfact>
</mgrwt>
</event>
<event>
 4    1  0.4940461E-001  0.8146786E+02  0.7546771E-02  0.1324937E+00
         -3   -1    0    0    0  501 -0.00000000000E+00  0.00000000000E+00  0.19455787883E+02  0.19455787883E+02  0.00000000000E+00 0.  1.
          3   -1    0    0  501    0  0.00000000000E+00 -0.00000000000E+00 -0.38743962775E+03  0.38743962775E+03  0.00000000000E+00 0. -1.
         24    1    1    2    0    0 -0.13764344782E+01  0.12957710800E+02 -0.11365683829E+03  0.13983879893E+03  0.80419002446E+02 0.  1.
        -24    1    1    2    0    0  0.13764344782E+01 -0.12957710800E+02 -0.25432700158E+03  0.26705661671E+03  0.80419002446E+02 0. -1.
<mgrwt>
<rscale>  0 0.81467864E+02</rscale>
<asrwt>0</asrwt>
<pdfrwt beam="1">  1        3 0.59606088E-01 0.81467864E+02</pdfrwt>
<pdfrwt beam="2">  1       -3 0.29931986E-02 0.81467864E+02</pdfrwt>
<totfact> 0.29438053E+03</totfact>
</mgrwt>
</event>
<event>
 4    1  0.4940461E-001  0.9713202E+02  0.7546771E-02  0.1286445E+00
          1   -1    0    0  501    0  0.00000000000E+00  0.00000000000E+00  0.11386059946E+04  0.11386059946E+04  0.00000000000E+00 0. -1.
         -1   -1    0    0    0  501 -0.00000000000E+00 -0.00000000000E+00 -0.14554667031E+02  0.14554667031E+02  0.00000000000E+00 0.  1.
         24    1    1    2    0    0  0.32781065535E+02 -0.43506487123E+02  0.18363357573E+03  0.20774002688E+03  0.80419002446E+02 0.  1.
        -24    1    1    2    0    0 -0.32781065535E+02  0.43506487123E+02  0.94041775184E+03  0.94542063475E+03  0.80419002446E+02 0. -1.
<mgrwt>
<rscale>  0 0.97132017E+02</rscale>
<asrwt>0</asrwt>
<pdfrwt beam="1">  1        1 0.17517008E+00 0.97132017E+02</pdfrwt>
<pdfrwt beam="2">  1       -1 0.22391804E-02 0.97132017E+02</pdfrwt>
<totfact> 0.70314572E+03</totfact>
</mgrwt>
</event>
<event>
 4    1  0.4940461E-001  0.1033615E+03  0.7546771E-02  0.1273382E+00
         -2   -1    0    0    0  501 -0.00000000000E+00  0.00000000000E+00  0.27582545399E+02  0.27582545399E+02  0.00000000000E+00 0.  1.
          2   -1    0    0  501    0  0.00000000000E+00 -0.00000000000E+00 -0.50879201851E+03  0.50879201851E+03  0.00000000000E+00 0. -1.
         24    1    1    2    0    0 -0.63419000917E+02  0.13943509173E+02 -0.37163885971E+03  0.38574479792E+03  0.80419002446E+02 0. -1.
        -24    1    1    2    0    0  0.63419000917E+02 -0.13943509173E+02 -0.10957061340E+03  0.15062976599E+03  0.80419002446E+02 0.  1.
<mgrwt>
<rscale>  0 0.10336154E+03</rscale>
<asrwt>0</asrwt>
<pdfrwt beam="1">  1        2 0.78275691E-01 0.10336154E+03</pdfrwt>
<pdfrwt beam="2">  1       -2 0.42434687E-02 0.10336154E+03</pdfrwt>
<totfact> 0.14195907E+04</totfact>
</mgrwt>
</event>
<event>
 4    1  0.4940461E-001  0.8218903E+02  0.7546771E-02  0.1322952E+00
         -1   -1    0    0    0  501 -0.00000000000E+00  0.00000000000E+00  0.75731639882E+02  0.75731639882E+02  0.00000000000E+00 0.  1.
          1   -1    0    0  501    0  0.00000000000E+00 -0.00000000000E+00 -0.15331253579E+04  0.15331253579E+04  0.00000000000E+00 0. -1.
         24    1    1    2    0    0 -0.16308451758E+02 -0.46749307137E+01  0.51980231172E+02  0.97247010047E+02  0.80419002446E+02 0.  1.
        -24    1    1    2    0    0  0.16308451758E+02  0.46749307137E+01 -0.15093739492E+04  0.15116099877E+04  0.80419002446E+02 0. -1.
<mgrwt>
<rscale>  0 0.82189029E+02</rscale>
<asrwt>0</asrwt>
<pdfrwt beam="1">  1        1 0.23586546E+00 0.82189029E+02</pdfrwt>
<pdfrwt beam="2">  1       -1 0.11651021E-01 0.82189029E+02</pdfrwt>
<totfact> 0.34405809E+02</totfact>
</mgrwt>
</event>
<event>
 4    1  0.4940461E-001  0.8505306E+02  0.7546771E-02  0.1315294E+00
         -2   -1    0    0    0  501 -0.00000000000E+00  0.00000000000E+00  0.54915958429E+02  0.54915958429E+02  0.00000000000E+00 0.  1.
          2   -1    0    0  501    0  0.00000000000E+00 -0.00000000000E+00 -0.13176593178E+03  0.13176593178E+03  0.00000000000E+00 0. -1.
         24    1    1    2    0    0 -0.25042521322E+02 -0.11818433579E+02 -0.36860345677E+02  0.92696840746E+02  0.80419002446E+02 0.  0.
        -24    1    1    2    0    0  0.25042521322E+02  0.11818433579E+02 -0.39989627670E+02  0.93985049460E+02  0.80419002446E+02 0.  1.
<mgrwt>
<rscale>  0 0.85053048E+02</rscale>
<asrwt>0</asrwt>
<pdfrwt beam="1">  1        2 0.20271682E-01 0.85053059E+02</pdfrwt>
<pdfrwt beam="2">  1       -2 0.84486090E-02 0.85053059E+02</pdfrwt>
<totfact> 0.20902796E+04</totfact>
</mgrwt>
</event>
<event>
 4    1  0.4940461E-001  0.9786216E+02  0.7546771E-02  0.1284857E+00
          1   -1    0    0  501    0  0.00000000000E+00  0.00000000000E+00  0.17773665389E+03  0.17773665389E+03  0.00000000000E+00 0. -1.
         -1   -1    0    0    0  501 -0.00000000000E+00 -0.00000000000E+00 -0.75336725664E+02  0.75336725664E+02  0.00000000000E+00 0.  1.
         24    1    1    2    0    0 -0.54700659221E+02  0.10845458023E+02 -0.16324856653E+02  0.99214429283E+02  0.80419002446E+02 0.  1.
        -24    1    1    2    0    0  0.54700659221E+02 -0.10845458023E+02  0.11872478487E+03  0.15385895027E+03  0.80419002446E+02 0. -1.
<mgrwt>
<rscale>  0 0.97862158E+02</rscale>
<asrwt>0</asrwt>
<pdfrwt beam="1">  1        1 0.27344101E-01 0.97862158E+02</pdfrwt>
<pdfrwt beam="2">  1       -1 0.11590266E-01 0.97862158E+02</pdfrwt>
<totfact> 0.76179476E+03</totfact>
</mgrwt>
</event>
<event>
 4    1  0.4940461E-001  0.8288567E+02  0.7546771E-02  0.1321056E+00
         -1   -1    0    0    0  501 -0.00000000000E+00  0.00000000000E+00  0.11778976583E+04  0.11778976583E+04  0.00000000000E+00 0.  1.
          1   -1    0    0  501    0  0.00000000000E+00 -0.00000000000E+00 -0.84924564830E+01  0.84924564830E+01  0.00000000000E+00 0. -1.
         24    1    1    2    0    0 -0.71319505415E+01  0.18760439615E+02  0.91669016835E+03  0.92042973633E+03  0.80419002446E+02 0.  1.
        -24    1    1    2    0    0  0.71319505415E+01 -0.18760439615E+02  0.25271503346E+03  0.26596037845E+03  0.80419002446E+02 0. -1.
<mgrwt>
<rscale>  0 0.82885673E+02</rscale>
<asrwt>0</asrwt>
<pdfrwt beam="1">  1        1 0.13065327E-02 0.82885673E+02</pdfrwt>
<pdfrwt beam="2">  1       -1 0.18121489E+00 0.82885673E+02</pdfrwt>
<totfact> 0.23256916E+03</totfact>
</mgrwt>
</event>
<event>
 4    1  0.4940461E-001  0.8813960E+02  0.7546771E-02  0.1307421E+00
          2   -1    0    0  501    0  0.00000000000E+00  0.00000000000E+00  0.17896314547E+04  0.17896314547E+04  0.00000000000E+00 0. -1.
         -2   -1    0    0    0  501 -0.00000000000E+00 -0.00000000000E+00 -0.44786182842E+01  0.44786182842E+01  0.00000000000E+00 0.  1.
         24    1    1    2    0    0  0.32194007813E+02 -0.16276200433E+02  0.73526287469E+03  0.74052689329E+03  0.80419002446E+02 0. -1.
        -24    1    1    2    0    0 -0.32194007813E+02  0.16276200433E+02  0.10498899617E+04  0.10535831797E+04  0.80419002446E+02 0.  0.
<mgrwt>
<rscale>  0 0.88139587E+02</rscale>
<asrwt>0</asrwt>
<pdfrwt beam="1">  1        2 0.27532735E+00 0.88139598E+02</pdfrwt>
<pdfrwt beam="2">  1       -2 0.68901962E-03 0.88139598E+02</pdfrwt>
<totfact> 0.32635953E+04</totfact>
</mgrwt>
</event>
<event>
 4    1  0.4940461E-001  0.1135605E+03  0.7546771E-02  0.1254115E+00
          2   -1    0    0  501    0  0.00000000000E+00  0.00000000000E+00  0.20740105465E+04  0.20740105465E+04  0.00000000000E+00 0. -1.
         -2   -1    0    0    0  501 -0.00000000000E+00 -0.00000000000E+00 -0.14674751188E+02  0.14674751188E+02  0.00000000000E+00 0.  1.
         24    1    1    2    0    0 -0.78866009497E+02 -0.14454258713E+02  0.18224649005E+04  0.18259995352E+04  0.80419002446E+02 0. -1.
        -24    1    1    2    0    0  0.78866009497E+02  0.14454258713E+02  0.23687089481E+03  0.26268576248E+03  0.80419002446E+02 0.  1.
<mgrwt>
<rscale>  0 0.11356051E+03</rscale>
<asrwt>0</asrwt>
<pdfrwt beam="1">  1        2 0.31907831E+00 0.11356051E+03</pdfrwt>
<pdfrwt beam="2">  1       -2 0.22576557E-02 0.11356051E+03</pdfrwt>
<totfact> 0.43676772E+03</totfact>
</mgrwt>
</event>
<event>
 4    1  0.4940461E-001  0.8416165E+02  0.7546771E-02  0.1317640E+00
          2   -1    0    0  501    0  0.00000000000E+00  0.00000000000E+00  0.15322715907E+04  0.15322715907E+04  0.00000000000E+00 0. -1.
         -2   -1    0    0    0  501 -0.00000000000E+00 -0.00000000000E+00 -0.20274715958E+02  0.20274715958E+02  0.00000000000E+00 0.  1.
         24    1    1    2    0    0 -0.24791716790E+02  0.11569730493E+01  0.14380587097E+04  0.14405193634E+04  0.80419002446E+02 0. -1.
        -24    1    1    2    0    0  0.24791716790E+02 -0.11569730493E+01  0.73938164971E+02  0.11202694320E+03  0.80419002446E+02 0.  1.
<mgrwt>
<rscale>  0 0.84161653E+02</rscale>
<asrwt>0</asrwt>
<pdfrwt beam="1">  1        2 0.23573400E+00 0.84161653E+02</pdfrwt>
<pdfrwt beam="2">  1       -2 0.31191883E-02 0.84161653E+02</pdfrwt>
<totfact> 0.50942144E+03</totfact>
</mgrwt>
</event>
<event>
 4    1  0.4940461E-001  0.8380470E+02  0.7546771E-02  0.1318588E+00
         -1   -1    0    0    0  501 -0.00000000000E+00  0.00000000000E+00  0.39575022050E+02  0.39575022050E+02  0.00000000000E+00 0.  1.
          1   -1    0    0  501    0  0.00000000000E+00 -0.00000000000E+00 -0.51241037689E+03  0.51241037689E+03  0.00000000000E+00 0. -1.
         24    1    1    2    0    0  0.15272610593E+02 -0.17965519252E+02 -0.13278998668E+02  0.84850222606E+02  0.80419002446E+02 0.  1.
        -24    1    1    2    0    0 -0.15272610593E+02  0.17965519252E+02 -0.45955635618E+03  0.46713517634E+03  0.80419002446E+02 0. -1.
<mgrwt>
<rscale>  0 0.83804704E+02</rscale>
<asrwt>0</asrwt>
<pdfrwt beam="1">  1        1 0.78832366E-01 0.83804704E+02</pdfrwt>
<pdfrwt beam="2">  1       -1 0.60884649E-02 0.83804704E+02</pdfrwt>
<totfact> 0.53414428E+03</totfact>
</mgrwt>
</event>
<event>
 4    1  0.4940461E-001  0.8197339E+02  0.7546771E-02  0.1323543E+00
         -1   -1    0    0    0  501 -0.00000000000E+00  0.00000000000E+00  0.89902237679E+01  0.89902237679E+01  0.00000000000E+00 0.  1.
          1   -1    0    0  501    0  0.00000000000E+00 -0.00000000000E+00 -0.75152853735E+03  0.75152853735E+03  0.00000000000E+00 0. -1.
         24    1    1    2    0    0  0.15740954113E+02  0.21540541330E+01 -0.39932383222E+03  0.40765077765E+03  0.80419002446E+02 0. -1.
        -24    1    1    2    0    0 -0.15740954113E+02 -0.21540541330E+01 -0.34321448136E+03  0.35286798347E+03  0.80419002446E+02 0.  1.
<mgrwt>
<rscale>  0 0.81973381E+02</rscale>
<asrwt>0</asrwt>
<pdfrwt beam="1">  1        1 0.11561976E+00 0.81973391E+02</pdfrwt>
<pdfrwt beam="2">  1       -1 0.13831115E-02 0.81973391E+02</pdfrwt>
<totfact> 0.26737848E+04</totfact>
</mgrwt>
</event>
<event>
 4    1  0.4940461E-001  0.8961091E+02  0.7546771E-02  0.1303797E+00
         -2   -1    0    0    0  501 -0.00000000000E+00  0.00000000000E+00  0.15211153268E+02  0.15211153268E+02  0.00000000000E+00 0.  1.
          2   -1    0    0  501    0  0.00000000000E+00 -0.00000000000E+00 -0.79002914106E+03  0.79002914106E+03  0.00000000000E+00 0. -1.
         24    1    1    2    0    0 -0.36899310944E+02  0.14189443699E+02 -0.61932117547E+03  0.62577059199E+03  0.80419002446E+02 0. -1.
        -24    1    1    2    0    0  0.36899310944E+02 -0.14189443699E+02 -0.15549681232E+03  0.17946970234E+03  0.80419002446E+02 0.  1.
<mgrwt>
<rscale>  0 0.89610911E+02</rscale>
<asrwt>0</asrwt>
<pdfrwt beam="1">  1        2 0.12154294E+00 0.89610911E+02</pdfrwt>
<pdfrwt beam="2">  1       -2 0.23401775E-02 0.89610911E+02</pdfrwt>
<totfact> 0.20213286E+04</totfact>
</mgrwt>
</event>
<event>
 4    1  0.4940461E-001  0.1299636E+03  0.7546771E-02  0.1227510E+00
         -1   -1    0    0    0  501 -0.00000000000E+00  0.00000000000E+00  0.36789643508E+02  0.36789643508E+02  0.00000000000E+00 0.  1.
          1   -1    0    0  501    0  0.00000000000E+00 -0.00000000000E+00 -0.52381014045E+03  0.52381014045E+03  0.00000000000E+00 0. -1.
         24    1    1    2    0    0  0.66488950981E+02 -0.77476019078E+02 -0.34202136214E+03  0.36588132263E+03  0.80419002446E+02 0. -1.
        -24    1    1    2    0    0 -0.66488950981E+02  0.77476019078E+02 -0.14499913480E+03  0.19471846133E+03  0.80419002446E+02 0.  1.
<mgrwt>
<rscale>  0 0.12996359E+03</rscale>
<asrwt>0</asrwt>
<pdfrwt beam="1">  1        1 0.80586172E-01 0.12996360E+03</pdfrwt>
<pdfrwt beam="2">  1       -1 0.56599454E-02 0.12996360E+03</pdfrwt>
<totfact> 0.59391381E+03</totfact>
</mgrwt>
</event>
<event>
 4    1  0.4940461E-001  0.1014841E+03  0.7546771E-02  0.1277206E+00
          2   -1    0    0  501    0  0.00000000000E+00  0.00000000000E+00  0.65547793688E+03  0.65547793688E+03  0.00000000000E+00 0. -1.
         -2   -1    0    0    0  501 -0.00000000000E+00 -0.00000000000E+00 -0.16015896684E+02  0.16015896684E+02  0.00000000000E+00 0.  1.
         24    1    1    2    0    0 -0.56013088932E+02  0.26350261490E+02  0.36596240179E+03  0.37977295572E+03  0.80419002446E+02 0. -1.
        -24    1    1    2    0    0  0.56013088932E+02 -0.26350261490E+02  0.27349963840E+03  0.29172087785E+03  0.80419002446E+02 0.  1.
<mgrwt>
<rscale>  0 0.10148408E+03</rscale>
<asrwt>0</asrwt>
<pdfrwt beam="1">  1        2 0.10084274E+00 0.10148408E+03</pdfrwt>
<pdfrwt beam="2">  1       -2 0.24639846E-02 0.10148408E+03</pdfrwt>
<totfact> 0.23660996E+04</totfact>
</mgrwt>
</event>
<event>
 4    1  0.4940461E-001  0.8417912E+02  0.7546771E-02  0.1317593E+00
         -1   -1    0    0    0  501 -0.00000000000E+00  0.00000000000E+00  0.11166518535E+02  0.11166518535E+02  0.00000000000E+00 0.  1.
          1   -1    0    0  501    0  0.00000000000E+00 -0.00000000000E+00 -0.97885184050E+03  0.97885184050E+03  0.00000000000E+00 0. -1.
         24    1    1    2    0    0  0.22176239697E+02  0.11274843205E+02 -0.19027965611E+03  0.20806842908E+03  0.80419002446E+02 0.  0.
        -24    1    1    2    0    0 -0.22176239697E+02 -0.11274843205E+02 -0.77740566586E+03  0.78194992995E+03  0.80419002446E+02 0. -1.
<mgrwt>
<rscale>  0 0.84179116E+02</rscale>
<asrwt>0</asrwt>
<pdfrwt beam="1">  1        1 0.15059257E+00 0.84179116E+02</pdfrwt>
<pdfrwt beam="2">  1       -1 0.17179262E-02 0.84179116E+02</pdfrwt>
<totfact> 0.13167704E+04</totfact>
</mgrwt>
</event>
<event>
 4    1  0.4940461E-001  0.9685941E+02  0.7546771E-02  0.1287042E+00
         -2   -1    0    0    0  501 -0.00000000000E+00  0.00000000000E+00  0.20369013606E+02  0.20369013606E+02  0.00000000000E+00 0.  1.
          2   -1    0    0  501    0  0.00000000000E+00 -0.00000000000E+00 -0.62531060814E+03  0.62531060814E+03  0.00000000000E+00 0. -1.
         24    1    1    2    0    0 -0.23488993255E+02 -0.48608610780E+02 -0.46816767726E+03  0.47808233583E+03  0.80419002446E+02 0. -1.
        -24    1    1    2    0    0  0.23488993255E+02  0.48608610780E+02 -0.13677391727E+03  0.16759728592E+03  0.80419002446E+02 0.  1.
<mgrwt>
<rscale>  0 0.96859413E+02</rscale>
<asrwt>0</asrwt>
<pdfrwt beam="1">  1        2 0.96201629E-01 0.96859413E+02</pdfrwt>
<pdfrwt beam="2">  1       -2 0.31336945E-02 0.96859413E+02</pdfrwt>
<totfact> 0.17527182E+04</totfact>
</mgrwt>
</event>
<event>
 4    1  0.4940461E-001  0.9174472E+02  0.7546771E-02  0.1298681E+00
         -2   -1    0    0    0  501 -0.00000000000E+00  0.00000000000E+00  0.62615243435E+02  0.62615243435E+02  0.00000000000E+00 0.  1.
          2   -1    0    0  501    0  0.00000000000E+00 -0.00000000000E+00 -0.16921571063E+04  0.16921571063E+04  0.00000000000E+00 0. -1.
         24    1    1    2    0    0 -0.40585761728E+02 -0.17397542264E+02 -0.16565860893E+04  0.16591246384E+04  0.80419002446E+02 0. -1.
        -24    1    1    2    0    0  0.40585761728E+02  0.17397542264E+02  0.27044226491E+02  0.95647711278E+02  0.80419002446E+02 0.  1.
<mgrwt>
<rscale>  0 0.91744725E+02</rscale>
<asrwt>0</asrwt>
<pdfrwt beam="1">  1        2 0.26033189E+00 0.91744725E+02</pdfrwt>
<pdfrwt beam="2">  1       -2 0.96331135E-02 0.91744725E+02</pdfrwt>
<totfact> 0.78439049E+02</totfact>
</mgrwt>
</event>
<event>
 4    1  0.4940461E-001  0.8649350E+02  0.7546771E-02  0.1311572E+00
          2   -1    0    0  501    0  0.00000000000E+00  0.00000000000E+00  0.21423110623E+04  0.21423110623E+04  0.00000000000E+00 0. -1.
         -2   -1    0    0    0  501 -0.00000000000E+00 -0.00000000000E+00 -0.39643028247E+01  0.39643028247E+01  0.00000000000E+00 0.  1.
         24    1    1    2    0    0 -0.20197636771E+02  0.24616349423E+02  0.14395510230E+04  0.14421471051E+04  0.80419002446E+02 0.  1.
        -24    1    1    2    0    0  0.20197636771E+02 -0.24616349423E+02  0.69879573654E+03  0.70412826002E+03  0.80419002446E+02 0.  0.
<mgrwt>
<rscale>  0 0.86493498E+02</rscale>
<asrwt>0</asrwt>
<pdfrwt beam="1">  1        2 0.32958539E+00 0.86493498E+02</pdfrwt>
<pdfrwt beam="2">  1       -2 0.60989445E-03 0.86493498E+02</pdfrwt>
<totfact> 0.25737178E+04</totfact>
</mgrwt>
</event>
<event>
 4    1  0.4940461E-001  0.8326854E+02  0.7546771E-02  0.1320024E+00
          2   -1    0    0  501    0  0.00000000000E+00  0.00000000000E+00  0.10862133612E+03  0.10862133612E+03  0.00000000000E+00 0. -1.
         -2   -1    0    0    0  501 -0.00000000000E+00 -0.00000000000E+00 -0.79086553270E+02  0.79086553270E+02  0.00000000000E+00 0.  1.
         24    1    1    2    0    0  0.17557251894E+02 -0.12576825984E+02  0.55985076057E+02  0.10033931603E+03  0.80419002446E+02 0.  1.
        -24    1    1    2    0    0 -0.17557251894E+02  0.12576825984E+02 -0.26450293206E+02  0.87368573360E+02  0.80419002446E+02 0.  1.
<mgrwt>
<rscale>  0 0.83268539E+02</rscale>
<asrwt>0</asrwt>
<pdfrwt beam="1">  1        2 0.16710975E-01 0.83268539E+02</pdfrwt>
<pdfrwt beam="2">  1       -2 0.12167162E-01 0.83268539E+02</pdfrwt>
<totfact> 0.14702134E+04</totfact>
</mgrwt>
</event>
<event>
 4    1  0.4940461E-001  0.9289708E+02  0.7546771E-02  0.1295984E+00
         -2   -1    0    0    0  501 -0.00000000000E+00  0.00000000000E+00  0.82905852986E+02  0.82905852986E+02  0.00000000000E+00 0.  1.
          2   -1    0    0  501    0  0.00000000000E+00 -0.00000000000E+00 -0.66126264845E+03  0.66126264845E+03  0.00000000000E+00 0. -1.
         24    1    1    2    0    0 -0.23277682926E+02 -0.40259167571E+02 -0.63072365657E+03  0.63752819389E+03  0.80419002446E+02 0. -1.
        -24    1    1    2    0    0  0.23277682926E+02  0.40259167571E+02  0.52366861108E+02  0.10664030754E+03  0.80419002446E+02 0.  1.
<mgrwt>
<rscale>  0 0.92897078E+02</rscale>
<asrwt>0</asrwt>
<pdfrwt beam="1">  1        2 0.10173272E+00 0.92897078E+02</pdfrwt>
<pdfrwt beam="2">  1       -2 0.12754746E-01 0.92897078E+02</pdfrwt>
<totfact> 0.19622483E+03</totfact>
</mgrwt>
</event>
<event>
 4    1  0.4940461E-001  0.8507109E+02  0.7546771E-02  0.1315247E+00
         -2   -1    0    0    0  501 -0.00000000000E+00  0.00000000000E+00  0.63316685091E+01  0.63316685091E+01  0.00000000000E+00 0.  1.
          2   -1    0    0  501    0  0.00000000000E+00 -0.00000000000E+00 -0.12371245375E+04  0.12371245375E+04  0.00000000000E+00 0. -1.
         24    1    1    2    0    0  0.10896801292E+01 -0.27725210957E+02 -0.78688989236E+03  0.79147507439E+03  0.80419002446E+02 0.  0.
        -24    1    1    2    0    0 -0.10896801292E+01  0.27725210957E+02 -0.44390297665E+03  0.45198113164E+03  0.80419002446E+02 0.  0.
<mgrwt>
<rscale>  0 0.85071092E+02</rscale>
<asrwt>0</asrwt>
<pdfrwt beam="1">  1        2 0.19032647E+00 0.85071092E+02</pdfrwt>
<pdfrwt beam="2">  1       -2 0.97410481E-03 0.85071092E+02</pdfrwt>
<totfact> 0.38309613E+04</totfact>
</mgrwt>
</event>
<event>
 4    1  0.4940461E-001  0.8861595E+02  0.7546771E-02  0.1306238E+00
         -2   -1    0    0    0  501 -0.00000000000E+00  0.00000000000E+00  0.28475679578E+02  0.28475679578E+02  0.00000000000E+00 0.  1.
          2   -1    0    0  501    0  0.00000000000E+00 -0.00000000000E+00 -0.52421445963E+03  0.52421445963E+03  0.00000000000E+00 0. -1.
         24    1    1    2    0    0  0.39254739247E+01  0.37015701025E+02 -0.43811312712E+03  0.44698534605E+03  0.80419002446E+02 0. -1.
        -24    1    1    2    0    0 -0.39254739247E+01 -0.37015701025E+02 -0.57625652931E+02  0.10570479317E+03  0.80419002446E+02 0.  1.
<mgrwt>
<rscale>  0 0.88615955E+02</rscale>
<asrwt>0</asrwt>
<pdfrwt beam="1">  1        2 0.80648377E-01 0.88615955E+02</pdfrwt>
<pdfrwt beam="2">  1       -2 0.43808739E-02 0.88615955E+02</pdfrwt>
<totfact> 0.12937279E+04</totfact>
</mgrwt>
</event>
<event>
 4    1  0.4940461E-001  0.8172968E+02  0.7546771E-02  0.1324213E+00
         -1   -1    0    0    0  501 -0.00000000000E+00  0.00000000000E+00  0.22285119166E+01  0.22285119166E+01  0.00000000000E+00 0.  1.
          1   -1    0    0  501    0  0.00000000000E+00 -0.00000000000E+00 -0.30165265632E+04  0.30165265632E+04  0.00000000000E+00 0. -1.
         24    1    1    2    0    0 -0.27409066910E+01  0.14318227503E+02 -0.13869585111E+04  0.13893644776E+04  0.80419002446E+02 0.  1.
        -24    1    1    2    0    0  0.27409066910E+01 -0.14318227503E+02 -0.16273395402E+04  0.16293905976E+04  0.80419002446E+02 0. -1.
<mgrwt>
<rscale>  0 0.81729677E+02</rscale>
<asrwt>0</asrwt>
<pdfrwt beam="1">  1        1 0.46407969E+00 0.81729677E+02</pdfrwt>
<pdfrwt beam="2">  1       -1 0.34284896E-03 0.81729677E+02</pdfrwt>
<totfact> 0.60598781E+03</totfact>
</mgrwt>
</event>
<event>
 4    1  0.4940461E-001  0.8391862E+02  0.7546771E-02  0.1318285E+00
          2   -1    0    0  501    0  0.00000000000E+00  0.00000000000E+00  0.10760428532E+04  0.10760428532E+04  0.00000000000E+00 0. -1.
         -2   -1    0    0    0  501 -0.00000000000E+00 -0.00000000000E+00 -0.15447692736E+02  0.15447692736E+02  0.00000000000E+00 0.  1.
         24    1    1    2    0    0  0.12017948079E+02  0.20753019865E+02  0.94460923569E+03  0.94832955401E+03  0.80419002446E+02 0. -1.
        -24    1    1    2    0    0 -0.12017948079E+02 -0.20753019865E+02  0.11598592479E+03  0.14316099194E+03  0.80419002446E+02 0.  1.
<mgrwt>
<rscale>  0 0.83918620E+02</rscale>
<asrwt>0</asrwt>
<pdfrwt beam="1">  1        2 0.16554500E+00 0.83918620E+02</pdfrwt>
<pdfrwt beam="2">  1       -2 0.23765690E-02 0.83918620E+02</pdfrwt>
<totfact> 0.13163379E+04</totfact>
</mgrwt>
</event>
<event>
 4    1  0.4940461E-001  0.8841718E+02  0.7546771E-02  0.1306731E+00
          2   -1    0    0  501    0  0.00000000000E+00  0.00000000000E+00  0.24916758032E+03  0.24916758032E+03  0.00000000000E+00 0. -1.
         -2   -1    0    0    0  501 -0.00000000000E+00 -0.00000000000E+00 -0.31658201094E+02  0.31658201094E+02  0.00000000000E+00 0.  1.
         24    1    1    2    0    0  0.24501161357E+02  0.27387507262E+02  0.12203833307E+03  0.15070153667E+03  0.80419002446E+02 0. -1.
        -24    1    1    2    0    0 -0.24501161357E+02 -0.27387507262E+02  0.95471046158E+02  0.13012424475E+03  0.80419002446E+02 0.  1.
<mgrwt>
<rscale>  0 0.88417184E+02</rscale>
<asrwt>0</asrwt>
<pdfrwt beam="1">  1        2 0.38333473E-01 0.88417184E+02</pdfrwt>
<pdfrwt beam="2">  1       -2 0.48704926E-02 0.88417184E+02</pdfrwt>
<totfact> 0.24217043E+04</totfact>
</mgrwt>
</event>
<event>
 4    1  0.4940461E-001  0.8730827E+02  0.7546771E-02  0.1309504E+00
          2   -1    0    0  501    0  0.00000000000E+00  0.00000000000E+00  0.29021164863E+03  0.29021164863E+03  0.00000000000E+00 0. -1.
         -2   -1    0    0    0  501 -0.00000000000E+00 -0.00000000000E+00 -0.52971519582E+02  0.52971519582E+02  0.00000000000E+00 0.  1.
         24    1    1    2    0    0  0.21350278922E+02  0.26451527014E+02  0.24045569573E+03  0.25581570564E+03  0.80419002446E+02 0. -1.
        -24    1    1    2    0    0 -0.21350278922E+02 -0.26451527014E+02 -0.32155666851E+01  0.87367462564E+02  0.80419002446E+02 0.  1.
<mgrwt>
<rscale>  0 0.87308268E+02</rscale>
<asrwt>0</asrwt>
<pdfrwt beam="1">  1        2 0.44647945E-01 0.87308268E+02</pdfrwt>
<pdfrwt beam="2">  1       -2 0.81494647E-02 0.87308268E+02</pdfrwt>
<totfact> 0.95074334E+03</totfact>
</mgrwt>
</event>
<event>
 4    1  0.4940461E-001  0.8405572E+02  0.7546771E-02  0.1317921E+00
         -2   -1    0    0    0  501 -0.00000000000E+00  0.00000000000E+00  0.16462179077E+03  0.16462179077E+03  0.00000000000E+00 0.  1.
          2   -1    0    0  501    0  0.00000000000E+00 -0.00000000000E+00 -0.10878488137E+04  0.10878488137E+04  0.00000000000E+00 0. -1.
         24    1    1    2    0    0 -0.21883264580E+02  0.10921136132E+02 -0.10753711121E+04  0.10786511916E+04  0.80419002446E+02 0. -1.
        -24    1    1    2    0    0  0.21883264580E+02 -0.10921136132E+02  0.15214408914E+03  0.17381941289E+03  0.80419002446E+02 0.  1.
<mgrwt>
<rscale>  0 0.84055722E+02</rscale>
<asrwt>0</asrwt>
<pdfrwt beam="1">  1        2 0.16736136E+00 0.84055722E+02</pdfrwt>
<pdfrwt beam="2">  1       -2 0.25326429E-01 0.84055722E+02</pdfrwt>
<totfact> 0.33698703E+02</totfact>
</mgrwt>
</event>
<event>
 4    1  0.4940461E-001  0.8284117E+02  0.7546771E-02  0.1321177E+00
         -2   -1    0    0    0  501 -0.00000000000E+00  0.00000000000E+00  0.11815974377E+03  0.11815974377E+03  0.00000000000E+00 0.  1.
          2   -1    0    0  501    0  0.00000000000E+00 -0.00000000000E+00 -0.27507040696E+03  0.27507040696E+03  0.00000000000E+00 0. -1.
         24    1    1    2    0    0 -0.14021633607E+02 -0.14100944516E+02 -0.25308404204E+03  0.26629718575E+03  0.80419002446E+02 0. -1.
        -24    1    1    2    0    0  0.14021633607E+02  0.14100944516E+02  0.96173378856E+02  0.12693296499E+03  0.80419002446E+02 0.  1.
<mgrwt>
<rscale>  0 0.82841166E+02</rscale>
<asrwt>0</asrwt>
<pdfrwt beam="1">  1        2 0.42318524E-01 0.82841166E+02</pdfrwt>
<pdfrwt beam="2">  1       -2 0.18178422E-01 0.82841166E+02</pdfrwt>
<totfact> 0.28119136E+03</totfact>
</mgrwt>
</event>
<event>
 4    1  0.4940461E-001  0.8455745E+02  0.7546771E-02  0.1316594E+00
          2   -1    0    0  501    0  0.00000000000E+00  0.00000000000E+00  0.29823691719E+03  0.29823691719E+03  0.00000000000E+00 0. -1.
         -2   -1    0    0    0  501 -0.00000000000E+00 -0.00000000000E+00 -0.81777719361E+02  0.81777719361E+02  0.00000000000E+00 0.  1.
         24    1    1    2    0    0  0.26058379230E+02  0.19253019185E+01  0.26797572861E+03  0.28099991636E+03  0.80419002446E+02 0. -1.
        -24    1    1    2    0    0 -0.26058379230E+02 -0.19253019185E+01 -0.51516530785E+02  0.99014720189E+02  0.80419002446E+02 0.  1.
<mgrwt>
<rscale>  0 0.84557447E+02</rscale>
<asrwt>0</asrwt>
<pdfrwt beam="1">  1        2 0.45882602E-01 0.84557447E+02</pdfrwt>
<pdfrwt beam="2">  1       -2 0.12581188E-01 0.84557447E+02</pdfrwt>
<totfact> 0.46917277E+03</totfact>
</mgrwt>
</event>
<event>
 4    1  0.4940461E-001  0.8970482E+02  0.7546771E-02  0.1303568E+00
          1   -1    0    0  501    0  0.00000000000E+00  0.00000000000E+00  0.21194736680E+04  0.21194736680E+04  0.00000000000E+00 0. -1.
         -1   -1    0    0    0  501 -0.00000000000E+00 -0.00000000000E+00 -0.36038553644E+02  0.36038553644E+02  0.00000000000E+00 0.  1.
         24    1    1    2    0    0  0.16441947085E+02 -0.36185637168E+02  0.22312032023E+02  0.92437982932E+02  0.80419002446E+02 0.  1.
        -24    1    1    2    0    0 -0.16441947085E+02  0.36185637168E+02  0.20611230824E+04  0.20630742388E+04  0.80419002446E+02 0. -1.
<mgrwt>
<rscale>  0 0.89704815E+02</rscale>
<asrwt>0</asrwt>
<pdfrwt beam="1">  1        1 0.32607278E+00 0.89704815E+02</pdfrwt>
<pdfrwt beam="2">  1       -1 0.55443945E-02 0.89704815E+02</pdfrwt>
<totfact> 0.44513886E+02</totfact>
</mgrwt>
</event>
<event>
 4    1  0.4940461E-001  0.1130826E+03  0.7546771E-02  0.1254966E+00
         -2   -1    0    0    0  501 -0.00000000000E+00  0.00000000000E+00  0.67354452713E+01  0.67354452713E+01  0.00000000000E+00 0.  1.
          2   -1    0    0  501    0  0.00000000000E+00 -0.00000000000E+00 -0.24029606118E+04  0.24029606118E+04  0.00000000000E+00 0. -1.
         24    1    1    2    0    0  0.78620342793E+02 -0.11802833527E+02 -0.17501195568E+04  0.17537691251E+04  0.80419002446E+02 0. -1.
        -24    1    1    2    0    0 -0.78620342793E+02  0.11802833527E+02 -0.64610560972E+03  0.65592693194E+03  0.80419002446E+02 0.  1.
<mgrwt>
<rscale>  0 0.11308263E+03</rscale>
<asrwt>0</asrwt>
<pdfrwt beam="1">  1        2 0.36968645E+00 0.11308263E+03</pdfrwt>
<pdfrwt beam="2">  1       -2 0.10362218E-02 0.11308263E+03</pdfrwt>
<totfact> 0.90424337E+03</totfact>
</mgrwt>
</event>
<event>
 4    1  0.4940461E-001  0.8328537E+02  0.7546771E-02  0.1319978E+00
         -2   -1    0    0    0  501 -0.00000000000E+00  0.00000000000E+00  0.13029410141E+03  0.13029410141E+03  0.00000000000E+00 0.  1.
          2   -1    0    0  501    0  0.00000000000E+00 -0.00000000000E+00 -0.55110893557E+02  0.55110893557E+02  0.00000000000E+00 0. -1.
         24    1    1    2    0    0 -0.20921694291E+02 -0.56141692536E+01  0.20497023390E+02  0.85770508397E+02  0.80419002446E+02 0.  0.
        -24    1    1    2    0    0  0.20921694291E+02  0.56141692536E+01  0.54686184462E+02  0.99634486568E+02  0.80419002446E+02 0. -1.
<mgrwt>
<rscale>  0 0.83285366E+02</rscale>
<asrwt>0</asrwt>
<pdfrwt beam="1">  1        2 0.84785991E-02 0.83285366E+02</pdfrwt>
<pdfrwt beam="2">  1       -2 0.20045246E-01 0.83285366E+02</pdfrwt>
<totfact> 0.14608546E+04</totfact>
</mgrwt>
</event>
<event>
 4    1  0.4940461E-001  0.8867016E+02  0.7546771E-02  0.1306104E+00
         -1   -1    0    0    0  501 -0.00000000000E+00  0.00000000000E+00  0.98987872541E+01  0.98987872541E+01  0.00000000000E+00 0.  1.
          1   -1    0    0  501    0  0.00000000000E+00 -0.00000000000E+00 -0.83816571005E+03  0.83816571005E+03  0.00000000000E+00 0. -1.
         24    1    1    2    0    0  0.35168613762E+02 -0.12583527797E+02 -0.51116292143E+03  0.51879661214E+03  0.80419002446E+02 0.  1.
        -24    1    1    2    0    0 -0.35168613762E+02  0.12583527797E+02 -0.31710400137E+03  0.32926788517E+03  0.80419002446E+02 0.  0.
<mgrwt>
<rscale>  0 0.88670144E+02</rscale>
<asrwt>0</asrwt>
<pdfrwt beam="1">  1        1 0.12894860E+00 0.88670155E+02</pdfrwt>
<pdfrwt beam="2">  1       -1 0.15228899E-02 0.88670155E+02</pdfrwt>
<totfact> 0.20021366E+04</totfact>
</mgrwt>
</event>
<event>
 4    1  0.4940461E-001  0.9036841E+02  0.7546771E-02  0.1301962E+00
         -2   -1    0    0    0  501 -0.00000000000E+00  0.00000000000E+00  0.19123683774E+03  0.19123683774E+03  0.00000000000E+00 0.  1.
          2   -1    0    0  501    0  0.00000000000E+00 -0.00000000000E+00 -0.30803519333E+03  0.30803519333E+03  0.00000000000E+00 0. -1.
         24    1    1    2    0    0  0.40516980170E+02 -0.75899975471E+01 -0.29008623696E+03  0.30383626277E+03  0.80419002446E+02 0. -1.
        -24    1    1    2    0    0 -0.40516980170E+02  0.75899975471E+01  0.17328788138E+03  0.19543576830E+03  0.80419002446E+02 0.  1.
<mgrwt>
<rscale>  0 0.90368411E+02</rscale>
<asrwt>0</asrwt>
<pdfrwt beam="1">  1        2 0.47390030E-01 0.90368411E+02</pdfrwt>
<pdfrwt beam="2">  1       -2 0.29421052E-01 0.90368411E+02</pdfrwt>
<totfact> 0.11009964E+03</totfact>
</mgrwt>
</event>
<event>
 4    1  0.4940461E-001  0.1101083E+03  0.7546771E-02  0.1260369E+00
         -3   -1    0    0    0  501 -0.00000000000E+00  0.00000000000E+00  0.15064109032E+03  0.15064109032E+03  0.00000000000E+00 0.  1.
          3   -1    0    0  501    0  0.00000000000E+00 -0.00000000000E+00 -0.82988576740E+02  0.82988576740E+02  0.00000000000E+00 0. -1.
         24    1    1    2    0    0 -0.47973528817E+02  0.57923844763E+02  0.54129131105E+02  0.12269396908E+03  0.80419002446E+02 0.  1.
        -24    1    1    2    0    0  0.47973528817E+02 -0.57923844763E+02  0.13523382478E+02  0.11093569798E+03  0.80419002446E+02 0. -1.
<mgrwt>
<rscale>  0 0.11010834E+03</rscale>
<asrwt>0</asrwt>
<pdfrwt beam="1">  1        3 0.12767473E-01 0.11010834E+03</pdfrwt>
<pdfrwt beam="2">  1       -3 0.23175552E-01 0.11010834E+03</pdfrwt>
<totfact> 0.18623909E+03</totfact>
</mgrwt>
</event>
<event>
 4    1  0.4940461E-001  0.9301283E+02  0.7546771E-02  0.1295715E+00
          2   -1    0    0  501    0  0.00000000000E+00  0.00000000000E+00  0.78979143013E+01  0.78979143013E+01  0.00000000000E+00 0. -1.
         -2   -1    0    0    0  501 -0.00000000000E+00 -0.00000000000E+00 -0.11096829871E+04  0.11096829871E+04  0.00000000000E+00 0.  1.
         24    1    1    2    0    0 -0.43836922238E+02 -0.16201706258E+02 -0.48750022647E+03  0.49629412429E+03  0.80419002446E+02 0.  1.
        -24    1    1    2    0    0  0.43836922238E+02  0.16201706258E+02 -0.61428484636E+03  0.62128677715E+03  0.80419002446E+02 0. -1.
<mgrwt>
<rscale>  0 0.93012832E+02</rscale>
<asrwt>0</asrwt>
<pdfrwt beam="1">  1        2 0.12150636E-02 0.93012832E+02</pdfrwt>
<pdfrwt beam="2">  1       -2 0.17072048E+00 0.93012832E+02</pdfrwt>
<totfact> 0.22808310E+03</totfact>
</mgrwt>
</event>
<event>
 4    1  0.4940461E-001  0.1182059E+03  0.7546771E-02  0.1246086E+00
         -2   -1    0    0    0  501 -0.00000000000E+00  0.00000000000E+00  0.85825039137E+02  0.85825039137E+02  0.00000000000E+00 0.  1.
          2   -1    0    0  501    0  0.00000000000E+00 -0.00000000000E+00 -0.31767885219E+03  0.31767885219E+03  0.00000000000E+00 0. -1.
         24    1    1    2    0    0 -0.78422578996E+02 -0.36814739825E+02 -0.25679554651E+03  0.28269523276E+03  0.80419002446E+02 0. -1.
        -24    1    1    2    0    0  0.78422578996E+02  0.36814739825E+02  0.24941733448E+02  0.12080865857E+03  0.80419002446E+02 0.  1.
<mgrwt>
<rscale>  0 0.11820593E+03</rscale>
<asrwt>0</asrwt>
<pdfrwt beam="1">  1        2 0.48873669E-01 0.11820593E+03</pdfrwt>
<pdfrwt beam="2">  1       -2 0.13203852E-01 0.11820593E+03</pdfrwt>
<totfact> 0.41501989E+03</totfact>
</mgrwt>
</event>
<event>
 4    1  0.4940461E-001  0.8672908E+02  0.7546771E-02  0.1310972E+00
          2   -1    0    0  501    0  0.00000000000E+00  0.00000000000E+00  0.34613295949E+03  0.34613295949E+03  0.00000000000E+00 0. -1.
         -2   -1    0    0    0  501 -0.00000000000E+00 -0.00000000000E+00 -0.23018373312E+02  0.23018373312E+02  0.00000000000E+00 0.  1.
         24    1    1    2    0    0  0.32448983513E+02  0.13330384740E+01  0.11791236772E+03  0.14637368595E+03  0.80419002446E+02 0.  1.
        -24    1    1    2    0    0 -0.32448983513E+02 -0.13330384740E+01  0.20520221846E+03  0.22277764685E+03  0.80419002446E+02 0. -1.
<mgrwt>
<rscale>  0 0.86729069E+02</rscale>
<asrwt>0</asrwt>
<pdfrwt beam="1">  1        2 0.53251221E-01 0.86729080E+02</pdfrwt>
<pdfrwt beam="2">  1       -2 0.35412884E-02 0.86729080E+02</pdfrwt>
<totfact> 0.27394949E+04</totfact>
</mgrwt>
</event>
<event>
 4    1  0.4940461E-001  0.8116091E+02  0.7546771E-02  0.1325789E+00
         -1   -1    0    0    0  501 -0.00000000000E+00  0.00000000000E+00  0.72899515745E+03  0.72899515745E+03  0.00000000000E+00 0.  1.
          1   -1    0    0  501    0  0.00000000000E+00 -0.00000000000E+00 -0.18506723810E+02  0.18506723810E+02  0.00000000000E+00 0. -1.
         24    1    1    2    0    0 -0.80318894995E+01 -0.74408185004E+01  0.62261409723E+03  0.62788168237E+03  0.80419002446E+02 0.  1.
        -24    1    1    2    0    0  0.80318894995E+01  0.74408185004E+01  0.87874336403E+02  0.11962019889E+03  0.80419002446E+02 0.  0.
<mgrwt>
<rscale>  0 0.81160908E+02</rscale>
<asrwt>0</asrwt>
<pdfrwt beam="1">  1        1 0.28471888E-02 0.81160908E+02</pdfrwt>
<pdfrwt beam="2">  1       -1 0.11215308E+00 0.81160908E+02</pdfrwt>
<totfact> 0.26568300E+03</totfact>
</mgrwt>
</event>
<event>
 4    1  0.4940461E-001  0.9134590E+02  0.7546771E-02  0.1299625E+00
          2   -1    0    0  501    0  0.00000000000E+00  0.00000000000E+00  0.28848302284E+03  0.28848302284E+03  0.00000000000E+00 0. -1.
         -2   -1    0    0    0  501 -0.00000000000E+00 -0.00000000000E+00 -0.29408329385E+02  0.29408329385E+02  0.00000000000E+00 0.  1.
         24    1    1    2    0    0  0.40968174233E+02 -0.14087789179E+02  0.14993589814E+03  0.17557006183E+03  0.80419002446E+02 0.  0.
        -24    1    1    2    0    0 -0.40968174233E+02  0.14087789179E+02  0.10913879532E+03  0.14232129040E+03  0.80419002446E+02 0.  1.
<mgrwt>
<rscale>  0 0.91345898E+02</rscale>
<asrwt>0</asrwt>
<pdfrwt beam="1">  1        2 0.44382002E-01 0.91345898E+02</pdfrwt>
<pdfrwt beam="2">  1       -2 0.45243586E-02 0.91345898E+02</pdfrwt>
<totfact> 0.23254130E+04</totfact>
</mgrwt>
</event>
<event>
 4    1  0.4940461E-001  0.1379061E+03  0.7546771E-02  0.1216175E+00
          2   -1    0    0  501    0  0.00000000000E+00  0.00000000000E+00  0.11307894102E+04  0.11307894102E+04  0.00000000000E+00 0. -1.
         -2   -1    0    0    0  501 -0.00000000000E+00 -0.00000000000E+00 -0.18944802153E+02  0.18944802153E+02  0.00000000000E+00 0.  1.
         24    1    1    2    0    0  0.10327601098E+03 -0.43415911455E+02  0.74851642816E+03  0.76111427196E+03  0.80419002446E+02 0.  0.
        -24    1    1    2    0    0 -0.10327601098E+03  0.43415911455E+02  0.36332817986E+03  0.38861994036E+03  0.80419002446E+02 0.  1.
<mgrwt>
<rscale>  0 0.13790610E+03</rscale>
<asrwt>0</asrwt>
<pdfrwt beam="1">  1        2 0.17396755E+00 0.13790610E+03</pdfrwt>
<pdfrwt beam="2">  1       -2 0.29145858E-02 0.13790610E+03</pdfrwt>
<totfact> 0.93913515E+03</totfact>
</mgrwt>
</event>
<event>
 4    1  0.4940461E-001  0.8268329E+02  0.7546771E-02  0.1321605E+00
         -4   -1    0    0    0  501 -0.00000000000E+00  0.00000000000E+00  0.18692646481E+03  0.18692646481E+03  0.00000000000E+00 0.  1.
          4   -1    0    0  501    0  0.00000000000E+00 -0.00000000000E+00 -0.44255561292E+02  0.44255561292E+02  0.00000000000E+00 0. -1.
         24    1    1    2    0    0 -0.28032791804E+01  0.19011877104E+02  0.23175787339E+02  0.85869918588E+02  0.80419002446E+02 0. -1.
        -24    1    1    2    0    0  0.28032791804E+01 -0.19011877104E+02  0.11949511618E+03  0.14531210751E+03  0.80419002446E+02 0.  1.
<mgrwt>
<rscale>  0 0.82683286E+02</rscale>
<asrwt>0</asrwt>
<pdfrwt beam="1">  1        4 0.68085480E-02 0.82683286E+02</pdfrwt>
<pdfrwt beam="2">  1       -4 0.28757917E-01 0.82683286E+02</pdfrwt>
<totfact> 0.24046315E+03</totfact>
</mgrwt>
</event>
<event>
 4    1  0.4940461E-001  0.8692915E+02  0.7546771E-02  0.1310463E+00
          2   -1    0    0  501    0  0.00000000000E+00  0.00000000000E+00  0.25577436801E+03  0.25577436801E+03  0.00000000000E+00 0. -1.
         -2   -1    0    0    0  501 -0.00000000000E+00 -0.00000000000E+00 -0.30601133669E+02  0.30601133669E+02  0.00000000000E+00 0.  1.
         24    1    1    2    0    0  0.32891228413E+02  0.27619790151E+01  0.13919621054E+03  0.16411051891E+03  0.80419002446E+02 0. -1.
        -24    1    1    2    0    0 -0.32891228413E+02 -0.27619790151E+01  0.85977023797E+02  0.12226498276E+03  0.80419002446E+02 0. -1.
<mgrwt>
<rscale>  0 0.86929152E+02</rscale>
<asrwt>0</asrwt>
<pdfrwt beam="1">  1        2 0.39349901E-01 0.86929152E+02</pdfrwt>
<pdfrwt beam="2">  1       -2 0.47078669E-02 0.86929152E+02</pdfrwt>
<totfact> 0.24727753E+04</totfact>
</mgrwt>
</event>
<event>
 4    1  0.4940461E-001  0.9951172E+02  0.7546771E-02  0.1281326E+00
         -2   -1    0    0    0  501 -0.00000000000E+00  0.00000000000E+00  0.86491257195E+01  0.86491257195E+01  0.00000000000E+00 0.  1.
          2   -1    0    0  501    0  0.00000000000E+00 -0.00000000000E+00 -0.11691002707E+04  0.11691002707E+04  0.00000000000E+00 0. -1.
         24    1    1    2    0    0 -0.71107653055E+01  0.58179025576E+02 -0.49554069677E+03  0.50543363571E+03  0.80419002446E+02 0.  1.
        -24    1    1    2    0    0  0.71107653055E+01 -0.58179025576E+02 -0.66491044817E+03  0.67231576067E+03  0.80419002446E+02 0. -1.
<mgrwt>
<rscale>  0 0.99511710E+02</rscale>
<asrwt>0</asrwt>
<pdfrwt beam="1">  1        2 0.17986155E+00 0.99511722E+02</pdfrwt>
<pdfrwt beam="2">  1       -2 0.13306349E-02 0.99511722E+02</pdfrwt>
<totfact> 0.27181864E+04</totfact>
</mgrwt>
</event>
<event>
 4    1  0.4940461E-001  0.8253763E+02  0.7546771E-02  0.1322000E+00
         -1   -1    0    0    0  501 -0.00000000000E+00  0.00000000000E+00  0.37713843524E+02  0.37713843524E+02  0.00000000000E+00 0.  1.
          1   -1    0    0  501    0  0.00000000000E+00 -0.00000000000E+00 -0.27034416925E+03  0.27034416925E+03  0.00000000000E+00 0. -1.
         24    1    1    2    0    0 -0.16396236691E+02  0.87411997992E+01 -0.27587083423E+02  0.87025905785E+02  0.80419002446E+02 0.  0.
        -24    1    1    2    0    0  0.16396236691E+02 -0.87411997992E+01 -0.20504324231E+03  0.22103210699E+03  0.80419002446E+02 0.  0.
<mgrwt>
<rscale>  0 0.82537634E+02</rscale>
<asrwt>0</asrwt>
<pdfrwt beam="1">  1        1 0.41591411E-01 0.82537634E+02</pdfrwt>
<pdfrwt beam="2">  1       -1 0.58021297E-02 0.82537634E+02</pdfrwt>
<totfact> 0.12632319E+04</totfact>
</mgrwt>
</event>
<event>
 4    1  0.4940461E-001  0.9028348E+02  0.7546771E-02  0.1302167E+00
         -1   -1    0    0    0  501 -0.00000000000E+00  0.00000000000E+00  0.16167455264E+03  0.16167455264E+03  0.00000000000E+00 0.  1.
          1   -1    0    0  501    0  0.00000000000E+00 -0.00000000000E+00 -0.80570395342E+02  0.80570395342E+02  0.00000000000E+00 0. -1.
         24    1    1    2    0    0  0.18354729484E+02 -0.36701425283E+02  0.11465013991E+03  0.14593067274E+03  0.80419002446E+02 0.  1.
        -24    1    1    2    0    0 -0.18354729484E+02  0.36701425283E+02 -0.33545982604E+02  0.96314275243E+02  0.80419002446E+02 0. -1.
<mgrwt>
<rscale>  0 0.90283479E+02</rscale>
<asrwt>0</asrwt>
<pdfrwt beam="1">  1        1 0.12395446E-01 0.90283479E+02</pdfrwt>
<pdfrwt beam="2">  1       -1 0.24873008E-01 0.90283479E+02</pdfrwt>
<totfact> 0.62053370E+03</totfact>
</mgrwt>
</event>
<event>
 4    1  0.4940461E-001  0.8652460E+02  0.7546771E-02  0.1311493E+00
          2   -1    0    0  501    0  0.00000000000E+00  0.00000000000E+00  0.14221975013E+04  0.14221975013E+04  0.00000000000E+00 0. -1.
         -2   -1    0    0    0  501 -0.00000000000E+00 -0.00000000000E+00 -0.96620558604E+01  0.96620558604E+01  0.00000000000E+00 0.  1.
         24    1    1    2    0    0 -0.31798683228E+02 -0.28520747851E+01  0.11892864630E+04  0.11924297873E+04  0.80419002446E+02 0. -1.
        -24    1    1    2    0    0  0.31798683228E+02  0.28520747851E+01  0.22324898243E+03  0.23942976986E+03  0.80419002446E+02 0.  1.
<mgrwt>
<rscale>  0 0.86524601E+02</rscale>
<asrwt>0</asrwt>
<pdfrwt beam="1">  1        2 0.21879945E+00 0.86524601E+02</pdfrwt>
<pdfrwt beam="2">  1       -2 0.14864713E-02 0.86524601E+02</pdfrwt>
<totfact> 0.16849626E+04</totfact>
</mgrwt>
</event>
<event>
 4    1  0.4940461E-001  0.9031502E+02  0.7546771E-02  0.1302091E+00
          1   -1    0    0  501    0  0.00000000000E+00  0.00000000000E+00  0.21896203869E+03  0.21896203869E+03  0.00000000000E+00 0. -1.
         -1   -1    0    0    0  501 -0.00000000000E+00 -0.00000000000E+00 -0.84167647093E+02  0.84167647093E+02  0.00000000000E+00 0.  1.
         24    1    1    2    0    0  0.37992784427E+02  0.15688675345E+02 -0.45760511010E+02  0.10124636549E+03  0.80419002446E+02 0.  1.
        -24    1    1    2    0    0 -0.37992784427E+02 -0.15688675345E+02  0.18055490261E+03  0.20188332030E+03  0.80419002446E+02 0. -1.
<mgrwt>
<rscale>  0 0.90315016E+02</rscale>
<asrwt>0</asrwt>
<pdfrwt beam="1">  1        1 0.33686467E-01 0.90315016E+02</pdfrwt>
<pdfrwt beam="2">  1       -1 0.12948869E-01 0.90315016E+02</pdfrwt>
<totfact> 0.49460003E+03</totfact>
</mgrwt>
</event>
<event>
 4    1  0.4940461E-001  0.1018026E+03  0.7546771E-02  0.1276550E+00
         -1   -1    0    0    0  501 -0.00000000000E+00  0.00000000000E+00  0.86658608381E+01  0.86658608381E+01  0.00000000000E+00 0.  1.
          1   -1    0    0  501    0  0.00000000000E+00 -0.00000000000E+00 -0.16777195848E+04  0.16777195848E+04  0.00000000000E+00 0. -1.
         24    1    1    2    0    0  0.10983161090E+02  0.61448535391E+02 -0.38267550703E+03  0.39598524210E+03  0.80419002446E+02 0.  1.
        -24    1    1    2    0    0 -0.10983161090E+02 -0.61448535391E+02 -0.12863782169E+04  0.12904002035E+04  0.80419002446E+02 0. -1.
<mgrwt>
<rscale>  0 0.10180259E+03</rscale>
<asrwt>0</asrwt>
<pdfrwt beam="1">  1        1 0.25811037E+00 0.10180259E+03</pdfrwt>
<pdfrwt beam="2">  1       -1 0.13332111E-02 0.10180259E+03</pdfrwt>
<totfact> 0.65749224E+03</totfact>
</mgrwt>
</event>
<event>
 4    1  0.4940461E-001  0.8502385E+02  0.7546771E-02  0.1315370E+00
          4   -1    0    0  501    0  0.00000000000E+00  0.00000000000E+00  0.19482891225E+02  0.19482891225E+02  0.00000000000E+00 0. -1.
         -4   -1    0    0    0  501 -0.00000000000E+00 -0.00000000000E+00 -0.13210614895E+04  0.13210614895E+04  0.00000000000E+00 0.  1.
         24    1    1    2    0    0  0.14761082695E+02  0.23322726183E+02 -0.82388140138E+02  0.11839282372E+03  0.80419002446E+02 0. -1.
        -24    1    1    2    0    0 -0.14761082695E+02 -0.23322726183E+02 -0.12191904581E+04  0.12221515570E+04  0.80419002446E+02 0.  1.
<mgrwt>
<rscale>  0 0.85023850E+02</rscale>
<asrwt>0</asrwt>
<pdfrwt beam="1">  1        4 0.29973686E-02 0.85023850E+02</pdfrwt>
<pdfrwt beam="2">  1       -4 0.20324018E+00 0.85023850E+02</pdfrwt>
<totfact> 0.11726922E+02</totfact>
</mgrwt>
</event>
<event>
 4    1  0.4940461E-001  0.8173284E+02  0.7546771E-02  0.1324205E+00
         -2   -1    0    0    0  501 -0.00000000000E+00  0.00000000000E+00  0.14997588365E+03  0.14997588365E+03  0.00000000000E+00 0.  1.
          2   -1    0    0  501    0  0.00000000000E+00 -0.00000000000E+00 -0.10062251640E+03  0.10062251640E+03  0.00000000000E+00 0. -1.
         24    1    1    2    0    0 -0.74798011447E+01  0.12533729756E+02 -0.68865152046E+02  0.10687687742E+03  0.80419002446E+02 0.  0.
        -24    1    1    2    0    0  0.74798011447E+01 -0.12533729756E+02  0.11821851929E+03  0.14372152262E+03  0.80419002446E+02 0.  1.
<mgrwt>
<rscale>  0 0.81732844E+02</rscale>
<asrwt>0</asrwt>
<pdfrwt beam="1">  1        2 0.15480387E-01 0.81732844E+02</pdfrwt>
<pdfrwt beam="2">  1       -2 0.23073213E-01 0.81732844E+02</pdfrwt>
<totfact> 0.56183102E+03</totfact>
</mgrwt>
</event>
<event>
 4    1  0.4940461E-001  0.8147639E+02  0.7546771E-02  0.1324913E+00
         -1   -1    0    0    0  501 -0.00000000000E+00  0.00000000000E+00  0.22896554355E+02  0.22896554355E+02  0.00000000000E+00 0.  1.
          1   -1    0    0  501    0  0.00000000000E+00 -0.00000000000E+00 -0.13007135944E+04  0.13007135944E+04  0.00000000000E+00 0. -1.
         24    1    1    2    0    0 -0.12707467241E+02 -0.31155496840E+01 -0.55505994551E+02  0.98586600302E+02  0.80419002446E+02 0.  1.
        -24    1    1    2    0    0  0.12707467241E+02  0.31155496840E+01 -0.12223110455E+04  0.12250235485E+04  0.80419002446E+02 0. -1.
<mgrwt>
<rscale>  0 0.81476391E+02</rscale>
<asrwt>0</asrwt>
<pdfrwt beam="1">  1        1 0.20010979E+00 0.81476391E+02</pdfrwt>
<pdfrwt beam="2">  1       -1 0.35225468E-02 0.81476391E+02</pdfrwt>
<totfact> 0.28351771E+03</totfact>
</mgrwt>
</event>
<event>
 4    1  0.4940461E-001  0.8517883E+02  0.7546771E-02  0.1314966E+00
          1   -1    0    0  501    0  0.00000000000E+00  0.00000000000E+00  0.13587670335E+04  0.13587670335E+04  0.00000000000E+00 0. -1.
         -1   -1    0    0    0  501 -0.00000000000E+00 -0.00000000000E+00 -0.58941096154E+02  0.58941096154E+02  0.00000000000E+00 0.  1.
         24    1    1    2    0    0  0.17980204945E+02  0.21562217847E+02 -0.26069927401E+02  0.89079032760E+02  0.80419002446E+02 0.  1.
        -24    1    1    2    0    0 -0.17980204945E+02 -0.21562217847E+02  0.13258958647E+04  0.13286290968E+04  0.80419002446E+02 0. -1.
<mgrwt>
<rscale>  0 0.85178829E+02</rscale>
<asrwt>0</asrwt>
<pdfrwt beam="1">  1        1 0.20904106E+00 0.85178829E+02</pdfrwt>
<pdfrwt beam="2">  1       -1 0.90678620E-02 0.85178829E+02</pdfrwt>
<totfact> 0.64883543E+02</totfact>
</mgrwt>
</event>
<event>
 4    1  0.4940461E-001  0.8768154E+02  0.7546771E-02  0.1308565E+00
         -2   -1    0    0    0  501 -0.00000000000E+00  0.00000000000E+00  0.26870585183E+02  0.26870585183E+02  0.00000000000E+00 0.  1.
          2   -1    0    0  501    0  0.00000000000E+00 -0.00000000000E+00 -0.64943044157E+03  0.64943044157E+03  0.00000000000E+00 0. -1.
         24    1    1    2    0    0 -0.31594002404E+02 -0.14921642895E+02 -0.56420170080E+03  0.57097426523E+03  0.80419002446E+02 0. -1.
        -24    1    1    2    0    0  0.31594002404E+02  0.14921642895E+02 -0.58358155580E+02  0.10532676152E+03  0.80419002446E+02 0.  1.
<mgrwt>
<rscale>  0 0.87681539E+02</rscale>
<asrwt>0</asrwt>
<pdfrwt beam="1">  1        2 0.99912365E-01 0.87681539E+02</pdfrwt>
<pdfrwt beam="2">  1       -2 0.41339366E-02 0.87681539E+02</pdfrwt>
<totfact> 0.11096254E+04</totfact>
</mgrwt>
</event>
<event>
 4    1  0.4940461E-001  0.8154422E+02  0.7546771E-02  0.1324725E+00
          1   -1    0    0  501    0  0.00000000000E+00  0.00000000000E+00  0.32432675082E+03  0.32432675082E+03  0.00000000000E+00 0. -1.
         -1   -1    0    0    0  501 -0.00000000000E+00 -0.00000000000E+00 -0.24001686007E+02  0.24001686007E+02  0.00000000000E+00 0.  1.
         24    1    1    2    0    0 -0.11376136645E+02 -0.72682075592E+01  0.83661080430E+02  0.11682737547E+03  0.80419002446E+02 0.  1.
        -24    1    1    2    0    0  0.11376136645E+02  0.72682075592E+01  0.21666398438E+03  0.23150106135E+03  0.80419002446E+02 0.  0.
<mgrwt>
<rscale>  0 0.81544217E+02</rscale>
<asrwt>0</asrwt>
<pdfrwt beam="1">  1        1 0.49896420E-01 0.81544217E+02</pdfrwt>
<pdfrwt beam="2">  1       -1 0.36925673E-02 0.81544217E+02</pdfrwt>
<totfact> 0.19514842E+04</totfact>
</mgrwt>
</event>
<event>
 4    1  0.4940461E-001  0.9781801E+02  0.7546771E-02  0.1284952E+00
         -1   -1    0    0    0  501 -0.00000000000E+00  0.00000000000E+00  0.55480879330E+01  0.55480879330E+01  0.00000000000E+00 0.  1.
          1   -1    0    0  501    0  0.00000000000E+00 -0.00000000000E+00 -0.20232598512E+04  0.20232598512E+04  0.00000000000E+00 0. -1.
         24    1    1    2    0    0 -0.49114794184E+02  0.26246616094E+02 -0.61913263314E+03  0.62681223763E+03  0.80419002446E+02 0.  1.
        -24    1    1    2    0    0  0.49114794184E+02 -0.26246616094E+02 -0.13985791302E+04  0.14019957015E+04  0.80419002446E+02 0. -1.
<mgrwt>
<rscale>  0 0.97818014E+02</rscale>
<asrwt>0</asrwt>
<pdfrwt beam="1">  1        1 0.31127090E+00 0.97818014E+02</pdfrwt>
<pdfrwt beam="2">  1       -1 0.85355157E-03 0.97818014E+02</pdfrwt>
<totfact> 0.74808366E+03</totfact>
</mgrwt>
</event>
<event>
 4    1  0.4940461E-001  0.8096096E+02  0.7546771E-02  0.1326346E+00
         -2   -1    0    0    0  501 -0.00000000000E+00  0.00000000000E+00  0.64408386071E+01  0.64408386071E+01  0.00000000000E+00 0.  1.
          2   -1    0    0  501    0  0.00000000000E+00 -0.00000000000E+00 -0.12172709890E+04  0.12172709890E+04  0.00000000000E+00 0. -1.
         24    1    1    2    0    0  0.89333198944E+01  0.27669744306E+01 -0.85317560865E+03  0.85700834039E+03  0.80419002446E+02 0.  0.
        -24    1    1    2    0    0 -0.89333198944E+01 -0.27669744306E+01 -0.35765454174E+03  0.36670348721E+03  0.80419002446E+02 0.  1.
<mgrwt>
<rscale>  0 0.80960955E+02</rscale>
<asrwt>0</asrwt>
<pdfrwt beam="1">  1        2 0.18727247E+00 0.80960955E+02</pdfrwt>
<pdfrwt beam="2">  1       -2 0.99089818E-03 0.80960955E+02</pdfrwt>
<totfact> 0.38134978E+04</totfact>
</mgrwt>
</event>
