<event>
 4    1  0.2061941E-008  0.9911053E+03  0.7818608E-02  0.9318354E-01
          2   -1    0    0  501    0  0.00000000000E+00  0.00000000000E+00  0.11147740986E+04  0.11147740986E+04  0.25500000000E-02 0. -1.
         -2   -1    0    0    0  501 -0.00000000000E+00 -0.00000000000E+00 -0.11443038850E+04  0.11443038850E+04  0.25500000000E-02 0.  1.
    8880022    1    1    2    0    0 -0.89061448275E+03  0.40706752176E+03  0.52689984375E+03  0.11224585616E+04  0.15294330000E+03 0.  0.
    8880022    1    1    2    0    0  0.89061448275E+03 -0.40706752176E+03 -0.55642963017E+03  0.11366194220E+04  0.15294330000E+03 0.  0.
<mgrwt>
<rscale>  0 0.99110533E+03</rscale>
<asrwt>0</asrwt>
<pdfrwt beam="1">  1        2 0.17150371E+00 0.99110533E+03</pdfrwt>
<pdfrwt beam="2">  1       -2 0.17604675E+00 0.99110533E+03</pdfrwt>
<totfact> 0.40892011E+00</totfact>
</mgrwt>
</event>
<event>
 4    1  0.2061941E-008  0.1593657E+03  0.7818608E-02  0.1189415E+00
          2   -1    0    0  501    0  0.00000000000E+00  0.00000000000E+00  0.79704221037E+03  0.79704221038E+03  0.25500000000E-02 0. -1.
         -2   -1    0    0    0  501 -0.00000000000E+00 -0.00000000000E+00 -0.13097610785E+04  0.13097610785E+04  0.25500000000E-02 0.  1.
    8880022    1    1    2    0    0 -0.25202305751E+02 -0.37021688040E+02 -0.12968683163E+04  0.13066234517E+04  0.15294330000E+03 0.  0.
    8880022    1    1    2    0    0  0.25202305751E+02  0.37021688040E+02  0.78414944824E+03  0.80017983715E+03  0.15294330000E+03 0. -1.
<mgrwt>
<rscale>  0 0.15936566E+03</rscale>
<asrwt>0</asrwt>
<pdfrwt beam="1">  1        2 0.12262188E+00 0.15936566E+03</pdfrwt>
<pdfrwt beam="2">  1       -2 0.20150170E+00 0.15936566E+03</pdfrwt>
<totfact> 0.53976110E+00</totfact>
</mgrwt>
</event>
<event>
 4    1  0.2061941E-008  0.1058379E+04  0.7818608E-02  0.9246736E-01
          2   -1    0    0  501    0  0.00000000000E+00  0.00000000000E+00  0.12487346671E+04  0.12487346671E+04  0.25500000000E-02 0. -1.
         -2   -1    0    0    0  501 -0.00000000000E+00 -0.00000000000E+00 -0.19280720020E+04  0.19280720020E+04  0.25500000000E-02 0.  1.
    8880022    1    1    2    0    0 -0.33319497998E+03  0.99285219365E+03  0.82187370309E+03  0.13400158245E+04  0.15294330000E+03 0.  0.
    8880022    1    1    2    0    0  0.33319497998E+03 -0.99285219365E+03 -0.15012110380E+04  0.18367908446E+04  0.15294330000E+03 0.  0.
<mgrwt>
<rscale>  0 0.10583790E+04</rscale>
<asrwt>0</asrwt>
<pdfrwt beam="1">  1        2 0.19211303E+00 0.10583790E+04</pdfrwt>
<pdfrwt beam="2">  1       -2 0.29662646E+00 0.10583790E+04</pdfrwt>
<totfact> 0.58751665E-01</totfact>
</mgrwt>
</event>
<event>
 4    1  0.2061941E-008  0.5176961E+03  0.7818608E-02  0.1009260E+00
          2   -1    0    0  501    0  0.00000000000E+00  0.00000000000E+00  0.19155497242E+04  0.19155497242E+04  0.25500000000E-02 0. -1.
         -2   -1    0    0    0  501 -0.00000000000E+00 -0.00000000000E+00 -0.29693728815E+03  0.29693728816E+03  0.25500000000E-02 0.  1.
    8880022    1    1    2    0    0  0.27778758422E+03 -0.40920860966E+03  0.16137626413E+04  0.16947681681E+04  0.15294330000E+03 0.  0.
    8880022    1    1    2    0    0 -0.27778758422E+03  0.40920860966E+03  0.48497947567E+01  0.51771884425E+03  0.15294330000E+03 0.  0.
<mgrwt>
<rscale>  0 0.51769613E+03</rscale>
<asrwt>0</asrwt>
<pdfrwt beam="1">  1        2 0.29469996E+00 0.51769613E+03</pdfrwt>
<pdfrwt beam="2">  1       -2 0.45682659E-01 0.51769613E+03</pdfrwt>
<totfact> 0.36084403E+01</totfact>
</mgrwt>
</event>
<event>
 4    1  0.2061941E-008  0.1376521E+04  0.7818608E-02  0.8970992E-01
         -2   -1    0    0    0  501 -0.00000000000E+00  0.00000000000E+00  0.13948027581E+04  0.13948027581E+04  0.25500000000E-02 0.  1.
          2   -1    0    0  501    0  0.00000000000E+00 -0.00000000000E+00 -0.18866765285E+04  0.18866765285E+04  0.25500000000E-02 0. -1.
    8880022    1    1    2    0    0 -0.11490707987E+04  0.74233002162E+03 -0.11140762269E+04  0.17708684462E+04  0.15294330000E+03 0.  0.
    8880022    1    1    2    0    0  0.11490707987E+04 -0.74233002162E+03  0.62220245648E+03  0.15106108404E+04  0.15294330000E+03 0.  0.
<mgrwt>
<rscale>  0 0.13765207E+04</rscale>
<asrwt>0</asrwt>
<pdfrwt beam="1">  1        2 0.29025793E+00 0.13765207E+04</pdfrwt>
<pdfrwt beam="2">  1       -2 0.21458504E+00 0.13765207E+04</pdfrwt>
<totfact> 0.78606229E-01</totfact>
</mgrwt>
</event>
<event>
 4    1  0.2061941E-008  0.8217396E+03  0.7818608E-02  0.9529072E-01
          2   -1    0    0  501    0  0.00000000000E+00  0.00000000000E+00  0.99730901610E+03  0.99730901610E+03  0.25500000000E-02 0. -1.
         -2   -1    0    0    0  501 -0.00000000000E+00 -0.00000000000E+00 -0.82004022842E+03  0.82004022843E+03  0.25500000000E-02 0.  1.
    8880022    1    1    2    0    0 -0.77215306156E+03 -0.23588964557E+03  0.46803810499E+03  0.94568260855E+03  0.15294330000E+03 0.  0.
    8880022    1    1    2    0    0  0.77215306156E+03  0.23588964557E+03 -0.29076931732E+03  0.87166663598E+03  0.15294330000E+03 0.  0.
<mgrwt>
<rscale>  0 0.82173957E+03</rscale>
<asrwt>0</asrwt>
<pdfrwt beam="1">  1        2 0.15343216E+00 0.82173957E+03</pdfrwt>
<pdfrwt beam="2">  1       -2 0.12616003E+00 0.82173957E+03</pdfrwt>
<totfact> 0.11955609E+01</totfact>
</mgrwt>
</event>
<event>
 4    1  0.2061941E-008  0.4530003E+03  0.7818608E-02  0.1026831E+00
         -2   -1    0    0    0  501 -0.00000000000E+00  0.00000000000E+00  0.18051742580E+04  0.18051742580E+04  0.25500000000E-02 0.  1.
          2   -1    0    0  501    0  0.00000000000E+00 -0.00000000000E+00 -0.29231834131E+03  0.29231834133E+03  0.25500000000E-02 0. -1.
    8880022    1    1    2    0    0 -0.27411862340E+03  0.32661390576E+03  0.15762728517E+04  0.16400748212E+04  0.15294330000E+03 0.  0.
    8880022    1    1    2    0    0  0.27411862340E+03 -0.32661390576E+03 -0.63416934961E+02  0.45741777817E+03  0.15294330000E+03 0.  0.
<mgrwt>
<rscale>  0 0.45300035E+03</rscale>
<asrwt>0</asrwt>
<pdfrwt beam="1">  1        2 0.44972052E-01 0.45300035E+03</pdfrwt>
<pdfrwt beam="2">  1       -2 0.27771912E+00 0.45300035E+03</pdfrwt>
<totfact> 0.53287765E+00</totfact>
</mgrwt>
</event>
<event>
 4    1  0.2061941E-008  0.9909215E+03  0.7818608E-02  0.9318558E-01
          2   -1    0    0  501    0  0.00000000000E+00  0.00000000000E+00  0.11819812481E+04  0.11819812481E+04  0.25500000000E-02 0. -1.
         -2   -1    0    0    0  501 -0.00000000000E+00 -0.00000000000E+00 -0.10869101183E+04  0.10869101183E+04  0.25500000000E-02 0.  1.
    8880022    1    1    2    0    0  0.27982016292E+03 -0.93820805250E+03 -0.50320448756E+03  0.11113685629E+04  0.15294330000E+03 0.  0.
    8880022    1    1    2    0    0 -0.27982016292E+03  0.93820805250E+03  0.59827561729E+03  0.11575228035E+04  0.15294330000E+03 0.  0.
<mgrwt>
<rscale>  0 0.99092145E+03</rscale>
<asrwt>0</asrwt>
<pdfrwt beam="1">  1        2 0.18184327E+00 0.99092145E+03</pdfrwt>
<pdfrwt beam="2">  1       -2 0.16721694E+00 0.99092145E+03</pdfrwt>
<totfact> 0.42990588E+00</totfact>
</mgrwt>
</event>
<event>
 4    1  0.2061941E-008  0.3189785E+03  0.7818608E-02  0.1076120E+00
          2   -1    0    0  501    0  0.00000000000E+00  0.00000000000E+00  0.39124421468E+04  0.39124421468E+04  0.25500000000E-02 0. -1.
         -2   -1    0    0    0  501 -0.00000000000E+00 -0.00000000000E+00 -0.33371036788E+03  0.33371036789E+03  0.25500000000E-02 0.  1.
    8880022    1    1    2    0    0  0.97307377357E+02  0.26246316908E+03  0.38280386301E+04  0.38413053832E+04  0.15294330000E+03 0.  0.
    8880022    1    1    2    0    0 -0.97307377357E+02 -0.26246316908E+03 -0.24930685115E+03  0.40484713146E+03  0.15294330000E+03 0.  0.
<mgrwt>
<rscale>  0 0.31897852E+03</rscale>
<asrwt>0</asrwt>
<pdfrwt beam="1">  1        2 0.60191414E+00 0.31897852E+03</pdfrwt>
<pdfrwt beam="2">  1       -2 0.51340060E-01 0.31897852E+03</pdfrwt>
<totfact> 0.18684176E+00</totfact>
</mgrwt>
</event>
<event>
 4    1  0.2061941E-008  0.1674263E+04  0.7818608E-02  0.8776181E-01
         -2   -1    0    0    0  501 -0.00000000000E+00  0.00000000000E+00  0.12190985855E+04  0.12190985855E+04  0.25500000000E-02 0.  1.
          2   -1    0    0  501    0  0.00000000000E+00 -0.00000000000E+00 -0.29383785917E+04  0.29383785917E+04  0.25500000000E-02 0. -1.
    8880022    1    1    2    0    0 -0.64281827805E+03 -0.15383593445E+04 -0.18290332243E+04  0.24796207371E+04  0.15294330000E+03 0.  0.
    8880022    1    1    2    0    0  0.64281827805E+03  0.15383593445E+04  0.10975321811E+03  0.16778564400E+04  0.15294330000E+03 0.  0.
<mgrwt>
<rscale>  0 0.16742630E+04</rscale>
<asrwt>0</asrwt>
<pdfrwt beam="1">  1        2 0.45205824E+00 0.16742630E+04</pdfrwt>
<pdfrwt beam="2">  1       -2 0.18755363E+00 0.16742630E+04</pdfrwt>
<totfact> 0.28319745E-01</totfact>
</mgrwt>
</event>
<event>
 4    1  0.2061941E-008  0.6790250E+03  0.7818608E-02  0.9753790E-01
          2   -1    0    0  501    0  0.00000000000E+00  0.00000000000E+00  0.37749349120E+04  0.37749349120E+04  0.25500000000E-02 0. -1.
         -2   -1    0    0    0  501 -0.00000000000E+00 -0.00000000000E+00 -0.13824118018E+03  0.13824118020E+03  0.25500000000E-02 0.  1.
    8880022    1    1    2    0    0  0.63290026229E+03 -0.19266693164E+03  0.11506276955E+04  0.13360460453E+04  0.15294330000E+03 0.  0.
    8880022    1    1    2    0    0 -0.63290026229E+03  0.19266693164E+03  0.24860660364E+04  0.25771300469E+04  0.15294330000E+03 0.  0.
<mgrwt>
<rscale>  0 0.67902499E+03</rscale>
<asrwt>0</asrwt>
<pdfrwt beam="1">  1        2 0.58075920E+00 0.67902499E+03</pdfrwt>
<pdfrwt beam="2">  1       -2 0.21267874E-01 0.67902499E+03</pdfrwt>
<totfact> 0.10874266E+01</totfact>
</mgrwt>
</event>
<event>
 4    1  0.2061941E-008  0.6756771E+03  0.7818608E-02  0.9759756E-01
          2   -1    0    0  501    0  0.00000000000E+00  0.00000000000E+00  0.29210531056E+04  0.29210531056E+04  0.25500000000E-02 0. -1.
         -2   -1    0    0    0  501 -0.00000000000E+00 -0.00000000000E+00 -0.74886565118E+03  0.74886565119E+03  0.25500000000E-02 0.  1.
    8880022    1    1    2    0    0 -0.59142696021E+03 -0.28872484088E+03  0.27183764294E+04  0.28010908496E+04  0.15294330000E+03 0.  0.
    8880022    1    1    2    0    0  0.59142696021E+03  0.28872484088E+03 -0.54618897492E+03  0.86882790721E+03  0.15294330000E+03 0.  0.
<mgrwt>
<rscale>  0 0.67567709E+03</rscale>
<asrwt>0</asrwt>
<pdfrwt beam="1">  1        2 0.44939280E+00 0.67567709E+03</pdfrwt>
<pdfrwt beam="2">  1       -2 0.11521010E+00 0.67567709E+03</pdfrwt>
<totfact> 0.12404246E+00</totfact>
</mgrwt>
</event>
<event>
 4    1  0.2061941E-008  0.3689328E+03  0.7818608E-02  0.1055102E+00
          2   -1    0    0  501    0  0.00000000000E+00  0.00000000000E+00  0.16248724738E+04  0.16248724738E+04  0.25500000000E-02 0. -1.
         -2   -1    0    0    0  501 -0.00000000000E+00 -0.00000000000E+00 -0.59524456503E+03  0.59524456504E+03  0.25500000000E-02 0.  1.
    8880022    1    1    2    0    0 -0.95660233790E+02 -0.32182121563E+03 -0.51417628967E+03  0.63284175355E+03  0.15294330000E+03 0.  1.
    8880022    1    1    2    0    0  0.95660233790E+02  0.32182121563E+03  0.15438041985E+04  0.15872752853E+04  0.15294330000E+03 0.  0.
<mgrwt>
<rscale>  0 0.36893282E+03</rscale>
<asrwt>0</asrwt>
<pdfrwt beam="1">  1        2 0.24998037E+00 0.36893282E+03</pdfrwt>
<pdfrwt beam="2">  1       -2 0.91576089E-01 0.36893282E+03</pdfrwt>
<totfact> 0.12127424E+01</totfact>
</mgrwt>
</event>
<event>
 4    1  0.2061941E-008  0.1360611E+04  0.7818608E-02  0.8982834E-01
          2   -1    0    0  501    0  0.00000000000E+00  0.00000000000E+00  0.18957920641E+04  0.18957920641E+04  0.25500000000E-02 0. -1.
         -2   -1    0    0    0  501 -0.00000000000E+00 -0.00000000000E+00 -0.18541547993E+04  0.18541547993E+04  0.25500000000E-02 0.  1.
    8880022    1    1    2    0    0  0.89875655153E+03 -0.10100042168E+04 -0.12691556296E+04  0.18606502954E+04  0.15294330000E+03 0.  0.
    8880022    1    1    2    0    0 -0.89875655153E+03  0.10100042168E+04  0.13107928944E+04  0.18892965680E+04  0.15294330000E+03 0.  0.
<mgrwt>
<rscale>  0 0.13606114E+04</rscale>
<asrwt>0</asrwt>
<pdfrwt beam="1">  1        2 0.29166032E+00 0.13606114E+04</pdfrwt>
<pdfrwt beam="2">  1       -2 0.28525459E+00 0.13606114E+04</pdfrwt>
<totfact> 0.28489281E-01</totfact>
</mgrwt>
</event>
<event>
 4    1  0.2061941E-008  0.1437129E+04  0.7818608E-02  0.8927373E-01
          2   -1    0    0  501    0  0.00000000000E+00  0.00000000000E+00  0.77161436814E+03  0.77161436815E+03  0.25500000000E-02 0. -1.
         -2   -1    0    0    0  501 -0.00000000000E+00 -0.00000000000E+00 -0.32715091944E+04  0.32715091944E+04  0.25500000000E-02 0.  1.
    8880022    1    1    2    0    0  0.32018074249E+03 -0.13926350220E+04 -0.21119745736E+04  0.25545598965E+04  0.15294330000E+03 0.  0.
    8880022    1    1    2    0    0 -0.32018074249E+03  0.13926350220E+04 -0.38792025271E+03  0.14885636661E+04  0.15294330000E+03 0.  0.
<mgrwt>
<rscale>  0 0.14371290E+04</rscale>
<asrwt>0</asrwt>
<pdfrwt beam="1">  1        2 0.11870990E+00 0.14371290E+04</pdfrwt>
<pdfrwt beam="2">  1       -2 0.50330910E+00 0.14371290E+04</pdfrwt>
<totfact> 0.54108171E-02</totfact>
</mgrwt>
</event>
<event>
 4    1  0.2061941E-008  0.7661792E+03  0.7818608E-02  0.9610304E-01
          2   -1    0    0  501    0  0.00000000000E+00  0.00000000000E+00  0.64857235826E+03  0.64857235826E+03  0.25500000000E-02 0. -1.
         -2   -1    0    0    0  501 -0.00000000000E+00 -0.00000000000E+00 -0.17029632078E+04  0.17029632078E+04  0.25500000000E-02 0.  1.
    8880022    1    1    2    0    0 -0.19091321127E+03  0.72607922570E+03  0.27758964032E+03  0.81491506163E+03  0.15294330000E+03 0.  0.
    8880022    1    1    2    0    0  0.19091321127E+03 -0.72607922570E+03 -0.13319804898E+04  0.15366205044E+04  0.15294330000E+03 0.  0.
<mgrwt>
<rscale>  0 0.76617919E+03</rscale>
<asrwt>0</asrwt>
<pdfrwt beam="1">  1        2 0.99780363E-01 0.76617919E+03</pdfrwt>
<pdfrwt beam="2">  1       -2 0.26199434E+00 0.76617919E+03</pdfrwt>
<totfact> 0.25207308E+00</totfact>
</mgrwt>
</event>
<event>
 4    1  0.2061941E-008  0.1217880E+04  0.7818608E-02  0.9097349E-01
          2   -1    0    0  501    0  0.00000000000E+00  0.00000000000E+00  0.18516801384E+04  0.18516801384E+04  0.25500000000E-02 0. -1.
         -2   -1    0    0    0  501 -0.00000000000E+00 -0.00000000000E+00 -0.10804106520E+04  0.10804106520E+04  0.25500000000E-02 0.  1.
    8880022    1    1    2    0    0 -0.12081019975E+04 -0.18149330407E+02  0.11311550651E+04  0.16621501944E+04  0.15294330000E+03 0.  0.
    8880022    1    1    2    0    0  0.12081019975E+04  0.18149330407E+02 -0.35988557874E+03  0.12699405960E+04  0.15294330000E+03 0.  0.
<mgrwt>
<rscale>  0 0.12178799E+04</rscale>
<asrwt>0</asrwt>
<pdfrwt beam="1">  1        2 0.28487386E+00 0.12178799E+04</pdfrwt>
<pdfrwt beam="2">  1       -2 0.16621702E+00 0.12178799E+04</pdfrwt>
<totfact> 0.17768104E+00</totfact>
</mgrwt>
</event>
<event>
 4    1  0.2061941E-008  0.4329577E+03  0.7818608E-02  0.1032930E+00
         -2   -1    0    0    0  501 -0.00000000000E+00  0.00000000000E+00  0.55528988106E+03  0.55528988106E+03  0.25500000000E-02 0.  1.
          2   -1    0    0  501    0  0.00000000000E+00 -0.00000000000E+00 -0.80131609130E+03  0.80131609130E+03  0.25500000000E-02 0. -1.
    8880022    1    1    2    0    0 -0.12577395200E+03  0.38502157270E+03  0.39299826946E+03  0.58472214877E+03  0.15294330000E+03 0.  0.
    8880022    1    1    2    0    0  0.12577395200E+03 -0.38502157270E+03 -0.63902447971E+03  0.77188382360E+03  0.15294330000E+03 0.  0.
<mgrwt>
<rscale>  0 0.43295768E+03</rscale>
<asrwt>0</asrwt>
<pdfrwt beam="1">  1        2 0.12327940E+00 0.43295768E+03</pdfrwt>
<pdfrwt beam="2">  1       -2 0.85429212E-01 0.43295768E+03</pdfrwt>
<totfact> 0.42943414E+01</totfact>
</mgrwt>
</event>
<event>
 4    1  0.2061941E-008  0.4607524E+03  0.7818608E-02  0.1024563E+00
          2   -1    0    0  501    0  0.00000000000E+00  0.00000000000E+00  0.10582638811E+04  0.10582638811E+04  0.25500000000E-02 0. -1.
         -2   -1    0    0    0  501 -0.00000000000E+00 -0.00000000000E+00 -0.87673329914E+03  0.87673329915E+03  0.25500000000E-02 0.  1.
    8880022    1    1    2    0    0  0.35618745319E+02  0.43316561388E+03 -0.75886740376E+03  0.88779081634E+03  0.15294330000E+03 0.  0.
    8880022    1    1    2    0    0 -0.35618745319E+02 -0.43316561388E+03  0.94039798575E+03  0.10472063639E+04  0.15294330000E+03 0.  0.
<mgrwt>
<rscale>  0 0.46075242E+03</rscale>
<asrwt>0</asrwt>
<pdfrwt beam="1">  1        2 0.16280983E+00 0.46075242E+03</pdfrwt>
<pdfrwt beam="2">  1       -2 0.13488205E+00 0.46075242E+03</pdfrwt>
<totfact> 0.97439191E+00</totfact>
</mgrwt>
</event>
<event>
 4    1  0.2061941E-008  0.6284383E+03  0.7818608E-02  0.9848101E-01
         -2   -1    0    0    0  501 -0.00000000000E+00  0.00000000000E+00  0.12910427008E+04  0.12910427008E+04  0.25500000000E-02 0.  1.
          2   -1    0    0  501    0  0.00000000000E+00 -0.00000000000E+00 -0.49668242417E+03  0.49668242417E+03  0.25500000000E-02 0. -1.
    8880022    1    1    2    0    0  0.21781814666E+03  0.56929633687E+03  0.95116301536E+03  0.11400200871E+04  0.15294330000E+03 0.  0.
    8880022    1    1    2    0    0 -0.21781814666E+03 -0.56929633687E+03 -0.15680273873E+03  0.64770503787E+03  0.15294330000E+03 0.  0.
<mgrwt>
<rscale>  0 0.62843832E+03</rscale>
<asrwt>0</asrwt>
<pdfrwt beam="1">  1        2 0.76412680E-01 0.62843832E+03</pdfrwt>
<pdfrwt beam="2">  1       -2 0.19862195E+00 0.62843832E+03</pdfrwt>
<totfact> 0.87154594E+00</totfact>
</mgrwt>
</event>
<event>
 4    1  0.2061941E-008  0.4626583E+03  0.7818608E-02  0.1024013E+00
          2   -1    0    0  501    0  0.00000000000E+00  0.00000000000E+00  0.86037466612E+03  0.86037466612E+03  0.25500000000E-02 0. -1.
         -2   -1    0    0    0  501 -0.00000000000E+00 -0.00000000000E+00 -0.48934048177E+03  0.48934048177E+03  0.25500000000E-02 0.  1.
    8880022    1    1    2    0    0  0.43164432476E+03 -0.65910999452E+02 -0.28764456093E+03  0.54478631536E+03  0.15294330000E+03 0.  0.
    8880022    1    1    2    0    0 -0.43164432476E+03  0.65910999452E+02  0.65867874529E+03  0.80492883254E+03  0.15294330000E+03 0.  0.
<mgrwt>
<rscale>  0 0.46265834E+03</rscale>
<asrwt>0</asrwt>
<pdfrwt beam="1">  1        2 0.13236533E+00 0.46265834E+03</pdfrwt>
<pdfrwt beam="2">  1       -2 0.75283151E-01 0.46265834E+03</pdfrwt>
<totfact> 0.51625538E+01</totfact>
</mgrwt>
</event>
<event>
 4    1  0.2061941E-008  0.2676773E+04  0.7818608E-02  0.8342581E-01
          2   -1    0    0  501    0  0.00000000000E+00  0.00000000000E+00  0.40062949765E+04  0.40062949765E+04  0.25500000000E-02 0. -1.
         -2   -1    0    0    0  501 -0.00000000000E+00 -0.00000000000E+00 -0.21247198264E+04  0.21247198264E+04  0.25500000000E-02 0.  1.
    8880022    1    1    2    0    0  0.20399817601E+04  0.17263238097E+04  0.21603020517E+04  0.34397697721E+04  0.15294330000E+03 0.  0.
    8880022    1    1    2    0    0 -0.20399817601E+04 -0.17263238097E+04 -0.27872690167E+03  0.26912450308E+04  0.15294330000E+03 0.  0.
<mgrwt>
<rscale>  0 0.26767725E+04</rscale>
<asrwt>0</asrwt>
<pdfrwt beam="1">  1        2 0.61635307E+00 0.26767725E+04</pdfrwt>
<pdfrwt beam="2">  1       -2 0.32687997E+00 0.26767725E+04</pdfrwt>
<totfact> 0.60299779E-03</totfact>
</mgrwt>
</event>
<event>
 4    1  0.2061941E-008  0.1863784E+04  0.7818608E-02  0.8673096E-01
         -2   -1    0    0    0  501 -0.00000000000E+00  0.00000000000E+00  0.25321238447E+04  0.25321238447E+04  0.25500000000E-02 0.  1.
          2   -1    0    0  501    0  0.00000000000E+00 -0.00000000000E+00 -0.39829566490E+04  0.39829566490E+04  0.25500000000E-02 0. -1.
    8880022    1    1    2    0    0  0.75486594628E+02  0.18559634850E+04  0.19121258721E+04  0.26701901968E+04  0.15294330000E+03 0.  0.
    8880022    1    1    2    0    0 -0.75486594628E+02 -0.18559634850E+04 -0.33629586764E+04  0.38448902969E+04  0.15294330000E+03 0.  0.
<mgrwt>
<rscale>  0 0.18637839E+04</rscale>
<asrwt>0</asrwt>
<pdfrwt beam="1">  1        2 0.61276256E+00 0.18637839E+04</pdfrwt>
<pdfrwt beam="2">  1       -2 0.38955752E+00 0.18637839E+04</pdfrwt>
<totfact> 0.27588225E-03</totfact>
</mgrwt>
</event>
<event>
 4    1  0.2061941E-008  0.6344015E+03  0.7818608E-02  0.9836497E-01
          2   -1    0    0  501    0  0.00000000000E+00  0.00000000000E+00  0.10419469908E+04  0.10419469908E+04  0.25500000000E-02 0. -1.
         -2   -1    0    0    0  501 -0.00000000000E+00 -0.00000000000E+00 -0.32917235647E+04  0.32917235647E+04  0.25500000000E-02 0.  1.
    8880022    1    1    2    0    0  0.60910043055E+03  0.89834942847E+02  0.91084899871E+03  0.11100050463E+04  0.15294330000E+03 0.  0.
    8880022    1    1    2    0    0 -0.60910043055E+03 -0.89834942847E+02 -0.31606255726E+04  0.32236655092E+04  0.15294330000E+03 0.  0.
<mgrwt>
<rscale>  0 0.63440153E+03</rscale>
<asrwt>0</asrwt>
<pdfrwt beam="1">  1        2 0.16029954E+00 0.63440153E+03</pdfrwt>
<pdfrwt beam="2">  1       -2 0.50641901E+00 0.63440153E+03</pdfrwt>
<totfact> 0.39060239E-02</totfact>
</mgrwt>
</event>
<event>
 4    1  0.2061941E-008  0.7104336E+03  0.7818608E-02  0.9699554E-01
          2   -1    0    0  501    0  0.00000000000E+00  0.00000000000E+00  0.76846210725E+03  0.76846210725E+03  0.25500000000E-02 0. -1.
         -2   -1    0    0    0  501 -0.00000000000E+00 -0.00000000000E+00 -0.18996234689E+04  0.18996234689E+04  0.25500000000E-02 0.  1.
    8880022    1    1    2    0    0  0.40823402020E+03  0.56095387420E+03  0.51347285317E+03  0.87656733237E+03  0.15294330000E+03 0.  0.
    8880022    1    1    2    0    0 -0.40823402020E+03 -0.56095387420E+03 -0.16446342148E+04  0.17915182438E+04  0.15294330000E+03 0.  0.
<mgrwt>
<rscale>  0 0.71043361E+03</rscale>
<asrwt>0</asrwt>
<pdfrwt beam="1">  1        2 0.11822494E+00 0.71043361E+03</pdfrwt>
<pdfrwt beam="2">  1       -2 0.29224976E+00 0.71043361E+03</pdfrwt>
<totfact> 0.13511423E+00</totfact>
</mgrwt>
</event>
<event>
 4    1  0.2061941E-008  0.2169149E+03  0.7818608E-02  0.1136204E+00
         -2   -1    0    0    0  501 -0.00000000000E+00  0.00000000000E+00  0.11742486106E+04  0.11742486106E+04  0.25500000000E-02 0.  1.
          2   -1    0    0  501    0  0.00000000000E+00 -0.00000000000E+00 -0.16678305695E+04  0.16678305695E+04  0.25500000000E-02 0. -1.
    8880022    1    1    2    0    0  0.84612589728E+02  0.12845676164E+03 -0.16506564147E+04  0.16648479457E+04  0.15294330000E+03 0. -1.
    8880022    1    1    2    0    0 -0.84612589728E+02 -0.12845676164E+03  0.11570744558E+04  0.11772312344E+04  0.15294330000E+03 0.  0.
<mgrwt>
<rscale>  0 0.21691492E+03</rscale>
<asrwt>0</asrwt>
<pdfrwt beam="1">  1        2 0.25658932E+00 0.21691492E+03</pdfrwt>
<pdfrwt beam="2">  1       -2 0.18065363E+00 0.21691492E+03</pdfrwt>
<totfact> 0.22522905E+00</totfact>
</mgrwt>
</event>
<event>
 4    1  0.2061941E-008  0.5663019E+03  0.7818608E-02  0.9977896E-01
         -2   -1    0    0    0  501 -0.00000000000E+00  0.00000000000E+00  0.44136703235E+03  0.44136703236E+03  0.25500000000E-02 0.  1.
          2   -1    0    0  501    0  0.00000000000E+00 -0.00000000000E+00 -0.17024338993E+04  0.17024338993E+04  0.25500000000E-02 0. -1.
    8880022    1    1    2    0    0  0.25601009123E+03  0.48141973995E+03  0.18100114391E+03  0.59452434764E+03  0.15294330000E+03 0.  0.
    8880022    1    1    2    0    0 -0.25601009123E+03 -0.48141973995E+03 -0.14420680109E+04  0.15492765841E+04  0.15294330000E+03 0.  0.
<mgrwt>
<rscale>  0 0.56630185E+03</rscale>
<asrwt>0</asrwt>
<pdfrwt beam="1">  1        2 0.26191290E+00 0.56630185E+03</pdfrwt>
<pdfrwt beam="2">  1       -2 0.67902621E-01 0.56630185E+03</pdfrwt>
<totfact> 0.20512168E+01</totfact>
</mgrwt>
</event>
<event>
 4    1  0.2061941E-008  0.4046911E+03  0.7818608E-02  0.1042167E+00
          2   -1    0    0  501    0  0.00000000000E+00  0.00000000000E+00  0.42041797045E+04  0.42041797045E+04  0.25500000000E-02 0. -1.
         -2   -1    0    0    0  501 -0.00000000000E+00 -0.00000000000E+00 -0.84603772879E+03  0.84603772879E+03  0.25500000000E-02 0.  1.
    8880022    1    1    2    0    0  0.30182403890E+03 -0.22200326792E+03  0.41453611832E+04  0.41650683300E+04  0.15294330000E+03 0.  0.
    8880022    1    1    2    0    0 -0.30182403890E+03  0.22200326792E+03 -0.78721920748E+03  0.88514910329E+03  0.15294330000E+03 0.  1.
<mgrwt>
<rscale>  0 0.40469106E+03</rscale>
<asrwt>0</asrwt>
<pdfrwt beam="1">  1        2 0.64679687E+00 0.40469106E+03</pdfrwt>
<pdfrwt beam="2">  1       -2 0.13015965E+00 0.40469106E+03</pdfrwt>
<totfact> 0.12972381E-01</totfact>
</mgrwt>
</event>
<event>
 4    1  0.2061941E-008  0.1104240E+04  0.7818608E-02  0.9201069E-01
         -2   -1    0    0    0  501 -0.00000000000E+00  0.00000000000E+00  0.11672229523E+04  0.11672229523E+04  0.25500000000E-02 0.  1.
          2   -1    0    0  501    0  0.00000000000E+00 -0.00000000000E+00 -0.12589586214E+04  0.12589586214E+04  0.25500000000E-02 0. -1.
    8880022    1    1    2    0    0  0.46295317846E+03  0.99077179727E+03 -0.54636505727E+03  0.12320149466E+04  0.15294330000E+03 0.  0.
    8880022    1    1    2    0    0 -0.46295317846E+03 -0.99077179727E+03  0.45462938820E+03  0.11941666271E+04  0.15294330000E+03 0.  0.
<mgrwt>
<rscale>  0 0.11042400E+04</rscale>
<asrwt>0</asrwt>
<pdfrwt beam="1">  1        2 0.19368594E+00 0.11042400E+04</pdfrwt>
<pdfrwt beam="2">  1       -2 0.17957276E+00 0.11042400E+04</pdfrwt>
<totfact> 0.31274969E+00</totfact>
</mgrwt>
</event>
<event>
 4    1  0.2061941E-008  0.5281810E+03  0.7818608E-02  0.1006674E+00
         -2   -1    0    0    0  501 -0.00000000000E+00  0.00000000000E+00  0.31832158390E+03  0.31832158391E+03  0.25500000000E-02 0.  1.
          2   -1    0    0  501    0  0.00000000000E+00 -0.00000000000E+00 -0.20307586820E+04  0.20307586820E+04  0.25500000000E-02 0. -1.
    8880022    1    1    2    0    0 -0.28157328024E+03  0.41988098522E+03 -0.17417625989E+04  0.18200857556E+04  0.15294330000E+03 0.  0.
    8880022    1    1    2    0    0  0.28157328024E+03 -0.41988098522E+03  0.29325500811E+02  0.52899451028E+03  0.15294330000E+03 0.  0.
<mgrwt>
<rscale>  0 0.52818104E+03</rscale>
<asrwt>0</asrwt>
<pdfrwt beam="1">  1        2 0.31242441E+00 0.52818104E+03</pdfrwt>
<pdfrwt beam="2">  1       -2 0.48972553E-01 0.52818104E+03</pdfrwt>
<totfact> 0.27158624E+01</totfact>
</mgrwt>
</event>
<event>
 4    1  0.2061941E-008  0.6147742E+03  0.7818608E-02  0.9875220E-01
         -2   -1    0    0    0  501 -0.00000000000E+00  0.00000000000E+00  0.10862045182E+04  0.10862045182E+04  0.25500000000E-02 0.  1.
          2   -1    0    0  501    0  0.00000000000E+00 -0.00000000000E+00 -0.19582229581E+04  0.19582229581E+04  0.25500000000E-02 0. -1.
    8880022    1    1    2    0    0 -0.55353155074E+03  0.21945050365E+03  0.94435600169E+03  0.11268343322E+04  0.15294330000E+03 0.  0.
    8880022    1    1    2    0    0  0.55353155074E+03 -0.21945050365E+03 -0.18163744416E+04  0.19175931441E+04  0.15294330000E+03 0.  0.
<mgrwt>
<rscale>  0 0.61477423E+03</rscale>
<asrwt>0</asrwt>
<pdfrwt beam="1">  1        2 0.30126507E+00 0.61477423E+03</pdfrwt>
<pdfrwt beam="2">  1       -2 0.16710839E+00 0.61477423E+03</pdfrwt>
<totfact> 0.16834102E+00</totfact>
</mgrwt>
</event>
<event>
 4    1  0.2061941E-008  0.2787885E+03  0.7818608E-02  0.1096352E+00
          2   -1    0    0  501    0  0.00000000000E+00  0.00000000000E+00  0.21058011437E+04  0.21058011437E+04  0.25500000000E-02 0. -1.
         -2   -1    0    0    0  501 -0.00000000000E+00 -0.00000000000E+00 -0.10183080991E+03  0.10183080995E+03  0.25500000000E-02 0.  1.
    8880022    1    1    2    0    0  0.23307183435E+03 -0.29837335647E+01  0.18833431702E+04  0.19038656812E+04  0.15294330000E+03 0.  0.
    8880022    1    1    2    0    0 -0.23307183435E+03  0.29837335647E+01  0.12062716363E+03  0.30376627241E+03  0.15294330000E+03 0.  1.
<mgrwt>
<rscale>  0 0.27878851E+03</rscale>
<asrwt>0</asrwt>
<pdfrwt beam="1">  1        2 0.32396944E+00 0.27878851E+03</pdfrwt>
<pdfrwt beam="2">  1       -2 0.15666277E-01 0.27878851E+03</pdfrwt>
<totfact> 0.20859266E+02</totfact>
</mgrwt>
</event>
<event>
 4    1  0.2061941E-008  0.3955615E+03  0.7818608E-02  0.1045327E+00
         -2   -1    0    0    0  501 -0.00000000000E+00  0.00000000000E+00  0.23661236904E+03  0.23661236905E+03  0.25500000000E-02 0.  1.
          2   -1    0    0  501    0  0.00000000000E+00 -0.00000000000E+00 -0.16385670602E+04  0.16385670602E+04  0.25500000000E-02 0. -1.
    8880022    1    1    2    0    0  0.35147996927E+03  0.97668174089E+02  0.23108479702E+02  0.39623590937E+03  0.15294330000E+03 0.  0.
    8880022    1    1    2    0    0 -0.35147996927E+03 -0.97668174089E+02 -0.14250631709E+04  0.14789435199E+04  0.15294330000E+03 0.  0.
<mgrwt>
<rscale>  0 0.39556149E+03</rscale>
<asrwt>0</asrwt>
<pdfrwt beam="1">  1        2 0.25208723E+00 0.39556149E+03</pdfrwt>
<pdfrwt beam="2">  1       -2 0.36401904E-01 0.39556149E+03</pdfrwt>
<totfact> 0.80807469E+01</totfact>
</mgrwt>
</event>
<event>
 4    1  0.2061941E-008  0.3410295E+03  0.7818608E-02  0.1066358E+00
         -2   -1    0    0    0  501 -0.00000000000E+00  0.00000000000E+00  0.27317281748E+03  0.27317281749E+03  0.25500000000E-02 0.  1.
          2   -1    0    0  501    0  0.00000000000E+00 -0.00000000000E+00 -0.24341826705E+04  0.24341826705E+04  0.25500000000E-02 0. -1.
    8880022    1    1    2    0    0 -0.29802142561E+03  0.63974210879E+02 -0.23101172768E+04  0.23351537327E+04  0.15294330000E+03 0.  0.
    8880022    1    1    2    0    0  0.29802142561E+03 -0.63974210879E+02  0.14910742379E+03  0.37220175527E+03  0.15294330000E+03 0.  0.
<mgrwt>
<rscale>  0 0.34102950E+03</rscale>
<asrwt>0</asrwt>
<pdfrwt beam="1">  1        2 0.37448963E+00 0.34102950E+03</pdfrwt>
<pdfrwt beam="2">  1       -2 0.42026589E-01 0.34102950E+03</pdfrwt>
<totfact> 0.23284826E+01</totfact>
</mgrwt>
</event>
<event>
 4    1  0.2061941E-008  0.7964752E+03  0.7818608E-02  0.9565133E-01
         -2   -1    0    0    0  501 -0.00000000000E+00  0.00000000000E+00  0.96061181067E+03  0.96061181067E+03  0.25500000000E-02 0.  1.
          2   -1    0    0  501    0  0.00000000000E+00 -0.00000000000E+00 -0.11716195821E+04  0.11716195822E+04  0.25500000000E-02 0. -1.
    8880022    1    1    2    0    0 -0.87899607231E+02  0.77669475220E+03  0.59873748765E+03  0.99642325905E+03  0.15294330000E+03 0.  1.
    8880022    1    1    2    0    0  0.87899607231E+02 -0.77669475220E+03 -0.80974525913E+03  0.11358081338E+04  0.15294330000E+03 0.  0.
<mgrwt>
<rscale>  0 0.79647519E+03</rscale>
<asrwt>0</asrwt>
<pdfrwt beam="1">  1        2 0.18024917E+00 0.79647519E+03</pdfrwt>
<pdfrwt beam="2">  1       -2 0.14778643E+00 0.79647519E+03</pdfrwt>
<totfact> 0.62283509E+00</totfact>
</mgrwt>
</event>
<event>
 4    1  0.2061941E-008  0.7744313E+03  0.7818608E-02  0.9597782E-01
          2   -1    0    0  501    0  0.00000000000E+00  0.00000000000E+00  0.28135491237E+04  0.28135491237E+04  0.25500000000E-02 0. -1.
         -2   -1    0    0    0  501 -0.00000000000E+00 -0.00000000000E+00 -0.28903793564E+03  0.28903793565E+03  0.25500000000E-02 0.  1.
    8880022    1    1    2    0    0  0.51172140921E+03  0.56079715326E+03  0.46743994702E+03  0.90456840804E+03  0.15294330000E+03 0.  0.
    8880022    1    1    2    0    0 -0.51172140921E+03 -0.56079715326E+03  0.20570712410E+04  0.21980186513E+04  0.15294330000E+03 0.  0.
<mgrwt>
<rscale>  0 0.77443134E+03</rscale>
<asrwt>0</asrwt>
<pdfrwt beam="1">  1        2 0.43285372E+00 0.77443134E+03</pdfrwt>
<pdfrwt beam="2">  1       -2 0.44467374E-01 0.77443134E+03</pdfrwt>
<totfact> 0.11455389E+01</totfact>
</mgrwt>
</event>
<event>
 4    1  0.2061941E-008  0.9242608E+03  0.7818608E-02  0.9395752E-01
         -2   -1    0    0    0  501 -0.00000000000E+00  0.00000000000E+00  0.82636359066E+03  0.82636359066E+03  0.25500000000E-02 0.  1.
          2   -1    0    0  501    0  0.00000000000E+00 -0.00000000000E+00 -0.12173252090E+04  0.12173252090E+04  0.25500000000E-02 0. -1.
    8880022    1    1    2    0    0  0.70363017107E+03 -0.57945742214E+03  0.20132851980E+03  0.94593400806E+03  0.15294330000E+03 0.  0.
    8880022    1    1    2    0    0 -0.70363017107E+03  0.57945742214E+03 -0.59229013813E+03  0.10977547916E+04  0.15294330000E+03 0.  0.
<mgrwt>
<rscale>  0 0.92426077E+03</rscale>
<asrwt>0</asrwt>
<pdfrwt beam="1">  1        2 0.18728080E+00 0.92426077E+03</pdfrwt>
<pdfrwt beam="2">  1       -2 0.12713286E+00 0.92426077E+03</pdfrwt>
<totfact> 0.84973072E+00</totfact>
</mgrwt>
</event>
<event>
 4    1  0.2061941E-008  0.6811100E+03  0.7818608E-02  0.9750093E-01
         -2   -1    0    0    0  501 -0.00000000000E+00  0.00000000000E+00  0.51356662959E+03  0.51356662960E+03  0.25500000000E-02 0.  1.
          2   -1    0    0  501    0  0.00000000000E+00 -0.00000000000E+00 -0.11897950454E+04  0.11897950454E+04  0.25500000000E-02 0. -1.
    8880022    1    1    2    0    0 -0.22974323819E+03  0.62268545206E+03  0.79803174643E+02  0.68576915022E+03  0.15294330000E+03 0.  0.
    8880022    1    1    2    0    0  0.22974323819E+03 -0.62268545206E+03 -0.75603159044E+03  0.10175925248E+04  0.15294330000E+03 0.  0.
<mgrwt>
<rscale>  0 0.68110996E+03</rscale>
<asrwt>0</asrwt>
<pdfrwt beam="1">  1        2 0.18304539E+00 0.68110996E+03</pdfrwt>
<pdfrwt beam="2">  1       -2 0.79010251E-01 0.68110996E+03</pdfrwt>
<totfact> 0.28027775E+01</totfact>
</mgrwt>
</event>
<event>
 4    1  0.2061941E-008  0.9198116E+03  0.7818608E-02  0.9401149E-01
          2   -1    0    0  501    0  0.00000000000E+00  0.00000000000E+00  0.18421138808E+04  0.18421138808E+04  0.25500000000E-02 0. -1.
         -2   -1    0    0    0  501 -0.00000000000E+00 -0.00000000000E+00 -0.89557657679E+03  0.89557657679E+03  0.25500000000E-02 0.  1.
    8880022    1    1    2    0    0  0.86756615463E+03 -0.26455746258E+03 -0.48214605213E+03  0.10385172855E+04  0.15294330000E+03 0.  0.
    8880022    1    1    2    0    0 -0.86756615463E+03  0.26455746258E+03  0.14286833562E+04  0.16991731721E+04  0.15294330000E+03 0.  0.
<mgrwt>
<rscale>  0 0.91981158E+03</rscale>
<asrwt>0</asrwt>
<pdfrwt beam="1">  1        2 0.28340213E+00 0.91981158E+03</pdfrwt>
<pdfrwt beam="2">  1       -2 0.13778101E+00 0.91981158E+03</pdfrwt>
<totfact> 0.30817157E+00</totfact>
</mgrwt>
</event>
<event>
 4    1  0.2061941E-008  0.4397018E+03  0.7818608E-02  0.1030838E+00
         -2   -1    0    0    0  501 -0.00000000000E+00  0.00000000000E+00  0.11116991368E+04  0.11116991368E+04  0.25500000000E-02 0.  1.
          2   -1    0    0  501    0  0.00000000000E+00 -0.00000000000E+00 -0.70659705579E+03  0.70659705580E+03  0.25500000000E-02 0. -1.
    8880022    1    1    2    0    0  0.40749810794E+03  0.62380601530E+02  0.99192723008E+03  0.10850148986E+04  0.15294330000E+03 0.  0.
    8880022    1    1    2    0    0 -0.40749810794E+03 -0.62380601530E+02 -0.58682514911E+03  0.73328129395E+03  0.15294330000E+03 0.  0.
<mgrwt>
<rscale>  0 0.43970183E+03</rscale>
<asrwt>0</asrwt>
<pdfrwt beam="1">  1        2 0.10870724E+00 0.43970183E+03</pdfrwt>
<pdfrwt beam="2">  1       -2 0.17103064E+00 0.43970183E+03</pdfrwt>
<totfact> 0.90375938E+00</totfact>
</mgrwt>
</event>
<event>
 4    1  0.2061941E-008  0.5805588E+03  0.7818608E-02  0.9946582E-01
         -2   -1    0    0    0  501 -0.00000000000E+00  0.00000000000E+00  0.48400392630E+03  0.48400392630E+03  0.25500000000E-02 0.  1.
          2   -1    0    0  501    0  0.00000000000E+00 -0.00000000000E+00 -0.14928508087E+04  0.14928508087E+04  0.25500000000E-02 0. -1.
    8880022    1    1    2    0    0  0.46669136641E+03 -0.30960629494E+03  0.21755242244E+03  0.61998193431E+03  0.15294330000E+03 0.  1.
    8880022    1    1    2    0    0 -0.46669136641E+03  0.30960629494E+03 -0.12263993048E+04  0.13568728007E+04  0.15294330000E+03 0.  0.
<mgrwt>
<rscale>  0 0.58055882E+03</rscale>
<asrwt>0</asrwt>
<pdfrwt beam="1">  1        2 0.22966935E+00 0.58055882E+03</pdfrwt>
<pdfrwt beam="2">  1       -2 0.74462143E-01 0.58055882E+03</pdfrwt>
<totfact> 0.21783864E+01</totfact>
</mgrwt>
</event>
<event>
 4    1  0.2061941E-008  0.7220205E+03  0.7818608E-02  0.9680298E-01
         -2   -1    0    0    0  501 -0.00000000000E+00  0.00000000000E+00  0.79903681630E+03  0.79903681630E+03  0.25500000000E-02 0.  1.
          2   -1    0    0  501    0  0.00000000000E+00 -0.00000000000E+00 -0.14312026451E+04  0.14312026451E+04  0.25500000000E-02 0. -1.
    8880022    1    1    2    0    0 -0.15185803884E+03 -0.68910169961E+03 -0.11386606481E+04  0.13482810319E+04  0.15294330000E+03 0.  0.
    8880022    1    1    2    0    0  0.15185803884E+03  0.68910169961E+03  0.50649481932E+03  0.88195842951E+03  0.15294330000E+03 0.  0.
<mgrwt>
<rscale>  0 0.72202055E+03</rscale>
<asrwt>0</asrwt>
<pdfrwt beam="1">  1        2 0.22018502E+00 0.72202055E+03</pdfrwt>
<pdfrwt beam="2">  1       -2 0.12292874E+00 0.72202055E+03</pdfrwt>
<totfact> 0.71382484E+00</totfact>
</mgrwt>
</event>
<event>
 4    1  0.2061941E-008  0.5114466E+03  0.7818608E-02  0.1010834E+00
          2   -1    0    0  501    0  0.00000000000E+00  0.00000000000E+00  0.22033387062E+04  0.22033387062E+04  0.25500000000E-02 0. -1.
         -2   -1    0    0    0  501 -0.00000000000E+00 -0.00000000000E+00 -0.23432448050E+04  0.23432448050E+04  0.25500000000E-02 0.  1.
    8880022    1    1    2    0    0 -0.47830929045E+03 -0.96985773979E+02  0.21450028900E+04  0.22051337984E+04  0.15294330000E+03 0.  0.
    8880022    1    1    2    0    0  0.47830929045E+03  0.96985773979E+02 -0.22849089887E+04  0.23414497128E+04  0.15294330000E+03 0.  0.
<mgrwt>
<rscale>  0 0.51144665E+03</rscale>
<asrwt>0</asrwt>
<pdfrwt beam="1">  1        2 0.33897519E+00 0.51144665E+03</pdfrwt>
<pdfrwt beam="2">  1       -2 0.36049920E+00 0.51144665E+03</pdfrwt>
<totfact> 0.81226041E-02</totfact>
</mgrwt>
</event>
<event>
 4    1  0.2061941E-008  0.2852121E+03  0.7818608E-02  0.1092876E+00
         -2   -1    0    0    0  501 -0.00000000000E+00  0.00000000000E+00  0.58114267961E+03  0.58114267961E+03  0.25500000000E-02 0.  1.
          2   -1    0    0  501    0  0.00000000000E+00 -0.00000000000E+00 -0.32271210307E+04  0.32271210307E+04  0.25500000000E-02 0. -1.
    8880022    1    1    2    0    0  0.12618802035E+02 -0.24040597920E+03 -0.31853675537E+04  0.31981107508E+04  0.15294330000E+03 0.  0.
    8880022    1    1    2    0    0 -0.12618802035E+02  0.24040597920E+03  0.53938920267E+03  0.61015295949E+03  0.15294330000E+03 0.  1.
<mgrwt>
<rscale>  0 0.28521206E+03</rscale>
<asrwt>0</asrwt>
<pdfrwt beam="1">  1        2 0.49648015E+00 0.28521206E+03</pdfrwt>
<pdfrwt beam="2">  1       -2 0.89406568E-01 0.28521206E+03</pdfrwt>
<totfact> 0.17004207E+00</totfact>
</mgrwt>
</event>
<event>
 4    1  0.2061941E-008  0.2341884E+03  0.7818608E-02  0.1123726E+00
         -2   -1    0    0    0  501 -0.00000000000E+00  0.00000000000E+00  0.13973194806E+04  0.13973194806E+04  0.25500000000E-02 0.  1.
          2   -1    0    0  501    0  0.00000000000E+00 -0.00000000000E+00 -0.89612312827E+03  0.89612312827E+03  0.25500000000E-02 0. -1.
    8880022    1    1    2    0    0  0.79322099031E+02  0.15862085271E+03  0.13719254937E+04  0.13917700182E+04  0.15294330000E+03 0.  1.
    8880022    1    1    2    0    0 -0.79322099031E+02 -0.15862085271E+03 -0.87072914131E+03  0.90167259072E+03  0.15294330000E+03 0.  0.
<mgrwt>
<rscale>  0 0.23418844E+03</rscale>
<asrwt>0</asrwt>
<pdfrwt beam="1">  1        2 0.13786510E+00 0.23418844E+03</pdfrwt>
<pdfrwt beam="2">  1       -2 0.21497223E+00 0.23418844E+03</pdfrwt>
<totfact> 0.36722481E+00</totfact>
</mgrwt>
</event>
<event>
 4    1  0.2061941E-008  0.5188678E+03  0.7818608E-02  0.1008968E+00
         -2   -1    0    0    0  501 -0.00000000000E+00  0.00000000000E+00  0.73689952027E+02  0.73689952071E+02  0.25500000000E-02 0.  1.
          2   -1    0    0  501    0  0.00000000000E+00 -0.00000000000E+00 -0.38246527667E+04  0.38246527667E+04  0.25500000000E-02 0. -1.
    8880022    1    1    2    0    0 -0.46882377904E+03 -0.16135803639E+03 -0.14631106138E+04  0.15523905671E+04  0.15294330000E+03 0.  0.
    8880022    1    1    2    0    0  0.46882377904E+03  0.16135803639E+03 -0.22878522009E+04  0.23459521517E+04  0.15294330000E+03 0.  0.
<mgrwt>
<rscale>  0 0.51886781E+03</rscale>
<asrwt>0</asrwt>
<pdfrwt beam="1">  1        2 0.58840796E+00 0.51886781E+03</pdfrwt>
<pdfrwt beam="2">  1       -2 0.11336919E-01 0.51886781E+03</pdfrwt>
<totfact> 0.30121202E+01</totfact>
</mgrwt>
</event>
<event>
 4    1  0.2061941E-008  0.4315520E+03  0.7818608E-02  0.1033371E+00
         -2   -1    0    0    0  501 -0.00000000000E+00  0.00000000000E+00  0.43521696801E+03  0.43521696801E+03  0.25500000000E-02 0.  1.
          2   -1    0    0  501    0  0.00000000000E+00 -0.00000000000E+00 -0.10055754137E+04  0.10055754137E+04  0.25500000000E-02 0. -1.
    8880022    1    1    2    0    0 -0.30831123204E+03 -0.26036439520E+03 -0.83118763760E+03  0.93654149721E+03  0.15294330000E+03 0. -1.
    8880022    1    1    2    0    0  0.30831123204E+03  0.26036439520E+03  0.26082919195E+03  0.50425088446E+03  0.15294330000E+03 0.  0.
<mgrwt>
<rscale>  0 0.43155195E+03</rscale>
<asrwt>0</asrwt>
<pdfrwt beam="1">  1        2 0.15470391E+00 0.43155195E+03</pdfrwt>
<pdfrwt beam="2">  1       -2 0.66956457E-01 0.43155195E+03</pdfrwt>
<totfact> 0.53836768E+01</totfact>
</mgrwt>
</event>
<event>
 4    1  0.2061941E-008  0.5484114E+03  0.7818608E-02  0.1001862E+00
          2   -1    0    0  501    0  0.00000000000E+00  0.00000000000E+00  0.89461772435E+03  0.89461772435E+03  0.25500000000E-02 0. -1.
         -2   -1    0    0    0  501 -0.00000000000E+00 -0.00000000000E+00 -0.45540305687E+03  0.45540305688E+03  0.25500000000E-02 0.  1.
    8880022    1    1    2    0    0 -0.50250797783E+02 -0.52425022916E+03  0.56497963136E+03  0.78737353418E+03  0.15294330000E+03 0.  0.
    8880022    1    1    2    0    0  0.50250797783E+02  0.52425022916E+03 -0.12576496389E+03  0.56264724705E+03  0.15294330000E+03 0.  0.
<mgrwt>
<rscale>  0 0.54841143E+03</rscale>
<asrwt>0</asrwt>
<pdfrwt beam="1">  1        2 0.13763349E+00 0.54841143E+03</pdfrwt>
<pdfrwt beam="2">  1       -2 0.70062010E-01 0.54841143E+03</pdfrwt>
<totfact> 0.56708540E+01</totfact>
</mgrwt>
</event>
<event>
 4    1  0.2061941E-008  0.1501414E+04  0.7818608E-02  0.8883513E-01
         -2   -1    0    0    0  501 -0.00000000000E+00  0.00000000000E+00  0.27273317563E+04  0.27273317563E+04  0.25500000000E-02 0.  1.
          2   -1    0    0  501    0  0.00000000000E+00 -0.00000000000E+00 -0.15816064111E+04  0.15816064111E+04  0.25500000000E-02 0. -1.
    8880022    1    1    2    0    0 -0.32033858384E+03  0.14588472672E+04  0.20614837323E+04  0.25502860602E+04  0.15294330000E+03 0.  0.
    8880022    1    1    2    0    0  0.32033858384E+03 -0.14588472672E+04 -0.91575838718E+03  0.17586521072E+04  0.15294330000E+03 0.  0.
<mgrwt>
<rscale>  0 0.15014139E+04</rscale>
<asrwt>0</asrwt>
<pdfrwt beam="1">  1        2 0.24332406E+00 0.15014139E+04</pdfrwt>
<pdfrwt beam="2">  1       -2 0.41958950E+00 0.15014139E+04</pdfrwt>
<totfact> 0.59315809E-02</totfact>
</mgrwt>
</event>
<event>
 4    1  0.2061941E-008  0.2082694E+04  0.7818608E-02  0.8568905E-01
         -2   -1    0    0    0  501 -0.00000000000E+00  0.00000000000E+00  0.17525921544E+04  0.17525921544E+04  0.25500000000E-02 0.  1.
          2   -1    0    0  501    0  0.00000000000E+00 -0.00000000000E+00 -0.31203614501E+04  0.31203614501E+04  0.25500000000E-02 0. -1.
    8880022    1    1    2    0    0  0.83705554267E+03 -0.19009367002E+04  0.42419568520E+03  0.21254542931E+04  0.15294330000E+03 0.  0.
    8880022    1    1    2    0    0 -0.83705554267E+03  0.19009367002E+04 -0.17919649810E+04  0.27474993113E+04  0.15294330000E+03 0.  0.
<mgrwt>
<rscale>  0 0.20826939E+04</rscale>
<asrwt>0</asrwt>
<pdfrwt beam="1">  1        2 0.48005561E+00 0.20826939E+04</pdfrwt>
<pdfrwt beam="2">  1       -2 0.26962956E+00 0.20826939E+04</pdfrwt>
<totfact> 0.62534102E-02</totfact>
</mgrwt>
</event>
<event>
 4    1  0.2061941E-008  0.1879017E+03  0.7818608E-02  0.1160368E+00
          2   -1    0    0  501    0  0.00000000000E+00  0.00000000000E+00  0.78325658753E+03  0.78325658753E+03  0.25500000000E-02 0. -1.
         -2   -1    0    0    0  501 -0.00000000000E+00 -0.00000000000E+00 -0.13258643201E+03  0.13258643203E+03  0.25500000000E-02 0.  1.
    8880022    1    1    2    0    0  0.10770009243E+03 -0.17779330719E+02  0.69735677378E+03  0.72222817548E+03  0.15294330000E+03 0. -1.
    8880022    1    1    2    0    0 -0.10770009243E+03  0.17779330719E+02 -0.46686618259E+02  0.19361484408E+03  0.15294330000E+03 0.  0.
<mgrwt>
<rscale>  0 0.18790175E+03</rscale>
<asrwt>0</asrwt>
<pdfrwt beam="1">  1        2 0.12050101E+00 0.18790175E+03</pdfrwt>
<pdfrwt beam="2">  1       -2 0.20397913E-01 0.18790175E+03</pdfrwt>
<totfact> 0.74522315E+02</totfact>
</mgrwt>
</event>
<event>
 4    1  0.2061941E-008  0.9339085E+03  0.7818608E-02  0.9384159E-01
         -2   -1    0    0    0  501 -0.00000000000E+00  0.00000000000E+00  0.86579148304E+03  0.86579148304E+03  0.25500000000E-02 0.  1.
          2   -1    0    0  501    0  0.00000000000E+00 -0.00000000000E+00 -0.18763667816E+04  0.18763667816E+04  0.25500000000E-02 0. -1.
    8880022    1    1    2    0    0 -0.76406172811E+03 -0.51478451148E+03  0.42777127349E+03  0.10272163030E+04  0.15294330000E+03 0.  0.
    8880022    1    1    2    0    0  0.76406172811E+03  0.51478451148E+03 -0.14383465720E+04  0.17149419617E+04  0.15294330000E+03 0.  0.
<mgrwt>
<rscale>  0 0.93390849E+03</rscale>
<asrwt>0</asrwt>
<pdfrwt beam="1">  1        2 0.28867181E+00 0.93390849E+03</pdfrwt>
<pdfrwt beam="2">  1       -2 0.13319869E+00 0.93390849E+03</pdfrwt>
<totfact> 0.32127041E+00</totfact>
</mgrwt>
</event>
<event>
 4    1  0.2061941E-008  0.8294513E+03  0.7818608E-02  0.9518339E-01
         -2   -1    0    0    0  501 -0.00000000000E+00  0.00000000000E+00  0.83876966778E+03  0.83876966778E+03  0.25500000000E-02 0.  1.
          2   -1    0    0  501    0  0.00000000000E+00 -0.00000000000E+00 -0.10376686203E+04  0.10376686203E+04  0.25500000000E-02 0. -1.
    8880022    1    1    2    0    0 -0.72650494278E+03 -0.36984907400E+03  0.33002453379E+03  0.89269570142E+03  0.15294330000E+03 0.  0.
    8880022    1    1    2    0    0  0.72650494278E+03  0.36984907400E+03 -0.52892348630E+03  0.98374258665E+03  0.15294330000E+03 0.  0.
<mgrwt>
<rscale>  0 0.82945128E+03</rscale>
<asrwt>0</asrwt>
<pdfrwt beam="1">  1        2 0.15964133E+00 0.82945128E+03</pdfrwt>
<pdfrwt beam="2">  1       -2 0.12904149E+00 0.82945128E+03</pdfrwt>
<totfact> 0.10637496E+01</totfact>
</mgrwt>
</event>
<event>
 4    1  0.2061941E-008  0.7356994E+03  0.7818608E-02  0.9658057E-01
         -2   -1    0    0    0  501 -0.00000000000E+00  0.00000000000E+00  0.93276435644E+03  0.93276435644E+03  0.25500000000E-02 0.  1.
          2   -1    0    0  501    0  0.00000000000E+00 -0.00000000000E+00 -0.10447565956E+04  0.10447565957E+04  0.25500000000E-02 0. -1.
    8880022    1    1    2    0    0 -0.59282835069E+03 -0.40794175692E+03  0.60328543714E+03  0.95142361864E+03  0.15294330000E+03 0.  0.
    8880022    1    1    2    0    0  0.59282835069E+03  0.40794175692E+03 -0.71527767635E+03  0.10260973335E+04  0.15294330000E+03 0.  0.
<mgrwt>
<rscale>  0 0.73569938E+03</rscale>
<asrwt>0</asrwt>
<pdfrwt beam="1">  1        2 0.16073178E+00 0.73569938E+03</pdfrwt>
<pdfrwt beam="2">  1       -2 0.14350221E+00 0.73569938E+03</pdfrwt>
<totfact> 0.81048749E+00</totfact>
</mgrwt>
</event>
<event>
 4    1  0.2061941E-008  0.1818908E+04  0.7818608E-02  0.8696309E-01
          2   -1    0    0  501    0  0.00000000000E+00  0.00000000000E+00  0.35259168725E+04  0.35259168725E+04  0.25500000000E-02 0. -1.
         -2   -1    0    0    0  501 -0.00000000000E+00 -0.00000000000E+00 -0.14781899665E+04  0.14781899665E+04  0.25500000000E-02 0.  1.
    8880022    1    1    2    0    0  0.30238761588E+03  0.17870632500E+04  0.25359531635E+04  0.31208145460E+04  0.15294330000E+03 0.  0.
    8880022    1    1    2    0    0 -0.30238761588E+03 -0.17870632500E+04 -0.48822625749E+03  0.18832922931E+04  0.15294330000E+03 0.  0.
<mgrwt>
<rscale>  0 0.18189076E+04</rscale>
<asrwt>0</asrwt>
<pdfrwt beam="1">  1        2 0.54244874E+00 0.18189076E+04</pdfrwt>
<pdfrwt beam="2">  1       -2 0.22741384E+00 0.18189076E+04</pdfrwt>
<totfact> 0.62863565E-02</totfact>
</mgrwt>
</event>
<event>
 4    1  0.2061941E-008  0.4460873E+03  0.7818608E-02  0.1028895E+00
          2   -1    0    0  501    0  0.00000000000E+00  0.00000000000E+00  0.19367002782E+04  0.19367002782E+04  0.25500000000E-02 0. -1.
         -2   -1    0    0    0  501 -0.00000000000E+00 -0.00000000000E+00 -0.71667988556E+03  0.71667988556E+03  0.25500000000E-02 0.  1.
    8880022    1    1    2    0    0  0.24554245557E+03  0.33957486673E+03  0.18379205123E+04  0.18912814835E+04  0.15294330000E+03 0. -1.
    8880022    1    1    2    0    0 -0.24554245557E+03 -0.33957486673E+03 -0.61790011960E+03  0.76209868023E+03  0.15294330000E+03 0.  0.
<mgrwt>
<rscale>  0 0.44608726E+03</rscale>
<asrwt>0</asrwt>
<pdfrwt beam="1">  1        2 0.29795388E+00 0.44608726E+03</pdfrwt>
<pdfrwt beam="2">  1       -2 0.11025845E+00 0.44608726E+03</pdfrwt>
<totfact> 0.52245598E+00</totfact>
</mgrwt>
</event>
<event>
 4    1  0.2061941E-008  0.9860203E+03  0.7818608E-02  0.9324012E-01
          2   -1    0    0  501    0  0.00000000000E+00  0.00000000000E+00  0.13962768344E+04  0.13962768344E+04  0.25500000000E-02 0. -1.
         -2   -1    0    0    0  501 -0.00000000000E+00 -0.00000000000E+00 -0.74892701151E+03  0.74892701152E+03  0.25500000000E-02 0.  1.
    8880022    1    1    2    0    0 -0.74564198583E+03  0.62678732097E+03  0.39360859712E+02  0.98680557713E+03  0.15294330000E+03 0.  0.
    8880022    1    1    2    0    0  0.74564198583E+03 -0.62678732097E+03  0.60798896316E+03  0.11583982688E+04  0.15294330000E+03 0.  0.
<mgrwt>
<rscale>  0 0.98602027E+03</rscale>
<asrwt>0</asrwt>
<pdfrwt beam="1">  1        2 0.21481182E+00 0.98602027E+03</pdfrwt>
<pdfrwt beam="2">  1       -2 0.11521954E+00 0.98602027E+03</pdfrwt>
<totfact> 0.84932665E+00</totfact>
</mgrwt>
</event>
<event>
 4    1  0.2061941E-008  0.8688627E+03  0.7818608E-02  0.9465364E-01
          2   -1    0    0  501    0  0.00000000000E+00  0.00000000000E+00  0.57516069687E+03  0.57516069688E+03  0.25500000000E-02 0. -1.
         -2   -1    0    0    0  501 -0.00000000000E+00 -0.00000000000E+00 -0.24724311105E+04  0.24724311105E+04  0.25500000000E-02 0.  1.
    8880022    1    1    2    0    0 -0.22526774589E+02 -0.85499901597E+03 -0.19923287214E+04  0.21735446074E+04  0.15294330000E+03 0.  0.
    8880022    1    1    2    0    0  0.22526774589E+02  0.85499901597E+03  0.95058307852E+02  0.87404719998E+03  0.15294330000E+03 0.  0.
<mgrwt>
<rscale>  0 0.86886272E+03</rscale>
<asrwt>0</asrwt>
<pdfrwt beam="1">  1        2 0.88486262E-01 0.86886272E+03</pdfrwt>
<pdfrwt beam="2">  1       -2 0.38037401E+00 0.86886272E+03</pdfrwt>
<totfact> 0.53962929E-01</totfact>
</mgrwt>
</event>
<event>
 4    1  0.2061941E-008  0.8662193E+03  0.7818608E-02  0.9468823E-01
          2   -1    0    0  501    0  0.00000000000E+00  0.00000000000E+00  0.37681408326E+04  0.37681408326E+04  0.25500000000E-02 0. -1.
         -2   -1    0    0    0  501 -0.00000000000E+00 -0.00000000000E+00 -0.63954927486E+03  0.63954927487E+03  0.25500000000E-02 0.  1.
    8880022    1    1    2    0    0  0.53762280694E+03 -0.66174457758E+03 -0.26455828024E+03  0.90571899900E+03  0.15294330000E+03 0.  0.
    8880022    1    1    2    0    0 -0.53762280694E+03  0.66174457758E+03  0.33931498380E+04  0.35019711085E+04  0.15294330000E+03 0.  0.
<mgrwt>
<rscale>  0 0.86621927E+03</rscale>
<asrwt>0</asrwt>
<pdfrwt beam="1">  1        2 0.57971397E+00 0.86621927E+03</pdfrwt>
<pdfrwt beam="2">  1       -2 0.98392197E-01 0.86621927E+03</pdfrwt>
<totfact> 0.47744140E-01</totfact>
</mgrwt>
</event>
<event>
 4    1  0.2061941E-008  0.1094166E+04  0.7818608E-02  0.9210896E-01
         -2   -1    0    0    0  501 -0.00000000000E+00  0.00000000000E+00  0.56887903886E+03  0.56887903887E+03  0.25500000000E-02 0.  1.
          2   -1    0    0  501    0  0.00000000000E+00 -0.00000000000E+00 -0.38650466425E+04  0.38650466425E+04  0.25500000000E-02 0. -1.
    8880022    1    1    2    0    0 -0.76952830051E+03 -0.76264978944E+03 -0.31443403517E+04  0.33292756580E+04  0.15294330000E+03 0.  0.
    8880022    1    1    2    0    0  0.76952830051E+03  0.76264978944E+03 -0.15182725190E+03  0.11046500233E+04  0.15294330000E+03 0.  0.
<mgrwt>
<rscale>  0 0.10941664E+04</rscale>
<asrwt>0</asrwt>
<pdfrwt beam="1">  1        2 0.59462254E+00 0.10941664E+04</pdfrwt>
<pdfrwt beam="2">  1       -2 0.87519855E-01 0.10941664E+04</pdfrwt>
<totfact> 0.50778078E-01</totfact>
</mgrwt>
</event>
<event>
 4    1  0.2061941E-008  0.1609020E+03  0.7818608E-02  0.1187682E+00
          2   -1    0    0  501    0  0.00000000000E+00  0.00000000000E+00  0.48356093753E+03  0.48356093754E+03  0.25500000000E-02 0. -1.
         -2   -1    0    0    0  501 -0.00000000000E+00 -0.00000000000E+00 -0.67611794549E+02  0.67611794597E+02  0.25500000000E-02 0.  1.
    8880022    1    1    2    0    0 -0.39672837115E+02  0.30395017323E+02  0.33370322816E+03  0.37046901164E+03  0.15294330000E+03 0.  0.
    8880022    1    1    2    0    0  0.39672837115E+02 -0.30395017323E+02  0.82245914824E+02  0.18070372050E+03  0.15294330000E+03 0.  0.
<mgrwt>
<rscale>  0 0.16090197E+03</rscale>
<asrwt>0</asrwt>
<pdfrwt beam="1">  1        2 0.74393987E-01 0.16090197E+03</pdfrwt>
<pdfrwt beam="2">  1       -2 0.10401815E-01 0.16090197E+03</pdfrwt>
<totfact> 0.39295666E+03</totfact>
</mgrwt>
</event>
<event>
 4    1  0.2061941E-008  0.2997872E+03  0.7818608E-02  0.1085347E+00
         -2   -1    0    0    0  501 -0.00000000000E+00  0.00000000000E+00  0.85292933056E+03  0.85292933056E+03  0.25500000000E-02 0.  1.
          2   -1    0    0  501    0  0.00000000000E+00 -0.00000000000E+00 -0.58221838640E+03  0.58221838641E+03  0.25500000000E-02 0. -1.
    8880022    1    1    2    0    0  0.22079194046E+03 -0.13316011814E+03 -0.51404745698E+03  0.59507742276E+03  0.15294330000E+03 0. -1.
    8880022    1    1    2    0    0 -0.22079194046E+03  0.13316011814E+03  0.78475840114E+03  0.84007029421E+03  0.15294330000E+03 0.  0.
<mgrwt>
<rscale>  0 0.29978718E+03</rscale>
<asrwt>0</asrwt>
<pdfrwt beam="1">  1        2 0.89572060E-01 0.29978718E+03</pdfrwt>
<pdfrwt beam="2">  1       -2 0.13121990E+00 0.29978718E+03</pdfrwt>
<totfact> 0.23459815E+01</totfact>
</mgrwt>
</event>
<event>
 4    1  0.2061941E-008  0.6338194E+03  0.7818608E-02  0.9837624E-01
          2   -1    0    0  501    0  0.00000000000E+00  0.00000000000E+00  0.98106244131E+03  0.98106244132E+03  0.25500000000E-02 0. -1.
         -2   -1    0    0    0  501 -0.00000000000E+00 -0.00000000000E+00 -0.15151132766E+04  0.15151132766E+04  0.25500000000E-02 0.  1.
    8880022    1    1    2    0    0 -0.52751770865E+03  0.31632322746E+03  0.79914800576E+03  0.10199826005E+04  0.15294330000E+03 0.  0.
    8880022    1    1    2    0    0  0.52751770865E+03 -0.31632322746E+03 -0.13331988411E+04  0.14761931174E+04  0.15294330000E+03 0.  0.
<mgrwt>
<rscale>  0 0.63381935E+03</rscale>
<asrwt>0</asrwt>
<pdfrwt beam="1">  1        2 0.15093268E+00 0.63381935E+03</pdfrwt>
<pdfrwt beam="2">  1       -2 0.23309435E+00 0.63381935E+03</pdfrwt>
<totfact> 0.22276331E+00</totfact>
</mgrwt>
</event>
<event>
 4    1  0.2061941E-008  0.8256261E+03  0.7818608E-02  0.9523648E-01
         -2   -1    0    0    0  501 -0.00000000000E+00  0.00000000000E+00  0.26615292252E+03  0.26615292254E+03  0.25500000000E-02 0.  1.
          2   -1    0    0  501    0  0.00000000000E+00 -0.00000000000E+00 -0.34655015889E+04  0.34655015889E+04  0.25500000000E-02 0. -1.
    8880022    1    1    2    0    0  0.55432205446E+03  0.59244732271E+03 -0.64653530341E+03  0.10486497613E+04  0.15294330000E+03 0.  0.
    8880022    1    1    2    0    0 -0.55432205446E+03 -0.59244732271E+03 -0.25528133629E+04  0.26830047501E+04  0.15294330000E+03 0.  0.
<mgrwt>
<rscale>  0 0.82562608E+03</rscale>
<asrwt>0</asrwt>
<pdfrwt beam="1">  1        2 0.53315406E+00 0.82562608E+03</pdfrwt>
<pdfrwt beam="2">  1       -2 0.40946606E-01 0.82562608E+03</pdfrwt>
<totfact> 0.51767938E+00</totfact>
</mgrwt>
</event>
<event>
 4    1  0.2061941E-008  0.9982026E+03  0.7818608E-02  0.9310518E-01
          2   -1    0    0  501    0  0.00000000000E+00  0.00000000000E+00  0.16889729636E+04  0.16889729636E+04  0.25500000000E-02 0. -1.
         -2   -1    0    0    0  501 -0.00000000000E+00 -0.00000000000E+00 -0.11587030257E+04  0.11587030257E+04  0.25500000000E-02 0.  1.
    8880022    1    1    2    0    0  0.11173317131E+03  0.98006762676E+03  0.12626894278E+04  0.16095940789E+04  0.15294330000E+03 0.  0.
    8880022    1    1    2    0    0 -0.11173317131E+03 -0.98006762676E+03 -0.73241948989E+03  0.12380819104E+04  0.15294330000E+03 0.  0.
<mgrwt>
<rscale>  0 0.99820264E+03</rscale>
<asrwt>0</asrwt>
<pdfrwt beam="1">  1        2 0.25984199E+00 0.99820264E+03</pdfrwt>
<pdfrwt beam="2">  1       -2 0.17826200E+00 0.99820264E+03</pdfrwt>
<totfact> 0.18440950E+00</totfact>
</mgrwt>
</event>
<event>
 4    1  0.2061941E-008  0.6909210E+03  0.7818608E-02  0.9732886E-01
          2   -1    0    0  501    0  0.00000000000E+00  0.00000000000E+00  0.21039010322E+04  0.21039010322E+04  0.25500000000E-02 0. -1.
         -2   -1    0    0    0  501 -0.00000000000E+00 -0.00000000000E+00 -0.12794746056E+04  0.12794746056E+04  0.25500000000E-02 0.  1.
    8880022    1    1    2    0    0  0.20761200640E+02  0.67346061750E+03  0.19465869299E+04  0.20655683381E+04  0.15294330000E+03 0.  0.
    8880022    1    1    2    0    0 -0.20761200640E+02 -0.67346061750E+03 -0.11221605033E+04  0.13178072996E+04  0.15294330000E+03 0.  0.
<mgrwt>
<rscale>  0 0.69092104E+03</rscale>
<asrwt>0</asrwt>
<pdfrwt beam="1">  1        2 0.32367708E+00 0.69092104E+03</pdfrwt>
<pdfrwt beam="2">  1       -2 0.19684225E+00 0.69092104E+03</pdfrwt>
<totfact> 0.86456952E-01</totfact>
</mgrwt>
</event>
<event>
 4    1  0.2061941E-008  0.5708984E+03  0.7818608E-02  0.9967693E-01
         -2   -1    0    0    0  501 -0.00000000000E+00  0.00000000000E+00  0.26522090951E+03  0.26522090952E+03  0.25500000000E-02 0.  1.
          2   -1    0    0  501    0  0.00000000000E+00 -0.00000000000E+00 -0.18905029012E+04  0.18905029012E+04  0.25500000000E-02 0. -1.
    8880022    1    1    2    0    0  0.11656102128E+03 -0.53753776654E+03 -0.17499543941E+03  0.59711672139E+03  0.15294330000E+03 0.  1.
    8880022    1    1    2    0    0 -0.11656102128E+03  0.53753776654E+03 -0.14502865523E+04  0.15586070894E+04  0.15294330000E+03 0.  0.
<mgrwt>
<rscale>  0 0.57089839E+03</rscale>
<asrwt>0</asrwt>
<pdfrwt beam="1">  1        2 0.29084659E+00 0.57089839E+03</pdfrwt>
<pdfrwt beam="2">  1       -2 0.40803218E-01 0.57089839E+03</pdfrwt>
<totfact> 0.46075225E+01</totfact>
</mgrwt>
</event>
<event>
 4    1  0.2061941E-008  0.2010424E+04  0.7818608E-02  0.8601763E-01
         -2   -1    0    0    0  501 -0.00000000000E+00  0.00000000000E+00  0.25165051607E+04  0.25165051607E+04  0.25500000000E-02 0.  1.
          2   -1    0    0  501    0  0.00000000000E+00 -0.00000000000E+00 -0.34688971594E+04  0.34688971594E+04  0.25500000000E-02 0. -1.
    8880022    1    1    2    0    0  0.35672870483E+03 -0.19726014970E+04 -0.26692450743E+04  0.33416572168E+04  0.15294330000E+03 0.  0.
    8880022    1    1    2    0    0 -0.35672870483E+03  0.19726014970E+04  0.17168530756E+04  0.26437451033E+04  0.15294330000E+03 0.  0.
<mgrwt>
<rscale>  0 0.20104238E+04</rscale>
<asrwt>0</asrwt>
<pdfrwt beam="1">  1        2 0.53367649E+00 0.20104238E+04</pdfrwt>
<pdfrwt beam="2">  1       -2 0.38715464E+00 0.20104238E+04</pdfrwt>
<totfact> 0.67644253E-03</totfact>
</mgrwt>
</event>
<event>
 4    1  0.2061941E-008  0.1520848E+04  0.7818608E-02  0.8870706E-01
         -2   -1    0    0    0  501 -0.00000000000E+00  0.00000000000E+00  0.25159900220E+04  0.25159900220E+04  0.25500000000E-02 0.  1.
          2   -1    0    0  501    0  0.00000000000E+00 -0.00000000000E+00 -0.16451399626E+04  0.16451399626E+04  0.25500000000E-02 0. -1.
    8880022    1    1    2    0    0 -0.30984518482E+03 -0.14810750032E+04  0.18173893257E+04  0.23697853949E+04  0.15294330000E+03 0.  0.
    8880022    1    1    2    0    0  0.30984518482E+03  0.14810750032E+04 -0.94653926622E+03  0.17913445897E+04  0.15294330000E+03 0.  0.
<mgrwt>
<rscale>  0 0.15208481E+04</rscale>
<asrwt>0</asrwt>
<pdfrwt beam="1">  1        2 0.25309846E+00 0.15208481E+04</pdfrwt>
<pdfrwt beam="2">  1       -2 0.38707539E+00 0.15208481E+04</pdfrwt>
<totfact> 0.89030163E-02</totfact>
</mgrwt>
</event>
<event>
 4    1  0.2061941E-008  0.4817959E+03  0.7818608E-02  0.1018643E+00
          2   -1    0    0  501    0  0.00000000000E+00  0.00000000000E+00  0.11158507094E+04  0.11158507094E+04  0.25500000000E-02 0. -1.
         -2   -1    0    0    0  501 -0.00000000000E+00 -0.00000000000E+00 -0.12182102146E+04  0.12182102146E+04  0.25500000000E-02 0.  1.
    8880022    1    1    2    0    0  0.43827696712E+03 -0.12903057563E+03  0.10115457820E+04  0.11204249691E+04  0.15294330000E+03 0.  0.
    8880022    1    1    2    0    0 -0.43827696712E+03  0.12903057563E+03 -0.11139052872E+04  0.12136359550E+04  0.15294330000E+03 0.  0.
<mgrwt>
<rscale>  0 0.48179585E+03</rscale>
<asrwt>0</asrwt>
<pdfrwt beam="1">  1        2 0.17166934E+00 0.48179585E+03</pdfrwt>
<pdfrwt beam="2">  1       -2 0.18741696E+00 0.48179585E+03</pdfrwt>
<totfact> 0.37000749E+00</totfact>
</mgrwt>
</event>
<event>
 4    1  0.2061941E-008  0.9950660E+03  0.7818608E-02  0.9313973E-01
         -2   -1    0    0    0  501 -0.00000000000E+00  0.00000000000E+00  0.56447467794E+03  0.56447467795E+03  0.25500000000E-02 0.  1.
          2   -1    0    0  501    0  0.00000000000E+00 -0.00000000000E+00 -0.31228699738E+04  0.31228699738E+04  0.25500000000E-02 0. -1.
    8880022    1    1    2    0    0 -0.88520041392E+02 -0.97924916137E+03 -0.58610383907E+02  0.99679062389E+03  0.15294330000E+03 0.  0.
    8880022    1    1    2    0    0  0.88520041392E+02  0.97924916137E+03 -0.24997849119E+04  0.26905540278E+04  0.15294330000E+03 0.  0.
<mgrwt>
<rscale>  0 0.99506601E+03</rscale>
<asrwt>0</asrwt>
<pdfrwt beam="1">  1        2 0.48044153E+00 0.99506601E+03</pdfrwt>
<pdfrwt beam="2">  1       -2 0.86842260E-01 0.99506601E+03</pdfrwt>
<totfact> 0.17102548E+00</totfact>
</mgrwt>
</event>
<event>
 4    1  0.2061941E-008  0.1511955E+04  0.7818608E-02  0.8876541E-01
          2   -1    0    0  501    0  0.00000000000E+00  0.00000000000E+00  0.17155419556E+04  0.17155419556E+04  0.25500000000E-02 0. -1.
         -2   -1    0    0    0  501 -0.00000000000E+00 -0.00000000000E+00 -0.16197483964E+04  0.16197483964E+04  0.25500000000E-02 0.  1.
    8880022    1    1    2    0    0 -0.59442415879E+03 -0.13817659971E+04  0.75013899256E+03  0.16878144188E+04  0.15294330000E+03 0.  0.
    8880022    1    1    2    0    0  0.59442415879E+03  0.13817659971E+04 -0.65434543334E+03  0.16474759332E+04  0.15294330000E+03 0.  0.
<mgrwt>
<rscale>  0 0.15119554E+04</rscale>
<asrwt>0</asrwt>
<pdfrwt beam="1">  1        2 0.26392953E+00 0.15119554E+04</pdfrwt>
<pdfrwt beam="2">  1       -2 0.24919206E+00 0.15119554E+04</pdfrwt>
<totfact> 0.58592028E-01</totfact>
</mgrwt>
</event>
<event>
 4    1  0.2061941E-008  0.1631374E+04  0.7818608E-02  0.8801502E-01
          2   -1    0    0  501    0  0.00000000000E+00  0.00000000000E+00  0.30261860448E+04  0.30261860448E+04  0.25500000000E-02 0. -1.
         -2   -1    0    0    0  501 -0.00000000000E+00 -0.00000000000E+00 -0.15005653531E+04  0.15005653531E+04  0.25500000000E-02 0.  1.
    8880022    1    1    2    0    0 -0.14317356276E+04 -0.76689109955E+03  0.22189907579E+04  0.27541424260E+04  0.15294330000E+03 0.  0.
    8880022    1    1    2    0    0  0.14317356276E+04  0.76689109955E+03 -0.69337006614E+03  0.17726089720E+04  0.15294330000E+03 0.  0.
<mgrwt>
<rscale>  0 0.16313738E+04</rscale>
<asrwt>0</asrwt>
<pdfrwt beam="1">  1        2 0.46556708E+00 0.16313738E+04</pdfrwt>
<pdfrwt beam="2">  1       -2 0.23085621E+00 0.16313738E+04</pdfrwt>
<totfact> 0.13108639E-01</totfact>
</mgrwt>
</event>
<event>
 4    1  0.2061941E-008  0.8013836E+03  0.7818608E-02  0.9558017E-01
         -2   -1    0    0    0  501 -0.00000000000E+00  0.00000000000E+00  0.13604519818E+04  0.13604519818E+04  0.25500000000E-02 0.  1.
          2   -1    0    0  501    0  0.00000000000E+00 -0.00000000000E+00 -0.18843680211E+04  0.18843680211E+04  0.25500000000E-02 0. -1.
    8880022    1    1    2    0    0  0.27977515873E+03  0.73522096997E+03  0.11426087374E+04  0.13956254490E+04  0.15294330000E+03 0.  0.
    8880022    1    1    2    0    0 -0.27977515873E+03 -0.73522096997E+03 -0.16665247766E+04  0.18491945539E+04  0.15294330000E+03 0.  0.
<mgrwt>
<rscale>  0 0.80138360E+03</rscale>
<asrwt>0</asrwt>
<pdfrwt beam="1">  1        2 0.28990277E+00 0.80138360E+03</pdfrwt>
<pdfrwt beam="2">  1       -2 0.20930030E+00 0.80138360E+03</pdfrwt>
<totfact> 0.92497609E-01</totfact>
</mgrwt>
</event>
<event>
 4    1  0.2061941E-008  0.4041820E+03  0.7818608E-02  0.1042341E+00
          2   -1    0    0  501    0  0.00000000000E+00  0.00000000000E+00  0.32355164217E+04  0.32355164217E+04  0.25500000000E-02 0. -1.
         -2   -1    0    0    0  501 -0.00000000000E+00 -0.00000000000E+00 -0.49587113707E+03  0.49587113708E+03  0.25500000000E-02 0.  1.
    8880022    1    1    2    0    0  0.22897862090E+03  0.29587200988E+03 -0.39833740969E+03  0.56748198213E+03  0.15294330000E+03 0.  0.
    8880022    1    1    2    0    0 -0.22897862090E+03 -0.29587200988E+03  0.31379826943E+04  0.31639055767E+04  0.15294330000E+03 0.  0.
<mgrwt>
<rscale>  0 0.40418202E+03</rscale>
<asrwt>0</asrwt>
<pdfrwt beam="1">  1        2 0.49777176E+00 0.40418202E+03</pdfrwt>
<pdfrwt beam="2">  1       -2 0.76287866E-01 0.40418202E+03</pdfrwt>
<totfact> 0.22543771E+00</totfact>
</mgrwt>
</event>
<event>
 4    1  0.2061941E-008  0.7787928E+03  0.7818608E-02  0.9591231E-01
          2   -1    0    0  501    0  0.00000000000E+00  0.00000000000E+00  0.21620378603E+04  0.21620378603E+04  0.25500000000E-02 0. -1.
         -2   -1    0    0    0  501 -0.00000000000E+00 -0.00000000000E+00 -0.51445784224E+03  0.51445784224E+03  0.25500000000E-02 0.  1.
    8880022    1    1    2    0    0  0.39453228124E+03  0.65381252243E+03  0.17261958197E+04  0.18937450189E+04  0.15294330000E+03 0.  0.
    8880022    1    1    2    0    0 -0.39453228124E+03 -0.65381252243E+03 -0.78615801709E+02  0.78275068363E+03  0.15294330000E+03 0.  0.
<mgrwt>
<rscale>  0 0.77879278E+03</rscale>
<asrwt>0</asrwt>
<pdfrwt beam="1">  1        2 0.33262121E+00 0.77879278E+03</pdfrwt>
<pdfrwt beam="2">  1       -2 0.79147360E-01 0.77879278E+03</pdfrwt>
<totfact> 0.79495299E+00</totfact>
</mgrwt>
</event>
<event>
 4    1  0.2061941E-008  0.7824878E+03  0.7818608E-02  0.9585717E-01
         -2   -1    0    0    0  501 -0.00000000000E+00  0.00000000000E+00  0.31011905749E+04  0.31011905749E+04  0.25500000000E-02 0.  1.
          2   -1    0    0  501    0  0.00000000000E+00 -0.00000000000E+00 -0.70108453661E+03  0.70108453661E+03  0.25500000000E-02 0. -1.
    8880022    1    1    2    0    0  0.75784273963E+03 -0.12070553568E+03 -0.41130511130E+03  0.88400169228E+03  0.15294330000E+03 0.  0.
    8880022    1    1    2    0    0 -0.75784273963E+03  0.12070553568E+03  0.28114111496E+04  0.29182734192E+04  0.15294330000E+03 0.  0.
<mgrwt>
<rscale>  0 0.78248776E+03</rscale>
<asrwt>0</asrwt>
<pdfrwt beam="1">  1        2 0.10785916E+00 0.78248776E+03</pdfrwt>
<pdfrwt beam="2">  1       -2 0.47710625E+00 0.78248776E+03</pdfrwt>
<totfact> 0.99730541E-02</totfact>
</mgrwt>
</event>
<event>
 4    1  0.2061941E-008  0.1115794E+04  0.7818608E-02  0.9189933E-01
         -2   -1    0    0    0  501 -0.00000000000E+00  0.00000000000E+00  0.17810278613E+04  0.17810278613E+04  0.25500000000E-02 0.  1.
          2   -1    0    0  501    0  0.00000000000E+00 -0.00000000000E+00 -0.12582848715E+04  0.12582848715E+04  0.25500000000E-02 0. -1.
    8880022    1    1    2    0    0  0.39759403554E+03 -0.10312726902E+04  0.12744891758E+04  0.16939063407E+04  0.15294330000E+03 0.  0.
    8880022    1    1    2    0    0 -0.39759403554E+03  0.10312726902E+04 -0.75174618609E+03  0.13454063921E+04  0.15294330000E+03 0.  0.
<mgrwt>
<rscale>  0 0.11157939E+04</rscale>
<asrwt>0</asrwt>
<pdfrwt beam="1">  1        2 0.19358229E+00 0.11157939E+04</pdfrwt>
<pdfrwt beam="2">  1       -2 0.27400428E+00 0.11157939E+04</pdfrwt>
<totfact> 0.78877864E-01</totfact>
</mgrwt>
</event>
<event>
 4    1  0.2061941E-008  0.1169192E+04  0.7818608E-02  0.9140259E-01
          2   -1    0    0  501    0  0.00000000000E+00  0.00000000000E+00  0.15166641199E+04  0.15166641199E+04  0.25500000000E-02 0. -1.
         -2   -1    0    0    0  501 -0.00000000000E+00 -0.00000000000E+00 -0.13367344026E+04  0.13367344026E+04  0.25500000000E-02 0.  1.
    8880022    1    1    2    0    0  0.11426994603E+04  0.19456557505E+03  0.90421540186E+03  0.14780443043E+04  0.15294330000E+03 0.  0.
    8880022    1    1    2    0    0 -0.11426994603E+04 -0.19456557505E+03 -0.72428568457E+03  0.13753542182E+04  0.15294330000E+03 0.  0.
<mgrwt>
<rscale>  0 0.11691918E+04</rscale>
<asrwt>0</asrwt>
<pdfrwt beam="1">  1        2 0.23333294E+00 0.11691918E+04</pdfrwt>
<pdfrwt beam="2">  1       -2 0.20565145E+00 0.11691918E+04</pdfrwt>
<totfact> 0.14772282E+00</totfact>
</mgrwt>
</event>
<event>
 4    1  0.2061941E-008  0.3663970E+03  0.7818608E-02  0.1056079E+00
          2   -1    0    0  501    0  0.00000000000E+00  0.00000000000E+00  0.20777996456E+04  0.20777996456E+04  0.25500000000E-02 0. -1.
         -2   -1    0    0    0  501 -0.00000000000E+00 -0.00000000000E+00 -0.26510342576E+03  0.26510342577E+03  0.25500000000E-02 0.  1.
    8880022    1    1    2    0    0 -0.24118344286E+03 -0.22953363433E+03 -0.11239958904E+03  0.38324987023E+03  0.15294330000E+03 0.  1.
    8880022    1    1    2    0    0  0.24118344286E+03  0.22953363433E+03  0.19250958089E+04  0.19596532012E+04  0.15294330000E+03 0.  0.
<mgrwt>
<rscale>  0 0.36639705E+03</rscale>
<asrwt>0</asrwt>
<pdfrwt beam="1">  1        2 0.31966147E+00 0.36639705E+03</pdfrwt>
<pdfrwt beam="2">  1       -2 0.40785144E-01 0.36639705E+03</pdfrwt>
<totfact> 0.38152431E+01</totfact>
</mgrwt>
</event>
<event>
 4    1  0.2061941E-008  0.1084756E+04  0.7818608E-02  0.9220178E-01
         -2   -1    0    0    0  501 -0.00000000000E+00  0.00000000000E+00  0.78077737865E+03  0.78077737866E+03  0.25500000000E-02 0.  1.
          2   -1    0    0  501    0  0.00000000000E+00 -0.00000000000E+00 -0.21586893065E+04  0.21586893065E+04  0.25500000000E-02 0. -1.
    8880022    1    1    2    0    0 -0.10423032831E+04  0.25866671242E+03 -0.14964440835E+04  0.18482535405E+04  0.15294330000E+03 0.  0.
    8880022    1    1    2    0    0  0.10423032831E+04 -0.25866671242E+03  0.11853215560E+03  0.10912131446E+04  0.15294330000E+03 0.  0.
<mgrwt>
<rscale>  0 0.10847563E+04</rscale>
<asrwt>0</asrwt>
<pdfrwt beam="1">  1        2 0.33210605E+00 0.10847563E+04</pdfrwt>
<pdfrwt beam="2">  1       -2 0.12011960E+00 0.10847563E+04</pdfrwt>
<totfact> 0.28580305E+00</totfact>
</mgrwt>
</event>
<event>
 4    1  0.2061941E-008  0.5079347E+03  0.7818608E-02  0.1011728E+00
          2   -1    0    0  501    0  0.00000000000E+00  0.00000000000E+00  0.12562636960E+04  0.12562636960E+04  0.25500000000E-02 0. -1.
         -2   -1    0    0    0  501 -0.00000000000E+00 -0.00000000000E+00 -0.85209492597E+03  0.85209492598E+03  0.25500000000E-02 0.  1.
    8880022    1    1    2    0    0  0.50592523001E+02 -0.48171190381E+03 -0.71631299443E+03  0.87812409184E+03  0.15294330000E+03 0.  0.
    8880022    1    1    2    0    0 -0.50592523001E+02  0.48171190381E+03  0.11204817645E+04  0.12302345302E+04  0.15294330000E+03 0.  0.
<mgrwt>
<rscale>  0 0.50793466E+03</rscale>
<asrwt>0</asrwt>
<pdfrwt beam="1">  1        2 0.19327134E+00 0.50793466E+03</pdfrwt>
<pdfrwt beam="2">  1       -2 0.13109153E+00 0.50793466E+03</pdfrwt>
<totfact> 0.79200507E+00</totfact>
</mgrwt>
</event>
<event>
 4    1  0.2061941E-008  0.2888080E+03  0.7818608E-02  0.1090973E+00
         -2   -1    0    0    0  501 -0.00000000000E+00  0.00000000000E+00  0.50637022829E+03  0.50637022830E+03  0.25500000000E-02 0.  1.
          2   -1    0    0  501    0  0.00000000000E+00 -0.00000000000E+00 -0.25798913903E+04  0.25798913903E+04  0.25500000000E-02 0. -1.
    8880022    1    1    2    0    0  0.15594535025E+03 -0.18894300478E+03  0.45629464986E+03  0.54001377003E+03  0.15294330000E+03 0.  1.
    8880022    1    1    2    0    0 -0.15594535025E+03  0.18894300478E+03 -0.25298158118E+04  0.25462478485E+04  0.15294330000E+03 0.  0.
<mgrwt>
<rscale>  0 0.28880801E+03</rscale>
<asrwt>0</asrwt>
<pdfrwt beam="1">  1        2 0.39690636E+00 0.28880801E+03</pdfrwt>
<pdfrwt beam="2">  1       -2 0.77903114E-01 0.28880801E+03</pdfrwt>
<totfact> 0.55229935E+00</totfact>
</mgrwt>
</event>
<event>
 4    1  0.2061941E-008  0.7610940E+03  0.7818608E-02  0.9618105E-01
          2   -1    0    0  501    0  0.00000000000E+00  0.00000000000E+00  0.16478286419E+04  0.16478286419E+04  0.25500000000E-02 0. -1.
         -2   -1    0    0    0  501 -0.00000000000E+00 -0.00000000000E+00 -0.71364918986E+03  0.71364918986E+03  0.25500000000E-02 0.  1.
    8880022    1    1    2    0    0 -0.65016909765E+03 -0.36490079261E+03 -0.37398814264E+03  0.84801605400E+03  0.15294330000E+03 0.  0.
    8880022    1    1    2    0    0  0.65016909765E+03  0.36490079261E+03  0.13081675947E+04  0.15134617778E+04  0.15294330000E+03 0.  0.
<mgrwt>
<rscale>  0 0.76109401E+03</rscale>
<asrwt>0</asrwt>
<pdfrwt beam="1">  1        2 0.25351209E+00 0.76109401E+03</pdfrwt>
<pdfrwt beam="2">  1       -2 0.10979218E+00 0.76109401E+03</pdfrwt>
<totfact> 0.71026495E+00</totfact>
</mgrwt>
</event>
<event>
 4    1  0.2061941E-008  0.1199002E+04  0.7818608E-02  0.9113730E-01
          2   -1    0    0  501    0  0.00000000000E+00  0.00000000000E+00  0.34786046845E+04  0.34786046845E+04  0.25500000000E-02 0. -1.
         -2   -1    0    0    0  501 -0.00000000000E+00 -0.00000000000E+00 -0.10950129922E+04  0.10950129922E+04  0.25500000000E-02 0.  1.
    8880022    1    1    2    0    0 -0.10565566890E+04 -0.54580473342E+03 -0.61259345426E+03  0.13464312969E+04  0.15294330000E+03 0.  0.
    8880022    1    1    2    0    0  0.10565566890E+04  0.54580473342E+03  0.29961851467E+04  0.32271863798E+04  0.15294330000E+03 0.  0.
<mgrwt>
<rscale>  0 0.11990023E+04</rscale>
<asrwt>0</asrwt>
<pdfrwt beam="1">  1        2 0.53516994E+00 0.11990023E+04</pdfrwt>
<pdfrwt beam="2">  1       -2 0.16846354E+00 0.11990023E+04</pdfrwt>
<totfact> 0.18269309E-01</totfact>
</mgrwt>
</event>
<event>
 4    1  0.2061941E-008  0.8786915E+03  0.7818608E-02  0.9452617E-01
         -2   -1    0    0    0  501 -0.00000000000E+00  0.00000000000E+00  0.28396534155E+04  0.28396534155E+04  0.25500000000E-02 0.  1.
          2   -1    0    0  501    0  0.00000000000E+00 -0.00000000000E+00 -0.12314668805E+04  0.12314668805E+04  0.25500000000E-02 0. -1.
    8880022    1    1    2    0    0  0.85640797839E+03  0.12358209268E+03  0.26009375072E+04  0.27453551189E+04  0.15294330000E+03 0.  0.
    8880022    1    1    2    0    0 -0.85640797839E+03 -0.12358209268E+03 -0.99275097219E+03  0.13257651771E+04  0.15294330000E+03 0.  0.
<mgrwt>
<rscale>  0 0.87869153E+03</rscale>
<asrwt>0</asrwt>
<pdfrwt beam="1">  1        2 0.18945644E+00 0.87869153E+03</pdfrwt>
<pdfrwt beam="2">  1       -2 0.43686976E+00 0.87869153E+03</pdfrwt>
<totfact> 0.80246994E-02</totfact>
</mgrwt>
</event>
<event>
 4    1  0.2061941E-008  0.9039829E+03  0.7818608E-02  0.9420616E-01
         -2   -1    0    0    0  501 -0.00000000000E+00  0.00000000000E+00  0.18077834600E+04  0.18077834600E+04  0.25500000000E-02 0.  1.
          2   -1    0    0  501    0  0.00000000000E+00 -0.00000000000E+00 -0.73300545769E+03  0.73300545769E+03  0.25500000000E-02 0. -1.
    8880022    1    1    2    0    0 -0.80995529869E+03 -0.37116833123E+03 -0.24913812116E+03  0.93768596684E+03  0.15294330000E+03 0.  0.
    8880022    1    1    2    0    0  0.80995529869E+03  0.37116833123E+03  0.13239161234E+04  0.16031029508E+04  0.15294330000E+03 0.  0.
<mgrwt>
<rscale>  0 0.90398295E+03</rscale>
<asrwt>0</asrwt>
<pdfrwt beam="1">  1        2 0.11277007E+00 0.90398295E+03</pdfrwt>
<pdfrwt beam="2">  1       -2 0.27812053E+00 0.90398295E+03</pdfrwt>
<totfact> 0.16939676E+00</totfact>
</mgrwt>
</event>
<event>
 4    1  0.2061941E-008  0.1311556E+04  0.7818608E-02  0.9020451E-01
         -2   -1    0    0    0  501 -0.00000000000E+00  0.00000000000E+00  0.14543758781E+04  0.14543758781E+04  0.25500000000E-02 0.  1.
          2   -1    0    0  501    0  0.00000000000E+00 -0.00000000000E+00 -0.19636291175E+04  0.19636291175E+04  0.25500000000E-02 0. -1.
    8880022    1    1    2    0    0  0.13015972998E+04  0.51306068095E+02 -0.13323361650E+04  0.18695719170E+04  0.15294330000E+03 0.  0.
    8880022    1    1    2    0    0 -0.13015972998E+04 -0.51306068095E+02  0.82308292556E+03  0.15484330786E+04  0.15294330000E+03 0.  0.
<mgrwt>
<rscale>  0 0.13115561E+04</rscale>
<asrwt>0</asrwt>
<pdfrwt beam="1">  1        2 0.30209679E+00 0.13115561E+04</pdfrwt>
<pdfrwt beam="2">  1       -2 0.22375013E+00 0.13115561E+04</pdfrwt>
<totfact> 0.62762579E-01</totfact>
</mgrwt>
</event>
<event>
 4    1  0.2061941E-008  0.5306142E+03  0.7818608E-02  0.1006083E+00
          2   -1    0    0  501    0  0.00000000000E+00  0.00000000000E+00  0.24462947446E+04  0.24462947446E+04  0.25500000000E-02 0. -1.
         -2   -1    0    0    0  501 -0.00000000000E+00 -0.00000000000E+00 -0.59768744406E+03  0.59768744407E+03  0.25500000000E-02 0.  1.
    8880022    1    1    2    0    0  0.37120915350E+03  0.34693443804E+03 -0.44331874959E+03  0.69143539589E+03  0.15294330000E+03 0.  0.
    8880022    1    1    2    0    0 -0.37120915350E+03 -0.34693443804E+03  0.22919260501E+04  0.23525467927E+04  0.15294330000E+03 0.  0.
<mgrwt>
<rscale>  0 0.53061417E+03</rscale>
<asrwt>0</asrwt>
<pdfrwt beam="1">  1        2 0.37635305E+00 0.53061417E+03</pdfrwt>
<pdfrwt beam="2">  1       -2 0.91951912E-01 0.53061417E+03</pdfrwt>
<totfact> 0.41359704E+00</totfact>
</mgrwt>
</event>
<event>
 4    1  0.2061941E-008  0.5527448E+03  0.7818608E-02  0.1000861E+00
         -2   -1    0    0    0  501 -0.00000000000E+00  0.00000000000E+00  0.58825205867E+03  0.58825205867E+03  0.25500000000E-02 0.  1.
          2   -1    0    0  501    0  0.00000000000E+00 -0.00000000000E+00 -0.77840257376E+03  0.77840257377E+03  0.25500000000E-02 0. -1.
    8880022    1    1    2    0    0 -0.16825205853E+03  0.50381186400E+03  0.29910495454E+03  0.62848275741E+03  0.15294330000E+03 0.  0.
    8880022    1    1    2    0    0  0.16825205853E+03 -0.50381186400E+03 -0.48925546964E+03  0.73817187503E+03  0.15294330000E+03 0.  0.
<mgrwt>
<rscale>  0 0.55274479E+03</rscale>
<asrwt>0</asrwt>
<pdfrwt beam="1">  1        2 0.11975424E+00 0.55274479E+03</pdfrwt>
<pdfrwt beam="2">  1       -2 0.90500316E-01 0.55274479E+03</pdfrwt>
<totfact> 0.38510735E+01</totfact>
</mgrwt>
</event>
<event>
 4    1  0.2061941E-008  0.7203906E+03  0.7818608E-02  0.9682983E-01
         -2   -1    0    0    0  501 -0.00000000000E+00  0.00000000000E+00  0.42223578380E+03  0.42223578381E+03  0.25500000000E-02 0.  1.
          2   -1    0    0  501    0  0.00000000000E+00 -0.00000000000E+00 -0.13101971848E+04  0.13101971848E+04  0.25500000000E-02 0. -1.
    8880022    1    1    2    0    0  0.57566920167E+03  0.40518637349E+03 -0.65951055179E+03  0.97668666826E+03  0.15294330000E+03 0.  0.
    8880022    1    1    2    0    0 -0.57566920167E+03 -0.40518637349E+03 -0.22845084925E+03  0.75574630039E+03  0.15294330000E+03 0.  0.
<mgrwt>
<rscale>  0 0.72039064E+03</rscale>
<asrwt>0</asrwt>
<pdfrwt beam="1">  1        2 0.20156880E+00 0.72039064E+03</pdfrwt>
<pdfrwt beam="2">  1       -2 0.64959352E-01 0.72039064E+03</pdfrwt>
<totfact> 0.36471450E+01</totfact>
</mgrwt>
</event>
<event>
 4    1  0.2061941E-008  0.2841438E+03  0.7818608E-02  0.1093447E+00
         -2   -1    0    0    0  501 -0.00000000000E+00  0.00000000000E+00  0.18750650645E+03  0.18750650647E+03  0.25500000000E-02 0.  1.
          2   -1    0    0  501    0  0.00000000000E+00 -0.00000000000E+00 -0.15600438414E+04  0.15600438415E+04  0.25500000000E-02 0. -1.
    8880022    1    1    2    0    0 -0.22807142011E+03 -0.73003373943E+02  0.57206160713E+02  0.28984523994E+03  0.15294330000E+03 0.  0.
    8880022    1    1    2    0    0  0.22807142011E+03  0.73003373943E+02 -0.14297434957E+04  0.14577051080E+04  0.15294330000E+03 0. -1.
<mgrwt>
<rscale>  0 0.28414383E+03</rscale>
<asrwt>0</asrwt>
<pdfrwt beam="1">  1        2 0.24000674E+00 0.28414383E+03</pdfrwt>
<pdfrwt beam="2">  1       -2 0.28847156E-01 0.28414383E+03</pdfrwt>
<totfact> 0.14023301E+02</totfact>
</mgrwt>
</event>
<event>
 4    1  0.2061941E-008  0.6652105E+03  0.7818608E-02  0.9778649E-01
         -2   -1    0    0    0  501 -0.00000000000E+00  0.00000000000E+00  0.28035964830E+03  0.28035964831E+03  0.25500000000E-02 0.  1.
          2   -1    0    0  501    0  0.00000000000E+00 -0.00000000000E+00 -0.18581401543E+04  0.18581401543E+04  0.25500000000E-02 0. -1.
    8880022    1    1    2    0    0  0.46713339935E+03 -0.44821842051E+03 -0.12038041199E+04  0.13753724505E+04  0.15294330000E+03 0.  0.
    8880022    1    1    2    0    0 -0.46713339935E+03  0.44821842051E+03 -0.37397638608E+03  0.76312735217E+03  0.15294330000E+03 0.  0.
<mgrwt>
<rscale>  0 0.66521051E+03</rscale>
<asrwt>0</asrwt>
<pdfrwt beam="1">  1        2 0.28586771E+00 0.66521051E+03</pdfrwt>
<pdfrwt beam="2">  1       -2 0.43132255E-01 0.66521051E+03</pdfrwt>
<totfact> 0.42436173E+01</totfact>
</mgrwt>
</event>
<event>
 4    1  0.2061941E-008  0.1871112E+03  0.7818608E-02  0.1161093E+00
          2   -1    0    0  501    0  0.00000000000E+00  0.00000000000E+00  0.25203068312E+03  0.25203068313E+03  0.25500000000E-02 0. -1.
         -2   -1    0    0    0  501 -0.00000000000E+00 -0.00000000000E+00 -0.22231323377E+03  0.22231323378E+03  0.25500000000E-02 0.  1.
    8880022    1    1    2    0    0 -0.97646550864E+02 -0.45651898209E+02  0.16012394115E+03  0.24627276393E+03  0.15294330000E+03 0. -1.
    8880022    1    1    2    0    0  0.97646550864E+02  0.45651898209E+02 -0.13040649181E+03  0.22807115299E+03  0.15294330000E+03 0.  0.
<mgrwt>
<rscale>  0 0.18711119E+03</rscale>
<asrwt>0</asrwt>
<pdfrwt beam="1">  1        2 0.38773951E-01 0.18711119E+03</pdfrwt>
<pdfrwt beam="2">  1       -2 0.34202036E-01 0.18711119E+03</pdfrwt>
<totfact> 0.10546600E+03</totfact>
</mgrwt>
</event>
<event>
 4    1  0.2061941E-008  0.4344736E+03  0.7818608E-02  0.1032456E+00
          2   -1    0    0  501    0  0.00000000000E+00  0.00000000000E+00  0.18339384105E+04  0.18339384105E+04  0.25500000000E-02 0. -1.
         -2   -1    0    0    0  501 -0.00000000000E+00 -0.00000000000E+00 -0.52677324212E+03  0.52677324213E+03  0.25500000000E-02 0.  1.
    8880022    1    1    2    0    0  0.35836203200E+03 -0.19222987838E+03 -0.40519250307E+03  0.59409451241E+03  0.15294330000E+03 0.  0.
    8880022    1    1    2    0    0 -0.35836203200E+03  0.19222987838E+03  0.17123576715E+04  0.17666171402E+04  0.15294330000E+03 0.  0.
<mgrwt>
<rscale>  0 0.43447362E+03</rscale>
<asrwt>0</asrwt>
<pdfrwt beam="1">  1        2 0.28214437E+00 0.43447362E+03</pdfrwt>
<pdfrwt beam="2">  1       -2 0.81042038E-01 0.43447362E+03</pdfrwt>
<totfact> 0.12143907E+01</totfact>
</mgrwt>
</event>
<event>
 4    1  0.2061941E-008  0.7512368E+03  0.7818608E-02  0.9633412E-01
          2   -1    0    0  501    0  0.00000000000E+00  0.00000000000E+00  0.11733641899E+04  0.11733641899E+04  0.25500000000E-02 0. -1.
         -2   -1    0    0    0  501 -0.00000000000E+00 -0.00000000000E+00 -0.98656801805E+03  0.98656801806E+03  0.25500000000E-02 0.  1.
    8880022    1    1    2    0    0 -0.23621498712E+03  0.69653967257E+03  0.86651990553E+03  0.11468275526E+04  0.15294330000E+03 0.  0.
    8880022    1    1    2    0    0  0.23621498712E+03 -0.69653967257E+03 -0.67972373370E+03  0.10131046554E+04  0.15294330000E+03 0.  0.
<mgrwt>
<rscale>  0 0.75123677E+03</rscale>
<asrwt>0</asrwt>
<pdfrwt beam="1">  1        2 0.18051757E+00 0.75123677E+03</pdfrwt>
<pdfrwt beam="2">  1       -2 0.15177970E+00 0.75123677E+03</pdfrwt>
<totfact> 0.58252541E+00</totfact>
</mgrwt>
</event>
<event>
 4    1  0.2061941E-008  0.1176256E+04  0.7818608E-02  0.9133898E-01
          2   -1    0    0  501    0  0.00000000000E+00  0.00000000000E+00  0.14193501129E+04  0.14193501129E+04  0.25500000000E-02 0. -1.
         -2   -1    0    0    0  501 -0.00000000000E+00 -0.00000000000E+00 -0.10800237092E+04  0.10800237092E+04  0.25500000000E-02 0.  1.
    8880022    1    1    2    0    0 -0.70621825180E+03  0.92813877625E+03 -0.22041231530E+03  0.11967284775E+04  0.15294330000E+03 0.  0.
    8880022    1    1    2    0    0  0.70621825180E+03 -0.92813877625E+03  0.55973871901E+03  0.13026453446E+04  0.15294330000E+03 0.  0.
<mgrwt>
<rscale>  0 0.11762557E+04</rscale>
<asrwt>0</asrwt>
<pdfrwt beam="1">  1        2 0.21836156E+00 0.11762557E+04</pdfrwt>
<pdfrwt beam="2">  1       -2 0.16615749E+00 0.11762557E+04</pdfrwt>
<totfact> 0.31182415E+00</totfact>
</mgrwt>
</event>
<event>
 4    1  0.2061941E-008  0.5209855E+03  0.7818608E-02  0.1008442E+00
         -2   -1    0    0    0  501 -0.00000000000E+00  0.00000000000E+00  0.65108909021E+03  0.65108909021E+03  0.25500000000E-02 0.  1.
          2   -1    0    0  501    0  0.00000000000E+00 -0.00000000000E+00 -0.34603335504E+04  0.34603335504E+04  0.25500000000E-02 0. -1.
    8880022    1    1    2    0    0  0.62415413411E+02 -0.49410376014E+03  0.52328664158E+03  0.73841368615E+03  0.15294330000E+03 0.  0.
    8880022    1    1    2    0    0 -0.62415413411E+02  0.49410376014E+03 -0.33325311018E+04  0.33730089544E+04  0.15294330000E+03 0.  0.
<mgrwt>
<rscale>  0 0.52098547E+03</rscale>
<asrwt>0</asrwt>
<pdfrwt beam="1">  1        2 0.53235900E+00 0.52098547E+03</pdfrwt>
<pdfrwt beam="2">  1       -2 0.10016755E+00 0.52098547E+03</pdfrwt>
<totfact> 0.82848982E-01</totfact>
</mgrwt>
</event>
<event>
 4    1  0.2061941E-008  0.3536923E+03  0.7818608E-02  0.1061110E+00
          2   -1    0    0  501    0  0.00000000000E+00  0.00000000000E+00  0.30625928605E+03  0.30625928607E+03  0.25500000000E-02 0. -1.
         -2   -1    0    0    0  501 -0.00000000000E+00 -0.00000000000E+00 -0.14545269224E+04  0.14545269224E+04  0.25500000000E-02 0.  1.
    8880022    1    1    2    0    0 -0.30532274789E+03  0.92111824504E+02 -0.13207425696E+04  0.13672816669E+04  0.15294330000E+03 0.  1.
    8880022    1    1    2    0    0  0.30532274789E+03 -0.92111824504E+02  0.17247493325E+03  0.39350454153E+03  0.15294330000E+03 0.  0.
<mgrwt>
<rscale>  0 0.35369227E+03</rscale>
<asrwt>0</asrwt>
<pdfrwt beam="1">  1        2 0.47116814E-01 0.35369227E+03</pdfrwt>
<pdfrwt beam="2">  1       -2 0.22377337E+00 0.35369227E+03</pdfrwt>
<totfact> 0.10862572E+01</totfact>
</mgrwt>
</event>
<event>
 4    1  0.2061941E-008  0.1016410E+04  0.7818608E-02  0.9290728E-01
         -2   -1    0    0    0  501 -0.00000000000E+00  0.00000000000E+00  0.11763779534E+04  0.11763779534E+04  0.25500000000E-02 0.  1.
          2   -1    0    0  501    0  0.00000000000E+00 -0.00000000000E+00 -0.21282827303E+04  0.21282827303E+04  0.25500000000E-02 0. -1.
    8880022    1    1    2    0    0 -0.10017144873E+04  0.79150175396E+02  0.79039424295E+03  0.12875602420E+04  0.15294330000E+03 0.  0.
    8880022    1    1    2    0    0  0.10017144873E+04 -0.79150175396E+02 -0.17422990199E+04  0.20171004417E+04  0.15294330000E+03 0.  0.
<mgrwt>
<rscale>  0 0.10164095E+04</rscale>
<asrwt>0</asrwt>
<pdfrwt beam="1">  1        2 0.32742811E+00 0.10164095E+04</pdfrwt>
<pdfrwt beam="2">  1       -2 0.18098122E+00 0.10164095E+04</pdfrwt>
<totfact> 0.10085093E+00</totfact>
</mgrwt>
</event>
<event>
 4    1  0.2061941E-008  0.8069899E+03  0.7818608E-02  0.9549954E-01
          2   -1    0    0  501    0  0.00000000000E+00  0.00000000000E+00  0.80166497308E+03  0.80166497308E+03  0.25500000000E-02 0. -1.
         -2   -1    0    0    0  501 -0.00000000000E+00 -0.00000000000E+00 -0.97277257079E+03  0.97277257079E+03  0.25500000000E-02 0.  1.
    8880022    1    1    2    0    0 -0.77907049794E+03 -0.14453434819E+03 -0.44584825453E+03  0.92196167906E+03  0.15294330000E+03 0.  0.
    8880022    1    1    2    0    0  0.77907049794E+03  0.14453434819E+03  0.27474065683E+03  0.85247586482E+03  0.15294330000E+03 0.  0.
<mgrwt>
<rscale>  0 0.80698988E+03</rscale>
<asrwt>0</asrwt>
<pdfrwt beam="1">  1        2 0.12333307E+00 0.80698988E+03</pdfrwt>
<pdfrwt beam="2">  1       -2 0.14965732E+00 0.80698988E+03</pdfrwt>
<totfact> 0.10457755E+01</totfact>
</mgrwt>
</event>
<event>
 4    1  0.2061941E-008  0.5738170E+03  0.7818608E-02  0.9961268E-01
         -2   -1    0    0    0  501 -0.00000000000E+00  0.00000000000E+00  0.11832959145E+04  0.11832959145E+04  0.25500000000E-02 0.  1.
          2   -1    0    0  501    0  0.00000000000E+00 -0.00000000000E+00 -0.10595844438E+04  0.10595844438E+04  0.25500000000E-02 0. -1.
    8880022    1    1    2    0    0  0.53194024705E+03 -0.15137315485E+03 -0.90113822532E+03  0.10683239268E+04  0.15294330000E+03 0.  0.
    8880022    1    1    2    0    0 -0.53194024705E+03  0.15137315485E+03  0.10248496960E+04  0.11745564315E+04  0.15294330000E+03 0.  1.
<mgrwt>
<rscale>  0 0.57381697E+03</rscale>
<asrwt>0</asrwt>
<pdfrwt beam="1">  1        2 0.16301299E+00 0.57381697E+03</pdfrwt>
<pdfrwt beam="2">  1       -2 0.18204552E+00 0.57381697E+03</pdfrwt>
<totfact> 0.42652504E+00</totfact>
</mgrwt>
</event>
<event>
 4    1  0.2061941E-008  0.4549332E+03  0.7818608E-02  0.1026261E+00
          2   -1    0    0  501    0  0.00000000000E+00  0.00000000000E+00  0.15362258606E+04  0.15362258606E+04  0.25500000000E-02 0. -1.
         -2   -1    0    0    0  501 -0.00000000000E+00 -0.00000000000E+00 -0.75722763415E+03  0.75722763415E+03  0.25500000000E-02 0.  1.
    8880022    1    1    2    0    0 -0.42616653314E+03 -0.44210912444E+02  0.14292233979E+04  0.14998812262E+04  0.15294330000E+03 0.  0.
    8880022    1    1    2    0    0  0.42616653314E+03  0.44210912444E+02 -0.65022517145E+03  0.79357226851E+03  0.15294330000E+03 0.  1.
<mgrwt>
<rscale>  0 0.45493315E+03</rscale>
<asrwt>0</asrwt>
<pdfrwt beam="1">  1        2 0.23634244E+00 0.45493315E+03</pdfrwt>
<pdfrwt beam="2">  1       -2 0.11649656E+00 0.45493315E+03</pdfrwt>
<totfact> 0.74943875E+00</totfact>
</mgrwt>
</event>
<event>
 4    1  0.2061941E-008  0.4963834E+03  0.7818608E-02  0.1014727E+00
          2   -1    0    0  501    0  0.00000000000E+00  0.00000000000E+00  0.56218813260E+03  0.56218813261E+03  0.25500000000E-02 0. -1.
         -2   -1    0    0    0  501 -0.00000000000E+00 -0.00000000000E+00 -0.11349249318E+04  0.11349249318E+04  0.25500000000E-02 0.  1.
    8880022    1    1    2    0    0  0.25751554570E+02  0.47153116730E+03  0.37844935393E+03  0.62419576321E+03  0.15294330000E+03 0.  0.
    8880022    1    1    2    0    0 -0.25751554570E+02 -0.47153116730E+03 -0.95118615309E+03  0.10729173012E+04  0.15294330000E+03 0.  1.
<mgrwt>
<rscale>  0 0.49638336E+03</rscale>
<asrwt>0</asrwt>
<pdfrwt beam="1">  1        2 0.86490482E-01 0.49638336E+03</pdfrwt>
<pdfrwt beam="2">  1       -2 0.17460384E+00 0.49638336E+03</pdfrwt>
<totfact> 0.11134980E+01</totfact>
</mgrwt>
</event>
<event>
 4    1  0.2061941E-008  0.1457216E+04  0.7818608E-02  0.8913413E-01
         -2   -1    0    0    0  501 -0.00000000000E+00  0.00000000000E+00  0.10196829183E+04  0.10196829183E+04  0.25500000000E-02 0.  1.
          2   -1    0    0  501    0  0.00000000000E+00 -0.00000000000E+00 -0.26013137977E+04  0.26013137977E+04  0.25500000000E-02 0. -1.
    8880022    1    1    2    0    0 -0.38281809150E+03  0.13976895581E+04  0.17745100113E+02  0.14573236887E+04  0.15294330000E+03 0.  0.
    8880022    1    1    2    0    0  0.38281809150E+03 -0.13976895581E+04 -0.15993759795E+04  0.21636730273E+04  0.15294330000E+03 0.  0.
<mgrwt>
<rscale>  0 0.14572156E+04</rscale>
<asrwt>0</asrwt>
<pdfrwt beam="1">  1        2 0.40020212E+00 0.14572156E+04</pdfrwt>
<pdfrwt beam="2">  1       -2 0.15687430E+00 0.14572156E+04</pdfrwt>
<totfact> 0.76590699E-01</totfact>
</mgrwt>
</event>
<event>
 4    1  0.2061941E-008  0.1118984E+04  0.7818608E-02  0.9186884E-01
         -2   -1    0    0    0  501 -0.00000000000E+00  0.00000000000E+00  0.12638154690E+04  0.12638154690E+04  0.25500000000E-02 0.  1.
          2   -1    0    0  501    0  0.00000000000E+00 -0.00000000000E+00 -0.21573626711E+04  0.21573626711E+04  0.25500000000E-02 0. -1.
    8880022    1    1    2    0    0 -0.68012151608E+03 -0.87531025170E+03  0.81113037041E+03  0.13820482785E+04  0.15294330000E+03 0.  0.
    8880022    1    1    2    0    0  0.68012151608E+03  0.87531025170E+03 -0.17046775725E+04  0.20391298616E+04  0.15294330000E+03 0.  0.
<mgrwt>
<rscale>  0 0.11189839E+04</rscale>
<asrwt>0</asrwt>
<pdfrwt beam="1">  1        2 0.33190195E+00 0.11189839E+04</pdfrwt>
<pdfrwt beam="2">  1       -2 0.19443315E+00 0.11189839E+04</pdfrwt>
<totfact> 0.77664958E-01</totfact>
</mgrwt>
</event>
<event>
 4    1  0.2061941E-008  0.1097093E+04  0.7818608E-02  0.9208029E-01
          2   -1    0    0  501    0  0.00000000000E+00  0.00000000000E+00  0.21742776255E+04  0.21742776255E+04  0.25500000000E-02 0. -1.
         -2   -1    0    0    0  501 -0.00000000000E+00 -0.00000000000E+00 -0.10106785210E+04  0.10106785210E+04  0.25500000000E-02 0.  1.
    8880022    1    1    2    0    0  0.62561398126E+02 -0.10845775634E+04  0.16527682438E+04  0.19837482048E+04  0.15294330000E+03 0.  0.
    8880022    1    1    2    0    0 -0.62561398126E+02  0.10845775634E+04 -0.48916913927E+03  0.12012079418E+04  0.15294330000E+03 0.  0.
<mgrwt>
<rscale>  0 0.10970935E+04</rscale>
<asrwt>0</asrwt>
<pdfrwt beam="1">  1        2 0.33450425E+00 0.10970935E+04</pdfrwt>
<pdfrwt beam="2">  1       -2 0.15548900E+00 0.10970935E+04</pdfrwt>
<totfact> 0.14340240E+00</totfact>
</mgrwt>
</event>
<event>
 4    1  0.2061941E-008  0.1528713E+04  0.7818608E-02  0.8865580E-01
         -2   -1    0    0    0  501 -0.00000000000E+00  0.00000000000E+00  0.33911626860E+04  0.33911626860E+04  0.25500000000E-02 0.  1.
          2   -1    0    0  501    0  0.00000000000E+00 -0.00000000000E+00 -0.90544077372E+03  0.90544077372E+03  0.25500000000E-02 0. -1.
    8880022    1    1    2    0    0  0.15135761997E+04  0.15052950304E+03  0.19283302918E+03  0.15408271395E+04  0.15294330000E+03 0.  0.
    8880022    1    1    2    0    0 -0.15135761997E+04 -0.15052950304E+03  0.22928888831E+04  0.27557763202E+04  0.15294330000E+03 0.  0.
<mgrwt>
<rscale>  0 0.15287131E+04</rscale>
<asrwt>0</asrwt>
<pdfrwt beam="1">  1        2 0.13929858E+00 0.15287131E+04</pdfrwt>
<pdfrwt beam="2">  1       -2 0.52171734E+00 0.15287131E+04</pdfrwt>
<totfact> 0.33167948E-02</totfact>
</mgrwt>
</event>
<event>
 4    1  0.2061941E-008  0.4000600E+03  0.7818608E-02  0.1043759E+00
          2   -1    0    0  501    0  0.00000000000E+00  0.00000000000E+00  0.48074115154E+03  0.48074115155E+03  0.25500000000E-02 0. -1.
         -2   -1    0    0    0  501 -0.00000000000E+00 -0.00000000000E+00 -0.70539036199E+03  0.70539036200E+03  0.25500000000E-02 0.  1.
    8880022    1    1    2    0    0 -0.21405957958E+03 -0.30138816509E+03  0.31863283906E+03  0.51144390583E+03  0.15294330000E+03 0.  0.
    8880022    1    1    2    0    0  0.21405957958E+03  0.30138816509E+03 -0.54328204951E+03  0.67468760772E+03  0.15294330000E+03 0.  0.
<mgrwt>
<rscale>  0 0.40005997E+03</rscale>
<asrwt>0</asrwt>
<pdfrwt beam="1">  1        2 0.73960177E-01 0.40005997E+03</pdfrwt>
<pdfrwt beam="2">  1       -2 0.10852159E+00 0.40005997E+03</pdfrwt>
<totfact> 0.45703600E+01</totfact>
</mgrwt>
</event>
<event>
 4    1  0.2061941E-008  0.9047901E+03  0.7818608E-02  0.9419613E-01
         -2   -1    0    0    0  501 -0.00000000000E+00  0.00000000000E+00  0.94170377582E+03  0.94170377583E+03  0.25500000000E-02 0.  1.
          2   -1    0    0  501    0  0.00000000000E+00 -0.00000000000E+00 -0.15813342492E+04  0.15813342492E+04  0.25500000000E-02 0. -1.
    8880022    1    1    2    0    0 -0.74382694062E+03 -0.49190950119E+03  0.52668145926E+03  0.10469185677E+04  0.15294330000E+03 0.  0.
    8880022    1    1    2    0    0  0.74382694062E+03  0.49190950119E+03 -0.11663119326E+04  0.14761194573E+04  0.15294330000E+03 0.  0.
<mgrwt>
<rscale>  0 0.90479010E+03</rscale>
<asrwt>0</asrwt>
<pdfrwt beam="1">  1        2 0.24328219E+00 0.90479010E+03</pdfrwt>
<pdfrwt beam="2">  1       -2 0.14487750E+00 0.90479010E+03</pdfrwt>
<totfact> 0.37712526E+00</totfact>
</mgrwt>
</event>
<event>
 4    1  0.2061941E-008  0.9941521E+03  0.7818608E-02  0.9314982E-01
          2   -1    0    0  501    0  0.00000000000E+00  0.00000000000E+00  0.28861052948E+04  0.28861052949E+04  0.25500000000E-02 0. -1.
         -2   -1    0    0    0  501 -0.00000000000E+00 -0.00000000000E+00 -0.99780002998E+03  0.99780002998E+03  0.25500000000E-02 0.  1.
    8880022    1    1    2    0    0 -0.91825413803E+03  0.34893558781E+03  0.25179706355E+04  0.27071229157E+04  0.15294330000E+03 0.  0.
    8880022    1    1    2    0    0  0.91825413803E+03 -0.34893558781E+03 -0.62966537063E+03  0.11767824091E+04  0.15294330000E+03 0.  0.
<mgrwt>
<rscale>  0 0.99415208E+03</rscale>
<asrwt>0</asrwt>
<pdfrwt beam="1">  1        2 0.44401620E+00 0.99415208E+03</pdfrwt>
<pdfrwt beam="2">  1       -2 0.15350770E+00 0.99415208E+03</pdfrwt>
<totfact> 0.58588856E-01</totfact>
</mgrwt>
</event>
<event>
 4    1  0.2061941E-008  0.7039714E+03  0.7818608E-02  0.9710465E-01
          2   -1    0    0  501    0  0.00000000000E+00  0.00000000000E+00  0.33711695484E+04  0.33711695484E+04  0.25500000000E-02 0. -1.
         -2   -1    0    0    0  501 -0.00000000000E+00 -0.00000000000E+00 -0.16106627477E+03  0.16106627479E+03  0.25500000000E-02 0.  1.
    8880022    1    1    2    0    0  0.47403538051E+03 -0.49746806042E+03  0.21268996050E+04  0.22403744321E+04  0.15294330000E+03 0.  0.
    8880022    1    1    2    0    0 -0.47403538051E+03  0.49746806042E+03  0.10832036687E+04  0.12918613912E+04  0.15294330000E+03 0.  0.
<mgrwt>
<rscale>  0 0.70397135E+03</rscale>
<asrwt>0</asrwt>
<pdfrwt beam="1">  1        2 0.51864140E+00 0.70397135E+03</pdfrwt>
<pdfrwt beam="2">  1       -2 0.24779430E-01 0.70397135E+03</pdfrwt>
<totfact> 0.15720893E+01</totfact>
</mgrwt>
</event>
<event>
 4    1  0.2061941E-008  0.6293249E+03  0.7818608E-02  0.9846367E-01
         -2   -1    0    0    0  501 -0.00000000000E+00  0.00000000000E+00  0.15520706397E+03  0.15520706399E+03  0.25500000000E-02 0.  1.
          2   -1    0    0  501    0  0.00000000000E+00 -0.00000000000E+00 -0.27191332517E+04  0.27191332517E+04  0.25500000000E-02 0. -1.
    8880022    1    1    2    0    0  0.60832476808E+03 -0.50981402242E+02 -0.16385354375E+04  0.17552345028E+04  0.15294330000E+03 0.  0.
    8880022    1    1    2    0    0 -0.60832476808E+03  0.50981402242E+02 -0.92539075025E+03  0.11191058129E+04  0.15294330000E+03 0.  0.
<mgrwt>
<rscale>  0 0.62932486E+03</rscale>
<asrwt>0</asrwt>
<pdfrwt beam="1">  1        2 0.41832816E+00 0.62932486E+03</pdfrwt>
<pdfrwt beam="2">  1       -2 0.23878012E-01 0.62932486E+03</pdfrwt>
<totfact> 0.42990938E+01</totfact>
</mgrwt>
</event>
<event>
 4    1  0.2061941E-008  0.1336091E+04  0.7818608E-02  0.9001424E-01
         -2   -1    0    0    0  501 -0.00000000000E+00  0.00000000000E+00  0.10438015939E+04  0.10438015939E+04  0.25500000000E-02 0.  1.
          2   -1    0    0  501    0  0.00000000000E+00 -0.00000000000E+00 -0.24331804375E+04  0.24331804375E+04  0.25500000000E-02 0. -1.
    8880022    1    1    2    0    0  0.10681079532E+04 -0.78796727635E+03 -0.16423223971E+04  0.21171588361E+04  0.15294330000E+03 0.  0.
    8880022    1    1    2    0    0 -0.10681079532E+04  0.78796727635E+03  0.25294355357E+03  0.13598231953E+04  0.15294330000E+03 0.  0.
<mgrwt>
<rscale>  0 0.13360908E+04</rscale>
<asrwt>0</asrwt>
<pdfrwt beam="1">  1        2 0.37433545E+00 0.13360908E+04</pdfrwt>
<pdfrwt beam="2">  1       -2 0.16058486E+00 0.13360908E+04</pdfrwt>
<totfact> 0.91113857E-01</totfact>
</mgrwt>
</event>
<event>
 4    1  0.2061941E-008  0.6418734E+03  0.7818608E-02  0.9822149E-01
         -2   -1    0    0    0  501 -0.00000000000E+00  0.00000000000E+00  0.62525077690E+03  0.62525077691E+03  0.25500000000E-02 0.  1.
          2   -1    0    0  501    0  0.00000000000E+00 -0.00000000000E+00 -0.20874563825E+04  0.20874563825E+04  0.25500000000E-02 0. -1.
    8880022    1    1    2    0    0 -0.62194314472E+03 -0.42385222053E+02 -0.18531397157E+04  0.19611548234E+04  0.15294330000E+03 0.  0.
    8880022    1    1    2    0    0  0.62194314472E+03  0.42385222053E+02  0.39093411012E+03  0.75155233602E+03  0.15294330000E+03 0.  0.
<mgrwt>
<rscale>  0 0.64187338E+03</rscale>
<asrwt>0</asrwt>
<pdfrwt beam="1">  1        2 0.32114713E+00 0.64187338E+03</pdfrwt>
<pdfrwt beam="2">  1       -2 0.96192428E-01 0.64187338E+03</pdfrwt>
<totfact> 0.57216221E+00</totfact>
</mgrwt>
</event>
<event>
 4    1  0.2061941E-008  0.4113099E+03  0.7818608E-02  0.1039932E+00
          2   -1    0    0  501    0  0.00000000000E+00  0.00000000000E+00  0.10161852784E+04  0.10161852784E+04  0.25500000000E-02 0. -1.
         -2   -1    0    0    0  501 -0.00000000000E+00 -0.00000000000E+00 -0.70972329782E+03  0.70972329782E+03  0.25500000000E-02 0.  1.
    8880022    1    1    2    0    0 -0.21599573283E+03 -0.31484917136E+03 -0.60175682592E+03  0.72889442848E+03  0.15294330000E+03 0.  0.
    8880022    1    1    2    0    0  0.21599573283E+03  0.31484917136E+03  0.90821880649E+03  0.99701414773E+03  0.15294330000E+03 0.  0.
<mgrwt>
<rscale>  0 0.41130987E+03</rscale>
<asrwt>0</asrwt>
<pdfrwt beam="1">  1        2 0.15633620E+00 0.41130987E+03</pdfrwt>
<pdfrwt beam="2">  1       -2 0.10918820E+00 0.41130987E+03</pdfrwt>
<totfact> 0.17574529E+01</totfact>
</mgrwt>
</event>
<event>
 4    1  0.2061941E-008  0.9252458E+03  0.7818608E-02  0.9394562E-01
          2   -1    0    0  501    0  0.00000000000E+00  0.00000000000E+00  0.21827949852E+04  0.21827949852E+04  0.25500000000E-02 0. -1.
         -2   -1    0    0    0  501 -0.00000000000E+00 -0.00000000000E+00 -0.63346935822E+03  0.63346935823E+03  0.25500000000E-02 0.  1.
    8880022    1    1    2    0    0 -0.86225954855E+03 -0.29865801663E+03  0.16436969017E+04  0.18862182529E+04  0.15294330000E+03 0.  0.
    8880022    1    1    2    0    0  0.86225954855E+03  0.29865801663E+03 -0.94371274720E+02  0.93004609051E+03  0.15294330000E+03 0.  0.
<mgrwt>
<rscale>  0 0.92524580E+03</rscale>
<asrwt>0</asrwt>
<pdfrwt beam="1">  1        2 0.33581462E+00 0.92524580E+03</pdfrwt>
<pdfrwt beam="2">  1       -2 0.97456823E-01 0.92524580E+03</pdfrwt>
<totfact> 0.46965321E+00</totfact>
</mgrwt>
</event>
<event>
 4    1  0.2061941E-008  0.7714907E+03  0.7818608E-02  0.9602225E-01
         -2   -1    0    0    0  501 -0.00000000000E+00  0.00000000000E+00  0.89454685533E+03  0.89454685533E+03  0.25500000000E-02 0.  1.
          2   -1    0    0  501    0  0.00000000000E+00 -0.00000000000E+00 -0.24060319164E+04  0.24060319164E+04  0.25500000000E-02 0. -1.
    8880022    1    1    2    0    0 -0.74164050421E+03  0.14756571917E+03  0.64793569771E+03  0.10074813151E+04  0.15294330000E+03 0.  0.
    8880022    1    1    2    0    0  0.74164050421E+03 -0.14756571917E+03 -0.21594207587E+04  0.22930974566E+04  0.15294330000E+03 0.  0.
<mgrwt>
<rscale>  0 0.77149072E+03</rscale>
<asrwt>0</asrwt>
<pdfrwt beam="1">  1        2 0.37015875E+00 0.77149072E+03</pdfrwt>
<pdfrwt beam="2">  1       -2 0.13762259E+00 0.77149072E+03</pdfrwt>
<totfact> 0.15463471E+00</totfact>
</mgrwt>
</event>
<event>
 4    1  0.2061941E-008  0.8557658E+03  0.7818608E-02  0.9482631E-01
          2   -1    0    0  501    0  0.00000000000E+00  0.00000000000E+00  0.11970574938E+04  0.11970574938E+04  0.25500000000E-02 0. -1.
         -2   -1    0    0    0  501 -0.00000000000E+00 -0.00000000000E+00 -0.78508101836E+03  0.78508101837E+03  0.25500000000E-02 0.  1.
    8880022    1    1    2    0    0 -0.37259213441E+02  0.84116297242E+03 -0.25964947262E+03  0.89428904545E+03  0.15294330000E+03 0.  0.
    8880022    1    1    2    0    0  0.37259213441E+02 -0.84116297242E+03  0.67162594809E+03  0.10878494668E+04  0.15294330000E+03 0.  0.
<mgrwt>
<rscale>  0 0.85576577E+03</rscale>
<asrwt>0</asrwt>
<pdfrwt beam="1">  1        2 0.18416269E+00 0.85576577E+03</pdfrwt>
<pdfrwt beam="2">  1       -2 0.12078170E+00 0.85576577E+03</pdfrwt>
<totfact> 0.10007994E+01</totfact>
</mgrwt>
</event>
<event>
 4    1  0.2061941E-008  0.5578528E+03  0.7818608E-02  0.9996925E-01
          2   -1    0    0  501    0  0.00000000000E+00  0.00000000000E+00  0.97795872525E+03  0.97795872525E+03  0.25500000000E-02 0. -1.
         -2   -1    0    0    0  501 -0.00000000000E+00 -0.00000000000E+00 -0.22989241336E+04  0.22989241336E+04  0.25500000000E-02 0.  1.
    8880022    1    1    2    0    0 -0.43059202182E+03  0.31999775041E+03  0.86034184402E+03  0.10253720257E+04  0.15294330000E+03 0.  0.
    8880022    1    1    2    0    0  0.43059202182E+03 -0.31999775041E+03 -0.21813072524E+04  0.22515108331E+04  0.15294330000E+03 0.  0.
<mgrwt>
<rscale>  0 0.55785276E+03</rscale>
<asrwt>0</asrwt>
<pdfrwt beam="1">  1        2 0.15045519E+00 0.55785276E+03</pdfrwt>
<pdfrwt beam="2">  1       -2 0.35368064E+00 0.55785276E+03</pdfrwt>
<totfact> 0.42689957E-01</totfact>
</mgrwt>
</event>
<event>
 4    1  0.2061941E-008  0.5353106E+03  0.7818608E-02  0.1004952E+00
         -2   -1    0    0    0  501 -0.00000000000E+00  0.00000000000E+00  0.17953463275E+03  0.17953463277E+03  0.25500000000E-02 0.  1.
          2   -1    0    0  501    0  0.00000000000E+00 -0.00000000000E+00 -0.30749078826E+04  0.30749078826E+04  0.25500000000E-02 0. -1.
    8880022    1    1    2    0    0  0.50285229321E+03  0.10151509308E+03 -0.31923054959E+03  0.62327003756E+03  0.15294330000E+03 0.  0.
    8880022    1    1    2    0    0 -0.50285229321E+03 -0.10151509308E+03 -0.25761427003E+04  0.26311724779E+04  0.15294330000E+03 0.  0.
<mgrwt>
<rscale>  0 0.53531056E+03</rscale>
<asrwt>0</asrwt>
<pdfrwt beam="1">  1        2 0.47306271E+00 0.53531056E+03</pdfrwt>
<pdfrwt beam="2">  1       -2 0.27620715E-01 0.53531056E+03</pdfrwt>
<totfact> 0.20668453E+01</totfact>
</mgrwt>
</event>
<event>
 4    1  0.2061941E-008  0.6766714E+03  0.7818608E-02  0.9757981E-01
         -2   -1    0    0    0  501 -0.00000000000E+00  0.00000000000E+00  0.10423738647E+04  0.10423738647E+04  0.25500000000E-02 0.  1.
          2   -1    0    0  501    0  0.00000000000E+00 -0.00000000000E+00 -0.14150396836E+04  0.14150396836E+04  0.25500000000E-02 0. -1.
    8880022    1    1    2    0    0 -0.56768891382E+03 -0.33499517241E+03  0.83398964067E+03  0.10739752521E+04  0.15294330000E+03 0.  0.
    8880022    1    1    2    0    0  0.56768891382E+03  0.33499517241E+03 -0.12066554595E+04  0.13834382962E+04  0.15294330000E+03 0.  0.
<mgrwt>
<rscale>  0 0.67667135E+03</rscale>
<asrwt>0</asrwt>
<pdfrwt beam="1">  1        2 0.21769841E+00 0.67667135E+03</pdfrwt>
<pdfrwt beam="2">  1       -2 0.16036521E+00 0.67667135E+03</pdfrwt>
<totfact> 0.36873691E+00</totfact>
</mgrwt>
</event>
<event>
 4    1  0.2061941E-008  0.4089405E+03  0.7818608E-02  0.1040727E+00
         -2   -1    0    0    0  501 -0.00000000000E+00  0.00000000000E+00  0.22885911358E+03  0.22885911359E+03  0.25500000000E-02 0.  1.
          2   -1    0    0  501    0  0.00000000000E+00 -0.00000000000E+00 -0.11756908610E+04  0.11756908610E+04  0.25500000000E-02 0. -1.
    8880022    1    1    2    0    0 -0.37727868791E+03 -0.38748715507E+02 -0.90545748568E+03  0.99352180786E+03  0.15294330000E+03 0.  0.
    8880022    1    1    2    0    0  0.37727868791E+03  0.38748715507E+02 -0.41374261759E+02  0.41102816675E+03  0.15294330000E+03 0.  0.
<mgrwt>
<rscale>  0 0.40894049E+03</rscale>
<asrwt>0</asrwt>
<pdfrwt beam="1">  1        2 0.18087551E+00 0.40894049E+03</pdfrwt>
<pdfrwt beam="2">  1       -2 0.35209095E-01 0.40894049E+03</pdfrwt>
<totfact> 0.15513742E+02</totfact>
</mgrwt>
</event>
<event>
 4    1  0.2061941E-008  0.1239960E+04  0.7818608E-02  0.9078581E-01
          2   -1    0    0  501    0  0.00000000000E+00  0.00000000000E+00  0.18451531387E+04  0.18451531387E+04  0.25500000000E-02 0. -1.
         -2   -1    0    0    0  501 -0.00000000000E+00 -0.00000000000E+00 -0.13081697843E+04  0.13081697843E+04  0.25500000000E-02 0.  1.
    8880022    1    1    2    0    0 -0.68183388514E+03  0.10243104014E+04 -0.68147817809E+03  0.14148898917E+04  0.15294330000E+03 0.  0.
    8880022    1    1    2    0    0  0.68183388514E+03 -0.10243104014E+04  0.12184615325E+04  0.17384330314E+04  0.15294330000E+03 0.  0.
<mgrwt>
<rscale>  0 0.12399600E+04</rscale>
<asrwt>0</asrwt>
<pdfrwt beam="1">  1        2 0.28386971E+00 0.12399600E+04</pdfrwt>
<pdfrwt beam="2">  1       -2 0.20125689E+00 0.12399600E+04</pdfrwt>
<totfact> 0.10267414E+00</totfact>
</mgrwt>
</event>
<event>
 4    1  0.2061941E-008  0.1977135E+03  0.7818608E-02  0.1151683E+00
         -2   -1    0    0    0  501 -0.00000000000E+00  0.00000000000E+00  0.87289997540E+03  0.87289997540E+03  0.25500000000E-02 0.  1.
          2   -1    0    0  501    0  0.00000000000E+00 -0.00000000000E+00 -0.23851919762E+04  0.23851919762E+04  0.25500000000E-02 0. -1.
    8880022    1    1    2    0    0 -0.10491261247E+03 -0.68500359791E+02  0.85753467866E+03  0.88003200718E+03  0.15294330000E+03 0.  1.
    8880022    1    1    2    0    0  0.10491261247E+03  0.68500359791E+02 -0.23698266795E+04  0.23780599444E+04  0.15294330000E+03 0.  0.
<mgrwt>
<rscale>  0 0.19771345E+03</rscale>
<asrwt>0</asrwt>
<pdfrwt beam="1">  1        2 0.36695261E+00 0.19771345E+03</pdfrwt>
<pdfrwt beam="2">  1       -2 0.13429230E+00 0.19771345E+03</pdfrwt>
<totfact> 0.20892592E+00</totfact>
</mgrwt>
</event>
<event>
 4    1  0.2061941E-008  0.1446217E+04  0.7818608E-02  0.8921028E-01
         -2   -1    0    0    0  501 -0.00000000000E+00  0.00000000000E+00  0.93485420908E+03  0.93485420908E+03  0.25500000000E-02 0.  1.
          2   -1    0    0  501    0  0.00000000000E+00 -0.00000000000E+00 -0.25569517405E+04  0.25569517405E+04  0.25500000000E-02 0. -1.
    8880022    1    1    2    0    0  0.31167993796E+03 -0.14039254200E+04 -0.14283572484E+04  0.20326699316E+04  0.15294330000E+03 0.  0.
    8880022    1    1    2    0    0 -0.31167993796E+03  0.14039254200E+04 -0.19374028303E+03  0.14591360180E+04  0.15294330000E+03 0.  0.
<mgrwt>
<rscale>  0 0.14462167E+04</rscale>
<asrwt>0</asrwt>
<pdfrwt beam="1">  1        2 0.39337719E+00 0.14462167E+04</pdfrwt>
<pdfrwt beam="2">  1       -2 0.14382373E+00 0.14462167E+04</pdfrwt>
<totfact> 0.10270896E+00</totfact>
</mgrwt>
</event>
<event>
 4    1  0.2061941E-008  0.7446060E+03  0.7818608E-02  0.9643851E-01
          2   -1    0    0  501    0  0.00000000000E+00  0.00000000000E+00  0.32801700017E+04  0.32801700017E+04  0.25500000000E-02 0. -1.
         -2   -1    0    0    0  501 -0.00000000000E+00 -0.00000000000E+00 -0.26999753656E+03  0.26999753657E+03  0.25500000000E-02 0.  1.
    8880022    1    1    2    0    0  0.29614432462E+03  0.66584156548E+03  0.41957142156E+03  0.85468022215E+03  0.15294330000E+03 0.  0.
    8880022    1    1    2    0    0 -0.29614432462E+03 -0.66584156548E+03  0.25906010436E+04  0.26954873161E+04  0.15294330000E+03 0.  0.
<mgrwt>
<rscale>  0 0.74460601E+03</rscale>
<asrwt>0</asrwt>
<pdfrwt beam="1">  1        2 0.50464155E+00 0.74460601E+03</pdfrwt>
<pdfrwt beam="2">  1       -2 0.41538082E-01 0.74460601E+03</pdfrwt>
<totfact> 0.67810977E+00</totfact>
</mgrwt>
</event>
<event>
 4    1  0.2061941E-008  0.1344326E+04  0.7818608E-02  0.8995135E-01
         -2   -1    0    0    0  501 -0.00000000000E+00  0.00000000000E+00  0.99127593030E+03  0.99127593030E+03  0.25500000000E-02 0.  1.
          2   -1    0    0  501    0  0.00000000000E+00 -0.00000000000E+00 -0.20788613528E+04  0.20788613528E+04  0.25500000000E-02 0. -1.
    8880022    1    1    2    0    0  0.63724775347E+03 -0.11737695663E+04 -0.10822095365E+04  0.17258009236E+04  0.15294330000E+03 0.  0.
    8880022    1    1    2    0    0 -0.63724775347E+03  0.11737695663E+04 -0.53758859674E+01  0.13443363594E+04  0.15294330000E+03 0.  0.
<mgrwt>
<rscale>  0 0.13443256E+04</rscale>
<asrwt>0</asrwt>
<pdfrwt beam="1">  1        2 0.31982482E+00 0.13443256E+04</pdfrwt>
<pdfrwt beam="2">  1       -2 0.15250399E+00 0.13443256E+04</pdfrwt>
<totfact> 0.16592248E+00</totfact>
</mgrwt>
</event>
<event>
 4    1  0.2061941E-008  0.1283850E+04  0.7818608E-02  0.9042471E-01
          2   -1    0    0  501    0  0.00000000000E+00  0.00000000000E+00  0.22271089893E+04  0.22271089893E+04  0.25500000000E-02 0. -1.
         -2   -1    0    0    0  501 -0.00000000000E+00 -0.00000000000E+00 -0.87646832097E+03  0.87646832098E+03  0.25500000000E-02 0.  1.
    8880022    1    1    2    0    0 -0.10176034339E+04  0.76769982475E+03  0.12874307145E+04  0.18181719575E+04  0.15294330000E+03 0.  0.
    8880022    1    1    2    0    0  0.10176034339E+04 -0.76769982475E+03  0.63209953821E+02  0.12854053527E+04  0.15294330000E+03 0.  0.
<mgrwt>
<rscale>  0 0.12838502E+04</rscale>
<asrwt>0</asrwt>
<pdfrwt beam="1">  1        2 0.34263215E+00 0.12838502E+04</pdfrwt>
<pdfrwt beam="2">  1       -2 0.13484128E+00 0.12838502E+04</pdfrwt>
<totfact> 0.19079666E+00</totfact>
</mgrwt>
</event>
<event>
 4    1  0.2061941E-008  0.5135687E+03  0.7818608E-02  0.1010297E+00
         -2   -1    0    0    0  501 -0.00000000000E+00  0.00000000000E+00  0.18621679993E+04  0.18621679993E+04  0.25500000000E-02 0.  1.
          2   -1    0    0  501    0  0.00000000000E+00 -0.00000000000E+00 -0.21060270269E+03  0.21060270271E+03  0.25500000000E-02 0. -1.
    8880022    1    1    2    0    0 -0.48769170527E+03 -0.50179457413E+02  0.23271492817E+03  0.56383425592E+03  0.15294330000E+03 0.  0.
    8880022    1    1    2    0    0  0.48769170527E+03  0.50179457413E+02  0.14188503684E+04  0.15089364461E+04  0.15294330000E+03 0.  0.
<mgrwt>
<rscale>  0 0.51356872E+03</rscale>
<asrwt>0</asrwt>
<pdfrwt beam="1">  1        2 0.32400415E-01 0.51356872E+03</pdfrwt>
<pdfrwt beam="2">  1       -2 0.28648739E+00 0.51356872E+03</pdfrwt>
<totfact> 0.67142882E+00</totfact>
</mgrwt>
</event>
<event>
 4    1  0.2061941E-008  0.3990877E+03  0.7818608E-02  0.1044096E+00
          2   -1    0    0  501    0  0.00000000000E+00  0.00000000000E+00  0.30952725031E+04  0.30952725031E+04  0.25500000000E-02 0. -1.
         -2   -1    0    0    0  501 -0.00000000000E+00 -0.00000000000E+00 -0.15428061161E+03  0.15428061163E+03  0.25500000000E-02 0.  1.
    8880022    1    1    2    0    0 -0.14605522244E+03 -0.33844824481E+03  0.14406067526E+03  0.42429291013E+03  0.15294330000E+03 0.  0.
    8880022    1    1    2    0    0  0.14605522244E+03  0.33844824481E+03  0.27969312163E+04  0.28252602046E+04  0.15294330000E+03 0.  0.
<mgrwt>
<rscale>  0 0.39908770E+03</rscale>
<asrwt>0</asrwt>
<pdfrwt beam="1">  1        2 0.47619575E+00 0.39908770E+03</pdfrwt>
<pdfrwt beam="2">  1       -2 0.23735480E-01 0.39908770E+03</pdfrwt>
<totfact> 0.27362671E+01</totfact>
</mgrwt>
</event>
<event>
 4    1  0.2061941E-008  0.1021016E+04  0.7818608E-02  0.9285791E-01
          2   -1    0    0  501    0  0.00000000000E+00  0.00000000000E+00  0.32274017916E+03  0.32274017917E+03  0.25500000000E-02 0. -1.
         -2   -1    0    0    0  501 -0.00000000000E+00 -0.00000000000E+00 -0.37827979408E+04  0.37827979408E+04  0.25500000000E-02 0.  1.
    8880022    1    1    2    0    0  0.77263442205E+03 -0.64970604943E+03 -0.25147024202E+04  0.27140747624E+04  0.15294330000E+03 0.  0.
    8880022    1    1    2    0    0 -0.77263442205E+03  0.64970604943E+03 -0.94535534139E+03  0.13914633575E+04  0.15294330000E+03 0.  0.
<mgrwt>
<rscale>  0 0.10210159E+04</rscale>
<asrwt>0</asrwt>
<pdfrwt beam="1">  1        2 0.49652338E-01 0.10210159E+04</pdfrwt>
<pdfrwt beam="2">  1       -2 0.58196888E+00 0.10210159E+04</pdfrwt>
<totfact> 0.60066699E-02</totfact>
</mgrwt>
</event>
<event>
 4    1  0.2061941E-008  0.5209707E+03  0.7818608E-02  0.1008446E+00
          2   -1    0    0  501    0  0.00000000000E+00  0.00000000000E+00  0.81137537109E+03  0.81137537109E+03  0.25500000000E-02 0. -1.
         -2   -1    0    0    0  501 -0.00000000000E+00 -0.00000000000E+00 -0.73193578873E+03  0.73193578873E+03  0.25500000000E-02 0.  1.
    8880022    1    1    2    0    0 -0.34355148615E+03  0.36054298311E+03  0.60833283819E+03  0.80092406715E+03  0.15294330000E+03 0.  0.
    8880022    1    1    2    0    0  0.34355148615E+03 -0.36054298311E+03 -0.52889325582E+03  0.74238709268E+03  0.15294330000E+03 0.  0.
<mgrwt>
<rscale>  0 0.52097075E+03</rscale>
<asrwt>0</asrwt>
<pdfrwt beam="1">  1        2 0.12482698E+00 0.52097075E+03</pdfrwt>
<pdfrwt beam="2">  1       -2 0.11260551E+00 0.52097075E+03</pdfrwt>
<totfact> 0.21856765E+01</totfact>
</mgrwt>
</event>
<event>
 4    1  0.2061941E-008  0.2395023E+03  0.7818608E-02  0.1120125E+00
         -2   -1    0    0    0  501 -0.00000000000E+00  0.00000000000E+00  0.15970944849E+03  0.15970944851E+03  0.25500000000E-02 0.  1.
          2   -1    0    0  501    0  0.00000000000E+00 -0.00000000000E+00 -0.23099048534E+04  0.23099048534E+04  0.25500000000E-02 0. -1.
    8880022    1    1    2    0    0  0.10921708469E+03  0.14846320618E+03  0.59657685601E+02  0.24682055758E+03  0.15294330000E+03 0.  0.
    8880022    1    1    2    0    0 -0.10921708469E+03 -0.14846320618E+03 -0.22098530905E+04  0.22227937443E+04  0.15294330000E+03 0.  0.
<mgrwt>
<rscale>  0 0.23950229E+03</rscale>
<asrwt>0</asrwt>
<pdfrwt beam="1">  1        2 0.35536995E+00 0.23950229E+03</pdfrwt>
<pdfrwt beam="2">  1       -2 0.24570686E-01 0.23950229E+03</pdfrwt>
<totfact> 0.76095010E+01</totfact>
</mgrwt>
</event>
<event>
 4    1  0.2061941E-008  0.4537657E+03  0.7818608E-02  0.1026605E+00
          2   -1    0    0  501    0  0.00000000000E+00  0.00000000000E+00  0.15035419904E+04  0.15035419904E+04  0.25500000000E-02 0. -1.
         -2   -1    0    0    0  501 -0.00000000000E+00 -0.00000000000E+00 -0.33531523344E+03  0.33531523345E+03  0.25500000000E-02 0.  1.
    8880022    1    1    2    0    0  0.38716225433E+03  0.18060189495E+03 -0.12306516971E+03  0.47015778697E+03  0.15294330000E+03 0.  0.
    8880022    1    1    2    0    0 -0.38716225433E+03 -0.18060189495E+03  0.12912919267E+04  0.13686994369E+04  0.15294330000E+03 0.  0.
<mgrwt>
<rscale>  0 0.45376570E+03</rscale>
<asrwt>0</asrwt>
<pdfrwt beam="1">  1        2 0.23131415E+00 0.45376570E+03</pdfrwt>
<pdfrwt beam="2">  1       -2 0.51586961E-01 0.45376570E+03</pdfrwt>
<totfact> 0.47724601E+01</totfact>
</mgrwt>
</event>
<event>
 4    1  0.2061941E-008  0.1634925E+04  0.7818608E-02  0.8799375E-01
         -2   -1    0    0    0  501 -0.00000000000E+00  0.00000000000E+00  0.12434815691E+04  0.12434815691E+04  0.25500000000E-02 0.  1.
          2   -1    0    0  501    0  0.00000000000E+00 -0.00000000000E+00 -0.28646478013E+04  0.28646478013E+04  0.25500000000E-02 0. -1.
    8880022    1    1    2    0    0 -0.16276739882E+04 -0.16269268202E+02  0.21565523641E+03  0.16490864547E+04  0.15294330000E+03 0.  0.
    8880022    1    1    2    0    0  0.16276739882E+04  0.16269268202E+02 -0.18368214686E+04  0.24590429158E+04  0.15294330000E+03 0.  0.
<mgrwt>
<rscale>  0 0.16349248E+04</rscale>
<asrwt>0</asrwt>
<pdfrwt beam="1">  1        2 0.44071505E+00 0.16349248E+04</pdfrwt>
<pdfrwt beam="2">  1       -2 0.19130486E+00 0.16349248E+04</pdfrwt>
<totfact> 0.29771146E-01</totfact>
</mgrwt>
</event>
<event>
 4    1  0.2061941E-008  0.3648977E+03  0.7818608E-02  0.1056661E+00
         -2   -1    0    0    0  501 -0.00000000000E+00  0.00000000000E+00  0.11458256081E+03  0.11458256084E+03  0.25500000000E-02 0.  1.
          2   -1    0    0  501    0  0.00000000000E+00 -0.00000000000E+00 -0.31864761456E+04  0.31864761456E+04  0.25500000000E-02 0. -1.
    8880022    1    1    2    0    0  0.32620539393E+03 -0.57867879840E+02 -0.28515327325E+04  0.28747850751E+04  0.15294330000E+03 0.  0.
    8880022    1    1    2    0    0 -0.32620539393E+03  0.57867879840E+02 -0.22036085233E+03  0.42627363137E+03  0.15294330000E+03 0.  0.
<mgrwt>
<rscale>  0 0.36489766E+03</rscale>
<asrwt>0</asrwt>
<pdfrwt beam="1">  1        2 0.49022703E+00 0.36489766E+03</pdfrwt>
<pdfrwt beam="2">  1       -2 0.17628089E-01 0.36489766E+03</pdfrwt>
<totfact> 0.40723322E+01</totfact>
</mgrwt>
</event>
<event>
 4    1  0.2061941E-008  0.6915283E+03  0.7818608E-02  0.9731831E-01
         -2   -1    0    0    0  501 -0.00000000000E+00  0.00000000000E+00  0.94971342368E+03  0.94971342369E+03  0.25500000000E-02 0.  1.
          2   -1    0    0  501    0  0.00000000000E+00 -0.00000000000E+00 -0.14261566117E+04  0.14261566117E+04  0.25500000000E-02 0. -1.
    8880022    1    1    2    0    0  0.40853196638E+03  0.53658310835E+03 -0.11937013831E+04  0.13795413893E+04  0.15294330000E+03 0.  0.
    8880022    1    1    2    0    0 -0.40853196638E+03 -0.53658310835E+03  0.71725819505E+03  0.99632864613E+03  0.15294330000E+03 0.  0.
<mgrwt>
<rscale>  0 0.69152835E+03</rscale>
<asrwt>0</asrwt>
<pdfrwt beam="1">  1        2 0.21940871E+00 0.69152835E+03</pdfrwt>
<pdfrwt beam="2">  1       -2 0.14610976E+00 0.69152835E+03</pdfrwt>
<totfact> 0.46445529E+00</totfact>
</mgrwt>
</event>
<event>
 4    1  0.2061941E-008  0.3111428E+03  0.7818608E-02  0.1079799E+00
          2   -1    0    0  501    0  0.00000000000E+00  0.00000000000E+00  0.15395158529E+04  0.15395158529E+04  0.25500000000E-02 0. -1.
         -2   -1    0    0    0  501 -0.00000000000E+00 -0.00000000000E+00 -0.14860915887E+03  0.14860915889E+03  0.25500000000E-02 0.  1.
    8880022    1    1    2    0    0  0.25307986967E+03  0.96792342421E+02  0.54379952210E+02  0.31585916197E+03  0.15294330000E+03 0.  0.
    8880022    1    1    2    0    0 -0.25307986967E+03 -0.96792342421E+02  0.13365267419E+04  0.13722658499E+04  0.15294330000E+03 0. -1.
<mgrwt>
<rscale>  0 0.31114278E+03</rscale>
<asrwt>0</asrwt>
<pdfrwt beam="1">  1        2 0.23684860E+00 0.31114278E+03</pdfrwt>
<pdfrwt beam="2">  1       -2 0.22862946E-01 0.31114278E+03</pdfrwt>
<totfact> 0.21651329E+02</totfact>
</mgrwt>
</event>
<event>
 4    1  0.2061941E-008  0.9061677E+03  0.7818608E-02  0.9417904E-01
          2   -1    0    0  501    0  0.00000000000E+00  0.00000000000E+00  0.86349841094E+03  0.86349841094E+03  0.25500000000E-02 0. -1.
         -2   -1    0    0    0  501 -0.00000000000E+00 -0.00000000000E+00 -0.19160577921E+04  0.19160577921E+04  0.25500000000E-02 0.  1.
    8880022    1    1    2    0    0  0.82919041174E+03  0.33195118953E+03 -0.15126274700E+04  0.17632872276E+04  0.15294330000E+03 0.  0.
    8880022    1    1    2    0    0 -0.82919041174E+03 -0.33195118953E+03  0.46006808878E+03  0.10162689755E+04  0.15294330000E+03 0.  0.
<mgrwt>
<rscale>  0 0.90616775E+03</rscale>
<asrwt>0</asrwt>
<pdfrwt beam="1">  1        2 0.13284591E+00 0.90616775E+03</pdfrwt>
<pdfrwt beam="2">  1       -2 0.29477812E+00 0.90616775E+03</pdfrwt>
<totfact> 0.10805029E+00</totfact>
</mgrwt>
</event>
<event>
 4    1  0.2061941E-008  0.7204389E+03  0.7818608E-02  0.9682904E-01
         -2   -1    0    0    0  501 -0.00000000000E+00  0.00000000000E+00  0.43867388740E+03  0.43867388741E+03  0.25500000000E-02 0.  1.
          2   -1    0    0  501    0  0.00000000000E+00 -0.00000000000E+00 -0.18252111686E+04  0.18252111686E+04  0.25500000000E-02 0. -1.
    8880022    1    1    2    0    0  0.28805179382E+03 -0.64239143767E+03 -0.13646113426E+04  0.15431125573E+04  0.15294330000E+03 0. -1.
    8880022    1    1    2    0    0 -0.28805179382E+03  0.64239143767E+03 -0.21925938598E+02  0.72077249872E+03  0.15294330000E+03 0.  0.
<mgrwt>
<rscale>  0 0.72043893E+03</rscale>
<asrwt>0</asrwt>
<pdfrwt beam="1">  1        2 0.28080171E+00 0.72043893E+03</pdfrwt>
<pdfrwt beam="2">  1       -2 0.67488291E-01 0.72043893E+03</pdfrwt>
<totfact> 0.17403115E+01</totfact>
</mgrwt>
</event>
<event>
 4    1  0.2061941E-008  0.2684672E+03  0.7818608E-02  0.1102160E+00
          2   -1    0    0  501    0  0.00000000000E+00  0.00000000000E+00  0.90459955622E+03  0.90459955622E+03  0.25500000000E-02 0. -1.
         -2   -1    0    0    0  501 -0.00000000000E+00 -0.00000000000E+00 -0.35123872909E+03  0.35123872910E+03  0.25500000000E-02 0.  1.
    8880022    1    1    2    0    0 -0.64614235447E+02  0.21096913043E+03  0.82880593940E+03  0.87120256635E+03  0.15294330000E+03 0.  0.
    8880022    1    1    2    0    0  0.64614235447E+02 -0.21096913043E+03 -0.27544511227E+03  0.38463571897E+03  0.15294330000E+03 0.  1.
<mgrwt>
<rscale>  0 0.26846718E+03</rscale>
<asrwt>0</asrwt>
<pdfrwt beam="1">  1        2 0.13916916E+00 0.26846718E+03</pdfrwt>
<pdfrwt beam="2">  1       -2 0.54036729E-01 0.26846718E+03</pdfrwt>
<totfact> 0.10034848E+02</totfact>
</mgrwt>
</event>
<event>
 4    1  0.2061941E-008  0.2736232E+03  0.7818608E-02  0.1099224E+00
          2   -1    0    0  501    0  0.00000000000E+00  0.00000000000E+00  0.11859104839E+04  0.11859104839E+04  0.25500000000E-02 0. -1.
         -2   -1    0    0    0  501 -0.00000000000E+00 -0.00000000000E+00 -0.18857128479E+03  0.18857128481E+03  0.25500000000E-02 0.  1.
    8880022    1    1    2    0    0 -0.15441568597E+03  0.16623412586E+03 -0.61844976617E+02  0.28052529801E+03  0.15294330000E+03 0.  0.
    8880022    1    1    2    0    0  0.15441568597E+03 -0.16623412586E+03  0.10591841757E+04  0.10939564707E+04  0.15294330000E+03 0. -1.
<mgrwt>
<rscale>  0 0.27362317E+03</rscale>
<asrwt>0</asrwt>
<pdfrwt beam="1">  1        2 0.18244777E+00 0.27362317E+03</pdfrwt>
<pdfrwt beam="2">  1       -2 0.29010966E-01 0.27362317E+03</pdfrwt>
<totfact> 0.22328625E+02</totfact>
</mgrwt>
</event>
<event>
 4    1  0.2061941E-008  0.8965945E+03  0.7818608E-02  0.9429848E-01
          2   -1    0    0  501    0  0.00000000000E+00  0.00000000000E+00  0.19498965881E+04  0.19498965881E+04  0.25500000000E-02 0. -1.
         -2   -1    0    0    0  501 -0.00000000000E+00 -0.00000000000E+00 -0.98964544936E+03  0.98964544936E+03  0.25500000000E-02 0.  1.
    8880022    1    1    2    0    0  0.26717424854E+03 -0.84208553552E+03  0.16027627523E+04  0.18364994477E+04  0.15294330000E+03 0.  0.
    8880022    1    1    2    0    0 -0.26717424854E+03  0.84208553552E+03 -0.64251161357E+03  0.11030425898E+04  0.15294330000E+03 0.  0.
<mgrwt>
<rscale>  0 0.89659455E+03</rscale>
<asrwt>0</asrwt>
<pdfrwt beam="1">  1        2 0.29998409E+00 0.89659455E+03</pdfrwt>
<pdfrwt beam="2">  1       -2 0.15225315E+00 0.89659455E+03</pdfrwt>
<totfact> 0.20758454E+00</totfact>
</mgrwt>
</event>
<event>
 4    1  0.2061941E-008  0.8722819E+03  0.7818608E-02  0.9460909E-01
         -2   -1    0    0    0  501 -0.00000000000E+00  0.00000000000E+00  0.10541921491E+04  0.10541921491E+04  0.25500000000E-02 0.  1.
          2   -1    0    0  501    0  0.00000000000E+00 -0.00000000000E+00 -0.15328342126E+04  0.15328342126E+04  0.25500000000E-02 0. -1.
    8880022    1    1    2    0    0  0.52078694275E+03 -0.68283596874E+03 -0.11802418405E+04  0.14675988741E+04  0.15294330000E+03 0.  0.
    8880022    1    1    2    0    0 -0.52078694275E+03  0.68283596874E+03  0.70159977709E+03  0.11194274877E+04  0.15294330000E+03 0.  0.
<mgrwt>
<rscale>  0 0.87228187E+03</rscale>
<asrwt>0</asrwt>
<pdfrwt beam="1">  1        2 0.23582065E+00 0.87228187E+03</pdfrwt>
<pdfrwt beam="2">  1       -2 0.16218341E+00 0.87228187E+03</pdfrwt>
<totfact> 0.29802552E+00</totfact>
</mgrwt>
</event>
<event>
 4    1  0.2061941E-008  0.7181750E+03  0.7818608E-02  0.9686646E-01
          2   -1    0    0  501    0  0.00000000000E+00  0.00000000000E+00  0.16506486580E+04  0.16506486580E+04  0.25500000000E-02 0. -1.
         -2   -1    0    0    0  501 -0.00000000000E+00 -0.00000000000E+00 -0.91916318760E+03  0.91916318760E+03  0.25500000000E-02 0.  1.
    8880022    1    1    2    0    0 -0.54440745870E+03  0.44272360657E+03 -0.67816039327E+03  0.98776355719E+03  0.15294330000E+03 0.  1.
    8880022    1    1    2    0    0  0.54440745870E+03 -0.44272360657E+03  0.14096458637E+04  0.15820482884E+04  0.15294330000E+03 0.  0.
<mgrwt>
<rscale>  0 0.71817500E+03</rscale>
<asrwt>0</asrwt>
<pdfrwt beam="1">  1        2 0.25394595E+00 0.71817500E+03</pdfrwt>
<pdfrwt beam="2">  1       -2 0.14140972E+00 0.71817500E+03</pdfrwt>
<totfact> 0.37821009E+00</totfact>
</mgrwt>
</event>
<event>
 4    1  0.2061941E-008  0.6335485E+03  0.7818608E-02  0.9838148E-01
         -2   -1    0    0    0  501 -0.00000000000E+00  0.00000000000E+00  0.21197416968E+04  0.21197416968E+04  0.25500000000E-02 0.  1.
          2   -1    0    0  501    0  0.00000000000E+00 -0.00000000000E+00 -0.18836235602E+04  0.18836235602E+04  0.25500000000E-02 0. -1.
    8880022    1    1    2    0    0  0.53929522193E+03 -0.29521641884E+03 -0.17803477591E+04  0.18897147580E+04  0.15294330000E+03 0.  0.
    8880022    1    1    2    0    0 -0.53929522193E+03  0.29521641884E+03  0.20164658957E+04  0.21136504990E+04  0.15294330000E+03 0.  0.
<mgrwt>
<rscale>  0 0.63354852E+03</rscale>
<asrwt>0</asrwt>
<pdfrwt beam="1">  1        2 0.28978824E+00 0.63354852E+03</pdfrwt>
<pdfrwt beam="2">  1       -2 0.32611410E+00 0.63354852E+03</pdfrwt>
<totfact> 0.18822613E-01</totfact>
</mgrwt>
</event>
<event>
 4    1  0.2061941E-008  0.2157226E+04  0.7818608E-02  0.8536445E-01
          2   -1    0    0  501    0  0.00000000000E+00  0.00000000000E+00  0.39500259073E+04  0.39500259073E+04  0.25500000000E-02 0. -1.
         -2   -1    0    0    0  501 -0.00000000000E+00 -0.00000000000E+00 -0.13799299074E+04  0.13799299074E+04  0.25500000000E-02 0.  1.
    8880022    1    1    2    0    0  0.31374326897E+03  0.21288019716E+04  0.23041811918E+04  0.31564022701E+04  0.15294330000E+03 0.  0.
    8880022    1    1    2    0    0 -0.31374326897E+03 -0.21288019716E+04  0.26591480819E+03  0.21735535446E+04  0.15294330000E+03 0.  0.
<mgrwt>
<rscale>  0 0.21572261E+04</rscale>
<asrwt>0</asrwt>
<pdfrwt beam="1">  1        2 0.60769627E+00 0.21572261E+04</pdfrwt>
<pdfrwt beam="2">  1       -2 0.21229692E+00 0.21572261E+04</pdfrwt>
<totfact> 0.36522979E-02</totfact>
</mgrwt>
</event>
<event>
 4    1  0.2061941E-008  0.8825241E+03  0.7818608E-02  0.9447695E-01
         -2   -1    0    0    0  501 -0.00000000000E+00  0.00000000000E+00  0.37601049024E+04  0.37601049024E+04  0.25500000000E-02 0.  1.
          2   -1    0    0  501    0  0.00000000000E+00 -0.00000000000E+00 -0.31311739833E+03  0.31311739834E+03  0.25500000000E-02 0. -1.
    8880022    1    1    2    0    0  0.39921399797E+03  0.77206556276E+03  0.29083665531E+04  0.30393164872E+04  0.15294330000E+03 0.  0.
    8880022    1    1    2    0    0 -0.39921399797E+03 -0.77206556276E+03  0.53862095097E+03  0.10339058135E+04  0.15294330000E+03 0.  0.
<mgrwt>
<rscale>  0 0.88252405E+03</rscale>
<asrwt>0</asrwt>
<pdfrwt beam="1">  1        2 0.48171911E-01 0.88252405E+03</pdfrwt>
<pdfrwt beam="2">  1       -2 0.57847764E+00 0.88252405E+03</pdfrwt>
<totfact> 0.65605145E-02</totfact>
</mgrwt>
</event>
<event>
 4    1  0.2061941E-008  0.7815210E+03  0.7818608E-02  0.9587157E-01
         -2   -1    0    0    0  501 -0.00000000000E+00  0.00000000000E+00  0.11164510698E+04  0.11164510698E+04  0.25500000000E-02 0.  1.
          2   -1    0    0  501    0  0.00000000000E+00 -0.00000000000E+00 -0.10845276491E+04  0.10845276491E+04  0.25500000000E-02 0. -1.
    8880022    1    1    2    0    0 -0.68968438523E+03 -0.33424382539E+03  0.79067015515E+03  0.11117258805E+04  0.15294330000E+03 0.  0.
    8880022    1    1    2    0    0  0.68968438523E+03  0.33424382539E+03 -0.75874673442E+03  0.10892528384E+04  0.15294330000E+03 0.  0.
<mgrwt>
<rscale>  0 0.78152104E+03</rscale>
<asrwt>0</asrwt>
<pdfrwt beam="1">  1        2 0.16685041E+00 0.78152104E+03</pdfrwt>
<pdfrwt beam="2">  1       -2 0.17176170E+00 0.78152104E+03</pdfrwt>
<totfact> 0.46913115E+00</totfact>
</mgrwt>
</event>
<event>
 4    1  0.2061941E-008  0.1315378E+04  0.7818608E-02  0.9017458E-01
          2   -1    0    0  501    0  0.00000000000E+00  0.00000000000E+00  0.17347851233E+04  0.17347851233E+04  0.25500000000E-02 0. -1.
         -2   -1    0    0    0  501 -0.00000000000E+00 -0.00000000000E+00 -0.13047765590E+04  0.13047765590E+04  0.25500000000E-02 0.  1.
    8880022    1    1    2    0    0  0.11529043603E+04  0.61452357006E+03 -0.52268046256E+03  0.14154201500E+04  0.15294330000E+03 0.  0.
    8880022    1    1    2    0    0 -0.11529043603E+04 -0.61452357006E+03  0.95268902680E+03  0.16241415323E+04  0.15294330000E+03 0.  0.
<mgrwt>
<rscale>  0 0.13153780E+04</rscale>
<asrwt>0</asrwt>
<pdfrwt beam="1">  1        2 0.26689002E+00 0.13153780E+04</pdfrwt>
<pdfrwt beam="2">  1       -2 0.20073485E+00 0.13153780E+04</pdfrwt>
<totfact> 0.11816896E+00</totfact>
</mgrwt>
</event>
<event>
 4    1  0.2061941E-008  0.7095688E+03  0.7818608E-02  0.9701007E-01
          2   -1    0    0  501    0  0.00000000000E+00  0.00000000000E+00  0.46933313267E+03  0.46933313268E+03  0.25500000000E-02 0. -1.
         -2   -1    0    0    0  501 -0.00000000000E+00 -0.00000000000E+00 -0.22311299445E+04  0.22311299445E+04  0.25500000000E-02 0.  1.
    8880022    1    1    2    0    0 -0.53014128926E+03 -0.44614619371E+03 -0.18537957943E+04  0.19849550908E+04  0.15294330000E+03 0.  0.
    8880022    1    1    2    0    0  0.53014128926E+03  0.44614619371E+03  0.91998982444E+02  0.71550798635E+03  0.15294330000E+03 0.  0.
<mgrwt>
<rscale>  0 0.70956879E+03</rscale>
<asrwt>0</asrwt>
<pdfrwt beam="1">  1        2 0.72205099E-01 0.70956879E+03</pdfrwt>
<pdfrwt beam="2">  1       -2 0.34325075E+00 0.70956879E+03</pdfrwt>
<totfact> 0.12048391E+00</totfact>
</mgrwt>
</event>
<event>
 4    1  0.2061941E-008  0.1446242E+04  0.7818608E-02  0.8921010E-01
         -2   -1    0    0    0  501 -0.00000000000E+00  0.00000000000E+00  0.23427066668E+04  0.23427066668E+04  0.25500000000E-02 0.  1.
          2   -1    0    0  501    0  0.00000000000E+00 -0.00000000000E+00 -0.31368754239E+04  0.31368754239E+04  0.25500000000E-02 0. -1.
    8880022    1    1    2    0    0  0.66302626811E+03 -0.12761735793E+04  0.19202336037E+04  0.24039366844E+04  0.15294330000E+03 0.  0.
    8880022    1    1    2    0    0 -0.66302626811E+03  0.12761735793E+04 -0.27144023608E+04  0.30756454064E+04  0.15294330000E+03 0.  0.
<mgrwt>
<rscale>  0 0.14462415E+04</rscale>
<asrwt>0</asrwt>
<pdfrwt beam="1">  1        2 0.48259622E+00 0.14462415E+04</pdfrwt>
<pdfrwt beam="2">  1       -2 0.36041641E+00 0.14462415E+04</pdfrwt>
<totfact> 0.18137722E-02</totfact>
</mgrwt>
</event>
<event>
 4    1  0.2061941E-008  0.1065519E+04  0.7818608E-02  0.9239467E-01
          2   -1    0    0  501    0  0.00000000000E+00  0.00000000000E+00  0.16523636203E+04  0.16523636203E+04  0.25500000000E-02 0. -1.
         -2   -1    0    0    0  501 -0.00000000000E+00 -0.00000000000E+00 -0.11095734504E+04  0.11095734504E+04  0.25500000000E-02 0.  1.
    8880022    1    1    2    0    0 -0.36881562003E+03 -0.98788383092E+03  0.11235291830E+04  0.15484343393E+04  0.15294330000E+03 0.  0.
    8880022    1    1    2    0    0  0.36881562003E+03  0.98788383092E+03 -0.58073901312E+03  0.12135027315E+04  0.15294330000E+03 0.  0.
<mgrwt>
<rscale>  0 0.10655192E+04</rscale>
<asrwt>0</asrwt>
<pdfrwt beam="1">  1        2 0.25420979E+00 0.10655192E+04</pdfrwt>
<pdfrwt beam="2">  1       -2 0.17070361E+00 0.10655192E+04</pdfrwt>
<totfact> 0.21649999E+00</totfact>
</mgrwt>
</event>
<event>
 4    1  0.2061941E-008  0.7859394E+03  0.7818608E-02  0.9580595E-01
          2   -1    0    0  501    0  0.00000000000E+00  0.00000000000E+00  0.18119035416E+04  0.18119035416E+04  0.25500000000E-02 0. -1.
         -2   -1    0    0    0  501 -0.00000000000E+00 -0.00000000000E+00 -0.39181778797E+03  0.39181778798E+03  0.25500000000E-02 0.  1.
    8880022    1    1    2    0    0 -0.14956596075E+03  0.75626659902E+03  0.11072028820E+04  0.13577919650E+04  0.15294330000E+03 0.  0.
    8880022    1    1    2    0    0  0.14956596075E+03 -0.75626659902E+03  0.31288287165E+03  0.84592936455E+03  0.15294330000E+03 0.  0.
<mgrwt>
<rscale>  0 0.78593944E+03</rscale>
<asrwt>0</asrwt>
<pdfrwt beam="1">  1        2 0.27875439E+00 0.78593944E+03</pdfrwt>
<pdfrwt beam="2">  1       -2 0.60279660E-01 0.78593944E+03</pdfrwt>
<totfact> 0.22340862E+01</totfact>
</mgrwt>
</event>
<event>
 4    1  0.2061941E-008  0.1128671E+04  0.7818608E-02  0.9177689E-01
          2   -1    0    0  501    0  0.00000000000E+00  0.00000000000E+00  0.35385964316E+04  0.35385964316E+04  0.25500000000E-02 0. -1.
         -2   -1    0    0    0  501 -0.00000000000E+00 -0.00000000000E+00 -0.41866347258E+03  0.41866347259E+03  0.25500000000E-02 0.  1.
    8880022    1    1    2    0    0 -0.38564134855E+03 -0.10496605262E+04  0.23006153459E+04  0.25625629929E+04  0.15294330000E+03 0.  0.
    8880022    1    1    2    0    0  0.38564134855E+03  0.10496605262E+04  0.81931761318E+03  0.13946969113E+04  0.15294330000E+03 0.  0.
<mgrwt>
<rscale>  0 0.11286710E+04</rscale>
<asrwt>0</asrwt>
<pdfrwt beam="1">  1        2 0.54439943E+00 0.11286710E+04</pdfrwt>
<pdfrwt beam="2">  1       -2 0.64409768E-01 0.11286710E+04</pdfrwt>
<totfact> 0.17291970E+00</totfact>
</mgrwt>
</event>
<event>
 4    1  0.2061941E-008  0.1488113E+04  0.7818608E-02  0.8892396E-01
         -2   -1    0    0    0  501 -0.00000000000E+00  0.00000000000E+00  0.84167984971E+03  0.84167984972E+03  0.25500000000E-02 0.  1.
          2   -1    0    0  501    0  0.00000000000E+00 -0.00000000000E+00 -0.27985851198E+04  0.27985851198E+04  0.25500000000E-02 0. -1.
    8880022    1    1    2    0    0  0.11522178910E+03  0.14757415554E+04 -0.14238205008E+04  0.20595498709E+04  0.15294330000E+03 0.  0.
    8880022    1    1    2    0    0 -0.11522178910E+03 -0.14757415554E+04 -0.53308476929E+03  0.15807150987E+04  0.15294330000E+03 0.  0.
<mgrwt>
<rscale>  0 0.14881132E+04</rscale>
<asrwt>0</asrwt>
<pdfrwt beam="1">  1        2 0.43055155E+00 0.14881132E+04</pdfrwt>
<pdfrwt beam="2">  1       -2 0.12948921E+00 0.14881132E+04</pdfrwt>
<totfact> 0.96624702E-01</totfact>
</mgrwt>
</event>
<event>
 4    1  0.2061941E-008  0.6684458E+03  0.7818608E-02  0.9772770E-01
         -2   -1    0    0    0  501 -0.00000000000E+00  0.00000000000E+00  0.18999822417E+04  0.18999822417E+04  0.25500000000E-02 0.  1.
          2   -1    0    0  501    0  0.00000000000E+00 -0.00000000000E+00 -0.14338210454E+04  0.14338210454E+04  0.25500000000E-02 0. -1.
    8880022    1    1    2    0    0 -0.53033669192E+02  0.64854879128E+03 -0.12910030189E+04  0.14537910966E+04  0.15294330000E+03 0.  0.
    8880022    1    1    2    0    0  0.53033669192E+02 -0.64854879128E+03  0.17571642151E+04  0.18800121906E+04  0.15294330000E+03 0.  0.
<mgrwt>
<rscale>  0 0.66844578E+03</rscale>
<asrwt>0</asrwt>
<pdfrwt beam="1">  1        2 0.22058785E+00 0.66844578E+03</pdfrwt>
<pdfrwt beam="2">  1       -2 0.29230496E+00 0.66844578E+03</pdfrwt>
<totfact> 0.52533961E-01</totfact>
</mgrwt>
</event>
<event>
 4    1  0.2061941E-008  0.2728701E+03  0.7818608E-02  0.1099648E+00
         -2   -1    0    0    0  501 -0.00000000000E+00  0.00000000000E+00  0.12257878132E+04  0.12257878132E+04  0.25500000000E-02 0.  1.
          2   -1    0    0  501    0  0.00000000000E+00 -0.00000000000E+00 -0.50582688536E+03  0.50582688537E+03  0.25500000000E-02 0. -1.
    8880022    1    1    2    0    0  0.15024414521E+03 -0.16879910043E+03  0.11721397672E+04  0.12034823332E+04  0.15294330000E+03 0.  0.
    8880022    1    1    2    0    0 -0.15024414521E+03  0.16879910043E+03 -0.45217883941E+03  0.52813236532E+03  0.15294330000E+03 0. -1.
<mgrwt>
<rscale>  0 0.27287010E+03</rscale>
<asrwt>0</asrwt>
<pdfrwt beam="1">  1        2 0.77819521E-01 0.27287010E+03</pdfrwt>
<pdfrwt beam="2">  1       -2 0.18858274E+00 0.27287010E+03</pdfrwt>
<totfact> 0.10618556E+01</totfact>
</mgrwt>
</event>
<event>
 4    1  0.2061941E-008  0.1318530E+04  0.7818608E-02  0.9014999E-01
          2   -1    0    0  501    0  0.00000000000E+00  0.00000000000E+00  0.38866406244E+04  0.38866406244E+04  0.25500000000E-02 0. -1.
         -2   -1    0    0    0  501 -0.00000000000E+00 -0.00000000000E+00 -0.93722276594E+03  0.93722276594E+03  0.25500000000E-02 0.  1.
    8880022    1    1    2    0    0 -0.13060976525E+04  0.96114143921E+02 -0.26912209627E+03  0.13457144430E+04  0.15294330000E+03 0.  0.
    8880022    1    1    2    0    0  0.13060976525E+04 -0.96114143921E+02  0.32185399547E+04  0.34781489473E+04  0.15294330000E+03 0.  0.
<mgrwt>
<rscale>  0 0.13185297E+04</rscale>
<asrwt>0</asrwt>
<pdfrwt beam="1">  1        2 0.59794471E+00 0.13185297E+04</pdfrwt>
<pdfrwt beam="2">  1       -2 0.14418812E+00 0.13185297E+04</pdfrwt>
<totfact> 0.13802408E-01</totfact>
</mgrwt>
</event>
<event>
 4    1  0.2061941E-008  0.4148946E+03  0.7818608E-02  0.1038741E+00
         -2   -1    0    0    0  501 -0.00000000000E+00  0.00000000000E+00  0.49383052258E+03  0.49383052259E+03  0.25500000000E-02 0.  1.
          2   -1    0    0  501    0  0.00000000000E+00 -0.00000000000E+00 -0.97662955344E+03  0.97662955345E+03  0.25500000000E-02 0. -1.
    8880022    1    1    2    0    0 -0.27951620226E+03  0.26573780449E+03 -0.83099832562E+03  0.92881416777E+03  0.15294330000E+03 0.  0.
    8880022    1    1    2    0    0  0.27951620226E+03 -0.26573780449E+03  0.34819929475E+03  0.54164590826E+03  0.15294330000E+03 0.  0.
<mgrwt>
<rscale>  0 0.41489461E+03</rscale>
<asrwt>0</asrwt>
<pdfrwt beam="1">  1        2 0.15025070E+00 0.41489461E+03</pdfrwt>
<pdfrwt beam="2">  1       -2 0.75973927E-01 0.41489461E+03</pdfrwt>
<totfact> 0.42767595E+01</totfact>
</mgrwt>
</event>
<event>
 4    1  0.2061941E-008  0.1561336E+04  0.7818608E-02  0.8844659E-01
          2   -1    0    0  501    0  0.00000000000E+00  0.00000000000E+00  0.30115637718E+04  0.30115637718E+04  0.25500000000E-02 0. -1.
         -2   -1    0    0    0  501 -0.00000000000E+00 -0.00000000000E+00 -0.91539054916E+03  0.91539054916E+03  0.25500000000E-02 0.  1.
    8880022    1    1    2    0    0  0.15203724343E+04  0.32069715734E+03  0.17159884877E+04  0.23199972303E+04  0.15294330000E+03 0.  0.
    8880022    1    1    2    0    0 -0.15203724343E+04 -0.32069715734E+03  0.38018473501E+03  0.16069570907E+04  0.15294330000E+03 0.  0.
<mgrwt>
<rscale>  0 0.15613362E+04</rscale>
<asrwt>0</asrwt>
<pdfrwt beam="1">  1        2 0.46331751E+00 0.15613362E+04</pdfrwt>
<pdfrwt beam="2">  1       -2 0.14082931E+00 0.15613362E+04</pdfrwt>
<totfact> 0.57098739E-01</totfact>
</mgrwt>
</event>
<event>
 4    1  0.2061941E-008  0.1106593E+04  0.7818608E-02  0.9198790E-01
         -2   -1    0    0    0  501 -0.00000000000E+00  0.00000000000E+00  0.61539944615E+03  0.61539944615E+03  0.25500000000E-02 0.  1.
          2   -1    0    0  501    0  0.00000000000E+00 -0.00000000000E+00 -0.34263626107E+04  0.34263626107E+04  0.25500000000E-02 0. -1.
    8880022    1    1    2    0    0 -0.10327141455E+04  0.36695662928E+03 -0.27140007820E+04  0.29309294724E+04  0.15294330000E+03 0.  0.
    8880022    1    1    2    0    0  0.10327141455E+04 -0.36695662928E+03 -0.96962382468E+02  0.11108325844E+04  0.15294330000E+03 0.  0.
<mgrwt>
<rscale>  0 0.11065927E+04</rscale>
<asrwt>0</asrwt>
<pdfrwt beam="1">  1        2 0.52713270E+00 0.11065927E+04</pdfrwt>
<pdfrwt beam="2">  1       -2 0.94676840E-01 0.11065927E+04</pdfrwt>
<totfact> 0.87094038E-01</totfact>
</mgrwt>
</event>
<event>
 4    1  0.2061941E-008  0.1973014E+04  0.7818608E-02  0.8619342E-01
         -2   -1    0    0    0  501 -0.00000000000E+00  0.00000000000E+00  0.10947955314E+04  0.10947955314E+04  0.25500000000E-02 0.  1.
          2   -1    0    0  501    0  0.00000000000E+00 -0.00000000000E+00 -0.39739052006E+04  0.39739052006E+04  0.25500000000E-02 0. -1.
    8880022    1    1    2    0    0 -0.10623202382E+04 -0.16555570910E+04 -0.61742052007E+03  0.20673638581E+04  0.15294330000E+03 0.  0.
    8880022    1    1    2    0    0  0.10623202382E+04  0.16555570910E+04 -0.22616891492E+04  0.30013368739E+04  0.15294330000E+03 0.  0.
<mgrwt>
<rscale>  0 0.19730142E+04</rscale>
<asrwt>0</asrwt>
<pdfrwt beam="1">  1        2 0.61137003E+00 0.19730142E+04</pdfrwt>
<pdfrwt beam="2">  1       -2 0.16843008E+00 0.19730142E+04</pdfrwt>
<totfact> 0.71000616E-02</totfact>
</mgrwt>
</event>
<event>
 4    1  0.2061941E-008  0.6481957E+03  0.7818608E-02  0.9810171E-01
         -2   -1    0    0    0  501 -0.00000000000E+00  0.00000000000E+00  0.13483364541E+04  0.13483364541E+04  0.25500000000E-02 0.  1.
          2   -1    0    0  501    0  0.00000000000E+00 -0.00000000000E+00 -0.20434269989E+04  0.20434269989E+04  0.25500000000E-02 0. -1.
    8880022    1    1    2    0    0  0.37700458978E+03  0.50461227570E+03 -0.19087748120E+04  0.20158320728E+04  0.15294330000E+03 0.  0.
    8880022    1    1    2    0    0 -0.37700458978E+03 -0.50461227570E+03  0.12136842673E+04  0.13759313803E+04  0.15294330000E+03 0.  0.
<mgrwt>
<rscale>  0 0.64819570E+03</rscale>
<asrwt>0</asrwt>
<pdfrwt beam="1">  1        2 0.31437339E+00 0.64819570E+03</pdfrwt>
<pdfrwt beam="2">  1       -2 0.20743638E+00 0.64819570E+03</pdfrwt>
<totfact> 0.80506856E-01</totfact>
</mgrwt>
</event>
<event>
 4    1  0.2061941E-008  0.6302869E+03  0.7818608E-02  0.9844489E-01
         -2   -1    0    0    0  501 -0.00000000000E+00  0.00000000000E+00  0.56290910278E+03  0.56290910279E+03  0.25500000000E-02 0.  1.
          2   -1    0    0  501    0  0.00000000000E+00 -0.00000000000E+00 -0.12992688098E+04  0.12992688098E+04  0.25500000000E-02 0. -1.
    8880022    1    1    2    0    0 -0.46766157179E+03 -0.39390677434E+03 -0.99749244569E+03  0.11799375936E+04  0.15294330000E+03 0.  0.
    8880022    1    1    2    0    0  0.46766157179E+03  0.39390677434E+03  0.26113273868E+03  0.68224031897E+03  0.15294330000E+03 0.  0.
<mgrwt>
<rscale>  0 0.63028688E+03</rscale>
<asrwt>0</asrwt>
<pdfrwt beam="1">  1        2 0.19988751E+00 0.63028688E+03</pdfrwt>
<pdfrwt beam="2">  1       -2 0.86601401E-01 0.63028688E+03</pdfrwt>
<totfact> 0.19797889E+01</totfact>
</mgrwt>
</event>
<event>
 4    1  0.2061941E-008  0.2277941E+03  0.7818608E-02  0.1128202E+00
         -2   -1    0    0    0  501 -0.00000000000E+00  0.00000000000E+00  0.47801208347E+03  0.47801208348E+03  0.25500000000E-02 0.  1.
          2   -1    0    0  501    0  0.00000000000E+00 -0.00000000000E+00 -0.67188729025E+03  0.67188729026E+03  0.25500000000E-02 0. -1.
    8880022    1    1    2    0    0  0.14260103663E+03  0.90351818787E+02  0.42952109790E+03  0.48618775525E+03  0.15294330000E+03 0.  0.
    8880022    1    1    2    0    0 -0.14260103663E+03 -0.90351818787E+02 -0.62339630468E+03  0.66371161848E+03  0.15294330000E+03 0. -1.
<mgrwt>
<rscale>  0 0.22779412E+03</rscale>
<asrwt>0</asrwt>
<pdfrwt beam="1">  1        2 0.10336728E+00 0.22779412E+03</pdfrwt>
<pdfrwt beam="2">  1       -2 0.73540320E-01 0.22779412E+03</pdfrwt>
<totfact> 0.77180596E+01</totfact>
</mgrwt>
</event>
<event>
 4    1  0.2061941E-008  0.7471555E+03  0.7818608E-02  0.9639824E-01
         -2   -1    0    0    0  501 -0.00000000000E+00  0.00000000000E+00  0.62373443835E+03  0.62373443836E+03  0.25500000000E-02 0.  1.
          2   -1    0    0  501    0  0.00000000000E+00 -0.00000000000E+00 -0.19112983128E+04  0.19112983128E+04  0.25500000000E-02 0. -1.
    8880022    1    1    2    0    0 -0.70736891962E+03 -0.18568477987E+03 -0.15680550092E+04  0.17369622307E+04  0.15294330000E+03 0.  0.
    8880022    1    1    2    0    0  0.70736891962E+03  0.18568477987E+03  0.28049113478E+03  0.79807052046E+03  0.15294330000E+03 0.  0.
<mgrwt>
<rscale>  0 0.74715546E+03</rscale>
<asrwt>0</asrwt>
<pdfrwt beam="1">  1        2 0.29404589E+00 0.74715546E+03</pdfrwt>
<pdfrwt beam="2">  1       -2 0.95959145E-01 0.74715546E+03</pdfrwt>
<totfact> 0.70457230E+00</totfact>
</mgrwt>
</event>
<event>
 4    1  0.2061941E-008  0.6838946E+03  0.7818608E-02  0.9745178E-01
          2   -1    0    0  501    0  0.00000000000E+00  0.00000000000E+00  0.70136698864E+03  0.70136698865E+03  0.25500000000E-02 0. -1.
         -2   -1    0    0    0  501 -0.00000000000E+00 -0.00000000000E+00 -0.18518454272E+04  0.18518454272E+04  0.25500000000E-02 0.  1.
    8880022    1    1    2    0    0  0.66583721421E+03  0.31320156653E+02  0.44596254731E+03  0.81645232234E+03  0.15294330000E+03 0.  0.
    8880022    1    1    2    0    0 -0.66583721421E+03 -0.31320156653E+02 -0.15964409859E+04  0.17367600936E+04  0.15294330000E+03 0.  0.
<mgrwt>
<rscale>  0 0.68389458E+03</rscale>
<asrwt>0</asrwt>
<pdfrwt beam="1">  1        2 0.10790261E+00 0.68389458E+03</pdfrwt>
<pdfrwt beam="2">  1       -2 0.28489929E+00 0.68389458E+03</pdfrwt>
<totfact> 0.16892124E+00</totfact>
</mgrwt>
</event>
<event>
 4    1  0.2061941E-008  0.6461877E+03  0.7818608E-02  0.9813959E-01
          2   -1    0    0  501    0  0.00000000000E+00  0.00000000000E+00  0.16090982720E+04  0.16090982720E+04  0.25500000000E-02 0. -1.
         -2   -1    0    0    0  501 -0.00000000000E+00 -0.00000000000E+00 -0.82878834471E+03  0.82878834472E+03  0.25500000000E-02 0.  1.
    8880022    1    1    2    0    0 -0.45392506306E+03 -0.43372679915E+03 -0.62009400772E+03  0.89558647298E+03  0.15294330000E+03 0.  0.
    8880022    1    1    2    0    0  0.45392506306E+03  0.43372679915E+03  0.14004039350E+04  0.15423001437E+04  0.15294330000E+03 0. -1.
<mgrwt>
<rscale>  0 0.64618771E+03</rscale>
<asrwt>0</asrwt>
<pdfrwt beam="1">  1        2 0.24755358E+00 0.64618771E+03</pdfrwt>
<pdfrwt beam="2">  1       -2 0.12750590E+00 0.64618771E+03</pdfrwt>
<totfact> 0.52553625E+00</totfact>
</mgrwt>
</event>
<event>
 4    1  0.2061941E-008  0.9448697E+03  0.7818608E-02  0.9371167E-01
         -2   -1    0    0    0  501 -0.00000000000E+00  0.00000000000E+00  0.81242547895E+03  0.81242547896E+03  0.25500000000E-02 0.  1.
          2   -1    0    0  501    0  0.00000000000E+00 -0.00000000000E+00 -0.30941854708E+04  0.30941854708E+04  0.25500000000E-02 0. -1.
    8880022    1    1    2    0    0  0.90082727882E+03 -0.24061852328E+03  0.42767204762E+03  0.10371509501E+04  0.15294330000E+03 0.  0.
    8880022    1    1    2    0    0 -0.90082727882E+03  0.24061852328E+03 -0.27094320394E+04  0.28694599996E+04  0.15294330000E+03 0.  0.
<mgrwt>
<rscale>  0 0.94486968E+03</rscale>
<asrwt>0</asrwt>
<pdfrwt beam="1">  1        2 0.47602853E+00 0.94486968E+03</pdfrwt>
<pdfrwt beam="2">  1       -2 0.12498854E+00 0.94486968E+03</pdfrwt>
<totfact> 0.74985950E-01</totfact>
</mgrwt>
</event>
<event>
 4    1  0.2061941E-008  0.4081883E+03  0.7818608E-02  0.1040981E+00
          2   -1    0    0  501    0  0.00000000000E+00  0.00000000000E+00  0.28323763612E+04  0.28323763612E+04  0.25500000000E-02 0. -1.
         -2   -1    0    0    0  501 -0.00000000000E+00 -0.00000000000E+00 -0.81968871190E+02  0.81968871230E+02  0.25500000000E-02 0.  1.
    8880022    1    1    2    0    0 -0.35863490234E+03 -0.12085952544E+03  0.60093067940E+03  0.72645395761E+03  0.15294330000E+03 0.  0.
    8880022    1    1    2    0    0  0.35863490234E+03  0.12085952544E+03  0.21494768106E+04  0.21878912748E+04  0.15294330000E+03 0.  0.
<mgrwt>
<rscale>  0 0.40818828E+03</rscale>
<asrwt>0</asrwt>
<pdfrwt beam="1">  1        2 0.43575019E+00 0.40818828E+03</pdfrwt>
<pdfrwt beam="2">  1       -2 0.12610596E-01 0.40818828E+03</pdfrwt>
<totfact> 0.11495375E+02</totfact>
</mgrwt>
</event>
<event>
 4    1  0.2061941E-008  0.1015799E+04  0.7818608E-02  0.9291384E-01
          2   -1    0    0  501    0  0.00000000000E+00  0.00000000000E+00  0.26082344731E+04  0.26082344731E+04  0.25500000000E-02 0. -1.
         -2   -1    0    0    0  501 -0.00000000000E+00 -0.00000000000E+00 -0.74450713625E+03  0.74450713625E+03  0.25500000000E-02 0.  1.
    8880022    1    1    2    0    0 -0.10888333700E+03  0.99829886908E+03  0.20794446709E+04  0.23142899570E+04  0.15294330000E+03 0.  0.
    8880022    1    1    2    0    0  0.10888333700E+03 -0.99829886908E+03 -0.21571733397E+03  0.10384516523E+04  0.15294330000E+03 0.  0.
<mgrwt>
<rscale>  0 0.10157991E+04</rscale>
<asrwt>0</asrwt>
<pdfrwt beam="1">  1        2 0.40126684E+00 0.10157991E+04</pdfrwt>
<pdfrwt beam="2">  1       -2 0.11453956E+00 0.10157991E+04</pdfrwt>
<totfact> 0.18050435E+00</totfact>
</mgrwt>
</event>
<event>
 4    1  0.2061941E-008  0.1193207E+04  0.7818608E-02  0.9118823E-01
         -2   -1    0    0    0  501 -0.00000000000E+00  0.00000000000E+00  0.31529924830E+04  0.31529924830E+04  0.25500000000E-02 0.  1.
          2   -1    0    0  501    0  0.00000000000E+00 -0.00000000000E+00 -0.67930007301E+03  0.67930007302E+03  0.25500000000E-02 0. -1.
    8880022    1    1    2    0    0  0.94509915512E+03  0.71213714836E+03  0.12735419214E+03  0.11999843642E+04  0.15294330000E+03 0.  0.
    8880022    1    1    2    0    0 -0.94509915512E+03 -0.71213714836E+03  0.23463382178E+04  0.26323081918E+04  0.15294330000E+03 0.  0.
<mgrwt>
<rscale>  0 0.11932072E+04</rscale>
<asrwt>0</asrwt>
<pdfrwt beam="1">  1        2 0.10450770E+00 0.11932072E+04</pdfrwt>
<pdfrwt beam="2">  1       -2 0.48507578E+00 0.11932072E+04</pdfrwt>
<totfact> 0.85966102E-02</totfact>
</mgrwt>
</event>
<event>
 4    1  0.2061941E-008  0.7762929E+03  0.7818608E-02  0.9594981E-01
          2   -1    0    0  501    0  0.00000000000E+00  0.00000000000E+00  0.22589974774E+04  0.22589974774E+04  0.25500000000E-02 0. -1.
         -2   -1    0    0    0  501 -0.00000000000E+00 -0.00000000000E+00 -0.46089680845E+03  0.46089680845E+03  0.25500000000E-02 0.  1.
    8880022    1    1    2    0    0  0.33353169271E+03 -0.68410209134E+03  0.16450285334E+02  0.77646720879E+03  0.15294330000E+03 0.  0.
    8880022    1    1    2    0    0 -0.33353169271E+03  0.68410209134E+03  0.17816503836E+04  0.19434270770E+04  0.15294330000E+03 0.  0.
<mgrwt>
<rscale>  0 0.77629293E+03</rscale>
<asrwt>0</asrwt>
<pdfrwt beam="1">  1        2 0.34753807E+00 0.77629293E+03</pdfrwt>
<pdfrwt beam="2">  1       -2 0.70907201E-01 0.77629293E+03</pdfrwt>
<totfact> 0.89706220E+00</totfact>
</mgrwt>
</event>
<event>
 4    1  0.2061941E-008  0.7452718E+03  0.7818608E-02  0.9642797E-01
         -2   -1    0    0    0  501 -0.00000000000E+00  0.00000000000E+00  0.37920956920E+03  0.37920956921E+03  0.25500000000E-02 0.  1.
          2   -1    0    0  501    0  0.00000000000E+00 -0.00000000000E+00 -0.22122014252E+04  0.22122014252E+04  0.25500000000E-02 0. -1.
    8880022    1    1    2    0    0 -0.47330494895E+03 -0.55499626699E+03 -0.16696755817E+04  0.18284547116E+04  0.15294330000E+03 0.  0.
    8880022    1    1    2    0    0  0.47330494895E+03  0.55499626699E+03 -0.16331627430E+03  0.76295628285E+03  0.15294330000E+03 0.  0.
<mgrwt>
<rscale>  0 0.74527182E+03</rscale>
<asrwt>0</asrwt>
<pdfrwt beam="1">  1        2 0.34033867E+00 0.74527182E+03</pdfrwt>
<pdfrwt beam="2">  1       -2 0.58339935E-01 0.74527182E+03</pdfrwt>
<totfact> 0.14534854E+01</totfact>
</mgrwt>
</event>
<event>
 4    1  0.2061941E-008  0.5837461E+03  0.7818608E-02  0.9939714E-01
         -2   -1    0    0    0  501 -0.00000000000E+00  0.00000000000E+00  0.23611679479E+03  0.23611679480E+03  0.25500000000E-02 0.  1.
          2   -1    0    0  501    0  0.00000000000E+00 -0.00000000000E+00 -0.44690492245E+04  0.44690492245E+04  0.25500000000E-02 0. -1.
    8880022    1    1    2    0    0 -0.39425494792E+03 -0.40240638230E+03 -0.18065804204E+03  0.61106206039E+03  0.15294330000E+03 0.  0.
    8880022    1    1    2    0    0  0.39425494792E+03  0.40240638230E+03 -0.40522743877E+04  0.40941039590E+04  0.15294330000E+03 0.  0.
<mgrwt>
<rscale>  0 0.58374610E+03</rscale>
<asrwt>0</asrwt>
<pdfrwt beam="1">  1        2 0.68754597E+00 0.58374610E+03</pdfrwt>
<pdfrwt beam="2">  1       -2 0.36325664E-01 0.58374610E+03</pdfrwt>
<totfact> 0.11237498E+00</totfact>
</mgrwt>
</event>
<event>
 4    1  0.2061941E-008  0.1325164E+04  0.7818608E-02  0.9009844E-01
          2   -1    0    0  501    0  0.00000000000E+00  0.00000000000E+00  0.44727126679E+04  0.44727126679E+04  0.25500000000E-02 0. -1.
         -2   -1    0    0    0  501 -0.00000000000E+00 -0.00000000000E+00 -0.63655451037E+03  0.63655451038E+03  0.25500000000E-02 0.  1.
    8880022    1    1    2    0    0 -0.97507086687E+03  0.88425452054E+03  0.34995111229E+04  0.37420100220E+04  0.15294330000E+03 0.  0.
    8880022    1    1    2    0    0  0.97507086687E+03 -0.88425452054E+03  0.33664703467E+03  0.13672571563E+04  0.15294330000E+03 0.  0.
<mgrwt>
<rscale>  0 0.13251645E+04</rscale>
<asrwt>0</asrwt>
<pdfrwt beam="1">  1        2 0.68810965E+00 0.13251645E+04</pdfrwt>
<pdfrwt beam="2">  1       -2 0.97931462E-01 0.13251645E+04</pdfrwt>
<totfact> 0.11434519E-01</totfact>
</mgrwt>
</event>
<event>
 4    1  0.2061941E-008  0.6137373E+03  0.7818608E-02  0.9877308E-01
          2   -1    0    0  501    0  0.00000000000E+00  0.00000000000E+00  0.14208846471E+04  0.14208846471E+04  0.25500000000E-02 0. -1.
         -2   -1    0    0    0  501 -0.00000000000E+00 -0.00000000000E+00 -0.60014459888E+03  0.60014459888E+03  0.25500000000E-02 0.  1.
    8880022    1    1    2    0    0 -0.79627457492E+02 -0.58901722382E+03  0.11654054883E+04  0.13171345517E+04  0.15294330000E+03 0. -1.
    8880022    1    1    2    0    0  0.79627457492E+02  0.58901722382E+03 -0.34466544017E+03  0.70389469426E+03  0.15294330000E+03 0.  0.
<mgrwt>
<rscale>  0 0.61373730E+03</rscale>
<asrwt>0</asrwt>
<pdfrwt beam="1">  1        2 0.21859764E+00 0.61373730E+03</pdfrwt>
<pdfrwt beam="2">  1       -2 0.92329939E-01 0.61373730E+03</pdfrwt>
<totfact> 0.14619139E+01</totfact>
</mgrwt>
</event>
<event>
 4    1  0.2061941E-008  0.9774633E+03  0.7818608E-02  0.9333614E-01
          2   -1    0    0  501    0  0.00000000000E+00  0.00000000000E+00  0.28481250045E+04  0.28481250045E+04  0.25500000000E-02 0. -1.
         -2   -1    0    0    0  501 -0.00000000000E+00 -0.00000000000E+00 -0.56171783877E+03  0.56171783878E+03  0.25500000000E-02 0.  1.
    8880022    1    1    2    0    0 -0.16987494319E+03  0.95036069385E+03  0.61156381793E+02  0.97937464782E+03  0.15294330000E+03 0.  1.
    8880022    1    1    2    0    0  0.16987494319E+03 -0.95036069385E+03  0.22252507839E+04  0.24304681954E+04  0.15294330000E+03 0.  0.
<mgrwt>
<rscale>  0 0.97746335E+03</rscale>
<asrwt>0</asrwt>
<pdfrwt beam="1">  1        2 0.43817307E+00 0.97746335E+03</pdfrwt>
<pdfrwt beam="2">  1       -2 0.86418130E-01 0.97746335E+03</pdfrwt>
<totfact> 0.25596028E+00</totfact>
</mgrwt>
</event>
<event>
 4    1  0.2061941E-008  0.7798234E+03  0.7818608E-02  0.9589690E-01
         -2   -1    0    0    0  501 -0.00000000000E+00  0.00000000000E+00  0.51768380439E+03  0.51768380440E+03  0.25500000000E-02 0.  1.
          2   -1    0    0  501    0  0.00000000000E+00 -0.00000000000E+00 -0.25959283332E+04  0.25959283332E+04  0.25500000000E-02 0. -1.
    8880022    1    1    2    0    0  0.73320901281E+03  0.21711159354E+03  0.11279075071E+03  0.78793800960E+03  0.15294330000E+03 0.  0.
    8880022    1    1    2    0    0 -0.73320901281E+03 -0.21711159354E+03 -0.21910352795E+04  0.23256741280E+04  0.15294330000E+03 0.  0.
<mgrwt>
<rscale>  0 0.77982341E+03</rscale>
<asrwt>0</asrwt>
<pdfrwt beam="1">  1        2 0.39937358E+00 0.77982341E+03</pdfrwt>
<pdfrwt beam="2">  1       -2 0.79643664E-01 0.77982341E+03</pdfrwt>
<totfact> 0.44746512E+00</totfact>
</mgrwt>
</event>
<event>
 4    1  0.2061941E-008  0.5377084E+03  0.7818608E-02  0.1004380E+00
          2   -1    0    0  501    0  0.00000000000E+00  0.00000000000E+00  0.19256799590E+04  0.19256799590E+04  0.25500000000E-02 0. -1.
         -2   -1    0    0    0  501 -0.00000000000E+00 -0.00000000000E+00 -0.38632063154E+03  0.38632063155E+03  0.25500000000E-02 0.  1.
    8880022    1    1    2    0    0 -0.27707035504E+03 -0.43470761765E+03 -0.13418196920E+03  0.55419775203E+03  0.15294330000E+03 0.  0.
    8880022    1    1    2    0    0  0.27707035504E+03  0.43470761765E+03  0.16735412967E+04  0.17578028386E+04  0.15294330000E+03 0.  0.
<mgrwt>
<rscale>  0 0.53770842E+03</rscale>
<asrwt>0</asrwt>
<pdfrwt beam="1">  1        2 0.29625846E+00 0.53770842E+03</pdfrwt>
<pdfrwt beam="2">  1       -2 0.59433943E-01 0.53770842E+03</pdfrwt>
<totfact> 0.20743101E+01</totfact>
</mgrwt>
</event>
<event>
 4    1  0.2061941E-008  0.8115213E+03  0.7818608E-02  0.9543489E-01
         -2   -1    0    0    0  501 -0.00000000000E+00  0.00000000000E+00  0.65584307423E+03  0.65584307424E+03  0.25500000000E-02 0.  1.
          2   -1    0    0  501    0  0.00000000000E+00 -0.00000000000E+00 -0.30547145843E+04  0.30547145843E+04  0.25500000000E-02 0. -1.
    8880022    1    1    2    0    0  0.13922224109E+03 -0.78472433243E+03 -0.27194941859E+04  0.28379949596E+04  0.15294330000E+03 0.  0.
    8880022    1    1    2    0    0 -0.13922224109E+03  0.78472433243E+03  0.32062267585E+03  0.87256269896E+03  0.15294330000E+03 0.  0.
<mgrwt>
<rscale>  0 0.81152126E+03</rscale>
<asrwt>0</asrwt>
<pdfrwt beam="1">  1        2 0.46995608E+00 0.81152126E+03</pdfrwt>
<pdfrwt beam="2">  1       -2 0.10089894E+00 0.81152126E+03</pdfrwt>
<totfact> 0.13734442E+00</totfact>
</mgrwt>
</event>
<event>
 4    1  0.2061941E-008  0.1224697E+04  0.7818608E-02  0.9091510E-01
         -2   -1    0    0    0  501 -0.00000000000E+00  0.00000000000E+00  0.27357536715E+04  0.27357536715E+04  0.25500000000E-02 0.  1.
          2   -1    0    0  501    0  0.00000000000E+00 -0.00000000000E+00 -0.79122205625E+03  0.79122205625E+03  0.25500000000E-02 0. -1.
    8880022    1    1    2    0    0  0.54572134816E+03 -0.10856694539E+04  0.19495028628E+04  0.23022691020E+04  0.15294330000E+03 0.  0.
    8880022    1    1    2    0    0 -0.54572134816E+03  0.10856694539E+04 -0.49712475308E+01  0.12247066258E+04  0.15294330000E+03 0.  0.
<mgrwt>
<rscale>  0 0.12246965E+04</rscale>
<asrwt>0</asrwt>
<pdfrwt beam="1">  1        2 0.12172647E+00 0.12246965E+04</pdfrwt>
<pdfrwt beam="2">  1       -2 0.42088517E+00 0.12246965E+04</pdfrwt>
<totfact> 0.18637027E-01</totfact>
</mgrwt>
</event>
<event>
 4    1  0.2061941E-008  0.8894159E+03  0.7818608E-02  0.9438910E-01
         -2   -1    0    0    0  501 -0.00000000000E+00  0.00000000000E+00  0.66603798517E+03  0.66603798518E+03  0.25500000000E-02 0.  1.
          2   -1    0    0  501    0  0.00000000000E+00 -0.00000000000E+00 -0.45391133867E+04  0.45391133867E+04  0.25500000000E-02 0. -1.
    8880022    1    1    2    0    0 -0.85630655432E+03 -0.18549398139E+03 -0.41728432690E+04  0.42665772621E+04  0.15294330000E+03 0.  0.
    8880022    1    1    2    0    0  0.85630655432E+03  0.18549398139E+03  0.29976786756E+03  0.93857410978E+03  0.15294330000E+03 0.  0.
<mgrwt>
<rscale>  0 0.88941587E+03</rscale>
<asrwt>0</asrwt>
<pdfrwt beam="1">  1        2 0.69832512E+00 0.88941587E+03</pdfrwt>
<pdfrwt beam="2">  1       -2 0.10246739E+00 0.88941587E+03</pdfrwt>
<totfact> 0.96843073E-02</totfact>
</mgrwt>
</event>
<event>
 4    1  0.2061941E-008  0.1900406E+04  0.7818608E-02  0.8654655E-01
          2   -1    0    0  501    0  0.00000000000E+00  0.00000000000E+00  0.21936607052E+04  0.21936607052E+04  0.25500000000E-02 0. -1.
         -2   -1    0    0    0  501 -0.00000000000E+00 -0.00000000000E+00 -0.23708799424E+04  0.23708799424E+04  0.25500000000E-02 0.  1.
    8880022    1    1    2    0    0 -0.11053134171E+04  0.15383211916E+04  0.11730417178E+04  0.22332864490E+04  0.15294330000E+03 0.  0.
    8880022    1    1    2    0    0  0.11053134171E+04 -0.15383211916E+04 -0.13502609550E+04  0.23312541985E+04  0.15294330000E+03 0.  0.
<mgrwt>
<rscale>  0 0.19004056E+04</rscale>
<asrwt>0</asrwt>
<pdfrwt beam="1">  1        2 0.33748626E+00 0.19004056E+04</pdfrwt>
<pdfrwt beam="2">  1       -2 0.36475076E+00 0.19004056E+04</pdfrwt>
<totfact> 0.58447354E-02</totfact>
</mgrwt>
</event>
<event>
 4    1  0.2061941E-008  0.9314516E+03  0.7818608E-02  0.9387098E-01
          2   -1    0    0  501    0  0.00000000000E+00  0.00000000000E+00  0.11373636006E+04  0.11373636006E+04  0.25500000000E-02 0. -1.
         -2   -1    0    0    0  501 -0.00000000000E+00 -0.00000000000E+00 -0.95338544382E+03  0.95338544382E+03  0.25500000000E-02 0.  1.
    8880022    1    1    2    0    0 -0.79257181958E+03  0.46480130250E+03 -0.37538157608E+03  0.10042476391E+04  0.15294330000E+03 0.  0.
    8880022    1    1    2    0    0  0.79257181958E+03 -0.46480130250E+03  0.55935973289E+03  0.10865014053E+04  0.15294330000E+03 0.  0.
<mgrwt>
<rscale>  0 0.93145155E+03</rscale>
<asrwt>0</asrwt>
<pdfrwt beam="1">  1        2 0.17497902E+00 0.93145155E+03</pdfrwt>
<pdfrwt beam="2">  1       -2 0.14667468E+00 0.93145155E+03</pdfrwt>
<totfact> 0.65592085E+00</totfact>
</mgrwt>
</event>
<event>
 4    1  0.2061941E-008  0.5364607E+03  0.7818608E-02  0.1004677E+00
          2   -1    0    0  501    0  0.00000000000E+00  0.00000000000E+00  0.20247365586E+04  0.20247365586E+04  0.25500000000E-02 0. -1.
         -2   -1    0    0    0  501 -0.00000000000E+00 -0.00000000000E+00 -0.21626682365E+03  0.21626682366E+03  0.25500000000E-02 0.  1.
    8880022    1    1    2    0    0  0.51334491466E+03  0.29587037930E+02  0.15602501427E+04  0.16499001652E+04  0.15294330000E+03 0.  0.
    8880022    1    1    2    0    0 -0.51334491466E+03 -0.29587037930E+02  0.24821959219E+03  0.59110321703E+03  0.15294330000E+03 0.  0.
<mgrwt>
<rscale>  0 0.53646067E+03</rscale>
<asrwt>0</asrwt>
<pdfrwt beam="1">  1        2 0.31149793E+00 0.53646067E+03</pdfrwt>
<pdfrwt beam="2">  1       -2 0.33271819E-01 0.53646067E+03</pdfrwt>
<totfact> 0.57931987E+01</totfact>
</mgrwt>
</event>
<event>
 4    1  0.2061941E-008  0.4943126E+03  0.7818608E-02  0.1015274E+00
         -2   -1    0    0    0  501 -0.00000000000E+00  0.00000000000E+00  0.17490543233E+04  0.17490543233E+04  0.25500000000E-02 0.  1.
          2   -1    0    0  501    0  0.00000000000E+00 -0.00000000000E+00 -0.17140259456E+04  0.17140259456E+04  0.25500000000E-02 0. -1.
    8880022    1    1    2    0    0  0.46971278089E+03  0.17978096093E+02  0.16769903937E+04  0.17483254108E+04  0.15294330000E+03 0.  0.
    8880022    1    1    2    0    0 -0.46971278089E+03 -0.17978096093E+02 -0.16419620159E+04  0.17147548581E+04  0.15294330000E+03 0.  0.
<mgrwt>
<rscale>  0 0.49431262E+03</rscale>
<asrwt>0</asrwt>
<pdfrwt beam="1">  1        2 0.26369630E+00 0.49431262E+03</pdfrwt>
<pdfrwt beam="2">  1       -2 0.26908528E+00 0.49431262E+03</pdfrwt>
<totfact> 0.53362995E-01</totfact>
</mgrwt>
</event>
<event>
 4    1  0.2061941E-008  0.9759110E+03  0.7818608E-02  0.9335367E-01
         -2   -1    0    0    0  501 -0.00000000000E+00  0.00000000000E+00  0.25614824301E+03  0.25614824302E+03  0.25500000000E-02 0.  1.
          2   -1    0    0  501    0  0.00000000000E+00 -0.00000000000E+00 -0.39501912273E+04  0.39501912273E+04  0.25500000000E-02 0. -1.
    8880022    1    1    2    0    0 -0.93519709373E+03 -0.23327449841E+03 -0.13373024967E+04  0.16555301919E+04  0.15294330000E+03 0.  0.
    8880022    1    1    2    0    0  0.93519709373E+03  0.23327449841E+03 -0.23567404876E+04  0.25508092784E+04  0.15294330000E+03 0.  0.
<mgrwt>
<rscale>  0 0.97591098E+03</rscale>
<asrwt>0</asrwt>
<pdfrwt beam="1">  1        2 0.60772169E+00 0.97591098E+03</pdfrwt>
<pdfrwt beam="2">  1       -2 0.39407425E-01 0.97591098E+03</pdfrwt>
<totfact> 0.24152006E+00</totfact>
</mgrwt>
</event>
<event>
 4    1  0.2061941E-008  0.7497591E+03  0.7818608E-02  0.9635728E-01
          2   -1    0    0  501    0  0.00000000000E+00  0.00000000000E+00  0.22631849303E+04  0.22631849303E+04  0.25500000000E-02 0. -1.
         -2   -1    0    0    0  501 -0.00000000000E+00 -0.00000000000E+00 -0.29892632907E+03  0.29892632908E+03  0.25500000000E-02 0.  1.
    8880022    1    1    2    0    0 -0.68678657174E+03  0.25898130625E+03  0.15088905697E+04  0.16849004471E+04  0.15294330000E+03 0.  0.
    8880022    1    1    2    0    0  0.68678657174E+03 -0.25898130625E+03  0.45536803148E+03  0.87721081230E+03  0.15294330000E+03 0.  0.
<mgrwt>
<rscale>  0 0.74975914E+03</rscale>
<asrwt>0</asrwt>
<pdfrwt beam="1">  1        2 0.34818230E+00 0.74975914E+03</pdfrwt>
<pdfrwt beam="2">  1       -2 0.45988665E-01 0.74975914E+03</pdfrwt>
<totfact> 0.22170581E+01</totfact>
</mgrwt>
</event>
<event>
 4    1  0.2061941E-008  0.8758113E+03  0.7818608E-02  0.9456334E-01
         -2   -1    0    0    0  501 -0.00000000000E+00  0.00000000000E+00  0.97769234165E+03  0.97769234165E+03  0.25500000000E-02 0.  1.
          2   -1    0    0  501    0  0.00000000000E+00 -0.00000000000E+00 -0.12149773682E+04  0.12149773682E+04  0.25500000000E-02 0. -1.
    8880022    1    1    2    0    0 -0.83256309478E+03  0.22470539866E+03  0.53390274818E+03  0.10257180999E+04  0.15294330000E+03 0.  0.
    8880022    1    1    2    0    0  0.83256309478E+03 -0.22470539866E+03 -0.77118777469E+03  0.11669516099E+04  0.15294330000E+03 0.  0.
<mgrwt>
<rscale>  0 0.87581132E+03</rscale>
<asrwt>0</asrwt>
<pdfrwt beam="1">  1        2 0.18691960E+00 0.87581132E+03</pdfrwt>
<pdfrwt beam="2">  1       -2 0.15041421E+00 0.87581132E+03</pdfrwt>
<totfact> 0.55470972E+00</totfact>
</mgrwt>
</event>
<event>
 4    1  0.2061941E-008  0.1620901E+04  0.7818608E-02  0.8807810E-01
         -2   -1    0    0    0  501 -0.00000000000E+00  0.00000000000E+00  0.97117005787E+03  0.97117005788E+03  0.25500000000E-02 0.  1.
          2   -1    0    0  501    0  0.00000000000E+00 -0.00000000000E+00 -0.28391725319E+04  0.28391725319E+04  0.25500000000E-02 0. -1.
    8880022    1    1    2    0    0  0.16109348677E+04 -0.93900942374E+02 -0.52032480885E+03  0.17023683781E+04  0.15294330000E+03 0.  0.
    8880022    1    1    2    0    0 -0.16109348677E+04  0.93900942374E+02 -0.13476776651E+04  0.21079742117E+04  0.15294330000E+03 0.  0.
<mgrwt>
<rscale>  0 0.16209010E+04</rscale>
<asrwt>0</asrwt>
<pdfrwt beam="1">  1        2 0.43679577E+00 0.16209010E+04</pdfrwt>
<pdfrwt beam="2">  1       -2 0.14941078E+00 0.16209010E+04</pdfrwt>
<totfact> 0.61952322E-01</totfact>
</mgrwt>
</event>
<event>
 4    1  0.2061941E-008  0.9520276E+03  0.7818608E-02  0.9362784E-01
          2   -1    0    0  501    0  0.00000000000E+00  0.00000000000E+00  0.12744462444E+04  0.12744462444E+04  0.25500000000E-02 0. -1.
         -2   -1    0    0    0  501 -0.00000000000E+00 -0.00000000000E+00 -0.15428138161E+04  0.15428138161E+04  0.25500000000E-02 0.  1.
    8880022    1    1    2    0    0 -0.52496271605E+03  0.77934529614E+03  0.90002230188E+03  0.13101132549E+04  0.15294330000E+03 0.  0.
    8880022    1    1    2    0    0  0.52496271605E+03 -0.77934529614E+03 -0.11683898735E+04  0.15071468055E+04  0.15294330000E+03 0.  0.
<mgrwt>
<rscale>  0 0.95202762E+03</rscale>
<asrwt>0</asrwt>
<pdfrwt beam="1">  1        2 0.19606865E+00 0.95202762E+03</pdfrwt>
<pdfrwt beam="2">  1       -2 0.23735597E+00 0.95202762E+03</pdfrwt>
<totfact> 0.13193186E+00</totfact>
</mgrwt>
</event>
<event>
 4    1  0.2061941E-008  0.1467775E+04  0.7818608E-02  0.8906169E-01
         -2   -1    0    0    0  501 -0.00000000000E+00  0.00000000000E+00  0.32989652265E+04  0.32989652265E+04  0.25500000000E-02 0.  1.
          2   -1    0    0  501    0  0.00000000000E+00 -0.00000000000E+00 -0.12567411450E+04  0.12567411450E+04  0.25500000000E-02 0. -1.
    8880022    1    1    2    0    0  0.94754927020E+03 -0.11104609114E+04  0.25998603188E+04  0.29855717016E+04  0.15294330000E+03 0.  0.
    8880022    1    1    2    0    0 -0.94754927020E+03  0.11104609114E+04 -0.55763623733E+03  0.15701346698E+04  0.15294330000E+03 0.  0.
<mgrwt>
<rscale>  0 0.14677754E+04</rscale>
<asrwt>0</asrwt>
<pdfrwt beam="1">  1        2 0.19334479E+00 0.14677754E+04</pdfrwt>
<pdfrwt beam="2">  1       -2 0.50753311E+00 0.14677754E+04</pdfrwt>
<totfact> 0.24389866E-02</totfact>
</mgrwt>
</event>
<event>
 4    1  0.2061941E-008  0.3519969E+03  0.7818608E-02  0.1061798E+00
          2   -1    0    0  501    0  0.00000000000E+00  0.00000000000E+00  0.47247207698E+03  0.47247207698E+03  0.25500000000E-02 0. -1.
         -2   -1    0    0    0  501 -0.00000000000E+00 -0.00000000000E+00 -0.16631228796E+04  0.16631228796E+04  0.25500000000E-02 0.  1.
    8880022    1    1    2    0    0 -0.29556275281E+03 -0.11468566759E+03 -0.15753283894E+04  0.16141751239E+04  0.15294330000E+03 0.  0.
    8880022    1    1    2    0    0  0.29556275281E+03  0.11468566759E+03  0.38467758673E+03  0.52141983271E+03  0.15294330000E+03 0.  0.
<mgrwt>
<rscale>  0 0.35199687E+03</rscale>
<asrwt>0</asrwt>
<pdfrwt beam="1">  1        2 0.72688013E-01 0.35199687E+03</pdfrwt>
<pdfrwt beam="2">  1       -2 0.25586506E+00 0.35199687E+03</pdfrwt>
<totfact> 0.43276257E+00</totfact>
</mgrwt>
</event>
<event>
 4    1  0.2061941E-008  0.1065805E+04  0.7818608E-02  0.9239176E-01
          2   -1    0    0  501    0  0.00000000000E+00  0.00000000000E+00  0.17817500321E+04  0.17817500321E+04  0.25500000000E-02 0. -1.
         -2   -1    0    0    0  501 -0.00000000000E+00 -0.00000000000E+00 -0.11566230772E+04  0.11566230772E+04  0.25500000000E-02 0.  1.
    8880022    1    1    2    0    0  0.89527453508E+03 -0.55770339944E+03 -0.67167069907E+03  0.12597947277E+04  0.15294330000E+03 0.  0.
    8880022    1    1    2    0    0 -0.89527453508E+03  0.55770339944E+03  0.12967976540E+04  0.16785783816E+04  0.15294330000E+03 0.  0.
<mgrwt>
<rscale>  0 0.10658054E+04</rscale>
<asrwt>0</asrwt>
<pdfrwt beam="1">  1        2 0.27411539E+00 0.10658054E+04</pdfrwt>
<pdfrwt beam="2">  1       -2 0.17794201E+00 0.10658054E+04</pdfrwt>
<totfact> 0.16327740E+00</totfact>
</mgrwt>
</event>
<event>
 4    1  0.2061941E-008  0.3739573E+03  0.7818608E-02  0.1053190E+00
          2   -1    0    0  501    0  0.00000000000E+00  0.00000000000E+00  0.40558994070E+04  0.40558994070E+04  0.25500000000E-02 0. -1.
         -2   -1    0    0    0  501 -0.00000000000E+00 -0.00000000000E+00 -0.98972738982E+02  0.98972739015E+02  0.25500000000E-02 0.  1.
    8880022    1    1    2    0    0  0.21137834451E+03  0.26790220360E+03  0.36554440819E+04  0.36745224838E+04  0.15294330000E+03 0.  0.
    8880022    1    1    2    0    0 -0.21137834451E+03 -0.26790220360E+03  0.30148258613E+03  0.48034966220E+03  0.15294330000E+03 0.  0.
<mgrwt>
<rscale>  0 0.37395728E+03</rscale>
<asrwt>0</asrwt>
<pdfrwt beam="1">  1        2 0.62398442E+00 0.37395728E+03</pdfrwt>
<pdfrwt beam="2">  1       -2 0.15226578E-01 0.37395728E+03</pdfrwt>
<totfact> 0.12921425E+01</totfact>
</mgrwt>
</event>
<event>
 4    1  0.2061941E-008  0.3573679E+03  0.7818608E-02  0.1059631E+00
         -2   -1    0    0    0  501 -0.00000000000E+00  0.00000000000E+00  0.92600997764E+03  0.92600997765E+03  0.25500000000E-02 0.  1.
          2   -1    0    0  501    0  0.00000000000E+00 -0.00000000000E+00 -0.12030576764E+04  0.12030576764E+04  0.25500000000E-02 0. -1.
    8880022    1    1    2    0    0 -0.21721560191E+03 -0.23903458861E+03  0.86313511941E+03  0.93419165038E+03  0.15294330000E+03 0.  0.
    8880022    1    1    2    0    0  0.21721560191E+03  0.23903458861E+03 -0.11401828181E+04  0.11948760036E+04  0.15294330000E+03 0.  0.
<mgrwt>
<rscale>  0 0.35736789E+03</rscale>
<asrwt>0</asrwt>
<pdfrwt beam="1">  1        2 0.18508580E+00 0.35736789E+03</pdfrwt>
<pdfrwt beam="2">  1       -2 0.14246307E+00 0.35736789E+03</pdfrwt>
<totfact> 0.71317776E+00</totfact>
</mgrwt>
</event>
<event>
 4    1  0.2061941E-008  0.1948808E+04  0.7818608E-02  0.8630936E-01
         -2   -1    0    0    0  501 -0.00000000000E+00  0.00000000000E+00  0.21197390147E+04  0.21197390147E+04  0.25500000000E-02 0.  1.
          2   -1    0    0  501    0  0.00000000000E+00 -0.00000000000E+00 -0.20671101408E+04  0.20671101408E+04  0.25500000000E-02 0. -1.
    8880022    1    1    2    0    0 -0.14987109134E+04  0.12362543908E+04  0.79049721027E+03  0.21030303881E+04  0.15294330000E+03 0.  0.
    8880022    1    1    2    0    0  0.14987109134E+04 -0.12362543908E+04 -0.73786833646E+03  0.20838187674E+04  0.15294330000E+03 0.  0.
<mgrwt>
<rscale>  0 0.19488076E+04</rscale>
<asrwt>0</asrwt>
<pdfrwt beam="1">  1        2 0.31801695E+00 0.19488076E+04</pdfrwt>
<pdfrwt beam="2">  1       -2 0.32611369E+00 0.19488076E+04</pdfrwt>
<totfact> 0.12016062E-01</totfact>
</mgrwt>
</event>
<event>
 4    1  0.2061941E-008  0.1236691E+04  0.7818608E-02  0.9081334E-01
         -2   -1    0    0    0  501 -0.00000000000E+00  0.00000000000E+00  0.34877041160E+04  0.34877041160E+04  0.25500000000E-02 0.  1.
          2   -1    0    0  501    0  0.00000000000E+00 -0.00000000000E+00 -0.70540822818E+03  0.70540822819E+03  0.25500000000E-02 0. -1.
    8880022    1    1    2    0    0 -0.11444734007E+04  0.44293754724E+03  0.26807520035E+04  0.29522594725E+04  0.15294330000E+03 0.  0.
    8880022    1    1    2    0    0  0.11444734007E+04 -0.44293754724E+03  0.10154388433E+03  0.12408528717E+04  0.15294330000E+03 0.  0.
<mgrwt>
<rscale>  0 0.12366910E+04</rscale>
<asrwt>0</asrwt>
<pdfrwt beam="1">  1        2 0.10852434E+00 0.12366910E+04</pdfrwt>
<pdfrwt beam="2">  1       -2 0.53656985E+00 0.12366910E+04</pdfrwt>
<totfact> 0.39452293E-02</totfact>
</mgrwt>
</event>
<event>
 4    1  0.2061941E-008  0.4195670E+03  0.7818608E-02  0.1037207E+00
          2   -1    0    0  501    0  0.00000000000E+00  0.00000000000E+00  0.19657314205E+04  0.19657314205E+04  0.25500000000E-02 0. -1.
         -2   -1    0    0    0  501 -0.00000000000E+00 -0.00000000000E+00 -0.23302037509E+03  0.23302037511E+03  0.25500000000E-02 0.  1.
    8880022    1    1    2    0    0 -0.34055317022E+03 -0.19148988559E+03  0.37219757549E+01  0.41958353656E+03  0.15294330000E+03 0.  0.
    8880022    1    1    2    0    0  0.34055317022E+03  0.19148988559E+03  0.17289890696E+04  0.17791682590E+04  0.15294330000E+03 0.  0.
<mgrwt>
<rscale>  0 0.41956703E+03</rscale>
<asrwt>0</asrwt>
<pdfrwt beam="1">  1        2 0.30242023E+00 0.41956703E+03</pdfrwt>
<pdfrwt beam="2">  1       -2 0.35849288E-01 0.41956703E+03</pdfrwt>
<totfact> 0.55342244E+01</totfact>
</mgrwt>
</event>
<event>
 4    1  0.2061941E-008  0.9756762E+03  0.7818608E-02  0.9335632E-01
         -2   -1    0    0    0  501 -0.00000000000E+00  0.00000000000E+00  0.16974333871E+04  0.16974333871E+04  0.25500000000E-02 0.  1.
          2   -1    0    0  501    0  0.00000000000E+00 -0.00000000000E+00 -0.13129961323E+04  0.13129961323E+04  0.25500000000E-02 0. -1.
    8880022    1    1    2    0    0 -0.21297965156E+03 -0.93978298850E+03 -0.94705570247E+03  0.13597273823E+04  0.15294330000E+03 0.  0.
    8880022    1    1    2    0    0  0.21297965156E+03  0.93978298850E+03  0.13314929572E+04  0.16507021371E+04  0.15294330000E+03 0.  0.
<mgrwt>
<rscale>  0 0.97567620E+03</rscale>
<asrwt>0</asrwt>
<pdfrwt beam="1">  1        2 0.20199940E+00 0.97567620E+03</pdfrwt>
<pdfrwt beam="2">  1       -2 0.26114360E+00 0.97567620E+03</pdfrwt>
<totfact> 0.89391321E-01</totfact>
</mgrwt>
</event>
<event>
 4    1  0.2061941E-008  0.1160264E+04  0.7818608E-02  0.9148366E-01
         -2   -1    0    0    0  501 -0.00000000000E+00  0.00000000000E+00  0.92844217765E+03  0.92844217765E+03  0.25500000000E-02 0.  1.
          2   -1    0    0  501    0  0.00000000000E+00 -0.00000000000E+00 -0.19073124235E+04  0.19073124235E+04  0.25500000000E-02 0. -1.
    8880022    1    1    2    0    0  0.85895346506E+03 -0.76486585715E+03 -0.11837378850E+04  0.16575427198E+04  0.15294330000E+03 0.  0.
    8880022    1    1    2    0    0 -0.85895346506E+03  0.76486585715E+03  0.20486763923E+03  0.11782118813E+04  0.15294330000E+03 0.  0.
<mgrwt>
<rscale>  0 0.11602640E+04</rscale>
<asrwt>0</asrwt>
<pdfrwt beam="1">  1        2 0.29343268E+00 0.11602640E+04</pdfrwt>
<pdfrwt beam="2">  1       -2 0.14283726E+00 0.11602640E+04</pdfrwt>
<totfact> 0.25069528E+00</totfact>
</mgrwt>
</event>
<event>
 4    1  0.2061941E-008  0.1880381E+04  0.7818608E-02  0.8664684E-01
          2   -1    0    0  501    0  0.00000000000E+00  0.00000000000E+00  0.16970963849E+04  0.16970963849E+04  0.25500000000E-02 0. -1.
         -2   -1    0    0    0  501 -0.00000000000E+00 -0.00000000000E+00 -0.22443601405E+04  0.22443601405E+04  0.25500000000E-02 0.  1.
    8880022    1    1    2    0    0  0.18623308249E+04  0.21015898109E+03  0.25403155574E+03  0.18974631967E+04  0.15294330000E+03 0.  0.
    8880022    1    1    2    0    0 -0.18623308249E+04 -0.21015898109E+03 -0.80129531141E+03  0.20439933287E+04  0.15294330000E+03 0.  0.
<mgrwt>
<rscale>  0 0.18803815E+04</rscale>
<asrwt>0</asrwt>
<pdfrwt beam="1">  1        2 0.26109175E+00 0.18803815E+04</pdfrwt>
<pdfrwt beam="2">  1       -2 0.34528617E+00 0.18803815E+04</pdfrwt>
<totfact> 0.14805683E-01</totfact>
</mgrwt>
</event>
<event>
 4    1  0.2061941E-008  0.5959310E+03  0.7818608E-02  0.9913884E-01
          2   -1    0    0  501    0  0.00000000000E+00  0.00000000000E+00  0.12707610060E+04  0.12707610060E+04  0.25500000000E-02 0. -1.
         -2   -1    0    0    0  501 -0.00000000000E+00 -0.00000000000E+00 -0.40633445817E+03  0.40633445818E+03  0.25500000000E-02 0.  1.
    8880022    1    1    2    0    0 -0.47365797775E+03  0.32770443855E+03 -0.36345226687E+02  0.59703827972E+03  0.15294330000E+03 0.  0.
    8880022    1    1    2    0    0  0.47365797775E+03 -0.32770443855E+03  0.90077177449E+03  0.10800571844E+04  0.15294330000E+03 0.  0.
<mgrwt>
<rscale>  0 0.59593098E+03</rscale>
<asrwt>0</asrwt>
<pdfrwt beam="1">  1        2 0.19550169E+00 0.59593098E+03</pdfrwt>
<pdfrwt beam="2">  1       -2 0.62512994E-01 0.59593098E+03</pdfrwt>
<totfact> 0.42321818E+01</totfact>
</mgrwt>
</event>
<event>
 4    1  0.2061941E-008  0.9087253E+03  0.7818608E-02  0.9414740E-01
          2   -1    0    0  501    0  0.00000000000E+00  0.00000000000E+00  0.13731888952E+04  0.13731888952E+04  0.25500000000E-02 0. -1.
         -2   -1    0    0    0  501 -0.00000000000E+00 -0.00000000000E+00 -0.74262194097E+03  0.74262194098E+03  0.25500000000E-02 0.  1.
    8880022    1    1    2    0    0  0.84446372636E+03  0.29878254462E+03  0.77668037717E+03  0.11954137591E+04  0.15294330000E+03 0.  0.
    8880022    1    1    2    0    0 -0.84446372636E+03 -0.29878254462E+03 -0.14611342297E+03  0.92039707707E+03  0.15294330000E+03 0.  0.
<mgrwt>
<rscale>  0 0.90872529E+03</rscale>
<asrwt>0</asrwt>
<pdfrwt beam="1">  1        2 0.21125983E+00 0.90872529E+03</pdfrwt>
<pdfrwt beam="2">  1       -2 0.11424953E+00 0.90872529E+03</pdfrwt>
<totfact> 0.90114914E+00</totfact>
</mgrwt>
</event>
<event>
 4    1  0.2061941E-008  0.1324139E+04  0.7818608E-02  0.9010639E-01
          2   -1    0    0  501    0  0.00000000000E+00  0.00000000000E+00  0.21785967429E+04  0.21785967429E+04  0.25500000000E-02 0. -1.
         -2   -1    0    0    0  501 -0.00000000000E+00 -0.00000000000E+00 -0.10395801235E+04  0.10395801235E+04  0.25500000000E-02 0.  1.
    8880022    1    1    2    0    0  0.11754106501E+04 -0.59022195706E+03 -0.19516812821E+03  0.13384447715E+04  0.15294330000E+03 0.  0.
    8880022    1    1    2    0    0 -0.11754106501E+04  0.59022195706E+03  0.13341847476E+04  0.18797320950E+04  0.15294330000E+03 0.  0.
<mgrwt>
<rscale>  0 0.13241389E+04</rscale>
<asrwt>0</asrwt>
<pdfrwt beam="1">  1        2 0.33516873E+00 0.13241389E+04</pdfrwt>
<pdfrwt beam="2">  1       -2 0.15993541E+00 0.13241389E+04</pdfrwt>
<totfact> 0.12853678E+00</totfact>
</mgrwt>
</event>
<event>
 4    1  0.2061941E-008  0.6047771E+03  0.7818608E-02  0.9895544E-01
         -2   -1    0    0    0  501 -0.00000000000E+00  0.00000000000E+00  0.12909921657E+03  0.12909921660E+03  0.25500000000E-02 0.  1.
          2   -1    0    0  501    0  0.00000000000E+00 -0.00000000000E+00 -0.42412733790E+04  0.42412733790E+04  0.25500000000E-02 0. -1.
    8880022    1    1    2    0    0 -0.29650355964E+03 -0.50442968098E+03 -0.33151958034E+04  0.33699077928E+04  0.15294330000E+03 0.  0.
    8880022    1    1    2    0    0  0.29650355964E+03  0.50442968098E+03 -0.79697835908E+03  0.10004648029E+04  0.15294330000E+03 0.  0.
<mgrwt>
<rscale>  0 0.60477708E+03</rscale>
<asrwt>0</asrwt>
<pdfrwt beam="1">  1        2 0.65250349E+00 0.60477708E+03</pdfrwt>
<pdfrwt beam="2">  1       -2 0.19861421E-01 0.60477708E+03</pdfrwt>
<totfact> 0.53490214E+00</totfact>
</mgrwt>
</event>
<event>
 4    1  0.2061941E-008  0.9057954E+03  0.7818608E-02  0.9418366E-01
         -2   -1    0    0    0  501 -0.00000000000E+00  0.00000000000E+00  0.80219779593E+03  0.80219779593E+03  0.25500000000E-02 0.  1.
          2   -1    0    0  501    0  0.00000000000E+00 -0.00000000000E+00 -0.20216651590E+04  0.20216651590E+04  0.25500000000E-02 0. -1.
    8880022    1    1    2    0    0 -0.47805362588E+02 -0.89150905204E+03  0.38273895058E+03  0.98333844625E+03  0.15294330000E+03 0.  0.
    8880022    1    1    2    0    0  0.47805362588E+02  0.89150905204E+03 -0.16022063137E+04  0.18405245087E+04  0.15294330000E+03 0.  0.
<mgrwt>
<rscale>  0 0.90579545E+03</rscale>
<asrwt>0</asrwt>
<pdfrwt beam="1">  1        2 0.31102541E+00 0.90579545E+03</pdfrwt>
<pdfrwt beam="2">  1       -2 0.12341505E+00 0.90579545E+03</pdfrwt>
<totfact> 0.32555907E+00</totfact>
</mgrwt>
</event>
<event>
 4    1  0.2061941E-008  0.1197435E+04  0.7818608E-02  0.9115104E-01
         -2   -1    0    0    0  501 -0.00000000000E+00  0.00000000000E+00  0.12386098321E+04  0.12386098321E+04  0.25500000000E-02 0.  1.
          2   -1    0    0  501    0  0.00000000000E+00 -0.00000000000E+00 -0.17477694148E+04  0.17477694148E+04  0.25500000000E-02 0. -1.
    8880022    1    1    2    0    0 -0.60638434507E+03  0.10211552285E+04  0.61308162892E+03  0.13452586039E+04  0.15294330000E+03 0.  0.
    8880022    1    1    2    0    0  0.60638434507E+03 -0.10211552285E+04 -0.11222412117E+04  0.16411206430E+04  0.15294330000E+03 0.  0.
<mgrwt>
<rscale>  0 0.11974354E+04</rscale>
<asrwt>0</asrwt>
<pdfrwt beam="1">  1        2 0.26888760E+00 0.11974354E+04</pdfrwt>
<pdfrwt beam="2">  1       -2 0.19055536E+00 0.11974354E+04</pdfrwt>
<totfact> 0.13760723E+00</totfact>
</mgrwt>
</event>
<event>
 4    1  0.2061941E-008  0.1051894E+04  0.7818608E-02  0.9253391E-01
          2   -1    0    0  501    0  0.00000000000E+00  0.00000000000E+00  0.23855321095E+04  0.23855321095E+04  0.25500000000E-02 0. -1.
         -2   -1    0    0    0  501 -0.00000000000E+00 -0.00000000000E+00 -0.64682337314E+03  0.64682337314E+03  0.25500000000E-02 0.  1.
    8880022    1    1    2    0    0 -0.16301406725E+03 -0.10278693309E+04  0.62908311952E+02  0.10537732471E+04  0.15294330000E+03 0.  0.
    8880022    1    1    2    0    0  0.16301406725E+03  0.10278693309E+04  0.16758004244E+04  0.19785822356E+04  0.15294330000E+03 0.  0.
<mgrwt>
<rscale>  0 0.10518938E+04</rscale>
<asrwt>0</asrwt>
<pdfrwt beam="1">  1        2 0.36700494E+00 0.10518938E+04</pdfrwt>
<pdfrwt beam="2">  1       -2 0.99511288E-01 0.10518938E+04</pdfrwt>
<totfact> 0.33848937E+00</totfact>
</mgrwt>
</event>
<event>
 4    1  0.2061941E-008  0.8071929E+03  0.7818608E-02  0.9549664E-01
          2   -1    0    0  501    0  0.00000000000E+00  0.00000000000E+00  0.72398918404E+03  0.72398918405E+03  0.25500000000E-02 0. -1.
         -2   -1    0    0    0  501 -0.00000000000E+00 -0.00000000000E+00 -0.10836027643E+04  0.10836027643E+04  0.25500000000E-02 0.  1.
    8880022    1    1    2    0    0 -0.99543297965E+02 -0.78629505131E+03  0.19226238691E+03  0.82977421888E+03  0.15294330000E+03 0.  0.
    8880022    1    1    2    0    0  0.99543297965E+02  0.78629505131E+03 -0.55187596713E+03  0.97781772944E+03  0.15294330000E+03 0.  0.
<mgrwt>
<rscale>  0 0.80719293E+03</rscale>
<asrwt>0</asrwt>
<pdfrwt beam="1">  1        2 0.11138295E+00 0.80719293E+03</pdfrwt>
<pdfrwt beam="2">  1       -2 0.16670812E+00 0.80719293E+03</pdfrwt>
<totfact> 0.89251958E+00</totfact>
</mgrwt>
</event>
<event>
 4    1  0.2061941E-008  0.1307784E+04  0.7818608E-02  0.9023415E-01
          2   -1    0    0  501    0  0.00000000000E+00  0.00000000000E+00  0.23630844119E+04  0.23630844119E+04  0.25500000000E-02 0. -1.
         -2   -1    0    0    0  501 -0.00000000000E+00 -0.00000000000E+00 -0.74889114247E+03  0.74889114248E+03  0.25500000000E-02 0.  1.
    8880022    1    1    2    0    0  0.87627182480E+03 -0.95867345795E+03  0.10921520631E+04  0.17038470858E+04  0.15294330000E+03 0.  0.
    8880022    1    1    2    0    0 -0.87627182480E+03  0.95867345795E+03  0.52204120638E+03  0.14081284686E+04  0.15294330000E+03 0.  0.
<mgrwt>
<rscale>  0 0.13077839E+04</rscale>
<asrwt>0</asrwt>
<pdfrwt beam="1">  1        2 0.36355144E+00 0.13077839E+04</pdfrwt>
<pdfrwt beam="2">  1       -2 0.11521402E+00 0.13077839E+04</pdfrwt>
<totfact> 0.23721551E+00</totfact>
</mgrwt>
</event>
<event>
 4    1  0.2061941E-008  0.1217173E+04  0.7818608E-02  0.9097956E-01
          2   -1    0    0  501    0  0.00000000000E+00  0.00000000000E+00  0.18009797388E+04  0.18009797388E+04  0.25500000000E-02 0. -1.
         -2   -1    0    0    0  501 -0.00000000000E+00 -0.00000000000E+00 -0.11103173848E+04  0.11103173848E+04  0.25500000000E-02 0.  1.
    8880022    1    1    2    0    0  0.11107349534E+04  0.47369478238E+03  0.10863098482E+04  0.16314348356E+04  0.15294330000E+03 0.  0.
    8880022    1    1    2    0    0 -0.11107349534E+04 -0.47369478238E+03 -0.39564749424E+03  0.12798622880E+04  0.15294330000E+03 0.  0.
<mgrwt>
<rscale>  0 0.12171732E+04</rscale>
<asrwt>0</asrwt>
<pdfrwt beam="1">  1        2 0.27707380E+00 0.12171732E+04</pdfrwt>
<pdfrwt beam="2">  1       -2 0.17081806E+00 0.12171732E+04</pdfrwt>
<totfact> 0.17566925E+00</totfact>
</mgrwt>
</event>
<event>
 4    1  0.2061941E-008  0.7496746E+03  0.7818608E-02  0.9635861E-01
          2   -1    0    0  501    0  0.00000000000E+00  0.00000000000E+00  0.28073010464E+04  0.28073010464E+04  0.25500000000E-02 0. -1.
         -2   -1    0    0    0  501 -0.00000000000E+00 -0.00000000000E+00 -0.85992600062E+03  0.85992600062E+03  0.25500000000E-02 0.  1.
    8880022    1    1    2    0    0  0.11324045321E+03  0.72511854027E+03  0.25797417430E+04  0.26864622483E+04  0.15294330000E+03 0.  0.
    8880022    1    1    2    0    0 -0.11324045321E+03 -0.72511854027E+03 -0.63236669724E+03  0.98076479875E+03  0.15294330000E+03 0.  0.
<mgrwt>
<rscale>  0 0.74967456E+03</rscale>
<asrwt>0</asrwt>
<pdfrwt beam="1">  1        2 0.43189247E+00 0.74967456E+03</pdfrwt>
<pdfrwt beam="2">  1       -2 0.13229631E+00 0.74967456E+03</pdfrwt>
<totfact> 0.10095916E+00</totfact>
</mgrwt>
</event>
<event>
 4    1  0.2061941E-008  0.6749199E+03  0.7818608E-02  0.9761111E-01
         -2   -1    0    0    0  501 -0.00000000000E+00  0.00000000000E+00  0.22667927148E+03  0.22667927150E+03  0.25500000000E-02 0.  1.
          2   -1    0    0  501    0  0.00000000000E+00 -0.00000000000E+00 -0.21731571478E+04  0.21731571478E+04  0.25500000000E-02 0. -1.
    8880022    1    1    2    0    0 -0.62322855933E+03  0.20907269353E+03 -0.64397439262E+03  0.93285577648E+03  0.15294330000E+03 0.  0.
    8880022    1    1    2    0    0  0.62322855933E+03 -0.20907269353E+03 -0.13025034837E+04  0.14669806428E+04  0.15294330000E+03 0.  0.
<mgrwt>
<rscale>  0 0.67491991E+03</rscale>
<asrwt>0</asrwt>
<pdfrwt beam="1">  1        2 0.33433185E+00 0.67491991E+03</pdfrwt>
<pdfrwt beam="2">  1       -2 0.34873736E-01 0.67491991E+03</pdfrwt>
<totfact> 0.43085246E+01</totfact>
</mgrwt>
</event>
<event>
 4    1  0.2061941E-008  0.5121325E+03  0.7818608E-02  0.1010660E+00
         -2   -1    0    0    0  501 -0.00000000000E+00  0.00000000000E+00  0.16378558954E+03  0.16378558956E+03  0.25500000000E-02 0.  1.
          2   -1    0    0  501    0  0.00000000000E+00 -0.00000000000E+00 -0.25583745765E+04  0.25583745765E+04  0.25500000000E-02 0. -1.
    8880022    1    1    2    0    0 -0.11230277657E+03 -0.47568491104E+03 -0.36483928167E+03  0.62879837999E+03  0.15294330000E+03 0.  1.
    8880022    1    1    2    0    0  0.11230277657E+03  0.47568491104E+03 -0.20297497053E+04  0.20933617860E+04  0.15294330000E+03 0.  0.
<mgrwt>
<rscale>  0 0.51213250E+03</rscale>
<asrwt>0</asrwt>
<pdfrwt beam="1">  1        2 0.39359606E+00 0.51213250E+03</pdfrwt>
<pdfrwt beam="2">  1       -2 0.25197785E-01 0.51213250E+03</pdfrwt>
<totfact> 0.49311118E+01</totfact>
</mgrwt>
</event>
<event>
 4    1  0.2061941E-008  0.9062245E+03  0.7818608E-02  0.9417834E-01
          2   -1    0    0  501    0  0.00000000000E+00  0.00000000000E+00  0.39715693887E+04  0.39715693887E+04  0.25500000000E-02 0. -1.
         -2   -1    0    0    0  501 -0.00000000000E+00 -0.00000000000E+00 -0.34588123285E+03  0.34588123286E+03  0.25500000000E-02 0.  1.
    8880022    1    1    2    0    0  0.37091727912E+03  0.81257091367E+03  0.31818291880E+04  0.33083651177E+04  0.15294330000E+03 0.  0.
    8880022    1    1    2    0    0 -0.37091727912E+03 -0.81257091367E+03  0.44385896789E+03  0.10090855039E+04  0.15294330000E+03 0.  0.
<mgrwt>
<rscale>  0 0.90622446E+03</rscale>
<asrwt>0</asrwt>
<pdfrwt beam="1">  1        2 0.61101069E+00 0.90622446E+03</pdfrwt>
<pdfrwt beam="2">  1       -2 0.53212496E-01 0.90622446E+03</pdfrwt>
<totfact> 0.12879619E+00</totfact>
</mgrwt>
</event>
<event>
 4    1  0.2061941E-008  0.6052982E+03  0.7818608E-02  0.9894474E-01
         -2   -1    0    0    0  501 -0.00000000000E+00  0.00000000000E+00  0.44735579362E+03  0.44735579363E+03  0.25500000000E-02 0.  1.
          2   -1    0    0  501    0  0.00000000000E+00 -0.00000000000E+00 -0.84384063087E+03  0.84384063087E+03  0.25500000000E-02 0. -1.
    8880022    1    1    2    0    0 -0.57436063564E+03 -0.11447341400E+03 -0.30900241210E+03  0.67960903907E+03  0.15294330000E+03 0.  0.
    8880022    1    1    2    0    0  0.57436063564E+03  0.11447341400E+03 -0.87482425139E+02  0.61158738543E+03  0.15294330000E+03 0.  0.
<mgrwt>
<rscale>  0 0.60529824E+03</rscale>
<asrwt>0</asrwt>
<pdfrwt beam="1">  1        2 0.12982164E+00 0.60529824E+03</pdfrwt>
<pdfrwt beam="2">  1       -2 0.68823968E-01 0.60529824E+03</pdfrwt>
<totfact> 0.63453786E+01</totfact>
</mgrwt>
</event>
<event>
 4    1  0.2061941E-008  0.1031782E+04  0.7818608E-02  0.9274358E-01
         -2   -1    0    0    0  501 -0.00000000000E+00  0.00000000000E+00  0.13307458842E+04  0.13307458842E+04  0.25500000000E-02 0.  1.
          2   -1    0    0  501    0  0.00000000000E+00 -0.00000000000E+00 -0.12580330019E+04  0.12580330019E+04  0.25500000000E-02 0. -1.
    8880022    1    1    2    0    0 -0.69391656858E+03  0.74810556341E+03  0.81740043015E+03  0.13163271836E+04  0.15294330000E+03 0.  0.
    8880022    1    1    2    0    0  0.69391656858E+03 -0.74810556341E+03 -0.74468754781E+03  0.12724517024E+04  0.15294330000E+03 0.  0.
<mgrwt>
<rscale>  0 0.10317819E+04</rscale>
<asrwt>0</asrwt>
<pdfrwt beam="1">  1        2 0.19354354E+00 0.10317819E+04</pdfrwt>
<pdfrwt beam="2">  1       -2 0.20473013E+00 0.10317819E+04</pdfrwt>
<totfact> 0.21428990E+00</totfact>
</mgrwt>
</event>
<event>
 4    1  0.2061941E-008  0.9566540E+03  0.7818608E-02  0.9357407E-01
         -2   -1    0    0    0  501 -0.00000000000E+00  0.00000000000E+00  0.19620398209E+04  0.19620398209E+04  0.25500000000E-02 0.  1.
          2   -1    0    0  501    0  0.00000000000E+00 -0.00000000000E+00 -0.13682118411E+04  0.13682118411E+04  0.25500000000E-02 0. -1.
    8880022    1    1    2    0    0  0.79522770636E+03  0.50932132148E+03  0.16487285236E+04  0.19061722669E+04  0.15294330000E+03 0.  0.
    8880022    1    1    2    0    0 -0.79522770636E+03 -0.50932132148E+03 -0.10549005438E+04  0.14240793952E+04  0.15294330000E+03 0.  0.
<mgrwt>
<rscale>  0 0.95665405E+03</rscale>
<asrwt>0</asrwt>
<pdfrwt beam="1">  1        2 0.21049413E+00 0.95665405E+03</pdfrwt>
<pdfrwt beam="2">  1       -2 0.30185228E+00 0.95665405E+03</pdfrwt>
<totfact> 0.47294175E-01</totfact>
</mgrwt>
</event>
<event>
 4    1  0.2061941E-008  0.4413590E+03  0.7818608E-02  0.1030331E+00
          2   -1    0    0  501    0  0.00000000000E+00  0.00000000000E+00  0.11096691636E+04  0.11096691636E+04  0.25500000000E-02 0. -1.
         -2   -1    0    0    0  501 -0.00000000000E+00 -0.00000000000E+00 -0.33697804282E+03  0.33697804283E+03  0.25500000000E-02 0.  1.
    8880022    1    1    2    0    0  0.11615303814E+03 -0.39738468302E+03 -0.11429607868E+03  0.45591815185E+03  0.15294330000E+03 0.  0.
    8880022    1    1    2    0    0 -0.11615303814E+03  0.39738468302E+03  0.88698719950E+03  0.99072905461E+03  0.15294330000E+03 0. -1.
<mgrwt>
<rscale>  0 0.44135900E+03</rscale>
<asrwt>0</asrwt>
<pdfrwt beam="1">  1        2 0.17071833E+00 0.44135900E+03</pdfrwt>
<pdfrwt beam="2">  1       -2 0.51842776E-01 0.44135900E+03</pdfrwt>
<totfact> 0.79222352E+01</totfact>
</mgrwt>
</event>
<event>
 4    1  0.2061941E-008  0.1197781E+04  0.7818608E-02  0.9114801E-01
          2   -1    0    0  501    0  0.00000000000E+00  0.00000000000E+00  0.33371017736E+04  0.33371017736E+04  0.25500000000E-02 0. -1.
         -2   -1    0    0    0  501 -0.00000000000E+00 -0.00000000000E+00 -0.60575445902E+03  0.60575445902E+03  0.25500000000E-02 0.  1.
    8880022    1    1    2    0    0 -0.11590897169E+04 -0.26038409557E+03  0.24278263628E+04  0.27072165318E+04  0.15294330000E+03 0.  0.
    8880022    1    1    2    0    0  0.11590897169E+04  0.26038409557E+03  0.30352095181E+03  0.12356397008E+04  0.15294330000E+03 0.  0.
<mgrwt>
<rscale>  0 0.11977815E+04</rscale>
<asrwt>0</asrwt>
<pdfrwt beam="1">  1        2 0.51340027E+00 0.11977815E+04</pdfrwt>
<pdfrwt beam="2">  1       -2 0.93192995E-01 0.11977815E+04</pdfrwt>
<totfact> 0.10234466E+00</totfact>
</mgrwt>
</event>
<event>
 4    1  0.2061941E-008  0.1628383E+03  0.7818608E-02  0.1185529E+00
         -2   -1    0    0    0  501 -0.00000000000E+00  0.00000000000E+00  0.53661365398E+02  0.53661365459E+02  0.25500000000E-02 0.  1.
          2   -1    0    0  501    0  0.00000000000E+00 -0.00000000000E+00 -0.23903713647E+04  0.23903713647E+04  0.25500000000E-02 0. -1.
    8880022    1    1    2    0    0 -0.55886755182E+02  0.11600673149E+01 -0.79951873790E+02  0.18140736010E+03  0.15294330000E+03 0.  0.
    8880022    1    1    2    0    0  0.55886755182E+02 -0.11600673149E+01 -0.22567581255E+04  0.22626253701E+04  0.15294330000E+03 0. -1.
<mgrwt>
<rscale>  0 0.16283835E+03</rscale>
<asrwt>0</asrwt>
<pdfrwt beam="1">  1        2 0.36774936E+00 0.16283835E+03</pdfrwt>
<pdfrwt beam="2">  1       -2 0.82555965E-02 0.16283835E+03</pdfrwt>
<totfact> 0.42708670E+02</totfact>
</mgrwt>
</event>
<event>
 4    1  0.2061941E-008  0.5165533E+03  0.7818608E-02  0.1009546E+00
         -2   -1    0    0    0  501 -0.00000000000E+00  0.00000000000E+00  0.35055931690E+03  0.35055931691E+03  0.25500000000E-02 0.  1.
          2   -1    0    0  501    0  0.00000000000E+00 -0.00000000000E+00 -0.37008811819E+04  0.37008811819E+04  0.25500000000E-02 0. -1.
    8880022    1    1    2    0    0 -0.28939700675E+03  0.39960612728E+03  0.13027006512E+03  0.53272659719E+03  0.15294330000E+03 0.  0.
    8880022    1    1    2    0    0  0.28939700675E+03 -0.39960612728E+03 -0.34805919301E+04  0.35187139016E+04  0.15294330000E+03 0.  0.
<mgrwt>
<rscale>  0 0.51655332E+03</rscale>
<asrwt>0</asrwt>
<pdfrwt beam="1">  1        2 0.56936631E+00 0.51655332E+03</pdfrwt>
<pdfrwt beam="2">  1       -2 0.53932205E-01 0.51655332E+03</pdfrwt>
<totfact> 0.22072120E+00</totfact>
</mgrwt>
</event>
<event>
 4    1  0.2061941E-008  0.3389050E+03  0.7818608E-02  0.1067263E+00
         -2   -1    0    0    0  501 -0.00000000000E+00  0.00000000000E+00  0.12554582380E+03  0.12554582383E+03  0.25500000000E-02 0.  1.
          2   -1    0    0  501    0  0.00000000000E+00 -0.00000000000E+00 -0.21590754236E+04  0.21590754236E+04  0.25500000000E-02 0. -1.
    8880022    1    1    2    0    0  0.22592446734E+03  0.20105497655E+03 -0.14960643047E+03  0.37045742751E+03  0.15294330000E+03 0.  0.
    8880022    1    1    2    0    0 -0.22592446734E+03 -0.20105497655E+03 -0.18839231694E+04  0.19141638199E+04  0.15294330000E+03 0.  0.
<mgrwt>
<rscale>  0 0.33890503E+03</rscale>
<asrwt>0</asrwt>
<pdfrwt beam="1">  1        2 0.33216542E+00 0.33890503E+03</pdfrwt>
<pdfrwt beam="2">  1       -2 0.19314744E-01 0.33890503E+03</pdfrwt>
<totfact> 0.13517519E+02</totfact>
</mgrwt>
</event>
<event>
 4    1  0.2061941E-008  0.2973987E+03  0.7818608E-02  0.1086548E+00
          2   -1    0    0  501    0  0.00000000000E+00  0.00000000000E+00  0.78035282682E+03  0.78035282683E+03  0.25500000000E-02 0. -1.
         -2   -1    0    0    0  501 -0.00000000000E+00 -0.00000000000E+00 -0.39274247369E+03  0.39274247370E+03  0.25500000000E-02 0.  1.
    8880022    1    1    2    0    0  0.25505404317E+03  0.13234242395E+01 -0.30091965612E+03  0.42308227195E+03  0.15294330000E+03 0.  0.
    8880022    1    1    2    0    0 -0.25505404317E+03 -0.13234242395E+01  0.68853000925E+03  0.75001302858E+03  0.15294330000E+03 0.  0.
<mgrwt>
<rscale>  0 0.29739867E+03</rscale>
<asrwt>0</asrwt>
<pdfrwt beam="1">  1        2 0.12005428E+00 0.29739867E+03</pdfrwt>
<pdfrwt beam="2">  1       -2 0.60421920E-01 0.29739867E+03</pdfrwt>
<totfact> 0.96233689E+01</totfact>
</mgrwt>
</event>
<event>
 4    1  0.2061941E-008  0.6958352E+03  0.7818608E-02  0.9724381E-01
         -2   -1    0    0    0  501 -0.00000000000E+00  0.00000000000E+00  0.61493986253E+03  0.61493986253E+03  0.25500000000E-02 0.  1.
          2   -1    0    0  501    0  0.00000000000E+00 -0.00000000000E+00 -0.10957480623E+04  0.10957480623E+04  0.25500000000E-02 0. -1.
    8880022    1    1    2    0    0  0.66860439139E+03  0.11731622015E+03  0.21335525801E+03  0.72780976005E+03  0.15294330000E+03 0.  0.
    8880022    1    1    2    0    0 -0.66860439139E+03 -0.11731622015E+03 -0.69416345780E+03  0.98287816481E+03  0.15294330000E+03 0.  0.
<mgrwt>
<rscale>  0 0.69583517E+03</rscale>
<asrwt>0</asrwt>
<pdfrwt beam="1">  1        2 0.16857662E+00 0.69583517E+03</pdfrwt>
<pdfrwt beam="2">  1       -2 0.94606133E-01 0.69583517E+03</pdfrwt>
<totfact> 0.21118418E+01</totfact>
</mgrwt>
</event>
<event>
 4    1  0.2061941E-008  0.1139150E+04  0.7818608E-02  0.9167852E-01
         -2   -1    0    0    0  501 -0.00000000000E+00  0.00000000000E+00  0.14322380019E+04  0.14322380019E+04  0.25500000000E-02 0.  1.
          2   -1    0    0  501    0  0.00000000000E+00 -0.00000000000E+00 -0.94432198041E+03  0.94432198041E+03  0.25500000000E-02 0. -1.
    8880022    1    1    2    0    0  0.11197469906E+04  0.14295944207E+03  0.48321575163E+03  0.12374004366E+04  0.15294330000E+03 0.  0.
    8880022    1    1    2    0    0 -0.11197469906E+04 -0.14295944207E+03  0.47002698336E+01  0.11391595457E+04  0.15294330000E+03 0.  0.
<mgrwt>
<rscale>  0 0.11391498E+04</rscale>
<asrwt>0</asrwt>
<pdfrwt beam="1">  1        2 0.14528030E+00 0.11391498E+04</pdfrwt>
<pdfrwt beam="2">  1       -2 0.22034431E+00 0.11391498E+04</pdfrwt>
<totfact> 0.26371247E+00</totfact>
</mgrwt>
</event>
<event>
 4    1  0.2061941E-008  0.1637793E+04  0.7818608E-02  0.8797661E-01
          2   -1    0    0  501    0  0.00000000000E+00  0.00000000000E+00  0.46744939464E+04  0.46744939464E+04  0.25500000000E-02 0. -1.
         -2   -1    0    0    0  501 -0.00000000000E+00 -0.00000000000E+00 -0.69414769897E+03  0.69414769898E+03  0.25500000000E-02 0.  1.
    8880022    1    1    2    0    0 -0.71177150576E+03 -0.14670913181E+04  0.87260937218E+03  0.18557517025E+04  0.15294330000E+03 0.  0.
    8880022    1    1    2    0    0  0.71177150576E+03  0.14670913181E+04  0.31077368753E+04  0.35128899429E+04  0.15294330000E+03 0.  0.
<mgrwt>
<rscale>  0 0.16377934E+04</rscale>
<asrwt>0</asrwt>
<pdfrwt beam="1">  1        2 0.71915293E+00 0.16377934E+04</pdfrwt>
<pdfrwt beam="2">  1       -2 0.10679195E+00 0.16377934E+04</pdfrwt>
<totfact> 0.55595862E-02</totfact>
</mgrwt>
</event>
<event>
 4    1  0.2061941E-008  0.1257465E+04  0.7818608E-02  0.9063993E-01
         -2   -1    0    0    0  501 -0.00000000000E+00  0.00000000000E+00  0.10730424325E+04  0.10730424325E+04  0.25500000000E-02 0.  1.
          2   -1    0    0  501    0  0.00000000000E+00 -0.00000000000E+00 -0.28743979696E+04  0.28743979696E+04  0.25500000000E-02 0. -1.
    8880022    1    1    2    0    0  0.26509671890E+03 -0.12196518896E+04  0.47717336523E+03  0.13449583918E+04  0.15294330000E+03 0.  0.
    8880022    1    1    2    0    0 -0.26509671890E+03  0.12196518896E+04 -0.22785289024E+04  0.26024820103E+04  0.15294330000E+03 0.  0.
<mgrwt>
<rscale>  0 0.12574652E+04</rscale>
<asrwt>0</asrwt>
<pdfrwt beam="1">  1        2 0.44221507E+00 0.12574652E+04</pdfrwt>
<pdfrwt beam="2">  1       -2 0.16508345E+00 0.12574652E+04</pdfrwt>
<totfact> 0.46903941E-01</totfact>
</mgrwt>
</event>
<event>
 4    1  0.2061941E-008  0.7079863E+03  0.7818608E-02  0.9703671E-01
         -2   -1    0    0    0  501 -0.00000000000E+00  0.00000000000E+00  0.48598317553E+03  0.48598317554E+03  0.25500000000E-02 0.  1.
          2   -1    0    0  501    0  0.00000000000E+00 -0.00000000000E+00 -0.27964658885E+04  0.27964658885E+04  0.25500000000E-02 0. -1.
    8880022    1    1    2    0    0 -0.51126713168E+03 -0.46525144984E+03 -0.24591383785E+04  0.25590244643E+04  0.15294330000E+03 0.  0.
    8880022    1    1    2    0    0  0.51126713168E+03  0.46525144984E+03  0.14865566553E+03  0.72342459968E+03  0.15294330000E+03 0.  0.
<mgrwt>
<rscale>  0 0.70798633E+03</rscale>
<asrwt>0</asrwt>
<pdfrwt beam="1">  1        2 0.43022551E+00 0.70798633E+03</pdfrwt>
<pdfrwt beam="2">  1       -2 0.74766644E-01 0.70798633E+03</pdfrwt>
<totfact> 0.39921069E+00</totfact>
</mgrwt>
</event>
<event>
 4    1  0.2061941E-008  0.1171041E+04  0.7818608E-02  0.9138589E-01
          2   -1    0    0  501    0  0.00000000000E+00  0.00000000000E+00  0.33178746037E+04  0.33178746037E+04  0.25500000000E-02 0. -1.
         -2   -1    0    0    0  501 -0.00000000000E+00 -0.00000000000E+00 -0.74243922510E+03  0.74243922510E+03  0.25500000000E-02 0.  1.
    8880022    1    1    2    0    0 -0.23135871495E+03  0.11377248144E+04  0.26394083196E+04  0.28875270629E+04  0.15294330000E+03 0.  0.
    8880022    1    1    2    0    0  0.23135871495E+03 -0.11377248144E+04 -0.63972940946E+02  0.11727867660E+04  0.15294330000E+03 0.  0.
<mgrwt>
<rscale>  0 0.11710407E+04</rscale>
<asrwt>0</asrwt>
<pdfrwt beam="1">  1        2 0.51044224E+00 0.11710407E+04</pdfrwt>
<pdfrwt beam="2">  1       -2 0.11422142E+00 0.11710407E+04</pdfrwt>
<totfact> 0.64890935E-01</totfact>
</mgrwt>
</event>
<event>
 4    1  0.2061941E-008  0.1952983E+04  0.7818608E-02  0.8628924E-01
         -2   -1    0    0    0  501 -0.00000000000E+00  0.00000000000E+00  0.15102546120E+04  0.15102546120E+04  0.25500000000E-02 0.  1.
          2   -1    0    0  501    0  0.00000000000E+00 -0.00000000000E+00 -0.34091028121E+04  0.34091028121E+04  0.25500000000E-02 0. -1.
    8880022    1    1    2    0    0 -0.16724202289E+04 -0.99687632854E+03  0.30281602402E+03  0.19763200737E+04  0.15294330000E+03 0.  0.
    8880022    1    1    2    0    0  0.16724202289E+04  0.99687632854E+03 -0.22016642241E+04  0.29430373503E+04  0.15294330000E+03 0.  0.
<mgrwt>
<rscale>  0 0.19529832E+04</rscale>
<asrwt>0</asrwt>
<pdfrwt beam="1">  1        2 0.52447735E+00 0.19529832E+04</pdfrwt>
<pdfrwt beam="2">  1       -2 0.23234686E+00 0.19529832E+04</pdfrwt>
<totfact> 0.69468958E-02</totfact>
</mgrwt>
</event>
<event>
 4    1  0.2061941E-008  0.2985782E+03  0.7818608E-02  0.1085954E+00
         -2   -1    0    0    0  501 -0.00000000000E+00  0.00000000000E+00  0.10079735054E+04  0.10079735054E+04  0.25500000000E-02 0.  1.
          2   -1    0    0  501    0  0.00000000000E+00 -0.00000000000E+00 -0.34459844567E+03  0.34459844568E+03  0.25500000000E-02 0. -1.
    8880022    1    1    2    0    0 -0.22640021460E+03  0.12041684553E+03 -0.25138812685E+03  0.39031387010E+03  0.15294330000E+03 0.  0.
    8880022    1    1    2    0    0  0.22640021460E+03 -0.12041684553E+03  0.91476318653E+03  0.96225808093E+03  0.15294330000E+03 0.  0.
<mgrwt>
<rscale>  0 0.29857818E+03</rscale>
<asrwt>0</asrwt>
<pdfrwt beam="1">  1        2 0.53015146E-01 0.29857818E+03</pdfrwt>
<pdfrwt beam="2">  1       -2 0.15507284E+00 0.29857818E+03</pdfrwt>
<totfact> 0.27479449E+01</totfact>
</mgrwt>
</event>
<event>
 4    1  0.2061941E-008  0.6708548E+03  0.7818608E-02  0.9768415E-01
         -2   -1    0    0    0  501 -0.00000000000E+00  0.00000000000E+00  0.64148558967E+03  0.64148558968E+03  0.25500000000E-02 0.  1.
          2   -1    0    0  501    0  0.00000000000E+00 -0.00000000000E+00 -0.26504190627E+04  0.26504190627E+04  0.25500000000E-02 0. -1.
    8880022    1    1    2    0    0 -0.19620390053E+03  0.62302369594E+03 -0.24158638883E+04  0.25072783005E+04  0.15294330000E+03 0.  0.
    8880022    1    1    2    0    0  0.19620390053E+03 -0.62302369594E+03  0.40693041523E+03  0.78462635193E+03  0.15294330000E+03 0.  0.
<mgrwt>
<rscale>  0 0.67085479E+03</rscale>
<asrwt>0</asrwt>
<pdfrwt beam="1">  1        2 0.40775677E+00 0.67085479E+03</pdfrwt>
<pdfrwt beam="2">  1       -2 0.98690092E-01 0.67085479E+03</pdfrwt>
<totfact> 0.25981820E+00</totfact>
</mgrwt>
</event>
<event>
 4    1  0.2061941E-008  0.8872003E+03  0.7818608E-02  0.9441725E-01
          2   -1    0    0  501    0  0.00000000000E+00  0.00000000000E+00  0.22909159679E+04  0.22909159679E+04  0.25500000000E-02 0. -1.
         -2   -1    0    0    0  501 -0.00000000000E+00 -0.00000000000E+00 -0.37815846397E+03  0.37815846398E+03  0.25500000000E-02 0.  1.
    8880022    1    1    2    0    0  0.85405069051E+03 -0.18528402102E+03  0.13598987964E+04  0.16237146116E+04  0.15294330000E+03 0.  0.
    8880022    1    1    2    0    0 -0.85405069051E+03  0.18528402102E+03  0.55285870753E+03  0.10453598203E+04  0.15294330000E+03 0.  0.
<mgrwt>
<rscale>  0 0.88720032E+03</rscale>
<asrwt>0</asrwt>
<pdfrwt beam="1">  1        2 0.35244861E+00 0.88720032E+03</pdfrwt>
<pdfrwt beam="2">  1       -2 0.58178225E-01 0.88720032E+03</pdfrwt>
<totfact> 0.12960457E+01</totfact>
</mgrwt>
</event>
<event>
 4    1  0.2061941E-008  0.8643660E+03  0.7818608E-02  0.9471256E-01
          2   -1    0    0  501    0  0.00000000000E+00  0.00000000000E+00  0.13431864782E+04  0.13431864782E+04  0.25500000000E-02 0. -1.
         -2   -1    0    0    0  501 -0.00000000000E+00 -0.00000000000E+00 -0.65299387663E+03  0.65299387663E+03  0.25500000000E-02 0.  1.
    8880022    1    1    2    0    0 -0.40438794814E+02  0.84976562804E+03 -0.39104762494E+02  0.86525011077E+03  0.15294330000E+03 0.  0.
    8880022    1    1    2    0    0  0.40438794814E+02 -0.84976562804E+03  0.72929736409E+03  0.11309302441E+04  0.15294330000E+03 0.  0.
<mgrwt>
<rscale>  0 0.86436599E+03</rscale>
<asrwt>0</asrwt>
<pdfrwt beam="1">  1        2 0.20664407E+00 0.86436599E+03</pdfrwt>
<pdfrwt beam="2">  1       -2 0.10046060E+00 0.86436599E+03</pdfrwt>
<totfact> 0.12852299E+01</totfact>
</mgrwt>
</event>
<event>
 4    1  0.2061941E-008  0.5883585E+03  0.7818608E-02  0.9929857E-01
         -2   -1    0    0    0  501 -0.00000000000E+00  0.00000000000E+00  0.55450687008E+03  0.55450687009E+03  0.25500000000E-02 0.  1.
          2   -1    0    0  501    0  0.00000000000E+00 -0.00000000000E+00 -0.14106184027E+04  0.14106184027E+04  0.25500000000E-02 0. -1.
    8880022    1    1    2    0    0  0.11981966866E+03  0.55535330051E+03 -0.11616588348E+04  0.13021585706E+04  0.15294330000E+03 0.  0.
    8880022    1    1    2    0    0 -0.11981966866E+03 -0.55535330051E+03  0.30554730218E+03  0.66296670224E+03  0.15294330000E+03 0.  1.
<mgrwt>
<rscale>  0 0.58835847E+03</rscale>
<asrwt>0</asrwt>
<pdfrwt beam="1">  1        2 0.21701821E+00 0.58835847E+03</pdfrwt>
<pdfrwt beam="2">  1       -2 0.85308750E-01 0.58835847E+03</pdfrwt>
<totfact> 0.17828884E+01</totfact>
</mgrwt>
</event>
<event>
 4    1  0.2061941E-008  0.1591096E+04  0.7818608E-02  0.8826037E-01
         -2   -1    0    0    0  501 -0.00000000000E+00  0.00000000000E+00  0.73579179794E+03  0.73579179795E+03  0.25500000000E-02 0.  1.
          2   -1    0    0  501    0  0.00000000000E+00 -0.00000000000E+00 -0.41168474020E+04  0.41168474020E+04  0.25500000000E-02 0. -1.
    8880022    1    1    2    0    0  0.11516350204E+04 -0.10871671729E+04 -0.70717628390E+03  0.17411736363E+04  0.15294330000E+03 0.  0.
    8880022    1    1    2    0    0 -0.11516350204E+04  0.10871671729E+04 -0.26738793202E+04  0.31114655637E+04  0.15294330000E+03 0.  0.
<mgrwt>
<rscale>  0 0.15910963E+04</rscale>
<asrwt>0</asrwt>
<pdfrwt beam="1">  1        2 0.63336112E+00 0.15910963E+04</pdfrwt>
<pdfrwt beam="2">  1       -2 0.11319874E+00 0.15910963E+04</pdfrwt>
<totfact> 0.16081406E-01</totfact>
</mgrwt>
</event>
<event>
 4    1  0.2061941E-008  0.1240697E+04  0.7818608E-02  0.9077962E-01
          2   -1    0    0  501    0  0.00000000000E+00  0.00000000000E+00  0.16841046517E+04  0.16841046517E+04  0.25500000000E-02 0. -1.
         -2   -1    0    0    0  501 -0.00000000000E+00 -0.00000000000E+00 -0.16508810039E+04  0.16508810039E+04  0.25500000000E-02 0.  1.
    8880022    1    1    2    0    0 -0.88628232759E+03  0.85465811713E+03  0.11306365235E+04  0.16785909158E+04  0.15294330000E+03 0.  0.
    8880022    1    1    2    0    0  0.88628232759E+03 -0.85465811713E+03 -0.10974128757E+04  0.16563947398E+04  0.15294330000E+03 0.  0.
<mgrwt>
<rscale>  0 0.12406968E+04</rscale>
<asrwt>0</asrwt>
<pdfrwt beam="1">  1        2 0.25909302E+00 0.12406968E+04</pdfrwt>
<pdfrwt beam="2">  1       -2 0.25398169E+00 0.12406968E+04</pdfrwt>
<totfact> 0.58783653E-01</totfact>
</mgrwt>
</event>
<event>
 4    1  0.2061941E-008  0.9470708E+03  0.7818608E-02  0.9368581E-01
          2   -1    0    0  501    0  0.00000000000E+00  0.00000000000E+00  0.16757909314E+04  0.16757909314E+04  0.25500000000E-02 0. -1.
         -2   -1    0    0    0  501 -0.00000000000E+00 -0.00000000000E+00 -0.72957863170E+03  0.72957863171E+03  0.25500000000E-02 0.  1.
    8880022    1    1    2    0    0 -0.23485576131E+03 -0.90465144784E+03  0.10938324451E+04  0.14468630003E+04  0.15294330000E+03 0.  0.
    8880022    1    1    2    0    0  0.23485576131E+03  0.90465144784E+03 -0.14762014535E+03  0.95850656285E+03  0.15294330000E+03 0.  0.
<mgrwt>
<rscale>  0 0.94707081E+03</rscale>
<asrwt>0</asrwt>
<pdfrwt beam="1">  1        2 0.25781399E+00 0.94707081E+03</pdfrwt>
<pdfrwt beam="2">  1       -2 0.11224287E+00 0.94707081E+03</pdfrwt>
<totfact> 0.63413533E+00</totfact>
</mgrwt>
</event>
<event>
 4    1  0.2061941E-008  0.1591074E+03  0.7818608E-02  0.1189708E+00
         -2   -1    0    0    0  501 -0.00000000000E+00  0.00000000000E+00  0.15089558628E+03  0.15089558630E+03  0.25500000000E-02 0.  1.
          2   -1    0    0  501    0  0.00000000000E+00 -0.00000000000E+00 -0.17207884782E+04  0.17207884782E+04  0.25500000000E-02 0. -1.
    8880022    1    1    2    0    0 -0.36561444517E+01  0.43705027206E+02  0.10410659626E+03  0.19014029872E+03  0.15294330000E+03 0.  1.
    8880022    1    1    2    0    0  0.36561444517E+01 -0.43705027206E+02 -0.16739994881E+04  0.16815437657E+04  0.15294330000E+03 0.  0.
<mgrwt>
<rscale>  0 0.15910735E+03</rscale>
<asrwt>0</asrwt>
<pdfrwt beam="1">  1        2 0.26473667E+00 0.15910735E+03</pdfrwt>
<pdfrwt beam="2">  1       -2 0.23214707E-01 0.15910735E+03</pdfrwt>
<totfact> 0.17607430E+02</totfact>
</mgrwt>
</event>
<event>
 4    1  0.2061941E-008  0.9828038E+03  0.7818608E-02  0.9327609E-01
          2   -1    0    0  501    0  0.00000000000E+00  0.00000000000E+00  0.62390969730E+03  0.62390969731E+03  0.25500000000E-02 0. -1.
         -2   -1    0    0    0  501 -0.00000000000E+00 -0.00000000000E+00 -0.18609561534E+04  0.18609561534E+04  0.25500000000E-02 0.  1.
    8880022    1    1    2    0    0 -0.19197206360E+03 -0.95166088628E+03 -0.10913931143E+03  0.98884516381E+03  0.15294330000E+03 0.  0.
    8880022    1    1    2    0    0  0.19197206360E+03  0.95166088628E+03 -0.11279071447E+04  0.14960206869E+04  0.15294330000E+03 0.  0.
<mgrwt>
<rscale>  0 0.98280383E+03</rscale>
<asrwt>0</asrwt>
<pdfrwt beam="1">  1        2 0.95986108E-01 0.98280383E+03</pdfrwt>
<pdfrwt beam="2">  1       -2 0.28630094E+00 0.98280383E+03</pdfrwt>
<totfact> 0.18334259E+00</totfact>
</mgrwt>
</event>
<event>
 4    1  0.2061941E-008  0.1112668E+04  0.7818608E-02  0.9192932E-01
          2   -1    0    0  501    0  0.00000000000E+00  0.00000000000E+00  0.13452972001E+04  0.13452972001E+04  0.25500000000E-02 0. -1.
         -2   -1    0    0    0  501 -0.00000000000E+00 -0.00000000000E+00 -0.10720220588E+04  0.10720220589E+04  0.25500000000E-02 0.  1.
    8880022    1    1    2    0    0  0.12622863750E+03  0.10948539898E+04 -0.31811578389E+03  0.11572502897E+04  0.15294330000E+03 0.  0.
    8880022    1    1    2    0    0 -0.12622863750E+03 -0.10948539898E+04  0.59139092512E+03  0.12600689693E+04  0.15294330000E+03 0.  0.
<mgrwt>
<rscale>  0 0.11126682E+04</rscale>
<asrwt>0</asrwt>
<pdfrwt beam="1">  1        2 0.20696880E+00 0.11126682E+04</pdfrwt>
<pdfrwt beam="2">  1       -2 0.16492647E+00 0.11126682E+04</pdfrwt>
<totfact> 0.35335650E+00</totfact>
</mgrwt>
</event>
<event>
 4    1  0.2061941E-008  0.1642351E+04  0.7818608E-02  0.8794945E-01
          2   -1    0    0  501    0  0.00000000000E+00  0.00000000000E+00  0.22180820026E+04  0.22180820026E+04  0.25500000000E-02 0. -1.
         -2   -1    0    0    0  501 -0.00000000000E+00 -0.00000000000E+00 -0.26017188625E+04  0.26017188625E+04  0.25500000000E-02 0.  1.
    8880022    1    1    2    0    0  0.57848714017E+03 -0.15294695477E+04 -0.19505412926E+04  0.25498877340E+04  0.15294330000E+03 0.  0.
    8880022    1    1    2    0    0 -0.57848714017E+03  0.15294695477E+04  0.15669044327E+04  0.22699131312E+04  0.15294330000E+03 0.  0.
<mgrwt>
<rscale>  0 0.16423508E+04</rscale>
<asrwt>0</asrwt>
<pdfrwt beam="1">  1        2 0.34124339E+00 0.16423508E+04</pdfrwt>
<pdfrwt beam="2">  1       -2 0.40026444E+00 0.16423508E+04</pdfrwt>
<totfact> 0.34365823E-02</totfact>
</mgrwt>
</event>
<event>
 4    1  0.2061941E-008  0.4228306E+03  0.7818608E-02  0.1036149E+00
         -2   -1    0    0    0  501 -0.00000000000E+00  0.00000000000E+00  0.31332931435E+03  0.31332931436E+03  0.25500000000E-02 0.  1.
          2   -1    0    0  501    0  0.00000000000E+00 -0.00000000000E+00 -0.87518590390E+03  0.87518590390E+03  0.25500000000E-02 0. -1.
    8880022    1    1    2    0    0  0.38687551059E+03  0.75640215604E+02 -0.63150203548E+03  0.75998722143E+03  0.15294330000E+03 0.  0.
    8880022    1    1    2    0    0 -0.38687551059E+03 -0.75640215604E+02  0.69645445930E+02  0.42852799683E+03  0.15294330000E+03 0.  0.
<mgrwt>
<rscale>  0 0.42283065E+03</rscale>
<asrwt>0</asrwt>
<pdfrwt beam="1">  1        2 0.13464398E+00 0.42283065E+03</pdfrwt>
<pdfrwt beam="2">  1       -2 0.48204510E-01 0.42283065E+03</pdfrwt>
<totfact> 0.12923787E+02</totfact>
</mgrwt>
</event>
<event>
 4    1  0.2061941E-008  0.3787824E+03  0.7818608E-02  0.1051385E+00
         -2   -1    0    0    0  501 -0.00000000000E+00  0.00000000000E+00  0.19188053605E+04  0.19188053605E+04  0.25500000000E-02 0.  1.
          2   -1    0    0  501    0  0.00000000000E+00 -0.00000000000E+00 -0.90220443001E+03  0.90220443001E+03  0.25500000000E-02 0. -1.
    8880022    1    1    2    0    0 -0.77802627632E+02 -0.33768501795E+03 -0.84248990938E+03  0.92372361702E+03  0.15294330000E+03 0. -1.
    8880022    1    1    2    0    0  0.77802627632E+02  0.33768501795E+03  0.18590908399E+04  0.18972861735E+04  0.15294330000E+03 0.  0.
<mgrwt>
<rscale>  0 0.37878236E+03</rscale>
<asrwt>0</asrwt>
<pdfrwt beam="1">  1        2 0.13880068E+00 0.37878236E+03</pdfrwt>
<pdfrwt beam="2">  1       -2 0.29520082E+00 0.37878236E+03</pdfrwt>
<totfact> 0.11429612E+00</totfact>
</mgrwt>
</event>
<event>
 4    1  0.2061941E-008  0.8827913E+03  0.7818608E-02  0.9447353E-01
         -2   -1    0    0    0  501 -0.00000000000E+00  0.00000000000E+00  0.14470706707E+04  0.14470706707E+04  0.25500000000E-02 0.  1.
          2   -1    0    0  501    0  0.00000000000E+00 -0.00000000000E+00 -0.65225218575E+03  0.65225218575E+03  0.25500000000E-02 0. -1.
    8880022    1    1    2    0    0 -0.45093380558E+03 -0.74336227675E+03 -0.40844056783E+02  0.88373562874E+03  0.15294330000E+03 0.  0.
    8880022    1    1    2    0    0  0.45093380558E+03  0.74336227675E+03  0.83566254173E+03  0.12155872277E+04  0.15294330000E+03 0.  0.
<mgrwt>
<rscale>  0 0.88279127E+03</rscale>
<asrwt>0</asrwt>
<pdfrwt beam="1">  1        2 0.10034649E+00 0.88279127E+03</pdfrwt>
<pdfrwt beam="2">  1       -2 0.22262625E+00 0.88279127E+03</pdfrwt>
<totfact> 0.42927717E+00</totfact>
</mgrwt>
</event>
<event>
 4    1  0.2542947E-008  0.9391070E+03  0.7818608E-02  0.9377974E-01
         -2   -1    0    0    0  501 -0.00000000000E+00  0.00000000000E+00  0.30401683102E+04  0.30401683102E+04  0.25500000000E-02 0.  1.
          2   -1    0    0  501    0  0.00000000000E+00 -0.00000000000E+00 -0.28187033356E+04  0.28187033356E+04  0.25500000000E-02 0. -1.
    8880022    1    1    2    0    0 -0.92626466918E+03  0.23748551471E+02 -0.26638684628E+04  0.28245560839E+04  0.15294330000E+03 0.  0.
    8880022    1    1    2    0    0  0.92626466918E+03 -0.23748551471E+02  0.28853334374E+04  0.30343155618E+04  0.15294330000E+03 0.  0.
<mgrwt>
<rscale>  0 0.93910696E+03</rscale>
<asrwt>0</asrwt>
<pdfrwt beam="1">  1        2 0.43364667E+00 0.93910696E+03</pdfrwt>
<pdfrwt beam="2">  1       -2 0.46771820E+00 0.93910696E+03</pdfrwt>
<totfact> 0.63025807E-03</totfact>
</mgrwt>
</event>
<event>
 4    1  0.2061941E-008  0.6919868E+03  0.7818608E-02  0.9731035E-01
          2   -1    0    0  501    0  0.00000000000E+00  0.00000000000E+00  0.31700303602E+04  0.31700303602E+04  0.25500000000E-02 0. -1.
         -2   -1    0    0    0  501 -0.00000000000E+00 -0.00000000000E+00 -0.36787252583E+03  0.36787252584E+03  0.25500000000E-02 0.  1.
    8880022    1    1    2    0    0 -0.34753333980E+03 -0.57851076796E+03  0.27591278630E+04  0.28445794678E+04  0.15294330000E+03 0.  0.
    8880022    1    1    2    0    0  0.34753333980E+03  0.57851076796E+03  0.43029971370E+02  0.69332341830E+03  0.15294330000E+03 0.  0.
<mgrwt>
<rscale>  0 0.69198684E+03</rscale>
<asrwt>0</asrwt>
<pdfrwt beam="1">  1        2 0.48769699E+00 0.69198684E+03</pdfrwt>
<pdfrwt beam="2">  1       -2 0.56595772E-01 0.69198684E+03</pdfrwt>
<totfact> 0.43124380E+00</totfact>
</mgrwt>
</event>
<event>
 4    1  0.2061941E-008  0.9426734E+03  0.7818608E-02  0.9373755E-01
         -2   -1    0    0    0  501 -0.00000000000E+00  0.00000000000E+00  0.17144269660E+04  0.17144269660E+04  0.25500000000E-02 0.  1.
          2   -1    0    0  501    0  0.00000000000E+00 -0.00000000000E+00 -0.10338497041E+04  0.10338497041E+04  0.25500000000E-02 0. -1.
    8880022    1    1    2    0    0 -0.90695633563E+03  0.20657137083E+03 -0.63005553517E+03  0.11338444146E+04  0.15294330000E+03 0.  0.
    8880022    1    1    2    0    0  0.90695633563E+03 -0.20657137083E+03  0.13106327970E+04  0.16144322555E+04  0.15294330000E+03 0.  0.
<mgrwt>
<rscale>  0 0.94267342E+03</rscale>
<asrwt>0</asrwt>
<pdfrwt beam="1">  1        2 0.15905380E+00 0.94267342E+03</pdfrwt>
<pdfrwt beam="2">  1       -2 0.26375800E+00 0.94267342E+03</pdfrwt>
<totfact> 0.12763374E+00</totfact>
</mgrwt>
</event>
<event>
 4    1  0.2061941E-008  0.4629998E+03  0.7818608E-02  0.1023915E+00
          2   -1    0    0  501    0  0.00000000000E+00  0.00000000000E+00  0.16024495908E+04  0.16024495908E+04  0.25500000000E-02 0. -1.
         -2   -1    0    0    0  501 -0.00000000000E+00 -0.00000000000E+00 -0.13691426781E+04  0.13691426781E+04  0.25500000000E-02 0.  1.
    8880022    1    1    2    0    0  0.30538003085E+03 -0.31260232782E+03  0.15279973949E+04  0.15966041684E+04  0.15294330000E+03 0.  0.
    8880022    1    1    2    0    0 -0.30538003085E+03  0.31260232782E+03 -0.12946904822E+04  0.13749881004E+04  0.15294330000E+03 0.  0.
<mgrwt>
<rscale>  0 0.46299982E+03</rscale>
<asrwt>0</asrwt>
<pdfrwt beam="1">  1        2 0.24653071E+00 0.46299982E+03</pdfrwt>
<pdfrwt beam="2">  1       -2 0.21063734E+00 0.46299982E+03</pdfrwt>
<totfact> 0.14008511E+00</totfact>
</mgrwt>
</event>
<event>
 4    1  0.2061941E-008  0.1195969E+04  0.7818608E-02  0.9116392E-01
          2   -1    0    0  501    0  0.00000000000E+00  0.00000000000E+00  0.21916667494E+04  0.21916667494E+04  0.25500000000E-02 0. -1.
         -2   -1    0    0    0  501 -0.00000000000E+00 -0.00000000000E+00 -0.88439987343E+03  0.88439987343E+03  0.25500000000E-02 0.  1.
    8880022    1    1    2    0    0 -0.35275798209E+03  0.11324803231E+04 -0.13372491198E+03  0.12034217387E+04  0.15294330000E+03 0.  0.
    8880022    1    1    2    0    0  0.35275798209E+03 -0.11324803231E+04  0.14409917880E+04  0.18726448842E+04  0.15294330000E+03 0.  0.
<mgrwt>
<rscale>  0 0.11959689E+04</rscale>
<asrwt>0</asrwt>
<pdfrwt beam="1">  1        2 0.33717950E+00 0.11959689E+04</pdfrwt>
<pdfrwt beam="2">  1       -2 0.13606152E+00 0.11959689E+04</pdfrwt>
<totfact> 0.19707311E+00</totfact>
</mgrwt>
</event>
<event>
 4    1  0.2061941E-008  0.4784161E+03  0.7818608E-02  0.1019571E+00
          2   -1    0    0  501    0  0.00000000000E+00  0.00000000000E+00  0.10672060365E+04  0.10672060365E+04  0.25500000000E-02 0. -1.
         -2   -1    0    0    0  501 -0.00000000000E+00 -0.00000000000E+00 -0.38095344583E+03  0.38095344583E+03  0.25500000000E-02 0.  1.
    8880022    1    1    2    0    0 -0.20494953257E+03 -0.40433404872E+03  0.82179831204E+03  0.95091243158E+03  0.15294330000E+03 0. -1.
    8880022    1    1    2    0    0  0.20494953257E+03  0.40433404872E+03 -0.13554572139E+03  0.49724705073E+03  0.15294330000E+03 0.  0.
<mgrwt>
<rscale>  0 0.47841612E+03</rscale>
<asrwt>0</asrwt>
<pdfrwt beam="1">  1        2 0.16418554E+00 0.47841612E+03</pdfrwt>
<pdfrwt beam="2">  1       -2 0.58608222E-01 0.47841612E+03</pdfrwt>
<totfact> 0.64943848E+01</totfact>
</mgrwt>
</event>
<event>
 4    1  0.2061941E-008  0.7969407E+03  0.7818608E-02  0.9564456E-01
         -2   -1    0    0    0  501 -0.00000000000E+00  0.00000000000E+00  0.10470830148E+04  0.10470830148E+04  0.25500000000E-02 0.  1.
          2   -1    0    0  501    0  0.00000000000E+00 -0.00000000000E+00 -0.25648632518E+04  0.25648632518E+04  0.25500000000E-02 0. -1.
    8880022    1    1    2    0    0 -0.56434534469E+03 -0.54151375952E+03 -0.23369358868E+04  0.24690856226E+04  0.15294330000E+03 0.  0.
    8880022    1    1    2    0    0  0.56434534469E+03  0.54151375952E+03  0.81915564980E+03  0.11428606439E+04  0.15294330000E+03 0.  0.
<mgrwt>
<rscale>  0 0.79694070E+03</rscale>
<asrwt>0</asrwt>
<pdfrwt beam="1">  1        2 0.39459435E+00 0.79694070E+03</pdfrwt>
<pdfrwt beam="2">  1       -2 0.16108970E+00 0.79694070E+03</pdfrwt>
<totfact> 0.82452386E-01</totfact>
</mgrwt>
</event>
<event>
 4    1  0.2061941E-008  0.1182131E+04  0.7818608E-02  0.9128642E-01
         -2   -1    0    0    0  501 -0.00000000000E+00  0.00000000000E+00  0.89481535645E+03  0.89481535645E+03  0.25500000000E-02 0.  1.
          2   -1    0    0  501    0  0.00000000000E+00 -0.00000000000E+00 -0.17898078036E+04  0.17898078036E+04  0.25500000000E-02 0. -1.
    8880022    1    1    2    0    0 -0.63960299967E+03 -0.98231899896E+03 -0.92669865631E+03  0.15020667980E+04  0.15294330000E+03 0.  0.
    8880022    1    1    2    0    0  0.63960299967E+03  0.98231899896E+03  0.31706209126E+02  0.11825563621E+04  0.15294330000E+03 0.  1.
<mgrwt>
<rscale>  0 0.11821312E+04</rscale>
<asrwt>0</asrwt>
<pdfrwt beam="1">  1        2 0.27535505E+00 0.11821312E+04</pdfrwt>
<pdfrwt beam="2">  1       -2 0.13766390E+00 0.11821312E+04</pdfrwt>
<totfact> 0.31987334E+00</totfact>
</mgrwt>
</event>
<event>
 4    1  0.2061941E-008  0.9341407E+03  0.7818608E-02  0.9383882E-01
          2   -1    0    0  501    0  0.00000000000E+00  0.00000000000E+00  0.25590634083E+04  0.25590634083E+04  0.25500000000E-02 0. -1.
         -2   -1    0    0    0  501 -0.00000000000E+00 -0.00000000000E+00 -0.52414014532E+03  0.52414014533E+03  0.25500000000E-02 0.  1.
    8880022    1    1    2    0    0  0.86954667185E+03  0.30514879140E+03  0.19287385145E+04  0.21430471553E+04  0.15294330000E+03 0.  0.
    8880022    1    1    2    0    0 -0.86954667185E+03 -0.30514879140E+03  0.10618474841E+03  0.94015639829E+03  0.15294330000E+03 0.  0.
<mgrwt>
<rscale>  0 0.93414070E+03</rscale>
<asrwt>0</asrwt>
<pdfrwt beam="1">  1        2 0.39370205E+00 0.93414070E+03</pdfrwt>
<pdfrwt beam="2">  1       -2 0.80636947E-01 0.93414070E+03</pdfrwt>
<totfact> 0.44574474E+00</totfact>
</mgrwt>
</event>
<event>
 4    1  0.2061941E-008  0.1486703E+04  0.7818608E-02  0.8893344E-01
          2   -1    0    0  501    0  0.00000000000E+00  0.00000000000E+00  0.23983331015E+04  0.23983331015E+04  0.25500000000E-02 0. -1.
         -2   -1    0    0    0  501 -0.00000000000E+00 -0.00000000000E+00 -0.15424512534E+04  0.15424512534E+04  0.25500000000E-02 0.  1.
    8880022    1    1    2    0    0  0.86974239202E+03 -0.11960113126E+04 -0.82215473407E+03  0.16988893278E+04  0.15294330000E+03 0.  0.
    8880022    1    1    2    0    0 -0.86974239202E+03  0.11960113126E+04  0.16780365822E+04  0.22418950271E+04  0.15294330000E+03 0.  0.
<mgrwt>
<rscale>  0 0.14867032E+04</rscale>
<asrwt>0</asrwt>
<pdfrwt beam="1">  1        2 0.36897432E+00 0.14867032E+04</pdfrwt>
<pdfrwt beam="2">  1       -2 0.23730019E+00 0.14867032E+04</pdfrwt>
<totfact> 0.28809777E-01</totfact>
</mgrwt>
</event>
<event>
 4    1  0.2061941E-008  0.7104392E+03  0.7818608E-02  0.9699545E-01
         -2   -1    0    0    0  501 -0.00000000000E+00  0.00000000000E+00  0.10504837395E+04  0.10504837395E+04  0.25500000000E-02 0.  1.
          2   -1    0    0  501    0  0.00000000000E+00 -0.00000000000E+00 -0.26379714646E+04  0.26379714646E+04  0.25500000000E-02 0. -1.
    8880022    1    1    2    0    0 -0.31754217667E+03  0.61684609030E+03  0.87409936300E+03  0.11263984564E+04  0.15294330000E+03 0.  0.
    8880022    1    1    2    0    0  0.31754217667E+03 -0.61684609030E+03 -0.24615870882E+04  0.25620567478E+04  0.15294330000E+03 0.  0.
<mgrwt>
<rscale>  0 0.71043915E+03</rscale>
<asrwt>0</asrwt>
<pdfrwt beam="1">  1        2 0.40584176E+00 0.71043915E+03</pdfrwt>
<pdfrwt beam="2">  1       -2 0.16161288E+00 0.71043915E+03</pdfrwt>
<totfact> 0.75625052E-01</totfact>
</mgrwt>
</event>
<event>
 4    1  0.2061941E-008  0.1961102E+04  0.7818608E-02  0.8625026E-01
         -2   -1    0    0    0  501 -0.00000000000E+00  0.00000000000E+00  0.14008880317E+04  0.14008880317E+04  0.25500000000E-02 0.  1.
          2   -1    0    0  501    0  0.00000000000E+00 -0.00000000000E+00 -0.30864415126E+04  0.30864415126E+04  0.25500000000E-02 0. -1.
    8880022    1    1    2    0    0  0.14541858407E+04  0.13068562723E+04 -0.96899480419E+02  0.19634945730E+04  0.15294330000E+03 0.  0.
    8880022    1    1    2    0    0 -0.14541858407E+04 -0.13068562723E+04 -0.15886540005E+04  0.25238349713E+04  0.15294330000E+03 0.  0.
<mgrwt>
<rscale>  0 0.19611021E+04</rscale>
<asrwt>0</asrwt>
<pdfrwt beam="1">  1        2 0.47483715E+00 0.19611021E+04</pdfrwt>
<pdfrwt beam="2">  1       -2 0.21552124E+00 0.19611021E+04</pdfrwt>
<totfact> 0.14501348E-01</totfact>
</mgrwt>
</event>
<event>
 4    1  0.2061941E-008  0.9987147E+03  0.7818608E-02  0.9309956E-01
          2   -1    0    0  501    0  0.00000000000E+00  0.00000000000E+00  0.86544467163E+03  0.86544467163E+03  0.25500000000E-02 0. -1.
         -2   -1    0    0    0  501 -0.00000000000E+00 -0.00000000000E+00 -0.12688172488E+04  0.12688172488E+04  0.25500000000E-02 0.  1.
    8880022    1    1    2    0    0 -0.84847104345E+03 -0.50411928599E+03  0.12140647062E+03  0.10060668716E+04  0.15294330000E+03 0.  0.
    8880022    1    1    2    0    0  0.84847104345E+03  0.50411928599E+03 -0.52477904776E+03  0.11281950488E+04  0.15294330000E+03 0.  0.
<mgrwt>
<rscale>  0 0.99871468E+03</rscale>
<asrwt>0</asrwt>
<pdfrwt beam="1">  1        2 0.13314533E+00 0.99871468E+03</pdfrwt>
<pdfrwt beam="2">  1       -2 0.19520265E+00 0.99871468E+03</pdfrwt>
<totfact> 0.43964870E+00</totfact>
</mgrwt>
</event>
<event>
 4    1  0.2061941E-008  0.6939928E+03  0.7818608E-02  0.9727561E-01
         -2   -1    0    0    0  501 -0.00000000000E+00  0.00000000000E+00  0.74193939398E+03  0.74193939398E+03  0.25500000000E-02 0.  1.
          2   -1    0    0  501    0  0.00000000000E+00 -0.00000000000E+00 -0.18631772779E+04  0.18631772779E+04  0.25500000000E-02 0. -1.
    8880022    1    1    2    0    0 -0.27164316089E+03  0.62003574972E+03 -0.16120608229E+04  0.17550971732E+04  0.15294330000E+03 0.  0.
    8880022    1    1    2    0    0  0.27164316089E+03 -0.62003574972E+03  0.49082293891E+03  0.85001949870E+03  0.15294330000E+03 0.  0.
<mgrwt>
<rscale>  0 0.69399279E+03</rscale>
<asrwt>0</asrwt>
<pdfrwt beam="1">  1        2 0.28664266E+00 0.69399279E+03</pdfrwt>
<pdfrwt beam="2">  1       -2 0.11414452E+00 0.69399279E+03</pdfrwt>
<totfact> 0.49835172E+00</totfact>
</mgrwt>
</event>
<event>
 4    1  0.2061941E-008  0.4455770E+03  0.7818608E-02  0.1029049E+00
         -2   -1    0    0    0  501 -0.00000000000E+00  0.00000000000E+00  0.35681704612E+03  0.35681704613E+03  0.25500000000E-02 0.  1.
          2   -1    0    0  501    0  0.00000000000E+00 -0.00000000000E+00 -0.23237693076E+04  0.23237693076E+04  0.25500000000E-02 0. -1.
    8880022    1    1    2    0    0 -0.84290267898E+02  0.40992971964E+03 -0.21523426883E+04  0.21979804196E+04  0.15294330000E+03 0. -1.
    8880022    1    1    2    0    0  0.84290267898E+02 -0.40992971964E+03  0.18539042677E+03  0.48260593413E+03  0.15294330000E+03 0.  0.
<mgrwt>
<rscale>  0 0.44557702E+03</rscale>
<asrwt>0</asrwt>
<pdfrwt beam="1">  1        2 0.35750296E+00 0.44557702E+03</pdfrwt>
<pdfrwt beam="2">  1       -2 0.54894932E-01 0.44557702E+03</pdfrwt>
<totfact> 0.15205188E+01</totfact>
</mgrwt>
</event>
<event>
 4    1  0.2061941E-008  0.6195785E+03  0.7818608E-02  0.9865599E-01
         -2   -1    0    0    0  501 -0.00000000000E+00  0.00000000000E+00  0.19053849254E+04  0.19053849254E+04  0.25500000000E-02 0.  1.
          2   -1    0    0  501    0  0.00000000000E+00 -0.00000000000E+00 -0.24229999142E+03  0.24229999143E+03  0.25500000000E-02 0. -1.
    8880022    1    1    2    0    0 -0.61216492094E+02 -0.59727584770E+03  0.39072936385E+03  0.73249367639E+03  0.15294330000E+03 0.  0.
    8880022    1    1    2    0    0  0.61216492094E+02  0.59727584770E+03  0.12723555701E+04  0.14151912404E+04  0.15294330000E+03 0.  0.
<mgrwt>
<rscale>  0 0.61957853E+03</rscale>
<asrwt>0</asrwt>
<pdfrwt beam="1">  1        2 0.37276922E-01 0.61957853E+03</pdfrwt>
<pdfrwt beam="2">  1       -2 0.29313614E+00 0.61957853E+03</pdfrwt>
<totfact> 0.51526500E+00</totfact>
</mgrwt>
</event>
<event>
 4    1  0.2061941E-008  0.5709839E+03  0.7818608E-02  0.9967504E-01
          2   -1    0    0  501    0  0.00000000000E+00  0.00000000000E+00  0.20995858467E+04  0.20995858467E+04  0.25500000000E-02 0. -1.
         -2   -1    0    0    0  501 -0.00000000000E+00 -0.00000000000E+00 -0.46018375160E+03  0.46018375161E+03  0.25500000000E-02 0.  1.
    8880022    1    1    2    0    0  0.21854420232E+02  0.54968477359E+03 -0.22210527398E+03  0.61266089458E+03  0.15294330000E+03 0.  0.
    8880022    1    1    2    0    0 -0.21854420232E+02 -0.54968477359E+03  0.18615073691E+04  0.19471087037E+04  0.15294330000E+03 0.  0.
<mgrwt>
<rscale>  0 0.57098390E+03</rscale>
<asrwt>0</asrwt>
<pdfrwt beam="1">  1        2 0.32301321E+00 0.57098390E+03</pdfrwt>
<pdfrwt beam="2">  1       -2 0.70797500E-01 0.57098390E+03</pdfrwt>
<totfact> 0.11416338E+01</totfact>
</mgrwt>
</event>
<event>
 4    1  0.2061941E-008  0.6550342E+03  0.7818608E-02  0.9797379E-01
          2   -1    0    0  501    0  0.00000000000E+00  0.00000000000E+00  0.27833279601E+04  0.27833279601E+04  0.25500000000E-02 0. -1.
         -2   -1    0    0    0  501 -0.00000000000E+00 -0.00000000000E+00 -0.18266224917E+03  0.18266224919E+03  0.25500000000E-02 0.  1.
    8880022    1    1    2    0    0 -0.40177633691E+03  0.49422046871E+03  0.71449555113E+03  0.96931606929E+03  0.15294330000E+03 0.  0.
    8880022    1    1    2    0    0  0.40177633691E+03 -0.49422046871E+03  0.18861701598E+04  0.19966741400E+04  0.15294330000E+03 0.  0.
<mgrwt>
<rscale>  0 0.65503416E+03</rscale>
<asrwt>0</asrwt>
<pdfrwt beam="1">  1        2 0.42820430E+00 0.65503416E+03</pdfrwt>
<pdfrwt beam="2">  1       -2 0.28101885E-01 0.65503416E+03</pdfrwt>
<totfact> 0.29240198E+01</totfact>
</mgrwt>
</event>
<event>
 4    1  0.2061941E-008  0.5315535E+03  0.7818608E-02  0.1005856E+00
          2   -1    0    0  501    0  0.00000000000E+00  0.00000000000E+00  0.45122086129E+04  0.45122086129E+04  0.25500000000E-02 0. -1.
         -2   -1    0    0    0  501 -0.00000000000E+00 -0.00000000000E+00 -0.13902751632E+03  0.13902751634E+03  0.25500000000E-02 0.  1.
    8880022    1    1    2    0    0 -0.41879951910E+03 -0.28942080593E+03  0.46250242930E+03  0.70459746681E+03  0.15294330000E+03 0.  0.
    8880022    1    1    2    0    0  0.41879951910E+03  0.28942080593E+03  0.39106786673E+04  0.39466386624E+04  0.15294330000E+03 0.  0.
<mgrwt>
<rscale>  0 0.53155347E+03</rscale>
<asrwt>0</asrwt>
<pdfrwt beam="1">  1        2 0.69418586E+00 0.53155347E+03</pdfrwt>
<pdfrwt beam="2">  1       -2 0.21388851E-01 0.53155347E+03</pdfrwt>
<totfact> 0.27438298E+00</totfact>
</mgrwt>
</event>
<event>
 4    1  0.2061941E-008  0.5317310E+03  0.7818608E-02  0.1005813E+00
          2   -1    0    0  501    0  0.00000000000E+00  0.00000000000E+00  0.16499979592E+04  0.16499979593E+04  0.25500000000E-02 0. -1.
         -2   -1    0    0    0  501 -0.00000000000E+00 -0.00000000000E+00 -0.32692612095E+03  0.32692612096E+03  0.25500000000E-02 0.  1.
    8880022    1    1    2    0    0  0.38350308616E+03  0.33506952440E+03  0.13433996617E+04  0.14448046606E+04  0.15294330000E+03 0.  0.
    8880022    1    1    2    0    0 -0.38350308616E+03 -0.33506952440E+03 -0.20327823418E+02  0.53211941958E+03  0.15294330000E+03 0.  0.
<mgrwt>
<rscale>  0 0.53173100E+03</rscale>
<asrwt>0</asrwt>
<pdfrwt beam="1">  1        2 0.25384583E+00 0.53173100E+03</pdfrwt>
<pdfrwt beam="2">  1       -2 0.50296329E-01 0.53173100E+03</pdfrwt>
<totfact> 0.41269090E+01</totfact>
</mgrwt>
</event>
<event>
 4    1  0.2061941E-008  0.1489072E+04  0.7818608E-02  0.8891753E-01
          2   -1    0    0  501    0  0.00000000000E+00  0.00000000000E+00  0.14018691361E+04  0.14018691361E+04  0.25500000000E-02 0. -1.
         -2   -1    0    0    0  501 -0.00000000000E+00 -0.00000000000E+00 -0.21553084794E+04  0.21553084794E+04  0.25500000000E-02 0.  1.
    8880022    1    1    2    0    0  0.14590791061E+04 -0.25501091385E+03  0.54082930199E+03  0.15842444227E+04  0.15294330000E+03 0.  0.
    8880022    1    1    2    0    0 -0.14590791061E+04  0.25501091385E+03 -0.12942686453E+04  0.19729331927E+04  0.15294330000E+03 0.  0.
<mgrwt>
<rscale>  0 0.14890715E+04</rscale>
<asrwt>0</asrwt>
<pdfrwt beam="1">  1        2 0.21567217E+00 0.14890715E+04</pdfrwt>
<pdfrwt beam="2">  1       -2 0.33158592E+00 0.14890715E+04</pdfrwt>
<totfact> 0.27648600E-01</totfact>
</mgrwt>
</event>
<event>
 4    1  0.2061941E-008  0.2581372E+03  0.7818608E-02  0.1108268E+00
         -2   -1    0    0    0  501 -0.00000000000E+00  0.00000000000E+00  0.90003037674E+02  0.90003037710E+02  0.25500000000E-02 0.  1.
          2   -1    0    0  501    0  0.00000000000E+00 -0.00000000000E+00 -0.16128276893E+04  0.16128276893E+04  0.25500000000E-02 0. -1.
    8880022    1    1    2    0    0 -0.19254860709E+02  0.20705651985E+03 -0.13519981245E+03  0.29139971581E+03  0.15294330000E+03 0.  0.
    8880022    1    1    2    0    0  0.19254860709E+02 -0.20705651985E+03 -0.13876248392E+04  0.14114310112E+04  0.15294330000E+03 0.  0.
<mgrwt>
<rscale>  0 0.25813718E+03</rscale>
<asrwt>0</asrwt>
<pdfrwt beam="1">  1        2 0.24812732E+00 0.25813718E+03</pdfrwt>
<pdfrwt beam="2">  1       -2 0.13846622E-01 0.25813718E+03</pdfrwt>
<totfact> 0.46719079E+02</totfact>
</mgrwt>
</event>
<event>
 4    1  0.2061941E-008  0.5688464E+03  0.7818608E-02  0.9972235E-01
          2   -1    0    0  501    0  0.00000000000E+00  0.00000000000E+00  0.16575570794E+04  0.16575570794E+04  0.25500000000E-02 0. -1.
         -2   -1    0    0    0  501 -0.00000000000E+00 -0.00000000000E+00 -0.11273150835E+04  0.11273150836E+04  0.25500000000E-02 0.  1.
    8880022    1    1    2    0    0  0.35352915884E+03  0.41858298583E+03 -0.10010227280E+04  0.11513612540E+04  0.15294330000E+03 0.  0.
    8880022    1    1    2    0    0 -0.35352915884E+03 -0.41858298583E+03  0.15312647238E+04  0.16335109089E+04  0.15294330000E+03 0.  0.
<mgrwt>
<rscale>  0 0.56884641E+03</rscale>
<asrwt>0</asrwt>
<pdfrwt beam="1">  1        2 0.25500878E+00 0.56884641E+03</pdfrwt>
<pdfrwt beam="2">  1       -2 0.17343309E+00 0.56884641E+03</pdfrwt>
<totfact> 0.22345570E+00</totfact>
</mgrwt>
</event>
<event>
 4    1  0.2061941E-008  0.4356345E+03  0.7818608E-02  0.1032095E+00
          2   -1    0    0  501    0  0.00000000000E+00  0.00000000000E+00  0.29571543926E+04  0.29571543926E+04  0.25500000000E-02 0. -1.
         -2   -1    0    0    0  501 -0.00000000000E+00 -0.00000000000E+00 -0.48793506821E+03  0.48793506822E+03  0.25500000000E-02 0.  1.
    8880022    1    1    2    0    0 -0.39226849558E+03  0.11185360869E+03 -0.37066425046E+03  0.57198727432E+03  0.15294330000E+03 0.  0.
    8880022    1    1    2    0    0  0.39226849558E+03 -0.11185360869E+03  0.28398835749E+04  0.28731021865E+04  0.15294330000E+03 0. -1.
<mgrwt>
<rscale>  0 0.43563454E+03</rscale>
<asrwt>0</asrwt>
<pdfrwt beam="1">  1        2 0.45494683E+00 0.43563454E+03</pdfrwt>
<pdfrwt beam="2">  1       -2 0.75066934E-01 0.43563454E+03</pdfrwt>
<totfact> 0.34181683E+00</totfact>
</mgrwt>
</event>
<event>
 4    1  0.2061941E-008  0.8763397E+03  0.7818608E-02  0.9455651E-01
          2   -1    0    0  501    0  0.00000000000E+00  0.00000000000E+00  0.15049356644E+04  0.15049356644E+04  0.25500000000E-02 0. -1.
         -2   -1    0    0    0  501 -0.00000000000E+00 -0.00000000000E+00 -0.72274174576E+03  0.72274174577E+03  0.25500000000E-02 0.  1.
    8880022    1    1    2    0    0  0.24703775852E+03 -0.82677202488E+03 -0.21278059457E+03  0.90180201247E+03  0.15294330000E+03 0.  0.
    8880022    1    1    2    0    0 -0.24703775852E+03  0.82677202488E+03  0.99497451321E+03  0.13258753977E+04  0.15294330000E+03 0.  0.
<mgrwt>
<rscale>  0 0.87633971E+03</rscale>
<asrwt>0</asrwt>
<pdfrwt beam="1">  1        2 0.23152856E+00 0.87633971E+03</pdfrwt>
<pdfrwt beam="2">  1       -2 0.11119104E+00 0.87633971E+03</pdfrwt>
<totfact> 0.81407221E+00</totfact>
</mgrwt>
</event>
<event>
 4    1  0.2061941E-008  0.1080455E+04  0.7818608E-02  0.9224454E-01
         -2   -1    0    0    0  501 -0.00000000000E+00  0.00000000000E+00  0.89575590873E+03  0.89575590874E+03  0.25500000000E-02 0.  1.
          2   -1    0    0  501    0  0.00000000000E+00 -0.00000000000E+00 -0.28862285577E+04  0.28862285577E+04  0.25500000000E-02 0. -1.
    8880022    1    1    2    0    0 -0.70966108812E+03  0.80023321561E+03 -0.23956729481E+04  0.26280472954E+04  0.15294330000E+03 0.  0.
    8880022    1    1    2    0    0  0.70966108812E+03 -0.80023321561E+03  0.40520029915E+03  0.11539371711E+04  0.15294330000E+03 0.  0.
<mgrwt>
<rscale>  0 0.10804553E+04</rscale>
<asrwt>0</asrwt>
<pdfrwt beam="1">  1        2 0.44403516E+00 0.10804553E+04</pdfrwt>
<pdfrwt beam="2">  1       -2 0.13780860E+00 0.10804553E+04</pdfrwt>
<totfact> 0.76756901E-01</totfact>
</mgrwt>
</event>
<event>
 4    1  0.2061941E-008  0.3199438E+03  0.7818608E-02  0.1075675E+00
         -2   -1    0    0    0  501 -0.00000000000E+00  0.00000000000E+00  0.14991650897E+03  0.14991650899E+03  0.25500000000E-02 0.  1.
          2   -1    0    0  501    0  0.00000000000E+00 -0.00000000000E+00 -0.28566637397E+04  0.28566637397E+04  0.25500000000E-02 0. -1.
    8880022    1    1    2    0    0 -0.23896557939E+03 -0.14787774315E+03 -0.26647540881E+04  0.26838923932E+04  0.15294330000E+03 0. -1.
    8880022    1    1    2    0    0  0.23896557939E+03  0.14787774315E+03 -0.41993142630E+02  0.32268785552E+03  0.15294330000E+03 0.  0.
<mgrwt>
<rscale>  0 0.31994379E+03</rscale>
<asrwt>0</asrwt>
<pdfrwt beam="1">  1        2 0.43948669E+00 0.31994379E+03</pdfrwt>
<pdfrwt beam="2">  1       -2 0.23064080E-01 0.31994379E+03</pdfrwt>
<totfact> 0.41006214E+01</totfact>
</mgrwt>
</event>
<event>
 4    1  0.2061941E-008  0.1681469E+04  0.7818608E-02  0.8772005E-01
          2   -1    0    0  501    0  0.00000000000E+00  0.00000000000E+00  0.15478143010E+04  0.15478143010E+04  0.25500000000E-02 0. -1.
         -2   -1    0    0    0  501 -0.00000000000E+00 -0.00000000000E+00 -0.19386693253E+04  0.19386693253E+04  0.25500000000E-02 0.  1.
    8880022    1    1    2    0    0  0.90587591537E+03  0.14083088477E+04 -0.61443822984E+03  0.17902153434E+04  0.15294330000E+03 0.  0.
    8880022    1    1    2    0    0 -0.90587591537E+03 -0.14083088477E+04  0.22358320554E+03  0.16962682828E+04  0.15294330000E+03 0.  0.
<mgrwt>
<rscale>  0 0.16814686E+04</rscale>
<asrwt>0</asrwt>
<pdfrwt beam="1">  1        2 0.23812528E+00 0.16814686E+04</pdfrwt>
<pdfrwt beam="2">  1       -2 0.29825682E+00 0.16814686E+04</pdfrwt>
<totfact> 0.35879153E-01</totfact>
</mgrwt>
</event>
<event>
 4    1  0.2061941E-008  0.5122240E+03  0.7818608E-02  0.1010637E+00
          2   -1    0    0  501    0  0.00000000000E+00  0.00000000000E+00  0.81637742068E+03  0.81637742069E+03  0.25500000000E-02 0. -1.
         -2   -1    0    0    0  501 -0.00000000000E+00 -0.00000000000E+00 -0.54615578366E+03  0.54615578366E+03  0.25500000000E-02 0.  1.
    8880022    1    1    2    0    0 -0.43408548829E+03 -0.22483678749E+03 -0.30193443497E+03  0.59459048781E+03  0.15294330000E+03 0.  0.
    8880022    1    1    2    0    0  0.43408548829E+03  0.22483678749E+03  0.57215607200E+03  0.76794271654E+03  0.15294330000E+03 0.  0.
<mgrwt>
<rscale>  0 0.51222402E+03</rscale>
<asrwt>0</asrwt>
<pdfrwt beam="1">  1        2 0.12559653E+00 0.51222402E+03</pdfrwt>
<pdfrwt beam="2">  1       -2 0.84023967E-01 0.51222402E+03</pdfrwt>
<totfact> 0.43058741E+01</totfact>
</mgrwt>
</event>
<event>
 4    1  0.2061941E-008  0.2842464E+03  0.7818608E-02  0.1093392E+00
         -2   -1    0    0    0  501 -0.00000000000E+00  0.00000000000E+00  0.12779244942E+03  0.12779244945E+03  0.25500000000E-02 0.  1.
          2   -1    0    0  501    0  0.00000000000E+00 -0.00000000000E+00 -0.11402234175E+04  0.11402234175E+04  0.25500000000E-02 0. -1.
    8880022    1    1    2    0    0  0.13210238743E+03  0.19988333637E+03 -0.83037891728E+02  0.29612722502E+03  0.15294330000E+03 0.  0.
    8880022    1    1    2    0    0 -0.13210238743E+03 -0.19988333637E+03 -0.92939307630E+03  0.97188864188E+03  0.15294330000E+03 0. -1.
<mgrwt>
<rscale>  0 0.28424645E+03</rscale>
<asrwt>0</asrwt>
<pdfrwt beam="1">  1        2 0.17541898E+00 0.28424645E+03</pdfrwt>
<pdfrwt beam="2">  1       -2 0.19660378E-01 0.28424645E+03</pdfrwt>
<totfact> 0.47028097E+02</totfact>
</mgrwt>
</event>
<event>
 4    1  0.2061941E-008  0.5138472E+03  0.7818608E-02  0.1010226E+00
         -2   -1    0    0    0  501 -0.00000000000E+00  0.00000000000E+00  0.21684010032E+03  0.21684010034E+03  0.25500000000E-02 0.  1.
          2   -1    0    0  501    0  0.00000000000E+00 -0.00000000000E+00 -0.19209780868E+04  0.19209780868E+04  0.25500000000E-02 0. -1.
    8880022    1    1    2    0    0 -0.15922267929E+03  0.46399939647E+03 -0.20529371426E+03  0.55333937476E+03  0.15294330000E+03 0.  0.
    8880022    1    1    2    0    0  0.15922267929E+03 -0.46399939647E+03 -0.14988442723E+04  0.15844788124E+04  0.15294330000E+03 0. -1.
<mgrwt>
<rscale>  0 0.51384721E+03</rscale>
<asrwt>0</asrwt>
<pdfrwt beam="1">  1        2 0.29553508E+00 0.51384721E+03</pdfrwt>
<pdfrwt beam="2">  1       -2 0.33360017E-01 0.51384721E+03</pdfrwt>
<totfact> 0.65812769E+01</totfact>
</mgrwt>
</event>
<event>
 4    1  0.2061941E-008  0.1232169E+04  0.7818608E-02  0.9085156E-01
         -2   -1    0    0    0  501 -0.00000000000E+00  0.00000000000E+00  0.84669362448E+03  0.84669362449E+03  0.25500000000E-02 0.  1.
          2   -1    0    0  501    0  0.00000000000E+00 -0.00000000000E+00 -0.23572920042E+04  0.23572920042E+04  0.25500000000E-02 0. -1.
    8880022    1    1    2    0    0 -0.11331673494E+04  0.45910740421E+03 -0.15390035432E+04  0.19714896422E+04  0.15294330000E+03 0.  0.
    8880022    1    1    2    0    0  0.11331673494E+04 -0.45910740421E+03  0.28405163430E+02  0.12324959865E+04  0.15294330000E+03 0.  0.
<mgrwt>
<rscale>  0 0.12321686E+04</rscale>
<asrwt>0</asrwt>
<pdfrwt beam="1">  1        2 0.36266031E+00 0.12321686E+04</pdfrwt>
<pdfrwt beam="2">  1       -2 0.13026056E+00 0.12321686E+04</pdfrwt>
<totfact> 0.17705940E+00</totfact>
</mgrwt>
</event>
<event>
 4    1  0.2061941E-008  0.5869892E+03  0.7818608E-02  0.9932773E-01
         -2   -1    0    0    0  501 -0.00000000000E+00  0.00000000000E+00  0.95313384304E+03  0.95313384304E+03  0.25500000000E-02 0.  1.
          2   -1    0    0  501    0  0.00000000000E+00 -0.00000000000E+00 -0.78611074777E+03  0.78611074777E+03  0.25500000000E-02 0. -1.
    8880022    1    1    2    0    0  0.50710857938E+03 -0.25299324815E+03 -0.55561243500E+03  0.80824595627E+03  0.15294330000E+03 0.  0.
    8880022    1    1    2    0    0 -0.50710857938E+03  0.25299324815E+03  0.72263553027E+03  0.93099863454E+03  0.15294330000E+03 0.  0.
<mgrwt>
<rscale>  0 0.58698922E+03</rscale>
<asrwt>0</asrwt>
<pdfrwt beam="1">  1        2 0.12094011E+00 0.58698922E+03</pdfrwt>
<pdfrwt beam="2">  1       -2 0.14663598E+00 0.58698922E+03</pdfrwt>
<totfact> 0.11626405E+01</totfact>
</mgrwt>
</event>
<event>
 4    1  0.2061941E-008  0.4467539E+03  0.7818608E-02  0.1028694E+00
          2   -1    0    0  501    0  0.00000000000E+00  0.00000000000E+00  0.11142200646E+04  0.11142200646E+04  0.25500000000E-02 0. -1.
         -2   -1    0    0    0  501 -0.00000000000E+00 -0.00000000000E+00 -0.10307340043E+04  0.10307340043E+04  0.25500000000E-02 0.  1.
    8880022    1    1    2    0    0  0.39986453758E+03  0.12769407981E+03 -0.93309802773E+03  0.10345341990E+04  0.15294330000E+03 0.  0.
    8880022    1    1    2    0    0 -0.39986453758E+03 -0.12769407981E+03  0.10165840881E+04  0.11104198700E+04  0.15294330000E+03 0.  0.
<mgrwt>
<rscale>  0 0.44675394E+03</rscale>
<asrwt>0</asrwt>
<pdfrwt beam="1">  1        2 0.17141847E+00 0.44675394E+03</pdfrwt>
<pdfrwt beam="2">  1       -2 0.15857446E+00 0.44675394E+03</pdfrwt>
<totfact> 0.59349736E+00</totfact>
</mgrwt>
</event>
<event>
 4    1  0.2061941E-008  0.8886762E+03  0.7818608E-02  0.9439848E-01
         -2   -1    0    0    0  501 -0.00000000000E+00  0.00000000000E+00  0.42963366327E+03  0.42963366327E+03  0.25500000000E-02 0.  1.
          2   -1    0    0  501    0  0.00000000000E+00 -0.00000000000E+00 -0.21744688588E+04  0.21744688588E+04  0.25500000000E-02 0. -1.
    8880022    1    1    2    0    0  0.52313646719E+03  0.70191306386E+03 -0.36037548081E+03  0.95896603314E+03  0.15294330000E+03 0.  0.
    8880022    1    1    2    0    0 -0.52313646719E+03 -0.70191306386E+03 -0.13844597147E+04  0.16451364889E+04  0.15294330000E+03 0.  0.
<mgrwt>
<rscale>  0 0.88867619E+03</rscale>
<asrwt>0</asrwt>
<pdfrwt beam="1">  1        2 0.33453366E+00 0.88867619E+03</pdfrwt>
<pdfrwt beam="2">  1       -2 0.66097488E-01 0.88867619E+03</pdfrwt>
<totfact> 0.11456857E+01</totfact>
</mgrwt>
</event>
<event>
 4    1  0.2061941E-008  0.1183673E+04  0.7818608E-02  0.9127269E-01
          2   -1    0    0  501    0  0.00000000000E+00  0.00000000000E+00  0.45331241112E+04  0.45331241112E+04  0.25500000000E-02 0. -1.
         -2   -1    0    0    0  501 -0.00000000000E+00 -0.00000000000E+00 -0.46785268829E+03  0.46785268830E+03  0.25500000000E-02 0.  1.
    8880022    1    1    2    0    0 -0.31774388535E+03 -0.11299244897E+04  0.34893116646E+04  0.36846136941E+04  0.15294330000E+03 0.  0.
    8880022    1    1    2    0    0  0.31774388535E+03  0.11299244897E+04  0.57595975830E+03  0.13163631054E+04  0.15294330000E+03 0.  0.
<mgrwt>
<rscale>  0 0.11836732E+04</rscale>
<asrwt>0</asrwt>
<pdfrwt beam="1">  1        2 0.69740370E+00 0.11836732E+04</pdfrwt>
<pdfrwt beam="2">  1       -2 0.71977337E-01 0.11836732E+04</pdfrwt>
<totfact> 0.20731802E-01</totfact>
</mgrwt>
</event>
<event>
 4    1  0.2061941E-008  0.7316559E+03  0.7818608E-02  0.9664577E-01
          2   -1    0    0  501    0  0.00000000000E+00  0.00000000000E+00  0.20588399829E+04  0.20588399829E+04  0.25500000000E-02 0. -1.
         -2   -1    0    0    0  501 -0.00000000000E+00 -0.00000000000E+00 -0.14170619021E+04  0.14170619021E+04  0.25500000000E-02 0.  1.
    8880022    1    1    2    0    0 -0.59001180989E+03  0.40474030369E+03 -0.12495439227E+04  0.14479918221E+04  0.15294330000E+03 0.  0.
    8880022    1    1    2    0    0  0.59001180989E+03 -0.40474030369E+03  0.18913220035E+04  0.20279100628E+04  0.15294330000E+03 0.  0.
<mgrwt>
<rscale>  0 0.73165586E+03</rscale>
<asrwt>0</asrwt>
<pdfrwt beam="1">  1        2 0.31674461E+00 0.73165586E+03</pdfrwt>
<pdfrwt beam="2">  1       -2 0.21800952E+00 0.73165586E+03</pdfrwt>
<totfact> 0.66367942E-01</totfact>
</mgrwt>
</event>
<event>
 4    1  0.2061941E-008  0.6641995E+03  0.7818608E-02  0.9780494E-01
          2   -1    0    0  501    0  0.00000000000E+00  0.00000000000E+00  0.28570350890E+04  0.28570350890E+04  0.25500000000E-02 0. -1.
         -2   -1    0    0    0  501 -0.00000000000E+00 -0.00000000000E+00 -0.11311444340E+04  0.11311444340E+04  0.25500000000E-02 0.  1.
    8880022    1    1    2    0    0 -0.48280992972E+03  0.42972542481E+03  0.27159368674E+04  0.27959746225E+04  0.15294330000E+03 0.  0.
    8880022    1    1    2    0    0  0.48280992972E+03 -0.42972542481E+03 -0.99004621246E+03  0.11922049005E+04  0.15294330000E+03 0.  0.
<mgrwt>
<rscale>  0 0.66419953E+03</rscale>
<asrwt>0</asrwt>
<pdfrwt beam="1">  1        2 0.43954386E+00 0.66419953E+03</pdfrwt>
<pdfrwt beam="2">  1       -2 0.17402222E+00 0.66419953E+03</pdfrwt>
<totfact> 0.46481328E-01</totfact>
</mgrwt>
</event>
<event>
 4    1  0.2061941E-008  0.1605766E+04  0.7818608E-02  0.8817014E-01
          2   -1    0    0  501    0  0.00000000000E+00  0.00000000000E+00  0.43079201768E+04  0.43079201768E+04  0.25500000000E-02 0. -1.
         -2   -1    0    0    0  501 -0.00000000000E+00 -0.00000000000E+00 -0.79982852173E+03  0.79982852173E+03  0.25500000000E-02 0.  1.
    8880022    1    1    2    0    0 -0.15852244068E+04  0.20531937024E+03  0.30352111800E+04  0.34338012499E+04  0.15294330000E+03 0.  0.
    8880022    1    1    2    0    0  0.15852244068E+04 -0.20531937024E+03  0.47288047502E+03  0.16739474485E+04  0.15294330000E+03 0.  0.
<mgrwt>
<rscale>  0 0.16057659E+04</rscale>
<asrwt>0</asrwt>
<pdfrwt beam="1">  1        2 0.66275695E+00 0.16057659E+04</pdfrwt>
<pdfrwt beam="2">  1       -2 0.12305054E+00 0.16057659E+04</pdfrwt>
<totfact> 0.89097586E-02</totfact>
</mgrwt>
</event>
<event>
 4    1  0.2061941E-008  0.1283696E+04  0.7818608E-02  0.9042596E-01
         -2   -1    0    0    0  501 -0.00000000000E+00  0.00000000000E+00  0.16104429447E+04  0.16104429447E+04  0.25500000000E-02 0.  1.
          2   -1    0    0  501    0  0.00000000000E+00 -0.00000000000E+00 -0.19608731074E+04  0.19608731074E+04  0.25500000000E-02 0. -1.
    8880022    1    1    2    0    0 -0.59970554216E+02  0.12731402281E+04  0.10595642789E+04  0.16644971078E+04  0.15294330000E+03 0.  0.
    8880022    1    1    2    0    0  0.59970554216E+02 -0.12731402281E+04 -0.14099944416E+04  0.19068189443E+04  0.15294330000E+03 0.  0.
<mgrwt>
<rscale>  0 0.12836955E+04</rscale>
<asrwt>0</asrwt>
<pdfrwt beam="1">  1        2 0.30167279E+00 0.12836955E+04</pdfrwt>
<pdfrwt beam="2">  1       -2 0.24776045E+00 0.12836955E+04</pdfrwt>
<totfact> 0.44820332E-01</totfact>
</mgrwt>
</event>
<event>
 4    1  0.2061941E-008  0.1083095E+04  0.7818608E-02  0.9221828E-01
          2   -1    0    0  501    0  0.00000000000E+00  0.00000000000E+00  0.11582278827E+04  0.11582278827E+04  0.25500000000E-02 0. -1.
         -2   -1    0    0    0  501 -0.00000000000E+00 -0.00000000000E+00 -0.11077658224E+04  0.11077658224E+04  0.25500000000E-02 0.  1.
    8880022    1    1    2    0    0 -0.83973290251E+03 -0.66674640081E+03 -0.30644057517E+03  0.11256107630E+04  0.15294330000E+03 0.  0.
    8880022    1    1    2    0    0  0.83973290251E+03  0.66674640081E+03  0.35690263549E+03  0.11403829422E+04  0.15294330000E+03 0.  0.
<mgrwt>
<rscale>  0 0.10830945E+04</rscale>
<asrwt>0</asrwt>
<pdfrwt beam="1">  1        2 0.17818890E+00 0.10830945E+04</pdfrwt>
<pdfrwt beam="2">  1       -2 0.17042551E+00 0.10830945E+04</pdfrwt>
<totfact> 0.41745862E+00</totfact>
</mgrwt>
</event>
<event>
 4    1  0.2061941E-008  0.7610922E+03  0.7818608E-02  0.9618107E-01
          2   -1    0    0  501    0  0.00000000000E+00  0.00000000000E+00  0.27942923783E+04  0.27942923783E+04  0.25500000000E-02 0. -1.
         -2   -1    0    0    0  501 -0.00000000000E+00 -0.00000000000E+00 -0.38450912599E+03  0.38450912600E+03  0.25500000000E-02 0.  1.
    8880022    1    1    2    0    0  0.71154447331E+03  0.22265236742E+03  0.22838909573E+04  0.24073676853E+04  0.15294330000E+03 0.  0.
    8880022    1    1    2    0    0 -0.71154447331E+03 -0.22265236742E+03  0.12589229502E+03  0.77143381905E+03  0.15294330000E+03 0.  0.
<mgrwt>
<rscale>  0 0.76109215E+03</rscale>
<asrwt>0</asrwt>
<pdfrwt beam="1">  1        2 0.42989113E+00 0.76109215E+03</pdfrwt>
<pdfrwt beam="2">  1       -2 0.59155251E-01 0.76109215E+03</pdfrwt>
<totfact> 0.65712221E+00</totfact>
</mgrwt>
</event>
<event>
 4    1  0.2061941E-008  0.2263130E+04  0.7818608E-02  0.8492602E-01
         -2   -1    0    0    0  501 -0.00000000000E+00  0.00000000000E+00  0.21502316085E+04  0.21502316085E+04  0.25500000000E-02 0.  1.
          2   -1    0    0  501    0  0.00000000000E+00 -0.00000000000E+00 -0.33435003563E+04  0.33435003563E+04  0.25500000000E-02 0. -1.
    8880022    1    1    2    0    0  0.46422385397E+02 -0.22574791574E+04 -0.20696971709E+04  0.30668233102E+04  0.15294330000E+03 0.  0.
    8880022    1    1    2    0    0 -0.46422385397E+02  0.22574791574E+04  0.87642842308E+03  0.24269086546E+04  0.15294330000E+03 0.  0.
<mgrwt>
<rscale>  0 0.22631303E+04</rscale>
<asrwt>0</asrwt>
<pdfrwt beam="1">  1        2 0.51438467E+00 0.22631303E+04</pdfrwt>
<pdfrwt beam="2">  1       -2 0.33080486E+00 0.22631303E+04</pdfrwt>
<totfact> 0.18330929E-02</totfact>
</mgrwt>
</event>
<event>
 4    1  0.2061941E-008  0.1405867E+04  0.7818608E-02  0.8949583E-01
         -2   -1    0    0    0  501 -0.00000000000E+00  0.00000000000E+00  0.26244393333E+04  0.26244393333E+04  0.25500000000E-02 0.  1.
          2   -1    0    0  501    0  0.00000000000E+00 -0.00000000000E+00 -0.76649301686E+03  0.76649301686E+03  0.25500000000E-02 0. -1.
    8880022    1    1    2    0    0  0.12222734908E+04  0.67758164710E+03  0.11531033657E+04  0.18182707168E+04  0.15294330000E+03 0.  0.
    8880022    1    1    2    0    0 -0.12222734908E+04 -0.67758164710E+03  0.70484295072E+03  0.15726616333E+04  0.15294330000E+03 0.  0.
<mgrwt>
<rscale>  0 0.14058666E+04</rscale>
<asrwt>0</asrwt>
<pdfrwt beam="1">  1        2 0.11792200E+00 0.14058666E+04</pdfrwt>
<pdfrwt beam="2">  1       -2 0.40375990E+00 0.14058666E+04</pdfrwt>
<totfact> 0.24662694E-01</totfact>
</mgrwt>
</event>
<event>
 4    1  0.2061941E-008  0.2291351E+03  0.7818608E-02  0.1127250E+00
          2   -1    0    0  501    0  0.00000000000E+00  0.00000000000E+00  0.25935242328E+04  0.25935242328E+04  0.25500000000E-02 0. -1.
         -2   -1    0    0    0  501 -0.00000000000E+00 -0.00000000000E+00 -0.15112657197E+03  0.15112657200E+03  0.25500000000E-02 0.  1.
    8880022    1    1    2    0    0 -0.16978927496E+03 -0.16817912212E+02  0.24983075214E+04  0.25087932088E+04  0.15294330000E+03 0.  0.
    8880022    1    1    2    0    0  0.16978927496E+03  0.16817912212E+02 -0.55909860573E+02  0.23585759599E+03  0.15294330000E+03 0.  0.
<mgrwt>
<rscale>  0 0.22913510E+03</rscale>
<asrwt>0</asrwt>
<pdfrwt beam="1">  1        2 0.39900370E+00 0.22913510E+03</pdfrwt>
<pdfrwt beam="2">  1       -2 0.23250244E-01 0.22913510E+03</pdfrwt>
<totfact> 0.59088734E+01</totfact>
</mgrwt>
</event>
<event>
 4    1  0.2061941E-008  0.1621471E+04  0.7818608E-02  0.8807465E-01
         -2   -1    0    0    0  501 -0.00000000000E+00  0.00000000000E+00  0.16749688515E+04  0.16749688515E+04  0.25500000000E-02 0.  1.
          2   -1    0    0  501    0  0.00000000000E+00 -0.00000000000E+00 -0.17145210160E+04  0.17145210160E+04  0.25500000000E-02 0. -1.
    8880022    1    1    2    0    0  0.15266321889E+04  0.52456845494E+03  0.47280160553E+03  0.16889970146E+04  0.15294330000E+03 0.  0.
    8880022    1    1    2    0    0 -0.15266321889E+04 -0.52456845494E+03 -0.51235377010E+03  0.17004928529E+04  0.15294330000E+03 0.  0.
<mgrwt>
<rscale>  0 0.16214714E+04</rscale>
<asrwt>0</asrwt>
<pdfrwt beam="1">  1        2 0.26377247E+00 0.16214714E+04</pdfrwt>
<pdfrwt beam="2">  1       -2 0.25768751E+00 0.16214714E+04</pdfrwt>
<totfact> 0.51461865E-01</totfact>
</mgrwt>
</event>
<event>
 4    1  0.2061941E-008  0.1480152E+04  0.7818608E-02  0.8897760E-01
         -2   -1    0    0    0  501 -0.00000000000E+00  0.00000000000E+00  0.21019948175E+04  0.21019948175E+04  0.25500000000E-02 0.  1.
          2   -1    0    0  501    0  0.00000000000E+00 -0.00000000000E+00 -0.12360335480E+04  0.12360335480E+04  0.25500000000E-02 0. -1.
    8880022    1    1    2    0    0  0.42893460179E+03  0.14083588082E+04  0.10937932166E+04  0.18404441527E+04  0.15294330000E+03 0.  0.
    8880022    1    1    2    0    0 -0.42893460179E+03 -0.14083588082E+04 -0.22783194712E+03  0.14975842128E+04  0.15294330000E+03 0.  0.
<mgrwt>
<rscale>  0 0.14801524E+04</rscale>
<asrwt>0</asrwt>
<pdfrwt beam="1">  1        2 0.19015901E+00 0.14801524E+04</pdfrwt>
<pdfrwt beam="2">  1       -2 0.32338382E+00 0.14801524E+04</pdfrwt>
<totfact> 0.38937772E-01</totfact>
</mgrwt>
</event>
<event>
 4    1  0.2061941E-008  0.7782276E+03  0.7818608E-02  0.9592078E-01
          2   -1    0    0  501    0  0.00000000000E+00  0.00000000000E+00  0.26954159838E+04  0.26954159838E+04  0.25500000000E-02 0. -1.
         -2   -1    0    0    0  501 -0.00000000000E+00 -0.00000000000E+00 -0.63350868850E+03  0.63350868850E+03  0.25500000000E-02 0.  1.
    8880022    1    1    2    0    0  0.40733326307E+03 -0.64523346196E+03  0.23680478990E+04  0.24926470092E+04  0.15294330000E+03 0.  0.
    8880022    1    1    2    0    0 -0.40733326307E+03  0.64523346196E+03 -0.30614060365E+03  0.83627766313E+03  0.15294330000E+03 0.  0.
<mgrwt>
<rscale>  0 0.77822764E+03</rscale>
<asrwt>0</asrwt>
<pdfrwt beam="1">  1        2 0.41467938E+00 0.77822764E+03</pdfrwt>
<pdfrwt beam="2">  1       -2 0.97462875E-01 0.77822764E+03</pdfrwt>
<totfact> 0.24649433E+00</totfact>
</mgrwt>
</event>
<event>
 4    1  0.2061941E-008  0.5388730E+03  0.7818608E-02  0.1004103E+00
         -2   -1    0    0    0  501 -0.00000000000E+00  0.00000000000E+00  0.38339896094E+03  0.38339896094E+03  0.25500000000E-02 0.  1.
          2   -1    0    0  501    0  0.00000000000E+00 -0.00000000000E+00 -0.25836493698E+04  0.25836493698E+04  0.25500000000E-02 0. -1.
    8880022    1    1    2    0    0 -0.29215622670E+03 -0.42618909508E+03 -0.23473898006E+04  0.24084482420E+04  0.15294330000E+03 0.  0.
    8880022    1    1    2    0    0  0.29215622670E+03  0.42618909508E+03  0.14713939169E+03  0.55860008876E+03  0.15294330000E+03 0.  0.
<mgrwt>
<rscale>  0 0.53887295E+03</rscale>
<asrwt>0</asrwt>
<pdfrwt beam="1">  1        2 0.39748451E+00 0.53887295E+03</pdfrwt>
<pdfrwt beam="2">  1       -2 0.58984457E-01 0.53887295E+03</pdfrwt>
<totfact> 0.91672971E+00</totfact>
</mgrwt>
</event>
<event>
 4    1  0.2061941E-008  0.4019341E+03  0.7818608E-02  0.1043112E+00
         -2   -1    0    0    0  501 -0.00000000000E+00  0.00000000000E+00  0.41596441895E+03  0.41596441896E+03  0.25500000000E-02 0.  1.
          2   -1    0    0  501    0  0.00000000000E+00 -0.00000000000E+00 -0.88380453580E+03  0.88380453580E+03  0.25500000000E-02 0. -1.
    8880022    1    1    2    0    0 -0.18538719194E+03  0.32216604098E+03 -0.72049317704E+03  0.82502208459E+03  0.15294330000E+03 0. -1.
    8880022    1    1    2    0    0  0.18538719194E+03 -0.32216604098E+03  0.25265306020E+03  0.47474687017E+03  0.15294330000E+03 0.  0.
<mgrwt>
<rscale>  0 0.40193410E+03</rscale>
<asrwt>0</asrwt>
<pdfrwt beam="1">  1        2 0.13596993E+00 0.40193410E+03</pdfrwt>
<pdfrwt beam="2">  1       -2 0.63994526E-01 0.40193410E+03</pdfrwt>
<totfact> 0.71317643E+01</totfact>
</mgrwt>
</event>
<event>
 4    1  0.2061941E-008  0.3481270E+03  0.7818608E-02  0.1063386E+00
         -2   -1    0    0    0  501 -0.00000000000E+00  0.00000000000E+00  0.39133120368E+03  0.39133120368E+03  0.25500000000E-02 0.  1.
          2   -1    0    0  501    0  0.00000000000E+00 -0.00000000000E+00 -0.22085824191E+04  0.22085824191E+04  0.25500000000E-02 0. -1.
    8880022    1    1    2    0    0  0.16258429762E+03  0.26714621816E+03  0.29674887274E+03  0.45744103685E+03  0.15294330000E+03 0.  0.
    8880022    1    1    2    0    0 -0.16258429762E+03 -0.26714621816E+03 -0.21140000882E+04  0.21424725860E+04  0.15294330000E+03 0.  0.
<mgrwt>
<rscale>  0 0.34812700E+03</rscale>
<asrwt>0</asrwt>
<pdfrwt beam="1">  1        2 0.33978190E+00 0.34812700E+03</pdfrwt>
<pdfrwt beam="2">  1       -2 0.60204802E-01 0.34812700E+03</pdfrwt>
<totfact> 0.14928175E+01</totfact>
</mgrwt>
</event>
<event>
 4    1  0.2061941E-008  0.9477534E+03  0.7818608E-02  0.9367780E-01
         -2   -1    0    0    0  501 -0.00000000000E+00  0.00000000000E+00  0.22703844306E+04  0.22703844306E+04  0.25500000000E-02 0.  1.
          2   -1    0    0  501    0  0.00000000000E+00 -0.00000000000E+00 -0.10633609937E+04  0.10633609937E+04  0.25500000000E-02 0. -1.
    8880022    1    1    2    0    0 -0.10889507528E+03  0.92897076120E+03 -0.71736483043E+03  0.11886331501E+04  0.15294330000E+03 0.  0.
    8880022    1    1    2    0    0  0.10889507528E+03 -0.92897076120E+03  0.19243882674E+04  0.21451122743E+04  0.15294330000E+03 0.  0.
<mgrwt>
<rscale>  0 0.94775338E+03</rscale>
<asrwt>0</asrwt>
<pdfrwt beam="1">  1        2 0.16359400E+00 0.94775338E+03</pdfrwt>
<pdfrwt beam="2">  1       -2 0.34928991E+00 0.94775338E+03</pdfrwt>
<totfact> 0.36816558E-01</totfact>
</mgrwt>
</event>
<event>
 4    1  0.2061941E-008  0.6936719E+03  0.7818608E-02  0.9728116E-01
         -2   -1    0    0    0  501 -0.00000000000E+00  0.00000000000E+00  0.39711012410E+03  0.39711012410E+03  0.25500000000E-02 0.  1.
          2   -1    0    0  501    0  0.00000000000E+00 -0.00000000000E+00 -0.15056839429E+04  0.15056839429E+04  0.25500000000E-02 0. -1.
    8880022    1    1    2    0    0  0.51388056915E+03  0.44013160339E+03 -0.13389702666E+03  0.70647656325E+03  0.15294330000E+03 0.  0.
    8880022    1    1    2    0    0 -0.51388056915E+03 -0.44013160339E+03 -0.97467679216E+03  0.11963175038E+04  0.15294330000E+03 0.  0.
<mgrwt>
<rscale>  0 0.69367191E+03</rscale>
<asrwt>0</asrwt>
<pdfrwt beam="1">  1        2 0.23164368E+00 0.69367191E+03</pdfrwt>
<pdfrwt beam="2">  1       -2 0.61093866E-01 0.69367191E+03</pdfrwt>
<totfact> 0.32349969E+01</totfact>
</mgrwt>
</event>
<event>
 4    1  0.2061941E-008  0.5355794E+03  0.7818608E-02  0.1004888E+00
          2   -1    0    0  501    0  0.00000000000E+00  0.00000000000E+00  0.12435605872E+04  0.12435605872E+04  0.25500000000E-02 0. -1.
         -2   -1    0    0    0  501 -0.00000000000E+00 -0.00000000000E+00 -0.27831120793E+03  0.27831120794E+03  0.25500000000E-02 0.  1.
    8880022    1    1    2    0    0 -0.48473788995E+03 -0.16876855375E+03  0.79747136075E+03  0.96062785246E+03  0.15294330000E+03 0. -1.
    8880022    1    1    2    0    0  0.48473788995E+03  0.16876855375E+03  0.16777801852E+03  0.56124394269E+03  0.15294330000E+03 0.  0.
<mgrwt>
<rscale>  0 0.53557941E+03</rscale>
<asrwt>0</asrwt>
<pdfrwt beam="1">  1        2 0.19131701E+00 0.53557941E+03</pdfrwt>
<pdfrwt beam="2">  1       -2 0.42817109E-01 0.53557941E+03</pdfrwt>
<totfact> 0.95724509E+01</totfact>
</mgrwt>
</event>
<event>
 4    1  0.2061941E-008  0.7816820E+03  0.7818608E-02  0.9586917E-01
         -2   -1    0    0    0  501 -0.00000000000E+00  0.00000000000E+00  0.17501036113E+04  0.17501036113E+04  0.25500000000E-02 0.  1.
          2   -1    0    0  501    0  0.00000000000E+00 -0.00000000000E+00 -0.70893278038E+03  0.70893278038E+03  0.25500000000E-02 0. -1.
    8880022    1    1    2    0    0  0.76547007016E+03  0.41117119896E+02 -0.35532602149E+03  0.85865201358E+03  0.15294330000E+03 0.  0.
    8880022    1    1    2    0    0 -0.76547007016E+03 -0.41117119896E+02  0.13964968524E+04  0.16003843781E+04  0.15294330000E+03 0.  0.
<mgrwt>
<rscale>  0 0.78168197E+03</rscale>
<asrwt>0</asrwt>
<pdfrwt beam="1">  1        2 0.10906658E+00 0.78168197E+03</pdfrwt>
<pdfrwt beam="2">  1       -2 0.26924671E+00 0.78168197E+03</pdfrwt>
<totfact> 0.20348177E+00</totfact>
</mgrwt>
</event>
<event>
 4    1  0.2061941E-008  0.3962412E+03  0.7818608E-02  0.1045089E+00
          2   -1    0    0  501    0  0.00000000000E+00  0.00000000000E+00  0.14212931354E+04  0.14212931354E+04  0.25500000000E-02 0. -1.
         -2   -1    0    0    0  501 -0.00000000000E+00 -0.00000000000E+00 -0.63883667090E+03  0.63883667091E+03  0.25500000000E-02 0.  1.
    8880022    1    1    2    0    0 -0.80995863920E+02  0.35644789434E+03  0.13280097086E+04  0.13858632222E+04  0.15294330000E+03 0.  0.
    8880022    1    1    2    0    0  0.80995863920E+02 -0.35644789434E+03 -0.54555324411E+03  0.67426658416E+03  0.15294330000E+03 0.  1.
<mgrwt>
<rscale>  0 0.39624119E+03</rscale>
<asrwt>0</asrwt>
<pdfrwt beam="1">  1        2 0.21866048E+00 0.39624119E+03</pdfrwt>
<pdfrwt beam="2">  1       -2 0.98282565E-01 0.39624119E+03</pdfrwt>
<totfact> 0.13184377E+01</totfact>
</mgrwt>
</event>
<event>
 4    1  0.2061941E-008  0.3876168E+03  0.7818608E-02  0.1048154E+00
          2   -1    0    0  501    0  0.00000000000E+00  0.00000000000E+00  0.14925716801E+04  0.14925716801E+04  0.25500000000E-02 0. -1.
         -2   -1    0    0    0  501 -0.00000000000E+00 -0.00000000000E+00 -0.26098046201E+03  0.26098046203E+03  0.25500000000E-02 0.  1.
    8880022    1    1    2    0    0 -0.17239351361E+03  0.31166585753E+03 -0.71391602385E+02  0.39413645377E+03  0.15294330000E+03 0.  1.
    8880022    1    1    2    0    0  0.17239351361E+03 -0.31166585753E+03  0.13029828205E+04  0.13594156884E+04  0.15294330000E+03 0.  0.
<mgrwt>
<rscale>  0 0.38761680E+03</rscale>
<asrwt>0</asrwt>
<pdfrwt beam="1">  1        2 0.22962641E+00 0.38761680E+03</pdfrwt>
<pdfrwt beam="2">  1       -2 0.40150840E-01 0.38761680E+03</pdfrwt>
<totfact> 0.80448838E+01</totfact>
</mgrwt>
</event>
<event>
 4    1  0.2061941E-008  0.7583319E+03  0.7818608E-02  0.9622369E-01
          2   -1    0    0  501    0  0.00000000000E+00  0.00000000000E+00  0.21881768775E+04  0.21881768775E+04  0.25500000000E-02 0. -1.
         -2   -1    0    0    0  501 -0.00000000000E+00 -0.00000000000E+00 -0.80419821176E+03  0.80419821177E+03  0.25500000000E-02 0.  1.
    8880022    1    1    2    0    0  0.39560398692E+02  0.74169437657E+03 -0.53562023027E+03  0.92841599376E+03  0.15294330000E+03 0.  0.
    8880022    1    1    2    0    0 -0.39560398692E+02 -0.74169437657E+03  0.19195988960E+04  0.20639590956E+04  0.15294330000E+03 0.  0.
<mgrwt>
<rscale>  0 0.75833187E+03</rscale>
<asrwt>0</asrwt>
<pdfrwt beam="1">  1        2 0.33664259E+00 0.75833187E+03</pdfrwt>
<pdfrwt beam="2">  1       -2 0.12372280E+00 0.75833187E+03</pdfrwt>
<totfact> 0.26831634E+00</totfact>
</mgrwt>
</event>
<event>
 4    1  0.2061941E-008  0.6348517E+03  0.7818608E-02  0.9835627E-01
         -2   -1    0    0    0  501 -0.00000000000E+00  0.00000000000E+00  0.12329923169E+04  0.12329923169E+04  0.25500000000E-02 0.  1.
          2   -1    0    0  501    0  0.00000000000E+00 -0.00000000000E+00 -0.19455384110E+04  0.19455384110E+04  0.25500000000E-02 0. -1.
    8880022    1    1    2    0    0 -0.30669221417E+03  0.53440143901E+03 -0.18058942690E+04  0.19142337308E+04  0.15294330000E+03 0. -1.
    8880022    1    1    2    0    0  0.30669221417E+03 -0.53440143901E+03  0.10933481749E+04  0.12642969971E+04  0.15294330000E+03 0.  0.
<mgrwt>
<rscale>  0 0.63485169E+03</rscale>
<asrwt>0</asrwt>
<pdfrwt beam="1">  1        2 0.29931360E+00 0.63485169E+03</pdfrwt>
<pdfrwt beam="2">  1       -2 0.18969113E+00 0.63485169E+03</pdfrwt>
<totfact> 0.11907869E+00</totfact>
</mgrwt>
</event>
<event>
 4    1  0.2061941E-008  0.2172034E+03  0.7818608E-02  0.1135985E+00
         -2   -1    0    0    0  501 -0.00000000000E+00  0.00000000000E+00  0.47090027691E+03  0.47090027691E+03  0.25500000000E-02 0.  1.
          2   -1    0    0  501    0  0.00000000000E+00 -0.00000000000E+00 -0.86978196611E+03  0.86978196611E+03  0.25500000000E-02 0. -1.
    8880022    1    1    2    0    0  0.79604160742E+02  0.13209405388E+03 -0.82999477005E+03  0.85794442291E+03  0.15294330000E+03 0. -1.
    8880022    1    1    2    0    0 -0.79604160742E+02 -0.13209405388E+03  0.43111308085E+03  0.48273782012E+03  0.15294330000E+03 0.  0.
<mgrwt>
<rscale>  0 0.21720339E+03</rscale>
<asrwt>0</asrwt>
<pdfrwt beam="1">  1        2 0.13381261E+00 0.21720339E+03</pdfrwt>
<pdfrwt beam="2">  1       -2 0.72446197E-01 0.21720339E+03</pdfrwt>
<totfact> 0.57879783E+01</totfact>
</mgrwt>
</event>
<event>
 4    1  0.2061941E-008  0.3586464E+03  0.7818608E-02  0.1059121E+00
          2   -1    0    0  501    0  0.00000000000E+00  0.00000000000E+00  0.15541481595E+04  0.15541481595E+04  0.25500000000E-02 0. -1.
         -2   -1    0    0    0  501 -0.00000000000E+00 -0.00000000000E+00 -0.65013567088E+03  0.65013567089E+03  0.25500000000E-02 0.  1.
    8880022    1    1    2    0    0  0.68337118310E+02  0.31712088339E+03 -0.57759582490E+03  0.67988543622E+03  0.15294330000E+03 0.  0.
    8880022    1    1    2    0    0 -0.68337118310E+02 -0.31712088339E+03  0.14816083136E+04  0.15243983942E+04  0.15294330000E+03 0.  0.
<mgrwt>
<rscale>  0 0.35864644E+03</rscale>
<asrwt>0</asrwt>
<pdfrwt beam="1">  1        2 0.23909971E+00 0.35864644E+03</pdfrwt>
<pdfrwt beam="2">  1       -2 0.10002087E+00 0.35864644E+03</pdfrwt>
<totfact> 0.10823890E+01</totfact>
</mgrwt>
</event>
<event>
 4    1  0.2061941E-008  0.1223845E+04  0.7818608E-02  0.9092237E-01
          2   -1    0    0  501    0  0.00000000000E+00  0.00000000000E+00  0.17384989621E+04  0.17384989621E+04  0.25500000000E-02 0. -1.
         -2   -1    0    0    0  501 -0.00000000000E+00 -0.00000000000E+00 -0.11378218257E+04  0.11378218257E+04  0.25500000000E-02 0.  1.
    8880022    1    1    2    0    0 -0.64508323262E+02 -0.12125364636E+04  0.10090040248E+04  0.15861547132E+04  0.15294330000E+03 0.  0.
    8880022    1    1    2    0    0  0.64508323262E+02  0.12125364636E+04 -0.40832688839E+03  0.12901660746E+04  0.15294330000E+03 0.  0.
<mgrwt>
<rscale>  0 0.12238454E+04</rscale>
<asrwt>0</asrwt>
<pdfrwt beam="1">  1        2 0.26746138E+00 0.12238454E+04</pdfrwt>
<pdfrwt beam="2">  1       -2 0.17504951E+00 0.12238454E+04</pdfrwt>
<totfact> 0.17744571E+00</totfact>
</mgrwt>
</event>
<event>
 4    1  0.2061941E-008  0.3542341E+03  0.7818608E-02  0.1060890E+00
         -2   -1    0    0    0  501 -0.00000000000E+00  0.00000000000E+00  0.26493366261E+03  0.26493366262E+03  0.25500000000E-02 0.  1.
          2   -1    0    0  501    0  0.00000000000E+00 -0.00000000000E+00 -0.91253502451E+03  0.91253502451E+03  0.25500000000E-02 0. -1.
    8880022    1    1    2    0    0  0.28628544360E+03  0.14188298767E+03  0.84497573707E+02  0.36417252833E+03  0.15294330000E+03 0.  0.
    8880022    1    1    2    0    0 -0.28628544360E+03 -0.14188298767E+03 -0.73209893560E+03  0.81329615881E+03  0.15294330000E+03 0.  0.
<mgrwt>
<rscale>  0 0.35423409E+03</rscale>
<asrwt>0</asrwt>
<pdfrwt beam="1">  1        2 0.14039000E+00 0.35423409E+03</pdfrwt>
<pdfrwt beam="2">  1       -2 0.40759025E-01 0.35423409E+03</pdfrwt>
<totfact> 0.17121262E+02</totfact>
</mgrwt>
</event>
<event>
 4    1  0.2061941E-008  0.6190549E+03  0.7818608E-02  0.9866643E-01
         -2   -1    0    0    0  501 -0.00000000000E+00  0.00000000000E+00  0.45868968593E+03  0.45868968593E+03  0.25500000000E-02 0.  1.
          2   -1    0    0  501    0  0.00000000000E+00 -0.00000000000E+00 -0.19474919661E+04  0.19474919661E+04  0.25500000000E-02 0. -1.
    8880022    1    1    2    0    0 -0.46407101133E+03 -0.38009929195E+03 -0.16535061349E+04  0.17655909964E+04  0.15294330000E+03 0.  0.
    8880022    1    1    2    0    0  0.46407101133E+03  0.38009929195E+03  0.16470385476E+03  0.64059065563E+03  0.15294330000E+03 0.  0.
<mgrwt>
<rscale>  0 0.61905495E+03</rscale>
<asrwt>0</asrwt>
<pdfrwt beam="1">  1        2 0.29961414E+00 0.61905495E+03</pdfrwt>
<pdfrwt beam="2">  1       -2 0.70567645E-01 0.61905495E+03</pdfrwt>
<totfact> 0.13775542E+01</totfact>
</mgrwt>
</event>
<event>
 4    1  0.2061941E-008  0.8891612E+03  0.7818608E-02  0.9439233E-01
          2   -1    0    0  501    0  0.00000000000E+00  0.00000000000E+00  0.37797004646E+04  0.37797004646E+04  0.25500000000E-02 0. -1.
         -2   -1    0    0    0  501 -0.00000000000E+00 -0.00000000000E+00 -0.35700746998E+03  0.35700746999E+03  0.25500000000E-02 0.  1.
    8880022    1    1    2    0    0 -0.33985622404E+03  0.80728792695E+03  0.38035445658E+03  0.96709731448E+03  0.15294330000E+03 0.  0.
    8880022    1    1    2    0    0  0.33985622404E+03 -0.80728792695E+03  0.30423385380E+04  0.31696106201E+04  0.15294330000E+03 0.  0.
<mgrwt>
<rscale>  0 0.88916124E+03</rscale>
<asrwt>0</asrwt>
<pdfrwt beam="1">  1        2 0.58149242E+00 0.88916124E+03</pdfrwt>
<pdfrwt beam="2">  1       -2 0.54924223E-01 0.88916124E+03</pdfrwt>
<totfact> 0.16941511E+00</totfact>
</mgrwt>
</event>
<event>
 4    1  0.2061941E-008  0.1305850E+04  0.7818608E-02  0.9024939E-01
          2   -1    0    0  501    0  0.00000000000E+00  0.00000000000E+00  0.21464365473E+04  0.21464365473E+04  0.25500000000E-02 0. -1.
         -2   -1    0    0    0  501 -0.00000000000E+00 -0.00000000000E+00 -0.12383242984E+04  0.12383242984E+04  0.25500000000E-02 0.  1.
    8880022    1    1    2    0    0  0.19527460677E+03 -0.12820768962E+04  0.14672880437E+04  0.19642248333E+04  0.15294330000E+03 0.  0.
    8880022    1    1    2    0    0 -0.19527460677E+03  0.12820768962E+04 -0.55917579474E+03  0.14205360123E+04  0.15294330000E+03 0.  0.
<mgrwt>
<rscale>  0 0.13058503E+04</rscale>
<asrwt>0</asrwt>
<pdfrwt beam="1">  1        2 0.33022101E+00 0.13058503E+04</pdfrwt>
<pdfrwt beam="2">  1       -2 0.19051143E+00 0.13058503E+04</pdfrwt>
<totfact> 0.81696727E-01</totfact>
</mgrwt>
</event>
<event>
 4    1  0.2061941E-008  0.1978063E+03  0.7818608E-02  0.1151603E+00
          2   -1    0    0  501    0  0.00000000000E+00  0.00000000000E+00  0.18605836694E+04  0.18605836694E+04  0.25500000000E-02 0. -1.
         -2   -1    0    0    0  501 -0.00000000000E+00 -0.00000000000E+00 -0.15317488158E+03  0.15317488160E+03  0.25500000000E-02 0.  1.
    8880022    1    1    2    0    0 -0.11366726483E+03 -0.53060503348E+02  0.17889150944E+04  0.17998179164E+04  0.15294330000E+03 0.  0.
    8880022    1    1    2    0    0  0.11366726483E+03  0.53060503348E+02 -0.81506306589E+02  0.21394063461E+03  0.15294330000E+03 0.  0.
<mgrwt>
<rscale>  0 0.19780626E+03</rscale>
<asrwt>0</asrwt>
<pdfrwt beam="1">  1        2 0.28624363E+00 0.19780626E+03</pdfrwt>
<pdfrwt beam="2">  1       -2 0.23565367E-01 0.19780626E+03</pdfrwt>
<totfact> 0.14316229E+02</totfact>
</mgrwt>
</event>
<event>
 4    1  0.2061941E-008  0.9488867E+03  0.7818608E-02  0.9366453E-01
          2   -1    0    0  501    0  0.00000000000E+00  0.00000000000E+00  0.89691572169E+03  0.89691572169E+03  0.25500000000E-02 0. -1.
         -2   -1    0    0    0  501 -0.00000000000E+00 -0.00000000000E+00 -0.11332290622E+04  0.11332290622E+04  0.25500000000E-02 0.  1.
    8880022    1    1    2    0    0 -0.91715840464E+03 -0.18924786726E+03  0.22479913754E+03  0.97515157781E+03  0.15294330000E+03 0.  0.
    8880022    1    1    2    0    0  0.91715840464E+03  0.18924786726E+03 -0.46111247806E+03  0.10549932061E+04  0.15294330000E+03 0.  0.
<mgrwt>
<rscale>  0 0.94888669E+03</rscale>
<asrwt>0</asrwt>
<pdfrwt beam="1">  1        2 0.13798703E+00 0.94888669E+03</pdfrwt>
<pdfrwt beam="2">  1       -2 0.17434293E+00 0.94888669E+03</pdfrwt>
<totfact> 0.58303945E+00</totfact>
</mgrwt>
</event>
<event>
 4    1  0.2061941E-008  0.7913181E+03  0.7818608E-02  0.9572670E-01
         -2   -1    0    0    0  501 -0.00000000000E+00  0.00000000000E+00  0.85445697053E+03  0.85445697054E+03  0.25500000000E-02 0.  1.
          2   -1    0    0  501    0  0.00000000000E+00 -0.00000000000E+00 -0.19457085183E+04  0.19457085183E+04  0.25500000000E-02 0. -1.
    8880022    1    1    2    0    0 -0.24377124796E+03 -0.73713516773E+03  0.55977768472E+03  0.96929633558E+03  0.15294330000E+03 0.  0.
    8880022    1    1    2    0    0  0.24377124796E+03  0.73713516773E+03 -0.16510292325E+04  0.18308691533E+04  0.15294330000E+03 0.  0.
<mgrwt>
<rscale>  0 0.79131810E+03</rscale>
<asrwt>0</asrwt>
<pdfrwt beam="1">  1        2 0.29933977E+00 0.79131810E+03</pdfrwt>
<pdfrwt beam="2">  1       -2 0.13145492E+00 0.79131810E+03</pdfrwt>
<totfact> 0.31096268E+00</totfact>
</mgrwt>
</event>
<event>
 4    1  0.2061941E-008  0.4030404E+03  0.7818608E-02  0.1042732E+00
          2   -1    0    0  501    0  0.00000000000E+00  0.00000000000E+00  0.34439978528E+03  0.34439978529E+03  0.25500000000E-02 0. -1.
         -2   -1    0    0    0  501 -0.00000000000E+00 -0.00000000000E+00 -0.67676844076E+03  0.67676844077E+03  0.25500000000E-02 0.  1.
    8880022    1    1    2    0    0 -0.32935105304E+03 -0.17486505563E+03 -0.44726631011E+03  0.60207035220E+03  0.15294330000E+03 0.  0.
    8880022    1    1    2    0    0  0.32935105304E+03  0.17486505563E+03  0.11489765463E+03  0.41909787386E+03  0.15294330000E+03 0.  0.
<mgrwt>
<rscale>  0 0.40304039E+03</rscale>
<asrwt>0</asrwt>
<pdfrwt beam="1">  1        2 0.52984583E-01 0.40304039E+03</pdfrwt>
<pdfrwt beam="2">  1       -2 0.10411822E+00 0.40304039E+03</pdfrwt>
<totfact> 0.73048924E+01</totfact>
</mgrwt>
</event>
<event>
 4    1  0.2061941E-008  0.6165094E+03  0.7818608E-02  0.9871734E-01
         -2   -1    0    0    0  501 -0.00000000000E+00  0.00000000000E+00  0.19579463972E+04  0.19579463972E+04  0.25500000000E-02 0.  1.
          2   -1    0    0  501    0  0.00000000000E+00 -0.00000000000E+00 -0.61625579432E+03  0.61625579433E+03  0.25500000000E-02 0. -1.
    8880022    1    1    2    0    0 -0.49207886412E+03  0.33845322744E+03 -0.39441642919E+03  0.73187988653E+03  0.15294330000E+03 0.  0.
    8880022    1    1    2    0    0  0.49207886412E+03 -0.33845322744E+03  0.17361070321E+04  0.18423223050E+04  0.15294330000E+03 0.  0.
<mgrwt>
<rscale>  0 0.61650941E+03</rscale>
<asrwt>0</asrwt>
<pdfrwt beam="1">  1        2 0.94808583E-01 0.61650941E+03</pdfrwt>
<pdfrwt beam="2">  1       -2 0.30122252E+00 0.61650941E+03</pdfrwt>
<totfact> 0.16030136E+00</totfact>
</mgrwt>
</event>
<event>
 4    1  0.2061941E-008  0.2531053E+04  0.7818608E-02  0.8392006E-01
          2   -1    0    0  501    0  0.00000000000E+00  0.00000000000E+00  0.26054194002E+04  0.26054194002E+04  0.25500000000E-02 0. -1.
         -2   -1    0    0    0  501 -0.00000000000E+00 -0.00000000000E+00 -0.27103572856E+04  0.27103572856E+04  0.25500000000E-02 0.  1.
    8880022    1    1    2    0    0 -0.24647612772E+04 -0.55478782553E+03  0.75724929229E+03  0.26419038265E+04  0.15294330000E+03 0.  0.
    8880022    1    1    2    0    0  0.24647612772E+04  0.55478782553E+03 -0.86218717767E+03  0.26738728592E+04  0.15294330000E+03 0.  0.
<mgrwt>
<rscale>  0 0.25310530E+04</rscale>
<asrwt>0</asrwt>
<pdfrwt beam="1">  1        2 0.40083375E+00 0.25310530E+04</pdfrwt>
<pdfrwt beam="2">  1       -2 0.41697805E+00 0.25310530E+04</pdfrwt>
<totfact> 0.14477432E-02</totfact>
</mgrwt>
</event>
<event>
 4    1  0.2061941E-008  0.1342412E+04  0.7818608E-02  0.8996592E-01
          2   -1    0    0  501    0  0.00000000000E+00  0.00000000000E+00  0.17949077674E+04  0.17949077674E+04  0.25500000000E-02 0. -1.
         -2   -1    0    0    0  501 -0.00000000000E+00 -0.00000000000E+00 -0.13153472109E+04  0.13153472109E+04  0.25500000000E-02 0.  1.
    8880022    1    1    2    0    0 -0.37643776432E+02 -0.13331394053E+04  0.99639586687E+03  0.16717876971E+04  0.15294330000E+03 0.  0.
    8880022    1    1    2    0    0  0.37643776432E+02  0.13331394053E+04 -0.51683531035E+03  0.14384672811E+04  0.15294330000E+03 0.  0.
<mgrwt>
<rscale>  0 0.13424118E+04</rscale>
<asrwt>0</asrwt>
<pdfrwt beam="1">  1        2 0.27613966E+00 0.13424118E+04</pdfrwt>
<pdfrwt beam="2">  1       -2 0.20236111E+00 0.13424118E+04</pdfrwt>
<totfact> 0.10645321E+00</totfact>
</mgrwt>
</event>
<event>
 4    1  0.2061941E-008  0.1507880E+04  0.7818608E-02  0.8879230E-01
         -2   -1    0    0    0  501 -0.00000000000E+00  0.00000000000E+00  0.82694377684E+03  0.82694377685E+03  0.25500000000E-02 0.  1.
          2   -1    0    0  501    0  0.00000000000E+00 -0.00000000000E+00 -0.38191006192E+04  0.38191006192E+04  0.25500000000E-02 0. -1.
    8880022    1    1    2    0    0 -0.47729586703E+03  0.14221456431E+04 -0.26671895182E+03  0.15312871145E+04  0.15294330000E+03 0.  0.
    8880022    1    1    2    0    0  0.47729586703E+03 -0.14221456431E+04 -0.27254378906E+04  0.31147572816E+04  0.15294330000E+03 0.  0.
<mgrwt>
<rscale>  0 0.15078797E+04</rscale>
<asrwt>0</asrwt>
<pdfrwt beam="1">  1        2 0.58755393E+00 0.15078797E+04</pdfrwt>
<pdfrwt beam="2">  1       -2 0.12722212E+00 0.15078797E+04</pdfrwt>
<totfact> 0.20922980E-01</totfact>
</mgrwt>
</event>
<event>
 4    1  0.2061941E-008  0.1119701E+04  0.7818608E-02  0.9186200E-01
         -2   -1    0    0    0  501 -0.00000000000E+00  0.00000000000E+00  0.18898237924E+04  0.18898237924E+04  0.25500000000E-02 0.  1.
          2   -1    0    0  501    0  0.00000000000E+00 -0.00000000000E+00 -0.15348702227E+04  0.15348702227E+04  0.25500000000E-02 0. -1.
    8880022    1    1    2    0    0  0.74982090869E+03  0.81737782998E+03 -0.11127900289E+04  0.15786168672E+04  0.15294330000E+03 0.  0.
    8880022    1    1    2    0    0 -0.74982090869E+03 -0.81737782998E+03  0.14677435986E+04  0.18460771480E+04  0.15294330000E+03 0.  1.
<mgrwt>
<rscale>  0 0.11197007E+04</rscale>
<asrwt>0</asrwt>
<pdfrwt beam="1">  1        2 0.23613388E+00 0.11197007E+04</pdfrwt>
<pdfrwt beam="2">  1       -2 0.29074212E+00 0.11197007E+04</pdfrwt>
<totfact> 0.43304604E-01</totfact>
</mgrwt>
</event>
<event>
 4    1  0.2061941E-008  0.4733700E+03  0.7818608E-02  0.1020973E+00
          2   -1    0    0  501    0  0.00000000000E+00  0.00000000000E+00  0.99684303844E+03  0.99684303845E+03  0.25500000000E-02 0. -1.
         -2   -1    0    0    0  501 -0.00000000000E+00 -0.00000000000E+00 -0.51251290886E+03  0.51251290887E+03  0.25500000000E-02 0.  1.
    8880022    1    1    2    0    0 -0.79412046591E+02  0.44088688061E+03 -0.32328907001E+03  0.57323205636E+03  0.15294330000E+03 0.  0.
    8880022    1    1    2    0    0  0.79412046591E+02 -0.44088688061E+03  0.80761919960E+03  0.93612389095E+03  0.15294330000E+03 0.  0.
<mgrwt>
<rscale>  0 0.47337001E+03</rscale>
<asrwt>0</asrwt>
<pdfrwt beam="1">  1        2 0.15336047E+00 0.47337001E+03</pdfrwt>
<pdfrwt beam="2">  1       -2 0.78848140E-01 0.47337001E+03</pdfrwt>
<totfact> 0.37908615E+01</totfact>
</mgrwt>
</event>
<event>
 4    1  0.2061941E-008  0.8492098E+03  0.7818608E-02  0.9491398E-01
          2   -1    0    0  501    0  0.00000000000E+00  0.00000000000E+00  0.10080860677E+04  0.10080860677E+04  0.25500000000E-02 0. -1.
         -2   -1    0    0    0  501 -0.00000000000E+00 -0.00000000000E+00 -0.10415055566E+04  0.10415055566E+04  0.25500000000E-02 0.  1.
    8880022    1    1    2    0    0 -0.80800774205E+03 -0.21187038756E+03 -0.59017068314E+03  0.10341463439E+04  0.15294330000E+03 0.  0.
    8880022    1    1    2    0    0  0.80800774205E+03  0.21187038756E+03  0.55675119419E+03  0.10154452804E+04  0.15294330000E+03 0.  0.
<mgrwt>
<rscale>  0 0.84920977E+03</rscale>
<asrwt>0</asrwt>
<pdfrwt beam="1">  1        2 0.15509016E+00 0.84920977E+03</pdfrwt>
<pdfrwt beam="2">  1       -2 0.16023162E+00 0.84920977E+03</pdfrwt>
<totfact> 0.62886394E+00</totfact>
</mgrwt>
</event>
<event>
 4    1  0.2061941E-008  0.1042222E+04  0.7818608E-02  0.9263411E-01
          2   -1    0    0  501    0  0.00000000000E+00  0.00000000000E+00  0.23149645044E+04  0.23149645044E+04  0.25500000000E-02 0. -1.
         -2   -1    0    0    0  501 -0.00000000000E+00 -0.00000000000E+00 -0.82285844976E+03  0.82285844976E+03  0.25500000000E-02 0.  1.
    8880022    1    1    2    0    0  0.73098807433E+03  0.72697447775E+03 -0.28247410920E+03  0.10798234724E+04  0.15294330000E+03 0.  0.
    8880022    1    1    2    0    0 -0.73098807433E+03 -0.72697447775E+03  0.17745801638E+04  0.20579994817E+04  0.15294330000E+03 0.  0.
<mgrwt>
<rscale>  0 0.10422222E+04</rscale>
<asrwt>0</asrwt>
<pdfrwt beam="1">  1        2 0.35614838E+00 0.10422222E+04</pdfrwt>
<pdfrwt beam="2">  1       -2 0.12659361E+00 0.10422222E+04</pdfrwt>
<totfact> 0.20596277E+00</totfact>
</mgrwt>
</event>
<event>
 4    1  0.2061941E-008  0.1344505E+04  0.7818608E-02  0.8994998E-01
          2   -1    0    0  501    0  0.00000000000E+00  0.00000000000E+00  0.34699399433E+04  0.34699399433E+04  0.25500000000E-02 0. -1.
         -2   -1    0    0    0  501 -0.00000000000E+00 -0.00000000000E+00 -0.95610829232E+03  0.95610829233E+03  0.25500000000E-02 0.  1.
    8880022    1    1    2    0    0  0.12159169603E+04 -0.55303482943E+03 -0.23605804659E+03  0.13650701928E+04  0.15294330000E+03 0.  0.
    8880022    1    1    2    0    0 -0.12159169603E+04  0.55303482943E+03  0.27498896976E+04  0.30609780429E+04  0.15294330000E+03 0.  0.
<mgrwt>
<rscale>  0 0.13445048E+04</rscale>
<asrwt>0</asrwt>
<pdfrwt beam="1">  1        2 0.53383691E+00 0.13445048E+04</pdfrwt>
<pdfrwt beam="2">  1       -2 0.14709358E+00 0.13445048E+04</pdfrwt>
<totfact> 0.26198112E-01</totfact>
</mgrwt>
</event>
<event>
 4    1  0.2061941E-008  0.8362031E+03  0.7818608E-02  0.9509044E-01
          2   -1    0    0  501    0  0.00000000000E+00  0.00000000000E+00  0.20791190781E+04  0.20791190781E+04  0.25500000000E-02 0. -1.
         -2   -1    0    0    0  501 -0.00000000000E+00 -0.00000000000E+00 -0.84261396511E+03  0.84261396512E+03  0.25500000000E-02 0.  1.
    8880022    1    1    2    0    0  0.16753578379E+03 -0.80484518088E+03  0.17506539778E+04  0.19401095348E+04  0.15294330000E+03 0.  0.
    8880022    1    1    2    0    0 -0.16753578379E+03  0.80484518088E+03 -0.51414886483E+03  0.98162350840E+03  0.15294330000E+03 0.  0.
<mgrwt>
<rscale>  0 0.83620312E+03</rscale>
<asrwt>0</asrwt>
<pdfrwt beam="1">  1        2 0.31986447E+00 0.83620312E+03</pdfrwt>
<pdfrwt beam="2">  1       -2 0.12963292E+00 0.83620312E+03</pdfrwt>
<totfact> 0.27029908E+00</totfact>
</mgrwt>
</event>
<event>
 4    1  0.2061941E-008  0.1431795E+04  0.7818608E-02  0.8931120E-01
          2   -1    0    0  501    0  0.00000000000E+00  0.00000000000E+00  0.17635956271E+04  0.17635956271E+04  0.25500000000E-02 0. -1.
         -2   -1    0    0    0  501 -0.00000000000E+00 -0.00000000000E+00 -0.31027650048E+04  0.31027650048E+04  0.25500000000E-02 0.  1.
    8880022    1    1    2    0    0  0.80344301392E+03 -0.11752123292E+04  0.12545678053E+04  0.19036745327E+04  0.15294330000E+03 0.  0.
    8880022    1    1    2    0    0 -0.80344301392E+03  0.11752123292E+04 -0.25937371830E+04  0.29626860993E+04  0.15294330000E+03 0.  0.
<mgrwt>
<rscale>  0 0.14317948E+04</rscale>
<asrwt>0</asrwt>
<pdfrwt beam="1">  1        2 0.27132240E+00 0.14317948E+04</pdfrwt>
<pdfrwt beam="2">  1       -2 0.47734846E+00 0.14317948E+04</pdfrwt>
<totfact> 0.19615032E-02</totfact>
</mgrwt>
</event>
<event>
 4    1  0.2061941E-008  0.2448106E+03  0.7818608E-02  0.1116629E+00
         -2   -1    0    0    0  501 -0.00000000000E+00  0.00000000000E+00  0.55646659577E+02  0.55646659636E+02  0.25500000000E-02 0.  1.
          2   -1    0    0  501    0  0.00000000000E+00 -0.00000000000E+00 -0.14151796665E+04  0.14151796665E+04  0.25500000000E-02 0. -1.
    8880022    1    1    2    0    0 -0.17308773429E+03  0.81124744674E+02 -0.10392593520E+04  0.10677041920E+04  0.15294330000E+03 0.  0.
    8880022    1    1    2    0    0  0.17308773429E+03 -0.81124744674E+02 -0.32027365498E+03  0.40312213416E+03  0.15294330000E+03 0.  1.
<mgrwt>
<rscale>  0 0.24481062E+03</rscale>
<asrwt>0</asrwt>
<pdfrwt beam="1">  1        2 0.21771992E+00 0.24481062E+03</pdfrwt>
<pdfrwt beam="2">  1       -2 0.85610256E-02 0.24481062E+03</pdfrwt>
<totfact> 0.12916121E+03</totfact>
</mgrwt>
</event>
<event>
 4    1  0.2061941E-008  0.1145726E+04  0.7818608E-02  0.9161735E-01
         -2   -1    0    0    0  501 -0.00000000000E+00  0.00000000000E+00  0.18611475446E+04  0.18611475446E+04  0.25500000000E-02 0.  1.
          2   -1    0    0  501    0  0.00000000000E+00 -0.00000000000E+00 -0.71376719456E+03  0.71376719457E+03  0.25500000000E-02 0. -1.
    8880022    1    1    2    0    0 -0.77594391150E+03  0.82898028507E+03  0.71381887474E+03  0.13498986280E+04  0.15294330000E+03 0.  0.
    8880022    1    1    2    0    0  0.77594391150E+03 -0.82898028507E+03  0.43356147528E+03  0.12250161112E+04  0.15294330000E+03 0.  0.
<mgrwt>
<rscale>  0 0.11457264E+04</rscale>
<asrwt>0</asrwt>
<pdfrwt beam="1">  1        2 0.10981034E+00 0.11457264E+04</pdfrwt>
<pdfrwt beam="2">  1       -2 0.28633039E+00 0.11457264E+04</pdfrwt>
<totfact> 0.15189228E+00</totfact>
</mgrwt>
</event>
<event>
 4    1  0.2061941E-008  0.3757356E+03  0.7818608E-02  0.1052521E+00
          2   -1    0    0  501    0  0.00000000000E+00  0.00000000000E+00  0.45871952961E+03  0.45871952961E+03  0.25500000000E-02 0. -1.
         -2   -1    0    0    0  501 -0.00000000000E+00 -0.00000000000E+00 -0.68680583045E+03  0.68680583046E+03  0.25500000000E-02 0.  1.
    8880022    1    1    2    0    0 -0.82492286137E+02  0.33313757236E+03  0.31145865019E+03  0.48804073927E+03  0.15294330000E+03 0. -1.
    8880022    1    1    2    0    0  0.82492286137E+02 -0.33313757236E+03 -0.53954495104E+03  0.65748462080E+03  0.15294330000E+03 0.  0.
<mgrwt>
<rscale>  0 0.37573564E+03</rscale>
<asrwt>0</asrwt>
<pdfrwt beam="1">  1        2 0.70572236E-01 0.37573564E+03</pdfrwt>
<pdfrwt beam="2">  1       -2 0.10566244E+00 0.37573564E+03</pdfrwt>
<totfact> 0.51507073E+01</totfact>
</mgrwt>
</event>
<event>
 4    1  0.3904059E-008  0.1536594E+04  0.7818608E-02  0.8860476E-01
         -2   -1    0    0    0  501 -0.00000000000E+00  0.00000000000E+00  0.25143878866E+04  0.25143878866E+04  0.25500000000E-02 0.  1.
          2   -1    0    0  501    0  0.00000000000E+00 -0.00000000000E+00 -0.25478214713E+04  0.25478214713E+04  0.25500000000E-02 0. -1.
    8880022    1    1    2    0    0  0.14173991201E+04  0.57333298664E+03 -0.20280012742E+04  0.25443882959E+04  0.15294330000E+03 0.  0.
    8880022    1    1    2    0    0 -0.14173991201E+04 -0.57333298664E+03  0.19945676894E+04  0.25178210619E+04  0.15294330000E+03 0.  0.
<mgrwt>
<rscale>  0 0.15365945E+04</rscale>
<asrwt>0</asrwt>
<pdfrwt beam="1">  1        2 0.39197254E+00 0.15365945E+04</pdfrwt>
<pdfrwt beam="2">  1       -2 0.38682890E+00 0.15365945E+04</pdfrwt>
<totfact> 0.27613606E-02</totfact>
</mgrwt>
</event>
<event>
 4    1  0.2061941E-008  0.1277317E+04  0.7818608E-02  0.9047749E-01
         -2   -1    0    0    0  501 -0.00000000000E+00  0.00000000000E+00  0.63438180613E+03  0.63438180613E+03  0.25500000000E-02 0.  1.
          2   -1    0    0  501    0  0.00000000000E+00 -0.00000000000E+00 -0.30509038062E+04  0.30509038062E+04  0.25500000000E-02 0. -1.
    8880022    1    1    2    0    0 -0.13106925279E+03  0.12613361036E+04 -0.19384170254E+04  0.23214220066E+04  0.15294330000E+03 0.  0.
    8880022    1    1    2    0    0  0.13106925279E+03 -0.12613361036E+04 -0.47810497472E+03  0.13638636058E+04  0.15294330000E+03 0.  0.
<mgrwt>
<rscale>  0 0.12773173E+04</rscale>
<asrwt>0</asrwt>
<pdfrwt beam="1">  1        2 0.46936981E+00 0.12773173E+04</pdfrwt>
<pdfrwt beam="2">  1       -2 0.97597203E-01 0.12773173E+04</pdfrwt>
<totfact> 0.13892222E+00</totfact>
</mgrwt>
</event>
<event>
 4    1  0.2861730E-008  0.1466053E+04  0.7818608E-02  0.8907346E-01
          2   -1    0    0  501    0  0.00000000000E+00  0.00000000000E+00  0.42586124786E+04  0.42586124786E+04  0.25500000000E-02 0. -1.
         -2   -1    0    0    0  501 -0.00000000000E+00 -0.00000000000E+00 -0.18904863615E+04  0.18904863615E+04  0.25500000000E-02 0.  1.
    8880022    1    1    2    0    0  0.14556954988E+04  0.82890325682E+02 -0.14482843693E+04  0.20607861264E+04  0.15294330000E+03 0.  1.
    8880022    1    1    2    0    0 -0.14556954988E+04 -0.82890325682E+02  0.38164104863E+04  0.40883127137E+04  0.15294330000E+03 0.  0.
<mgrwt>
<rscale>  0 0.14660532E+04</rscale>
<asrwt>0</asrwt>
<pdfrwt beam="1">  1        2 0.65517114E+00 0.14660532E+04</pdfrwt>
<pdfrwt beam="2">  1       -2 0.29084406E+00 0.14660532E+04</pdfrwt>
<totfact> 0.72078918E-03</totfact>
</mgrwt>
</event>
<event>
 4    1  0.2061941E-008  0.1201966E+04  0.7818608E-02  0.9111138E-01
          2   -1    0    0  501    0  0.00000000000E+00  0.00000000000E+00  0.20428960552E+04  0.20428960552E+04  0.25500000000E-02 0. -1.
         -2   -1    0    0    0  501 -0.00000000000E+00 -0.00000000000E+00 -0.86676601029E+03  0.86676601029E+03  0.25500000000E-02 0.  1.
    8880022    1    1    2    0    0  0.11907658803E+04 -0.58365643064E+02  0.12122904809E+04  0.17071525395E+04  0.15294330000E+03 0. -1.
    8880022    1    1    2    0    0 -0.11907658803E+04  0.58365643064E+02 -0.36160435992E+02  0.12025095260E+04  0.15294330000E+03 0.  0.
<mgrwt>
<rscale>  0 0.12019657E+04</rscale>
<asrwt>0</asrwt>
<pdfrwt beam="1">  1        2 0.31429170E+00 0.12019657E+04</pdfrwt>
<pdfrwt beam="2">  1       -2 0.13334862E+00 0.12019657E+04</pdfrwt>
<totfact> 0.25097408E+00</totfact>
</mgrwt>
</event>
<event>
 4    1  0.2061941E-008  0.4762572E+03  0.7818608E-02  0.1020169E+00
          2   -1    0    0  501    0  0.00000000000E+00  0.00000000000E+00  0.70471479518E+03  0.70471479518E+03  0.25500000000E-02 0. -1.
         -2   -1    0    0    0  501 -0.00000000000E+00 -0.00000000000E+00 -0.83012299702E+03  0.83012299702E+03  0.25500000000E-02 0.  1.
    8880022    1    1    2    0    0 -0.66751056723E+02 -0.44606456905E+03 -0.66319251423E+03  0.81648347643E+03  0.15294330000E+03 0.  0.
    8880022    1    1    2    0    0  0.66751056723E+02  0.44606456905E+03  0.53778431238E+03  0.71835431578E+03  0.15294330000E+03 0.  0.
<mgrwt>
<rscale>  0 0.47625724E+03</rscale>
<asrwt>0</asrwt>
<pdfrwt beam="1">  1        2 0.10841766E+00 0.47625724E+03</pdfrwt>
<pdfrwt beam="2">  1       -2 0.12771123E+00 0.47625724E+03</pdfrwt>
<totfact> 0.19332225E+01</totfact>
</mgrwt>
</event>
<event>
 4    1  0.2061941E-008  0.1150090E+04  0.7818608E-02  0.9157701E-01
         -2   -1    0    0    0  501 -0.00000000000E+00  0.00000000000E+00  0.77794708995E+03  0.77794708996E+03  0.25500000000E-02 0.  1.
          2   -1    0    0  501    0  0.00000000000E+00 -0.00000000000E+00 -0.28962738948E+04  0.28962738948E+04  0.25500000000E-02 0. -1.
    8880022    1    1    2    0    0 -0.10964855428E+04  0.31150293114E+03 -0.22397150344E+04  0.25177429794E+04  0.15294330000E+03 0.  0.
    8880022    1    1    2    0    0  0.10964855428E+04 -0.31150293114E+03  0.12138822956E+03  0.11564780054E+04  0.15294330000E+03 0.  0.
<mgrwt>
<rscale>  0 0.11500897E+04</rscale>
<asrwt>0</asrwt>
<pdfrwt beam="1">  1        2 0.44558060E+00 0.11500897E+04</pdfrwt>
<pdfrwt beam="2">  1       -2 0.11968417E+00 0.11500897E+04</pdfrwt>
<totfact> 0.10719615E+00</totfact>
</mgrwt>
</event>
<event>
 4    1  0.2061941E-008  0.2945201E+03  0.7818608E-02  0.1088012E+00
          2   -1    0    0  501    0  0.00000000000E+00  0.00000000000E+00  0.19957600158E+04  0.19957600158E+04  0.25500000000E-02 0. -1.
         -2   -1    0    0    0  501 -0.00000000000E+00 -0.00000000000E+00 -0.50724962959E+03  0.50724962959E+03  0.25500000000E-02 0.  1.
    8880022    1    1    2    0    0 -0.23658943998E+03 -0.85882886973E+02 -0.45243211184E+03  0.53984896242E+03  0.15294330000E+03 0.  0.
    8880022    1    1    2    0    0  0.23658943998E+03  0.85882886973E+02  0.19409424981E+04  0.19631606830E+04  0.15294330000E+03 0.  0.
<mgrwt>
<rscale>  0 0.29452010E+03</rscale>
<asrwt>0</asrwt>
<pdfrwt beam="1">  1        2 0.30704000E+00 0.29452010E+03</pdfrwt>
<pdfrwt beam="2">  1       -2 0.78038405E-01 0.29452010E+03</pdfrwt>
<totfact> 0.11327687E+01</totfact>
</mgrwt>
</event>
<event>
 4    1  0.2061941E-008  0.5732150E+03  0.7818608E-02  0.9962589E-01
          2   -1    0    0  501    0  0.00000000000E+00  0.00000000000E+00  0.14747588476E+04  0.14747588476E+04  0.25500000000E-02 0. -1.
         -2   -1    0    0    0  501 -0.00000000000E+00 -0.00000000000E+00 -0.11432849995E+04  0.11432849995E+04  0.25500000000E-02 0.  1.
    8880022    1    1    2    0    0 -0.27318568791E+03 -0.48015970078E+03  0.13403049189E+04  0.14577354654E+04  0.15294330000E+03 0.  0.
    8880022    1    1    2    0    0  0.27318568791E+03  0.48015970078E+03 -0.10088310708E+04  0.11603083818E+04  0.15294330000E+03 0.  0.
<mgrwt>
<rscale>  0 0.57321498E+03</rscale>
<asrwt>0</asrwt>
<pdfrwt beam="1">  1        2 0.22688598E+00 0.57321498E+03</pdfrwt>
<pdfrwt beam="2">  1       -2 0.17589000E+00 0.57321498E+03</pdfrwt>
<totfact> 0.27030735E+00</totfact>
</mgrwt>
</event>
<event>
 4    1  0.2061941E-008  0.1303625E+04  0.7818608E-02  0.9026696E-01
         -2   -1    0    0    0  501 -0.00000000000E+00  0.00000000000E+00  0.19608857204E+04  0.19608857204E+04  0.25500000000E-02 0.  1.
          2   -1    0    0  501    0  0.00000000000E+00 -0.00000000000E+00 -0.14024902600E+04  0.14024902600E+04  0.25500000000E-02 0. -1.
    8880022    1    1    2    0    0 -0.69906737330E+03 -0.10896562269E+04 -0.76025738532E+03  0.15091152475E+04  0.15294330000E+03 0.  0.
    8880022    1    1    2    0    0  0.69906737330E+03  0.10896562269E+04  0.13186528456E+04  0.18542607329E+04  0.15294330000E+03 0.  0.
<mgrwt>
<rscale>  0 0.13036248E+04</rscale>
<asrwt>0</asrwt>
<pdfrwt beam="1">  1        2 0.21576773E+00 0.13036248E+04</pdfrwt>
<pdfrwt beam="2">  1       -2 0.30167472E+00 0.13036248E+04</pdfrwt>
<totfact> 0.43120799E-01</totfact>
</mgrwt>
</event>
<event>
 4    1  0.2061941E-008  0.1266900E+04  0.7818608E-02  0.9056233E-01
         -2   -1    0    0    0  501 -0.00000000000E+00  0.00000000000E+00  0.11856178128E+04  0.11856178128E+04  0.25500000000E-02 0.  1.
          2   -1    0    0  501    0  0.00000000000E+00 -0.00000000000E+00 -0.46447105556E+04  0.46447105556E+04  0.25500000000E-02 0. -1.
    8880022    1    1    2    0    0  0.84864965765E+03  0.92813736354E+03 -0.41833774069E+04  0.43710048488E+04  0.15294330000E+03 0.  0.
    8880022    1    1    2    0    0 -0.84864965765E+03 -0.92813736354E+03  0.72428466412E+03  0.14593235196E+04  0.15294330000E+03 0.  0.
<mgrwt>
<rscale>  0 0.12669005E+04</rscale>
<asrwt>0</asrwt>
<pdfrwt beam="1">  1        2 0.71457085E+00 0.12669005E+04</pdfrwt>
<pdfrwt beam="2">  1       -2 0.18240274E+00 0.12669005E+04</pdfrwt>
<totfact> 0.15538208E-02</totfact>
</mgrwt>
</event>
<event>
 4    1  0.2061941E-008  0.8699922E+03  0.7818608E-02  0.9463890E-01
         -2   -1    0    0    0  501 -0.00000000000E+00  0.00000000000E+00  0.95604069580E+03  0.95604069580E+03  0.25500000000E-02 0.  1.
          2   -1    0    0  501    0  0.00000000000E+00 -0.00000000000E+00 -0.10480069552E+04  0.10480069552E+04  0.25500000000E-02 0. -1.
    8880022    1    1    2    0    0  0.34945571224E+02  0.85572988346E+03 -0.54153127533E+03  0.10247646567E+04  0.15294330000E+03 0.  0.
    8880022    1    1    2    0    0 -0.34945571224E+02 -0.85572988346E+03  0.44956501594E+03  0.97928299432E+03  0.15294330000E+03 0.  0.
<mgrwt>
<rscale>  0 0.86999223E+03</rscale>
<asrwt>0</asrwt>
<pdfrwt beam="1">  1        2 0.16123184E+00 0.86999223E+03</pdfrwt>
<pdfrwt beam="2">  1       -2 0.14708318E+00 0.86999223E+03</pdfrwt>
<totfact> 0.74425084E+00</totfact>
</mgrwt>
</event>
<event>
 4    1  0.2061941E-008  0.3023564E+03  0.7818608E-02  0.1084069E+00
          2   -1    0    0  501    0  0.00000000000E+00  0.00000000000E+00  0.15199659357E+04  0.15199659357E+04  0.25500000000E-02 0. -1.
         -2   -1    0    0    0  501 -0.00000000000E+00 -0.00000000000E+00 -0.32069863078E+03  0.32069863079E+03  0.25500000000E-02 0.  1.
    8880022    1    1    2    0    0  0.75702877210E+02  0.24959330932E+03 -0.22991926280E+03  0.37984505538E+03  0.15294330000E+03 0.  1.
    8880022    1    1    2    0    0 -0.75702877210E+02 -0.24959330932E+03  0.14291865677E+04  0.14608195111E+04  0.15294330000E+03 0.  0.
<mgrwt>
<rscale>  0 0.30235641E+03</rscale>
<asrwt>0</asrwt>
<pdfrwt beam="1">  1        2 0.23384091E+00 0.30235641E+03</pdfrwt>
<pdfrwt beam="2">  1       -2 0.49338251E-01 0.30235641E+03</pdfrwt>
<totfact> 0.52848360E+01</totfact>
</mgrwt>
</event>
<event>
 4    1  0.2061941E-008  0.9500097E+03  0.7818608E-02  0.9365139E-01
          2   -1    0    0  501    0  0.00000000000E+00  0.00000000000E+00  0.30942392103E+04  0.30942392103E+04  0.25500000000E-02 0. -1.
         -2   -1    0    0    0  501 -0.00000000000E+00 -0.00000000000E+00 -0.12548250267E+04  0.12548250267E+04  0.25500000000E-02 0.  1.
    8880022    1    1    2    0    0  0.92129980407E+03  0.17416520927E+03 -0.98540596580E+03  0.13687744225E+04  0.15294330000E+03 0.  0.
    8880022    1    1    2    0    0 -0.92129980407E+03 -0.17416520927E+03  0.28248201494E+04  0.29802898145E+04  0.15294330000E+03 0.  0.
<mgrwt>
<rscale>  0 0.95000974E+03</rscale>
<asrwt>0</asrwt>
<pdfrwt beam="1">  1        2 0.47603679E+00 0.95000974E+03</pdfrwt>
<pdfrwt beam="2">  1       -2 0.19305001E+00 0.95000974E+03</pdfrwt>
<totfact> 0.23112959E-01</totfact>
</mgrwt>
</event>
<event>
 4    1  0.2061941E-008  0.7116731E+03  0.7818608E-02  0.9697475E-01
          2   -1    0    0  501    0  0.00000000000E+00  0.00000000000E+00  0.63547913008E+03  0.63547913009E+03  0.25500000000E-02 0. -1.
         -2   -1    0    0    0  501 -0.00000000000E+00 -0.00000000000E+00 -0.14742294634E+04  0.14742294634E+04  0.25500000000E-02 0.  1.
    8880022    1    1    2    0    0 -0.54042094599E+03 -0.43707221478E+03  0.29557701241E+03  0.77061296581E+03  0.15294330000E+03 0.  0.
    8880022    1    1    2    0    0  0.54042094599E+03  0.43707221478E+03 -0.11343273458E+04  0.13390956277E+04  0.15294330000E+03 0.  0.
<mgrwt>
<rscale>  0 0.71167308E+03</rscale>
<asrwt>0</asrwt>
<pdfrwt beam="1">  1        2 0.97766020E-01 0.71167308E+03</pdfrwt>
<pdfrwt beam="2">  1       -2 0.22680453E+00 0.71167308E+03</pdfrwt>
<totfact> 0.42665842E+00</totfact>
</mgrwt>
</event>
<event>
 4    1  0.2061941E-008  0.9791189E+03  0.7818608E-02  0.9331748E-01
         -2   -1    0    0    0  501 -0.00000000000E+00  0.00000000000E+00  0.94471788248E+03  0.94471788248E+03  0.25500000000E-02 0.  1.
          2   -1    0    0  501    0  0.00000000000E+00 -0.00000000000E+00 -0.19916491075E+04  0.19916491075E+04  0.25500000000E-02 0. -1.
    8880022    1    1    2    0    0 -0.47621301459E+03  0.84172643607E+03 -0.15517038338E+04  0.18347911786E+04  0.15294330000E+03 0.  0.
    8880022    1    1    2    0    0  0.47621301459E+03 -0.84172643607E+03  0.50477260880E+03  0.11015758113E+04  0.15294330000E+03 0.  0.
<mgrwt>
<rscale>  0 0.97911893E+03</rscale>
<asrwt>0</asrwt>
<pdfrwt beam="1">  1        2 0.30640755E+00 0.97911893E+03</pdfrwt>
<pdfrwt beam="2">  1       -2 0.14534121E+00 0.97911893E+03</pdfrwt>
<totfact> 0.22005088E+00</totfact>
</mgrwt>
</event>
<event>
 4    1  0.2061941E-008  0.1096511E+04  0.7818608E-02  0.9208599E-01
          2   -1    0    0  501    0  0.00000000000E+00  0.00000000000E+00  0.14475294646E+04  0.14475294646E+04  0.25500000000E-02 0. -1.
         -2   -1    0    0    0  501 -0.00000000000E+00 -0.00000000000E+00 -0.17244286053E+04  0.17244286053E+04  0.25500000000E-02 0.  1.
    8880022    1    1    2    0    0 -0.10536612119E+04 -0.26218904309E+03 -0.12802726446E+04  0.16856555821E+04  0.15294330000E+03 0.  0.
    8880022    1    1    2    0    0  0.10536612119E+04  0.26218904309E+03  0.10033735039E+04  0.14863024878E+04  0.15294330000E+03 0.  0.
<mgrwt>
<rscale>  0 0.10965111E+04</rscale>
<asrwt>0</asrwt>
<pdfrwt beam="1">  1        2 0.22269684E+00 0.10965111E+04</pdfrwt>
<pdfrwt beam="2">  1       -2 0.26529671E+00 0.10965111E+04</pdfrwt>
<totfact> 0.69413888E-01</totfact>
</mgrwt>
</event>
<event>
 4    1  0.2061941E-008  0.1563325E+04  0.7818608E-02  0.8843401E-01
         -2   -1    0    0    0  501 -0.00000000000E+00  0.00000000000E+00  0.82486819068E+03  0.82486819069E+03  0.25500000000E-02 0.  1.
          2   -1    0    0  501    0  0.00000000000E+00 -0.00000000000E+00 -0.34332662356E+04  0.34332662356E+04  0.25500000000E-02 0. -1.
    8880022    1    1    2    0    0  0.14754996011E+04  0.49345011533E+03 -0.20922673931E+04  0.26118128927E+04  0.15294330000E+03 0.  0.
    8880022    1    1    2    0    0 -0.14754996011E+04 -0.49345011533E+03 -0.51613065186E+03  0.16463215336E+04  0.15294330000E+03 0.  0.
<mgrwt>
<rscale>  0 0.15633246E+04</rscale>
<asrwt>0</asrwt>
<pdfrwt beam="1">  1        2 0.52819480E+00 0.15633246E+04</pdfrwt>
<pdfrwt beam="2">  1       -2 0.12690280E+00 0.15633246E+04</pdfrwt>
<totfact> 0.39618710E-01</totfact>
</mgrwt>
</event>
<event>
 4    1  0.2061941E-008  0.1546260E+04  0.7818608E-02  0.8854260E-01
          2   -1    0    0  501    0  0.00000000000E+00  0.00000000000E+00  0.25228386883E+04  0.25228386883E+04  0.25500000000E-02 0. -1.
         -2   -1    0    0    0  501 -0.00000000000E+00 -0.00000000000E+00 -0.13656732133E+04  0.13656732133E+04  0.25500000000E-02 0.  1.
    8880022    1    1    2    0    0 -0.13417808535E+04  0.75309438674E+03  0.16541788722E+04  0.22643379625E+04  0.15294330000E+03 0.  0.
    8880022    1    1    2    0    0  0.13417808535E+04 -0.75309438674E+03 -0.49701339724E+03  0.16241739390E+04  0.15294330000E+03 0.  0.
<mgrwt>
<rscale>  0 0.15462596E+04</rscale>
<asrwt>0</asrwt>
<pdfrwt beam="1">  1        2 0.38812902E+00 0.15462596E+04</pdfrwt>
<pdfrwt beam="2">  1       -2 0.21010357E+00 0.15462596E+04</pdfrwt>
<totfact> 0.36064584E-01</totfact>
</mgrwt>
</event>
<event>
 4    1  0.2061941E-008  0.8252094E+03  0.7818608E-02  0.9524228E-01
         -2   -1    0    0    0  501 -0.00000000000E+00  0.00000000000E+00  0.17056477183E+04  0.17056477183E+04  0.25500000000E-02 0.  1.
          2   -1    0    0  501    0  0.00000000000E+00 -0.00000000000E+00 -0.11452393479E+04  0.11452393479E+04  0.25500000000E-02 0. -1.
    8880022    1    1    2    0    0 -0.80241006540E+03 -0.11711977147E+03 -0.87025119189E+03  0.11992946860E+04  0.15294330000E+03 0. -1.
    8880022    1    1    2    0    0  0.80241006540E+03  0.11711977147E+03  0.14306595623E+04  0.16515923801E+04  0.15294330000E+03 0.  0.
<mgrwt>
<rscale>  0 0.82520943E+03</rscale>
<asrwt>0</asrwt>
<pdfrwt beam="1">  1        2 0.17619067E+00 0.82520943E+03</pdfrwt>
<pdfrwt beam="2">  1       -2 0.26240734E+00 0.82520943E+03</pdfrwt>
<totfact> 0.11301444E+00</totfact>
</mgrwt>
</event>
<event>
 4    1  0.2061941E-008  0.5821953E+03  0.7818608E-02  0.9943049E-01
          2   -1    0    0  501    0  0.00000000000E+00  0.00000000000E+00  0.81069511323E+03  0.81069511323E+03  0.25500000000E-02 0. -1.
         -2   -1    0    0    0  501 -0.00000000000E+00 -0.00000000000E+00 -0.10608601073E+04  0.10608601073E+04  0.25500000000E-02 0.  1.
    8880022    1    1    2    0    0  0.39930952821E+03  0.39510968215E+03 -0.85347947778E+03  0.10331401803E+04  0.15294330000E+03 0.  0.
    8880022    1    1    2    0    0 -0.39930952821E+03 -0.39510968215E+03  0.60331448374E+03  0.83841504015E+03  0.15294330000E+03 0.  0.
<mgrwt>
<rscale>  0 0.58219534E+03</rscale>
<asrwt>0</asrwt>
<pdfrwt beam="1">  1        2 0.12472232E+00 0.58219534E+03</pdfrwt>
<pdfrwt beam="2">  1       -2 0.16320925E+00 0.58219534E+03</pdfrwt>
<totfact> 0.84013235E+00</totfact>
</mgrwt>
</event>
<event>
 4    1  0.2061941E-008  0.9138202E+03  0.7818608E-02  0.9408468E-01
         -2   -1    0    0    0  501 -0.00000000000E+00  0.00000000000E+00  0.47464761794E+03  0.47464761795E+03  0.25500000000E-02 0.  1.
          2   -1    0    0  501    0  0.00000000000E+00 -0.00000000000E+00 -0.19205792766E+04  0.19205792766E+04  0.25500000000E-02 0. -1.
    8880022    1    1    2    0    0 -0.90086340181E+03  0.10994097355E+02 -0.10699690841E+04  0.14070896321E+04  0.15294330000E+03 0.  0.
    8880022    1    1    2    0    0  0.90086340181E+03 -0.10994097355E+02 -0.37596257455E+03  0.98813726242E+03  0.15294330000E+03 0.  0.
<mgrwt>
<rscale>  0 0.91382022E+03</rscale>
<asrwt>0</asrwt>
<pdfrwt beam="1">  1        2 0.29547373E+00 0.91382022E+03</pdfrwt>
<pdfrwt beam="2">  1       -2 0.73022711E-01 0.91382022E+03</pdfrwt>
<totfact> 0.12672904E+01</totfact>
</mgrwt>
</event>
<event>
 4    1  0.2061941E-008  0.1113066E+04  0.7818608E-02  0.9192550E-01
          2   -1    0    0  501    0  0.00000000000E+00  0.00000000000E+00  0.16629895671E+04  0.16629895671E+04  0.25500000000E-02 0. -1.
         -2   -1    0    0    0  501 -0.00000000000E+00 -0.00000000000E+00 -0.10025014385E+04  0.10025014385E+04  0.25500000000E-02 0.  1.
    8880022    1    1    2    0    0  0.10539525004E+04  0.32358613713E+03  0.10057053975E+04  0.15001196155E+04  0.15294330000E+03 0.  0.
    8880022    1    1    2    0    0 -0.10539525004E+04 -0.32358613713E+03 -0.34521726890E+03  0.11653713901E+04  0.15294330000E+03 0.  0.
<mgrwt>
<rscale>  0 0.11130658E+04</rscale>
<asrwt>0</asrwt>
<pdfrwt beam="1">  1        2 0.25584455E+00 0.11130658E+04</pdfrwt>
<pdfrwt beam="2">  1       -2 0.15423099E+00 0.11130658E+04</pdfrwt>
<totfact> 0.28061618E+00</totfact>
</mgrwt>
</event>
<event>
 4    1  0.2061941E-008  0.1116188E+04  0.7818608E-02  0.9189556E-01
          2   -1    0    0  501    0  0.00000000000E+00  0.00000000000E+00  0.71245364892E+03  0.71245364892E+03  0.25500000000E-02 0. -1.
         -2   -1    0    0    0  501 -0.00000000000E+00 -0.00000000000E+00 -0.38200494083E+04  0.38200494083E+04  0.25500000000E-02 0.  1.
    8880022    1    1    2    0    0 -0.69854639436E+02 -0.11034513149E+04  0.11498202570E+03  0.11220949132E+04  0.15294330000E+03 0.  0.
    8880022    1    1    2    0    0  0.69854639436E+02  0.11034513149E+04 -0.32225777851E+04  0.34104081441E+04  0.15294330000E+03 0.  0.
<mgrwt>
<rscale>  0 0.11161882E+04</rscale>
<asrwt>0</asrwt>
<pdfrwt beam="1">  1        2 0.10960826E+00 0.11161882E+04</pdfrwt>
<pdfrwt beam="2">  1       -2 0.58769990E+00 0.11161882E+04</pdfrwt>
<totfact> 0.22054878E-02</totfact>
</mgrwt>
</event>
<event>
 4    1  0.2061941E-008  0.9735651E+03  0.7818608E-02  0.9338023E-01
          2   -1    0    0  501    0  0.00000000000E+00  0.00000000000E+00  0.17713905939E+04  0.17713905939E+04  0.25500000000E-02 0. -1.
         -2   -1    0    0    0  501 -0.00000000000E+00 -0.00000000000E+00 -0.82341364054E+03  0.82341364055E+03  0.25500000000E-02 0.  1.
    8880022    1    1    2    0    0 -0.51827676226E+02 -0.96007874579E+03  0.12417318709E+04  0.15778868775E+04  0.15294330000E+03 0.  0.
    8880022    1    1    2    0    0  0.51827676226E+02  0.96007874579E+03 -0.29375491754E+03  0.10169173569E+04  0.15294330000E+03 0.  0.
<mgrwt>
<rscale>  0 0.97356508E+03</rscale>
<asrwt>0</asrwt>
<pdfrwt beam="1">  1        2 0.27252163E+00 0.97356508E+03</pdfrwt>
<pdfrwt beam="2">  1       -2 0.12667902E+00 0.97356508E+03</pdfrwt>
<totfact> 0.41463832E+00</totfact>
</mgrwt>
</event>
<event>
 4    1  0.2061941E-008  0.4207063E+03  0.7818608E-02  0.1036837E+00
         -2   -1    0    0    0  501 -0.00000000000E+00  0.00000000000E+00  0.22851602954E+03  0.22851602956E+03  0.25500000000E-02 0.  1.
          2   -1    0    0  501    0  0.00000000000E+00 -0.00000000000E+00 -0.11542012189E+04  0.11542012189E+04  0.25500000000E-02 0. -1.
    8880022    1    1    2    0    0 -0.38454659142E+03 -0.75670470908E+02 -0.66324171239E+02  0.42590215994E+03  0.15294330000E+03 0.  0.
    8880022    1    1    2    0    0  0.38454659142E+03  0.75670470908E+02 -0.85936101809E+03  0.95681508849E+03  0.15294330000E+03 0.  0.
<mgrwt>
<rscale>  0 0.42070626E+03</rscale>
<asrwt>0</asrwt>
<pdfrwt beam="1">  1        2 0.17756942E+00 0.42070626E+03</pdfrwt>
<pdfrwt beam="2">  1       -2 0.35156313E-01 0.42070626E+03</pdfrwt>
<totfact> 0.15991848E+02</totfact>
</mgrwt>
</event>
<event>
 4    1  0.2061941E-008  0.1225478E+04  0.7818608E-02  0.9090843E-01
          2   -1    0    0  501    0  0.00000000000E+00  0.00000000000E+00  0.23666514980E+04  0.23666514980E+04  0.25500000000E-02 0. -1.
         -2   -1    0    0    0  501 -0.00000000000E+00 -0.00000000000E+00 -0.11431259320E+04  0.11431259320E+04  0.25500000000E-02 0.  1.
    8880022    1    1    2    0    0 -0.11170355006E+04 -0.48024661941E+03  0.17822685997E+04  0.21629327635E+04  0.15294330000E+03 0.  0.
    8880022    1    1    2    0    0  0.11170355006E+04  0.48024661941E+03 -0.55874303376E+03  0.13468446665E+04  0.15294330000E+03 0.  0.
<mgrwt>
<rscale>  0 0.12254782E+04</rscale>
<asrwt>0</asrwt>
<pdfrwt beam="1">  1        2 0.36410023E+00 0.12254782E+04</pdfrwt>
<pdfrwt beam="2">  1       -2 0.17586553E+00 0.12254782E+04</pdfrwt>
<totfact> 0.78198550E-01</totfact>
</mgrwt>
</event>
<event>
 4    1  0.2061941E-008  0.1167026E+04  0.7818608E-02  0.9142218E-01
         -2   -1    0    0    0  501 -0.00000000000E+00  0.00000000000E+00  0.66657029773E+03  0.66657029773E+03  0.25500000000E-02 0.  1.
          2   -1    0    0  501    0  0.00000000000E+00 -0.00000000000E+00 -0.32219999440E+04  0.32219999440E+04  0.25500000000E-02 0. -1.
    8880022    1    1    2    0    0 -0.36743301549E+03  0.10970648139E+04 -0.24537316216E+04  0.27171214089E+04  0.15294330000E+03 0.  0.
    8880022    1    1    2    0    0  0.36743301549E+03 -0.10970648139E+04 -0.10169802467E+03  0.11714488328E+04  0.15294330000E+03 0.  0.
<mgrwt>
<rscale>  0 0.11670261E+04</rscale>
<asrwt>0</asrwt>
<pdfrwt beam="1">  1        2 0.49569229E+00 0.11670261E+04</pdfrwt>
<pdfrwt beam="2">  1       -2 0.10254928E+00 0.11670261E+04</pdfrwt>
<totfact> 0.97478683E-01</totfact>
</mgrwt>
</event>
<event>
 4    1  0.2061941E-008  0.1512886E+04  0.7818608E-02  0.8875929E-01
         -2   -1    0    0    0  501 -0.00000000000E+00  0.00000000000E+00  0.13993284923E+04  0.13993284924E+04  0.25500000000E-02 0.  1.
          2   -1    0    0  501    0  0.00000000000E+00 -0.00000000000E+00 -0.19470192933E+04  0.19470192933E+04  0.25500000000E-02 0. -1.
    8880022    1    1    2    0    0 -0.14437829405E+04  0.42534971559E+03 -0.94294085399E+03  0.17826835578E+04  0.15294330000E+03 0.  0.
    8880022    1    1    2    0    0  0.14437829405E+04 -0.42534971559E+03  0.39525005308E+03  0.15636642278E+04  0.15294330000E+03 0.  0.
<mgrwt>
<rscale>  0 0.15128857E+04</rscale>
<asrwt>0</asrwt>
<pdfrwt beam="1">  1        2 0.29954143E+00 0.15128857E+04</pdfrwt>
<pdfrwt beam="2">  1       -2 0.21528131E+00 0.15128857E+04</pdfrwt>
<totfact> 0.70991116E-01</totfact>
</mgrwt>
</event>
<event>
 4    1  0.2061941E-008  0.1026064E+04  0.7818608E-02  0.9280412E-01
          2   -1    0    0  501    0  0.00000000000E+00  0.00000000000E+00  0.13768992372E+04  0.13768992372E+04  0.25500000000E-02 0. -1.
         -2   -1    0    0    0  501 -0.00000000000E+00 -0.00000000000E+00 -0.14298013242E+04  0.14298013242E+04  0.25500000000E-02 0.  1.
    8880022    1    1    2    0    0  0.24412911894E+03  0.98479250807E+03 -0.98364009874E+03  0.14213918557E+04  0.15294330000E+03 0.  0.
    8880022    1    1    2    0    0 -0.24412911894E+03 -0.98479250807E+03  0.93073801175E+03  0.13853087057E+04  0.15294330000E+03 0.  0.
<mgrwt>
<rscale>  0 0.10260638E+04</rscale>
<asrwt>0</asrwt>
<pdfrwt beam="1">  1        2 0.21183065E+00 0.10260638E+04</pdfrwt>
<pdfrwt beam="2">  1       -2 0.21996943E+00 0.10260638E+04</pdfrwt>
<totfact> 0.14618316E+00</totfact>
</mgrwt>
</event>
<event>
 4    1  0.2061941E-008  0.7141531E+03  0.7818608E-02  0.9693330E-01
          2   -1    0    0  501    0  0.00000000000E+00  0.00000000000E+00  0.14192030573E+04  0.14192030573E+04  0.25500000000E-02 0. -1.
         -2   -1    0    0    0  501 -0.00000000000E+00 -0.00000000000E+00 -0.76949899246E+03  0.76949899246E+03  0.25500000000E-02 0.  1.
    8880022    1    1    2    0    0  0.60934059708E+03 -0.33959836315E+03 -0.47408853781E+03  0.85718994756E+03  0.15294330000E+03 0.  0.
    8880022    1    1    2    0    0 -0.60934059708E+03  0.33959836315E+03  0.11237926026E+04  0.13315121022E+04  0.15294330000E+03 0.  0.
<mgrwt>
<rscale>  0 0.71415311E+03</rscale>
<asrwt>0</asrwt>
<pdfrwt beam="1">  1        2 0.21833893E+00 0.71415311E+03</pdfrwt>
<pdfrwt beam="2">  1       -2 0.11838446E+00 0.71415311E+03</pdfrwt>
<totfact> 0.79705989E+00</totfact>
</mgrwt>
</event>
<event>
 4    1  0.2061941E-008  0.2865936E+03  0.7818608E-02  0.1092141E+00
          2   -1    0    0  501    0  0.00000000000E+00  0.00000000000E+00  0.10432166994E+04  0.10432166994E+04  0.25500000000E-02 0. -1.
         -2   -1    0    0    0  501 -0.00000000000E+00 -0.00000000000E+00 -0.18316004936E+03  0.18316004937E+03  0.25500000000E-02 0.  1.
    8880022    1    1    2    0    0 -0.17333271483E+03  0.16941074268E+03 -0.32975348906E+02  0.28848441278E+03  0.15294330000E+03 0.  0.
    8880022    1    1    2    0    0  0.17333271483E+03 -0.16941074268E+03  0.89303199895E+03  0.93789233600E+03  0.15294330000E+03 0. -1.
<mgrwt>
<rscale>  0 0.28659358E+03</rscale>
<asrwt>0</asrwt>
<pdfrwt beam="1">  1        2 0.16049487E+00 0.28659358E+03</pdfrwt>
<pdfrwt beam="2">  1       -2 0.28178470E-01 0.28659358E+03</pdfrwt>
<totfact> 0.28495087E+02</totfact>
</mgrwt>
</event>
<event>
 4    1  0.2061941E-008  0.3577853E+03  0.7818608E-02  0.1059464E+00
         -2   -1    0    0    0  501 -0.00000000000E+00  0.00000000000E+00  0.61943470204E+03  0.61943470204E+03  0.25500000000E-02 0.  1.
          2   -1    0    0  501    0  0.00000000000E+00 -0.00000000000E+00 -0.40244234720E+04  0.40244234720E+04  0.25500000000E-02 0. -1.
    8880022    1    1    2    0    0  0.18164434315E+03  0.26762661513E+03 -0.39640215708E+04  0.39801353419E+04  0.15294330000E+03 0.  0.
    8880022    1    1    2    0    0 -0.18164434315E+03 -0.26762661513E+03  0.55903280086E+03  0.66372283219E+03  0.15294330000E+03 0.  1.
<mgrwt>
<rscale>  0 0.35778531E+03</rscale>
<asrwt>0</asrwt>
<pdfrwt beam="1">  1        2 0.61914206E+00 0.35778531E+03</pdfrwt>
<pdfrwt beam="2">  1       -2 0.95297649E-01 0.35778531E+03</pdfrwt>
<totfact> 0.39422221E-01</totfact>
</mgrwt>
</event>
<event>
 4    1  0.2061941E-008  0.1543798E+04  0.7818608E-02  0.8855839E-01
          2   -1    0    0  501    0  0.00000000000E+00  0.00000000000E+00  0.18642830669E+04  0.18642830669E+04  0.25500000000E-02 0. -1.
         -2   -1    0    0    0  501 -0.00000000000E+00 -0.00000000000E+00 -0.16374374858E+04  0.16374374858E+04  0.25500000000E-02 0.  1.
    8880022    1    1    2    0    0  0.11682160492E+04  0.99759327674E+03  0.93327339148E+03  0.18039711638E+04  0.15294330000E+03 0.  0.
    8880022    1    1    2    0    0 -0.11682160492E+04 -0.99759327674E+03 -0.70642781043E+03  0.16977493890E+04  0.15294330000E+03 0.  0.
<mgrwt>
<rscale>  0 0.15437982E+04</rscale>
<asrwt>0</asrwt>
<pdfrwt beam="1">  1        2 0.28681278E+00 0.15437982E+04</pdfrwt>
<pdfrwt beam="2">  1       -2 0.25191346E+00 0.15437982E+04</pdfrwt>
<totfact> 0.46412835E-01</totfact>
</mgrwt>
</event>
<event>
 4    1  0.2061941E-008  0.3321866E+03  0.7818608E-02  0.1070173E+00
          2   -1    0    0  501    0  0.00000000000E+00  0.00000000000E+00  0.93656792934E+03  0.93656792934E+03  0.25500000000E-02 0. -1.
         -2   -1    0    0    0  501 -0.00000000000E+00 -0.00000000000E+00 -0.18361756051E+03  0.18361756053E+03  0.25500000000E-02 0.  1.
    8880022    1    1    2    0    0  0.78357146646E+02  0.28428229265E+03  0.41199152695E+02  0.33473166499E+03  0.15294330000E+03 0.  0.
    8880022    1    1    2    0    0 -0.78357146646E+02 -0.28428229265E+03  0.71175121613E+03  0.78545382489E+03  0.15294330000E+03 0. -1.
<mgrwt>
<rscale>  0 0.33218657E+03</rscale>
<asrwt>0</asrwt>
<pdfrwt beam="1">  1        2 0.14408737E+00 0.33218657E+03</pdfrwt>
<pdfrwt beam="2">  1       -2 0.28248856E-01 0.33218657E+03</pdfrwt>
<totfact> 0.32878831E+02</totfact>
</mgrwt>
</event>
<event>
 4    1  0.2061941E-008  0.4237187E+03  0.7818608E-02  0.1035863E+00
          2   -1    0    0  501    0  0.00000000000E+00  0.00000000000E+00  0.43631736629E+03  0.43631736629E+03  0.25500000000E-02 0. -1.
         -2   -1    0    0    0  501 -0.00000000000E+00 -0.00000000000E+00 -0.12568163592E+04  0.12568163592E+04  0.25500000000E-02 0.  1.
    8880022    1    1    2    0    0  0.38832329618E+03 -0.73149906018E+02  0.28403767567E+03  0.51011267904E+03  0.15294330000E+03 0.  0.
    8880022    1    1    2    0    0 -0.38832329618E+03  0.73149906018E+02 -0.11045366686E+04  0.11830210465E+04  0.15294330000E+03 0.  0.
<mgrwt>
<rscale>  0 0.42371871E+03</rscale>
<asrwt>0</asrwt>
<pdfrwt beam="1">  1        2 0.67125749E-01 0.42371871E+03</pdfrwt>
<pdfrwt beam="2">  1       -2 0.19335636E+00 0.42371871E+03</pdfrwt>
<totfact> 0.11275160E+01</totfact>
</mgrwt>
</event>
<event>
 4    1  0.2061941E-008  0.7966506E+03  0.7818608E-02  0.9564878E-01
          2   -1    0    0  501    0  0.00000000000E+00  0.00000000000E+00  0.11333090755E+04  0.11333090755E+04  0.25500000000E-02 0. -1.
         -2   -1    0    0    0  501 -0.00000000000E+00 -0.00000000000E+00 -0.12202254201E+04  0.12202254201E+04  0.25500000000E-02 0.  1.
    8880022    1    1    2    0    0  0.44940082908E+03 -0.63976508902E+03 -0.90905755165E+03  0.12087339490E+04  0.15294330000E+03 0.  0.
    8880022    1    1    2    0    0 -0.44940082908E+03  0.63976508902E+03  0.82214120703E+03  0.11448005466E+04  0.15294330000E+03 0.  0.
<mgrwt>
<rscale>  0 0.79665057E+03</rscale>
<asrwt>0</asrwt>
<pdfrwt beam="1">  1        2 0.17435524E+00 0.79665057E+03</pdfrwt>
<pdfrwt beam="2">  1       -2 0.18772699E+00 0.79665057E+03</pdfrwt>
<totfact> 0.33946895E+00</totfact>
</mgrwt>
</event>
<event>
 4    1  0.2061941E-008  0.6800169E+03  0.7818608E-02  0.9752030E-01
         -2   -1    0    0    0  501 -0.00000000000E+00  0.00000000000E+00  0.60155722742E+03  0.60155722743E+03  0.25500000000E-02 0.  1.
          2   -1    0    0  501    0  0.00000000000E+00 -0.00000000000E+00 -0.99189127217E+03  0.99189127217E+03  0.25500000000E-02 0. -1.
    8880022    1    1    2    0    0 -0.63264947602E+03 -0.19694145991E+03  0.18275747659E+03  0.70414717666E+03  0.15294330000E+03 0.  0.
    8880022    1    1    2    0    0  0.63264947602E+03  0.19694145991E+03 -0.57309152134E+03  0.88930132294E+03  0.15294330000E+03 0.  0.
<mgrwt>
<rscale>  0 0.68001688E+03</rscale>
<asrwt>0</asrwt>
<pdfrwt beam="1">  1        2 0.15259866E+00 0.68001688E+03</pdfrwt>
<pdfrwt beam="2">  1       -2 0.92547266E-01 0.68001688E+03</pdfrwt>
<totfact> 0.25851985E+01</totfact>
</mgrwt>
</event>
<event>
 4    1  0.2061941E-008  0.3142419E+03  0.7818608E-02  0.1078330E+00
          2   -1    0    0  501    0  0.00000000000E+00  0.00000000000E+00  0.15815255956E+04  0.15815255956E+04  0.25500000000E-02 0. -1.
         -2   -1    0    0    0  501 -0.00000000000E+00 -0.00000000000E+00 -0.64163552911E+03  0.64163552911E+03  0.25500000000E-02 0.  1.
    8880022    1    1    2    0    0  0.14306616263E+03 -0.23428275125E+03  0.15260569134E+04  0.15580749951E+04  0.15294330000E+03 0.  0.
    8880022    1    1    2    0    0 -0.14306616263E+03  0.23428275125E+03 -0.58616684689E+03  0.66508612963E+03  0.15294330000E+03 0.  1.
<mgrwt>
<rscale>  0 0.31424193E+03</rscale>
<asrwt>0</asrwt>
<pdfrwt beam="1">  1        2 0.24331163E+00 0.31424193E+03</pdfrwt>
<pdfrwt beam="2">  1       -2 0.98713159E-01 0.31424193E+03</pdfrwt>
<totfact> 0.10943243E+01</totfact>
</mgrwt>
</event>
<event>
 4    1  0.2061941E-008  0.1118612E+04  0.7818608E-02  0.9187239E-01
          2   -1    0    0  501    0  0.00000000000E+00  0.00000000000E+00  0.28972226595E+04  0.28972226595E+04  0.25500000000E-02 0. -1.
         -2   -1    0    0    0  501 -0.00000000000E+00 -0.00000000000E+00 -0.52736713287E+03  0.52736713288E+03  0.25500000000E-02 0.  1.
    8880022    1    1    2    0    0  0.92508982570E+03 -0.61000857846E+03  0.19134829354E+04  0.22164634552E+04  0.15294330000E+03 0.  0.
    8880022    1    1    2    0    0 -0.92508982570E+03  0.61000857846E+03  0.45637259122E+03  0.12081263371E+04  0.15294330000E+03 0.  0.
<mgrwt>
<rscale>  0 0.11186122E+04</rscale>
<asrwt>0</asrwt>
<pdfrwt beam="1">  1        2 0.44572657E+00 0.11186122E+04</pdfrwt>
<pdfrwt beam="2">  1       -2 0.81133405E-01 0.11186122E+04</pdfrwt>
<totfact> 0.27062552E+00</totfact>
</mgrwt>
</event>
<event>
 4    1  0.2061941E-008  0.1598320E+03  0.7818608E-02  0.1188887E+00
          2   -1    0    0  501    0  0.00000000000E+00  0.00000000000E+00  0.22548945102E+04  0.22548945102E+04  0.25500000000E-02 0. -1.
         -2   -1    0    0    0  501 -0.00000000000E+00 -0.00000000000E+00 -0.41474363516E+03  0.41474363517E+03  0.25500000000E-02 0.  1.
    8880022    1    1    2    0    0 -0.37140196689E+02  0.27842666388E+02  0.22365371396E+04  0.22422409858E+04  0.15294330000E+03 0. -1.
    8880022    1    1    2    0    0  0.37140196689E+02 -0.27842666388E+02 -0.39638626459E+03  0.42739715962E+03  0.15294330000E+03 0.  0.
<mgrwt>
<rscale>  0 0.15983198E+03</rscale>
<asrwt>0</asrwt>
<pdfrwt beam="1">  1        2 0.34690684E+00 0.15983198E+03</pdfrwt>
<pdfrwt beam="2">  1       -2 0.63806715E-01 0.15983198E+03</pdfrwt>
<totfact> 0.13744011E+01</totfact>
</mgrwt>
</event>
<event>
 4    1  0.2061941E-008  0.1820026E+04  0.7818608E-02  0.8695722E-01
          2   -1    0    0  501    0  0.00000000000E+00  0.00000000000E+00  0.22070002241E+04  0.22070002241E+04  0.25500000000E-02 0. -1.
         -2   -1    0    0    0  501 -0.00000000000E+00 -0.00000000000E+00 -0.23488002634E+04  0.23488002634E+04  0.25500000000E-02 0.  1.
    8880022    1    1    2    0    0 -0.64197128645E+03  0.16961651164E+04 -0.14395206595E+04  0.23204987862E+04  0.15294330000E+03 0.  0.
    8880022    1    1    2    0    0  0.64197128645E+03 -0.16961651164E+04  0.12977206202E+04  0.22353017013E+04  0.15294330000E+03 0.  0.
<mgrwt>
<rscale>  0 0.18200261E+04</rscale>
<asrwt>0</asrwt>
<pdfrwt beam="1">  1        2 0.33953849E+00 0.18200261E+04</pdfrwt>
<pdfrwt beam="2">  1       -2 0.36135389E+00 0.18200261E+04</pdfrwt>
<totfact> 0.60909653E-02</totfact>
</mgrwt>
</event>
<event>
 4    1  0.2061941E-008  0.8021268E+03  0.7818608E-02  0.9556944E-01
          2   -1    0    0  501    0  0.00000000000E+00  0.00000000000E+00  0.29512397533E+04  0.29512397533E+04  0.25500000000E-02 0. -1.
         -2   -1    0    0    0  501 -0.00000000000E+00 -0.00000000000E+00 -0.57188036310E+03  0.57188036310E+03  0.25500000000E-02 0.  1.
    8880022    1    1    2    0    0 -0.44993364256E+03 -0.64620083791E+03 -0.19600800286E+03  0.82572791877E+03  0.15294330000E+03 0.  0.
    8880022    1    1    2    0    0  0.44993364256E+03  0.64620083791E+03  0.25753673930E+04  0.26973921976E+04  0.15294330000E+03 0.  0.
<mgrwt>
<rscale>  0 0.80212683E+03</rscale>
<asrwt>0</asrwt>
<pdfrwt beam="1">  1        2 0.45403689E+00 0.80212683E+03</pdfrwt>
<pdfrwt beam="2">  1       -2 0.87981593E-01 0.80212683E+03</pdfrwt>
<totfact> 0.21931682E+00</totfact>
</mgrwt>
</event>
<event>
 4    1  0.2061941E-008  0.1098336E+04  0.7818608E-02  0.9206816E-01
          2   -1    0    0  501    0  0.00000000000E+00  0.00000000000E+00  0.20346146849E+04  0.20346146849E+04  0.25500000000E-02 0. -1.
         -2   -1    0    0    0  501 -0.00000000000E+00 -0.00000000000E+00 -0.22710076627E+04  0.22710076627E+04  0.25500000000E-02 0.  1.
    8880022    1    1    2    0    0  0.64559093611E+03  0.87530672814E+03  0.17323729944E+04  0.20512087583E+04  0.15294330000E+03 0.  0.
    8880022    1    1    2    0    0 -0.64559093611E+03 -0.87530672814E+03 -0.19687659722E+04  0.22544135893E+04  0.15294330000E+03 0.  0.
<mgrwt>
<rscale>  0 0.10983356E+04</rscale>
<asrwt>0</asrwt>
<pdfrwt beam="1">  1        2 0.31301765E+00 0.10983356E+04</pdfrwt>
<pdfrwt beam="2">  1       -2 0.34938579E+00 0.10983356E+04</pdfrwt>
<totfact> 0.10024798E-01</totfact>
</mgrwt>
</event>
<event>
 4    1  0.2061941E-008  0.8333074E+03  0.7818608E-02  0.9513019E-01
          2   -1    0    0  501    0  0.00000000000E+00  0.00000000000E+00  0.14447248232E+04  0.14447248232E+04  0.25500000000E-02 0. -1.
         -2   -1    0    0    0  501 -0.00000000000E+00 -0.00000000000E+00 -0.84187321607E+03  0.84187321607E+03  0.25500000000E-02 0.  1.
    8880022    1    1    2    0    0 -0.31065580122E+03  0.75795942764E+03 -0.44747919744E+03  0.94585348016E+03  0.15294330000E+03 0.  0.
    8880022    1    1    2    0    0  0.31065580122E+03 -0.75795942764E+03  0.10503308046E+04  0.13407445591E+04  0.15294330000E+03 0.  0.
<mgrwt>
<rscale>  0 0.83330737E+03</rscale>
<asrwt>0</asrwt>
<pdfrwt beam="1">  1        2 0.22226535E+00 0.83330737E+03</pdfrwt>
<pdfrwt beam="2">  1       -2 0.12951896E+00 0.83330737E+03</pdfrwt>
<totfact> 0.60580251E+00</totfact>
</mgrwt>
</event>
<event>
 4    1  0.2061941E-008  0.1485668E+04  0.7818608E-02  0.8894040E-01
         -2   -1    0    0    0  501 -0.00000000000E+00  0.00000000000E+00  0.18251675886E+04  0.18251675886E+04  0.25500000000E-02 0.  1.
          2   -1    0    0  501    0  0.00000000000E+00 -0.00000000000E+00 -0.14700599155E+04  0.14700599155E+04  0.25500000000E-02 0. -1.
    8880022    1    1    2    0    0  0.16774220973E+03 -0.14682233808E+04 -0.51633974294E+03  0.15728368409E+04  0.15294330000E+03 0.  0.
    8880022    1    1    2    0    0 -0.16774220973E+03  0.14682233808E+04  0.87144741605E+03  0.17223906633E+04  0.15294330000E+03 0.  0.
<mgrwt>
<rscale>  0 0.14856679E+04</rscale>
<asrwt>0</asrwt>
<pdfrwt beam="1">  1        2 0.22616306E+00 0.14856679E+04</pdfrwt>
<pdfrwt beam="2">  1       -2 0.28079501E+00 0.14856679E+04</pdfrwt>
<totfact> 0.51793250E-01</totfact>
</mgrwt>
</event>
<event>
 4    1  0.2061941E-008  0.1438985E+04  0.7818608E-02  0.8926072E-01
         -2   -1    0    0    0  501 -0.00000000000E+00  0.00000000000E+00  0.59190909191E+03  0.59190909191E+03  0.25500000000E-02 0.  1.
          2   -1    0    0  501    0  0.00000000000E+00 -0.00000000000E+00 -0.35690626665E+04  0.35690626665E+04  0.25500000000E-02 0. -1.
    8880022    1    1    2    0    0  0.59248620247E+03  0.13024006455E+04 -0.11956412517E+04  0.18708920325E+04  0.15294330000E+03 0.  0.
    8880022    1    1    2    0    0 -0.59248620247E+03 -0.13024006455E+04 -0.17815123230E+04  0.22900797260E+04  0.15294330000E+03 0.  0.
<mgrwt>
<rscale>  0 0.14389854E+04</rscale>
<asrwt>0</asrwt>
<pdfrwt beam="1">  1        2 0.54908655E+00 0.14389854E+04</pdfrwt>
<pdfrwt beam="2">  1       -2 0.91062939E-01 0.14389854E+04</pdfrwt>
<totfact> 0.72625384E-01</totfact>
</mgrwt>
</event>
<event>
 4    1  0.2208482E-008  0.1149929E+04  0.7818608E-02  0.9157849E-01
          2   -1    0    0  501    0  0.00000000000E+00  0.00000000000E+00  0.30894359404E+04  0.30894359404E+04  0.25500000000E-02 0. -1.
         -2   -1    0    0    0  501 -0.00000000000E+00 -0.00000000000E+00 -0.25174591284E+04  0.25174591284E+04  0.25500000000E-02 0.  1.
    8880022    1    1    2    0    0 -0.75220694915E+03 -0.85622952039E+03  0.28400197890E+04  0.30639922227E+04  0.15294330000E+03 0.  0.
    8880022    1    1    2    0    0  0.75220694915E+03  0.85622952039E+03 -0.22680429771E+04  0.25429028461E+04  0.15294330000E+03 0.  0.
<mgrwt>
<rscale>  0 0.11499287E+04</rscale>
<asrwt>0</asrwt>
<pdfrwt beam="1">  1        2 0.47529783E+00 0.11499287E+04</pdfrwt>
<pdfrwt beam="2">  1       -2 0.38730141E+00 0.11499287E+04</pdfrwt>
<totfact> 0.13837248E-02</totfact>
</mgrwt>
</event>
<event>
 4    1  0.2061941E-008  0.7360613E+03  0.7818608E-02  0.9657475E-01
          2   -1    0    0  501    0  0.00000000000E+00  0.00000000000E+00  0.10710180317E+04  0.10710180317E+04  0.25500000000E-02 0. -1.
         -2   -1    0    0    0  501 -0.00000000000E+00 -0.00000000000E+00 -0.83353558752E+03  0.83353558753E+03  0.25500000000E-02 0.  1.
    8880022    1    1    2    0    0 -0.36057968049E+03 -0.62319890446E+03 -0.47832503433E+03  0.87782747279E+03  0.15294330000E+03 0.  0.
    8880022    1    1    2    0    0  0.36057968049E+03  0.62319890446E+03  0.71580747855E+03  0.10267261465E+04  0.15294330000E+03 0.  0.
<mgrwt>
<rscale>  0 0.73606130E+03</rscale>
<asrwt>0</asrwt>
<pdfrwt beam="1">  1        2 0.16477200E+00 0.73606130E+03</pdfrwt>
<pdfrwt beam="2">  1       -2 0.12823624E+00 0.73606130E+03</pdfrwt>
<totfact> 0.10412594E+01</totfact>
</mgrwt>
</event>
<event>
 4    1  0.2061941E-008  0.4495005E+03  0.7818608E-02  0.1027871E+00
          2   -1    0    0  501    0  0.00000000000E+00  0.00000000000E+00  0.80704171211E+03  0.80704171212E+03  0.25500000000E-02 0. -1.
         -2   -1    0    0    0  501 -0.00000000000E+00 -0.00000000000E+00 -0.24683521883E+04  0.24683521883E+04  0.25500000000E-02 0.  1.
    8880022    1    1    2    0    0  0.10035516015E+03 -0.41059452953E+03 -0.23830780581E+04  0.24251003504E+04  0.15294330000E+03 0.  0.
    8880022    1    1    2    0    0 -0.10035516015E+03  0.41059452953E+03  0.72176758188E+03  0.85029354997E+03  0.15294330000E+03 0.  0.
<mgrwt>
<rscale>  0 0.44950048E+03</rscale>
<asrwt>0</asrwt>
<pdfrwt beam="1">  1        2 0.12416026E+00 0.44950048E+03</pdfrwt>
<pdfrwt beam="2">  1       -2 0.37974649E+00 0.44950048E+03</pdfrwt>
<totfact> 0.39545164E-01</totfact>
</mgrwt>
</event>
<event>
 4    1  0.2061941E-008  0.8197237E+03  0.7818608E-02  0.9531899E-01
          2   -1    0    0  501    0  0.00000000000E+00  0.00000000000E+00  0.21153450512E+04  0.21153450512E+04  0.25500000000E-02 0. -1.
         -2   -1    0    0    0  501 -0.00000000000E+00 -0.00000000000E+00 -0.34435573351E+03  0.34435573352E+03  0.25500000000E-02 0.  1.
    8880022    1    1    2    0    0 -0.21462864085E+02  0.80504322699E+03  0.54302519044E+03  0.98327171338E+03  0.15294330000E+03 0.  0.
    8880022    1    1    2    0    0  0.21462864085E+02 -0.80504322699E+03  0.12279641273E+04  0.14764290713E+04  0.15294330000E+03 0.  0.
<mgrwt>
<rscale>  0 0.81972368E+03</rscale>
<asrwt>0</asrwt>
<pdfrwt beam="1">  1        2 0.32543770E+00 0.81972368E+03</pdfrwt>
<pdfrwt beam="2">  1       -2 0.52977805E-01 0.81972368E+03</pdfrwt>
<totfact> 0.19877348E+01</totfact>
</mgrwt>
</event>
<event>
 4    1  0.2061941E-008  0.9000735E+03  0.7818608E-02  0.9425490E-01
          2   -1    0    0  501    0  0.00000000000E+00  0.00000000000E+00  0.92714915523E+03  0.92714915523E+03  0.25500000000E-02 0. -1.
         -2   -1    0    0    0  501 -0.00000000000E+00 -0.00000000000E+00 -0.19051031984E+04  0.19051031984E+04  0.25500000000E-02 0.  1.
    8880022    1    1    2    0    0 -0.51567044413E+03  0.72168182924E+03  0.55295237041E+03  0.10563563066E+04  0.15294330000E+03 0.  0.
    8880022    1    1    2    0    0  0.51567044413E+03 -0.72168182924E+03 -0.15309064136E+04  0.17758960470E+04  0.15294330000E+03 0.  0.
<mgrwt>
<rscale>  0 0.90007351E+03</rscale>
<asrwt>0</asrwt>
<pdfrwt beam="1">  1        2 0.14263833E+00 0.90007351E+03</pdfrwt>
<pdfrwt beam="2">  1       -2 0.29309280E+00 0.90007351E+03</pdfrwt>
<totfact> 0.10022353E+00</totfact>
</mgrwt>
</event>
<event>
 4    1  0.2061941E-008  0.6387858E+03  0.7818608E-02  0.9828052E-01
         -2   -1    0    0    0  501 -0.00000000000E+00  0.00000000000E+00  0.19185319818E+04  0.19185319818E+04  0.25500000000E-02 0.  1.
          2   -1    0    0  501    0  0.00000000000E+00 -0.00000000000E+00 -0.10572481781E+04  0.10572481781E+04  0.25500000000E-02 0. -1.
    8880022    1    1    2    0    0  0.35513264177E+02 -0.61918849465E+03 -0.89919345565E+03  0.11029941557E+04  0.15294330000E+03 0.  0.
    8880022    1    1    2    0    0 -0.35513264177E+02  0.61918849465E+03  0.17604772594E+04  0.18727860042E+04  0.15294330000E+03 0.  0.
<mgrwt>
<rscale>  0 0.63878575E+03</rscale>
<asrwt>0</asrwt>
<pdfrwt beam="1">  1        2 0.16265357E+00 0.63878575E+03</pdfrwt>
<pdfrwt beam="2">  1       -2 0.29515876E+00 0.63878575E+03</pdfrwt>
<totfact> 0.84418734E-01</totfact>
</mgrwt>
</event>
<event>
 4    1  0.2061941E-008  0.7810694E+03  0.7818608E-02  0.9587830E-01
          2   -1    0    0  501    0  0.00000000000E+00  0.00000000000E+00  0.13761732632E+04  0.13761732632E+04  0.25500000000E-02 0. -1.
         -2   -1    0    0    0  501 -0.00000000000E+00 -0.00000000000E+00 -0.25557979239E+04  0.25557979239E+04  0.25500000000E-02 0.  1.
    8880022    1    1    2    0    0 -0.66423807291E+03 -0.38139950721E+03  0.11975571379E+04  0.14297596137E+04  0.15294330000E+03 0.  0.
    8880022    1    1    2    0    0  0.66423807291E+03  0.38139950721E+03 -0.23771817985E+04  0.25022115734E+04  0.15294330000E+03 0.  0.
<mgrwt>
<rscale>  0 0.78106943E+03</rscale>
<asrwt>0</asrwt>
<pdfrwt beam="1">  1        2 0.21171896E+00 0.78106943E+03</pdfrwt>
<pdfrwt beam="2">  1       -2 0.39319968E+00 0.78106943E+03</pdfrwt>
<totfact> 0.13083538E-01</totfact>
</mgrwt>
</event>
<event>
 4    1  0.2061941E-008  0.7052375E+03  0.7818608E-02  0.9708317E-01
          2   -1    0    0  501    0  0.00000000000E+00  0.00000000000E+00  0.65192295041E+03  0.65192295041E+03  0.25500000000E-02 0. -1.
         -2   -1    0    0    0  501 -0.00000000000E+00 -0.00000000000E+00 -0.15727332765E+04  0.15727332765E+04  0.25500000000E-02 0.  1.
    8880022    1    1    2    0    0  0.40273642881E+03  0.55836515986E+03 -0.12585834857E+04  0.14427031317E+04  0.15294330000E+03 0.  0.
    8880022    1    1    2    0    0 -0.40273642881E+03 -0.55836515986E+03  0.33777315954E+03  0.78195309524E+03  0.15294330000E+03 0.  0.
<mgrwt>
<rscale>  0 0.70523750E+03</rscale>
<asrwt>0</asrwt>
<pdfrwt beam="1">  1        2 0.10029584E+00 0.70523750E+03</pdfrwt>
<pdfrwt beam="2">  1       -2 0.24195896E+00 0.70523750E+03</pdfrwt>
<totfact> 0.33411618E+00</totfact>
</mgrwt>
</event>
<event>
 4    1  0.2061941E-008  0.1155065E+04  0.7818608E-02  0.9153124E-01
         -2   -1    0    0    0  501 -0.00000000000E+00  0.00000000000E+00  0.51030573708E+03  0.51030573709E+03  0.25500000000E-02 0.  1.
          2   -1    0    0  501    0  0.00000000000E+00 -0.00000000000E+00 -0.37261826391E+04  0.37261826391E+04  0.25500000000E-02 0. -1.
    8880022    1    1    2    0    0 -0.59602733937E+03 -0.97751431438E+03 -0.45091550290E+03  0.12399593815E+04  0.15294330000E+03 0.  0.
    8880022    1    1    2    0    0  0.59602733937E+03  0.97751431438E+03 -0.27649613991E+04  0.29965289946E+04  0.15294330000E+03 0.  0.
<mgrwt>
<rscale>  0 0.11550647E+04</rscale>
<asrwt>0</asrwt>
<pdfrwt beam="1">  1        2 0.57325885E+00 0.11550647E+04</pdfrwt>
<pdfrwt beam="2">  1       -2 0.78508577E-01 0.11550647E+04</pdfrwt>
<totfact> 0.81787601E-01</totfact>
</mgrwt>
</event>
<event>
 4    1  0.2061941E-008  0.1379857E+04  0.7818608E-02  0.8968529E-01
          2   -1    0    0  501    0  0.00000000000E+00  0.00000000000E+00  0.16234796658E+04  0.16234796658E+04  0.25500000000E-02 0. -1.
         -2   -1    0    0    0  501 -0.00000000000E+00 -0.00000000000E+00 -0.12108556112E+04  0.12108556112E+04  0.25500000000E-02 0.  1.
    8880022    1    1    2    0    0 -0.13713083619E+04  0.11307662884E+02  0.45757147256E+03  0.14537461237E+04  0.15294330000E+03 0.  0.
    8880022    1    1    2    0    0  0.13713083619E+04 -0.11307662884E+02 -0.44947417976E+02  0.13805891533E+04  0.15294330000E+03 0.  0.
<mgrwt>
<rscale>  0 0.13798573E+04</rscale>
<asrwt>0</asrwt>
<pdfrwt beam="1">  1        2 0.24976610E+00 0.13798573E+04</pdfrwt>
<pdfrwt beam="2">  1       -2 0.18628548E+00 0.13798573E+04</pdfrwt>
<totfact> 0.16926439E+00</totfact>
</mgrwt>
</event>
<event>
 4    1  0.2061941E-008  0.6313967E+03  0.7818608E-02  0.9842327E-01
          2   -1    0    0  501    0  0.00000000000E+00  0.00000000000E+00  0.26392135969E+04  0.26392135969E+04  0.25500000000E-02 0. -1.
         -2   -1    0    0    0  501 -0.00000000000E+00 -0.00000000000E+00 -0.82100259207E+03  0.82100259207E+03  0.25500000000E-02 0.  1.
    8880022    1    1    2    0    0  0.10412248458E+03 -0.60367923972E+03  0.24719722790E+04  0.25513346934E+04  0.15294330000E+03 0.  0.
    8880022    1    1    2    0    0 -0.10412248458E+03  0.60367923972E+03 -0.65376127424E+03  0.90888149556E+03  0.15294330000E+03 0.  0.
<mgrwt>
<rscale>  0 0.63139668E+03</rscale>
<asrwt>0</asrwt>
<pdfrwt beam="1">  1        2 0.40603287E+00 0.63139668E+03</pdfrwt>
<pdfrwt beam="2">  1       -2 0.12630809E+00 0.63139668E+03</pdfrwt>
<totfact> 0.14619141E+00</totfact>
</mgrwt>
</event>
<event>
 4    1  0.2061941E-008  0.8479259E+03  0.7818608E-02  0.9493125E-01
          2   -1    0    0  501    0  0.00000000000E+00  0.00000000000E+00  0.10343113677E+04  0.10343113677E+04  0.25500000000E-02 0. -1.
         -2   -1    0    0    0  501 -0.00000000000E+00 -0.00000000000E+00 -0.14676994866E+04  0.14676994866E+04  0.25500000000E-02 0.  1.
    8880022    1    1    2    0    0 -0.55334562793E+03  0.62401539527E+03  0.69093858509E+03  0.10937890011E+04  0.15294330000E+03 0.  0.
    8880022    1    1    2    0    0  0.55334562793E+03 -0.62401539527E+03 -0.11243267040E+04  0.14082218532E+04  0.15294330000E+03 0.  0.
<mgrwt>
<rscale>  0 0.84792585E+03</rscale>
<asrwt>0</asrwt>
<pdfrwt beam="1">  1        2 0.15912482E+00 0.84792585E+03</pdfrwt>
<pdfrwt beam="2">  1       -2 0.22579992E+00 0.84792585E+03</pdfrwt>
<totfact> 0.22062485E+00</totfact>
</mgrwt>
</event>
<event>
 4    1  0.2061941E-008  0.7337037E+03  0.7818608E-02  0.9661269E-01
          2   -1    0    0  501    0  0.00000000000E+00  0.00000000000E+00  0.11960451821E+04  0.11960451821E+04  0.25500000000E-02 0. -1.
         -2   -1    0    0    0  501 -0.00000000000E+00 -0.00000000000E+00 -0.94530242522E+03  0.94530242522E+03  0.25500000000E-02 0.  1.
    8880022    1    1    2    0    0  0.13813930138E+03 -0.70416400611E+03  0.90031496824E+03  0.11614164237E+04  0.15294330000E+03 0.  0.
    8880022    1    1    2    0    0 -0.13813930138E+03  0.70416400611E+03 -0.64957221131E+03  0.97993118371E+03  0.15294330000E+03 0.  0.
<mgrwt>
<rscale>  0 0.73370366E+03</rscale>
<asrwt>0</asrwt>
<pdfrwt beam="1">  1        2 0.18400695E+00 0.73370366E+03</pdfrwt>
<pdfrwt beam="2">  1       -2 0.14543114E+00 0.73370366E+03</pdfrwt>
<totfact> 0.63356675E+00</totfact>
</mgrwt>
</event>
<event>
 4    1  0.2061941E-008  0.1243897E+04  0.7818608E-02  0.9075278E-01
         -2   -1    0    0    0  501 -0.00000000000E+00  0.00000000000E+00  0.66397707846E+03  0.66397707846E+03  0.25500000000E-02 0.  1.
          2   -1    0    0  501    0  0.00000000000E+00 -0.00000000000E+00 -0.36148846712E+04  0.36148846712E+04  0.25500000000E-02 0. -1.
    8880022    1    1    2    0    0 -0.11876526108E+04 -0.33670271445E+03 -0.27508027061E+04  0.30189724448E+04  0.15294330000E+03 0.  0.
    8880022    1    1    2    0    0  0.11876526108E+04  0.33670271445E+03 -0.20010488668E+03  0.12598893049E+04  0.15294330000E+03 0.  0.
<mgrwt>
<rscale>  0 0.12438967E+04</rscale>
<asrwt>0</asrwt>
<pdfrwt beam="1">  1        2 0.55613609E+00 0.12438967E+04</pdfrwt>
<pdfrwt beam="2">  1       -2 0.10215032E+00 0.12438967E+04</pdfrwt>
<totfact> 0.52689090E-01</totfact>
</mgrwt>
</event>
<event>
 4    1  0.2061941E-008  0.2468504E+03  0.7818608E-02  0.1115312E+00
          2   -1    0    0  501    0  0.00000000000E+00  0.00000000000E+00  0.61016844632E+03  0.61016844633E+03  0.25500000000E-02 0. -1.
         -2   -1    0    0    0  501 -0.00000000000E+00 -0.00000000000E+00 -0.85010498885E+03  0.85010498886E+03  0.25500000000E-02 0.  1.
    8880022    1    1    2    0    0  0.71546637064E+01  0.19362919419E+03 -0.80587917982E+03  0.84283827602E+03  0.15294330000E+03 0.  1.
    8880022    1    1    2    0    0 -0.71546637064E+01 -0.19362919419E+03  0.56594263729E+03  0.61743515916E+03  0.15294330000E+03 0.  0.
<mgrwt>
<rscale>  0 0.24685037E+03</rscale>
<asrwt>0</asrwt>
<pdfrwt beam="1">  1        2 0.93872069E-01 0.24685037E+03</pdfrwt>
<pdfrwt beam="2">  1       -2 0.13078538E+00 0.24685037E+03</pdfrwt>
<totfact> 0.22679892E+01</totfact>
</mgrwt>
</event>
<event>
 4    1  0.2061941E-008  0.1240233E+04  0.7818608E-02  0.9078352E-01
         -2   -1    0    0    0  501 -0.00000000000E+00  0.00000000000E+00  0.97559571172E+03  0.97559571173E+03  0.25500000000E-02 0.  1.
          2   -1    0    0  501    0  0.00000000000E+00 -0.00000000000E+00 -0.22682242210E+04  0.22682242210E+04  0.25500000000E-02 0. -1.
    8880022    1    1    2    0    0  0.18570680309E+03 -0.12166754172E+04 -0.15418885422E+04  0.19787870065E+04  0.15294330000E+03 0.  0.
    8880022    1    1    2    0    0 -0.18570680309E+03  0.12166754172E+04  0.24926003293E+03  0.12650329262E+04  0.15294330000E+03 0.  0.
<mgrwt>
<rscale>  0 0.12402329E+04</rscale>
<asrwt>0</asrwt>
<pdfrwt beam="1">  1        2 0.34895757E+00 0.12402329E+04</pdfrwt>
<pdfrwt beam="2">  1       -2 0.15009165E+00 0.12402329E+04</pdfrwt>
<totfact> 0.13720961E+00</totfact>
</mgrwt>
</event>
<event>
 4    1  0.2061941E-008  0.4598761E+03  0.7818608E-02  0.1024817E+00
         -2   -1    0    0    0  501 -0.00000000000E+00  0.00000000000E+00  0.11806023021E+04  0.11806023021E+04  0.25500000000E-02 0.  1.
          2   -1    0    0  501    0  0.00000000000E+00 -0.00000000000E+00 -0.30692064857E+03  0.30692064858E+03  0.25500000000E-02 0. -1.
    8880022    1    1    2    0    0  0.21519240828E+03 -0.37654563761E+03  0.91675471996E+03  0.10256340767E+04  0.15294330000E+03 0. -1.
    8880022    1    1    2    0    0 -0.21519240828E+03  0.37654563761E+03 -0.43073066440E+02  0.46188887392E+03  0.15294330000E+03 0.  1.
<mgrwt>
<rscale>  0 0.45987612E+03</rscale>
<asrwt>0</asrwt>
<pdfrwt beam="1">  1        2 0.47218561E-01 0.45987612E+03</pdfrwt>
<pdfrwt beam="2">  1       -2 0.18163112E+00 0.45987612E+03</pdfrwt>
<totfact> 0.19783765E+01</totfact>
</mgrwt>
</event>
<event>
 4    1  0.2061941E-008  0.9754718E+03  0.7818608E-02  0.9335864E-01
          2   -1    0    0  501    0  0.00000000000E+00  0.00000000000E+00  0.69988743918E+03  0.69988743918E+03  0.25500000000E-02 0. -1.
         -2   -1    0    0    0  501 -0.00000000000E+00 -0.00000000000E+00 -0.18456395889E+04  0.18456395889E+04  0.25500000000E-02 0.  1.
    8880022    1    1    2    0    0 -0.84314754518E+03  0.46610699496E+03  0.80290577349E+02  0.97877052649E+03  0.15294330000E+03 0.  0.
    8880022    1    1    2    0    0  0.84314754518E+03 -0.46610699496E+03 -0.12260427271E+04  0.15667565016E+04  0.15294330000E+03 0.  0.
<mgrwt>
<rscale>  0 0.97547177E+03</rscale>
<asrwt>0</asrwt>
<pdfrwt beam="1">  1        2 0.10767499E+00 0.97547177E+03</pdfrwt>
<pdfrwt beam="2">  1       -2 0.28394455E+00 0.97547177E+03</pdfrwt>
<totfact> 0.16423751E+00</totfact>
</mgrwt>
</event>
<event>
 4    1  0.2061941E-008  0.2768631E+03  0.7818608E-02  0.1097415E+00
         -2   -1    0    0    0  501 -0.00000000000E+00  0.00000000000E+00  0.11251026845E+03  0.11251026848E+03  0.25500000000E-02 0.  1.
          2   -1    0    0  501    0  0.00000000000E+00 -0.00000000000E+00 -0.16125273650E+04  0.16125273650E+04  0.25500000000E-02 0. -1.
    8880022    1    1    2    0    0 -0.11494346335E+03 -0.20012373424E+03 -0.94553261312E+02  0.29256363583E+03  0.15294330000E+03 0.  1.
    8880022    1    1    2    0    0  0.11494346335E+03  0.20012373424E+03 -0.14054638352E+04  0.14324739976E+04  0.15294330000E+03 0.  0.
<mgrwt>
<rscale>  0 0.27686307E+03</rscale>
<asrwt>0</asrwt>
<pdfrwt beam="1">  1        2 0.24808112E+00 0.27686307E+03</pdfrwt>
<pdfrwt beam="2">  1       -2 0.17309273E-01 0.27686307E+03</pdfrwt>
<totfact> 0.32131496E+02</totfact>
</mgrwt>
</event>
<event>
 4    1  0.2061941E-008  0.1359466E+04  0.7818608E-02  0.8983693E-01
         -2   -1    0    0    0  501 -0.00000000000E+00  0.00000000000E+00  0.23867860924E+04  0.23867860924E+04  0.25500000000E-02 0.  1.
          2   -1    0    0  501    0  0.00000000000E+00 -0.00000000000E+00 -0.13655374860E+04  0.13655374860E+04  0.25500000000E-02 0. -1.
    8880022    1    1    2    0    0 -0.97617758437E+03  0.93372025481E+03  0.17451220962E+04  0.22121480453E+04  0.15294330000E+03 0.  0.
    8880022    1    1    2    0    0  0.97617758437E+03 -0.93372025481E+03 -0.72387348985E+03  0.15401755331E+04  0.15294330000E+03 0.  0.
<mgrwt>
<rscale>  0 0.13594660E+04</rscale>
<asrwt>0</asrwt>
<pdfrwt beam="1">  1        2 0.21008269E+00 0.13594660E+04</pdfrwt>
<pdfrwt beam="2">  1       -2 0.36719786E+00 0.13594660E+04</pdfrwt>
<totfact> 0.17600736E-01</totfact>
</mgrwt>
</event>
<event>
 4    1  0.2061941E-008  0.5834077E+03  0.7818608E-02  0.9940441E-01
         -2   -1    0    0    0  501 -0.00000000000E+00  0.00000000000E+00  0.34484379369E+03  0.34484379370E+03  0.25500000000E-02 0.  1.
          2   -1    0    0  501    0  0.00000000000E+00 -0.00000000000E+00 -0.20251560399E+04  0.20251560399E+04  0.25500000000E-02 0. -1.
    8880022    1    1    2    0    0 -0.26400576076E+03 -0.49726639165E+03 -0.16885902447E+04  0.17865333956E+04  0.15294330000E+03 0.  0.
    8880022    1    1    2    0    0  0.26400576076E+03  0.49726639165E+03  0.82779985319E+01  0.58346643799E+03  0.15294330000E+03 0.  0.
<mgrwt>
<rscale>  0 0.58340771E+03</rscale>
<asrwt>0</asrwt>
<pdfrwt beam="1">  1        2 0.31156246E+00 0.58340771E+03</pdfrwt>
<pdfrwt beam="2">  1       -2 0.53052893E-01 0.58340771E+03</pdfrwt>
<totfact> 0.23003231E+01</totfact>
</mgrwt>
</event>
<event>
 4    1  0.2061941E-008  0.8628998E+03  0.7818608E-02  0.9473185E-01
         -2   -1    0    0    0  501 -0.00000000000E+00  0.00000000000E+00  0.71824889867E+03  0.71824889867E+03  0.25500000000E-02 0.  1.
          2   -1    0    0  501    0  0.00000000000E+00 -0.00000000000E+00 -0.13723711089E+04  0.13723711089E+04  0.25500000000E-02 0. -1.
    8880022    1    1    2    0    0  0.61667048551E+03 -0.58388513202E+03 -0.84404580901E+03  0.12070664090E+04  0.15294330000E+03 0.  0.
    8880022    1    1    2    0    0 -0.61667048551E+03  0.58388513202E+03  0.18992359878E+03  0.88355359853E+03  0.15294330000E+03 0.  0.
<mgrwt>
<rscale>  0 0.86289976E+03</rscale>
<asrwt>0</asrwt>
<pdfrwt beam="1">  1        2 0.21113402E+00 0.86289976E+03</pdfrwt>
<pdfrwt beam="2">  1       -2 0.11049983E+00 0.86289976E+03</pdfrwt>
<totfact> 0.98354937E+00</totfact>
</mgrwt>
</event>
<event>
 4    1  0.2061941E-008  0.5156620E+03  0.7818608E-02  0.1009770E+00
          2   -1    0    0  501    0  0.00000000000E+00  0.00000000000E+00  0.98455107219E+03  0.98455107219E+03  0.25500000000E-02 0. -1.
         -2   -1    0    0    0  501 -0.00000000000E+00 -0.00000000000E+00 -0.10531303791E+04  0.10531303792E+04  0.25500000000E-02 0.  1.
    8880022    1    1    2    0    0  0.15350960080E+03 -0.46792140833E+03  0.84424753726E+03  0.98927306600E+03  0.15294330000E+03 0. -1.
    8880022    1    1    2    0    0 -0.15350960080E+03  0.46792140833E+03 -0.91282684423E+03  0.10484083853E+04  0.15294330000E+03 0.  0.
<mgrwt>
<rscale>  0 0.51566200E+03</rscale>
<asrwt>0</asrwt>
<pdfrwt beam="1">  1        2 0.15146940E+00 0.51566200E+03</pdfrwt>
<pdfrwt beam="2">  1       -2 0.16202006E+00 0.51566200E+03</pdfrwt>
<totfact> 0.66335078E+00</totfact>
</mgrwt>
</event>
<event>
 4    1  0.2061941E-008  0.1167225E+04  0.7818608E-02  0.9142038E-01
          2   -1    0    0  501    0  0.00000000000E+00  0.00000000000E+00  0.23676129621E+04  0.23676129621E+04  0.25500000000E-02 0. -1.
         -2   -1    0    0    0  501 -0.00000000000E+00 -0.00000000000E+00 -0.85984098184E+03  0.85984098185E+03  0.25500000000E-02 0.  1.
    8880022    1    1    2    0    0  0.53940326966E+02  0.11559032430E+04  0.16819722993E+04  0.20473017205E+04  0.15294330000E+03 0.  0.
    8880022    1    1    2    0    0 -0.53940326966E+02 -0.11559032430E+04 -0.17420031911E+03  0.11801522234E+04  0.15294330000E+03 0.  0.
<mgrwt>
<rscale>  0 0.11672247E+04</rscale>
<asrwt>0</asrwt>
<pdfrwt beam="1">  1        2 0.36424814E+00 0.11672247E+04</pdfrwt>
<pdfrwt beam="2">  1       -2 0.13228323E+00 0.11672247E+04</pdfrwt>
<totfact> 0.16926271E+00</totfact>
</mgrwt>
</event>
<event>
 4    1  0.2061941E-008  0.6208044E+03  0.7818608E-02  0.9863159E-01
          2   -1    0    0  501    0  0.00000000000E+00  0.00000000000E+00  0.18332883855E+04  0.18332883855E+04  0.25500000000E-02 0. -1.
         -2   -1    0    0    0  501 -0.00000000000E+00 -0.00000000000E+00 -0.43899834903E+03  0.43899834904E+03  0.25500000000E-02 0.  1.
    8880022    1    1    2    0    0  0.32022588817E+03  0.50937394915E+03 -0.12303082922E+03  0.63287809054E+03  0.15294330000E+03 0.  0.
    8880022    1    1    2    0    0 -0.32022588817E+03 -0.50937394915E+03  0.15173208657E+04  0.16394086440E+04  0.15294330000E+03 0.  0.
<mgrwt>
<rscale>  0 0.62080439E+03</rscale>
<asrwt>0</asrwt>
<pdfrwt beam="1">  1        2 0.28204437E+00 0.62080439E+03</pdfrwt>
<pdfrwt beam="2">  1       -2 0.67538207E-01 0.62080439E+03</pdfrwt>
<totfact> 0.17465525E+01</totfact>
</mgrwt>
</event>
<event>
 4    1  0.2061941E-008  0.4503197E+03  0.7818608E-02  0.1027627E+00
         -2   -1    0    0    0  501 -0.00000000000E+00  0.00000000000E+00  0.16831946633E+04  0.16831946633E+04  0.25500000000E-02 0.  1.
          2   -1    0    0  501    0  0.00000000000E+00 -0.00000000000E+00 -0.14182058490E+03  0.14182058492E+03  0.25500000000E-02 0. -1.
    8880022    1    1    2    0    0  0.10225898308E+03  0.41102223939E+03  0.11246769915E+04  0.12114809817E+04  0.15294330000E+03 0.  1.
    8880022    1    1    2    0    0 -0.10225898308E+03 -0.41102223939E+03  0.41669708689E+03  0.61353426647E+03  0.15294330000E+03 0.  0.
<mgrwt>
<rscale>  0 0.45031970E+03</rscale>
<asrwt>0</asrwt>
<pdfrwt beam="1">  1        2 0.21818552E-01 0.45031970E+03</pdfrwt>
<pdfrwt beam="2">  1       -2 0.25895302E+00 0.45031970E+03</pdfrwt>
<totfact> 0.15476380E+01</totfact>
</mgrwt>
</event>
<event>
 4    1  0.2061941E-008  0.5209413E+03  0.7818608E-02  0.1008453E+00
         -2   -1    0    0    0  501 -0.00000000000E+00  0.00000000000E+00  0.67242993093E+03  0.67242993094E+03  0.25500000000E-02 0.  1.
          2   -1    0    0  501    0  0.00000000000E+00 -0.00000000000E+00 -0.97257533845E+03  0.97257533845E+03  0.25500000000E-02 0. -1.
    8880022    1    1    2    0    0  0.14784031180E+03  0.47553282104E+03  0.47904177906E+03  0.70771526815E+03  0.15294330000E+03 0.  0.
    8880022    1    1    2    0    0 -0.14784031180E+03 -0.47553282104E+03 -0.77918718658E+03  0.93729000124E+03  0.15294330000E+03 0.  0.
<mgrwt>
<rscale>  0 0.52094134E+03</rscale>
<asrwt>0</asrwt>
<pdfrwt beam="1">  1        2 0.14962698E+00 0.52094134E+03</pdfrwt>
<pdfrwt beam="2">  1       -2 0.10345076E+00 0.52094134E+03</pdfrwt>
<totfact> 0.20896485E+01</totfact>
</mgrwt>
</event>
<event>
 4    1  0.2061941E-008  0.4383132E+03  0.7818608E-02  0.1031266E+00
          2   -1    0    0  501    0  0.00000000000E+00  0.00000000000E+00  0.95740997770E+03  0.95740997771E+03  0.25500000000E-02 0. -1.
         -2   -1    0    0    0  501 -0.00000000000E+00 -0.00000000000E+00 -0.52291201782E+03  0.52291201782E+03  0.25500000000E-02 0.  1.
    8880022    1    1    2    0    0 -0.39951118480E+03 -0.95486452551E+02 -0.36379159198E+03  0.56961638391E+03  0.15294330000E+03 0.  0.
    8880022    1    1    2    0    0  0.39951118480E+03  0.95486452551E+02  0.79828955187E+03  0.91070561162E+03  0.15294330000E+03 0.  0.
<mgrwt>
<rscale>  0 0.43831325E+03</rscale>
<asrwt>0</asrwt>
<pdfrwt beam="1">  1        2 0.14729384E+00 0.43831325E+03</pdfrwt>
<pdfrwt beam="2">  1       -2 0.80448004E-01 0.43831325E+03</pdfrwt>
<totfact> 0.38600608E+01</totfact>
</mgrwt>
</event>
<event>
 4    1  0.2061941E-008  0.2836133E+03  0.7818608E-02  0.1093732E+00
         -2   -1    0    0    0  501 -0.00000000000E+00  0.00000000000E+00  0.10961515371E+03  0.10961515374E+03  0.25500000000E-02 0.  1.
          2   -1    0    0  501    0  0.00000000000E+00 -0.00000000000E+00 -0.24298816018E+04  0.24298816018E+04  0.25500000000E-02 0. -1.
    8880022    1    1    2    0    0 -0.19345373384E+02  0.23805588163E+03 -0.99299222118E+02  0.30049431738E+03  0.15294330000E+03 0.  0.
    8880022    1    1    2    0    0  0.19345373384E+02 -0.23805588163E+03 -0.22209672260E+04  0.22390024382E+04  0.15294330000E+03 0.  0.
<mgrwt>
<rscale>  0 0.28361329E+03</rscale>
<asrwt>0</asrwt>
<pdfrwt beam="1">  1        2 0.37382790E+00 0.28361329E+03</pdfrwt>
<pdfrwt beam="2">  1       -2 0.16863872E-01 0.28361329E+03</pdfrwt>
<totfact> 0.12341000E+02</totfact>
</mgrwt>
</event>
<event>
 4    1  0.2061941E-008  0.8442970E+03  0.7818608E-02  0.9498023E-01
          2   -1    0    0  501    0  0.00000000000E+00  0.00000000000E+00  0.24284721947E+04  0.24284721947E+04  0.25500000000E-02 0. -1.
         -2   -1    0    0    0  501 -0.00000000000E+00 -0.00000000000E+00 -0.72964919553E+03  0.72964919553E+03  0.25500000000E-02 0.  1.
    8880022    1    1    2    0    0 -0.79492331368E+03 -0.23988059873E+03  0.20702064756E+04  0.22357531797E+04  0.15294330000E+03 0.  0.
    8880022    1    1    2    0    0  0.79492331368E+03  0.23988059873E+03 -0.37138347634E+03  0.92236821053E+03  0.15294330000E+03 0.  0.
<mgrwt>
<rscale>  0 0.84429700E+03</rscale>
<asrwt>0</asrwt>
<pdfrwt beam="1">  1        2 0.37361112E+00 0.84429700E+03</pdfrwt>
<pdfrwt beam="2">  1       -2 0.11225372E+00 0.84429700E+03</pdfrwt>
<totfact> 0.24682477E+00</totfact>
</mgrwt>
</event>
<event>
 4    1  0.2061941E-008  0.7143860E+03  0.7818608E-02  0.9692942E-01
          2   -1    0    0  501    0  0.00000000000E+00  0.00000000000E+00  0.16983925353E+04  0.16983925353E+04  0.25500000000E-02 0. -1.
         -2   -1    0    0    0  501 -0.00000000000E+00 -0.00000000000E+00 -0.67136173814E+03  0.67136173814E+03  0.25500000000E-02 0.  1.
    8880022    1    1    2    0    0  0.69496213970E+03  0.63113704755E+02 -0.36714363412E+03  0.80320720642E+03  0.15294330000E+03 0.  0.
    8880022    1    1    2    0    0 -0.69496213970E+03 -0.63113704755E+02  0.13941744313E+04  0.15665470671E+04  0.15294330000E+03 0.  0.
<mgrwt>
<rscale>  0 0.71438601E+03</rscale>
<asrwt>0</asrwt>
<pdfrwt beam="1">  1        2 0.26129116E+00 0.71438601E+03</pdfrwt>
<pdfrwt beam="2">  1       -2 0.10328642E+00 0.71438601E+03</pdfrwt>
<totfact> 0.77726881E+00</totfact>
</mgrwt>
</event>
<event>
 4    1  0.2061941E-008  0.1124280E+04  0.7818608E-02  0.9181845E-01
         -2   -1    0    0    0  501 -0.00000000000E+00  0.00000000000E+00  0.15076683700E+04  0.15076683700E+04  0.25500000000E-02 0.  1.
          2   -1    0    0  501    0  0.00000000000E+00 -0.00000000000E+00 -0.13494740170E+04  0.13494740170E+04  0.25500000000E-02 0. -1.
    8880022    1    1    2    0    0  0.18531273950E+02 -0.11136739513E+04 -0.80006381631E+03  0.13798937789E+04  0.15294330000E+03 0.  0.
    8880022    1    1    2    0    0 -0.18531273950E+02  0.11136739513E+04  0.95825816938E+03  0.14772486081E+04  0.15294330000E+03 0.  0.
<mgrwt>
<rscale>  0 0.11242796E+04</rscale>
<asrwt>0</asrwt>
<pdfrwt beam="1">  1        2 0.20761139E+00 0.11242796E+04</pdfrwt>
<pdfrwt beam="2">  1       -2 0.23194898E+00 0.11242796E+04</pdfrwt>
<totfact> 0.12601262E+00</totfact>
</mgrwt>
</event>
<event>
 4    1  0.2061941E-008  0.1446501E+04  0.7818608E-02  0.8920830E-01
          2   -1    0    0  501    0  0.00000000000E+00  0.00000000000E+00  0.15683221377E+04  0.15683221377E+04  0.25500000000E-02 0. -1.
         -2   -1    0    0    0  501 -0.00000000000E+00 -0.00000000000E+00 -0.16502617507E+04  0.16502617507E+04  0.25500000000E-02 0.  1.
    8880022    1    1    2    0    0  0.71261635238E+03 -0.12494599880E+04  0.66337356891E+03  0.15913605726E+04  0.15294330000E+03 0.  0.
    8880022    1    1    2    0    0 -0.71261635238E+03  0.12494599880E+04 -0.74531318187E+03  0.16272233157E+04  0.15294330000E+03 0.  0.
<mgrwt>
<rscale>  0 0.14465006E+04</rscale>
<asrwt>0</asrwt>
<pdfrwt beam="1">  1        2 0.24128033E+00 0.14465006E+04</pdfrwt>
<pdfrwt beam="2">  1       -2 0.25388642E+00 0.14465006E+04</pdfrwt>
<totfact> 0.66770967E-01</totfact>
</mgrwt>
</event>
<event>
 4    1  0.2061941E-008  0.4560068E+03  0.7818608E-02  0.1025946E+00
          2   -1    0    0  501    0  0.00000000000E+00  0.00000000000E+00  0.10476078714E+04  0.10476078714E+04  0.25500000000E-02 0. -1.
         -2   -1    0    0    0  501 -0.00000000000E+00 -0.00000000000E+00 -0.25926439120E+03  0.25926439121E+03  0.25500000000E-02 0.  1.
    8880022    1    1    2    0    0 -0.37098147094E+03  0.21661783002E+03  0.77810345609E+02  0.46259770748E+03  0.15294330000E+03 0.  0.
    8880022    1    1    2    0    0  0.37098147094E+03 -0.21661783002E+03  0.71053313455E+03  0.84427455509E+03  0.15294330000E+03 0.  0.
<mgrwt>
<rscale>  0 0.45600679E+03</rscale>
<asrwt>0</asrwt>
<pdfrwt beam="1">  1        2 0.16117044E+00 0.45600679E+03</pdfrwt>
<pdfrwt beam="2">  1       -2 0.39886830E-01 0.45600679E+03</pdfrwt>
<totfact> 0.14500754E+02</totfact>
</mgrwt>
</event>
<event>
 4    1  0.2061941E-008  0.1431286E+04  0.7818608E-02  0.8931479E-01
         -2   -1    0    0    0  501 -0.00000000000E+00  0.00000000000E+00  0.18273396275E+04  0.18273396275E+04  0.25500000000E-02 0.  1.
          2   -1    0    0  501    0  0.00000000000E+00 -0.00000000000E+00 -0.17224455665E+04  0.17224455665E+04  0.25500000000E-02 0. -1.
    8880022    1    1    2    0    0  0.74478082500E+03 -0.12126370686E+04 -0.99630204546E+03  0.17439026797E+04  0.15294330000E+03 0.  0.
    8880022    1    1    2    0    0 -0.74478082500E+03  0.12126370686E+04  0.11011961065E+04  0.18058825143E+04  0.15294330000E+03 0.  0.
<mgrwt>
<rscale>  0 0.14312857E+04</rscale>
<asrwt>0</asrwt>
<pdfrwt beam="1">  1        2 0.26499162E+00 0.14312857E+04</pdfrwt>
<pdfrwt beam="2">  1       -2 0.28112917E+00 0.14312857E+04</pdfrwt>
<totfact> 0.37369668E-01</totfact>
</mgrwt>
</event>
<event>
 4    1  0.2061941E-008  0.6646229E+03  0.7818608E-02  0.9779721E-01
         -2   -1    0    0    0  501 -0.00000000000E+00  0.00000000000E+00  0.12043773620E+04  0.12043773620E+04  0.25500000000E-02 0.  1.
          2   -1    0    0  501    0  0.00000000000E+00 -0.00000000000E+00 -0.69924248856E+03  0.69924248856E+03  0.25500000000E-02 0. -1.
    8880022    1    1    2    0    0 -0.52844932954E+03 -0.37292534104E+03  0.90889001079E+03  0.11259683426E+04  0.15294330000E+03 0.  1.
    8880022    1    1    2    0    0  0.52844932954E+03  0.37292534104E+03 -0.40375513733E+03  0.77765150795E+03  0.15294330000E+03 0.  0.
<mgrwt>
<rscale>  0 0.66462294E+03</rscale>
<asrwt>0</asrwt>
<pdfrwt beam="1">  1        2 0.10757577E+00 0.66462294E+03</pdfrwt>
<pdfrwt beam="2">  1       -2 0.18528882E+00 0.66462294E+03</pdfrwt>
<totfact> 0.70489692E+00</totfact>
</mgrwt>
</event>
<event>
 4    1  0.2086163E-008  0.9918105E+03  0.7818608E-02  0.9317573E-01
         -2   -1    0    0    0  501 -0.00000000000E+00  0.00000000000E+00  0.13720737601E+04  0.13720737601E+04  0.25500000000E-02 0.  1.
          2   -1    0    0  501    0  0.00000000000E+00 -0.00000000000E+00 -0.26001299072E+04  0.26001299072E+04  0.25500000000E-02 0. -1.
    8880022    1    1    2    0    0 -0.20621006572E+03  0.95800512139E+03  0.10762244564E+04  0.14635392504E+04  0.15294330000E+03 0.  0.
    8880022    1    1    2    0    0  0.20621006572E+03 -0.95800512139E+03 -0.23042806036E+04  0.25086644169E+04  0.15294330000E+03 0.  0.
<mgrwt>
<rscale>  0 0.99181049E+03</rscale>
<asrwt>0</asrwt>
<pdfrwt beam="1">  1        2 0.40001998E+00 0.99181049E+03</pdfrwt>
<pdfrwt beam="2">  1       -2 0.21108827E+00 0.99181049E+03</pdfrwt>
<totfact> 0.34658591E-01</totfact>
</mgrwt>
</event>
<event>
 4    1  0.2288682E-008  0.1230239E+04  0.7818608E-02  0.9086792E-01
          2   -1    0    0  501    0  0.00000000000E+00  0.00000000000E+00  0.34510001832E+04  0.34510001832E+04  0.25500000000E-02 0. -1.
         -2   -1    0    0    0  501 -0.00000000000E+00 -0.00000000000E+00 -0.11144430291E+04  0.11144430291E+04  0.25500000000E-02 0.  1.
    8880022    1    1    2    0    0  0.12063666038E+04 -0.18648360993E+03  0.29459772661E+04  0.31925335119E+04  0.15294330000E+03 0.  0.
    8880022    1    1    2    0    0 -0.12063666038E+04  0.18648360993E+03 -0.60942011194E+03  0.13729097004E+04  0.15294330000E+03 0.  0.
<mgrwt>
<rscale>  0 0.12302391E+04</rscale>
<asrwt>0</asrwt>
<pdfrwt beam="1">  1        2 0.53092310E+00 0.12302391E+04</pdfrwt>
<pdfrwt beam="2">  1       -2 0.17145277E+00 0.12302391E+04</pdfrwt>
<totfact> 0.18073478E-01</totfact>
</mgrwt>
</event>
<event>
 4    1  0.2061941E-008  0.8005184E+03  0.7818608E-02  0.9559267E-01
          2   -1    0    0  501    0  0.00000000000E+00  0.00000000000E+00  0.21621410188E+04  0.21621410188E+04  0.25500000000E-02 0. -1.
         -2   -1    0    0    0  501 -0.00000000000E+00 -0.00000000000E+00 -0.97270542856E+03  0.97270542856E+03  0.25500000000E-02 0.  1.
    8880022    1    1    2    0    0  0.72549094610E+03  0.30182922462E+03  0.19017050222E+04  0.20633253835E+04  0.15294330000E+03 0.  0.
    8880022    1    1    2    0    0 -0.72549094610E+03 -0.30182922462E+03 -0.71226943193E+03  0.10715210639E+04  0.15294330000E+03 0.  0.
<mgrwt>
<rscale>  0 0.80051836E+03</rscale>
<asrwt>0</asrwt>
<pdfrwt beam="1">  1        2 0.33263708E+00 0.80051836E+03</pdfrwt>
<pdfrwt beam="2">  1       -2 0.14964699E+00 0.80051836E+03</pdfrwt>
<totfact> 0.16882615E+00</totfact>
</mgrwt>
</event>
<event>
 4    1  0.2061941E-008  0.5654113E+03  0.7818608E-02  0.9979884E-01
         -2   -1    0    0    0  501 -0.00000000000E+00  0.00000000000E+00  0.29111109628E+03  0.29111109629E+03  0.25500000000E-02 0.  1.
          2   -1    0    0  501    0  0.00000000000E+00 -0.00000000000E+00 -0.17148160476E+04  0.17148160476E+04  0.25500000000E-02 0. -1.
    8880022    1    1    2    0    0  0.53397637899E+03 -0.10567643818E+03 -0.13132945492E+04  0.14298365322E+04  0.15294330000E+03 0.  0.
    8880022    1    1    2    0    0 -0.53397637899E+03  0.10567643818E+03 -0.11041040207E+03  0.57609061163E+03  0.15294330000E+03 0.  0.
<mgrwt>
<rscale>  0 0.56541130E+03</rscale>
<asrwt>0</asrwt>
<pdfrwt beam="1">  1        2 0.26381785E+00 0.56541130E+03</pdfrwt>
<pdfrwt beam="2">  1       -2 0.44786324E-01 0.56541130E+03</pdfrwt>
<totfact> 0.47779894E+01</totfact>
</mgrwt>
</event>
<event>
 4    1  0.2061941E-008  0.8200637E+03  0.7818608E-02  0.9531421E-01
          2   -1    0    0  501    0  0.00000000000E+00  0.00000000000E+00  0.19286592472E+04  0.19286592472E+04  0.25500000000E-02 0. -1.
         -2   -1    0    0    0  501 -0.00000000000E+00 -0.00000000000E+00 -0.51614771499E+03  0.51614771499E+03  0.25500000000E-02 0.  1.
    8880022    1    1    2    0    0  0.76004694576E+03  0.26728523484E+03  0.14025294936E+04  0.16246825506E+04  0.15294330000E+03 0.  0.
    8880022    1    1    2    0    0 -0.76004694576E+03 -0.26728523484E+03  0.99820386099E+01  0.82012441168E+03  0.15294330000E+03 0.  1.
<mgrwt>
<rscale>  0 0.82006366E+03</rscale>
<asrwt>0</asrwt>
<pdfrwt beam="1">  1        2 0.29671681E+00 0.82006366E+03</pdfrwt>
<pdfrwt beam="2">  1       -2 0.79407341E-01 0.82006366E+03</pdfrwt>
<totfact> 0.10530520E+01</totfact>
</mgrwt>
</event>
<event>
 4    1  0.2061941E-008  0.6080476E+03  0.7818608E-02  0.9888849E-01
          2   -1    0    0  501    0  0.00000000000E+00  0.00000000000E+00  0.14570341036E+04  0.14570341036E+04  0.25500000000E-02 0. -1.
         -2   -1    0    0    0  501 -0.00000000000E+00 -0.00000000000E+00 -0.24166619168E+04  0.24166619168E+04  0.25500000000E-02 0.  1.
    8880022    1    1    2    0    0  0.52462756172E+03  0.26663855771E+03 -0.23121580625E+04  0.23907732552E+04  0.15294330000E+03 0.  0.
    8880022    1    1    2    0    0 -0.52462756172E+03 -0.26663855771E+03  0.13525302493E+04  0.14829227651E+04  0.15294330000E+03 0.  0.
<mgrwt>
<rscale>  0 0.60804757E+03</rscale>
<asrwt>0</asrwt>
<pdfrwt beam="1">  1        2 0.22415909E+00 0.60804757E+03</pdfrwt>
<pdfrwt beam="2">  1       -2 0.37179414E+00 0.60804757E+03</pdfrwt>
<totfact> 0.16928600E-01</totfact>
</mgrwt>
</event>
<event>
 4    1  0.2061941E-008  0.7137389E+03  0.7818608E-02  0.9694021E-01
          2   -1    0    0  501    0  0.00000000000E+00  0.00000000000E+00  0.26939156427E+04  0.26939156427E+04  0.25500000000E-02 0. -1.
         -2   -1    0    0    0  501 -0.00000000000E+00 -0.00000000000E+00 -0.71778625003E+03  0.71778625004E+03  0.25500000000E-02 0.  1.
    8880022    1    1    2    0    0 -0.39033658349E+03  0.57764082045E+03  0.24520676275E+04  0.25538321927E+04  0.15294330000E+03 0.  0.
    8880022    1    1    2    0    0  0.39033658349E+03 -0.57764082045E+03 -0.47593823480E+03  0.85786970003E+03  0.15294330000E+03 0.  0.
<mgrwt>
<rscale>  0 0.71373890E+03</rscale>
<asrwt>0</asrwt>
<pdfrwt beam="1">  1        2 0.41444856E+00 0.71373890E+03</pdfrwt>
<pdfrwt beam="2">  1       -2 0.11042865E+00 0.71373890E+03</pdfrwt>
<totfact> 0.18561675E+00</totfact>
</mgrwt>
</event>
<event>
 4    1  0.2061941E-008  0.9888939E+03  0.7818608E-02  0.9320810E-01
          2   -1    0    0  501    0  0.00000000000E+00  0.00000000000E+00  0.13203525322E+04  0.13203525322E+04  0.25500000000E-02 0. -1.
         -2   -1    0    0    0  501 -0.00000000000E+00 -0.00000000000E+00 -0.13743664632E+04  0.13743664632E+04  0.25500000000E-02 0.  1.
    8880022    1    1    2    0    0  0.96184765901E+03  0.17137269123E+03 -0.94192411195E+03  0.13656984309E+04  0.15294330000E+03 0.  0.
    8880022    1    1    2    0    0 -0.96184765901E+03 -0.17137269123E+03  0.88791018094E+03  0.13290205645E+04  0.15294330000E+03 0.  0.
<mgrwt>
<rscale>  0 0.98889391E+03</rscale>
<asrwt>0</asrwt>
<pdfrwt beam="1">  1        2 0.20313116E+00 0.98889391E+03</pdfrwt>
<pdfrwt beam="2">  1       -2 0.21144099E+00 0.98889391E+03</pdfrwt>
<totfact> 0.17937639E+00</totfact>
</mgrwt>
</event>
<event>
 4    1  0.2061941E-008  0.8468919E+03  0.7818608E-02  0.9494518E-01
         -2   -1    0    0    0  501 -0.00000000000E+00  0.00000000000E+00  0.55503042137E+03  0.55503042138E+03  0.25500000000E-02 0.  1.
          2   -1    0    0  501    0  0.00000000000E+00 -0.00000000000E+00 -0.25911558303E+04  0.25911558303E+04  0.25500000000E-02 0. -1.
    8880022    1    1    2    0    0  0.21134405087E+03  0.80570955612E+03  0.95719254119E+02  0.85228400506E+03  0.15294330000E+03 0.  0.
    8880022    1    1    2    0    0 -0.21134405087E+03 -0.80570955612E+03 -0.21318446631E+04  0.22939022466E+04  0.15294330000E+03 0.  0.
<mgrwt>
<rscale>  0 0.84689188E+03</rscale>
<asrwt>0</asrwt>
<pdfrwt beam="1">  1        2 0.39863935E+00 0.84689188E+03</pdfrwt>
<pdfrwt beam="2">  1       -2 0.85389297E-01 0.84689188E+03</pdfrwt>
<totfact> 0.38016284E+00</totfact>
</mgrwt>
</event>
<event>
 4    1  0.2061941E-008  0.6435838E+03  0.7818608E-02  0.9818894E-01
         -2   -1    0    0    0  501 -0.00000000000E+00  0.00000000000E+00  0.99083023105E+03  0.99083023106E+03  0.25500000000E-02 0.  1.
          2   -1    0    0  501    0  0.00000000000E+00 -0.00000000000E+00 -0.60256846714E+03  0.60256846714E+03  0.25500000000E-02 0. -1.
    8880022    1    1    2    0    0 -0.50876163383E+03 -0.36327685286E+03  0.63502136250E+03  0.90413066297E+03  0.15294330000E+03 0.  0.
    8880022    1    1    2    0    0  0.50876163383E+03  0.36327685286E+03 -0.24675959858E+03  0.68926803523E+03  0.15294330000E+03 0.  0.
<mgrwt>
<rscale>  0 0.64358381E+03</rscale>
<asrwt>0</asrwt>
<pdfrwt beam="1">  1        2 0.92702842E-01 0.64358381E+03</pdfrwt>
<pdfrwt beam="2">  1       -2 0.15243542E+00 0.64358381E+03</pdfrwt>
<totfact> 0.14533236E+01</totfact>
</mgrwt>
</event>
<event>
 4    1  0.2061941E-008  0.1060253E+04  0.7818608E-02  0.9244822E-01
          2   -1    0    0  501    0  0.00000000000E+00  0.00000000000E+00  0.21528914018E+04  0.21528914018E+04  0.25500000000E-02 0. -1.
         -2   -1    0    0    0  501 -0.00000000000E+00 -0.00000000000E+00 -0.91879729233E+03  0.91879729233E+03  0.25500000000E-02 0.  1.
    8880022    1    1    2    0    0  0.87171516918E+03  0.58382949043E+03  0.16261574436E+04  0.19412686301E+04  0.15294330000E+03 0.  0.
    8880022    1    1    2    0    0 -0.87171516918E+03 -0.58382949043E+03 -0.39206333411E+03  0.11304200640E+04  0.15294330000E+03 0.  0.
<mgrwt>
<rscale>  0 0.10602527E+04</rscale>
<asrwt>0</asrwt>
<pdfrwt beam="1">  1        2 0.33121406E+00 0.10602527E+04</pdfrwt>
<pdfrwt beam="2">  1       -2 0.14135343E+00 0.10602527E+04</pdfrwt>
<totfact> 0.19069716E+00</totfact>
</mgrwt>
</event>
<event>
 4    1  0.2061941E-008  0.2714481E+03  0.7818608E-02  0.1100454E+00
         -2   -1    0    0    0  501 -0.00000000000E+00  0.00000000000E+00  0.25097638992E+02  0.25097639122E+02  0.25500000000E-02 0.  1.
          2   -1    0    0  501    0  0.00000000000E+00 -0.00000000000E+00 -0.29599962451E+04  0.29599962451E+04  0.25500000000E-02 0. -1.
    8880022    1    1    2    0    0  0.20807136960E+03 -0.83658298594E+02 -0.16021261405E+04  0.16249591468E+04  0.15294330000E+03 0. -1.
    8880022    1    1    2    0    0 -0.20807136960E+03  0.83658298594E+02 -0.13327724656E+04  0.13601347374E+04  0.15294330000E+03 0.  1.
<mgrwt>
<rscale>  0 0.27144808E+03</rscale>
<asrwt>0</asrwt>
<pdfrwt beam="1">  1        2 0.45538376E+00 0.27144808E+03</pdfrwt>
<pdfrwt beam="2">  1       -2 0.38611776E-02 0.27144808E+03</pdfrwt>
<totfact> 0.63771563E+02</totfact>
</mgrwt>
</event>
<event>
 4    1  0.2061941E-008  0.8733575E+03  0.7818608E-02  0.9459513E-01
         -2   -1    0    0    0  501 -0.00000000000E+00  0.00000000000E+00  0.17584990265E+04  0.17584990265E+04  0.25500000000E-02 0.  1.
          2   -1    0    0  501    0  0.00000000000E+00 -0.00000000000E+00 -0.12368601783E+04  0.12368601783E+04  0.25500000000E-02 0. -1.
    8880022    1    1    2    0    0 -0.85961955203E+03  0.20391722229E+02 -0.94600895898E+03  0.12875116310E+04  0.15294330000E+03 0.  0.
    8880022    1    1    2    0    0  0.85961955203E+03 -0.20391722229E+02  0.14676478071E+04  0.17078475738E+04  0.15294330000E+03 0.  0.
<mgrwt>
<rscale>  0 0.87335746E+03</rscale>
<asrwt>0</asrwt>
<pdfrwt beam="1">  1        2 0.19028618E+00 0.87335746E+03</pdfrwt>
<pdfrwt beam="2">  1       -2 0.27053831E+00 0.87335746E+03</pdfrwt>
<totfact> 0.88302492E-01</totfact>
</mgrwt>
</event>
<event>
 4    1  0.2061941E-008  0.8180256E+03  0.7818608E-02  0.9534286E-01
         -2   -1    0    0    0  501 -0.00000000000E+00  0.00000000000E+00  0.45442670718E+03  0.45442670719E+03  0.25500000000E-02 0.  1.
          2   -1    0    0  501    0  0.00000000000E+00 -0.00000000000E+00 -0.17331228310E+04  0.17331228310E+04  0.25500000000E-02 0. -1.
    8880022    1    1    2    0    0 -0.45977313882E+01 -0.80358767563E+03 -0.10634575457E+04  0.13416809964E+04  0.15294330000E+03 0.  0.
    8880022    1    1    2    0    0  0.45977313882E+01  0.80358767563E+03 -0.21523857819E+03  0.84586854186E+03  0.15294330000E+03 0.  0.
<mgrwt>
<rscale>  0 0.81802564E+03</rscale>
<asrwt>0</asrwt>
<pdfrwt beam="1">  1        2 0.26663428E+00 0.81802564E+03</pdfrwt>
<pdfrwt beam="2">  1       -2 0.69911802E-01 0.81802564E+03</pdfrwt>
<totfact> 0.17868268E+01</totfact>
</mgrwt>
</event>
<event>
 4    1  0.2061941E-008  0.1658149E+04  0.7818608E-02  0.8785600E-01
          2   -1    0    0  501    0  0.00000000000E+00  0.00000000000E+00  0.16993358545E+04  0.16993358545E+04  0.25500000000E-02 0. -1.
         -2   -1    0    0    0  501 -0.00000000000E+00 -0.00000000000E+00 -0.18180812496E+04  0.18180812496E+04  0.25500000000E-02 0.  1.
    8880022    1    1    2    0    0  0.83324249280E+03  0.14254034141E+04  0.52411601101E+03  0.17390104056E+04  0.15294330000E+03 0.  0.
    8880022    1    1    2    0    0 -0.83324249280E+03 -0.14254034141E+04 -0.64286140611E+03  0.17784066985E+04  0.15294330000E+03 0.  0.
<mgrwt>
<rscale>  0 0.16581494E+04</rscale>
<asrwt>0</asrwt>
<pdfrwt beam="1">  1        2 0.26143629E+00 0.16581494E+04</pdfrwt>
<pdfrwt beam="2">  1       -2 0.27970481E+00 0.16581494E+04</pdfrwt>
<totfact> 0.38346798E-01</totfact>
</mgrwt>
</event>
<event>
 4    1  0.2061941E-008  0.5607464E+03  0.7818608E-02  0.9990367E-01
         -2   -1    0    0    0  501 -0.00000000000E+00  0.00000000000E+00  0.21170131517E+03  0.21170131518E+03  0.25500000000E-02 0.  1.
          2   -1    0    0  501    0  0.00000000000E+00 -0.00000000000E+00 -0.27197125510E+04  0.27197125510E+04  0.25500000000E-02 0. -1.
    8880022    1    1    2    0    0 -0.91171129821E+02  0.53172613037E+03 -0.26654751700E+03  0.62087364613E+03  0.15294330000E+03 0.  0.
    8880022    1    1    2    0    0  0.91171129821E+02 -0.53172613037E+03 -0.22414637188E+04  0.23105402200E+04  0.15294330000E+03 0.  1.
<mgrwt>
<rscale>  0 0.56074638E+03</rscale>
<asrwt>0</asrwt>
<pdfrwt beam="1">  1        2 0.41841729E+00 0.56074638E+03</pdfrwt>
<pdfrwt beam="2">  1       -2 0.32569435E-01 0.56074638E+03</pdfrwt>
<totfact> 0.24671835E+01</totfact>
</mgrwt>
</event>
<event>
 4    1  0.2061941E-008  0.1098016E+04  0.7818608E-02  0.9207128E-01
          2   -1    0    0  501    0  0.00000000000E+00  0.00000000000E+00  0.16432271196E+04  0.16432271196E+04  0.25500000000E-02 0. -1.
         -2   -1    0    0    0  501 -0.00000000000E+00 -0.00000000000E+00 -0.94717302141E+03  0.94717302142E+03  0.25500000000E-02 0.  1.
    8880022    1    1    2    0    0  0.94851540125E+03 -0.53156966707E+03  0.96290852881E+03  0.14604219477E+04  0.15294330000E+03 0.  0.
    8880022    1    1    2    0    0 -0.94851540125E+03  0.53156966707E+03 -0.26685443060E+03  0.11299781934E+04  0.15294330000E+03 0.  0.
<mgrwt>
<rscale>  0 0.10980161E+04</rscale>
<asrwt>0</asrwt>
<pdfrwt beam="1">  1        2 0.25280417E+00 0.10980161E+04</pdfrwt>
<pdfrwt beam="2">  1       -2 0.14571893E+00 0.10980161E+04</pdfrwt>
<totfact> 0.33531028E+00</totfact>
</mgrwt>
</event>
<event>
 4    1  0.2061941E-008  0.1598334E+03  0.7818608E-02  0.1188885E+00
          2   -1    0    0  501    0  0.00000000000E+00  0.00000000000E+00  0.10584987820E+04  0.10584987820E+04  0.25500000000E-02 0. -1.
         -2   -1    0    0    0  501 -0.00000000000E+00 -0.00000000000E+00 -0.43245122197E+03  0.43245122197E+03  0.25500000000E-02 0.  1.
    8880022    1    1    2    0    0 -0.38417012375E+02  0.26061646641E+02 -0.41135030950E+03  0.44131146191E+03  0.15294330000E+03 0.  0.
    8880022    1    1    2    0    0  0.38417012375E+02 -0.26061646641E+02  0.10373978695E+04  0.10496385421E+04  0.15294330000E+03 0. -1.
<mgrwt>
<rscale>  0 0.15983344E+03</rscale>
<asrwt>0</asrwt>
<pdfrwt beam="1">  1        2 0.16284596E+00 0.15983344E+03</pdfrwt>
<pdfrwt beam="2">  1       -2 0.66530958E-01 0.15983344E+03</pdfrwt>
<totfact> 0.54079448E+01</totfact>
</mgrwt>
</event>
<event>
 4    1  0.2061941E-008  0.2413416E+03  0.7818608E-02  0.1118902E+00
          2   -1    0    0  501    0  0.00000000000E+00  0.00000000000E+00  0.23084633235E+04  0.23084633235E+04  0.25500000000E-02 0. -1.
         -2   -1    0    0    0  501 -0.00000000000E+00 -0.00000000000E+00 -0.23246283505E+03  0.23246283507E+03  0.25500000000E-02 0.  1.
    8880022    1    1    2    0    0 -0.16955270525E+03 -0.78140775485E+02 -0.16153525308E+03  0.29041245093E+03  0.15294330000E+03 0.  1.
    8880022    1    1    2    0    0  0.16955270525E+03  0.78140775485E+02  0.22375357416E+04  0.22505137077E+04  0.15294330000E+03 0.  0.
<mgrwt>
<rscale>  0 0.24134157E+03</rscale>
<asrwt>0</asrwt>
<pdfrwt beam="1">  1        2 0.35514820E+00 0.24134157E+03</pdfrwt>
<pdfrwt beam="2">  1       -2 0.35763513E-01 0.24134157E+03</pdfrwt>
<totfact> 0.38517335E+01</totfact>
</mgrwt>
</event>
<event>
 4    1  0.2061941E-008  0.3861351E+03  0.7818608E-02  0.1048689E+00
          2   -1    0    0  501    0  0.00000000000E+00  0.00000000000E+00  0.36667036805E+03  0.36667036806E+03  0.25500000000E-02 0. -1.
         -2   -1    0    0    0  501 -0.00000000000E+00 -0.00000000000E+00 -0.61500210539E+03  0.61500210539E+03  0.25500000000E-02 0.  1.
    8880022    1    1    2    0    0 -0.18614432549E+02 -0.35406522555E+03 -0.40986887018E+03  0.56310995800E+03  0.15294330000E+03 0.  0.
    8880022    1    1    2    0    0  0.18614432549E+02  0.35406522555E+03  0.16153713284E+03  0.41856251546E+03  0.15294330000E+03 0.  0.
<mgrwt>
<rscale>  0 0.38613512E+03</rscale>
<asrwt>0</asrwt>
<pdfrwt beam="1">  1        2 0.56410826E-01 0.38613512E+03</pdfrwt>
<pdfrwt beam="2">  1       -2 0.94615709E-01 0.38613512E+03</pdfrwt>
<totfact> 0.85448598E+01</totfact>
</mgrwt>
</event>
<event>
 4    1  0.2061941E-008  0.9860317E+03  0.7818608E-02  0.9323999E-01
          2   -1    0    0  501    0  0.00000000000E+00  0.00000000000E+00  0.23815368972E+04  0.23815368972E+04  0.25500000000E-02 0. -1.
         -2   -1    0    0    0  501 -0.00000000000E+00 -0.00000000000E+00 -0.75151402371E+03  0.75151402371E+03  0.25500000000E-02 0.  1.
    8880022    1    1    2    0    0 -0.92287806227E+03 -0.31170960517E+03  0.18737387503E+04  0.21173462998E+04  0.15294330000E+03 0.  0.
    8880022    1    1    2    0    0  0.92287806227E+03  0.31170960517E+03 -0.24371587680E+03  0.10157046211E+04  0.15294330000E+03 0.  0.
<mgrwt>
<rscale>  0 0.98603167E+03</rscale>
<asrwt>0</asrwt>
<pdfrwt beam="1">  1        2 0.36639028E+00 0.98603167E+03</pdfrwt>
<pdfrwt beam="2">  1       -2 0.11561755E+00 0.98603167E+03</pdfrwt>
<totfact> 0.23878738E+00</totfact>
</mgrwt>
</event>
<event>
 4    1  0.2061941E-008  0.8343488E+03  0.7818608E-02  0.9511588E-01
          2   -1    0    0  501    0  0.00000000000E+00  0.00000000000E+00  0.20546989264E+04  0.20546989264E+04  0.25500000000E-02 0. -1.
         -2   -1    0    0    0  501 -0.00000000000E+00 -0.00000000000E+00 -0.97300382930E+03  0.97300382930E+03  0.25500000000E-02 0.  1.
    8880022    1    1    2    0    0 -0.52338652726E+03 -0.63151631860E+03 -0.68134434867E+03  0.10772038303E+04  0.15294330000E+03 0.  0.
    8880022    1    1    2    0    0  0.52338652726E+03  0.63151631860E+03  0.17630394457E+04  0.19504989253E+04  0.15294330000E+03 0.  0.
<mgrwt>
<rscale>  0 0.83434883E+03</rscale>
<asrwt>0</asrwt>
<pdfrwt beam="1">  1        2 0.31610752E+00 0.83434883E+03</pdfrwt>
<pdfrwt beam="2">  1       -2 0.14969290E+00 0.83434883E+03</pdfrwt>
<totfact> 0.19212635E+00</totfact>
</mgrwt>
</event>
<event>
 4    1  0.2061941E-008  0.2479614E+03  0.7818608E-02  0.1114600E+00
         -2   -1    0    0    0  501 -0.00000000000E+00  0.00000000000E+00  0.19538566362E+04  0.19538566362E+04  0.25500000000E-02 0.  1.
          2   -1    0    0  501    0  0.00000000000E+00 -0.00000000000E+00 -0.30757202489E+03  0.30757202490E+03  0.25500000000E-02 0. -1.
    8880022    1    1    2    0    0  0.15115343783E+03  0.12347412474E+03 -0.24816849046E+03  0.35081686665E+03  0.15294330000E+03 0.  0.
    8880022    1    1    2    0    0 -0.15115343783E+03 -0.12347412474E+03  0.18944531018E+04  0.19106117944E+04  0.15294330000E+03 0.  1.
<mgrwt>
<rscale>  0 0.24796144E+03</rscale>
<asrwt>0</asrwt>
<pdfrwt beam="1">  1        2 0.47318773E-01 0.24796144E+03</pdfrwt>
<pdfrwt beam="2">  1       -2 0.30059333E+00 0.24796144E+03</pdfrwt>
<totfact> 0.39315253E+00</totfact>
</mgrwt>
</event>
<event>
 4    1  0.2061941E-008  0.8423500E+03  0.7818608E-02  0.9500662E-01
          2   -1    0    0  501    0  0.00000000000E+00  0.00000000000E+00  0.15852018288E+04  0.15852018288E+04  0.25500000000E-02 0. -1.
         -2   -1    0    0    0  501 -0.00000000000E+00 -0.00000000000E+00 -0.80186500635E+03  0.80186500635E+03  0.25500000000E-02 0.  1.
    8880022    1    1    2    0    0  0.71639511027E+03 -0.41586045452E+03  0.11849756827E+04  0.14538641247E+04  0.15294330000E+03 0.  0.
    8880022    1    1    2    0    0 -0.71639511027E+03  0.41586045452E+03 -0.40163886022E+03  0.93320271041E+03  0.15294330000E+03 0.  0.
<mgrwt>
<rscale>  0 0.84235000E+03</rscale>
<asrwt>0</asrwt>
<pdfrwt beam="1">  1        2 0.24387720E+00 0.84235000E+03</pdfrwt>
<pdfrwt beam="2">  1       -2 0.12336385E+00 0.84235000E+03</pdfrwt>
<totfact> 0.57100693E+00</totfact>
</mgrwt>
</event>
<event>
 4    1  0.2061941E-008  0.1202552E+04  0.7818608E-02  0.9110626E-01
          2   -1    0    0  501    0  0.00000000000E+00  0.00000000000E+00  0.17148798312E+04  0.17148798312E+04  0.25500000000E-02 0. -1.
         -2   -1    0    0    0  501 -0.00000000000E+00 -0.00000000000E+00 -0.17623094137E+04  0.17623094137E+04  0.25500000000E-02 0.  1.
    8880022    1    1    2    0    0 -0.11803350873E+04  0.17189860370E+03  0.12317972356E+04  0.17214691780E+04  0.15294330000E+03 0.  0.
    8880022    1    1    2    0    0  0.11803350873E+04 -0.17189860370E+03 -0.12792268180E+04  0.17557200669E+04  0.15294330000E+03 0.  0.
<mgrwt>
<rscale>  0 0.12025522E+04</rscale>
<asrwt>0</asrwt>
<pdfrwt beam="1">  1        2 0.26382766E+00 0.12025522E+04</pdfrwt>
<pdfrwt beam="2">  1       -2 0.27112453E+00 0.12025522E+04</pdfrwt>
<totfact> 0.44660623E-01</totfact>
</mgrwt>
</event>
<event>
 4    1  0.2061941E-008  0.6224316E+03  0.7818608E-02  0.9859930E-01
         -2   -1    0    0    0  501 -0.00000000000E+00  0.00000000000E+00  0.30256820604E+04  0.30256820604E+04  0.25500000000E-02 0.  1.
          2   -1    0    0  501    0  0.00000000000E+00 -0.00000000000E+00 -0.12152861835E+04  0.12152861835E+04  0.25500000000E-02 0. -1.
    8880022    1    1    2    0    0 -0.56795712610E+03 -0.20360279545E+03 -0.11004691637E+04  0.12642995803E+04  0.15294330000E+03 0.  0.
    8880022    1    1    2    0    0  0.56795712610E+03  0.20360279545E+03  0.29108650406E+04  0.29766686637E+04  0.15294330000E+03 0.  0.
<mgrwt>
<rscale>  0 0.62243156E+03</rscale>
<asrwt>0</asrwt>
<pdfrwt beam="1">  1        2 0.18696711E+00 0.62243156E+03</pdfrwt>
<pdfrwt beam="2">  1       -2 0.46548954E+00 0.62243156E+03</pdfrwt>
<totfact> 0.56680239E-02</totfact>
</mgrwt>
</event>
<event>
 4    1  0.2061941E-008  0.9121414E+03  0.7818608E-02  0.9410530E-01
          2   -1    0    0  501    0  0.00000000000E+00  0.00000000000E+00  0.45124798719E+03  0.45124798720E+03  0.25500000000E-02 0. -1.
         -2   -1    0    0    0  501 -0.00000000000E+00 -0.00000000000E+00 -0.20978800471E+04  0.20978800471E+04  0.25500000000E-02 0.  1.
    8880022    1    1    2    0    0 -0.75034518596E+03  0.49557283010E+03 -0.37973418573E+03  0.98802835630E+03  0.15294330000E+03 0.  0.
    8880022    1    1    2    0    0  0.75034518596E+03 -0.49557283010E+03 -0.12668978742E+04  0.15610996780E+04  0.15294330000E+03 0.  0.
<mgrwt>
<rscale>  0 0.91214143E+03</rscale>
<asrwt>0</asrwt>
<pdfrwt beam="1">  1        2 0.69422769E-01 0.91214143E+03</pdfrwt>
<pdfrwt beam="2">  1       -2 0.32275077E+00 0.91214143E+03</pdfrwt>
<totfact> 0.16320147E+00</totfact>
</mgrwt>
</event>
<event>
 4    1  0.2061941E-008  0.1625853E+04  0.7818608E-02  0.8804821E-01
         -2   -1    0    0    0  501 -0.00000000000E+00  0.00000000000E+00  0.11043421651E+04  0.11043421651E+04  0.25500000000E-02 0.  1.
          2   -1    0    0  501    0  0.00000000000E+00 -0.00000000000E+00 -0.29857235469E+04  0.29857235469E+04  0.25500000000E-02 0. -1.
    8880022    1    1    2    0    0  0.15474810196E+04  0.47466770559E+03 -0.30008896965E+02  0.16261301066E+04  0.15294330000E+03 0.  0.
    8880022    1    1    2    0    0 -0.15474810196E+04 -0.47466770559E+03 -0.18513724848E+04  0.24639356053E+04  0.15294330000E+03 0.  0.
<mgrwt>
<rscale>  0 0.16258532E+04</rscale>
<asrwt>0</asrwt>
<pdfrwt beam="1">  1        2 0.45934208E+00 0.16258532E+04</pdfrwt>
<pdfrwt beam="2">  1       -2 0.16989880E+00 0.16258532E+04</pdfrwt>
<totfact> 0.35360998E-01</totfact>
</mgrwt>
</event>
<event>
 4    1  0.2061941E-008  0.1084721E+04  0.7818608E-02  0.9220213E-01
         -2   -1    0    0    0  501 -0.00000000000E+00  0.00000000000E+00  0.90547781119E+03  0.90547781119E+03  0.25500000000E-02 0.  1.
          2   -1    0    0  501    0  0.00000000000E+00 -0.00000000000E+00 -0.21433062523E+04  0.21433062523E+04  0.25500000000E-02 0. -1.
    8880022    1    1    2    0    0  0.83612298835E+03  0.67388923560E+03  0.33759614727E+03  0.11360418853E+04  0.15294330000E+03 0.  0.
    8880022    1    1    2    0    0 -0.83612298835E+03 -0.67388923560E+03 -0.15754245884E+04  0.19127421782E+04  0.15294330000E+03 0.  0.
<mgrwt>
<rscale>  0 0.10847212E+04</rscale>
<asrwt>0</asrwt>
<pdfrwt beam="1">  1        2 0.32973942E+00 0.10847212E+04</pdfrwt>
<pdfrwt beam="2">  1       -2 0.13930428E+00 0.10847212E+04</pdfrwt>
<totfact> 0.19992513E+00</totfact>
</mgrwt>
</event>
<event>
 4    1  0.2061941E-008  0.1147665E+04  0.7818608E-02  0.9159941E-01
         -2   -1    0    0    0  501 -0.00000000000E+00  0.00000000000E+00  0.60460231892E+03  0.60460231893E+03  0.25500000000E-02 0.  1.
          2   -1    0    0  501    0  0.00000000000E+00 -0.00000000000E+00 -0.24557931899E+04  0.24557931899E+04  0.25500000000E-02 0. -1.
    8880022    1    1    2    0    0  0.11085705833E+04  0.25458619720E+03 -0.41142106607E+03  0.12191807973E+04  0.15294330000E+03 0.  0.
    8880022    1    1    2    0    0 -0.11085705833E+04 -0.25458619720E+03 -0.14397698049E+04  0.18412147116E+04  0.15294330000E+03 0.  0.
<mgrwt>
<rscale>  0 0.11476648E+04</rscale>
<asrwt>0</asrwt>
<pdfrwt beam="1">  1        2 0.37781433E+00 0.11476648E+04</pdfrwt>
<pdfrwt beam="2">  1       -2 0.93015743E-01 0.11476648E+04</pdfrwt>
<totfact> 0.35780524E+00</totfact>
</mgrwt>
</event>
<event>
 4    1  0.2061941E-008  0.7606047E+03  0.7818608E-02  0.9618859E-01
          2   -1    0    0  501    0  0.00000000000E+00  0.00000000000E+00  0.19472950642E+04  0.19472950642E+04  0.25500000000E-02 0. -1.
         -2   -1    0    0    0  501 -0.00000000000E+00 -0.00000000000E+00 -0.43002450757E+03  0.43002450757E+03  0.25500000000E-02 0.  1.
    8880022    1    1    2    0    0  0.62817105473E+03 -0.40066062328E+03  0.14195293699E+04  0.16104605223E+04  0.15294330000E+03 0.  0.
    8880022    1    1    2    0    0 -0.62817105473E+03  0.40066062328E+03  0.97741186716E+02  0.76685904940E+03  0.15294330000E+03 0.  0.
<mgrwt>
<rscale>  0 0.76060467E+03</rscale>
<asrwt>0</asrwt>
<pdfrwt beam="1">  1        2 0.29958385E+00 0.76060467E+03</pdfrwt>
<pdfrwt beam="2">  1       -2 0.66157617E-01 0.76060467E+03</pdfrwt>
<totfact> 0.15501470E+01</totfact>
</mgrwt>
</event>
<event>
 4    1  0.2061941E-008  0.5710331E+03  0.7818608E-02  0.9967395E-01
          2   -1    0    0  501    0  0.00000000000E+00  0.00000000000E+00  0.72023131008E+03  0.72023131009E+03  0.25500000000E-02 0. -1.
         -2   -1    0    0    0  501 -0.00000000000E+00 -0.00000000000E+00 -0.12730798110E+04  0.12730798110E+04  0.25500000000E-02 0.  1.
    8880022    1    1    2    0    0 -0.99217769743E+02 -0.54114973610E+03 -0.10764679015E+04  0.12185491367E+04  0.15294330000E+03 0.  0.
    8880022    1    1    2    0    0  0.99217769743E+02  0.54114973610E+03  0.52361940057E+03  0.77476198434E+03  0.15294330000E+03 0.  0.
<mgrwt>
<rscale>  0 0.57103315E+03</rscale>
<asrwt>0</asrwt>
<pdfrwt beam="1">  1        2 0.11080482E+00 0.57103315E+03</pdfrwt>
<pdfrwt beam="2">  1       -2 0.19585843E+00 0.57103315E+03</pdfrwt>
<totfact> 0.58617544E+00</totfact>
</mgrwt>
</event>
<event>
 4    1  0.2061941E-008  0.1077049E+04  0.7818608E-02  0.9227855E-01
          2   -1    0    0  501    0  0.00000000000E+00  0.00000000000E+00  0.15973850720E+04  0.15973850720E+04  0.25500000000E-02 0. -1.
         -2   -1    0    0    0  501 -0.00000000000E+00 -0.00000000000E+00 -0.11902529876E+04  0.11902529876E+04  0.25500000000E-02 0.  1.
    8880022    1    1    2    0    0 -0.65666975320E+03  0.83989715391E+03  0.10738615174E+04  0.15209249177E+04  0.15294330000E+03 0.  0.
    8880022    1    1    2    0    0  0.65666975320E+03 -0.83989715391E+03 -0.66672943304E+03  0.12667131419E+04  0.15294330000E+03 0.  0.
<mgrwt>
<rscale>  0 0.10770488E+04</rscale>
<asrwt>0</asrwt>
<pdfrwt beam="1">  1        2 0.24575155E+00 0.10770488E+04</pdfrwt>
<pdfrwt beam="2">  1       -2 0.18311584E+00 0.10770488E+04</pdfrwt>
<totfact> 0.19003066E+00</totfact>
</mgrwt>
</event>
<event>
 4    1  0.2061941E-008  0.1409999E+04  0.7818608E-02  0.8946613E-01
          2   -1    0    0  501    0  0.00000000000E+00  0.00000000000E+00  0.16567862168E+04  0.16567862168E+04  0.25500000000E-02 0. -1.
         -2   -1    0    0    0  501 -0.00000000000E+00 -0.00000000000E+00 -0.15107492896E+04  0.15107492896E+04  0.25500000000E-02 0.  1.
    8880022    1    1    2    0    0  0.14014202452E+04 -0.26940914215E+02 -0.64530543215E+03  0.15506499510E+04  0.15294330000E+03 0.  0.
    8880022    1    1    2    0    0 -0.14014202452E+04  0.26940914215E+02  0.79134235936E+03  0.16168855554E+04  0.15294330000E+03 0.  0.
<mgrwt>
<rscale>  0 0.14099986E+04</rscale>
<asrwt>0</asrwt>
<pdfrwt beam="1">  1        2 0.25489019E+00 0.14099986E+04</pdfrwt>
<pdfrwt beam="2">  1       -2 0.23242297E+00 0.14099986E+04</pdfrwt>
<totfact> 0.81144563E-01</totfact>
</mgrwt>
</event>
<event>
 4    1  0.2061941E-008  0.1262831E+04  0.7818608E-02  0.9059571E-01
          2   -1    0    0  501    0  0.00000000000E+00  0.00000000000E+00  0.32166939602E+04  0.32166939602E+04  0.25500000000E-02 0. -1.
         -2   -1    0    0    0  501 -0.00000000000E+00 -0.00000000000E+00 -0.60435830715E+03  0.60435830716E+03  0.25500000000E-02 0.  1.
    8880022    1    1    2    0    0  0.11931337515E+04  0.38442580766E+03  0.21160011168E+04  0.24641841915E+04  0.15294330000E+03 0.  0.
    8880022    1    1    2    0    0 -0.11931337515E+04 -0.38442580766E+03  0.49633453633E+03  0.13568680759E+04  0.15294330000E+03 0.  0.
<mgrwt>
<rscale>  0 0.12628313E+04</rscale>
<asrwt>0</asrwt>
<pdfrwt beam="1">  1        2 0.49487598E+00 0.12628313E+04</pdfrwt>
<pdfrwt beam="2">  1       -2 0.92978203E-01 0.12628313E+04</pdfrwt>
<totfact> 0.12233456E+00</totfact>
</mgrwt>
</event>
<event>
 4    1  0.2061941E-008  0.7243727E+03  0.7818608E-02  0.9676436E-01
         -2   -1    0    0    0  501 -0.00000000000E+00  0.00000000000E+00  0.15700454089E+04  0.15700454089E+04  0.25500000000E-02 0.  1.
          2   -1    0    0  501    0  0.00000000000E+00 -0.00000000000E+00 -0.18110706775E+04  0.18110706775E+04  0.25500000000E-02 0. -1.
    8880022    1    1    2    0    0  0.21980726163E+03  0.67305936572E+03 -0.16471398514E+04  0.17993847518E+04  0.15294330000E+03 0.  0.
    8880022    1    1    2    0    0 -0.21980726163E+03 -0.67305936572E+03  0.14061145828E+04  0.15817313346E+04  0.15294330000E+03 0.  1.
<mgrwt>
<rscale>  0 0.72437269E+03</rscale>
<asrwt>0</asrwt>
<pdfrwt beam="1">  1        2 0.27862626E+00 0.72437269E+03</pdfrwt>
<pdfrwt beam="2">  1       -2 0.24154545E+00 0.72437269E+03</pdfrwt>
<totfact> 0.64917706E-01</totfact>
</mgrwt>
</event>
<event>
 4    1  0.2061941E-008  0.4524419E+03  0.7818608E-02  0.1026996E+00
          2   -1    0    0  501    0  0.00000000000E+00  0.00000000000E+00  0.17380308610E+04  0.17380308610E+04  0.25500000000E-02 0. -1.
         -2   -1    0    0    0  501 -0.00000000000E+00 -0.00000000000E+00 -0.86018173667E+03  0.86018173668E+03  0.25500000000E-02 0.  1.
    8880022    1    1    2    0    0 -0.31959122831E+03  0.28137779155E+03  0.16458191501E+04  0.17068756084E+04  0.15294330000E+03 0.  0.
    8880022    1    1    2    0    0  0.31959122831E+03 -0.28137779155E+03 -0.76797002581E+03  0.89133698922E+03  0.15294330000E+03 0.  0.
<mgrwt>
<rscale>  0 0.45244189E+03</rscale>
<asrwt>0</asrwt>
<pdfrwt beam="1">  1        2 0.26738936E+00 0.45244189E+03</pdfrwt>
<pdfrwt beam="2">  1       -2 0.13233565E+00 0.45244189E+03</pdfrwt>
<totfact> 0.42532028E+00</totfact>
</mgrwt>
</event>
<event>
 4    1  0.2061941E-008  0.7845411E+03  0.7818608E-02  0.9582667E-01
         -2   -1    0    0    0  501 -0.00000000000E+00  0.00000000000E+00  0.99914280897E+03  0.99914280897E+03  0.25500000000E-02 0.  1.
          2   -1    0    0  501    0  0.00000000000E+00 -0.00000000000E+00 -0.12340341696E+04  0.12340341696E+04  0.25500000000E-02 0. -1.
    8880022    1    1    2    0    0 -0.46361688298E+02 -0.76809097717E+03 -0.90762243481E+03  0.11997013347E+04  0.15294330000E+03 0.  0.
    8880022    1    1    2    0    0  0.46361688298E+02  0.76809097717E+03  0.67273107414E+03  0.10334756439E+04  0.15294330000E+03 0.  0.
<mgrwt>
<rscale>  0 0.78454115E+03</rscale>
<asrwt>0</asrwt>
<pdfrwt beam="1">  1        2 0.18985141E+00 0.78454115E+03</pdfrwt>
<pdfrwt beam="2">  1       -2 0.15371428E+00 0.78454115E+03</pdfrwt>
<totfact> 0.51619459E+00</totfact>
</mgrwt>
</event>
<event>
 4    1  0.2061941E-008  0.5669440E+03  0.7818608E-02  0.9976464E-01
         -2   -1    0    0    0  501 -0.00000000000E+00  0.00000000000E+00  0.56944540629E+03  0.56944540630E+03  0.25500000000E-02 0.  1.
          2   -1    0    0  501    0  0.00000000000E+00 -0.00000000000E+00 -0.14859643304E+04  0.14859643304E+04  0.25500000000E-02 0. -1.
    8880022    1    1    2    0    0  0.19021530867E+03 -0.51171469995E+03  0.35104967613E+03  0.66682930794E+03  0.15294330000E+03 0.  0.
    8880022    1    1    2    0    0 -0.19021530867E+03  0.51171469995E+03 -0.12675686002E+04  0.13885804287E+04  0.15294330000E+03 0.  0.
<mgrwt>
<rscale>  0 0.56694396E+03</rscale>
<asrwt>0</asrwt>
<pdfrwt beam="1">  1        2 0.22860990E+00 0.56694396E+03</pdfrwt>
<pdfrwt beam="2">  1       -2 0.87606986E-01 0.56694396E+03</pdfrwt>
<totfact> 0.15292313E+01</totfact>
</mgrwt>
</event>
<event>
 4    1  0.2061941E-008  0.1128344E+04  0.7818608E-02  0.9177998E-01
          2   -1    0    0  501    0  0.00000000000E+00  0.00000000000E+00  0.59054171021E+03  0.59054171022E+03  0.25500000000E-02 0. -1.
         -2   -1    0    0    0  501 -0.00000000000E+00 -0.00000000000E+00 -0.24786341381E+04  0.24786341381E+04  0.25500000000E-02 0.  1.
    8880022    1    1    2    0    0  0.10264312501E+04 -0.44295316949E+03 -0.14977723534E+04  0.18752285986E+04  0.15294330000E+03 0.  0.
    8880022    1    1    2    0    0 -0.10264312501E+04  0.44295316949E+03 -0.39032007450E+03  0.11939472497E+04  0.15294330000E+03 0.  0.
<mgrwt>
<rscale>  0 0.11283440E+04</rscale>
<asrwt>0</asrwt>
<pdfrwt beam="1">  1        2 0.90852572E-01 0.11283440E+04</pdfrwt>
<pdfrwt beam="2">  1       -2 0.38132832E+00 0.11283440E+04</pdfrwt>
<totfact> 0.49629253E-01</totfact>
</mgrwt>
</event>
<event>
 4    1  0.2233528E-008  0.1518053E+04  0.7818608E-02  0.8872536E-01
          2   -1    0    0  501    0  0.00000000000E+00  0.00000000000E+00  0.33017029403E+04  0.33017029403E+04  0.25500000000E-02 0. -1.
         -2   -1    0    0    0  501 -0.00000000000E+00 -0.00000000000E+00 -0.15753488583E+04  0.15753488583E+04  0.25500000000E-02 0.  1.
    8880022    1    1    2    0    0  0.27862290858E+03  0.14844064836E+04  0.26830158812E+04  0.30827032302E+04  0.15294330000E+03 0.  0.
    8880022    1    1    2    0    0 -0.27862290858E+03 -0.14844064836E+04 -0.95666179917E+03  0.17943485684E+04  0.15294330000E+03 0.  0.
<mgrwt>
<rscale>  0 0.15180530E+04</rscale>
<asrwt>0</asrwt>
<pdfrwt beam="1">  1        2 0.50795429E+00 0.15180530E+04</pdfrwt>
<pdfrwt beam="2">  1       -2 0.24236137E+00 0.15180530E+04</pdfrwt>
<totfact> 0.74898040E-02</totfact>
</mgrwt>
</event>
<event>
 4    1  0.2061941E-008  0.1653674E+04  0.7818608E-02  0.8788236E-01
         -2   -1    0    0    0  501 -0.00000000000E+00  0.00000000000E+00  0.26553002725E+04  0.26553002725E+04  0.25500000000E-02 0.  1.
          2   -1    0    0  501    0  0.00000000000E+00 -0.00000000000E+00 -0.15013959315E+04  0.15013959315E+04  0.25500000000E-02 0. -1.
    8880022    1    1    2    0    0 -0.15895388392E+04  0.42966476586E+03 -0.58776226298E+03  0.17550218412E+04  0.15294330000E+03 0.  0.
    8880022    1    1    2    0    0  0.15895388392E+04 -0.42966476586E+03  0.17416666040E+04  0.24016743628E+04  0.15294330000E+03 0.  0.
<mgrwt>
<rscale>  0 0.16536738E+04</rscale>
<asrwt>0</asrwt>
<pdfrwt beam="1">  1        2 0.23098399E+00 0.16536738E+04</pdfrwt>
<pdfrwt beam="2">  1       -2 0.40850773E+00 0.16536738E+04</pdfrwt>
<totfact> 0.76551196E-02</totfact>
</mgrwt>
</event>
<event>
 4    1  0.2061941E-008  0.6434321E+03  0.7818608E-02  0.9819182E-01
         -2   -1    0    0    0  501 -0.00000000000E+00  0.00000000000E+00  0.91658826585E+03  0.91658826585E+03  0.25500000000E-02 0.  1.
          2   -1    0    0  501    0  0.00000000000E+00 -0.00000000000E+00 -0.23428107138E+04  0.23428107138E+04  0.25500000000E-02 0. -1.
    8880022    1    1    2    0    0  0.91943026102E+02 -0.61819063658E+03 -0.21773087605E+04  0.22703916567E+04  0.15294330000E+03 0. -1.
    8880022    1    1    2    0    0 -0.91943026102E+02  0.61819063658E+03  0.75108631248E+03  0.98900732304E+03  0.15294330000E+03 0.  0.
<mgrwt>
<rscale>  0 0.64343208E+03</rscale>
<asrwt>0</asrwt>
<pdfrwt beam="1">  1        2 0.36043242E+00 0.64343208E+03</pdfrwt>
<pdfrwt beam="2">  1       -2 0.14101358E+00 0.64343208E+03</pdfrwt>
<totfact> 0.16186536E+00</totfact>
</mgrwt>
</event>
<event>
 4    1  0.2061941E-008  0.1497852E+04  0.7818608E-02  0.8885883E-01
          2   -1    0    0  501    0  0.00000000000E+00  0.00000000000E+00  0.17252005247E+04  0.17252005247E+04  0.25500000000E-02 0. -1.
         -2   -1    0    0    0  501 -0.00000000000E+00 -0.00000000000E+00 -0.17381927337E+04  0.17381927337E+04  0.25500000000E-02 0.  1.
    8880022    1    1    2    0    0 -0.13548061711E+04  0.62021641525E+03 -0.87550808788E+03  0.17349565493E+04  0.15294330000E+03 0.  0.
    8880022    1    1    2    0    0  0.13548061711E+04 -0.62021641525E+03  0.86251587887E+03  0.17284367091E+04  0.15294330000E+03 0.  0.
<mgrwt>
<rscale>  0 0.14978517E+04</rscale>
<asrwt>0</asrwt>
<pdfrwt beam="1">  1        2 0.26541546E+00 0.14978517E+04</pdfrwt>
<pdfrwt beam="2">  1       -2 0.26741427E+00 0.14978517E+04</pdfrwt>
<totfact> 0.44809588E-01</totfact>
</mgrwt>
</event>
<event>
 4    1  0.2061941E-008  0.8184140E+03  0.7818608E-02  0.9533739E-01
         -2   -1    0    0    0  501 -0.00000000000E+00  0.00000000000E+00  0.74509066098E+03  0.74509066099E+03  0.25500000000E-02 0.  1.
          2   -1    0    0  501    0  0.00000000000E+00 -0.00000000000E+00 -0.14631026093E+04  0.14631026093E+04  0.25500000000E-02 0. -1.
    8880022    1    1    2    0    0 -0.55465234243E+03 -0.58204006747E+03  0.32658773619E+03  0.88117028068E+03  0.15294330000E+03 0.  0.
    8880022    1    1    2    0    0  0.55465234243E+03  0.58204006747E+03 -0.10445996845E+04  0.13270229896E+04  0.15294330000E+03 0.  0.
<mgrwt>
<rscale>  0 0.81841402E+03</rscale>
<asrwt>0</asrwt>
<pdfrwt beam="1">  1        2 0.22509271E+00 0.81841402E+03</pdfrwt>
<pdfrwt beam="2">  1       -2 0.11462933E+00 0.81841402E+03</pdfrwt>
<totfact> 0.80347423E+00</totfact>
</mgrwt>
</event>
<event>
 4    1  0.2061941E-008  0.2724656E+03  0.7818608E-02  0.1099877E+00
         -2   -1    0    0    0  501 -0.00000000000E+00  0.00000000000E+00  0.77400415405E+03  0.77400415406E+03  0.25500000000E-02 0.  1.
          2   -1    0    0  501    0  0.00000000000E+00 -0.00000000000E+00 -0.79397836426E+03  0.79397836427E+03  0.25500000000E-02 0. -1.
    8880022    1    1    2    0    0 -0.88270318288E+02  0.20749501641E+03 -0.74510121973E+03  0.79335572827E+03  0.15294330000E+03 0. -1.
    8880022    1    1    2    0    0  0.88270318288E+02 -0.20749501641E+03  0.72512700952E+03  0.77462679005E+03  0.15294330000E+03 0.  0.
<mgrwt>
<rscale>  0 0.27246556E+03</rscale>
<asrwt>0</asrwt>
<pdfrwt beam="1">  1        2 0.12215052E+00 0.27246556E+03</pdfrwt>
<pdfrwt beam="2">  1       -2 0.11907756E+00 0.27246556E+03</pdfrwt>
<totfact> 0.20587300E+01</totfact>
</mgrwt>
</event>
<event>
 4    1  0.2061941E-008  0.2121738E+04  0.7818608E-02  0.8551728E-01
          2   -1    0    0  501    0  0.00000000000E+00  0.00000000000E+00  0.26090204913E+04  0.26090204913E+04  0.25500000000E-02 0. -1.
         -2   -1    0    0    0  501 -0.00000000000E+00 -0.00000000000E+00 -0.20169064485E+04  0.20169064485E+04  0.25500000000E-02 0.  1.
    8880022    1    1    2    0    0 -0.74534487583E+03 -0.19806162369E+04 -0.58317235677E+03  0.22004229849E+04  0.15294330000E+03 0.  0.
    8880022    1    1    2    0    0  0.74534487583E+03  0.19806162369E+04  0.11752863996E+04  0.24255039550E+04  0.15294330000E+03 0.  0.
<mgrwt>
<rscale>  0 0.21217378E+04</rscale>
<asrwt>0</asrwt>
<pdfrwt beam="1">  1        2 0.40138776E+00 0.21217378E+04</pdfrwt>
<pdfrwt beam="2">  1       -2 0.31029330E+00 0.21217378E+04</pdfrwt>
<totfact> 0.72279809E-02</totfact>
</mgrwt>
</event>
<event>
 4    1  0.2061941E-008  0.6981686E+03  0.7818608E-02  0.9720369E-01
          2   -1    0    0  501    0  0.00000000000E+00  0.00000000000E+00  0.13417551869E+04  0.13417551869E+04  0.25500000000E-02 0. -1.
         -2   -1    0    0    0  501 -0.00000000000E+00 -0.00000000000E+00 -0.52201356799E+03  0.52201356799E+03  0.25500000000E-02 0.  1.
    8880022    1    1    2    0    0  0.11419946226E+03 -0.67156992911E+03  0.92373562398E+03  0.11578975960E+04  0.15294330000E+03 0.  0.
    8880022    1    1    2    0    0 -0.11419946226E+03  0.67156992911E+03 -0.10399400504E+03  0.70587115890E+03  0.15294330000E+03 0.  0.
<mgrwt>
<rscale>  0 0.69816856E+03</rscale>
<asrwt>0</asrwt>
<pdfrwt beam="1">  1        2 0.20642387E+00 0.69816856E+03</pdfrwt>
<pdfrwt beam="2">  1       -2 0.80309781E-01 0.69816856E+03</pdfrwt>
<totfact> 0.22010995E+01</totfact>
</mgrwt>
</event>
<event>
 4    1  0.2061941E-008  0.4189837E+03  0.7818608E-02  0.1037398E+00
          2   -1    0    0  501    0  0.00000000000E+00  0.00000000000E+00  0.38520593862E+04  0.38520593862E+04  0.25500000000E-02 0. -1.
         -2   -1    0    0    0  501 -0.00000000000E+00 -0.00000000000E+00 -0.18914095410E+03  0.18914095412E+03  0.25500000000E-02 0.  1.
    8880022    1    1    2    0    0  0.38593998434E+03  0.56621372970E+02  0.35918835917E+04  0.36162376914E+04  0.15294330000E+03 0.  0.
    8880022    1    1    2    0    0 -0.38593998434E+03 -0.56621372970E+02  0.71034840379E+02  0.42496264889E+03  0.15294330000E+03 0.  1.
<mgrwt>
<rscale>  0 0.41898366E+03</rscale>
<asrwt>0</asrwt>
<pdfrwt beam="1">  1        2 0.59262448E+00 0.41898366E+03</pdfrwt>
<pdfrwt beam="2">  1       -2 0.29098610E-01 0.41898366E+03</pdfrwt>
<totfact> 0.58648039E+00</totfact>
</mgrwt>
</event>
<event>
 4    1  0.2061941E-008  0.4670018E+03  0.7818608E-02  0.1022770E+00
         -2   -1    0    0    0  501 -0.00000000000E+00  0.00000000000E+00  0.27344591380E+03  0.27344591381E+03  0.25500000000E-02 0.  1.
          2   -1    0    0  501    0  0.00000000000E+00 -0.00000000000E+00 -0.80950153417E+03  0.80950153418E+03  0.25500000000E-02 0. -1.
    8880022    1    1    2    0    0  0.61865870686E+02 -0.43688862011E+03 -0.33378147620E+03  0.57402158427E+03  0.15294330000E+03 0.  0.
    8880022    1    1    2    0    0 -0.61865870686E+02  0.43688862011E+03 -0.20227414417E+03  0.50892586371E+03  0.15294330000E+03 0.  0.
<mgrwt>
<rscale>  0 0.46700183E+03</rscale>
<asrwt>0</asrwt>
<pdfrwt beam="1">  1        2 0.12453870E+00 0.46700183E+03</pdfrwt>
<pdfrwt beam="2">  1       -2 0.42068602E-01 0.46700183E+03</pdfrwt>
<totfact> 0.18687759E+02</totfact>
</mgrwt>
</event>
<event>
 4    1  0.2061941E-008  0.9888808E+03  0.7818608E-02  0.9320825E-01
          2   -1    0    0  501    0  0.00000000000E+00  0.00000000000E+00  0.25333547009E+04  0.25333547009E+04  0.25500000000E-02 0. -1.
         -2   -1    0    0    0  501 -0.00000000000E+00 -0.00000000000E+00 -0.58157295014E+03  0.58157295014E+03  0.25500000000E-02 0.  1.
    8880022    1    1    2    0    0 -0.37098883496E+03  0.90380354062E+03  0.72728679684E+02  0.99155164745E+03  0.15294330000E+03 0.  0.
    8880022    1    1    2    0    0  0.37098883496E+03 -0.90380354062E+03  0.18790530711E+04  0.21233760036E+04  0.15294330000E+03 0.  0.
<mgrwt>
<rscale>  0 0.98888079E+03</rscale>
<asrwt>0</asrwt>
<pdfrwt beam="1">  1        2 0.38974687E+00 0.98888079E+03</pdfrwt>
<pdfrwt beam="2">  1       -2 0.89472764E-01 0.98888079E+03</pdfrwt>
<totfact> 0.36079403E+00</totfact>
</mgrwt>
</event>
<event>
 4    1  0.2061941E-008  0.6907026E+03  0.7818608E-02  0.9733265E-01
         -2   -1    0    0    0  501 -0.00000000000E+00  0.00000000000E+00  0.13598209459E+04  0.13598209459E+04  0.25500000000E-02 0.  1.
          2   -1    0    0  501    0  0.00000000000E+00 -0.00000000000E+00 -0.87686383585E+03  0.87686383585E+03  0.25500000000E-02 0. -1.
    8880022    1    1    2    0    0  0.66948636473E+03 -0.73935633281E+02 -0.62471368879E+03  0.93130946329E+03  0.15294330000E+03 0.  0.
    8880022    1    1    2    0    0 -0.66948636473E+03  0.73935633281E+02  0.11076707989E+04  0.13053753185E+04  0.15294330000E+03 0.  0.
<mgrwt>
<rscale>  0 0.69070263E+03</rscale>
<asrwt>0</asrwt>
<pdfrwt beam="1">  1        2 0.13490213E+00 0.69070263E+03</pdfrwt>
<pdfrwt beam="2">  1       -2 0.20920322E+00 0.69070263E+03</pdfrwt>
<totfact> 0.36409279E+00</totfact>
</mgrwt>
</event>
<event>
 4    1  0.2061941E-008  0.6919541E+03  0.7818608E-02  0.9731092E-01
          2   -1    0    0  501    0  0.00000000000E+00  0.00000000000E+00  0.27427514902E+04  0.27427514902E+04  0.25500000000E-02 0. -1.
         -2   -1    0    0    0  501 -0.00000000000E+00 -0.00000000000E+00 -0.21720642981E+03  0.21720642983E+03  0.25500000000E-02 0.  1.
    8880022    1    1    2    0    0 -0.67344414595E+03  0.43379501828E+02  0.19184839240E+04  0.20394560595E+04  0.15294330000E+03 0.  0.
    8880022    1    1    2    0    0  0.67344414595E+03 -0.43379501828E+02  0.60706113632E+03  0.92050186048E+03  0.15294330000E+03 0.  0.
<mgrwt>
<rscale>  0 0.69195408E+03</rscale>
<asrwt>0</asrwt>
<pdfrwt beam="1">  1        2 0.42196177E+00 0.69195408E+03</pdfrwt>
<pdfrwt beam="2">  1       -2 0.33416374E-01 0.69195408E+03</pdfrwt>
<totfact> 0.22237264E+01</totfact>
</mgrwt>
</event>
<event>
 4    1  0.2061941E-008  0.2128157E+03  0.7818608E-02  0.1139355E+00
          2   -1    0    0  501    0  0.00000000000E+00  0.00000000000E+00  0.17758317605E+04  0.17758317605E+04  0.25500000000E-02 0. -1.
         -2   -1    0    0    0  501 -0.00000000000E+00 -0.00000000000E+00 -0.54863488336E+03  0.54863488337E+03  0.25500000000E-02 0.  1.
    8880022    1    1    2    0    0 -0.10493203504E+03 -0.10434631814E+03  0.17484965097E+04  0.17614001770E+04  0.15294330000E+03 0.  0.
    8880022    1    1    2    0    0  0.10493203504E+03  0.10434631814E+03 -0.52129963261E+03  0.56306646682E+03  0.15294330000E+03 0.  0.
<mgrwt>
<rscale>  0 0.21281574E+03</rscale>
<asrwt>0</asrwt>
<pdfrwt beam="1">  1        2 0.27320489E+00 0.21281574E+03</pdfrwt>
<pdfrwt beam="2">  1       -2 0.84405365E-01 0.21281574E+03</pdfrwt>
<totfact> 0.12886698E+01</totfact>
</mgrwt>
</event>
<event>
 4    1  0.2061941E-008  0.4494882E+03  0.7818608E-02  0.1027875E+00
          2   -1    0    0  501    0  0.00000000000E+00  0.00000000000E+00  0.22207240925E+04  0.22207240925E+04  0.25500000000E-02 0. -1.
         -2   -1    0    0    0  501 -0.00000000000E+00 -0.00000000000E+00 -0.34831074214E+03  0.34831074215E+03  0.25500000000E-02 0.  1.
    8880022    1    1    2    0    0 -0.23178553217E+03 -0.35344515016E+03  0.20402931510E+04  0.20892189454E+04  0.15294330000E+03 0.  0.
    8880022    1    1    2    0    0  0.23178553217E+03  0.35344515016E+03 -0.16787980059E+03  0.47981588923E+03  0.15294330000E+03 0.  0.
<mgrwt>
<rscale>  0 0.44948822E+03</rscale>
<asrwt>0</asrwt>
<pdfrwt beam="1">  1        2 0.34164986E+00 0.44948822E+03</pdfrwt>
<pdfrwt beam="2">  1       -2 0.53586268E-01 0.44948822E+03</pdfrwt>
<totfact> 0.18164248E+01</totfact>
</mgrwt>
</event>
<event>
 4    1  0.2061941E-008  0.2670020E+03  0.7818608E-02  0.1103008E+00
         -2   -1    0    0    0  501 -0.00000000000E+00  0.00000000000E+00  0.18404815366E+03  0.18404815368E+03  0.25500000000E-02 0.  1.
          2   -1    0    0  501    0  0.00000000000E+00 -0.00000000000E+00 -0.31499220131E+04  0.31499220131E+04  0.25500000000E-02 0. -1.
    8880022    1    1    2    0    0 -0.20721835860E+03 -0.70419821941E+02 -0.30440668371E+04  0.30557540741E+04  0.15294330000E+03 0.  0.
    8880022    1    1    2    0    0  0.20721835860E+03  0.70419821941E+02  0.78192977674E+02  0.27821609269E+03  0.15294330000E+03 0.  1.
<mgrwt>
<rscale>  0 0.26700197E+03</rscale>
<asrwt>0</asrwt>
<pdfrwt beam="1">  1        2 0.48460335E+00 0.26700197E+03</pdfrwt>
<pdfrwt beam="2">  1       -2 0.28315103E-01 0.26700197E+03</pdfrwt>
<totfact> 0.19481761E+01</totfact>
</mgrwt>
</event>
<event>
 4    1  0.2061941E-008  0.1528582E+04  0.7818608E-02  0.8865666E-01
          2   -1    0    0  501    0  0.00000000000E+00  0.00000000000E+00  0.36224708664E+04  0.36224708664E+04  0.25500000000E-02 0. -1.
         -2   -1    0    0    0  501 -0.00000000000E+00 -0.00000000000E+00 -0.74511463793E+03  0.74511463794E+03  0.25500000000E-02 0.  1.
    8880022    1    1    2    0    0 -0.14399348941E+04 -0.48965086434E+03  0.22390792510E+04  0.27110953531E+04  0.15294330000E+03 0.  0.
    8880022    1    1    2    0    0  0.14399348941E+04  0.48965086434E+03  0.63827697745E+03  0.16564901512E+04  0.15294330000E+03 0.  0.
<mgrwt>
<rscale>  0 0.15285817E+04</rscale>
<asrwt>0</asrwt>
<pdfrwt beam="1">  1        2 0.55730321E+00 0.15285817E+04</pdfrwt>
<pdfrwt beam="2">  1       -2 0.11463302E+00 0.15285817E+04</pdfrwt>
<totfact> 0.37840060E-01</totfact>
</mgrwt>
</event>
<event>
 4    1  0.2061941E-008  0.7479461E+03  0.7818608E-02  0.9638578E-01
         -2   -1    0    0    0  501 -0.00000000000E+00  0.00000000000E+00  0.18787528316E+03  0.18787528318E+03  0.25500000000E-02 0.  1.
          2   -1    0    0  501    0  0.00000000000E+00 -0.00000000000E+00 -0.33189279465E+04  0.33189279465E+04  0.25500000000E-02 0. -1.
    8880022    1    1    2    0    0  0.68355014894E+03 -0.26228010385E+03 -0.10032516347E+04  0.12513741066E+04  0.15294330000E+03 0.  0.
    8880022    1    1    2    0    0 -0.68355014894E+03  0.26228010385E+03 -0.21278010286E+04  0.22554291231E+04  0.15294330000E+03 0. -1.
<mgrwt>
<rscale>  0 0.74794606E+03</rscale>
<asrwt>0</asrwt>
<pdfrwt beam="1">  1        2 0.51060426E+00 0.74794606E+03</pdfrwt>
<pdfrwt beam="2">  1       -2 0.28903892E-01 0.74794606E+03</pdfrwt>
<totfact> 0.12746405E+01</totfact>
</mgrwt>
</event>
<event>
 4    1  0.2061941E-008  0.2053238E+03  0.7818608E-02  0.1145323E+00
         -2   -1    0    0    0  501 -0.00000000000E+00  0.00000000000E+00  0.42049706659E+03  0.42049706660E+03  0.25500000000E-02 0.  1.
          2   -1    0    0  501    0  0.00000000000E+00 -0.00000000000E+00 -0.71679266850E+03  0.71679266851E+03  0.25500000000E-02 0. -1.
    8880022    1    1    2    0    0  0.12787645432E+03  0.49130590203E+02  0.37923186636E+03  0.43124779877E+03  0.15294330000E+03 0.  0.
    8880022    1    1    2    0    0 -0.12787645432E+03 -0.49130590203E+02 -0.67552746827E+03  0.70604193634E+03  0.15294330000E+03 0. -1.
<mgrwt>
<rscale>  0 0.20532378E+03</rscale>
<asrwt>0</asrwt>
<pdfrwt beam="1">  1        2 0.11027579E+00 0.20532378E+03</pdfrwt>
<pdfrwt beam="2">  1       -2 0.64691857E-01 0.20532378E+03</pdfrwt>
<totfact> 0.94296117E+01</totfact>
</mgrwt>
</event>
<event>
 4    1  0.2061941E-008  0.3646599E+03  0.7818608E-02  0.1056754E+00
          2   -1    0    0  501    0  0.00000000000E+00  0.00000000000E+00  0.24534045560E+04  0.24534045560E+04  0.25500000000E-02 0. -1.
         -2   -1    0    0    0  501 -0.00000000000E+00 -0.00000000000E+00 -0.62350099781E+03  0.62350099782E+03  0.25500000000E-02 0.  1.
    8880022    1    1    2    0    0 -0.23461736773E+03 -0.23353772895E+03 -0.55511210308E+03  0.66417338104E+03  0.15294330000E+03 0.  0.
    8880022    1    1    2    0    0  0.23461736773E+03  0.23353772895E+03  0.23850156612E+04  0.24127321727E+04  0.15294330000E+03 0.  0.
<mgrwt>
<rscale>  0 0.36465989E+03</rscale>
<asrwt>0</asrwt>
<pdfrwt beam="1">  1        2 0.37744685E+00 0.36465989E+03</pdfrwt>
<pdfrwt beam="2">  1       -2 0.95923231E-01 0.36465989E+03</pdfrwt>
<totfact> 0.39208047E+00</totfact>
</mgrwt>
</event>
<event>
 4    1  0.2061941E-008  0.2393878E+03  0.7818608E-02  0.1120201E+00
         -2   -1    0    0    0  501 -0.00000000000E+00  0.00000000000E+00  0.33585386090E+03  0.33585386091E+03  0.25500000000E-02 0.  1.
          2   -1    0    0  501    0  0.00000000000E+00 -0.00000000000E+00 -0.14389919181E+04  0.14389919181E+04  0.25500000000E-02 0. -1.
    8880022    1    1    2    0    0  0.14611122830E+03  0.11209987671E+03 -0.13847189488E+04  0.14052590842E+04  0.15294330000E+03 0.  0.
    8880022    1    1    2    0    0 -0.14611122830E+03 -0.11209987671E+03  0.28158089168E+03  0.36958669479E+03  0.15294330000E+03 0.  1.
<mgrwt>
<rscale>  0 0.23938782E+03</rscale>
<asrwt>0</asrwt>
<pdfrwt beam="1">  1        2 0.22138337E+00 0.23938782E+03</pdfrwt>
<pdfrwt beam="2">  1       -2 0.51669825E-01 0.23938782E+03</pdfrwt>
<totfact> 0.54242054E+01</totfact>
</mgrwt>
</event>
<event>
 4    1  0.2061941E-008  0.5287182E+03  0.7818608E-02  0.1006543E+00
         -2   -1    0    0    0  501 -0.00000000000E+00  0.00000000000E+00  0.59760287561E+03  0.59760287562E+03  0.25500000000E-02 0.  1.
          2   -1    0    0  501    0  0.00000000000E+00 -0.00000000000E+00 -0.26338935607E+04  0.26338935607E+04  0.25500000000E-02 0. -1.
    8880022    1    1    2    0    0 -0.49449984640E+03 -0.10780175144E+03  0.44711841396E+03  0.69242894569E+03  0.15294330000E+03 0.  0.
    8880022    1    1    2    0    0  0.49449984640E+03  0.10780175144E+03 -0.24834090991E+04  0.25390674907E+04  0.15294330000E+03 0.  0.
<mgrwt>
<rscale>  0 0.52871823E+03</rscale>
<asrwt>0</asrwt>
<pdfrwt beam="1">  1        2 0.40521439E+00 0.52871823E+03</pdfrwt>
<pdfrwt beam="2">  1       -2 0.91938906E-01 0.52871823E+03</pdfrwt>
<totfact> 0.32448713E+00</totfact>
</mgrwt>
</event>
<event>
 4    1  0.2061941E-008  0.1618824E+04  0.7818608E-02  0.8809067E-01
          2   -1    0    0  501    0  0.00000000000E+00  0.00000000000E+00  0.27415459107E+04  0.27415459107E+04  0.25500000000E-02 0. -1.
         -2   -1    0    0    0  501 -0.00000000000E+00 -0.00000000000E+00 -0.10063244408E+04  0.10063244408E+04  0.25500000000E-02 0.  1.
    8880022    1    1    2    0    0 -0.71221504359E+03 -0.14456655043E+04  0.12871662510E+04  0.20681846217E+04  0.15294330000E+03 0.  0.
    8880022    1    1    2    0    0  0.71221504359E+03  0.14456655043E+04  0.44805521890E+03  0.16796857298E+04  0.15294330000E+03 0.  0.
<mgrwt>
<rscale>  0 0.16188239E+04</rscale>
<asrwt>0</asrwt>
<pdfrwt beam="1">  1        2 0.42177629E+00 0.16188239E+04</pdfrwt>
<pdfrwt beam="2">  1       -2 0.15481915E+00 0.16188239E+04</pdfrwt>
<totfact> 0.64486047E-01</totfact>
</mgrwt>
</event>
<event>
 4    1  0.2061941E-008  0.1026394E+04  0.7818608E-02  0.9280061E-01
          2   -1    0    0  501    0  0.00000000000E+00  0.00000000000E+00  0.12230308070E+04  0.12230308070E+04  0.25500000000E-02 0. -1.
         -2   -1    0    0    0  501 -0.00000000000E+00 -0.00000000000E+00 -0.13901330794E+04  0.13901330794E+04  0.25500000000E-02 0.  1.
    8880022    1    1    2    0    0 -0.39572612382E+03 -0.93460840090E+03  0.72226966818E+03  0.12550526502E+04  0.15294330000E+03 0.  0.
    8880022    1    1    2    0    0  0.39572612382E+03  0.93460840090E+03 -0.88937194065E+03  0.13581112362E+04  0.15294330000E+03 0.  0.
<mgrwt>
<rscale>  0 0.10263935E+04</rscale>
<asrwt>0</asrwt>
<pdfrwt beam="1">  1        2 0.18815859E+00 0.10263935E+04</pdfrwt>
<pdfrwt beam="2">  1       -2 0.21386663E+00 0.10263935E+04</pdfrwt>
<totfact> 0.19647278E+00</totfact>
</mgrwt>
</event>
<event>
 4    1  0.2061941E-008  0.4266230E+03  0.7818608E-02  0.1034932E+00
          2   -1    0    0  501    0  0.00000000000E+00  0.00000000000E+00  0.19812838865E+04  0.19812838865E+04  0.25500000000E-02 0. -1.
         -2   -1    0    0    0  501 -0.00000000000E+00 -0.00000000000E+00 -0.60339609789E+03  0.60339609790E+03  0.25500000000E-02 0.  1.
    8880022    1    1    2    0    0  0.57448402392E+02  0.39410048563E+03 -0.50096113874E+03  0.65800397206E+03  0.15294330000E+03 0.  0.
    8880022    1    1    2    0    0 -0.57448402392E+02 -0.39410048563E+03  0.18788489274E+04  0.19266760123E+04  0.15294330000E+03 0.  0.
<mgrwt>
<rscale>  0 0.42662298E+03</rscale>
<asrwt>0</asrwt>
<pdfrwt beam="1">  1        2 0.30481290E+00 0.42662298E+03</pdfrwt>
<pdfrwt beam="2">  1       -2 0.92830170E-01 0.42662298E+03</pdfrwt>
<totfact> 0.74582006E+00</totfact>
</mgrwt>
</event>
<event>
 4    1  0.2061941E-008  0.2745559E+03  0.7818608E-02  0.1098700E+00
          2   -1    0    0  501    0  0.00000000000E+00  0.00000000000E+00  0.19332812478E+03  0.19332812479E+03  0.25500000000E-02 0. -1.
         -2   -1    0    0    0  501 -0.00000000000E+00 -0.00000000000E+00 -0.11184623896E+04  0.11184623896E+04  0.25500000000E-02 0.  1.
    8880022    1    1    2    0    0  0.17254281677E+03  0.14905795110E+03 -0.99193015986E+03  0.10292261129E+04  0.15294330000E+03 0.  1.
    8880022    1    1    2    0    0 -0.17254281677E+03 -0.14905795110E+03  0.66795895014E+02  0.28256440153E+03  0.15294330000E+03 0.  0.
<mgrwt>
<rscale>  0 0.27455591E+03</rscale>
<asrwt>0</asrwt>
<pdfrwt beam="1">  1        2 0.29742789E-01 0.27455591E+03</pdfrwt>
<pdfrwt beam="2">  1       -2 0.17207113E+00 0.27455591E+03</pdfrwt>
<totfact> 0.39231414E+01</totfact>
</mgrwt>
</event>
<event>
 4    1  0.2061941E-008  0.6423023E+03  0.7818608E-02  0.9821332E-01
          2   -1    0    0  501    0  0.00000000000E+00  0.00000000000E+00  0.17063704442E+04  0.17063704442E+04  0.25500000000E-02 0. -1.
         -2   -1    0    0    0  501 -0.00000000000E+00 -0.00000000000E+00 -0.15937635630E+04  0.15937635630E+04  0.25500000000E-02 0.  1.
    8880022    1    1    2    0    0 -0.62289810684E+03  0.34036439051E+02  0.15760692239E+04  0.17019243174E+04  0.15294330000E+03 0. -1.
    8880022    1    1    2    0    0  0.62289810684E+03 -0.34036439051E+02 -0.14634623428E+04  0.15982096898E+04  0.15294330000E+03 0.  0.
<mgrwt>
<rscale>  0 0.64230225E+03</rscale>
<asrwt>0</asrwt>
<pdfrwt beam="1">  1        2 0.26251853E+00 0.64230225E+03</pdfrwt>
<pdfrwt beam="2">  1       -2 0.24519439E+00 0.64230225E+03</pdfrwt>
<totfact> 0.71723648E-01</totfact>
</mgrwt>
</event>
<event>
 4    1  0.2061941E-008  0.6256928E+03  0.7818608E-02  0.9853490E-01
         -2   -1    0    0    0  501 -0.00000000000E+00  0.00000000000E+00  0.30198973720E+03  0.30198973721E+03  0.25500000000E-02 0.  1.
          2   -1    0    0  501    0  0.00000000000E+00 -0.00000000000E+00 -0.18709778869E+04  0.18709778869E+04  0.25500000000E-02 0. -1.
    8880022    1    1    2    0    0 -0.22890681552E+03  0.56187325838E+03 -0.18238754117E+03  0.65173365485E+03  0.15294330000E+03 0.  0.
    8880022    1    1    2    0    0  0.22890681552E+03 -0.56187325838E+03 -0.13866006086E+04  0.15212339693E+04  0.15294330000E+03 0.  0.
<mgrwt>
<rscale>  0 0.62569285E+03</rscale>
<asrwt>0</asrwt>
<pdfrwt beam="1">  1        2 0.28784274E+00 0.62569285E+03</pdfrwt>
<pdfrwt beam="2">  1       -2 0.46459961E-01 0.62569285E+03</pdfrwt>
<totfact> 0.36228737E+01</totfact>
</mgrwt>
</event>
<event>
 4    1  0.2061941E-008  0.1919938E+03  0.7818608E-02  0.1156675E+00
          2   -1    0    0  501    0  0.00000000000E+00  0.00000000000E+00  0.27105584300E+03  0.27105584301E+03  0.25500000000E-02 0. -1.
         -2   -1    0    0    0  501 -0.00000000000E+00 -0.00000000000E+00 -0.44886693253E+03  0.44886693254E+03  0.25500000000E-02 0.  1.
    8880022    1    1    2    0    0 -0.49680408612E+02 -0.10488964492E+03  0.21162039546E+03  0.28573558651E+03  0.15294330000E+03 0. -1.
    8880022    1    1    2    0    0  0.49680408612E+02  0.10488964492E+03 -0.38943148499E+03  0.43418718904E+03  0.15294330000E+03 0.  0.
<mgrwt>
<rscale>  0 0.19199384E+03</rscale>
<asrwt>0</asrwt>
<pdfrwt beam="1">  1        2 0.41700899E-01 0.19199384E+03</pdfrwt>
<pdfrwt beam="2">  1       -2 0.69056451E-01 0.19199384E+03</pdfrwt>
<totfact> 0.24226535E+02</totfact>
</mgrwt>
</event>
<event>
 4    1  0.2061941E-008  0.9467744E+03  0.7818608E-02  0.9368929E-01
         -2   -1    0    0    0  501 -0.00000000000E+00  0.00000000000E+00  0.91064258226E+03  0.91064258226E+03  0.25500000000E-02 0.  1.
          2   -1    0    0  501    0  0.00000000000E+00 -0.00000000000E+00 -0.14187377026E+04  0.14187377026E+04  0.25500000000E-02 0. -1.
    8880022    1    1    2    0    0  0.13943315735E+03  0.92387686367E+03 -0.89851831631E+03  0.13052650621E+04  0.15294330000E+03 0.  0.
    8880022    1    1    2    0    0 -0.13943315735E+03 -0.92387686367E+03  0.39042319595E+03  0.10241152228E+04  0.15294330000E+03 0.  0.
<mgrwt>
<rscale>  0 0.94677438E+03</rscale>
<asrwt>0</asrwt>
<pdfrwt beam="1">  1        2 0.21826734E+00 0.94677438E+03</pdfrwt>
<pdfrwt beam="2">  1       -2 0.14009886E+00 0.94677438E+03</pdfrwt>
<totfact> 0.50535182E+00</totfact>
</mgrwt>
</event>
<event>
 4    1  0.2061941E-008  0.1346510E+04  0.7818608E-02  0.8993474E-01
         -2   -1    0    0    0  501 -0.00000000000E+00  0.00000000000E+00  0.14669018112E+04  0.14669018112E+04  0.25500000000E-02 0.  1.
          2   -1    0    0  501    0  0.00000000000E+00 -0.00000000000E+00 -0.19018279047E+04  0.19018279047E+04  0.25500000000E-02 0. -1.
    8880022    1    1    2    0    0 -0.12436719961E+03 -0.13320027127E+04 -0.12140878345E+04  0.18130359483E+04  0.15294330000E+03 0.  0.
    8880022    1    1    2    0    0  0.12436719961E+03  0.13320027127E+04  0.77916174103E+03  0.15556937676E+04  0.15294330000E+03 0.  0.
<mgrwt>
<rscale>  0 0.13465103E+04</rscale>
<asrwt>0</asrwt>
<pdfrwt beam="1">  1        2 0.29258891E+00 0.13465103E+04</pdfrwt>
<pdfrwt beam="2">  1       -2 0.22567720E+00 0.13465103E+04</pdfrwt>
<totfact> 0.65782719E-01</totfact>
</mgrwt>
</event>
<event>
 4    1  0.2061941E-008  0.4395139E+03  0.7818608E-02  0.1030896E+00
          2   -1    0    0  501    0  0.00000000000E+00  0.00000000000E+00  0.27024938279E+04  0.27024938279E+04  0.25500000000E-02 0. -1.
         -2   -1    0    0    0  501 -0.00000000000E+00 -0.00000000000E+00 -0.69617096134E+03  0.69617096135E+03  0.25500000000E-02 0.  1.
    8880022    1    1    2    0    0 -0.36327189903E+03 -0.19445903770E+03 -0.60656927544E+03  0.74906523674E+03  0.15294330000E+03 0.  0.
    8880022    1    1    2    0    0  0.36327189903E+03  0.19445903770E+03  0.26128921420E+04  0.26495995525E+04  0.15294330000E+03 0.  0.
<mgrwt>
<rscale>  0 0.43951387E+03</rscale>
<asrwt>0</asrwt>
<pdfrwt beam="1">  1        2 0.41576828E+00 0.43951387E+03</pdfrwt>
<pdfrwt beam="2">  1       -2 0.10710323E+00 0.43951387E+03</pdfrwt>
<totfact> 0.21306358E+00</totfact>
</mgrwt>
</event>
<event>
 4    1  0.2061941E-008  0.1213545E+04  0.7818608E-02  0.9101082E-01
          2   -1    0    0  501    0  0.00000000000E+00  0.00000000000E+00  0.18813799725E+04  0.18813799725E+04  0.25500000000E-02 0. -1.
         -2   -1    0    0    0  501 -0.00000000000E+00 -0.00000000000E+00 -0.11228808579E+04  0.11228808579E+04  0.25500000000E-02 0.  1.
    8880022    1    1    2    0    0 -0.11428585656E+04  0.37838426852E+03  0.12059527620E+04  0.17108518559E+04  0.15294330000E+03 0.  0.
    8880022    1    1    2    0    0  0.11428585656E+04 -0.37838426852E+03 -0.44745364736E+03  0.12934089745E+04  0.15294330000E+03 0.  0.
<mgrwt>
<rscale>  0 0.12135452E+04</rscale>
<asrwt>0</asrwt>
<pdfrwt beam="1">  1        2 0.28944307E+00 0.12135452E+04</pdfrwt>
<pdfrwt beam="2">  1       -2 0.17275090E+00 0.12135452E+04</pdfrwt>
<totfact> 0.15368977E+00</totfact>
</mgrwt>
</event>
<event>
 4    1  0.2061941E-008  0.7524000E+03  0.7818608E-02  0.9631593E-01
          2   -1    0    0  501    0  0.00000000000E+00  0.00000000000E+00  0.14829164589E+04  0.14829164589E+04  0.25500000000E-02 0. -1.
         -2   -1    0    0    0  501 -0.00000000000E+00 -0.00000000000E+00 -0.16934693744E+04  0.16934693744E+04  0.25500000000E-02 0.  1.
    8880022    1    1    2    0    0  0.61524119311E+03 -0.40520658035E+03  0.12924905348E+04  0.14955392118E+04  0.15294330000E+03 0.  0.
    8880022    1    1    2    0    0 -0.61524119311E+03  0.40520658035E+03 -0.15030434503E+04  0.16808466215E+04  0.15294330000E+03 0.  0.
<mgrwt>
<rscale>  0 0.75239999E+03</rscale>
<asrwt>0</asrwt>
<pdfrwt beam="1">  1        2 0.22814099E+00 0.75239999E+03</pdfrwt>
<pdfrwt beam="2">  1       -2 0.26053375E+00 0.75239999E+03</pdfrwt>
<totfact> 0.75032527E-01</totfact>
</mgrwt>
</event>
<event>
 4    1  0.2061941E-008  0.1513639E+04  0.7818608E-02  0.8875434E-01
          2   -1    0    0  501    0  0.00000000000E+00  0.00000000000E+00  0.96617190504E+03  0.96617190504E+03  0.25500000000E-02 0. -1.
         -2   -1    0    0    0  501 -0.00000000000E+00 -0.00000000000E+00 -0.25775325600E+04  0.25775325600E+04  0.25500000000E-02 0.  1.
    8880022    1    1    2    0    0 -0.14833741995E+04  0.25944346101E+03 -0.13068494050E+04  0.19997392194E+04  0.15294330000E+03 0.  0.
    8880022    1    1    2    0    0  0.14833741995E+04 -0.25944346101E+03 -0.30451124989E+03  0.15439652456E+04  0.15294330000E+03 0.  0.
<mgrwt>
<rscale>  0 0.15136385E+04</rscale>
<asrwt>0</asrwt>
<pdfrwt beam="1">  1        2 0.14864183E+00 0.15136385E+04</pdfrwt>
<pdfrwt beam="2">  1       -2 0.39654347E+00 0.15136385E+04</pdfrwt>
<totfact> 0.19659543E-01</totfact>
</mgrwt>
</event>
<event>
 4    1  0.2061941E-008  0.4422034E+03  0.7818608E-02  0.1030073E+00
         -2   -1    0    0    0  501 -0.00000000000E+00  0.00000000000E+00  0.32360102402E+03  0.32360102403E+03  0.25500000000E-02 0.  1.
          2   -1    0    0  501    0  0.00000000000E+00 -0.00000000000E+00 -0.31541959900E+04  0.31541959900E+04  0.25500000000E-02 0. -1.
    8880022    1    1    2    0    0  0.83205342633E+02 -0.40648381299E+03 -0.29787809560E+04  0.30114248880E+04  0.15294330000E+03 0.  0.
    8880022    1    1    2    0    0 -0.83205342633E+02  0.40648381299E+03  0.14818599004E+03  0.46637212601E+03  0.15294330000E+03 0.  0.
<mgrwt>
<rscale>  0 0.44220343E+03</rscale>
<asrwt>0</asrwt>
<pdfrwt beam="1">  1        2 0.48526090E+00 0.44220343E+03</pdfrwt>
<pdfrwt beam="2">  1       -2 0.49784775E-01 0.44220343E+03</pdfrwt>
<totfact> 0.61420337E+00</totfact>
</mgrwt>
</event>
<event>
 4    1  0.2061941E-008  0.1704830E+04  0.7818608E-02  0.8758615E-01
         -2   -1    0    0    0  501 -0.00000000000E+00  0.00000000000E+00  0.32789411385E+04  0.32789411385E+04  0.25500000000E-02 0.  1.
          2   -1    0    0  501    0  0.00000000000E+00 -0.00000000000E+00 -0.19008456044E+04  0.19008456044E+04  0.25500000000E-02 0. -1.
    8880022    1    1    2    0    0 -0.78064736136E+03  0.15078602493E+04  0.25810577714E+04  0.30932674806E+04  0.15294330000E+03 0.  0.
    8880022    1    1    2    0    0  0.78064736136E+03 -0.15078602493E+04 -0.12029622373E+04  0.20865192622E+04  0.15294330000E+03 0.  0.
<mgrwt>
<rscale>  0 0.17048298E+04</rscale>
<asrwt>0</asrwt>
<pdfrwt beam="1">  1        2 0.29243779E+00 0.17048298E+04</pdfrwt>
<pdfrwt beam="2">  1       -2 0.50445248E+00 0.17048298E+04</pdfrwt>
<totfact> 0.10640088E-02</totfact>
</mgrwt>
</event>
<event>
 4    1  0.2061941E-008  0.1484675E+04  0.7818608E-02  0.8894708E-01
          2   -1    0    0  501    0  0.00000000000E+00  0.00000000000E+00  0.26359157341E+04  0.26359157341E+04  0.25500000000E-02 0. -1.
         -2   -1    0    0    0  501 -0.00000000000E+00 -0.00000000000E+00 -0.14300047073E+04  0.14300047073E+04  0.25500000000E-02 0.  1.
    8880022    1    1    2    0    0 -0.12884338337E+03 -0.14711448274E+04  0.19129430713E+04  0.24214893284E+04  0.15294330000E+03 0.  0.
    8880022    1    1    2    0    0  0.12884338337E+03  0.14711448274E+04 -0.70703204446E+03  0.16444311130E+04  0.15294330000E+03 0.  0.
<mgrwt>
<rscale>  0 0.14846748E+04</rscale>
<asrwt>0</asrwt>
<pdfrwt beam="1">  1        2 0.40552549E+00 0.14846748E+04</pdfrwt>
<pdfrwt beam="2">  1       -2 0.22000073E+00 0.14846748E+04</pdfrwt>
<totfact> 0.26952925E-01</totfact>
</mgrwt>
</event>
<event>
 4    1  0.2061941E-008  0.4264370E+03  0.7818608E-02  0.1034991E+00
         -2   -1    0    0    0  501 -0.00000000000E+00  0.00000000000E+00  0.54521282002E+03  0.54521282003E+03  0.25500000000E-02 0.  1.
          2   -1    0    0  501    0  0.00000000000E+00 -0.00000000000E+00 -0.49413507501E+03  0.49413507501E+03  0.25500000000E-02 0. -1.
    8880022    1    1    2    0    0 -0.38154837909E+03 -0.11348002277E+03 -0.27072490421E+03  0.50511435134E+03  0.15294330000E+03 0.  0.
    8880022    1    1    2    0    0  0.38154837909E+03  0.11348002277E+03  0.32180264922E+03  0.53423354370E+03  0.15294330000E+03 0.  0.
<mgrwt>
<rscale>  0 0.42643702E+03</rscale>
<asrwt>0</asrwt>
<pdfrwt beam="1">  1        2 0.76020780E-01 0.42643702E+03</pdfrwt>
<pdfrwt beam="2">  1       -2 0.83878896E-01 0.42643702E+03</pdfrwt>
<totfact> 0.80306304E+01</totfact>
</mgrwt>
</event>
<event>
 4    1  0.2061941E-008  0.1266665E+04  0.7818608E-02  0.9056426E-01
         -2   -1    0    0    0  501 -0.00000000000E+00  0.00000000000E+00  0.13146513185E+04  0.13146513185E+04  0.25500000000E-02 0.  1.
          2   -1    0    0  501    0  0.00000000000E+00 -0.00000000000E+00 -0.31148181861E+04  0.31148181861E+04  0.25500000000E-02 0. -1.
    8880022    1    1    2    0    0  0.40753807707E+03 -0.11895215224E+04  0.82710537744E+03  0.15127933418E+04  0.15294330000E+03 0.  0.
    8880022    1    1    2    0    0 -0.40753807707E+03  0.11895215224E+04 -0.26272722451E+04  0.29166761629E+04  0.15294330000E+03 0.  0.
<mgrwt>
<rscale>  0 0.12666651E+04</rscale>
<asrwt>0</asrwt>
<pdfrwt beam="1">  1        2 0.47920280E+00 0.12666651E+04</pdfrwt>
<pdfrwt beam="2">  1       -2 0.20225405E+00 0.12666651E+04</pdfrwt>
<totfact> 0.18445055E-01</totfact>
</mgrwt>
</event>
<event>
 4    1  0.2061941E-008  0.4618448E+03  0.7818608E-02  0.1024248E+00
         -2   -1    0    0    0  501 -0.00000000000E+00  0.00000000000E+00  0.16833366934E+03  0.16833366936E+03  0.25500000000E-02 0.  1.
          2   -1    0    0  501    0  0.00000000000E+00 -0.00000000000E+00 -0.37659272651E+04  0.37659272651E+04  0.25500000000E-02 0. -1.
    8880022    1    1    2    0    0  0.37716475612E+03 -0.21830188355E+03 -0.34011664984E+04  0.34323802483E+04  0.15294330000E+03 0.  0.
    8880022    1    1    2    0    0 -0.37716475612E+03  0.21830188355E+03 -0.19642709737E+03  0.50188068623E+03  0.15294330000E+03 0.  0.
<mgrwt>
<rscale>  0 0.46184480E+03</rscale>
<asrwt>0</asrwt>
<pdfrwt beam="1">  1        2 0.57937336E+00 0.46184480E+03</pdfrwt>
<pdfrwt beam="2">  1       -2 0.25897490E-01 0.46184480E+03</pdfrwt>
<totfact> 0.82469474E+00</totfact>
</mgrwt>
</event>
<event>
 4    1  0.2061941E-008  0.1030264E+04  0.7818608E-02  0.9275960E-01
          2   -1    0    0  501    0  0.00000000000E+00  0.00000000000E+00  0.20594828581E+04  0.20594828581E+04  0.25500000000E-02 0. -1.
         -2   -1    0    0    0  501 -0.00000000000E+00 -0.00000000000E+00 -0.10058924153E+04  0.10058924153E+04  0.25500000000E-02 0.  1.
    8880022    1    1    2    0    0  0.26447172462E+03 -0.98392469368E+03 -0.54348319896E+03  0.11648256249E+04  0.15294330000E+03 0.  0.
    8880022    1    1    2    0    0 -0.26447172462E+03  0.98392469368E+03  0.15970736418E+04  0.19005496485E+04  0.15294330000E+03 0.  0.
<mgrwt>
<rscale>  0 0.10302644E+04</rscale>
<asrwt>0</asrwt>
<pdfrwt beam="1">  1        2 0.31684351E+00 0.10302644E+04</pdfrwt>
<pdfrwt beam="2">  1       -2 0.15475268E+00 0.10302644E+04</pdfrwt>
<totfact> 0.16968276E+00</totfact>
</mgrwt>
</event>
<event>
 4    1  0.2061941E-008  0.5188441E+03  0.7818608E-02  0.1008974E+00
         -2   -1    0    0    0  501 -0.00000000000E+00  0.00000000000E+00  0.10816571325E+04  0.10816571325E+04  0.25500000000E-02 0.  1.
          2   -1    0    0  501    0  0.00000000000E+00 -0.00000000000E+00 -0.35798954700E+03  0.35798954700E+03  0.25500000000E-02 0. -1.
    8880022    1    1    2    0    0  0.27608216006E+03  0.41180846593E+03 -0.35567024371E+02  0.52006176360E+03  0.15294330000E+03 0.  0.
    8880022    1    1    2    0    0 -0.27608216006E+03 -0.41180846593E+03  0.75923460987E+03  0.91958491591E+03  0.15294330000E+03 0.  0.
<mgrwt>
<rscale>  0 0.51884412E+03</rscale>
<asrwt>0</asrwt>
<pdfrwt beam="1">  1        2 0.55075314E-01 0.51884412E+03</pdfrwt>
<pdfrwt beam="2">  1       -2 0.16640879E+00 0.51884412E+03</pdfrwt>
<totfact> 0.21129200E+01</totfact>
</mgrwt>
</event>
<event>
 4    1  0.2061941E-008  0.7610100E+03  0.7818608E-02  0.9618234E-01
         -2   -1    0    0    0  501 -0.00000000000E+00  0.00000000000E+00  0.19692383227E+04  0.19692383227E+04  0.25500000000E-02 0.  1.
          2   -1    0    0  501    0  0.00000000000E+00 -0.00000000000E+00 -0.41064396091E+03  0.41064396092E+03  0.25500000000E-02 0. -1.
    8880022    1    1    2    0    0  0.71920679743E+03  0.19617890571E+03  0.14132449848E+04  0.16051160770E+04  0.15294330000E+03 0.  0.
    8880022    1    1    2    0    0 -0.71920679743E+03 -0.19617890571E+03  0.14534937696E+03  0.77476620661E+03  0.15294330000E+03 0.  0.
<mgrwt>
<rscale>  0 0.76101001E+03</rscale>
<asrwt>0</asrwt>
<pdfrwt beam="1">  1        2 0.63175994E-01 0.76101001E+03</pdfrwt>
<pdfrwt beam="2">  1       -2 0.30295974E+00 0.76101001E+03</pdfrwt>
<totfact> 0.24468278E+00</totfact>
</mgrwt>
</event>
<event>
 4    1  0.2061941E-008  0.1142363E+04  0.7818608E-02  0.9164858E-01
         -2   -1    0    0    0  501 -0.00000000000E+00  0.00000000000E+00  0.82511169320E+03  0.82511169321E+03  0.25500000000E-02 0.  1.
          2   -1    0    0  501    0  0.00000000000E+00 -0.00000000000E+00 -0.19839518386E+04  0.19839518386E+04  0.25500000000E-02 0. -1.
    8880022    1    1    2    0    0 -0.11014986386E+04  0.26134534232E+03 -0.12119365619E+04  0.16654676586E+04  0.15294330000E+03 0.  0.
    8880022    1    1    2    0    0  0.11014986386E+04 -0.26134534232E+03  0.53096416515E+02  0.11435958732E+04  0.15294330000E+03 0.  0.
<mgrwt>
<rscale>  0 0.11423626E+04</rscale>
<asrwt>0</asrwt>
<pdfrwt beam="1">  1        2 0.30522336E+00 0.11423626E+04</pdfrwt>
<pdfrwt beam="2">  1       -2 0.12694026E+00 0.11423626E+04</pdfrwt>
<totfact> 0.30878034E+00</totfact>
</mgrwt>
</event>
<event>
 4    1  0.2061941E-008  0.1079847E+04  0.7818608E-02  0.9225060E-01
          2   -1    0    0  501    0  0.00000000000E+00  0.00000000000E+00  0.91641027933E+03  0.91641027933E+03  0.25500000000E-02 0. -1.
         -2   -1    0    0    0  501 -0.00000000000E+00 -0.00000000000E+00 -0.23076753514E+04  0.23076753514E+04  0.25500000000E-02 0.  1.
    8880022    1    1    2    0    0  0.36060245498E+03  0.10063019670E+04  0.38408590203E+03  0.11461201562E+04  0.15294330000E+03 0.  0.
    8880022    1    1    2    0    0 -0.36060245498E+03 -0.10063019670E+04 -0.17753509741E+04  0.20779654746E+04  0.15294330000E+03 0.  0.
<mgrwt>
<rscale>  0 0.10798469E+04</rscale>
<asrwt>0</asrwt>
<pdfrwt beam="1">  1        2 0.14098620E+00 0.10798469E+04</pdfrwt>
<pdfrwt beam="2">  1       -2 0.35502698E+00 0.10798469E+04</pdfrwt>
<totfact> 0.41343649E-01</totfact>
</mgrwt>
</event>
<event>
 4    1  0.2061941E-008  0.1468831E+04  0.7818608E-02  0.8905448E-01
          2   -1    0    0  501    0  0.00000000000E+00  0.00000000000E+00  0.17900144783E+04  0.17900144783E+04  0.25500000000E-02 0. -1.
         -2   -1    0    0    0  501 -0.00000000000E+00 -0.00000000000E+00 -0.24886863629E+04  0.24886863629E+04  0.25500000000E-02 0.  1.
    8880022    1    1    2    0    0  0.11364727845E+04 -0.91788011498E+03 -0.18856471267E+04  0.23902156880E+04  0.15294330000E+03 0.  0.
    8880022    1    1    2    0    0 -0.11364727845E+04  0.91788011498E+03  0.11869752422E+04  0.18884851532E+04  0.15294330000E+03 0.  0.
<mgrwt>
<rscale>  0 0.14688315E+04</rscale>
<asrwt>0</asrwt>
<pdfrwt beam="1">  1        2 0.27538685E+00 0.14688315E+04</pdfrwt>
<pdfrwt beam="2">  1       -2 0.38287482E+00 0.14688315E+04</pdfrwt>
<totfact> 0.79188715E-02</totfact>
</mgrwt>
</event>
<event>
 4    1  0.2061941E-008  0.6374431E+03  0.7818608E-02  0.9830631E-01
         -2   -1    0    0    0  501 -0.00000000000E+00  0.00000000000E+00  0.13885328938E+04  0.13885328938E+04  0.25500000000E-02 0.  1.
          2   -1    0    0  501    0  0.00000000000E+00 -0.00000000000E+00 -0.16724429946E+04  0.16724429946E+04  0.25500000000E-02 0. -1.
    8880022    1    1    2    0    0  0.58261599655E+03 -0.20856824924E+03 -0.15321110210E+04  0.16594269938E+04  0.15294330000E+03 0.  0.
    8880022    1    1    2    0    0 -0.58261599655E+03  0.20856824924E+03  0.12482009202E+04  0.14015488947E+04  0.15294330000E+03 0.  0.
<mgrwt>
<rscale>  0 0.63744315E+03</rscale>
<asrwt>0</asrwt>
<pdfrwt beam="1">  1        2 0.25729892E+00 0.63744315E+03</pdfrwt>
<pdfrwt beam="2">  1       -2 0.21362044E+00 0.63744315E+03</pdfrwt>
<totfact> 0.11726533E+00</totfact>
</mgrwt>
</event>
<event>
 4    1  0.2061941E-008  0.4868855E+03  0.7818608E-02  0.1017260E+00
          2   -1    0    0  501    0  0.00000000000E+00  0.00000000000E+00  0.29346443559E+03  0.29346443560E+03  0.25500000000E-02 0. -1.
         -2   -1    0    0    0  501 -0.00000000000E+00 -0.00000000000E+00 -0.13288911103E+04  0.13288911103E+04  0.25500000000E-02 0.  1.
    8880022    1    1    2    0    0 -0.16511735578E+03 -0.43174308111E+03 -0.10256769019E+04  0.11353724452E+04  0.15294330000E+03 0.  0.
    8880022    1    1    2    0    0  0.16511735578E+03  0.43174308111E+03 -0.97497728181E+01  0.48698310069E+03  0.15294330000E+03 0.  0.
<mgrwt>
<rscale>  0 0.48688549E+03</rscale>
<asrwt>0</asrwt>
<pdfrwt beam="1">  1        2 0.45148376E-01 0.48688549E+03</pdfrwt>
<pdfrwt beam="2">  1       -2 0.20444478E+00 0.48688549E+03</pdfrwt>
<totfact> 0.14678159E+01</totfact>
</mgrwt>
</event>
<event>
 4    1  0.2061941E-008  0.1043858E+04  0.7818608E-02  0.9261709E-01
         -2   -1    0    0    0  501 -0.00000000000E+00  0.00000000000E+00  0.14604381840E+04  0.14604381840E+04  0.25500000000E-02 0.  1.
          2   -1    0    0  501    0  0.00000000000E+00 -0.00000000000E+00 -0.10959971916E+04  0.10959971916E+04  0.25500000000E-02 0. -1.
    8880022    1    1    2    0    0 -0.98191679433E+03  0.31950946153E+03 -0.53999690185E+03  0.11752596283E+04  0.15294330000E+03 0.  0.
    8880022    1    1    2    0    0  0.98191679433E+03 -0.31950946153E+03  0.90443789426E+03  0.13811757472E+04  0.15294330000E+03 0.  0.
<mgrwt>
<rscale>  0 0.10438575E+04</rscale>
<asrwt>0</asrwt>
<pdfrwt beam="1">  1        2 0.16861495E+00 0.10438575E+04</pdfrwt>
<pdfrwt beam="2">  1       -2 0.22468280E+00 0.10438575E+04</pdfrwt>
<totfact> 0.20002673E+00</totfact>
</mgrwt>
</event>
<event>
 4    1  0.2061941E-008  0.9464403E+03  0.7818608E-02  0.9369321E-01
         -2   -1    0    0    0  501 -0.00000000000E+00  0.00000000000E+00  0.49683064841E+03  0.49683064842E+03  0.25500000000E-02 0.  1.
          2   -1    0    0  501    0  0.00000000000E+00 -0.00000000000E+00 -0.45064477405E+04  0.45064477405E+04  0.25500000000E-02 0. -1.
    8880022    1    1    2    0    0  0.76810709230E+03 -0.53138406343E+03 -0.39424454158E+04  0.40544574283E+04  0.15294330000E+03 0.  0.
    8880022    1    1    2    0    0 -0.76810709230E+03  0.53138406343E+03 -0.67171676217E+02  0.94882096057E+03  0.15294330000E+03 0.  0.
<mgrwt>
<rscale>  0 0.94644027E+03</rscale>
<asrwt>0</asrwt>
<pdfrwt beam="1">  1        2 0.69329962E+00 0.94644027E+03</pdfrwt>
<pdfrwt beam="2">  1       -2 0.76435487E-01 0.94644027E+03</pdfrwt>
<totfact> 0.20204198E-01</totfact>
</mgrwt>
</event>
<event>
 4    1  0.2061941E-008  0.3374697E+03  0.7818608E-02  0.1067879E+00
          2   -1    0    0  501    0  0.00000000000E+00  0.00000000000E+00  0.41389832961E+03  0.41389832962E+03  0.25500000000E-02 0. -1.
         -2   -1    0    0    0  501 -0.00000000000E+00 -0.00000000000E+00 -0.52039519402E+03  0.52039519403E+03  0.25500000000E-02 0.  1.
    8880022    1    1    2    0    0  0.12104645388E+03  0.27539409238E+03 -0.37393691858E+03  0.50370092535E+03  0.15294330000E+03 0.  0.
    8880022    1    1    2    0    0 -0.12104645388E+03 -0.27539409238E+03  0.26744005417E+03  0.43059259829E+03  0.15294330000E+03 0.  0.
<mgrwt>
<rscale>  0 0.33746971E+03</rscale>
<asrwt>0</asrwt>
<pdfrwt beam="1">  1        2 0.63676666E-01 0.33746971E+03</pdfrwt>
<pdfrwt beam="2">  1       -2 0.80060799E-01 0.33746971E+03</pdfrwt>
<totfact> 0.10966298E+02</totfact>
</mgrwt>
</event>
<event>
 4    1  0.2061941E-008  0.1741524E+04  0.7818608E-02  0.8738030E-01
         -2   -1    0    0    0  501 -0.00000000000E+00  0.00000000000E+00  0.25694539474E+04  0.25694539474E+04  0.25500000000E-02 0.  1.
          2   -1    0    0  501    0  0.00000000000E+00 -0.00000000000E+00 -0.21923014167E+04  0.21923014167E+04  0.25500000000E-02 0. -1.
    8880022    1    1    2    0    0  0.23767987609E+03  0.17184356819E+04 -0.14289920843E+04  0.22527589632E+04  0.15294330000E+03 0.  0.
    8880022    1    1    2    0    0 -0.23767987609E+03 -0.17184356819E+04  0.18061446150E+04  0.25089964009E+04  0.15294330000E+03 0.  0.
<mgrwt>
<rscale>  0 0.17415236E+04</rscale>
<asrwt>0</asrwt>
<pdfrwt beam="1">  1        2 0.33727714E+00 0.17415236E+04</pdfrwt>
<pdfrwt beam="2">  1       -2 0.39530061E+00 0.17415236E+04</pdfrwt>
<totfact> 0.37825628E-02</totfact>
</mgrwt>
</event>
<event>
 4    1  0.2061941E-008  0.2785690E+03  0.7818608E-02  0.1096473E+00
         -2   -1    0    0    0  501 -0.00000000000E+00  0.00000000000E+00  0.41712865065E+02  0.41712865143E+02  0.25500000000E-02 0.  1.
          2   -1    0    0  501    0  0.00000000000E+00 -0.00000000000E+00 -0.34556029847E+04  0.34556029848E+04  0.25500000000E-02 0. -1.
    8880022    1    1    2    0    0 -0.58986662998E+01  0.23275354630E+03 -0.28950568140E+04  0.29084282038E+04  0.15294330000E+03 0.  1.
    8880022    1    1    2    0    0  0.58986662998E+01 -0.23275354630E+03 -0.51883330570E+03  0.58888764607E+03  0.15294330000E+03 0.  0.
<mgrwt>
<rscale>  0 0.27856895E+03</rscale>
<asrwt>0</asrwt>
<pdfrwt beam="1">  1        2 0.53163100E+00 0.27856895E+03</pdfrwt>
<pdfrwt beam="2">  1       -2 0.64173666E-02 0.27856895E+03</pdfrwt>
<totfact> 0.14443460E+02</totfact>
</mgrwt>
</event>
<event>
 4    1  0.2061941E-008  0.8483295E+03  0.7818608E-02  0.9492582E-01
          2   -1    0    0  501    0  0.00000000000E+00  0.00000000000E+00  0.21895544942E+04  0.21895544942E+04  0.25500000000E-02 0. -1.
         -2   -1    0    0    0  501 -0.00000000000E+00 -0.00000000000E+00 -0.34353360972E+03  0.34353360973E+03  0.25500000000E-02 0.  1.
    8880022    1    1    2    0    0  0.48347943381E+03 -0.68008748865E+03  0.65965026535E+03  0.10746168995E+04  0.15294330000E+03 0.  0.
    8880022    1    1    2    0    0 -0.48347943381E+03  0.68008748865E+03  0.11863706191E+04  0.14584712044E+04  0.15294330000E+03 0.  0.
<mgrwt>
<rscale>  0 0.84832954E+03</rscale>
<asrwt>0</asrwt>
<pdfrwt beam="1">  1        2 0.33685454E+00 0.84832954E+03</pdfrwt>
<pdfrwt beam="2">  1       -2 0.52851325E-01 0.84832954E+03</pdfrwt>
<totfact> 0.18112083E+01</totfact>
</mgrwt>
</event>
<event>
 4    1  0.2061941E-008  0.9141030E+03  0.7818608E-02  0.9408122E-01
          2   -1    0    0  501    0  0.00000000000E+00  0.00000000000E+00  0.16772791945E+04  0.16772791945E+04  0.25500000000E-02 0. -1.
         -2   -1    0    0    0  501 -0.00000000000E+00 -0.00000000000E+00 -0.64630090713E+03  0.64630090713E+03  0.25500000000E-02 0.  1.
    8880022    1    1    2    0    0 -0.54352770478E+03  0.71886735785E+03 -0.40697774524E+02  0.91500852778E+03  0.15294330000E+03 0.  0.
    8880022    1    1    2    0    0  0.54352770478E+03 -0.71886735785E+03  0.10716760619E+04  0.14085715739E+04  0.15294330000E+03 0.  0.
<mgrwt>
<rscale>  0 0.91410300E+03</rscale>
<asrwt>0</asrwt>
<pdfrwt beam="1">  1        2 0.25804295E+00 0.91410300E+03</pdfrwt>
<pdfrwt beam="2">  1       -2 0.99430910E-01 0.91410300E+03</pdfrwt>
<totfact> 0.85091493E+00</totfact>
</mgrwt>
</event>
<event>
 4    1  0.2061941E-008  0.6225117E+03  0.7818608E-02  0.9859772E-01
          2   -1    0    0  501    0  0.00000000000E+00  0.00000000000E+00  0.13180854737E+04  0.13180854737E+04  0.25500000000E-02 0. -1.
         -2   -1    0    0    0  501 -0.00000000000E+00 -0.00000000000E+00 -0.51806109198E+03  0.51806109199E+03  0.25500000000E-02 0.  1.
    8880022    1    1    2    0    0  0.26677911708E+03 -0.54125595982E+03 -0.20375208413E+03  0.65500814969E+03  0.15294330000E+03 0.  0.
    8880022    1    1    2    0    0 -0.26677911708E+03  0.54125595982E+03  0.10037764659E+04  0.11811384160E+04  0.15294330000E+03 0.  0.
<mgrwt>
<rscale>  0 0.62251166E+03</rscale>
<asrwt>0</asrwt>
<pdfrwt beam="1">  1        2 0.20278238E+00 0.62251166E+03</pdfrwt>
<pdfrwt beam="2">  1       -2 0.79701706E-01 0.62251166E+03</pdfrwt>
<totfact> 0.23325665E+01</totfact>
</mgrwt>
</event>
<event>
 4    1  0.2061941E-008  0.1152267E+04  0.7818608E-02  0.9155695E-01
         -2   -1    0    0    0  501 -0.00000000000E+00  0.00000000000E+00  0.20504312328E+04  0.20504312328E+04  0.25500000000E-02 0.  1.
          2   -1    0    0  501    0  0.00000000000E+00 -0.00000000000E+00 -0.91663740742E+03  0.91663740742E+03  0.25500000000E-02 0. -1.
    8880022    1    1    2    0    0  0.11085680150E+04  0.27459800660E+03  0.13707199427E+04  0.17906959327E+04  0.15294330000E+03 0.  0.
    8880022    1    1    2    0    0 -0.11085680150E+04 -0.27459800660E+03 -0.23692611725E+03  0.11763727076E+04  0.15294330000E+03 0.  0.
<mgrwt>
<rscale>  0 0.11522668E+04</rscale>
<asrwt>0</asrwt>
<pdfrwt beam="1">  1        2 0.14102114E+00 0.11522668E+04</pdfrwt>
<pdfrwt beam="2">  1       -2 0.31545096E+00 0.11522668E+04</pdfrwt>
<totfact> 0.71980221E-01</totfact>
</mgrwt>
</event>
<event>
 4    1  0.2061941E-008  0.4772415E+03  0.7818608E-02  0.1019896E+00
         -2   -1    0    0    0  501 -0.00000000000E+00  0.00000000000E+00  0.47779611141E+03  0.47779611142E+03  0.25500000000E-02 0.  1.
          2   -1    0    0  501    0  0.00000000000E+00 -0.00000000000E+00 -0.10562648088E+04  0.10562648088E+04  0.25500000000E-02 0. -1.
    8880022    1    1    2    0    0  0.15551406070E+03  0.42447989577E+03  0.27894032803E+03  0.55278129907E+03  0.15294330000E+03 0.  0.
    8880022    1    1    2    0    0 -0.15551406070E+03 -0.42447989577E+03 -0.85740902541E+03  0.98127962114E+03  0.15294330000E+03 0.  0.
<mgrwt>
<rscale>  0 0.47724151E+03</rscale>
<asrwt>0</asrwt>
<pdfrwt beam="1">  1        2 0.16250228E+00 0.47724151E+03</pdfrwt>
<pdfrwt beam="2">  1       -2 0.73507094E-01 0.47724151E+03</pdfrwt>
<totfact> 0.40635600E+01</totfact>
</mgrwt>
</event>
<event>
 4    1  0.2061941E-008  0.7268121E+03  0.7818608E-02  0.9672448E-01
         -2   -1    0    0    0  501 -0.00000000000E+00  0.00000000000E+00  0.10305951323E+04  0.10305951323E+04  0.25500000000E-02 0.  1.
          2   -1    0    0  501    0  0.00000000000E+00 -0.00000000000E+00 -0.24814673341E+04  0.24814673341E+04  0.25500000000E-02 0. -1.
    8880022    1    1    2    0    0  0.16581823023E+03 -0.69091855751E+03 -0.22896246429E+04  0.24022149773E+04  0.15294330000E+03 0.  0.
    8880022    1    1    2    0    0 -0.16581823023E+03  0.69091855751E+03  0.83875244116E+03  0.11098474891E+04  0.15294330000E+03 0.  0.
<mgrwt>
<rscale>  0 0.72681207E+03</rscale>
<asrwt>0</asrwt>
<pdfrwt beam="1">  1        2 0.38176420E+00 0.72681207E+03</pdfrwt>
<pdfrwt beam="2">  1       -2 0.15855310E+00 0.72681207E+03</pdfrwt>
<totfact> 0.97455598E-01</totfact>
</mgrwt>
</event>
<event>
 4    1  0.2061941E-008  0.6610706E+03  0.7818608E-02  0.9786225E-01
         -2   -1    0    0    0  501 -0.00000000000E+00  0.00000000000E+00  0.61142444991E+03  0.61142444992E+03  0.25500000000E-02 0.  1.
          2   -1    0    0  501    0  0.00000000000E+00 -0.00000000000E+00 -0.13769710733E+04  0.13769710733E+04  0.25500000000E-02 0. -1.
    8880022    1    1    2    0    0 -0.62505888446E+03  0.15140716035E+03  0.30669217872E+03  0.72874857307E+03  0.15294330000E+03 0.  0.
    8880022    1    1    2    0    0  0.62505888446E+03 -0.15140716035E+03 -0.10722388021E+04  0.12596469501E+04  0.15294330000E+03 0.  0.
<mgrwt>
<rscale>  0 0.66107064E+03</rscale>
<asrwt>0</asrwt>
<pdfrwt beam="1">  1        2 0.21184170E+00 0.66107064E+03</pdfrwt>
<pdfrwt beam="2">  1       -2 0.94065300E-01 0.66107064E+03</pdfrwt>
<totfact> 0.14716534E+01</totfact>
</mgrwt>
</event>
<event>
 4    1  0.2061941E-008  0.5683548E+03  0.7818608E-02  0.9973326E-01
          2   -1    0    0  501    0  0.00000000000E+00  0.00000000000E+00  0.57593248074E+03  0.57593248074E+03  0.25500000000E-02 0. -1.
         -2   -1    0    0    0  501 -0.00000000000E+00 -0.00000000000E+00 -0.15654974147E+04  0.15654974147E+04  0.25500000000E-02 0.  1.
    8880022    1    1    2    0    0  0.54635035626E+03 -0.33717372127E+02 -0.13525087316E+04  0.14670743318E+04  0.15294330000E+03 0.  0.
    8880022    1    1    2    0    0 -0.54635035626E+03  0.33717372127E+02  0.36294379763E+03  0.67435556365E+03  0.15294330000E+03 0.  0.
<mgrwt>
<rscale>  0 0.56835484E+03</rscale>
<asrwt>0</asrwt>
<pdfrwt beam="1">  1        2 0.88604998E-01 0.56835484E+03</pdfrwt>
<pdfrwt beam="2">  1       -2 0.24084575E+00 0.56835484E+03</pdfrwt>
<totfact> 0.40322011E+00</totfact>
</mgrwt>
</event>
<event>
 4    1  0.2061941E-008  0.9383951E+03  0.7818608E-02  0.9378819E-01
          2   -1    0    0  501    0  0.00000000000E+00  0.00000000000E+00  0.16478878457E+04  0.16478878457E+04  0.25500000000E-02 0. -1.
         -2   -1    0    0    0  501 -0.00000000000E+00 -0.00000000000E+00 -0.57293184566E+03  0.57293184566E+03  0.25500000000E-02 0.  1.
    8880022    1    1    2    0    0 -0.92552092032E+03  0.24592470121E+02  0.24940771264E+03  0.97097354427E+03  0.15294330000E+03 0.  0.
    8880022    1    1    2    0    0  0.92552092032E+03 -0.24592470121E+02  0.82554828739E+03  0.12498461471E+04  0.15294330000E+03 0.  0.
<mgrwt>
<rscale>  0 0.93839513E+03</rscale>
<asrwt>0</asrwt>
<pdfrwt beam="1">  1        2 0.25352120E+00 0.93839513E+03</pdfrwt>
<pdfrwt beam="2">  1       -2 0.88143363E-01 0.93839513E+03</pdfrwt>
<totfact> 0.11673517E+01</totfact>
</mgrwt>
</event>
<event>
 4    1  0.2061941E-008  0.8204994E+03  0.7818608E-02  0.9530810E-01
          2   -1    0    0  501    0  0.00000000000E+00  0.00000000000E+00  0.27360703302E+04  0.27360703302E+04  0.25500000000E-02 0. -1.
         -2   -1    0    0    0  501 -0.00000000000E+00 -0.00000000000E+00 -0.95956369392E+03  0.95956369392E+03  0.25500000000E-02 0.  1.
    8880022    1    1    2    0    0 -0.36461520952E+03 -0.71894600165E+03  0.24816437157E+04  0.26137663991E+04  0.15294330000E+03 0.  0.
    8880022    1    1    2    0    0  0.36461520952E+03  0.71894600165E+03 -0.70513707942E+03  0.10818676250E+04  0.15294330000E+03 0.  0.
<mgrwt>
<rscale>  0 0.82049940E+03</rscale>
<asrwt>0</asrwt>
<pdfrwt beam="1">  1        2 0.42093390E+00 0.82049940E+03</pdfrwt>
<pdfrwt beam="2">  1       -2 0.14762518E+00 0.82049940E+03</pdfrwt>
<totfact> 0.82477271E-01</totfact>
</mgrwt>
</event>
<event>
 4    1  0.2061941E-008  0.6539870E+03  0.7818608E-02  0.9799327E-01
          2   -1    0    0  501    0  0.00000000000E+00  0.00000000000E+00  0.21175671369E+04  0.21175671369E+04  0.25500000000E-02 0. -1.
         -2   -1    0    0    0  501 -0.00000000000E+00 -0.00000000000E+00 -0.66777972824E+03  0.66777972824E+03  0.25500000000E-02 0.  1.
    8880022    1    1    2    0    0 -0.41357636522E+02  0.63450521609E+03 -0.43825136296E+03  0.78725042616E+03  0.15294330000E+03 0.  0.
    8880022    1    1    2    0    0  0.41357636522E+02 -0.63450521609E+03  0.18880387717E+04  0.19980964390E+04  0.15294330000E+03 0.  0.
<mgrwt>
<rscale>  0 0.65398698E+03</rscale>
<asrwt>0</asrwt>
<pdfrwt beam="1">  1        2 0.32577956E+00 0.65398698E+03</pdfrwt>
<pdfrwt beam="2">  1       -2 0.10273534E+00 0.65398698E+03</pdfrwt>
<totfact> 0.47053443E+00</totfact>
</mgrwt>
</event>
<event>
 4    1  0.2931767E-008  0.1072721E+04  0.7818608E-02  0.9232195E-01
          2   -1    0    0  501    0  0.00000000000E+00  0.00000000000E+00  0.31485613191E+04  0.31485613191E+04  0.25500000000E-02 0. -1.
         -2   -1    0    0    0  501 -0.00000000000E+00 -0.00000000000E+00 -0.14672127819E+04  0.14672127819E+04  0.25500000000E-02 0.  1.
    8880022    1    1    2    0    0 -0.20286926583E+03  0.10422012343E+04 -0.11592173491E+04  0.15794036429E+04  0.15294330000E+03 0.  0.
    8880022    1    1    2    0    0  0.20286926583E+03 -0.10422012343E+04  0.28405658862E+04  0.30363704581E+04  0.15294330000E+03 0.  0.
<mgrwt>
<rscale>  0 0.10727213E+04</rscale>
<asrwt>0</asrwt>
<pdfrwt beam="1">  1        2 0.48439405E+00 0.10727213E+04</pdfrwt>
<pdfrwt beam="2">  1       -2 0.22572505E+00 0.10727213E+04</pdfrwt>
<totfact> 0.12848136E-01</totfact>
</mgrwt>
</event>
<event>
 4    1  0.2061941E-008  0.5565629E+03  0.7818608E-02  0.9999862E-01
         -2   -1    0    0    0  501 -0.00000000000E+00  0.00000000000E+00  0.26526809563E+03  0.26526809564E+03  0.25500000000E-02 0.  1.
          2   -1    0    0  501    0  0.00000000000E+00 -0.00000000000E+00 -0.18870717280E+04  0.18870717280E+04  0.25500000000E-02 0. -1.
    8880022    1    1    2    0    0 -0.38426142645E+03 -0.37244290661E+03 -0.14753382971E+04  0.15768276083E+04  0.15294330000E+03 0.  0.
    8880022    1    1    2    0    0  0.38426142645E+03  0.37244290661E+03 -0.14646533532E+03  0.57551221534E+03  0.15294330000E+03 0.  0.
<mgrwt>
<rscale>  0 0.55656286E+03</rscale>
<asrwt>0</asrwt>
<pdfrwt beam="1">  1        2 0.29031872E+00 0.55656286E+03</pdfrwt>
<pdfrwt beam="2">  1       -2 0.40810477E-01 0.55656286E+03</pdfrwt>
<totfact> 0.46362234E+01</totfact>
</mgrwt>
</event>
<event>
 4    1  0.3967218E-008  0.1229347E+04  0.7818608E-02  0.9087550E-01
          2   -1    0    0  501    0  0.00000000000E+00  0.00000000000E+00  0.21532255901E+04  0.21532255901E+04  0.25500000000E-02 0. -1.
         -2   -1    0    0    0  501 -0.00000000000E+00 -0.00000000000E+00 -0.17892114967E+04  0.17892114967E+04  0.25500000000E-02 0.  1.
    8880022    1    1    2    0    0 -0.11460753182E+04  0.41762878824E+03  0.17186961878E+04  0.21131045120E+04  0.15294330000E+03 0.  0.
    8880022    1    1    2    0    0  0.11460753182E+04 -0.41762878824E+03 -0.13546820944E+04  0.18293325749E+04  0.15294330000E+03 0.  0.
<mgrwt>
<rscale>  0 0.12293470E+04</rscale>
<asrwt>0</asrwt>
<pdfrwt beam="1">  1        2 0.33126548E+00 0.12293470E+04</pdfrwt>
<pdfrwt beam="2">  1       -2 0.27526331E+00 0.12293470E+04</pdfrwt>
<totfact> 0.23989806E-01</totfact>
</mgrwt>
</event>
<event>
 4    1  0.2061941E-008  0.4925784E+03  0.7818608E-02  0.1015734E+00
          2   -1    0    0  501    0  0.00000000000E+00  0.00000000000E+00  0.33085161234E+04  0.33085161234E+04  0.25500000000E-02 0. -1.
         -2   -1    0    0    0  501 -0.00000000000E+00 -0.00000000000E+00 -0.19754761124E+03  0.19754761125E+03  0.25500000000E-02 0.  1.
    8880022    1    1    2    0    0 -0.46301088196E+03  0.69733562563E+02  0.29455486918E+04  0.29864511707E+04  0.15294330000E+03 0.  0.
    8880022    1    1    2    0    0  0.46301088196E+03 -0.69733562563E+02  0.16541982036E+03  0.51961256389E+03  0.15294330000E+03 0.  0.
<mgrwt>
<rscale>  0 0.49257842E+03</rscale>
<asrwt>0</asrwt>
<pdfrwt beam="1">  1        2 0.50900245E+00 0.49257842E+03</pdfrwt>
<pdfrwt beam="2">  1       -2 0.30391942E-01 0.49257842E+03</pdfrwt>
<totfact> 0.12504123E+01</totfact>
</mgrwt>
</event>
<event>
 4    1  0.2061941E-008  0.1140102E+04  0.7818608E-02  0.9166964E-01
         -2   -1    0    0    0  501 -0.00000000000E+00  0.00000000000E+00  0.10768536326E+04  0.10768536326E+04  0.25500000000E-02 0.  1.
          2   -1    0    0  501    0  0.00000000000E+00 -0.00000000000E+00 -0.13614512876E+04  0.13614512876E+04  0.25500000000E-02 0. -1.
    8880022    1    1    2    0    0 -0.11263174664E+04  0.88599332171E+02  0.26824645597E+03  0.11712338327E+04  0.15294330000E+03 0.  0.
    8880022    1    1    2    0    0  0.11263174664E+04 -0.88599332171E+02 -0.55284411099E+03  0.12670710875E+04  0.15294330000E+03 0.  0.
<mgrwt>
<rscale>  0 0.11401020E+04</rscale>
<asrwt>0</asrwt>
<pdfrwt beam="1">  1        2 0.20945404E+00 0.11401020E+04</pdfrwt>
<pdfrwt beam="2">  1       -2 0.16566979E+00 0.11401020E+04</pdfrwt>
<totfact> 0.34062474E+00</totfact>
</mgrwt>
</event>
<event>
 4    1  0.2061941E-008  0.8546584E+03  0.7818608E-02  0.9484106E-01
          2   -1    0    0  501    0  0.00000000000E+00  0.00000000000E+00  0.16066938590E+04  0.16066938590E+04  0.25500000000E-02 0. -1.
         -2   -1    0    0    0  501 -0.00000000000E+00 -0.00000000000E+00 -0.11883046505E+04  0.11883046505E+04  0.25500000000E-02 0.  1.
    8880022    1    1    2    0    0 -0.83943594334E+03 -0.48954515623E+02  0.13072932252E+04  0.15618759481E+04  0.15294330000E+03 0.  0.
    8880022    1    1    2    0    0  0.83943594334E+03  0.48954515623E+02 -0.88890401672E+03  0.12331225614E+04  0.15294330000E+03 0.  0.
<mgrwt>
<rscale>  0 0.85465835E+03</rscale>
<asrwt>0</asrwt>
<pdfrwt beam="1">  1        2 0.24718367E+00 0.85465835E+03</pdfrwt>
<pdfrwt beam="2">  1       -2 0.18281610E+00 0.85465835E+03</pdfrwt>
<totfact> 0.19447412E+00</totfact>
</mgrwt>
</event>
<event>
 4    1  0.2061941E-008  0.7397627E+03  0.7818608E-02  0.9651549E-01
          2   -1    0    0  501    0  0.00000000000E+00  0.00000000000E+00  0.19324307339E+04  0.19324307339E+04  0.25500000000E-02 0. -1.
         -2   -1    0    0    0  501 -0.00000000000E+00 -0.00000000000E+00 -0.12093157207E+04  0.12093157207E+04  0.25500000000E-02 0.  1.
    8880022    1    1    2    0    0  0.53703667494E+03 -0.48523071014E+03 -0.10131357345E+04  0.12544691713E+04  0.15294330000E+03 0.  1.
    8880022    1    1    2    0    0 -0.53703667494E+03  0.48523071014E+03  0.17362507476E+04  0.18872772833E+04  0.15294330000E+03 0.  0.
<mgrwt>
<rscale>  0 0.73976272E+03</rscale>
<asrwt>0</asrwt>
<pdfrwt beam="1">  1        2 0.29729703E+00 0.73976272E+03</pdfrwt>
<pdfrwt beam="2">  1       -2 0.18604858E+00 0.73976272E+03</pdfrwt>
<totfact> 0.12513175E+00</totfact>
</mgrwt>
</event>
<event>
 4    1  0.2061941E-008  0.1038190E+04  0.7818608E-02  0.9267623E-01
         -2   -1    0    0    0  501 -0.00000000000E+00  0.00000000000E+00  0.23553033845E+04  0.23553033845E+04  0.25500000000E-02 0.  1.
          2   -1    0    0  501    0  0.00000000000E+00 -0.00000000000E+00 -0.12093342617E+04  0.12093342617E+04  0.25500000000E-02 0. -1.
    8880022    1    1    2    0    0 -0.94893700828E+03 -0.39238353054E+03 -0.83221536911E+03  0.13305714390E+04  0.15294330000E+03 0.  0.
    8880022    1    1    2    0    0  0.94893700828E+03  0.39238353054E+03  0.19781844920E+04  0.22340662072E+04  0.15294330000E+03 0.  0.
<mgrwt>
<rscale>  0 0.10381897E+04</rscale>
<asrwt>0</asrwt>
<pdfrwt beam="1">  1        2 0.18605143E+00 0.10381897E+04</pdfrwt>
<pdfrwt beam="2">  1       -2 0.36235436E+00 0.10381897E+04</pdfrwt>
<totfact> 0.24453111E-01</totfact>
</mgrwt>
</event>
<event>
 4    1  0.2061941E-008  0.4036445E+03  0.7818608E-02  0.1042525E+00
          2   -1    0    0  501    0  0.00000000000E+00  0.00000000000E+00  0.51924071486E+03  0.51924071487E+03  0.25500000000E-02 0. -1.
         -2   -1    0    0    0  501 -0.00000000000E+00 -0.00000000000E+00 -0.11548701354E+04  0.11548701354E+04  0.25500000000E-02 0.  1.
    8880022    1    1    2    0    0 -0.14885837416E+03 -0.34260532305E+03  0.39653052428E+03  0.56583154087E+03  0.15294330000E+03 0. -1.
    8880022    1    1    2    0    0  0.14885837416E+03  0.34260532305E+03 -0.10321599449E+04  0.11082793094E+04  0.15294330000E+03 0.  0.
<mgrwt>
<rscale>  0 0.40364449E+03</rscale>
<asrwt>0</asrwt>
<pdfrwt beam="1">  1        2 0.79883187E-01 0.40364449E+03</pdfrwt>
<pdfrwt beam="2">  1       -2 0.17767233E+00 0.40364449E+03</pdfrwt>
<totfact> 0.11820473E+01</totfact>
</mgrwt>
</event>
<event>
 4    1  0.2061941E-008  0.7872174E+03  0.7818608E-02  0.9578706E-01
          2   -1    0    0  501    0  0.00000000000E+00  0.00000000000E+00  0.35748406317E+04  0.35748406317E+04  0.25500000000E-02 0. -1.
         -2   -1    0    0    0  501 -0.00000000000E+00 -0.00000000000E+00 -0.36703438006E+03  0.36703438006E+03  0.25500000000E-02 0.  1.
    8880022    1    1    2    0    0 -0.77078397374E+03 -0.47028551252E+02  0.17216756182E+03  0.80582438606E+03  0.15294330000E+03 0.  1.
    8880022    1    1    2    0    0  0.77078397374E+03  0.47028551252E+02  0.30356386899E+04  0.31360506257E+04  0.15294330000E+03 0.  0.
<mgrwt>
<rscale>  0 0.78721742E+03</rscale>
<asrwt>0</asrwt>
<pdfrwt beam="1">  1        2 0.54997548E+00 0.78721742E+03</pdfrwt>
<pdfrwt beam="2">  1       -2 0.56466828E-01 0.78721742E+03</pdfrwt>
<totfact> 0.22902903E+00</totfact>
</mgrwt>
</event>
<event>
 4    1  0.2061941E-008  0.7881521E+03  0.7818608E-02  0.9577327E-01
         -2   -1    0    0    0  501 -0.00000000000E+00  0.00000000000E+00  0.13398416742E+04  0.13398416742E+04  0.25500000000E-02 0.  1.
          2   -1    0    0  501    0  0.00000000000E+00 -0.00000000000E+00 -0.10917751112E+04  0.10917751112E+04  0.25500000000E-02 0. -1.
    8880022    1    1    2    0    0  0.73845785909E+03 -0.22906794122E+03  0.10462443770E+04  0.13098897209E+04  0.15294330000E+03 0.  0.
    8880022    1    1    2    0    0 -0.73845785909E+03  0.22906794122E+03 -0.79817781407E+03  0.11217270645E+04  0.15294330000E+03 0.  0.
<mgrwt>
<rscale>  0 0.78815213E+03</rscale>
<asrwt>0</asrwt>
<pdfrwt beam="1">  1        2 0.16796540E+00 0.78815213E+03</pdfrwt>
<pdfrwt beam="2">  1       -2 0.20612949E+00 0.78815213E+03</pdfrwt>
<totfact> 0.27284913E+00</totfact>
</mgrwt>
</event>
<event>
 4    1  0.2061941E-008  0.4458478E+03  0.7818608E-02  0.1028968E+00
          2   -1    0    0  501    0  0.00000000000E+00  0.00000000000E+00  0.14779349375E+04  0.14779349375E+04  0.25500000000E-02 0. -1.
         -2   -1    0    0    0  501 -0.00000000000E+00 -0.00000000000E+00 -0.15788224333E+03  0.15788224335E+03  0.25500000000E-02 0.  1.
    8880022    1    1    2    0    0 -0.34226909139E+03  0.24133056866E+03  0.34525592451E+03  0.56389882135E+03  0.15294330000E+03 0.  0.
    8880022    1    1    2    0    0  0.34226909139E+03 -0.24133056866E+03  0.97479676968E+03  0.10719183595E+04  0.15294330000E+03 0.  0.
<mgrwt>
<rscale>  0 0.44584776E+03</rscale>
<asrwt>0</asrwt>
<pdfrwt beam="1">  1        2 0.22737461E+00 0.44584776E+03</pdfrwt>
<pdfrwt beam="2">  1       -2 0.24289575E-01 0.44584776E+03</pdfrwt>
<totfact> 0.20599214E+02</totfact>
</mgrwt>
</event>
<event>
 4    1  0.2061941E-008  0.9984628E+03  0.7818608E-02  0.9310232E-01
         -2   -1    0    0    0  501 -0.00000000000E+00  0.00000000000E+00  0.90626895981E+03  0.90626895981E+03  0.25500000000E-02 0.  1.
          2   -1    0    0  501    0  0.00000000000E+00 -0.00000000000E+00 -0.13933306656E+04  0.13933306656E+04  0.25500000000E-02 0. -1.
    8880022    1    1    2    0    0  0.98433621333E+03 -0.67960403138E+02 -0.77106134805E+03  0.12615322638E+04  0.15294330000E+03 0.  0.
    8880022    1    1    2    0    0 -0.98433621333E+03  0.67960403138E+02  0.28399964228E+03  0.10380673615E+04  0.15294330000E+03 0.  0.
<mgrwt>
<rscale>  0 0.99846284E+03</rscale>
<asrwt>0</asrwt>
<pdfrwt beam="1">  1        2 0.21435856E+00 0.99846284E+03</pdfrwt>
<pdfrwt beam="2">  1       -2 0.13942599E+00 0.99846284E+03</pdfrwt>
<totfact> 0.52601198E+00</totfact>
</mgrwt>
</event>
<event>
 4    1  0.2061941E-008  0.4496893E+03  0.7818608E-02  0.1027815E+00
         -2   -1    0    0    0  501 -0.00000000000E+00  0.00000000000E+00  0.47458496258E+03  0.47458496259E+03  0.25500000000E-02 0.  1.
          2   -1    0    0  501    0  0.00000000000E+00 -0.00000000000E+00 -0.19403448666E+04  0.19403448666E+04  0.25500000000E-02 0. -1.
    8880022    1    1    2    0    0 -0.11016043166E+03  0.40828119718E+03  0.33379759980E+03  0.56003691604E+03  0.15294330000E+03 0.  0.
    8880022    1    1    2    0    0  0.11016043166E+03 -0.40828119718E+03 -0.17995575038E+04  0.18548929132E+04  0.15294330000E+03 0.  0.
<mgrwt>
<rscale>  0 0.44968935E+03</rscale>
<asrwt>0</asrwt>
<pdfrwt beam="1">  1        2 0.29851459E+00 0.44968935E+03</pdfrwt>
<pdfrwt beam="2">  1       -2 0.73013072E-01 0.44968935E+03</pdfrwt>
<totfact> 0.13365218E+01</totfact>
</mgrwt>
</event>
<event>
 4    1  0.2061941E-008  0.4728606E+03  0.7818608E-02  0.1021116E+00
          2   -1    0    0  501    0  0.00000000000E+00  0.00000000000E+00  0.51987183214E+03  0.51987183215E+03  0.25500000000E-02 0. -1.
         -2   -1    0    0    0  501 -0.00000000000E+00 -0.00000000000E+00 -0.49136061622E+03  0.49136061622E+03  0.25500000000E-02 0.  1.
    8880022    1    1    2    0    0  0.37220647846E+03 -0.24833006818E+03 -0.16427377912E+03  0.50058267338E+03  0.15294330000E+03 0.  0.
    8880022    1    1    2    0    0 -0.37220647846E+03  0.24833006818E+03  0.19278499505E+03  0.51064977499E+03  0.15294330000E+03 0.  0.
<mgrwt>
<rscale>  0 0.47286059E+03</rscale>
<asrwt>0</asrwt>
<pdfrwt beam="1">  1        2 0.79980282E-01 0.47286059E+03</pdfrwt>
<pdfrwt beam="2">  1       -2 0.75593941E-01 0.47286059E+03</pdfrwt>
<totfact> 0.95129476E+01</totfact>
</mgrwt>
</event>
<event>
 4    1  0.2061941E-008  0.1373934E+04  0.7818608E-02  0.8972905E-01
         -2   -1    0    0    0  501 -0.00000000000E+00  0.00000000000E+00  0.85419287046E+03  0.85419287047E+03  0.25500000000E-02 0.  1.
          2   -1    0    0  501    0  0.00000000000E+00 -0.00000000000E+00 -0.34797791967E+04  0.34797791967E+04  0.25500000000E-02 0. -1.
    8880022    1    1    2    0    0  0.10544514240E+04 -0.86743089277E+03 -0.37364190856E+01  0.13739395086E+04  0.15294330000E+03 0.  0.
    8880022    1    1    2    0    0 -0.10544514240E+04  0.86743089277E+03 -0.26218499072E+04  0.29600325586E+04  0.15294330000E+03 0.  0.
<mgrwt>
<rscale>  0 0.13739344E+04</rscale>
<asrwt>0</asrwt>
<pdfrwt beam="1">  1        2 0.53535064E+00 0.13739344E+04</pdfrwt>
<pdfrwt beam="2">  1       -2 0.13141429E+00 0.13739344E+04</pdfrwt>
<totfact> 0.34472455E-01</totfact>
</mgrwt>
</event>
<event>
 4    1  0.2061941E-008  0.3041611E+03  0.7818608E-02  0.1083179E+00
          2   -1    0    0  501    0  0.00000000000E+00  0.00000000000E+00  0.53804653945E+03  0.53804653946E+03  0.25500000000E-02 0. -1.
         -2   -1    0    0    0  501 -0.00000000000E+00 -0.00000000000E+00 -0.60631668819E+03  0.60631668819E+03  0.25500000000E-02 0.  1.
    8880022    1    1    2    0    0 -0.22684396104E+03 -0.13290647239E+03  0.45016586037E+03  0.54328930407E+03  0.15294330000E+03 0.  0.
    8880022    1    1    2    0    0  0.22684396104E+03  0.13290647239E+03 -0.51843600910E+03  0.60107392358E+03  0.15294330000E+03 0.  1.
<mgrwt>
<rscale>  0 0.30416109E+03</rscale>
<asrwt>0</asrwt>
<pdfrwt beam="1">  1        2 0.82776391E-01 0.30416109E+03</pdfrwt>
<pdfrwt beam="2">  1       -2 0.93279490E-01 0.30416109E+03</pdfrwt>
<totfact> 0.58097670E+01</totfact>
</mgrwt>
</event>
<event>
 4    1  0.2061941E-008  0.4780805E+03  0.7818608E-02  0.1019664E+00
          2   -1    0    0  501    0  0.00000000000E+00  0.00000000000E+00  0.42818863008E+03  0.42818863008E+03  0.25500000000E-02 0. -1.
         -2   -1    0    0    0  501 -0.00000000000E+00 -0.00000000000E+00 -0.57250909269E+03  0.57250909270E+03  0.25500000000E-02 0.  1.
    8880022    1    1    2    0    0  0.44562540917E+03 -0.81162102164E+02  0.57967157884E+02  0.48158191051E+03  0.15294330000E+03 0.  0.
    8880022    1    1    2    0    0 -0.44562540917E+03  0.81162102164E+02 -0.20228762050E+03  0.51911581227E+03  0.15294330000E+03 0.  0.
<mgrwt>
<rscale>  0 0.47808048E+03</rscale>
<asrwt>0</asrwt>
<pdfrwt beam="1">  1        2 0.65875174E-01 0.47808048E+03</pdfrwt>
<pdfrwt beam="2">  1       -2 0.88078322E-01 0.47808048E+03</pdfrwt>
<totfact> 0.84130934E+01</totfact>
</mgrwt>
</event>
<event>
 4    1  0.2061941E-008  0.3476758E+03  0.7818608E-02  0.1063573E+00
          2   -1    0    0  501    0  0.00000000000E+00  0.00000000000E+00  0.34551347919E+04  0.34551347919E+04  0.25500000000E-02 0. -1.
         -2   -1    0    0    0  501 -0.00000000000E+00 -0.00000000000E+00 -0.14112044104E+03  0.14112044106E+03  0.25500000000E-02 0.  1.
    8880022    1    1    2    0    0 -0.28376212942E+03  0.13025299066E+03  0.97614688652E+02  0.36111918826E+03  0.15294330000E+03 0.  0.
    8880022    1    1    2    0    0  0.28376212942E+03 -0.13025299066E+03  0.32163996622E+04  0.32351360447E+04  0.15294330000E+03 0.  0.
<mgrwt>
<rscale>  0 0.34767577E+03</rscale>
<asrwt>0</asrwt>
<pdfrwt beam="1">  1        2 0.53155912E+00 0.34767577E+03</pdfrwt>
<pdfrwt beam="2">  1       -2 0.21710840E-01 0.34767577E+03</pdfrwt>
<totfact> 0.19267463E+01</totfact>
</mgrwt>
</event>
<event>
 4    1  0.2061941E-008  0.6348316E+03  0.7818608E-02  0.9835665E-01
          2   -1    0    0  501    0  0.00000000000E+00  0.00000000000E+00  0.14112738673E+04  0.14112738673E+04  0.25500000000E-02 0. -1.
         -2   -1    0    0    0  501 -0.00000000000E+00 -0.00000000000E+00 -0.58493974775E+03  0.58493974776E+03  0.25500000000E-02 0.  1.
    8880022    1    1    2    0    0  0.55285646792E+03  0.27197290542E+03  0.11272170859E+04  0.12936883501E+04  0.15294330000E+03 0.  0.
    8880022    1    1    2    0    0 -0.55285646792E+03 -0.27197290542E+03 -0.30088296637E+03  0.70252526494E+03  0.15294330000E+03 0.  0.
<mgrwt>
<rscale>  0 0.63483162E+03</rscale>
<asrwt>0</asrwt>
<pdfrwt beam="1">  1        2 0.21711905E+00 0.63483162E+03</pdfrwt>
<pdfrwt beam="2">  1       -2 0.89990732E-01 0.63483162E+03</pdfrwt>
<totfact> 0.15654837E+01</totfact>
</mgrwt>
</event>
<event>
 4    1  0.2061941E-008  0.2506163E+03  0.7818608E-02  0.1112916E+00
          2   -1    0    0  501    0  0.00000000000E+00  0.00000000000E+00  0.10990630600E+04  0.10990630601E+04  0.25500000000E-02 0. -1.
         -2   -1    0    0    0  501 -0.00000000000E+00 -0.00000000000E+00 -0.36093659771E+03  0.36093659772E+03  0.25500000000E-02 0.  1.
    8880022    1    1    2    0    0  0.57523035495E+02 -0.19002098446E+03  0.10387835983E+04  0.10685878023E+04  0.15294330000E+03 0.  0.
    8880022    1    1    2    0    0 -0.57523035495E+02  0.19002098446E+03 -0.30065713598E+03  0.39141185544E+03  0.15294330000E+03 0.  1.
<mgrwt>
<rscale>  0 0.25061629E+03</rscale>
<asrwt>0</asrwt>
<pdfrwt beam="1">  1        2 0.16908662E+00 0.25061629E+03</pdfrwt>
<pdfrwt beam="2">  1       -2 0.55528707E-01 0.25061629E+03</pdfrwt>
<totfact> 0.72370658E+01</totfact>
</mgrwt>
</event>
<event>
 4    1  0.2061941E-008  0.7443553E+03  0.7818608E-02  0.9644248E-01
         -2   -1    0    0    0  501 -0.00000000000E+00  0.00000000000E+00  0.20057800578E+04  0.20057800578E+04  0.25500000000E-02 0.  1.
          2   -1    0    0  501    0  0.00000000000E+00 -0.00000000000E+00 -0.59700446805E+03  0.59700446806E+03  0.25500000000E-02 0. -1.
    8880022    1    1    2    0    0  0.69878707749E+03 -0.20583919582E+03 -0.24954233250E+03  0.78507081395E+03  0.15294330000E+03 0.  0.
    8880022    1    1    2    0    0 -0.69878707749E+03  0.20583919582E+03  0.16583179223E+04  0.18177137119E+04  0.15294330000E+03 0.  0.
<mgrwt>
<rscale>  0 0.74435530E+03</rscale>
<asrwt>0</asrwt>
<pdfrwt beam="1">  1        2 0.91846840E-01 0.74435530E+03</pdfrwt>
<pdfrwt beam="2">  1       -2 0.30858155E+00 0.74435530E+03</pdfrwt>
<totfact> 0.14687527E+00</totfact>
</mgrwt>
</event>
<event>
 4    1  0.2061941E-008  0.1180917E+04  0.7818608E-02  0.9129725E-01
         -2   -1    0    0    0  501 -0.00000000000E+00  0.00000000000E+00  0.36064820928E+03  0.36064820929E+03  0.25500000000E-02 0.  1.
          2   -1    0    0  501    0  0.00000000000E+00 -0.00000000000E+00 -0.43987941016E+04  0.43987941016E+04  0.25500000000E-02 0. -1.
    8880022    1    1    2    0    0 -0.10998894714E+04 -0.40176775168E+03 -0.11915122881E+04  0.16775778257E+04  0.15294330000E+03 0.  0.
    8880022    1    1    2    0    0  0.10998894714E+04  0.40176775168E+03 -0.28466336043E+04  0.30818644852E+04  0.15294330000E+03 0.  0.
<mgrwt>
<rscale>  0 0.11809174E+04</rscale>
<asrwt>0</asrwt>
<pdfrwt beam="1">  1        2 0.67673752E+00 0.11809174E+04</pdfrwt>
<pdfrwt beam="2">  1       -2 0.55484343E-01 0.11809174E+04</pdfrwt>
<totfact> 0.48684976E-01</totfact>
</mgrwt>
</event>
<event>
 4    1  0.2061941E-008  0.3245761E+03  0.7818608E-02  0.1073562E+00
         -2   -1    0    0    0  501 -0.00000000000E+00  0.00000000000E+00  0.82295313415E+03  0.82295313415E+03  0.25500000000E-02 0.  1.
          2   -1    0    0  501    0  0.00000000000E+00 -0.00000000000E+00 -0.89208802553E+03  0.89208802553E+03  0.25500000000E-02 0. -1.
    8880022    1    1    2    0    0  0.26291762951E+03 -0.11327992862E+03  0.75904480280E+03  0.82552933795E+03  0.15294330000E+03 0.  0.
    8880022    1    1    2    0    0 -0.26291762951E+03  0.11327992862E+03 -0.82817969418E+03  0.88951182174E+03  0.15294330000E+03 0.  0.
<mgrwt>
<rscale>  0 0.32457615E+03</rscale>
<asrwt>0</asrwt>
<pdfrwt beam="1">  1        2 0.13724431E+00 0.32457615E+03</pdfrwt>
<pdfrwt beam="2">  1       -2 0.12660817E+00 0.32457615E+03</pdfrwt>
<totfact> 0.14994415E+01</totfact>
</mgrwt>
</event>
<event>
 4    1  0.2061941E-008  0.1312295E+04  0.7818608E-02  0.9019871E-01
          2   -1    0    0  501    0  0.00000000000E+00  0.00000000000E+00  0.32108039817E+04  0.32108039817E+04  0.25500000000E-02 0. -1.
         -2   -1    0    0    0  501 -0.00000000000E+00 -0.00000000000E+00 -0.86450523489E+03  0.86450523490E+03  0.25500000000E-02 0.  1.
    8880022    1    1    2    0    0 -0.29708427160E+03  0.12690423755E+04  0.24285590951E+04  0.27604381077E+04  0.15294330000E+03 0.  0.
    8880022    1    1    2    0    0  0.29708427160E+03 -0.12690423755E+04 -0.82260348245E+02  0.13148711089E+04  0.15294330000E+03 0.  0.
<mgrwt>
<rscale>  0 0.13122954E+04</rscale>
<asrwt>0</asrwt>
<pdfrwt beam="1">  1        2 0.49396984E+00 0.13122954E+04</pdfrwt>
<pdfrwt beam="2">  1       -2 0.13300081E+00 0.13122954E+04</pdfrwt>
<totfact> 0.50971169E-01</totfact>
</mgrwt>
</event>
<event>
 4    1  0.2061941E-008  0.1559810E+04  0.7818608E-02  0.8845626E-01
          2   -1    0    0  501    0  0.00000000000E+00  0.00000000000E+00  0.93912258064E+03  0.93912258064E+03  0.25500000000E-02 0. -1.
         -2   -1    0    0    0  501 -0.00000000000E+00 -0.00000000000E+00 -0.38442116577E+04  0.38442116577E+04  0.25500000000E-02 0.  1.
    8880022    1    1    2    0    0 -0.89292057405E+03 -0.12697669824E+04 -0.28182504670E+04  0.32211089222E+04  0.15294330000E+03 0.  0.
    8880022    1    1    2    0    0  0.89292057405E+03  0.12697669824E+04 -0.86838610068E+02  0.15622253161E+04  0.15294330000E+03 0.  0.
<mgrwt>
<rscale>  0 0.15598099E+04</rscale>
<asrwt>0</asrwt>
<pdfrwt beam="1">  1        2 0.14448040E+00 0.15598099E+04</pdfrwt>
<pdfrwt beam="2">  1       -2 0.59141717E+00 0.15598099E+04</pdfrwt>
<totfact> 0.13867311E-02</totfact>
</mgrwt>
</event>
<event>
 4    1  0.2061941E-008  0.2484820E+03  0.7818608E-02  0.1114268E+00
          2   -1    0    0  501    0  0.00000000000E+00  0.00000000000E+00  0.17651766817E+04  0.17651766817E+04  0.25500000000E-02 0. -1.
         -2   -1    0    0    0  501 -0.00000000000E+00 -0.00000000000E+00 -0.12303909677E+03  0.12303909680E+03  0.25500000000E-02 0.  1.
    8880022    1    1    2    0    0 -0.15036757733E+02  0.19525770639E+03  0.22355822148E+02  0.24948569455E+03  0.15294330000E+03 0.  0.
    8880022    1    1    2    0    0  0.15036757733E+02 -0.19525770639E+03  0.16197817628E+04  0.16387300840E+04  0.15294330000E+03 0.  0.
<mgrwt>
<rscale>  0 0.24848205E+03</rscale>
<asrwt>0</asrwt>
<pdfrwt beam="1">  1        2 0.27156563E+00 0.24848205E+03</pdfrwt>
<pdfrwt beam="2">  1       -2 0.18929093E-01 0.24848205E+03</pdfrwt>
<totfact> 0.23075574E+02</totfact>
</mgrwt>
</event>
<event>
 4    1  0.2061941E-008  0.4444718E+03  0.7818608E-02  0.1029384E+00
          2   -1    0    0  501    0  0.00000000000E+00  0.00000000000E+00  0.40013340037E+04  0.40013340037E+04  0.25500000000E-02 0. -1.
         -2   -1    0    0    0  501 -0.00000000000E+00 -0.00000000000E+00 -0.31384256517E+03  0.31384256518E+03  0.25500000000E-02 0.  1.
    8880022    1    1    2    0    0  0.28278925845E+03  0.30691007012E+03  0.38243652088E+04  0.38501070711E+04  0.15294330000E+03 0.  0.
    8880022    1    1    2    0    0 -0.28278925845E+03 -0.30691007012E+03 -0.13687377018E+03  0.46506949783E+03  0.15294330000E+03 0.  0.
<mgrwt>
<rscale>  0 0.44447183E+03</rscale>
<asrwt>0</asrwt>
<pdfrwt beam="1">  1        2 0.61558983E+00 0.44447183E+03</pdfrwt>
<pdfrwt beam="2">  1       -2 0.48283473E-01 0.44447183E+03</pdfrwt>
<totfact> 0.16977612E+00</totfact>
</mgrwt>
</event>
<event>
 4    1  0.2061941E-008  0.4979994E+03  0.7818608E-02  0.1014302E+00
          2   -1    0    0  501    0  0.00000000000E+00  0.00000000000E+00  0.47620019414E+04  0.47620019414E+04  0.25500000000E-02 0. -1.
         -2   -1    0    0    0  501 -0.00000000000E+00 -0.00000000000E+00 -0.20012508001E+03  0.20012508003E+03  0.25500000000E-02 0.  1.
    8880022    1    1    2    0    0 -0.37110959624E+03  0.29477011767E+03  0.14698655516E+03  0.51923834133E+03  0.15294330000E+03 0.  0.
    8880022    1    1    2    0    0  0.37110959624E+03 -0.29477011767E+03  0.44148903062E+04  0.44428886801E+04  0.15294330000E+03 0.  0.
<mgrwt>
<rscale>  0 0.49799941E+03</rscale>
<asrwt>0</asrwt>
<pdfrwt beam="1">  1        2 0.73261569E+00 0.49799941E+03</pdfrwt>
<pdfrwt beam="2">  1       -2 0.30788474E-01 0.49799941E+03</pdfrwt>
<totfact> 0.80832564E-01</totfact>
</mgrwt>
</event>
<event>
 4    1  0.2061941E-008  0.3561541E+03  0.7818608E-02  0.1060117E+00
         -2   -1    0    0    0  501 -0.00000000000E+00  0.00000000000E+00  0.11986402164E+03  0.11986402167E+03  0.25500000000E-02 0.  1.
          2   -1    0    0  501    0  0.00000000000E+00 -0.00000000000E+00 -0.40115070333E+04  0.40115070333E+04  0.25500000000E-02 0. -1.
    8880022    1    1    2    0    0 -0.22750073040E+03 -0.22737086853E+03 -0.17342343666E+03  0.39613310337E+03  0.15294330000E+03 0.  0.
    8880022    1    1    2    0    0  0.22750073040E+03  0.22737086853E+03 -0.37182195749E+04  0.37352379516E+04  0.15294330000E+03 0.  0.
<mgrwt>
<rscale>  0 0.35615411E+03</rscale>
<asrwt>0</asrwt>
<pdfrwt beam="1">  1        2 0.61715483E+00 0.35615411E+03</pdfrwt>
<pdfrwt beam="2">  1       -2 0.18440622E-01 0.35615411E+03</pdfrwt>
<totfact> 0.10204575E+01</totfact>
</mgrwt>
</event>
<event>
 4    1  0.2061941E-008  0.7078234E+03  0.7818608E-02  0.9703946E-01
          2   -1    0    0  501    0  0.00000000000E+00  0.00000000000E+00  0.17377480322E+04  0.17377480322E+04  0.25500000000E-02 0. -1.
         -2   -1    0    0    0  501 -0.00000000000E+00 -0.00000000000E+00 -0.12503123241E+04  0.12503123241E+04  0.25500000000E-02 0.  1.
    8880022    1    1    2    0    0  0.31474565004E+03  0.61527025122E+03 -0.10667841151E+04  0.12802508768E+04  0.15294330000E+03 0.  0.
    8880022    1    1    2    0    0 -0.31474565004E+03 -0.61527025122E+03  0.15542198232E+04  0.17078094795E+04  0.15294330000E+03 0.  0.
<mgrwt>
<rscale>  0 0.70782340E+03</rscale>
<asrwt>0</asrwt>
<pdfrwt beam="1">  1        2 0.26734585E+00 0.70782340E+03</pdfrwt>
<pdfrwt beam="2">  1       -2 0.19235574E+00 0.70782340E+03</pdfrwt>
<totfact> 0.14591812E+00</totfact>
</mgrwt>
</event>
<event>
 4    1  0.2061941E-008  0.1066770E+04  0.7818608E-02  0.9238199E-01
         -2   -1    0    0    0  501 -0.00000000000E+00  0.00000000000E+00  0.63993388724E+03  0.63993388724E+03  0.25500000000E-02 0.  1.
          2   -1    0    0  501    0  0.00000000000E+00 -0.00000000000E+00 -0.47655275243E+04  0.47655275243E+04  0.25500000000E-02 0. -1.
    8880022    1    1    2    0    0 -0.56859300447E+03  0.88955573495E+03 -0.42026348872E+04  0.43359127134E+04  0.15294330000E+03 0.  0.
    8880022    1    1    2    0    0  0.56859300447E+03 -0.88955573495E+03  0.77041250181E+02  0.10695486981E+04  0.15294330000E+03 0.  0.
<mgrwt>
<rscale>  0 0.10667704E+04</rscale>
<asrwt>0</asrwt>
<pdfrwt beam="1">  1        2 0.73315806E+00 0.10667704E+04</pdfrwt>
<pdfrwt beam="2">  1       -2 0.98451371E-01 0.10667704E+04</pdfrwt>
<totfact> 0.59677341E-02</totfact>
</mgrwt>
</event>
<event>
 4    1  0.2061941E-008  0.5849531E+03  0.7818608E-02  0.9937125E-01
          2   -1    0    0  501    0  0.00000000000E+00  0.00000000000E+00  0.12118219447E+04  0.12118219447E+04  0.25500000000E-02 0. -1.
         -2   -1    0    0    0  501 -0.00000000000E+00 -0.00000000000E+00 -0.19416418837E+04  0.19416418837E+04  0.25500000000E-02 0.  1.
    8880022    1    1    2    0    0  0.45234882856E+03  0.33787422685E+03  0.10926732878E+04  0.12393970400E+04  0.15294330000E+03 0. -1.
    8880022    1    1    2    0    0 -0.45234882856E+03 -0.33787422685E+03 -0.18224932268E+04  0.19140667884E+04  0.15294330000E+03 0.  0.
<mgrwt>
<rscale>  0 0.58495308E+03</rscale>
<asrwt>0</asrwt>
<pdfrwt beam="1">  1        2 0.18643415E+00 0.58495308E+03</pdfrwt>
<pdfrwt beam="2">  1       -2 0.29871414E+00 0.58495308E+03</pdfrwt>
<totfact> 0.65789386E-01</totfact>
</mgrwt>
</event>
<event>
 4    1  0.2061941E-008  0.8220795E+03  0.7818608E-02  0.9528597E-01
         -2   -1    0    0    0  501 -0.00000000000E+00  0.00000000000E+00  0.77035299972E+03  0.77035299972E+03  0.25500000000E-02 0.  1.
          2   -1    0    0  501    0  0.00000000000E+00 -0.00000000000E+00 -0.26456406682E+04  0.26456406682E+04  0.25500000000E-02 0. -1.
    8880022    1    1    2    0    0  0.78927035900E+03 -0.17168399121E+03 -0.23340351554E+04  0.24745777119E+04  0.15294330000E+03 0.  0.
    8880022    1    1    2    0    0 -0.78927035900E+03  0.17168399121E+03  0.45874748696E+03  0.94141595601E+03  0.15294330000E+03 0.  0.
<mgrwt>
<rscale>  0 0.82207953E+03</rscale>
<asrwt>0</asrwt>
<pdfrwt beam="1">  1        2 0.40702164E+00 0.82207953E+03</pdfrwt>
<pdfrwt beam="2">  1       -2 0.11851585E+00 0.82207953E+03</pdfrwt>
<totfact> 0.16304202E+00</totfact>
</mgrwt>
</event>
<event>
 4    1  0.2061941E-008  0.6269462E+03  0.7818608E-02  0.9851026E-01
         -2   -1    0    0    0  501 -0.00000000000E+00  0.00000000000E+00  0.32145119393E+03  0.32145119394E+03  0.25500000000E-02 0.  1.
          2   -1    0    0  501    0  0.00000000000E+00 -0.00000000000E+00 -0.24880229790E+04  0.24880229790E+04  0.25500000000E-02 0. -1.
    8880022    1    1    2    0    0  0.29308064768E+03 -0.53270411330E+03 -0.81543259265E+02  0.63222693277E+03  0.15294330000E+03 0.  0.
    8880022    1    1    2    0    0 -0.29308064768E+03  0.53270411330E+03 -0.20850285258E+04  0.21772472402E+04  0.15294330000E+03 0.  0.
<mgrwt>
<rscale>  0 0.62694624E+03</rscale>
<asrwt>0</asrwt>
<pdfrwt beam="1">  1        2 0.38277275E+00 0.62694624E+03</pdfrwt>
<pdfrwt beam="2">  1       -2 0.49454031E-01 0.62694624E+03</pdfrwt>
<totfact> 0.14643414E+01</totfact>
</mgrwt>
</event>
<event>
 4    1  0.2061941E-008  0.1542385E+04  0.7818608E-02  0.8856746E-01
         -2   -1    0    0    0  501 -0.00000000000E+00  0.00000000000E+00  0.11349922670E+04  0.11349922671E+04  0.25500000000E-02 0.  1.
          2   -1    0    0  501    0  0.00000000000E+00 -0.00000000000E+00 -0.21395210954E+04  0.21395210954E+04  0.25500000000E-02 0. -1.
    8880022    1    1    2    0    0  0.59931630761E+03  0.14129335164E+04 -0.26877416984E+03  0.15656284252E+04  0.15294330000E+03 0.  0.
    8880022    1    1    2    0    0 -0.59931630761E+03 -0.14129335164E+04 -0.73575465850E+03  0.17088849373E+04  0.15294330000E+03 0.  0.
<mgrwt>
<rscale>  0 0.15423854E+04</rscale>
<asrwt>0</asrwt>
<pdfrwt beam="1">  1        2 0.32915709E+00 0.15423854E+04</pdfrwt>
<pdfrwt beam="2">  1       -2 0.17461420E+00 0.15423854E+04</pdfrwt>
<totfact> 0.10350433E+00</totfact>
</mgrwt>
</event>
<event>
 4    1  0.2061941E-008  0.7850981E+03  0.7818608E-02  0.9581841E-01
          2   -1    0    0  501    0  0.00000000000E+00  0.00000000000E+00  0.10140088815E+04  0.10140088815E+04  0.25500000000E-02 0. -1.
         -2   -1    0    0    0  501 -0.00000000000E+00 -0.00000000000E+00 -0.17252904961E+04  0.17252904961E+04  0.25500000000E-02 0.  1.
    8880022    1    1    2    0    0 -0.67708691611E+03  0.36679792991E+03  0.74662910433E+03  0.10834362398E+04  0.15294330000E+03 0.  0.
    8880022    1    1    2    0    0  0.67708691611E+03 -0.36679792991E+03 -0.14579107190E+04  0.16558631378E+04  0.15294330000E+03 0.  0.
<mgrwt>
<rscale>  0 0.78509813E+03</rscale>
<asrwt>0</asrwt>
<pdfrwt beam="1">  1        2 0.15600137E+00 0.78509813E+03</pdfrwt>
<pdfrwt beam="2">  1       -2 0.26542931E+00 0.78509813E+03</pdfrwt>
<totfact> 0.13154651E+00</totfact>
</mgrwt>
</event>
<event>
 4    1  0.2061941E-008  0.5146034E+03  0.7818608E-02  0.1010036E+00
         -2   -1    0    0    0  501 -0.00000000000E+00  0.00000000000E+00  0.79895159841E+03  0.79895159842E+03  0.25500000000E-02 0.  1.
          2   -1    0    0  501    0  0.00000000000E+00 -0.00000000000E+00 -0.36995045098E+03  0.36995045099E+03  0.25500000000E-02 0. -1.
    8880022    1    1    2    0    0  0.56250697801E+02 -0.48811967763E+03  0.25970663157E+02  0.51525827412E+03  0.15294330000E+03 0.  0.
    8880022    1    1    2    0    0 -0.56250697801E+02  0.48811967763E+03  0.40303048428E+03  0.65364377528E+03  0.15294330000E+03 0.  0.
<mgrwt>
<rscale>  0 0.51460336E+03</rscale>
<asrwt>0</asrwt>
<pdfrwt beam="1">  1        2 0.56915454E-01 0.51460336E+03</pdfrwt>
<pdfrwt beam="2">  1       -2 0.12291563E+00 0.51460336E+03</pdfrwt>
<totfact> 0.44707735E+01</totfact>
</mgrwt>
</event>
<event>
 4    1  0.2061941E-008  0.9180215E+03  0.7818608E-02  0.9403330E-01
         -2   -1    0    0    0  501 -0.00000000000E+00  0.00000000000E+00  0.85358926470E+03  0.85358926471E+03  0.25500000000E-02 0.  1.
          2   -1    0    0  501    0  0.00000000000E+00 -0.00000000000E+00 -0.39235485776E+04  0.39235485776E+04  0.25500000000E-02 0. -1.
    8880022    1    1    2    0    0  0.70640323858E+03  0.56600916285E+03  0.53132036741E+03  0.10606907625E+04  0.15294330000E+03 0.  0.
    8880022    1    1    2    0    0 -0.70640323858E+03 -0.56600916285E+03 -0.36012796803E+04  0.37164470798E+04  0.15294330000E+03 0.  0.
<mgrwt>
<rscale>  0 0.91802155E+03</rscale>
<asrwt>0</asrwt>
<pdfrwt beam="1">  1        2 0.60362285E+00 0.91802155E+03</pdfrwt>
<pdfrwt beam="2">  1       -2 0.13132143E+00 0.91802155E+03</pdfrwt>
<totfact> 0.17753251E-01</totfact>
</mgrwt>
</event>
<event>
 4    1  0.2061941E-008  0.4409816E+03  0.7818608E-02  0.1030446E+00
          2   -1    0    0  501    0  0.00000000000E+00  0.00000000000E+00  0.16598100666E+04  0.16598100666E+04  0.25500000000E-02 0. -1.
         -2   -1    0    0    0  501 -0.00000000000E+00 -0.00000000000E+00 -0.69187003186E+03  0.69187003186E+03  0.25500000000E-02 0.  1.
    8880022    1    1    2    0    0 -0.29818357012E+03 -0.28663507334E+03  0.15556375066E+04  0.16169331500E+04  0.15294330000E+03 0.  0.
    8880022    1    1    2    0    0  0.29818357012E+03  0.28663507334E+03 -0.58769747186E+03  0.73474694841E+03  0.15294330000E+03 0.  0.
<mgrwt>
<rscale>  0 0.44098159E+03</rscale>
<asrwt>0</asrwt>
<pdfrwt beam="1">  1        2 0.25535539E+00 0.44098159E+03</pdfrwt>
<pdfrwt beam="2">  1       -2 0.10644155E+00 0.44098159E+03</pdfrwt>
<totfact> 0.80112353E+00</totfact>
</mgrwt>
</event>
<event>
 4    1  0.2061941E-008  0.1754780E+04  0.7818608E-02  0.8730723E-01
          2   -1    0    0  501    0  0.00000000000E+00  0.00000000000E+00  0.18160645729E+04  0.18160645729E+04  0.25500000000E-02 0. -1.
         -2   -1    0    0    0  501 -0.00000000000E+00 -0.00000000000E+00 -0.28884274008E+04  0.28884274008E+04  0.25500000000E-02 0.  1.
    8880022    1    1    2    0    0  0.16086368067E+03  0.17406852158E+04  0.97545503942E+03  0.20076768493E+04  0.15294330000E+03 0.  0.
    8880022    1    1    2    0    0 -0.16086368067E+03 -0.17406852158E+04 -0.20478178673E+04  0.26968151244E+04  0.15294330000E+03 0.  0.
<mgrwt>
<rscale>  0 0.17547803E+04</rscale>
<asrwt>0</asrwt>
<pdfrwt beam="1">  1        2 0.27939455E+00 0.17547803E+04</pdfrwt>
<pdfrwt beam="2">  1       -2 0.44437345E+00 0.17547803E+04</pdfrwt>
<totfact> 0.29064656E-02</totfact>
</mgrwt>
</event>
<event>
 4    1  0.2061941E-008  0.1679264E+04  0.7818608E-02  0.8773280E-01
         -2   -1    0    0    0  501 -0.00000000000E+00  0.00000000000E+00  0.14060764727E+04  0.14060764727E+04  0.25500000000E-02 0.  1.
          2   -1    0    0  501    0  0.00000000000E+00 -0.00000000000E+00 -0.51737029808E+04  0.51737029808E+04  0.25500000000E-02 0. -1.
    8880022    1    1    2    0    0 -0.76257503859E+03  0.14882923519E+04 -0.44582672716E+04  0.47640396232E+04  0.15294330000E+03 0.  0.
    8880022    1    1    2    0    0  0.76257503859E+03 -0.14882923519E+04  0.69064076343E+03  0.18157398303E+04  0.15294330000E+03 0.  0.
<mgrwt>
<rscale>  0 0.16792637E+04</rscale>
<asrwt>0</asrwt>
<pdfrwt beam="1">  1        2 0.79595430E+00 0.16792637E+04</pdfrwt>
<pdfrwt beam="2">  1       -2 0.21631946E+00 0.16792637E+04</pdfrwt>
<totfact> 0.20012184E-03</totfact>
</mgrwt>
</event>
<event>
 4    1  0.2061941E-008  0.7454194E+03  0.7818608E-02  0.9642564E-01
          2   -1    0    0  501    0  0.00000000000E+00  0.00000000000E+00  0.31954590384E+04  0.31954590384E+04  0.25500000000E-02 0. -1.
         -2   -1    0    0    0  501 -0.00000000000E+00 -0.00000000000E+00 -0.24642685969E+03  0.24642685970E+03  0.25500000000E-02 0.  1.
    8880022    1    1    2    0    0  0.63815325414E+03  0.35358010252E+03  0.24082208214E+04  0.25209477667E+04  0.15294330000E+03 0.  0.
    8880022    1    1    2    0    0 -0.63815325414E+03 -0.35358010252E+03  0.54081135727E+03  0.92093813139E+03  0.15294330000E+03 0.  0.
<mgrwt>
<rscale>  0 0.74541942E+03</rscale>
<asrwt>0</asrwt>
<pdfrwt beam="1">  1        2 0.49160909E+00 0.74541942E+03</pdfrwt>
<pdfrwt beam="2">  1       -2 0.37911824E-01 0.74541942E+03</pdfrwt>
<totfact> 0.91799222E+00</totfact>
</mgrwt>
</event>
<event>
 4    1  0.2061941E-008  0.1776327E+04  0.7818608E-02  0.8718991E-01
          2   -1    0    0  501    0  0.00000000000E+00  0.00000000000E+00  0.57081192341E+04  0.57081192341E+04  0.25500000000E-02 0. -1.
         -2   -1    0    0    0  501 -0.00000000000E+00 -0.00000000000E+00 -0.59503085794E+03  0.59503085795E+03  0.25500000000E-02 0.  1.
    8880022    1    1    2    0    0  0.14400846667E+04 -0.10286407851E+04  0.33963382128E+04  0.38328123644E+04  0.15294330000E+03 0.  0.
    8880022    1    1    2    0    0 -0.14400846667E+04  0.10286407851E+04  0.17167501633E+04  0.24703377276E+04  0.15294330000E+03 0.  0.
<mgrwt>
<rscale>  0 0.17763269E+04</rscale>
<asrwt>0</asrwt>
<pdfrwt beam="1">  1        2 0.87817218E+00 0.17763269E+04</pdfrwt>
<pdfrwt beam="2">  1       -2 0.91543210E-01 0.17763269E+04</pdfrwt>
<totfact> 0.22310071E-03</totfact>
</mgrwt>
</event>
<event>
 4    1  0.2061941E-008  0.7101528E+03  0.7818608E-02  0.9700025E-01
          2   -1    0    0  501    0  0.00000000000E+00  0.00000000000E+00  0.15923550240E+04  0.15923550240E+04  0.25500000000E-02 0. -1.
         -2   -1    0    0    0  501 -0.00000000000E+00 -0.00000000000E+00 -0.40282911168E+03  0.40282911169E+03  0.25500000000E-02 0.  1.
    8880022    1    1    2    0    0  0.25097591981E+02 -0.69303350086E+03  0.10560155538E+04  0.12725902032E+04  0.15294330000E+03 0.  0.
    8880022    1    1    2    0    0 -0.25097591981E+02  0.69303350086E+03  0.13351035854E+03  0.72259393250E+03  0.15294330000E+03 0.  0.
<mgrwt>
<rscale>  0 0.71015278E+03</rscale>
<asrwt>0</asrwt>
<pdfrwt beam="1">  1        2 0.24497769E+00 0.71015278E+03</pdfrwt>
<pdfrwt beam="2">  1       -2 0.61973710E-01 0.71015278E+03</pdfrwt>
<totfact> 0.28048415E+01</totfact>
</mgrwt>
</event>
<event>
 4    1  0.2061941E-008  0.5967705E+03  0.7818608E-02  0.9912129E-01
         -2   -1    0    0    0  501 -0.00000000000E+00  0.00000000000E+00  0.10128346886E+04  0.10128346886E+04  0.25500000000E-02 0.  1.
          2   -1    0    0  501    0  0.00000000000E+00 -0.00000000000E+00 -0.11643792066E+04  0.11643792066E+04  0.25500000000E-02 0. -1.
    8880022    1    1    2    0    0  0.57193540696E+03  0.75055287623E+02  0.83373102012E+03  0.10253011620E+04  0.15294330000E+03 0.  0.
    8880022    1    1    2    0    0 -0.57193540696E+03 -0.75055287623E+02 -0.98527553808E+03  0.11519127332E+04  0.15294330000E+03 0.  0.
<mgrwt>
<rscale>  0 0.59677052E+03</rscale>
<asrwt>0</asrwt>
<pdfrwt beam="1">  1        2 0.17913526E+00 0.59677052E+03</pdfrwt>
<pdfrwt beam="2">  1       -2 0.15582072E+00 0.59677052E+03</pdfrwt>
<totfact> 0.56325968E+00</totfact>
</mgrwt>
</event>
<event>
 4    1  0.2061941E-008  0.4931651E+03  0.7818608E-02  0.1015578E+00
         -2   -1    0    0    0  501 -0.00000000000E+00  0.00000000000E+00  0.21008517808E+03  0.21008517810E+03  0.25500000000E-02 0.  1.
          2   -1    0    0  501    0  0.00000000000E+00 -0.00000000000E+00 -0.18561518907E+04  0.18561518907E+04  0.25500000000E-02 0. -1.
    8880022    1    1    2    0    0 -0.42987332827E+03 -0.18716054427E+03 -0.14567823515E+04  0.15379943499E+04  0.15294330000E+03 0.  0.
    8880022    1    1    2    0    0  0.42987332827E+03  0.18716054427E+03 -0.18928436113E+03  0.52824271890E+03  0.15294330000E+03 0.  0.
<mgrwt>
<rscale>  0 0.49316508E+03</rscale>
<asrwt>0</asrwt>
<pdfrwt beam="1">  1        2 0.28556182E+00 0.49316508E+03</pdfrwt>
<pdfrwt beam="2">  1       -2 0.32320798E-01 0.49316508E+03</pdfrwt>
<totfact> 0.75919785E+01</totfact>
</mgrwt>
</event>
<event>
 4    1  0.2061941E-008  0.7598772E+03  0.7818608E-02  0.9619981E-01
         -2   -1    0    0    0  501 -0.00000000000E+00  0.00000000000E+00  0.67004897221E+03  0.67004897222E+03  0.25500000000E-02 0.  1.
          2   -1    0    0  501    0  0.00000000000E+00 -0.00000000000E+00 -0.21758011808E+04  0.21758011808E+04  0.25500000000E-02 0. -1.
    8880022    1    1    2    0    0 -0.33550911575E+03  0.66442102474E+03 -0.18586820246E+04  0.20080119986E+04  0.15294330000E+03 0.  0.
    8880022    1    1    2    0    0  0.33550911575E+03 -0.66442102474E+03  0.35292981606E+03  0.83783815439E+03  0.15294330000E+03 0.  1.
<mgrwt>
<rscale>  0 0.75987717E+03</rscale>
<asrwt>0</asrwt>
<pdfrwt beam="1">  1        2 0.33473864E+00 0.75987717E+03</pdfrwt>
<pdfrwt beam="2">  1       -2 0.10308446E+00 0.75987717E+03</pdfrwt>
<totfact> 0.42530939E+00</totfact>
</mgrwt>
</event>
<event>
 4    1  0.2061941E-008  0.3623606E+03  0.7818608E-02  0.1057653E+00
          2   -1    0    0  501    0  0.00000000000E+00  0.00000000000E+00  0.15501368774E+04  0.15501368774E+04  0.25500000000E-02 0. -1.
         -2   -1    0    0    0  501 -0.00000000000E+00 -0.00000000000E+00 -0.42400783742E+03  0.42400783743E+03  0.25500000000E-02 0.  1.
    8880022    1    1    2    0    0 -0.31123847707E+03  0.10509133982E+03 -0.31992475137E+03  0.48338088385E+03  0.15294330000E+03 0.  0.
    8880022    1    1    2    0    0  0.31123847707E+03 -0.10509133982E+03  0.14460537914E+04  0.14907638310E+04  0.15294330000E+03 0.  0.
<mgrwt>
<rscale>  0 0.36236064E+03</rscale>
<asrwt>0</asrwt>
<pdfrwt beam="1">  1        2 0.23848260E+00 0.36236064E+03</pdfrwt>
<pdfrwt beam="2">  1       -2 0.65231975E-01 0.36236064E+03</pdfrwt>
<totfact> 0.28181008E+01</totfact>
</mgrwt>
</event>
<event>
 4    1  0.2061941E-008  0.3138552E+03  0.7818608E-02  0.1078513E+00
          2   -1    0    0  501    0  0.00000000000E+00  0.00000000000E+00  0.47738777226E+03  0.47738777226E+03  0.25500000000E-02 0. -1.
         -2   -1    0    0    0  501 -0.00000000000E+00 -0.00000000000E+00 -0.72072790678E+03  0.72072790679E+03  0.25500000000E-02 0.  1.
    8880022    1    1    2    0    0 -0.81475525148E+02 -0.26167766755E+03 -0.62775993839E+03  0.70184589203E+03  0.15294330000E+03 0.  0.
    8880022    1    1    2    0    0  0.81475525148E+02  0.26167766755E+03  0.38441980387E+03  0.49626978702E+03  0.15294330000E+03 0.  0.
<mgrwt>
<rscale>  0 0.31385525E+03</rscale>
<asrwt>0</asrwt>
<pdfrwt beam="1">  1        2 0.73444272E-01 0.31385525E+03</pdfrwt>
<pdfrwt beam="2">  1       -2 0.11088122E+00 0.31385525E+03</pdfrwt>
<totfact> 0.44286732E+01</totfact>
</mgrwt>
</event>
<event>
 4    1  0.2061941E-008  0.4486251E+03  0.7818608E-02  0.1028133E+00
          2   -1    0    0  501    0  0.00000000000E+00  0.00000000000E+00  0.58436301561E+03  0.58436301561E+03  0.25500000000E-02 0. -1.
         -2   -1    0    0    0  501 -0.00000000000E+00 -0.00000000000E+00 -0.17359325648E+04  0.17359325648E+04  0.25500000000E-02 0.  1.
    8880022    1    1    2    0    0  0.68883999580E+02 -0.41608636548E+03  0.46291714815E+03  0.64463695830E+03  0.15294330000E+03 0.  0.
    8880022    1    1    2    0    0 -0.68883999580E+02  0.41608636548E+03 -0.16144866973E+04  0.16756586221E+04  0.15294330000E+03 0.  1.
<mgrwt>
<rscale>  0 0.44862515E+03</rscale>
<asrwt>0</asrwt>
<pdfrwt beam="1">  1        2 0.89902003E-01 0.44862515E+03</pdfrwt>
<pdfrwt beam="2">  1       -2 0.26706655E+00 0.44862515E+03</pdfrwt>
<totfact> 0.28335349E+00</totfact>
</mgrwt>
</event>
<event>
 4    1  0.2061941E-008  0.6867342E+03  0.7818608E-02  0.9740191E-01
         -2   -1    0    0    0  501 -0.00000000000E+00  0.00000000000E+00  0.12840540867E+04  0.12840540867E+04  0.25500000000E-02 0.  1.
          2   -1    0    0  501    0  0.00000000000E+00 -0.00000000000E+00 -0.67210021917E+03  0.67210021918E+03  0.25500000000E-02 0. -1.
    8880022    1    1    2    0    0 -0.28499317276E+03  0.60579784877E+03  0.96466526953E+03  0.11841380314E+04  0.15294330000E+03 0.  0.
    8880022    1    1    2    0    0  0.28499317276E+03 -0.60579784877E+03 -0.35271140195E+03  0.77201627455E+03  0.15294330000E+03 0.  0.
<mgrwt>
<rscale>  0 0.68673415E+03</rscale>
<asrwt>0</asrwt>
<pdfrwt beam="1">  1        2 0.10340003E+00 0.68673415E+03</pdfrwt>
<pdfrwt beam="2">  1       -2 0.19754678E+00 0.68673415E+03</pdfrwt>
<totfact> 0.61247168E+00</totfact>
</mgrwt>
</event>
<event>
 4    1  0.2061941E-008  0.2022029E+03  0.7818608E-02  0.1147894E+00
          2   -1    0    0  501    0  0.00000000000E+00  0.00000000000E+00  0.43354367501E+03  0.43354367501E+03  0.25500000000E-02 0. -1.
         -2   -1    0    0    0  501 -0.00000000000E+00 -0.00000000000E+00 -0.19212737694E+04  0.19212737694E+04  0.25500000000E-02 0.  1.
    8880022    1    1    2    0    0  0.11868952378E+03 -0.58370700839E+02  0.40428329531E+03  0.45202984155E+03  0.15294330000E+03 0. -1.
    8880022    1    1    2    0    0 -0.11868952378E+03  0.58370700839E+02 -0.18920133897E+04  0.19027876029E+04  0.15294330000E+03 0.  0.
<mgrwt>
<rscale>  0 0.20220286E+03</rscale>
<asrwt>0</asrwt>
<pdfrwt beam="1">  1        2 0.66699028E-01 0.20220286E+03</pdfrwt>
<pdfrwt beam="2">  1       -2 0.29558057E+00 0.20220286E+03</pdfrwt>
<totfact> 0.29659975E+00</totfact>
</mgrwt>
</event>
<event>
 4    1  0.2061941E-008  0.1009480E+04  0.7818608E-02  0.9298208E-01
          2   -1    0    0  501    0  0.00000000000E+00  0.00000000000E+00  0.21132294182E+04  0.21132294182E+04  0.25500000000E-02 0. -1.
         -2   -1    0    0    0  501 -0.00000000000E+00 -0.00000000000E+00 -0.10370752400E+04  0.10370752400E+04  0.25500000000E-02 0.  1.
    8880022    1    1    2    0    0  0.48232174698E+03  0.87351259043E+03 -0.61406400195E+03  0.11815772361E+04  0.15294330000E+03 0.  0.
    8880022    1    1    2    0    0 -0.48232174698E+03 -0.87351259043E+03  0.16902181801E+04  0.19687274221E+04  0.15294330000E+03 0.  0.
<mgrwt>
<rscale>  0 0.10094801E+04</rscale>
<asrwt>0</asrwt>
<pdfrwt beam="1">  1        2 0.32511221E+00 0.10094801E+04</pdfrwt>
<pdfrwt beam="2">  1       -2 0.15955004E+00 0.10094801E+04</pdfrwt>
<totfact> 0.14630432E+00</totfact>
</mgrwt>
</event>
<event>
 4    1  0.2061941E-008  0.2153890E+04  0.7818608E-02  0.8537869E-01
          2   -1    0    0  501    0  0.00000000000E+00  0.00000000000E+00  0.18081631127E+04  0.18081631127E+04  0.25500000000E-02 0. -1.
         -2   -1    0    0    0  501 -0.00000000000E+00 -0.00000000000E+00 -0.30726247540E+04  0.30726247540E+04  0.25500000000E-02 0.  1.
    8880022    1    1    2    0    0  0.10070387876E+04 -0.18978205223E+04 -0.16234462669E+04  0.26971872922E+04  0.15294330000E+03 0.  0.
    8880022    1    1    2    0    0 -0.10070387876E+04  0.18978205223E+04  0.35898462562E+03  0.21836005745E+04  0.15294330000E+03 0.  0.
<mgrwt>
<rscale>  0 0.21538899E+04</rscale>
<asrwt>0</asrwt>
<pdfrwt beam="1">  1        2 0.27817894E+00 0.21538899E+04</pdfrwt>
<pdfrwt beam="2">  1       -2 0.47271150E+00 0.21538899E+04</pdfrwt>
<totfact> 0.18280763E-02</totfact>
</mgrwt>
</event>
<event>
 4    1  0.2366300E-008  0.1407633E+04  0.7818608E-02  0.8948312E-01
         -2   -1    0    0    0  501 -0.00000000000E+00  0.00000000000E+00  0.26242971025E+04  0.26242971025E+04  0.25500000000E-02 0.  1.
          2   -1    0    0  501    0  0.00000000000E+00 -0.00000000000E+00 -0.30248852073E+04  0.30248852073E+04  0.25500000000E-02 0. -1.
    8880022    1    1    2    0    0 -0.36112498140E+03 -0.13518979290E+04  0.22465141971E+04  0.26510859951E+04  0.15294330000E+03 0.  0.
    8880022    1    1    2    0    0  0.36112498140E+03  0.13518979290E+04 -0.26471023020E+04  0.29980963148E+04  0.15294330000E+03 0.  0.
<mgrwt>
<rscale>  0 0.14076331E+04</rscale>
<asrwt>0</asrwt>
<pdfrwt beam="1">  1        2 0.46536696E+00 0.14076331E+04</pdfrwt>
<pdfrwt beam="2">  1       -2 0.40373802E+00 0.14076331E+04</pdfrwt>
<totfact> 0.11289651E-02</totfact>
</mgrwt>
</event>
<event>
 4    1  0.2061941E-008  0.9218641E+03  0.7818608E-02  0.9398656E-01
          2   -1    0    0  501    0  0.00000000000E+00  0.00000000000E+00  0.12683577667E+04  0.12683577667E+04  0.25500000000E-02 0. -1.
         -2   -1    0    0    0  501 -0.00000000000E+00 -0.00000000000E+00 -0.82658211912E+03  0.82658211913E+03  0.25500000000E-02 0.  1.
    8880022    1    1    2    0    0 -0.16452101285E+03  0.89407751416E+03  0.67674918630E+03  0.11436008391E+04  0.15294330000E+03 0.  0.
    8880022    1    1    2    0    0  0.16452101285E+03 -0.89407751416E+03 -0.23497353870E+03  0.95133904676E+03  0.15294330000E+03 0.  0.
<mgrwt>
<rscale>  0 0.92186410E+03</rscale>
<asrwt>0</asrwt>
<pdfrwt beam="1">  1        2 0.19513196E+00 0.92186410E+03</pdfrwt>
<pdfrwt beam="2">  1       -2 0.12716648E+00 0.92186410E+03</pdfrwt>
<totfact> 0.79257708E+00</totfact>
</mgrwt>
</event>
<event>
 4    1  0.2061941E-008  0.7493978E+03  0.7818608E-02  0.9636296E-01
          2   -1    0    0  501    0  0.00000000000E+00  0.00000000000E+00  0.26113143823E+04  0.26113143823E+04  0.25500000000E-02 0. -1.
         -2   -1    0    0    0  501 -0.00000000000E+00 -0.00000000000E+00 -0.82765886391E+03  0.82765886391E+03  0.25500000000E-02 0.  1.
    8880022    1    1    2    0    0  0.28549364130E+03 -0.67579497373E+03 -0.58748548174E+03  0.95222702651E+03  0.15294330000E+03 0.  0.
    8880022    1    1    2    0    0 -0.28549364130E+03  0.67579497373E+03  0.23711410001E+04  0.24867462197E+04  0.15294330000E+03 0.  0.
<mgrwt>
<rscale>  0 0.74939784E+03</rscale>
<asrwt>0</asrwt>
<pdfrwt beam="1">  1        2 0.40174068E+00 0.74939784E+03</pdfrwt>
<pdfrwt beam="2">  1       -2 0.12733213E+00 0.74939784E+03</pdfrwt>
<totfact> 0.14469056E+00</totfact>
</mgrwt>
</event>
<event>
 4    1  0.2061941E-008  0.5076516E+03  0.7818608E-02  0.1011801E+00
         -2   -1    0    0    0  501 -0.00000000000E+00  0.00000000000E+00  0.35029677809E+03  0.35029677810E+03  0.25500000000E-02 0.  1.
          2   -1    0    0  501    0  0.00000000000E+00 -0.00000000000E+00 -0.22134091625E+04  0.22134091625E+04  0.25500000000E-02 0. -1.
    8880022    1    1    2    0    0 -0.48307917865E+03  0.30870939339E+02  0.11582116052E+03  0.52069636255E+03  0.15294330000E+03 0.  0.
    8880022    1    1    2    0    0  0.48307917865E+03 -0.30870939339E+02 -0.19789335449E+04  0.20430095781E+04  0.15294330000E+03 0.  0.
<mgrwt>
<rscale>  0 0.50765161E+03</rscale>
<asrwt>0</asrwt>
<pdfrwt beam="1">  1        2 0.34052448E+00 0.50765161E+03</pdfrwt>
<pdfrwt beam="2">  1       -2 0.53891813E-01 0.50765161E+03</pdfrwt>
<totfact> 0.17870365E+01</totfact>
</mgrwt>
</event>
<event>
 4    1  0.2061941E-008  0.4388214E+03  0.7818608E-02  0.1031109E+00
         -2   -1    0    0    0  501 -0.00000000000E+00  0.00000000000E+00  0.74894541139E+03  0.74894541140E+03  0.25500000000E-02 0.  1.
          2   -1    0    0  501    0  0.00000000000E+00 -0.00000000000E+00 -0.61879375009E+03  0.61879375010E+03  0.25500000000E-02 0. -1.
    8880022    1    1    2    0    0 -0.24272396385E+03  0.33205061249E+03  0.58790830731E+03  0.73362140283E+03  0.15294330000E+03 0.  0.
    8880022    1    1    2    0    0  0.24272396385E+03 -0.33205061249E+03 -0.45775664600E+03  0.63411775867E+03  0.15294330000E+03 0.  0.
<mgrwt>
<rscale>  0 0.43882136E+03</rscale>
<asrwt>0</asrwt>
<pdfrwt beam="1">  1        2 0.95199040E-01 0.43882136E+03</pdfrwt>
<pdfrwt beam="2">  1       -2 0.11522237E+00 0.43882136E+03</pdfrwt>
<totfact> 0.29359154E+01</totfact>
</mgrwt>
</event>
<event>
 4    1  0.2061941E-008  0.5712343E+03  0.7818608E-02  0.9966951E-01
          2   -1    0    0  501    0  0.00000000000E+00  0.00000000000E+00  0.61380034991E+03  0.61380034992E+03  0.25500000000E-02 0. -1.
         -2   -1    0    0    0  501 -0.00000000000E+00 -0.00000000000E+00 -0.91153024959E+03  0.91153024959E+03  0.25500000000E-02 0.  1.
    8880022    1    1    2    0    0  0.46799658203E+03 -0.28964832984E+03 -0.64123189307E+03  0.85877060352E+03  0.15294330000E+03 0.  0.
    8880022    1    1    2    0    0 -0.46799658203E+03  0.28964832984E+03  0.34350199339E+03  0.66655999599E+03  0.15294330000E+03 0.  0.
<mgrwt>
<rscale>  0 0.57123429E+03</rscale>
<asrwt>0</asrwt>
<pdfrwt beam="1">  1        2 0.94430823E-01 0.57123429E+03</pdfrwt>
<pdfrwt beam="2">  1       -2 0.14023542E+00 0.57123429E+03</pdfrwt>
<totfact> 0.17829762E+01</totfact>
</mgrwt>
</event>
<event>
 4    1  0.2061941E-008  0.2567022E+03  0.7818608E-02  0.1109141E+00
          2   -1    0    0  501    0  0.00000000000E+00  0.00000000000E+00  0.17879980463E+04  0.17879980463E+04  0.25500000000E-02 0. -1.
         -2   -1    0    0    0  501 -0.00000000000E+00 -0.00000000000E+00 -0.23831787097E+03  0.23831787099E+03  0.25500000000E-02 0.  1.
    8880022    1    1    2    0    0  0.97234547125E+02  0.18179605559E+03 -0.15668972247E+03  0.30074521630E+03  0.15294330000E+03 0.  0.
    8880022    1    1    2    0    0 -0.97234547125E+02 -0.18179605559E+03  0.17063698978E+04  0.17255707010E+04  0.15294330000E+03 0.  0.
<mgrwt>
<rscale>  0 0.25670219E+03</rscale>
<asrwt>0</asrwt>
<pdfrwt beam="1">  1        2 0.27507663E+00 0.25670219E+03</pdfrwt>
<pdfrwt beam="2">  1       -2 0.36664287E-01 0.25670219E+03</pdfrwt>
<totfact> 0.68728239E+01</totfact>
</mgrwt>
</event>
<event>
 4    1  0.2061941E-008  0.7938543E+03  0.7818608E-02  0.9568956E-01
          2   -1    0    0  501    0  0.00000000000E+00  0.00000000000E+00  0.16436524758E+04  0.16436524758E+04  0.25500000000E-02 0. -1.
         -2   -1    0    0    0  501 -0.00000000000E+00 -0.00000000000E+00 -0.61214047223E+03  0.61214047224E+03  0.25500000000E-02 0.  1.
    8880022    1    1    2    0    0 -0.68183112148E+03  0.37672174642E+03  0.12051998231E+04  0.14431601502E+04  0.15294330000E+03 0.  0.
    8880022    1    1    2    0    0  0.68183112148E+03 -0.37672174642E+03 -0.17368781956E+03  0.81263279784E+03  0.15294330000E+03 0.  0.
<mgrwt>
<rscale>  0 0.79385427E+03</rscale>
<asrwt>0</asrwt>
<pdfrwt beam="1">  1        2 0.25286961E+00 0.79385427E+03</pdfrwt>
<pdfrwt beam="2">  1       -2 0.94175458E-01 0.79385427E+03</pdfrwt>
<totfact> 0.10241854E+01</totfact>
</mgrwt>
</event>
<event>
 4    1  0.2061941E-008  0.4173978E+03  0.7818608E-02  0.1037917E+00
          2   -1    0    0  501    0  0.00000000000E+00  0.00000000000E+00  0.33874843262E+04  0.33874843262E+04  0.25500000000E-02 0. -1.
         -2   -1    0    0    0  501 -0.00000000000E+00 -0.00000000000E+00 -0.17374157485E+03  0.17374157487E+03  0.25500000000E-02 0.  1.
    8880022    1    1    2    0    0  0.38749459679E+03 -0.26022612018E+02  0.11287315116E+03  0.43239014806E+03  0.15294330000E+03 0.  0.
    8880022    1    1    2    0    0 -0.38749459679E+03  0.26022612018E+02  0.31008696002E+04  0.31288357530E+04  0.15294330000E+03 0.  0.
<mgrwt>
<rscale>  0 0.41739776E+03</rscale>
<asrwt>0</asrwt>
<pdfrwt beam="1">  1        2 0.52115140E+00 0.41739776E+03</pdfrwt>
<pdfrwt beam="2">  1       -2 0.26729475E-01 0.41739776E+03</pdfrwt>
<totfact> 0.14383230E+01</totfact>
</mgrwt>
</event>
<event>
 4    1  0.2061941E-008  0.6788527E+03  0.7818608E-02  0.9754096E-01
          2   -1    0    0  501    0  0.00000000000E+00  0.00000000000E+00  0.22315207054E+04  0.22315207054E+04  0.25500000000E-02 0. -1.
         -2   -1    0    0    0  501 -0.00000000000E+00 -0.00000000000E+00 -0.16995825625E+04  0.16995825625E+04  0.25500000000E-02 0.  1.
    8880022    1    1    2    0    0  0.50144837888E+03 -0.43127584304E+03  0.21082385312E+04  0.22148387497E+04  0.15294330000E+03 0.  0.
    8880022    1    1    2    0    0 -0.50144837888E+03  0.43127584304E+03 -0.15763003883E+04  0.17162645183E+04  0.15294330000E+03 0.  0.
<mgrwt>
<rscale>  0 0.67885270E+03</rscale>
<asrwt>0</asrwt>
<pdfrwt beam="1">  1        2 0.34331088E+00 0.67885270E+03</pdfrwt>
<pdfrwt beam="2">  1       -2 0.26147424E+00 0.67885270E+03</pdfrwt>
<totfact> 0.29335450E-01</totfact>
</mgrwt>
</event>
<event>
 4    1  0.2061941E-008  0.1037096E+04  0.7818608E-02  0.9268769E-01
          2   -1    0    0  501    0  0.00000000000E+00  0.00000000000E+00  0.22380209903E+04  0.22380209903E+04  0.25500000000E-02 0. -1.
         -2   -1    0    0    0  501 -0.00000000000E+00 -0.00000000000E+00 -0.76011686802E+03  0.76011686802E+03  0.25500000000E-02 0.  1.
    8880022    1    1    2    0    0 -0.61323371964E+02 -0.10239214011E+04 -0.17011166671E+03  0.10509544347E+04  0.15294330000E+03 0.  0.
    8880022    1    1    2    0    0  0.61323371964E+02  0.10239214011E+04  0.16480157890E+04  0.19471834236E+04  0.15294330000E+03 0.  0.
<mgrwt>
<rscale>  0 0.10370956E+04</rscale>
<asrwt>0</asrwt>
<pdfrwt beam="1">  1        2 0.34431092E+00 0.10370956E+04</pdfrwt>
<pdfrwt beam="2">  1       -2 0.11694106E+00 0.10370956E+04</pdfrwt>
<totfact> 0.27756117E+00</totfact>
</mgrwt>
</event>
<event>
 4    1  0.2061941E-008  0.1070965E+04  0.7818608E-02  0.9233963E-01
          2   -1    0    0  501    0  0.00000000000E+00  0.00000000000E+00  0.97724959739E+03  0.97724959739E+03  0.25500000000E-02 0. -1.
         -2   -1    0    0    0  501 -0.00000000000E+00 -0.00000000000E+00 -0.12973384800E+04  0.12973384800E+04  0.25500000000E-02 0.  1.
    8880022    1    1    2    0    0  0.80968559813E+03 -0.68409320069E+03 -0.51118444414E+03  0.11867078259E+04  0.15294330000E+03 0.  0.
    8880022    1    1    2    0    0 -0.80968559813E+03  0.68409320069E+03  0.19109556150E+03  0.10878802515E+04  0.15294330000E+03 0.  0.
<mgrwt>
<rscale>  0 0.10709650E+04</rscale>
<asrwt>0</asrwt>
<pdfrwt beam="1">  1        2 0.15034609E+00 0.10709650E+04</pdfrwt>
<pdfrwt beam="2">  1       -2 0.19959053E+00 0.10709650E+04</pdfrwt>
<totfact> 0.34342797E+00</totfact>
</mgrwt>
</event>
<event>
 4    1  0.2061941E-008  0.5989068E+03  0.7818608E-02  0.9907677E-01
          2   -1    0    0  501    0  0.00000000000E+00  0.00000000000E+00  0.31853351965E+04  0.31853351965E+04  0.25500000000E-02 0. -1.
         -2   -1    0    0    0  501 -0.00000000000E+00 -0.00000000000E+00 -0.38851703722E+03  0.38851703723E+03  0.25500000000E-02 0.  1.
    8880022    1    1    2    0    0 -0.24720294342E+03 -0.52362997203E+03 -0.10745489343E+03  0.60847008963E+03  0.15294330000E+03 0.  0.
    8880022    1    1    2    0    0  0.24720294342E+03  0.52362997203E+03  0.29042730528E+04  0.29653821441E+04  0.15294330000E+03 0. -1.
<mgrwt>
<rscale>  0 0.59890675E+03</rscale>
<asrwt>0</asrwt>
<pdfrwt beam="1">  1        2 0.49005159E+00 0.59890675E+03</pdfrwt>
<pdfrwt beam="2">  1       -2 0.59771849E-01 0.59890675E+03</pdfrwt>
<totfact> 0.38460752E+00</totfact>
</mgrwt>
</event>
<event>
 4    1  0.2061941E-008  0.5541257E+03  0.7818608E-02  0.1000543E+00
         -2   -1    0    0    0  501 -0.00000000000E+00  0.00000000000E+00  0.29369439324E+04  0.29369439324E+04  0.25500000000E-02 0.  1.
          2   -1    0    0  501    0  0.00000000000E+00 -0.00000000000E+00 -0.57616157249E+03  0.57616157249E+03  0.25500000000E-02 0. -1.
    8880022    1    1    2    0    0 -0.49791695112E+03  0.18905641256E+03  0.27696024150E+04  0.28244916016E+04  0.15294330000E+03 0.  0.
    8880022    1    1    2    0    0  0.49791695112E+03 -0.18905641256E+03 -0.40882005509E+03  0.68861390329E+03  0.15294330000E+03 0.  0.
<mgrwt>
<rscale>  0 0.55412568E+03</rscale>
<asrwt>0</asrwt>
<pdfrwt beam="1">  1        2 0.88640241E-01 0.55412568E+03</pdfrwt>
<pdfrwt beam="2">  1       -2 0.45183753E+00 0.55412568E+03</pdfrwt>
<totfact> 0.19702771E-01</totfact>
</mgrwt>
</event>
<event>
 4    1  0.2061941E-008  0.1498588E+04  0.7818608E-02  0.8885392E-01
         -2   -1    0    0    0  501 -0.00000000000E+00  0.00000000000E+00  0.36048480116E+04  0.36048480116E+04  0.25500000000E-02 0.  1.
          2   -1    0    0  501    0  0.00000000000E+00 -0.00000000000E+00 -0.86870627537E+03  0.86870627537E+03  0.25500000000E-02 0. -1.
    8880022    1    1    2    0    0  0.27946234347E+03  0.14643347718E+04  0.25576884847E+04  0.29643781073E+04  0.15294330000E+03 0.  0.
    8880022    1    1    2    0    0 -0.27946234347E+03 -0.14643347718E+04  0.17845325151E+03  0.15091761797E+04  0.15294330000E+03 0.  0.
<mgrwt>
<rscale>  0 0.14985884E+04</rscale>
<asrwt>0</asrwt>
<pdfrwt beam="1">  1        2 0.13364712E+00 0.14985884E+04</pdfrwt>
<pdfrwt beam="2">  1       -2 0.55459199E+00 0.14985884E+04</pdfrwt>
<totfact> 0.23156625E-02</totfact>
</mgrwt>
</event>
<event>
 4    1  0.2061941E-008  0.4857294E+03  0.7818608E-02  0.1017572E+00
          2   -1    0    0  501    0  0.00000000000E+00  0.00000000000E+00  0.78171805105E+03  0.78171805106E+03  0.25500000000E-02 0. -1.
         -2   -1    0    0    0  501 -0.00000000000E+00 -0.00000000000E+00 -0.76778520862E+03  0.76778520863E+03  0.25500000000E-02 0.  1.
    8880022    1    1    2    0    0  0.43047817611E+03  0.16501504459E+03  0.61052912095E+03  0.78017875233E+03  0.15294330000E+03 0.  0.
    8880022    1    1    2    0    0 -0.43047817611E+03 -0.16501504459E+03 -0.59659627852E+03  0.76932450735E+03  0.15294330000E+03 0.  0.
<mgrwt>
<rscale>  0 0.48572943E+03</rscale>
<asrwt>0</asrwt>
<pdfrwt beam="1">  1        2 0.12026432E+00 0.48572943E+03</pdfrwt>
<pdfrwt beam="2">  1       -2 0.11812080E+00 0.48572943E+03</pdfrwt>
<totfact> 0.20534795E+01</totfact>
</mgrwt>
</event>
<event>
 4    1  0.2061941E-008  0.3217373E+03  0.7818608E-02  0.1074853E+00
         -2   -1    0    0    0  501 -0.00000000000E+00  0.00000000000E+00  0.80780527829E+03  0.80780527829E+03  0.25500000000E-02 0.  1.
          2   -1    0    0  501    0  0.00000000000E+00 -0.00000000000E+00 -0.23351418350E+03  0.23351418352E+03  0.25500000000E-02 0. -1.
    8880022    1    1    2    0    0 -0.21151466000E+03 -0.18810846412E+03 -0.62604275606E+02  0.32777155766E+03  0.15294330000E+03 0. -1.
    8880022    1    1    2    0    0  0.21151466000E+03  0.18810846412E+03  0.63689537039E+03  0.71354790415E+03  0.15294330000E+03 0.  0.
<mgrwt>
<rscale>  0 0.32173731E+03</rscale>
<asrwt>0</asrwt>
<pdfrwt beam="1">  1        2 0.35925260E-01 0.32173731E+03</pdfrwt>
<pdfrwt beam="2">  1       -2 0.12427773E+00 0.32173731E+03</pdfrwt>
<totfact> 0.73437719E+01</totfact>
</mgrwt>
</event>
<event>
 4    1  0.2061941E-008  0.6629068E+03  0.7818608E-02  0.9782857E-01
          2   -1    0    0  501    0  0.00000000000E+00  0.00000000000E+00  0.15749509127E+04  0.15749509127E+04  0.25500000000E-02 0. -1.
         -2   -1    0    0    0  501 -0.00000000000E+00 -0.00000000000E+00 -0.73350468352E+03  0.73350468353E+03  0.25500000000E-02 0.  1.
    8880022    1    1    2    0    0 -0.60241294055E+03 -0.23054817917E+03 -0.48782703007E+03  0.82305569565E+03  0.15294330000E+03 0.  0.
    8880022    1    1    2    0    0  0.60241294055E+03  0.23054817917E+03  0.13292732592E+04  0.14853999005E+04  0.15294330000E+03 0.  0.
<mgrwt>
<rscale>  0 0.66290683E+03</rscale>
<asrwt>0</asrwt>
<pdfrwt beam="1">  1        2 0.24230014E+00 0.66290683E+03</pdfrwt>
<pdfrwt beam="2">  1       -2 0.11284687E+00 0.66290683E+03</pdfrwt>
<totfact> 0.73989332E+00</totfact>
</mgrwt>
</event>
<event>
 4    1  0.2061941E-008  0.4305716E+03  0.7818608E-02  0.1033680E+00
         -2   -1    0    0    0  501 -0.00000000000E+00  0.00000000000E+00  0.17802562329E+04  0.17802562329E+04  0.25500000000E-02 0.  1.
          2   -1    0    0  501    0  0.00000000000E+00 -0.00000000000E+00 -0.60407150550E+03  0.60407150550E+03  0.25500000000E-02 0. -1.
    8880022    1    1    2    0    0 -0.35743468222E+03 -0.18504236499E+03 -0.49645371956E+03  0.65715917218E+03  0.15294330000E+03 0. -1.
    8880022    1    1    2    0    0  0.35743468222E+03  0.18504236499E+03  0.16726384470E+04  0.17271685663E+04  0.15294330000E+03 0.  0.
<mgrwt>
<rscale>  0 0.43057158E+03</rscale>
<asrwt>0</asrwt>
<pdfrwt beam="1">  1        2 0.92934081E-01 0.43057158E+03</pdfrwt>
<pdfrwt beam="2">  1       -2 0.27388556E+00 0.43057158E+03</pdfrwt>
<totfact> 0.24943193E+00</totfact>
</mgrwt>
</event>
<event>
 4    1  0.2061941E-008  0.6149489E+03  0.7818608E-02  0.9874868E-01
          2   -1    0    0  501    0  0.00000000000E+00  0.00000000000E+00  0.16953545432E+04  0.16953545432E+04  0.25500000000E-02 0. -1.
         -2   -1    0    0    0  501 -0.00000000000E+00 -0.00000000000E+00 -0.22881805042E+03  0.22881805044E+03  0.25500000000E-02 0.  1.
    8880022    1    1    2    0    0  0.59286994249E+03  0.57233745093E+02  0.58062132709E+03  0.84574419819E+03  0.15294330000E+03 0.  0.
    8880022    1    1    2    0    0 -0.59286994249E+03 -0.57233745093E+02  0.88591516567E+03  0.10784283954E+04  0.15294330000E+03 0.  0.
<mgrwt>
<rscale>  0 0.61494888E+03</rscale>
<asrwt>0</asrwt>
<pdfrwt beam="1">  1        2 0.26082378E+00 0.61494888E+03</pdfrwt>
<pdfrwt beam="2">  1       -2 0.35202776E-01 0.61494888E+03</pdfrwt>
<totfact> 0.77588624E+01</totfact>
</mgrwt>
</event>
<event>
 4    1  0.2061941E-008  0.6464986E+03  0.7818608E-02  0.9813372E-01
          2   -1    0    0  501    0  0.00000000000E+00  0.00000000000E+00  0.17873237176E+04  0.17873237176E+04  0.25500000000E-02 0. -1.
         -2   -1    0    0    0  501 -0.00000000000E+00 -0.00000000000E+00 -0.60979590048E+03  0.60979590048E+03  0.25500000000E-02 0.  1.
    8880022    1    1    2    0    0 -0.59522227143E+03 -0.20069680028E+03  0.15298553645E+04  0.16608485323E+04  0.15294330000E+03 0.  0.
    8880022    1    1    2    0    0  0.59522227143E+03  0.20069680028E+03 -0.35232754738E+03  0.73627108575E+03  0.15294330000E+03 0.  1.
<mgrwt>
<rscale>  0 0.64649858E+03</rscale>
<asrwt>0</asrwt>
<pdfrwt beam="1">  1        2 0.27497288E+00 0.64649858E+03</pdfrwt>
<pdfrwt beam="2">  1       -2 0.93814754E-01 0.64649858E+03</pdfrwt>
<totfact> 0.88190900E+00</totfact>
</mgrwt>
</event>
<event>
 4    1  0.2061941E-008  0.2196435E+04  0.7818608E-02  0.8519913E-01
          2   -1    0    0  501    0  0.00000000000E+00  0.00000000000E+00  0.27579190233E+04  0.27579190233E+04  0.25500000000E-02 0. -1.
         -2   -1    0    0    0  501 -0.00000000000E+00 -0.00000000000E+00 -0.27655263044E+04  0.27655263044E+04  0.25500000000E-02 0.  1.
    8880022    1    1    2    0    0 -0.59670927374E+03  0.21082868011E+04  0.16703457180E+04  0.27594169065E+04  0.15294330000E+03 0.  0.
    8880022    1    1    2    0    0  0.59670927374E+03 -0.21082868011E+04 -0.16779529990E+04  0.27640284212E+04  0.15294330000E+03 0.  0.
<mgrwt>
<rscale>  0 0.21964350E+04</rscale>
<asrwt>0</asrwt>
<pdfrwt beam="1">  1        2 0.42429523E+00 0.21964350E+04</pdfrwt>
<pdfrwt beam="2">  1       -2 0.42546559E+00 0.21964350E+04</pdfrwt>
<totfact> 0.10635688E-02</totfact>
</mgrwt>
</event>
<event>
 4    1  0.2061941E-008  0.6232334E+03  0.7818608E-02  0.9858343E-01
          2   -1    0    0  501    0  0.00000000000E+00  0.00000000000E+00  0.13025133384E+04  0.13025133384E+04  0.25500000000E-02 0. -1.
         -2   -1    0    0    0  501 -0.00000000000E+00 -0.00000000000E+00 -0.13168908841E+04  0.13168908841E+04  0.25500000000E-02 0.  1.
    8880022    1    1    2    0    0 -0.40104435064E+03  0.45187566728E+03 -0.11590950515E+04  0.13160247647E+04  0.15294330000E+03 0.  0.
    8880022    1    1    2    0    0  0.40104435064E+03 -0.45187566728E+03  0.11447175058E+04  0.13033794578E+04  0.15294330000E+03 0.  0.
<mgrwt>
<rscale>  0 0.62323338E+03</rscale>
<asrwt>0</asrwt>
<pdfrwt beam="1">  1        2 0.20038667E+00 0.62323338E+03</pdfrwt>
<pdfrwt beam="2">  1       -2 0.20259860E+00 0.62323338E+03</pdfrwt>
<totfact> 0.22199625E+00</totfact>
</mgrwt>
</event>
<event>
 4    1  0.2061941E-008  0.6093809E+03  0.7818608E-02  0.9886133E-01
         -2   -1    0    0    0  501 -0.00000000000E+00  0.00000000000E+00  0.68313658114E+03  0.68313658114E+03  0.25500000000E-02 0.  1.
          2   -1    0    0  501    0  0.00000000000E+00 -0.00000000000E+00 -0.12504516061E+04  0.12504516061E+04  0.25500000000E-02 0. -1.
    8880022    1    1    2    0    0 -0.32297010390E+03  0.49360283915E+03 -0.10105467524E+04  0.11800634909E+04  0.15294330000E+03 0. -1.
    8880022    1    1    2    0    0  0.32297010390E+03 -0.49360283915E+03  0.44323172739E+03  0.75352469635E+03  0.15294330000E+03 0.  0.
<mgrwt>
<rscale>  0 0.60938092E+03</rscale>
<asrwt>0</asrwt>
<pdfrwt beam="1">  1        2 0.19237717E+00 0.60938092E+03</pdfrwt>
<pdfrwt beam="2">  1       -2 0.10509794E+00 0.60938092E+03</pdfrwt>
<totfact> 0.13481493E+01</totfact>
</mgrwt>
</event>
<event>
 4    1  0.2061941E-008  0.1491641E+04  0.7818608E-02  0.8890031E-01
         -2   -1    0    0    0  501 -0.00000000000E+00  0.00000000000E+00  0.10430127994E+04  0.10430127994E+04  0.25500000000E-02 0.  1.
          2   -1    0    0  501    0  0.00000000000E+00 -0.00000000000E+00 -0.24481900381E+04  0.24481900381E+04  0.25500000000E-02 0. -1.
    8880022    1    1    2    0    0 -0.32741204457E+03  0.14472051337E+04 -0.13286915722E+04  0.19976021358E+04  0.15294330000E+03 0.  0.
    8880022    1    1    2    0    0  0.32741204457E+03 -0.14472051337E+04 -0.76485666565E+02  0.14936007017E+04  0.15294330000E+03 0.  0.
<mgrwt>
<rscale>  0 0.14916410E+04</rscale>
<asrwt>0</asrwt>
<pdfrwt beam="1">  1        2 0.37664462E+00 0.14916410E+04</pdfrwt>
<pdfrwt beam="2">  1       -2 0.16046351E+00 0.14916410E+04</pdfrwt>
<totfact> 0.88004548E-01</totfact>
</mgrwt>
</event>
<event>
 4    1  0.2061941E-008  0.4290681E+03  0.7818608E-02  0.1034155E+00
         -2   -1    0    0    0  501 -0.00000000000E+00  0.00000000000E+00  0.11160471550E+04  0.11160471550E+04  0.25500000000E-02 0.  1.
          2   -1    0    0  501    0  0.00000000000E+00 -0.00000000000E+00 -0.91683187279E+03  0.91683187280E+03  0.25500000000E-02 0. -1.
    8880022    1    1    2    0    0 -0.23463557026E+03  0.32504453700E+03  0.10200774766E+04  0.11066424505E+04  0.15294330000E+03 0.  0.
    8880022    1    1    2    0    0  0.23463557026E+03 -0.32504453700E+03 -0.82086219444E+03  0.92623657730E+03  0.15294330000E+03 0. -1.
<mgrwt>
<rscale>  0 0.42906812E+03</rscale>
<asrwt>0</asrwt>
<pdfrwt beam="1">  1        2 0.14105106E+00 0.42906812E+03</pdfrwt>
<pdfrwt beam="2">  1       -2 0.17169956E+00 0.42906812E+03</pdfrwt>
<totfact> 0.63760607E+00</totfact>
</mgrwt>
</event>
<event>
 4    1  0.2061941E-008  0.5846255E+03  0.7818608E-02  0.9937827E-01
         -2   -1    0    0    0  501 -0.00000000000E+00  0.00000000000E+00  0.11399034768E+04  0.11399034768E+04  0.25500000000E-02 0.  1.
          2   -1    0    0  501    0  0.00000000000E+00 -0.00000000000E+00 -0.11095708277E+04  0.11095708277E+04  0.25500000000E-02 0. -1.
    8880022    1    1    2    0    0  0.24402995002E+03 -0.50876785919E+03  0.97599123061E+03  0.11376932303E+04  0.15294330000E+03 0.  0.
    8880022    1    1    2    0    0 -0.24402995002E+03  0.50876785919E+03 -0.94565858155E+03  0.11117810742E+04  0.15294330000E+03 0.  0.
<mgrwt>
<rscale>  0 0.58462552E+03</rscale>
<asrwt>0</asrwt>
<pdfrwt beam="1">  1        2 0.17070321E+00 0.58462552E+03</pdfrwt>
<pdfrwt beam="2">  1       -2 0.17536976E+00 0.58462552E+03</pdfrwt>
<totfact> 0.44087606E+00</totfact>
</mgrwt>
</event>
<event>
 4    1  0.2061941E-008  0.2937396E+03  0.7818608E-02  0.1088413E+00
         -2   -1    0    0    0  501 -0.00000000000E+00  0.00000000000E+00  0.95903137732E+02  0.95903137766E+02  0.25500000000E-02 0.  1.
          2   -1    0    0  501    0  0.00000000000E+00 -0.00000000000E+00 -0.11237807516E+04  0.11237807516E+04  0.25500000000E-02 0. -1.
    8880022    1    1    2    0    0  0.15626869513E+03 -0.19614125533E+03 -0.24161229882E+03  0.38034123241E+03  0.15294330000E+03 0.  0.
    8880022    1    1    2    0    0 -0.15626869513E+03  0.19614125533E+03 -0.78626531504E+03  0.83934265694E+03  0.15294330000E+03 0.  0.
<mgrwt>
<rscale>  0 0.29373960E+03</rscale>
<asrwt>0</asrwt>
<pdfrwt beam="1">  1        2 0.17288934E+00 0.29373960E+03</pdfrwt>
<pdfrwt beam="2">  1       -2 0.14754330E-01 0.29373960E+03</pdfrwt>
<totfact> 0.77946268E+02</totfact>
</mgrwt>
</event>
<event>
 4    1  0.2061941E-008  0.1167121E+04  0.7818608E-02  0.9142132E-01
          2   -1    0    0  501    0  0.00000000000E+00  0.00000000000E+00  0.20219316509E+04  0.20219316509E+04  0.25500000000E-02 0. -1.
         -2   -1    0    0    0  501 -0.00000000000E+00 -0.00000000000E+00 -0.85664623061E+03  0.85664623061E+03  0.25500000000E-02 0.  1.
    8880022    1    1    2    0    0  0.10311167213E+04  0.52495542063E+03  0.12477798611E+04  0.17085450305E+04  0.15294330000E+03 0.  0.
    8880022    1    1    2    0    0 -0.10311167213E+04 -0.52495542063E+03 -0.82494440840E+02  0.11700328510E+04  0.15294330000E+03 0.  0.
<mgrwt>
<rscale>  0 0.11671210E+04</rscale>
<asrwt>0</asrwt>
<pdfrwt beam="1">  1        2 0.31106641E+00 0.11671210E+04</pdfrwt>
<pdfrwt beam="2">  1       -2 0.13179173E+00 0.11671210E+04</pdfrwt>
<totfact> 0.26667688E+00</totfact>
</mgrwt>
</event>
<event>
 4    1  0.2061941E-008  0.1313024E+04  0.7818608E-02  0.9019300E-01
         -2   -1    0    0    0  501 -0.00000000000E+00  0.00000000000E+00  0.97025132774E+03  0.97025132774E+03  0.25500000000E-02 0.  1.
          2   -1    0    0  501    0  0.00000000000E+00 -0.00000000000E+00 -0.18742189895E+04  0.18742189895E+04  0.25500000000E-02 0. -1.
    8880022    1    1    2    0    0 -0.81984692540E+03  0.10141460936E+04 -0.12788659009E+03  0.13192376258E+04  0.15294330000E+03 0.  0.
    8880022    1    1    2    0    0  0.81984692540E+03 -0.10141460936E+04 -0.77608107169E+03  0.15252326915E+04  0.15294330000E+03 0.  0.
<mgrwt>
<rscale>  0 0.13130243E+04</rscale>
<asrwt>0</asrwt>
<pdfrwt beam="1">  1        2 0.28834138E+00 0.13130243E+04</pdfrwt>
<pdfrwt beam="2">  1       -2 0.14926944E+00 0.13130243E+04</pdfrwt>
<totfact> 0.22902437E+00</totfact>
</mgrwt>
</event>
<event>
 4    1  0.2061941E-008  0.5719373E+03  0.7818608E-02  0.9965401E-01
         -2   -1    0    0    0  501 -0.00000000000E+00  0.00000000000E+00  0.73892394223E+03  0.73892394223E+03  0.25500000000E-02 0.  1.
          2   -1    0    0  501    0  0.00000000000E+00 -0.00000000000E+00 -0.12733774724E+04  0.12733774724E+04  0.25500000000E-02 0. -1.
    8880022    1    1    2    0    0  0.11071408750E+03  0.53987315315E+03 -0.10798775856E+04  0.12219852223E+04  0.15294330000E+03 0.  0.
    8880022    1    1    2    0    0 -0.11071408750E+03 -0.53987315315E+03  0.54542405540E+03  0.79031619235E+03  0.15294330000E+03 0.  1.
<mgrwt>
<rscale>  0 0.57193731E+03</rscale>
<asrwt>0</asrwt>
<pdfrwt beam="1">  1        2 0.19590423E+00 0.57193731E+03</pdfrwt>
<pdfrwt beam="2">  1       -2 0.11368061E+00 0.57193731E+03</pdfrwt>
<totfact> 0.10888182E+01</totfact>
</mgrwt>
</event>
<event>
 4    1  0.2061941E-008  0.7950433E+03  0.7818608E-02  0.9567220E-01
         -2   -1    0    0    0  501 -0.00000000000E+00  0.00000000000E+00  0.83838488561E+03  0.83838488561E+03  0.25500000000E-02 0.  1.
          2   -1    0    0  501    0  0.00000000000E+00 -0.00000000000E+00 -0.18757132647E+04  0.18757132647E+04  0.25500000000E-02 0. -1.
    8880022    1    1    2    0    0 -0.63936829921E+03  0.44711344468E+03 -0.15681206075E+04  0.17581513436E+04  0.15294330000E+03 0.  0.
    8880022    1    1    2    0    0  0.63936829921E+03 -0.44711344468E+03  0.53079222840E+03  0.95594680668E+03  0.15294330000E+03 0.  0.
<mgrwt>
<rscale>  0 0.79504334E+03</rscale>
<asrwt>0</asrwt>
<pdfrwt beam="1">  1        2 0.28857127E+00 0.79504334E+03</pdfrwt>
<pdfrwt beam="2">  1       -2 0.12898229E+00 0.79504334E+03</pdfrwt>
<totfact> 0.35608179E+00</totfact>
</mgrwt>
</event>
<event>
 4    1  0.2061941E-008  0.2067162E+04  0.7818608E-02  0.8575848E-01
         -2   -1    0    0    0  501 -0.00000000000E+00  0.00000000000E+00  0.27837288177E+04  0.27837288177E+04  0.25500000000E-02 0.  1.
          2   -1    0    0  501    0  0.00000000000E+00 -0.00000000000E+00 -0.33840227410E+04  0.33840227410E+04  0.25500000000E-02 0. -1.
    8880022    1    1    2    0    0 -0.20057029619E+04 -0.47636610922E+03 -0.25796784086E+04  0.33057376463E+04  0.15294330000E+03 0.  0.
    8880022    1    1    2    0    0  0.20057029619E+04  0.47636610922E+03  0.19793844853E+04  0.28620139125E+04  0.15294330000E+03 0.  0.
<mgrwt>
<rscale>  0 0.20671625E+04</rscale>
<asrwt>0</asrwt>
<pdfrwt beam="1">  1        2 0.52061888E+00 0.20671625E+04</pdfrwt>
<pdfrwt beam="2">  1       -2 0.42826597E+00 0.20671625E+04</pdfrwt>
<totfact> 0.41147718E-03</totfact>
</mgrwt>
</event>
<event>
 4    1  0.2061941E-008  0.1722385E+04  0.7818608E-02  0.8748699E-01
          2   -1    0    0  501    0  0.00000000000E+00  0.00000000000E+00  0.32370507308E+04  0.32370507308E+04  0.25500000000E-02 0. -1.
         -2   -1    0    0    0  501 -0.00000000000E+00 -0.00000000000E+00 -0.98792083112E+03  0.98792083112E+03  0.25500000000E-02 0.  1.
    8880022    1    1    2    0    0  0.85500458004E+03  0.14873422654E+04  0.16927395122E+04  0.24149489757E+04  0.15294330000E+03 0.  0.
    8880022    1    1    2    0    0 -0.85500458004E+03 -0.14873422654E+04  0.55639038751E+03  0.18100225862E+04  0.15294330000E+03 0.  0.
<mgrwt>
<rscale>  0 0.17223854E+04</rscale>
<asrwt>0</asrwt>
<pdfrwt beam="1">  1        2 0.49800781E+00 0.17223854E+04</pdfrwt>
<pdfrwt beam="2">  1       -2 0.15198782E+00 0.17223854E+04</pdfrwt>
<totfact> 0.32868358E-01</totfact>
</mgrwt>
</event>
<event>
 4    1  0.2061941E-008  0.1109265E+04  0.7818608E-02  0.9196208E-01
         -2   -1    0    0    0  501 -0.00000000000E+00  0.00000000000E+00  0.62463519784E+03  0.62463519785E+03  0.25500000000E-02 0.  1.
          2   -1    0    0  501    0  0.00000000000E+00 -0.00000000000E+00 -0.23753209279E+04  0.23753209279E+04  0.25500000000E-02 0. -1.
    8880022    1    1    2    0    0 -0.58916441225E+03 -0.92734146328E+03 -0.25564910397E+03  0.11383430992E+04  0.15294330000E+03 0.  0.
    8880022    1    1    2    0    0  0.58916441225E+03  0.92734146328E+03 -0.14950366261E+04  0.18616130266E+04  0.15294330000E+03 0.  0.
<mgrwt>
<rscale>  0 0.11092649E+04</rscale>
<asrwt>0</asrwt>
<pdfrwt beam="1">  1        2 0.36543399E+00 0.11092649E+04</pdfrwt>
<pdfrwt beam="2">  1       -2 0.96097724E-01 0.11092649E+04</pdfrwt>
<totfact> 0.36994214E+00</totfact>
</mgrwt>
</event>
<event>
 4    1  0.2061941E-008  0.3492429E+03  0.7818608E-02  0.1062926E+00
          2   -1    0    0  501    0  0.00000000000E+00  0.00000000000E+00  0.23081718960E+04  0.23081718960E+04  0.25500000000E-02 0. -1.
         -2   -1    0    0    0  501 -0.00000000000E+00 -0.00000000000E+00 -0.73603536482E+03  0.73603536483E+03  0.25500000000E-02 0.  1.
    8880022    1    1    2    0    0  0.65092538625E+02  0.30715130248E+03 -0.68037882627E+03  0.76477837408E+03  0.15294330000E+03 0.  1.
    8880022    1    1    2    0    0 -0.65092538625E+02 -0.30715130248E+03  0.22525153575E+04  0.22794288868E+04  0.15294330000E+03 0.  0.
<mgrwt>
<rscale>  0 0.34924292E+03</rscale>
<asrwt>0</asrwt>
<pdfrwt beam="1">  1        2 0.35510337E+00 0.34924292E+03</pdfrwt>
<pdfrwt beam="2">  1       -2 0.11323621E+00 0.34924292E+03</pdfrwt>
<totfact> 0.31988434E+00</totfact>
</mgrwt>
</event>
<event>
 4    1  0.2061941E-008  0.7164532E+03  0.7818608E-02  0.9689502E-01
         -2   -1    0    0    0  501 -0.00000000000E+00  0.00000000000E+00  0.65493212669E+03  0.65493212670E+03  0.25500000000E-02 0.  1.
          2   -1    0    0  501    0  0.00000000000E+00 -0.00000000000E+00 -0.88950812463E+03  0.88950812464E+03  0.25500000000E-02 0. -1.
    8880022    1    1    2    0    0  0.20702824558E+03  0.66862007769E+03 -0.38355444319E+03  0.81266177876E+03  0.15294330000E+03 0.  0.
    8880022    1    1    2    0    0 -0.20702824558E+03 -0.66862007769E+03  0.14897844525E+03  0.73177847257E+03  0.15294330000E+03 0.  0.
<mgrwt>
<rscale>  0 0.71645318E+03</rscale>
<asrwt>0</asrwt>
<pdfrwt beam="1">  1        2 0.13684740E+00 0.71645318E+03</pdfrwt>
<pdfrwt beam="2">  1       -2 0.10075879E+00 0.71645318E+03</pdfrwt>
<totfact> 0.24629974E+01</totfact>
</mgrwt>
</event>
<event>
 4    1  0.2061941E-008  0.1593639E+04  0.7818608E-02  0.8824465E-01
          2   -1    0    0  501    0  0.00000000000E+00  0.00000000000E+00  0.21750914316E+04  0.21750914316E+04  0.25500000000E-02 0. -1.
         -2   -1    0    0    0  501 -0.00000000000E+00 -0.00000000000E+00 -0.20345232209E+04  0.20345232209E+04  0.25500000000E-02 0.  1.
    8880022    1    1    2    0    0 -0.31114171599E+03 -0.15554691296E+04  0.14442178161E+04  0.21506859682E+04  0.15294330000E+03 0.  0.
    8880022    1    1    2    0    0  0.31114171599E+03  0.15554691296E+04 -0.13036496054E+04  0.20589286843E+04  0.15294330000E+03 0.  0.
<mgrwt>
<rscale>  0 0.15936389E+04</rscale>
<asrwt>0</asrwt>
<pdfrwt beam="1">  1        2 0.33462945E+00 0.15936389E+04</pdfrwt>
<pdfrwt beam="2">  1       -2 0.31300357E+00 0.15936389E+04</pdfrwt>
<totfact> 0.13078948E-01</totfact>
</mgrwt>
</event>
<event>
 4    1  0.2061941E-008  0.7472838E+03  0.7818608E-02  0.9639621E-01
          2   -1    0    0  501    0  0.00000000000E+00  0.00000000000E+00  0.23626391020E+04  0.23626391021E+04  0.25500000000E-02 0. -1.
         -2   -1    0    0    0  501 -0.00000000000E+00 -0.00000000000E+00 -0.43328329316E+03  0.43328329317E+03  0.25500000000E-02 0.  1.
    8880022    1    1    2    0    0  0.30741359289E+03 -0.66373055398E+03  0.19071269050E+04  0.20483080945E+04  0.15294330000E+03 0.  0.
    8880022    1    1    2    0    0 -0.30741359289E+03  0.66373055398E+03  0.22228903883E+02  0.74761430067E+03  0.15294330000E+03 0.  0.
<mgrwt>
<rscale>  0 0.74728376E+03</rscale>
<asrwt>0</asrwt>
<pdfrwt beam="1">  1        2 0.36348294E+00 0.74728376E+03</pdfrwt>
<pdfrwt beam="2">  1       -2 0.66658968E-01 0.74728376E+03</pdfrwt>
<totfact> 0.90266993E+00</totfact>
</mgrwt>
</event>
<event>
 4    1  0.2061941E-008  0.7127859E+03  0.7818608E-02  0.9695613E-01
         -2   -1    0    0    0  501 -0.00000000000E+00  0.00000000000E+00  0.92571156009E+03  0.92571156010E+03  0.25500000000E-02 0.  1.
          2   -1    0    0  501    0  0.00000000000E+00 -0.00000000000E+00 -0.77515560879E+03  0.77515560879E+03  0.25500000000E-02 0. -1.
    8880022    1    1    2    0    0 -0.68170210035E+03 -0.14125968121E+03 -0.38424494415E+03  0.80975791523E+03  0.15294330000E+03 0.  0.
    8880022    1    1    2    0    0  0.68170210035E+03  0.14125968121E+03  0.53480089546E+03  0.89110925366E+03  0.15294330000E+03 0.  0.
<mgrwt>
<rscale>  0 0.71278588E+03</rscale>
<asrwt>0</asrwt>
<pdfrwt beam="1">  1        2 0.11925471E+00 0.71278588E+03</pdfrwt>
<pdfrwt beam="2">  1       -2 0.14241716E+00 0.71278588E+03</pdfrwt>
<totfact> 0.12578152E+01</totfact>
</mgrwt>
</event>
<event>
 4    1  0.2515760E-008  0.1261114E+04  0.7818608E-02  0.9060984E-01
         -2   -1    0    0    0  501 -0.00000000000E+00  0.00000000000E+00  0.12623845276E+04  0.12623845276E+04  0.25500000000E-02 0.  1.
          2   -1    0    0  501    0  0.00000000000E+00 -0.00000000000E+00 -0.30510640569E+04  0.30510640569E+04  0.25500000000E-02 0. -1.
    8880022    1    1    2    0    0  0.72686127633E+03 -0.10191610359E+04  0.75816751041E+03  0.14714707469E+04  0.15294330000E+03 0.  0.
    8880022    1    1    2    0    0 -0.72686127633E+03  0.10191610359E+04 -0.25468470397E+04  0.28419778375E+04  0.15294330000E+03 0.  0.
<mgrwt>
<rscale>  0 0.12611139E+04</rscale>
<asrwt>0</asrwt>
<pdfrwt beam="1">  1        2 0.46939447E+00 0.12611139E+04</pdfrwt>
<pdfrwt beam="2">  1       -2 0.19421301E+00 0.12611139E+04</pdfrwt>
<totfact> 0.22887080E-01</totfact>
</mgrwt>
</event>
<event>
 4    1  0.2061941E-008  0.6317922E+03  0.7818608E-02  0.9841558E-01
          2   -1    0    0  501    0  0.00000000000E+00  0.00000000000E+00  0.29015155873E+04  0.29015155873E+04  0.25500000000E-02 0. -1.
         -2   -1    0    0    0  501 -0.00000000000E+00 -0.00000000000E+00 -0.56352299220E+03  0.56352299221E+03  0.25500000000E-02 0.  1.
    8880022    1    1    2    0    0  0.51295879923E+03 -0.33562330920E+03  0.26752672975E+04  0.27488573083E+04  0.15294330000E+03 0.  0.
    8880022    1    1    2    0    0 -0.51295879923E+03  0.33562330920E+03 -0.33727470237E+03  0.71618127123E+03  0.15294330000E+03 0.  0.
<mgrwt>
<rscale>  0 0.63179220E+03</rscale>
<asrwt>0</asrwt>
<pdfrwt beam="1">  1        2 0.44638700E+00 0.63179220E+03</pdfrwt>
<pdfrwt beam="2">  1       -2 0.86695847E-01 0.63179220E+03</pdfrwt>
<totfact> 0.25221016E+00</totfact>
</mgrwt>
</event>
<event>
 4    1  0.2061941E-008  0.7503484E+03  0.7818608E-02  0.9634804E-01
          2   -1    0    0  501    0  0.00000000000E+00  0.00000000000E+00  0.14222118850E+04  0.14222118850E+04  0.25500000000E-02 0. -1.
         -2   -1    0    0    0  501 -0.00000000000E+00 -0.00000000000E+00 -0.94100102814E+03  0.94100102814E+03  0.25500000000E-02 0.  1.
    8880022    1    1    2    0    0  0.69188199173E+03  0.24684073637E+03 -0.65873680368E+03  0.99847727523E+03  0.15294330000E+03 0.  0.
    8880022    1    1    2    0    0 -0.69188199173E+03 -0.24684073637E+03  0.11399476606E+04  0.13647356379E+04  0.15294330000E+03 0.  0.
<mgrwt>
<rscale>  0 0.75034838E+03</rscale>
<asrwt>0</asrwt>
<pdfrwt beam="1">  1        2 0.21880183E+00 0.75034838E+03</pdfrwt>
<pdfrwt beam="2">  1       -2 0.14476939E+00 0.75034838E+03</pdfrwt>
<totfact> 0.47385185E+00</totfact>
</mgrwt>
</event>
<event>
 4    1  0.2061941E-008  0.4957096E+03  0.7818608E-02  0.1014905E+00
         -2   -1    0    0    0  501 -0.00000000000E+00  0.00000000000E+00  0.29699584159E+03  0.29699584160E+03  0.25500000000E-02 0.  1.
          2   -1    0    0  501    0  0.00000000000E+00 -0.00000000000E+00 -0.11042600843E+04  0.11042600843E+04  0.25500000000E-02 0. -1.
    8880022    1    1    2    0    0 -0.13840925040E+03 -0.45075411619E+03 -0.75446365547E+03  0.90274218596E+03  0.15294330000E+03 0.  0.
    8880022    1    1    2    0    0  0.13840925040E+03  0.45075411619E+03 -0.52800587200E+02  0.49851373992E+03  0.15294330000E+03 0.  0.
<mgrwt>
<rscale>  0 0.49570964E+03</rscale>
<asrwt>0</asrwt>
<pdfrwt beam="1">  1        2 0.16988617E+00 0.49570964E+03</pdfrwt>
<pdfrwt beam="2">  1       -2 0.45691668E-01 0.49570964E+03</pdfrwt>
<totfact> 0.10217575E+02</totfact>
</mgrwt>
</event>
<event>
 4    1  0.2061941E-008  0.4986555E+03  0.7818608E-02  0.1014130E+00
         -2   -1    0    0    0  501 -0.00000000000E+00  0.00000000000E+00  0.76456573240E+03  0.76456573241E+03  0.25500000000E-02 0.  1.
          2   -1    0    0  501    0  0.00000000000E+00 -0.00000000000E+00 -0.66697855373E+03  0.66697855374E+03  0.25500000000E-02 0. -1.
    8880022    1    1    2    0    0 -0.44859890148E+03  0.15499902415E+03  0.56115237161E+03  0.75069921345E+03  0.15294330000E+03 0.  0.
    8880022    1    1    2    0    0  0.44859890148E+03 -0.15499902415E+03 -0.46356519294E+03  0.68084507270E+03  0.15294330000E+03 0.  0.
<mgrwt>
<rscale>  0 0.49865552E+03</rscale>
<asrwt>0</asrwt>
<pdfrwt beam="1">  1        2 0.10261209E+00 0.49865552E+03</pdfrwt>
<pdfrwt beam="2">  1       -2 0.11762550E+00 0.49865552E+03</pdfrwt>
<totfact> 0.25290607E+01</totfact>
</mgrwt>
</event>
<event>
 4    1  0.2061941E-008  0.6468018E+03  0.7818608E-02  0.9812799E-01
         -2   -1    0    0    0  501 -0.00000000000E+00  0.00000000000E+00  0.37984865166E+03  0.37984865167E+03  0.25500000000E-02 0.  1.
          2   -1    0    0  501    0  0.00000000000E+00 -0.00000000000E+00 -0.24235988322E+04  0.24235988322E+04  0.25500000000E-02 0. -1.
    8880022    1    1    2    0    0 -0.30648199794E+03 -0.54866172750E+03 -0.20572221568E+04  0.21565054050E+04  0.15294330000E+03 0.  0.
    8880022    1    1    2    0    0  0.30648199794E+03  0.54866172750E+03  0.13471976258E+02  0.64694207890E+03  0.15294330000E+03 0.  0.
<mgrwt>
<rscale>  0 0.64680179E+03</rscale>
<asrwt>0</asrwt>
<pdfrwt beam="1">  1        2 0.37286135E+00 0.64680179E+03</pdfrwt>
<pdfrwt beam="2">  1       -2 0.58438256E-01 0.64680179E+03</pdfrwt>
<totfact> 0.11240311E+01</totfact>
</mgrwt>
</event>
<event>
 4    1  0.2061941E-008  0.7747108E+03  0.7818608E-02  0.9597361E-01
          2   -1    0    0  501    0  0.00000000000E+00  0.00000000000E+00  0.19560441901E+04  0.19560441901E+04  0.25500000000E-02 0. -1.
         -2   -1    0    0    0  501 -0.00000000000E+00 -0.00000000000E+00 -0.59633948990E+03  0.59633948991E+03  0.25500000000E-02 0.  1.
    8880022    1    1    2    0    0 -0.74597004829E+03  0.14252677811E+03 -0.20934696584E+03  0.80249797541E+03  0.15294330000E+03 0.  1.
    8880022    1    1    2    0    0  0.74597004829E+03 -0.14252677811E+03  0.15690516660E+04  0.17498857046E+04  0.15294330000E+03 0.  0.
<mgrwt>
<rscale>  0 0.77471082E+03</rscale>
<asrwt>0</asrwt>
<pdfrwt beam="1">  1        2 0.30092987E+00 0.77471082E+03</pdfrwt>
<pdfrwt beam="2">  1       -2 0.91744538E-01 0.77471082E+03</pdfrwt>
<totfact> 0.73647238E+00</totfact>
</mgrwt>
</event>
<event>
 4    1  0.2061941E-008  0.7677447E+03  0.7818608E-02  0.9607916E-01
          2   -1    0    0  501    0  0.00000000000E+00  0.00000000000E+00  0.32026773416E+04  0.32026773416E+04  0.25500000000E-02 0. -1.
         -2   -1    0    0    0  501 -0.00000000000E+00 -0.00000000000E+00 -0.19570661295E+03  0.19570661297E+03  0.25500000000E-02 0.  1.
    8880022    1    1    2    0    0 -0.75173124665E+03  0.30665688910E+02  0.10886773034E+04  0.13321599662E+04  0.15294330000E+03 0.  0.
    8880022    1    1    2    0    0  0.75173124665E+03 -0.30665688910E+02  0.19182934253E+04  0.20662239884E+04  0.15294330000E+03 0.  0.
<mgrwt>
<rscale>  0 0.76774469E+03</rscale>
<asrwt>0</asrwt>
<pdfrwt beam="1">  1        2 0.49271958E+00 0.76774469E+03</pdfrwt>
<pdfrwt beam="2">  1       -2 0.30108710E-01 0.76774469E+03</pdfrwt>
<totfact> 0.13996965E+01</totfact>
</mgrwt>
</event>
<event>
 4    1  0.2061941E-008  0.3670769E+03  0.7818608E-02  0.1055816E+00
         -2   -1    0    0    0  501 -0.00000000000E+00  0.00000000000E+00  0.20925997403E+03  0.20925997404E+03  0.25500000000E-02 0.  1.
          2   -1    0    0  501    0  0.00000000000E+00 -0.00000000000E+00 -0.16105118209E+04  0.16105118209E+04  0.25500000000E-02 0. -1.
    8880022    1    1    2    0    0  0.23754888209E+03  0.23435943111E+03 -0.14055264548E+04  0.14526699840E+04  0.15294330000E+03 0.  0.
    8880022    1    1    2    0    0 -0.23754888209E+03 -0.23435943111E+03  0.42746078651E+01  0.36710181098E+03  0.15294330000E+03 0.  0.
<mgrwt>
<rscale>  0 0.36707692E+03</rscale>
<asrwt>0</asrwt>
<pdfrwt beam="1">  1        2 0.24777104E+00 0.36707692E+03</pdfrwt>
<pdfrwt beam="2">  1       -2 0.32193843E-01 0.36707692E+03</pdfrwt>
<totfact> 0.10591715E+02</totfact>
</mgrwt>
</event>
<event>
 4    1  0.2275501E-008  0.1571259E+04  0.7818608E-02  0.8838402E-01
          2   -1    0    0  501    0  0.00000000000E+00  0.00000000000E+00  0.28478295037E+04  0.28478295037E+04  0.25500000000E-02 0. -1.
         -2   -1    0    0    0  501 -0.00000000000E+00 -0.00000000000E+00 -0.21720123014E+04  0.21720123014E+04  0.25500000000E-02 0.  1.
    8880022    1    1    2    0    0  0.12012072583E+04 -0.10012817929E+04 -0.16076692292E+04  0.22479893483E+04  0.15294330000E+03 0.  0.
    8880022    1    1    2    0    0 -0.12012072583E+04  0.10012817929E+04  0.22834864315E+04  0.27718524568E+04  0.15294330000E+03 0.  0.
<mgrwt>
<rscale>  0 0.15712593E+04</rscale>
<asrwt>0</asrwt>
<pdfrwt beam="1">  1        2 0.43812762E+00 0.15712593E+04</pdfrwt>
<pdfrwt beam="2">  1       -2 0.33415574E+00 0.15712593E+04</pdfrwt>
<totfact> 0.39389733E-02</totfact>
</mgrwt>
</event>
<event>
 4    1  0.2061941E-008  0.6440207E+03  0.7818608E-02  0.9818064E-01
         -2   -1    0    0    0  501 -0.00000000000E+00  0.00000000000E+00  0.84886921773E+03  0.84886921773E+03  0.25500000000E-02 0.  1.
          2   -1    0    0  501    0  0.00000000000E+00 -0.00000000000E+00 -0.27099014142E+04  0.27099014142E+04  0.25500000000E-02 0. -1.
    8880022    1    1    2    0    0  0.44897063341E+03  0.43565623042E+03  0.68048713424E+03  0.93692335526E+03  0.15294330000E+03 0.  0.
    8880022    1    1    2    0    0 -0.44897063341E+03 -0.43565623042E+03 -0.25415193307E+04  0.26218472767E+04  0.15294330000E+03 0.  0.
<mgrwt>
<rscale>  0 0.64402068E+03</rscale>
<asrwt>0</asrwt>
<pdfrwt beam="1">  1        2 0.41690791E+00 0.64402068E+03</pdfrwt>
<pdfrwt beam="2">  1       -2 0.13059527E+00 0.64402068E+03</pdfrwt>
<totfact> 0.12197840E+00</totfact>
</mgrwt>
</event>
<event>
 4    1  0.2061941E-008  0.5849148E+03  0.7818608E-02  0.9937207E-01
         -2   -1    0    0    0  501 -0.00000000000E+00  0.00000000000E+00  0.25969307981E+03  0.25969307982E+03  0.25500000000E-02 0.  1.
          2   -1    0    0  501    0  0.00000000000E+00 -0.00000000000E+00 -0.28875177383E+04  0.28875177383E+04  0.25500000000E-02 0. -1.
    8880022    1    1    2    0    0 -0.37536288100E+03  0.42170643979E+03 -0.15354194691E+03  0.60473167295E+03  0.15294330000E+03 0.  0.
    8880022    1    1    2    0    0  0.37536288100E+03 -0.42170643979E+03 -0.24742827115E+04  0.25424791451E+04  0.15294330000E+03 0. -1.
<mgrwt>
<rscale>  0 0.58491475E+03</rscale>
<asrwt>0</asrwt>
<pdfrwt beam="1">  1        2 0.44423348E+00 0.58491475E+03</pdfrwt>
<pdfrwt beam="2">  1       -2 0.39952783E-01 0.58491475E+03</pdfrwt>
<totfact> 0.13251606E+01</totfact>
</mgrwt>
</event>
<event>
 4    1  0.2061941E-008  0.8151681E+03  0.7818608E-02  0.9538318E-01
          2   -1    0    0  501    0  0.00000000000E+00  0.00000000000E+00  0.10793608294E+04  0.10793608294E+04  0.25500000000E-02 0. -1.
         -2   -1    0    0    0  501 -0.00000000000E+00 -0.00000000000E+00 -0.81118650311E+03  0.81118650311E+03  0.25500000000E-02 0.  1.
    8880022    1    1    2    0    0  0.44689350727E+03 -0.66437459973E+03  0.59819705121E+03  0.10111076998E+04  0.15294330000E+03 0.  0.
    8880022    1    1    2    0    0 -0.44689350727E+03  0.66437459973E+03 -0.33002272489E+03  0.87943963270E+03  0.15294330000E+03 0.  0.
<mgrwt>
<rscale>  0 0.81516812E+03</rscale>
<asrwt>0</asrwt>
<pdfrwt beam="1">  1        2 0.16605551E+00 0.81516812E+03</pdfrwt>
<pdfrwt beam="2">  1       -2 0.12479792E+00 0.81516812E+03</pdfrwt>
<totfact> 0.10916779E+01</totfact>
</mgrwt>
</event>
<event>
 4    1  0.2061941E-008  0.4456509E+03  0.7818608E-02  0.1029027E+00
         -2   -1    0    0    0  501 -0.00000000000E+00  0.00000000000E+00  0.28127585679E+03  0.28127585680E+03  0.25500000000E-02 0.  1.
          2   -1    0    0  501    0  0.00000000000E+00 -0.00000000000E+00 -0.12871651383E+04  0.12871651383E+04  0.25500000000E-02 0. -1.
    8880022    1    1    2    0    0  0.41728586923E+03  0.32947514646E+02  0.23968509443E+02  0.44629494490E+03  0.15294330000E+03 0.  1.
    8880022    1    1    2    0    0 -0.41728586923E+03 -0.32947514646E+02 -0.10298577909E+04  0.11221460502E+04  0.15294330000E+03 0.  0.
<mgrwt>
<rscale>  0 0.44565086E+03</rscale>
<asrwt>0</asrwt>
<pdfrwt beam="1">  1        2 0.19802540E+00 0.44565086E+03</pdfrwt>
<pdfrwt beam="2">  1       -2 0.43273210E-01 0.44565086E+03</pdfrwt>
<totfact> 0.89551149E+01</totfact>
</mgrwt>
</event>
<event>
 4    1  0.2061941E-008  0.1519883E+04  0.7818608E-02  0.8871337E-01
         -2   -1    0    0    0  501 -0.00000000000E+00  0.00000000000E+00  0.16155778118E+04  0.16155778118E+04  0.25500000000E-02 0.  1.
          2   -1    0    0  501    0  0.00000000000E+00 -0.00000000000E+00 -0.33639820134E+04  0.33639820134E+04  0.25500000000E-02 0. -1.
    8880022    1    1    2    0    0 -0.98216423961E+03 -0.11497857219E+04  0.10136865794E+04  0.18269115836E+04  0.15294330000E+03 0.  0.
    8880022    1    1    2    0    0  0.98216423961E+03  0.11497857219E+04 -0.27620907810E+04  0.31526482416E+04  0.15294330000E+03 0.  0.
<mgrwt>
<rscale>  0 0.15198834E+04</rscale>
<asrwt>0</asrwt>
<pdfrwt beam="1">  1        2 0.51753569E+00 0.15198834E+04</pdfrwt>
<pdfrwt beam="2">  1       -2 0.24855043E+00 0.15198834E+04</pdfrwt>
<totfact> 0.62307186E-02</totfact>
</mgrwt>
</event>
<event>
 4    1  0.2061941E-008  0.5391394E+03  0.7818608E-02  0.1004039E+00
         -2   -1    0    0    0  501 -0.00000000000E+00  0.00000000000E+00  0.68600479470E+03  0.68600479470E+03  0.25500000000E-02 0.  1.
          2   -1    0    0  501    0  0.00000000000E+00 -0.00000000000E+00 -0.20977650071E+04  0.20977650071E+04  0.25500000000E-02 0. -1.
    8880022    1    1    2    0    0  0.23170117474E+03  0.46216253380E+03 -0.19492746939E+04  0.20224596726E+04  0.15294330000E+03 0.  0.
    8880022    1    1    2    0    0 -0.23170117474E+03 -0.46216253380E+03  0.53751448148E+03  0.76131012921E+03  0.15294330000E+03 0.  0.
<mgrwt>
<rscale>  0 0.53913940E+03</rscale>
<asrwt>0</asrwt>
<pdfrwt beam="1">  1        2 0.32273307E+00 0.53913940E+03</pdfrwt>
<pdfrwt beam="2">  1       -2 0.10553920E+00 0.53913940E+03</pdfrwt>
<totfact> 0.46376744E+00</totfact>
</mgrwt>
</event>
<event>
 4    1  0.2061941E-008  0.3474054E+03  0.7818608E-02  0.1063685E+00
          2   -1    0    0  501    0  0.00000000000E+00  0.00000000000E+00  0.25764732243E+04  0.25764732243E+04  0.25500000000E-02 0. -1.
         -2   -1    0    0    0  501 -0.00000000000E+00 -0.00000000000E+00 -0.50537165933E+03  0.50537165934E+03  0.25500000000E-02 0.  1.
    8880022    1    1    2    0    0  0.27958972980E+03 -0.13830572518E+03 -0.43222065651E+03  0.55453154965E+03  0.15294330000E+03 0.  0.
    8880022    1    1    2    0    0 -0.27958972980E+03  0.13830572518E+03  0.25033222215E+04  0.25273133340E+04  0.15294330000E+03 0.  0.
<mgrwt>
<rscale>  0 0.34740545E+03</rscale>
<asrwt>0</asrwt>
<pdfrwt beam="1">  1        2 0.39638049E+00 0.34740545E+03</pdfrwt>
<pdfrwt beam="2">  1       -2 0.77749487E-01 0.34740545E+03</pdfrwt>
<totfact> 0.54251550E+00</totfact>
</mgrwt>
</event>
<event>
 4    1  0.2061941E-008  0.7748178E+03  0.7818608E-02  0.9597200E-01
         -2   -1    0    0    0  501 -0.00000000000E+00  0.00000000000E+00  0.26765274106E+03  0.26765274107E+03  0.25500000000E-02 0.  1.
          2   -1    0    0  501    0  0.00000000000E+00 -0.00000000000E+00 -0.31483194291E+04  0.31483194291E+04  0.25500000000E-02 0. -1.
    8880022    1    1    2    0    0  0.28257709368E+03  0.70505399584E+03 -0.52443328060E+03  0.93561363273E+03  0.15294330000E+03 0.  0.
    8880022    1    1    2    0    0 -0.28257709368E+03 -0.70505399584E+03 -0.23562334074E+04  0.24803585374E+04  0.15294330000E+03 0.  0.
<mgrwt>
<rscale>  0 0.77481779E+03</rscale>
<asrwt>0</asrwt>
<pdfrwt beam="1">  1        2 0.48435681E+00 0.77481779E+03</pdfrwt>
<pdfrwt beam="2">  1       -2 0.41177347E-01 0.77481779E+03</pdfrwt>
<totfact> 0.83273488E+00</totfact>
</mgrwt>
</event>
<event>
 4    1  0.2061941E-008  0.1127731E+04  0.7818608E-02  0.9178577E-01
          2   -1    0    0  501    0  0.00000000000E+00  0.00000000000E+00  0.32276359654E+04  0.32276359654E+04  0.25500000000E-02 0. -1.
         -2   -1    0    0    0  501 -0.00000000000E+00 -0.00000000000E+00 -0.99239625328E+03  0.99239625328E+03  0.25500000000E-02 0.  1.
    8880022    1    1    2    0    0 -0.37523704557E+03 -0.10524177106E+04  0.27560489220E+04  0.29778487523E+04  0.15294330000E+03 0.  0.
    8880022    1    1    2    0    0  0.37523704557E+03  0.10524177106E+04 -0.52080920990E+03  0.12421834664E+04  0.15294330000E+03 0.  0.
<mgrwt>
<rscale>  0 0.11277311E+04</rscale>
<asrwt>0</asrwt>
<pdfrwt beam="1">  1        2 0.49655939E+00 0.11277311E+04</pdfrwt>
<pdfrwt beam="2">  1       -2 0.15267634E+00 0.11277311E+04</pdfrwt>
<totfact> 0.35560733E-01</totfact>
</mgrwt>
</event>
<event>
 4    1  0.2061941E-008  0.3959723E+03  0.7818608E-02  0.1045183E+00
         -2   -1    0    0    0  501 -0.00000000000E+00  0.00000000000E+00  0.17519218543E+03  0.17519218544E+03  0.25500000000E-02 0.  1.
          2   -1    0    0  501    0  0.00000000000E+00 -0.00000000000E+00 -0.15755840910E+04  0.15755840910E+04  0.25500000000E-02 0. -1.
    8880022    1    1    2    0    0 -0.33840981442E+03 -0.13740898413E+03 -0.12755379560E+04  0.13355864485E+04  0.15294330000E+03 0. -1.
    8880022    1    1    2    0    0  0.33840981442E+03  0.13740898413E+03 -0.12485394956E+03  0.41518982786E+03  0.15294330000E+03 0. -1.
<mgrwt>
<rscale>  0 0.39597233E+03</rscale>
<asrwt>0</asrwt>
<pdfrwt beam="1">  1        2 0.24239754E+00 0.39597233E+03</pdfrwt>
<pdfrwt beam="2">  1       -2 0.26952645E-01 0.39597233E+03</pdfrwt>
<totfact> 0.15232892E+02</totfact>
</mgrwt>
</event>
<event>
 4    1  0.2061941E-008  0.1140766E+04  0.7818608E-02  0.9166345E-01
         -2   -1    0    0    0  501 -0.00000000000E+00  0.00000000000E+00  0.59760684761E+03  0.59760684762E+03  0.25500000000E-02 0.  1.
          2   -1    0    0  501    0  0.00000000000E+00 -0.00000000000E+00 -0.39689970016E+04  0.39689970016E+04  0.25500000000E-02 0. -1.
    8880022    1    1    2    0    0 -0.88886276100E+03  0.69848334352E+03 -0.32196729233E+04  0.34157929351E+04  0.15294330000E+03 0.  0.
    8880022    1    1    2    0    0  0.88886276100E+03 -0.69848334352E+03 -0.15171723068E+03  0.11508109142E+04  0.15294330000E+03 0.  0.
<mgrwt>
<rscale>  0 0.11407663E+04</rscale>
<asrwt>0</asrwt>
<pdfrwt beam="1">  1        2 0.61061491E+00 0.11407663E+04</pdfrwt>
<pdfrwt beam="2">  1       -2 0.91939517E-01 0.11407663E+04</pdfrwt>
<totfact> 0.37325375E-01</totfact>
</mgrwt>
</event>
<event>
 4    1  0.2061941E-008  0.6370088E+03  0.7818608E-02  0.9831466E-01
          2   -1    0    0  501    0  0.00000000000E+00  0.00000000000E+00  0.14904180398E+04  0.14904180398E+04  0.25500000000E-02 0. -1.
         -2   -1    0    0    0  501 -0.00000000000E+00 -0.00000000000E+00 -0.29349462658E+03  0.29349462659E+03  0.25500000000E-02 0.  1.
    8880022    1    1    2    0    0  0.40150114181E+03 -0.47030351673E+03  0.83838514469E+03  0.10529339336E+04  0.15294330000E+03 0.  0.
    8880022    1    1    2    0    0 -0.40150114181E+03  0.47030351673E+03  0.35853826848E+03  0.73097873273E+03  0.15294330000E+03 0.  0.
<mgrwt>
<rscale>  0 0.63700881E+03</rscale>
<asrwt>0</asrwt>
<pdfrwt beam="1">  1        2 0.22929508E+00 0.63700881E+03</pdfrwt>
<pdfrwt beam="2">  1       -2 0.45153020E-01 0.63700881E+03</pdfrwt>
<totfact> 0.61780112E+01</totfact>
</mgrwt>
</event>
<event>
 4    1  0.2061941E-008  0.1497758E+04  0.7818608E-02  0.8885945E-01
          2   -1    0    0  501    0  0.00000000000E+00  0.00000000000E+00  0.13854700653E+04  0.13854700653E+04  0.25500000000E-02 0. -1.
         -2   -1    0    0    0  501 -0.00000000000E+00 -0.00000000000E+00 -0.22556801317E+04  0.22556801317E+04  0.25500000000E-02 0.  1.
    8880022    1    1    2    0    0  0.91055034389E+03  0.11793156404E+04 -0.14022254011E+04  0.20517102712E+04  0.15294330000E+03 0.  0.
    8880022    1    1    2    0    0 -0.91055034389E+03 -0.11793156404E+04  0.53201533471E+03  0.15894399258E+04  0.15294330000E+03 0.  0.
<mgrwt>
<rscale>  0 0.14977580E+04</rscale>
<asrwt>0</asrwt>
<pdfrwt beam="1">  1        2 0.21314924E+00 0.14977580E+04</pdfrwt>
<pdfrwt beam="2">  1       -2 0.34702771E+00 0.14977580E+04</pdfrwt>
<totfact> 0.22609205E-01</totfact>
</mgrwt>
</event>
<event>
 4    1  0.2061941E-008  0.1214629E+04  0.7818608E-02  0.9100147E-01
         -2   -1    0    0    0  501 -0.00000000000E+00  0.00000000000E+00  0.44824104042E+03  0.44824104043E+03  0.25500000000E-02 0.  1.
          2   -1    0    0  501    0  0.00000000000E+00 -0.00000000000E+00 -0.33027022294E+04  0.33027022294E+04  0.25500000000E-02 0. -1.
    8880022    1    1    2    0    0  0.10460926204E+04  0.59801568327E+03 -0.15371207501E+04  0.19590978488E+04  0.15294330000E+03 0.  0.
    8880022    1    1    2    0    0 -0.10460926204E+04 -0.59801568327E+03 -0.13173404389E+04  0.17918454210E+04  0.15294330000E+03 0.  0.
<mgrwt>
<rscale>  0 0.12146292E+04</rscale>
<asrwt>0</asrwt>
<pdfrwt beam="1">  1        2 0.50810802E+00 0.12146292E+04</pdfrwt>
<pdfrwt beam="2">  1       -2 0.68960162E-01 0.12146292E+04</pdfrwt>
<totfact> 0.21282791E+00</totfact>
</mgrwt>
</event>
<event>
 4    1  0.2061941E-008  0.1401181E+04  0.7818608E-02  0.8952964E-01
         -2   -1    0    0    0  501 -0.00000000000E+00  0.00000000000E+00  0.10458341835E+04  0.10458341835E+04  0.25500000000E-02 0.  1.
          2   -1    0    0  501    0  0.00000000000E+00 -0.00000000000E+00 -0.31602255349E+04  0.31602255349E+04  0.25500000000E-02 0. -1.
    8880022    1    1    2    0    0  0.13927613675E+04  0.11556178470E+02 -0.23971586654E+04  0.27766308887E+04  0.15294330000E+03 0.  0.
    8880022    1    1    2    0    0 -0.13927613675E+04 -0.11556178470E+02  0.28276731403E+03  0.14294288296E+04  0.15294330000E+03 0.  0.
<mgrwt>
<rscale>  0 0.14011814E+04</rscale>
<asrwt>0</asrwt>
<pdfrwt beam="1">  1        2 0.48618854E+00 0.14011814E+04</pdfrwt>
<pdfrwt beam="2">  1       -2 0.16089757E+00 0.14011814E+04</pdfrwt>
<totfact> 0.32763878E-01</totfact>
</mgrwt>
</event>
<event>
 4    1  0.2061941E-008  0.5838368E+03  0.7818608E-02  0.9939519E-01
          2   -1    0    0  501    0  0.00000000000E+00  0.00000000000E+00  0.13727803648E+04  0.13727803648E+04  0.25500000000E-02 0. -1.
         -2   -1    0    0    0  501 -0.00000000000E+00 -0.00000000000E+00 -0.72282313816E+03  0.72282313816E+03  0.25500000000E-02 0.  1.
    8880022    1    1    2    0    0 -0.33356477760E+03  0.45410168935E+03  0.11739448707E+04  0.13111109860E+04  0.15294330000E+03 0.  0.
    8880022    1    1    2    0    0  0.33356477760E+03 -0.45410168935E+03 -0.52398764403E+03  0.78449251701E+03  0.15294330000E+03 0.  0.
<mgrwt>
<rscale>  0 0.58383684E+03</rscale>
<asrwt>0</asrwt>
<pdfrwt beam="1">  1        2 0.21119698E+00 0.58383684E+03</pdfrwt>
<pdfrwt beam="2">  1       -2 0.11120356E+00 0.58383684E+03</pdfrwt>
<totfact> 0.10062541E+01</totfact>
</mgrwt>
</event>
<event>
 4    1  0.2061941E-008  0.8801228E+03  0.7818608E-02  0.9450776E-01
          2   -1    0    0  501    0  0.00000000000E+00  0.00000000000E+00  0.86735037235E+03  0.86735037236E+03  0.25500000000E-02 0. -1.
         -2   -1    0    0    0  501 -0.00000000000E+00 -0.00000000000E+00 -0.15751791593E+04  0.15751791593E+04  0.25500000000E-02 0.  1.
    8880022    1    1    2    0    0 -0.36282953048E+03  0.78713354043E+03 -0.11575655167E+04  0.14541575077E+04  0.15294330000E+03 0.  0.
    8880022    1    1    2    0    0  0.36282953048E+03 -0.78713354043E+03  0.44973672976E+03  0.98837202397E+03  0.15294330000E+03 0.  0.
<mgrwt>
<rscale>  0 0.88012279E+03</rscale>
<asrwt>0</asrwt>
<pdfrwt beam="1">  1        2 0.13343852E+00 0.88012279E+03</pdfrwt>
<pdfrwt beam="2">  1       -2 0.24233526E+00 0.88012279E+03</pdfrwt>
<totfact> 0.22369066E+00</totfact>
</mgrwt>
</event>
<event>
 4    1  0.2061941E-008  0.8516262E+03  0.7818608E-02  0.9488157E-01
         -2   -1    0    0    0  501 -0.00000000000E+00  0.00000000000E+00  0.99831946919E+03  0.99831946919E+03  0.25500000000E-02 0.  1.
          2   -1    0    0  501    0  0.00000000000E+00 -0.00000000000E+00 -0.16450937544E+04  0.16450937544E+04  0.25500000000E-02 0. -1.
    8880022    1    1    2    0    0 -0.23312568785E+02  0.83745571870E+03  0.66426564547E+03  0.10800537290E+04  0.15294330000E+03 0.  0.
    8880022    1    1    2    0    0  0.23312568785E+02 -0.83745571870E+03 -0.13110399307E+04  0.15633594947E+04  0.15294330000E+03 0.  0.
<mgrwt>
<rscale>  0 0.85162621E+03</rscale>
<asrwt>0</asrwt>
<pdfrwt beam="1">  1        2 0.25309135E+00 0.85162621E+03</pdfrwt>
<pdfrwt beam="2">  1       -2 0.15358761E+00 0.85162621E+03</pdfrwt>
<totfact> 0.30009545E+00</totfact>
</mgrwt>
</event>
<event>
 4    1  0.2061941E-008  0.1732815E+03  0.7818608E-02  0.1174468E+00
          2   -1    0    0  501    0  0.00000000000E+00  0.00000000000E+00  0.25717971370E+03  0.25717971371E+03  0.25500000000E-02 0. -1.
         -2   -1    0    0    0  501 -0.00000000000E+00 -0.00000000000E+00 -0.12033238818E+03  0.12033238821E+03  0.25500000000E-02 0.  1.
    8880022    1    1    2    0    0  0.71747960863E+02 -0.38562290964E+02  0.35868409690E+02  0.17695484170E+03  0.15294330000E+03 0. -1.
    8880022    1    1    2    0    0 -0.71747960863E+02  0.38562290964E+02  0.10097891583E+03  0.20055726022E+03  0.15294330000E+03 0.  1.
<mgrwt>
<rscale>  0 0.17328149E+03</rscale>
<asrwt>0</asrwt>
<pdfrwt beam="1">  1        2 0.39566109E-01 0.17328149E+03</pdfrwt>
<pdfrwt beam="2">  1       -2 0.18512675E-01 0.17328149E+03</pdfrwt>
<totfact> 0.30361719E+03</totfact>
</mgrwt>
</event>
<event>
 4    1  0.2061941E-008  0.6394366E+03  0.7818608E-02  0.9826805E-01
          2   -1    0    0  501    0  0.00000000000E+00  0.00000000000E+00  0.26283046481E+04  0.26283046481E+04  0.25500000000E-02 0. -1.
         -2   -1    0    0    0  501 -0.00000000000E+00 -0.00000000000E+00 -0.19303041342E+03  0.19303041343E+03  0.25500000000E-02 0.  1.
    8880022    1    1    2    0    0  0.91864500559E+02 -0.61404267940E+03  0.18390950874E+04  0.19470875409E+04  0.15294330000E+03 0.  0.
    8880022    1    1    2    0    0 -0.91864500559E+02  0.61404267940E+03  0.59617914728E+03  0.87424752059E+03  0.15294330000E+03 0.  0.
<mgrwt>
<rscale>  0 0.63943659E+03</rscale>
<asrwt>0</asrwt>
<pdfrwt beam="1">  1        2 0.40435456E+00 0.63943659E+03</pdfrwt>
<pdfrwt beam="2">  1       -2 0.29696987E-01 0.63943659E+03</pdfrwt>
<totfact> 0.32580216E+01</totfact>
</mgrwt>
</event>
<event>
 4    1  0.2061941E-008  0.3249593E+03  0.7818608E-02  0.1073389E+00
          2   -1    0    0  501    0  0.00000000000E+00  0.00000000000E+00  0.98419839709E+03  0.98419839709E+03  0.25500000000E-02 0. -1.
         -2   -1    0    0    0  501 -0.00000000000E+00 -0.00000000000E+00 -0.46404038702E+03  0.46404038703E+03  0.25500000000E-02 0.  1.
    8880022    1    1    2    0    0 -0.19762633596E+03 -0.20772759693E+03 -0.37483087275E+03  0.49608140398E+03  0.15294330000E+03 0.  0.
    8880022    1    1    2    0    0  0.19762633596E+03  0.20772759693E+03  0.89498888281E+03  0.95215738015E+03  0.15294330000E+03 0.  0.
<mgrwt>
<rscale>  0 0.32495935E+03</rscale>
<asrwt>0</asrwt>
<pdfrwt beam="1">  1        2 0.15141514E+00 0.32495935E+03</pdfrwt>
<pdfrwt beam="2">  1       -2 0.71390829E-01 0.32495935E+03</pdfrwt>
<totfact> 0.49250223E+01</totfact>
</mgrwt>
</event>
<event>
 4    1  0.2061941E-008  0.6259160E+03  0.7818608E-02  0.9853051E-01
          2   -1    0    0  501    0  0.00000000000E+00  0.00000000000E+00  0.22586771983E+04  0.22586771983E+04  0.25500000000E-02 0. -1.
         -2   -1    0    0    0  501 -0.00000000000E+00 -0.00000000000E+00 -0.35721286807E+03  0.35721286808E+03  0.25500000000E-02 0.  1.
    8880022    1    1    2    0    0 -0.46453590566E+03 -0.39062206960E+03  0.18888407236E+04  0.19898467632E+04  0.15294330000E+03 0.  0.
    8880022    1    1    2    0    0  0.46453590566E+03  0.39062206960E+03  0.12623606556E+02  0.62604330311E+03  0.15294330000E+03 0.  1.
<mgrwt>
<rscale>  0 0.62591602E+03</rscale>
<asrwt>0</asrwt>
<pdfrwt beam="1">  1        2 0.34748880E+00 0.62591602E+03</pdfrwt>
<pdfrwt beam="2">  1       -2 0.54955827E-01 0.62591602E+03</pdfrwt>
<totfact> 0.15831575E+01</totfact>
</mgrwt>
</event>
<event>
 4    1  0.2061941E-008  0.8017661E+03  0.7818608E-02  0.9557464E-01
          2   -1    0    0  501    0  0.00000000000E+00  0.00000000000E+00  0.25521533117E+04  0.25521533117E+04  0.25500000000E-02 0. -1.
         -2   -1    0    0    0  501 -0.00000000000E+00 -0.00000000000E+00 -0.78156764427E+03  0.78156764427E+03  0.25500000000E-02 0.  1.
    8880022    1    1    2    0    0 -0.10083241807E+03 -0.78055753083E+03 -0.48693772770E+03  0.93804969972E+03  0.15294330000E+03 0.  0.
    8880022    1    1    2    0    0  0.10083241807E+03  0.78055753083E+03  0.22575233952E+04  0.23956712563E+04  0.15294330000E+03 0.  0.
<mgrwt>
<rscale>  0 0.80176611E+03</rscale>
<asrwt>0</asrwt>
<pdfrwt beam="1">  1        2 0.39263897E+00 0.80176611E+03</pdfrwt>
<pdfrwt beam="2">  1       -2 0.12024118E+00 0.80176611E+03</pdfrwt>
<totfact> 0.17871488E+00</totfact>
</mgrwt>
</event>
<event>
 4    1  0.2061941E-008  0.1215921E+04  0.7818608E-02  0.9099034E-01
          2   -1    0    0  501    0  0.00000000000E+00  0.00000000000E+00  0.26700924597E+04  0.26700924597E+04  0.25500000000E-02 0. -1.
         -2   -1    0    0    0  501 -0.00000000000E+00 -0.00000000000E+00 -0.13342685175E+04  0.13342685175E+04  0.25500000000E-02 0.  1.
    8880022    1    1    2    0    0  0.15579267569E+03 -0.11961608492E+04 -0.86347032104E+03  0.14913231653E+04  0.15294330000E+03 0.  0.
    8880022    1    1    2    0    0 -0.15579267569E+03  0.11961608492E+04  0.21992942633E+04  0.25130378120E+04  0.15294330000E+03 0.  0.
<mgrwt>
<rscale>  0 0.12159210E+04</rscale>
<asrwt>0</asrwt>
<pdfrwt beam="1">  1        2 0.41078345E+00 0.12159210E+04</pdfrwt>
<pdfrwt beam="2">  1       -2 0.20527208E+00 0.12159210E+04</pdfrwt>
<totfact> 0.33161214E-01</totfact>
</mgrwt>
</event>
<event>
 4    1  0.2061941E-008  0.8018125E+03  0.7818608E-02  0.9557397E-01
         -2   -1    0    0    0  501 -0.00000000000E+00  0.00000000000E+00  0.22526122177E+04  0.22526122177E+04  0.25500000000E-02 0.  1.
          2   -1    0    0  501    0  0.00000000000E+00 -0.00000000000E+00 -0.48842183129E+03  0.48842183130E+03  0.25500000000E-02 0. -1.
    8880022    1    1    2    0    0  0.48746756613E+03  0.61797006475E+03 -0.15025318998E+01  0.80181390582E+03  0.15294330000E+03 0.  0.
    8880022    1    1    2    0    0 -0.48746756613E+03 -0.61797006475E+03  0.17656929183E+04  0.19392201432E+04  0.15294330000E+03 0.  0.
<mgrwt>
<rscale>  0 0.80181250E+03</rscale>
<asrwt>0</asrwt>
<pdfrwt beam="1">  1        2 0.75141821E-01 0.80181250E+03</pdfrwt>
<pdfrwt beam="2">  1       -2 0.34655572E+00 0.80181250E+03</pdfrwt>
<totfact> 0.10804676E+00</totfact>
</mgrwt>
</event>
<event>
 4    1  0.2061941E-008  0.1190118E+04  0.7818608E-02  0.9121550E-01
         -2   -1    0    0    0  501 -0.00000000000E+00  0.00000000000E+00  0.14070656378E+04  0.14070656378E+04  0.25500000000E-02 0.  1.
          2   -1    0    0  501    0  0.00000000000E+00 -0.00000000000E+00 -0.12450576337E+04  0.12450576337E+04  0.25500000000E-02 0. -1.
    8880022    1    1    2    0    0 -0.32541812253E+03 -0.11345011131E+04 -0.49930025456E+03  0.12906130820E+04  0.15294330000E+03 0.  0.
    8880022    1    1    2    0    0  0.32541812253E+03  0.11345011131E+04  0.66130825866E+03  0.13615101895E+04  0.15294330000E+03 0.  0.
<mgrwt>
<rscale>  0 0.11901182E+04</rscale>
<asrwt>0</asrwt>
<pdfrwt beam="1">  1        2 0.19154733E+00 0.11901182E+04</pdfrwt>
<pdfrwt beam="2">  1       -2 0.21647164E+00 0.11901182E+04</pdfrwt>
<totfact> 0.18014121E+00</totfact>
</mgrwt>
</event>
<event>
 4    1  0.2061941E-008  0.1238495E+04  0.7818608E-02  0.9079813E-01
         -2   -1    0    0    0  501 -0.00000000000E+00  0.00000000000E+00  0.10533161714E+04  0.10533161714E+04  0.25500000000E-02 0.  1.
          2   -1    0    0  501    0  0.00000000000E+00 -0.00000000000E+00 -0.18169660048E+04  0.18169660048E+04  0.25500000000E-02 0. -1.
    8880022    1    1    2    0    0  0.10562191820E+04  0.62839455840E+03 -0.10212889161E+04  0.16052729938E+04  0.15294330000E+03 0.  0.
    8880022    1    1    2    0    0 -0.10562191820E+04 -0.62839455840E+03  0.25763908274E+03  0.12650091824E+04  0.15294330000E+03 0.  0.
<mgrwt>
<rscale>  0 0.12384952E+04</rscale>
<asrwt>0</asrwt>
<pdfrwt beam="1">  1        2 0.27953323E+00 0.12384952E+04</pdfrwt>
<pdfrwt beam="2">  1       -2 0.16204864E+00 0.12384952E+04</pdfrwt>
<totfact> 0.19876929E+00</totfact>
</mgrwt>
</event>
<event>
 4    1  0.2061941E-008  0.1205695E+04  0.7818608E-02  0.9107886E-01
          2   -1    0    0  501    0  0.00000000000E+00  0.00000000000E+00  0.13499298107E+04  0.13499298107E+04  0.25500000000E-02 0. -1.
         -2   -1    0    0    0  501 -0.00000000000E+00 -0.00000000000E+00 -0.19059257949E+04  0.19059257949E+04  0.25500000000E-02 0.  1.
    8880022    1    1    2    0    0 -0.36439966396E+03  0.11390882525E+04  0.79567902667E+03  0.14445781144E+04  0.15294330000E+03 0.  0.
    8880022    1    1    2    0    0  0.36439966396E+03 -0.11390882525E+04 -0.13516750109E+04  0.18112774912E+04  0.15294330000E+03 0.  0.
<mgrwt>
<rscale>  0 0.12056952E+04</rscale>
<asrwt>0</asrwt>
<pdfrwt beam="1">  1        2 0.20768151E+00 0.12056952E+04</pdfrwt>
<pdfrwt beam="2">  1       -2 0.29321935E+00 0.12056952E+04</pdfrwt>
<totfact> 0.52701091E-01</totfact>
</mgrwt>
</event>
<event>
 4    1  0.2061941E-008  0.1352043E+04  0.7818608E-02  0.8989283E-01
         -2   -1    0    0    0  501 -0.00000000000E+00  0.00000000000E+00  0.18726388937E+04  0.18726388937E+04  0.25500000000E-02 0.  1.
          2   -1    0    0  501    0  0.00000000000E+00 -0.00000000000E+00 -0.17430411034E+04  0.17430411034E+04  0.25500000000E-02 0. -1.
    8880022    1    1    2    0    0  0.11658547528E+04  0.66739121380E+03 -0.11343315895E+04  0.17648592422E+04  0.15294330000E+03 0.  0.
    8880022    1    1    2    0    0 -0.11658547528E+04 -0.66739121380E+03  0.12639293798E+04  0.18508207549E+04  0.15294330000E+03 0.  0.
<mgrwt>
<rscale>  0 0.13520429E+04</rscale>
<asrwt>0</asrwt>
<pdfrwt beam="1">  1        2 0.26816017E+00 0.13520429E+04</pdfrwt>
<pdfrwt beam="2">  1       -2 0.28809829E+00 0.13520429E+04</pdfrwt>
<totfact> 0.33321986E-01</totfact>
</mgrwt>
</event>
<event>
 4    1  0.2061941E-008  0.1113502E+04  0.7818608E-02  0.9192131E-01
          2   -1    0    0  501    0  0.00000000000E+00  0.00000000000E+00  0.33461924245E+04  0.33461924245E+04  0.25500000000E-02 0. -1.
         -2   -1    0    0    0  501 -0.00000000000E+00 -0.00000000000E+00 -0.12648702394E+04  0.12648702394E+04  0.25500000000E-02 0.  1.
    8880022    1    1    2    0    0 -0.10952992115E+04  0.12967022365E+03  0.29793041417E+04  0.31805879255E+04  0.15294330000E+03 0.  0.
    8880022    1    1    2    0    0  0.10952992115E+04 -0.12967022365E+03 -0.89798195669E+03  0.14304747384E+04  0.15294330000E+03 0.  0.
<mgrwt>
<rscale>  0 0.11135019E+04</rscale>
<asrwt>0</asrwt>
<pdfrwt beam="1">  1        2 0.51479884E+00 0.11135019E+04</pdfrwt>
<pdfrwt beam="2">  1       -2 0.19459542E+00 0.11135019E+04</pdfrwt>
<totfact> 0.15044354E-01</totfact>
</mgrwt>
</event>
<event>
 4    1  0.2061941E-008  0.8322867E+03  0.7818608E-02  0.9514424E-01
          2   -1    0    0  501    0  0.00000000000E+00  0.00000000000E+00  0.34841373561E+04  0.34841373561E+04  0.25500000000E-02 0. -1.
         -2   -1    0    0    0  501 -0.00000000000E+00 -0.00000000000E+00 -0.24549950927E+03  0.24549950928E+03  0.25500000000E-02 0.  1.
    8880022    1    1    2    0    0 -0.47253259612E+03  0.66784906931E+03  0.80612421655E+03  0.11586791356E+04  0.15294330000E+03 0.  0.
    8880022    1    1    2    0    0  0.47253259612E+03 -0.66784906931E+03  0.24325136303E+04  0.25709577298E+04  0.15294330000E+03 0.  0.
<mgrwt>
<rscale>  0 0.83228666E+03</rscale>
<asrwt>0</asrwt>
<pdfrwt beam="1">  1        2 0.53602109E+00 0.83228666E+03</pdfrwt>
<pdfrwt beam="2">  1       -2 0.37769158E-01 0.83228666E+03</pdfrwt>
<totfact> 0.58771758E+00</totfact>
</mgrwt>
</event>
<event>
 4    1  0.2061941E-008  0.6332080E+03  0.7818608E-02  0.9838809E-01
          2   -1    0    0  501    0  0.00000000000E+00  0.00000000000E+00  0.19610512690E+04  0.19610512690E+04  0.25500000000E-02 0. -1.
         -2   -1    0    0    0  501 -0.00000000000E+00 -0.00000000000E+00 -0.62611229175E+03  0.62611229176E+03  0.25500000000E-02 0.  1.
    8880022    1    1    2    0    0  0.61153259610E+03 -0.59904592219E+02  0.17290333222E+04  0.18413333643E+04  0.15294330000E+03 0.  0.
    8880022    1    1    2    0    0 -0.61153259610E+03  0.59904592219E+02 -0.39409434492E+03  0.74583019647E+03  0.15294330000E+03 0.  0.
<mgrwt>
<rscale>  0 0.63320797E+03</rscale>
<asrwt>0</asrwt>
<pdfrwt beam="1">  1        2 0.30170019E+00 0.63320797E+03</pdfrwt>
<pdfrwt beam="2">  1       -2 0.96324969E-01 0.63320797E+03</pdfrwt>
<totfact> 0.66916093E+00</totfact>
</mgrwt>
</event>
<event>
 4    1  0.2061941E-008  0.1630667E+04  0.7818608E-02  0.8801927E-01
          2   -1    0    0  501    0  0.00000000000E+00  0.00000000000E+00  0.25832489519E+04  0.25832489519E+04  0.25500000000E-02 0. -1.
         -2   -1    0    0    0  501 -0.00000000000E+00 -0.00000000000E+00 -0.11398737669E+04  0.11398737669E+04  0.25500000000E-02 0.  1.
    8880022    1    1    2    0    0  0.13195562429E+04  0.94575589997E+03  0.13013448866E+04  0.20862821160E+04  0.15294330000E+03 0.  0.
    8880022    1    1    2    0    0 -0.13195562429E+04 -0.94575589997E+03  0.14203029838E+03  0.16368406029E+04  0.15294330000E+03 0.  0.
<mgrwt>
<rscale>  0 0.16306669E+04</rscale>
<asrwt>0</asrwt>
<pdfrwt beam="1">  1        2 0.39742292E+00 0.16306669E+04</pdfrwt>
<pdfrwt beam="2">  1       -2 0.17536519E+00 0.16306669E+04</pdfrwt>
<totfact> 0.56511939E-01</totfact>
</mgrwt>
</event>
<event>
 4    1  0.2061941E-008  0.1163001E+04  0.7818608E-02  0.9145873E-01
         -2   -1    0    0    0  501 -0.00000000000E+00  0.00000000000E+00  0.12877905646E+04  0.12877905646E+04  0.25500000000E-02 0.  1.
          2   -1    0    0  501    0  0.00000000000E+00 -0.00000000000E+00 -0.19947703610E+04  0.19947703610E+04  0.25500000000E-02 0. -1.
    8880022    1    1    2    0    0 -0.68435355963E+03  0.92781397357E+03  0.77586343289E+03  0.13980465957E+04  0.15294330000E+03 0.  0.
    8880022    1    1    2    0    0  0.68435355963E+03 -0.92781397357E+03 -0.14828432293E+04  0.18845143299E+04  0.15294330000E+03 0.  0.
<mgrwt>
<rscale>  0 0.11630005E+04</rscale>
<asrwt>0</asrwt>
<pdfrwt beam="1">  1        2 0.30688775E+00 0.11630005E+04</pdfrwt>
<pdfrwt beam="2">  1       -2 0.19812163E+00 0.11630005E+04</pdfrwt>
<totfact> 0.89829920E-01</totfact>
</mgrwt>
</event>
<event>
 4    1  0.2061941E-008  0.5657199E+03  0.7818608E-02  0.9979195E-01
          2   -1    0    0  501    0  0.00000000000E+00  0.00000000000E+00  0.12111200730E+04  0.12111200730E+04  0.25500000000E-02 0. -1.
         -2   -1    0    0    0  501 -0.00000000000E+00 -0.00000000000E+00 -0.10540887153E+04  0.10540887153E+04  0.25500000000E-02 0.  1.
    8880022    1    1    2    0    0  0.62638526396E+01 -0.54461741579E+03  0.10589279686E+04  0.12005696403E+04  0.15294330000E+03 0. -1.
    8880022    1    1    2    0    0 -0.62638526396E+01  0.54461741579E+03 -0.90189661095E+03  0.10646391479E+04  0.15294330000E+03 0.  0.
<mgrwt>
<rscale>  0 0.56571991E+03</rscale>
<asrwt>0</asrwt>
<pdfrwt beam="1">  1        2 0.18632616E+00 0.56571991E+03</pdfrwt>
<pdfrwt beam="2">  1       -2 0.16216750E+00 0.56571991E+03</pdfrwt>
<totfact> 0.47754522E+00</totfact>
</mgrwt>
</event>
<event>
 4    1  0.2061941E-008  0.2328686E+04  0.7818608E-02  0.8466696E-01
          2   -1    0    0  501    0  0.00000000000E+00  0.00000000000E+00  0.25165286419E+04  0.25165286419E+04  0.25500000000E-02 0. -1.
         -2   -1    0    0    0  501 -0.00000000000E+00 -0.00000000000E+00 -0.25181169615E+04  0.25181169615E+04  0.25500000000E-02 0.  1.
    8880022    1    1    2    0    0  0.17458143226E+04 -0.15334669143E+04 -0.95689743304E+03  0.25176244312E+04  0.15294330000E+03 0.  0.
    8880022    1    1    2    0    0 -0.17458143226E+04  0.15334669143E+04  0.95530911348E+03  0.25170211722E+04  0.15294330000E+03 0.  0.
<mgrwt>
<rscale>  0 0.23286863E+04</rscale>
<asrwt>0</asrwt>
<pdfrwt beam="1">  1        2 0.38715825E+00 0.23286863E+04</pdfrwt>
<pdfrwt beam="2">  1       -2 0.38740261E+00 0.23286863E+04</pdfrwt>
<totfact> 0.26062385E-02</totfact>
</mgrwt>
</event>
<event>
 4    1  0.2061941E-008  0.4138479E+03  0.7818608E-02  0.1039087E+00
          2   -1    0    0  501    0  0.00000000000E+00  0.00000000000E+00  0.23624334985E+04  0.23624334985E+04  0.25500000000E-02 0. -1.
         -2   -1    0    0    0  501 -0.00000000000E+00 -0.00000000000E+00 -0.13330245044E+03  0.13330245047E+03  0.25500000000E-02 0.  1.
    8880022    1    1    2    0    0 -0.35059582202E+03  0.15799051011E+03  0.27177488366E+03  0.49510773787E+03  0.15294330000E+03 0.  0.
    8880022    1    1    2    0    0  0.35059582202E+03 -0.15799051011E+03  0.19573561644E+04  0.20006282111E+04  0.15294330000E+03 0.  0.
<mgrwt>
<rscale>  0 0.41384790E+03</rscale>
<asrwt>0</asrwt>
<pdfrwt beam="1">  1        2 0.36345127E+00 0.41384790E+03</pdfrwt>
<pdfrwt beam="2">  1       -2 0.20508071E-01 0.41384790E+03</pdfrwt>
<totfact> 0.93030555E+01</totfact>
</mgrwt>
</event>
<event>
 4    1  0.2061941E-008  0.5978625E+03  0.7818608E-02  0.9909851E-01
         -2   -1    0    0    0  501 -0.00000000000E+00  0.00000000000E+00  0.58608443220E+03  0.58608443220E+03  0.25500000000E-02 0.  1.
          2   -1    0    0  501    0  0.00000000000E+00 -0.00000000000E+00 -0.17013993583E+04  0.17013993583E+04  0.25500000000E-02 0. -1.
    8880022    1    1    2    0    0  0.43051252089E+03  0.38562537813E+03 -0.14737538012E+04  0.15904055717E+04  0.15294330000E+03 0.  0.
    8880022    1    1    2    0    0 -0.43051252089E+03 -0.38562537813E+03  0.35843887512E+03  0.69707821879E+03  0.15294330000E+03 0.  0.
<mgrwt>
<rscale>  0 0.59786254E+03</rscale>
<asrwt>0</asrwt>
<pdfrwt beam="1">  1        2 0.26175375E+00 0.59786254E+03</pdfrwt>
<pdfrwt beam="2">  1       -2 0.90166836E-01 0.59786254E+03</pdfrwt>
<totfact> 0.10854129E+01</totfact>
</mgrwt>
</event>
<event>
 4    1  0.2061941E-008  0.8615867E+03  0.7818608E-02  0.9474916E-01
         -2   -1    0    0    0  501 -0.00000000000E+00  0.00000000000E+00  0.70752289669E+03  0.70752289669E+03  0.25500000000E-02 0.  1.
          2   -1    0    0  501    0  0.00000000000E+00 -0.00000000000E+00 -0.15602898663E+04  0.15602898663E+04  0.25500000000E-02 0. -1.
    8880022    1    1    2    0    0 -0.84770461678E+03  0.18353599820E+02 -0.10753526019E+04  0.13779386210E+04  0.15294330000E+03 0.  0.
    8880022    1    1    2    0    0  0.84770461678E+03 -0.18353599820E+02  0.22258563221E+03  0.88987414202E+03  0.15294330000E+03 0.  0.
<mgrwt>
<rscale>  0 0.86158669E+03</rscale>
<asrwt>0</asrwt>
<pdfrwt beam="1">  1        2 0.24004459E+00 0.86158669E+03</pdfrwt>
<pdfrwt beam="2">  1       -2 0.10884968E+00 0.86158669E+03</pdfrwt>
<totfact> 0.79983993E+00</totfact>
</mgrwt>
</event>
<event>
 4    1  0.2061941E-008  0.1038185E+04  0.7818608E-02  0.9267628E-01
          2   -1    0    0  501    0  0.00000000000E+00  0.00000000000E+00  0.95547621182E+03  0.95547621182E+03  0.25500000000E-02 0. -1.
         -2   -1    0    0    0  501 -0.00000000000E+00 -0.00000000000E+00 -0.11339863612E+04  0.11339863612E+04  0.25500000000E-02 0.  1.
    8880022    1    1    2    0    0  0.97207180870E+03  0.33092806603E+03 -0.16481981763E+03  0.10511870487E+04  0.15294330000E+03 0.  0.
    8880022    1    1    2    0    0 -0.97207180870E+03 -0.33092806603E+03 -0.13690331769E+02  0.10382755243E+04  0.15294330000E+03 0.  0.
<mgrwt>
<rscale>  0 0.10381853E+04</rscale>
<asrwt>0</asrwt>
<pdfrwt beam="1">  1        2 0.14699634E+00 0.10381853E+04</pdfrwt>
<pdfrwt beam="2">  1       -2 0.17445944E+00 0.10381853E+04</pdfrwt>
<totfact> 0.52706916E+00</totfact>
</mgrwt>
</event>
<event>
 4    1  0.2061941E-008  0.1105815E+04  0.7818608E-02  0.9199543E-01
         -2   -1    0    0    0  501 -0.00000000000E+00  0.00000000000E+00  0.11652768176E+04  0.11652768176E+04  0.25500000000E-02 0.  1.
          2   -1    0    0  501    0  0.00000000000E+00 -0.00000000000E+00 -0.30639838230E+04  0.30639838230E+04  0.25500000000E-02 0. -1.
    8880022    1    1    2    0    0  0.75975030982E+03 -0.78880559297E+03  0.76533518830E+03  0.13448287624E+04  0.15294330000E+03 0.  0.
    8880022    1    1    2    0    0 -0.75975030982E+03  0.78880559297E+03 -0.26640421937E+04  0.28844318782E+04  0.15294330000E+03 0.  0.
<mgrwt>
<rscale>  0 0.11058148E+04</rscale>
<asrwt>0</asrwt>
<pdfrwt beam="1">  1        2 0.47138212E+00 0.11058148E+04</pdfrwt>
<pdfrwt beam="2">  1       -2 0.17927336E+00 0.11058148E+04</pdfrwt>
<totfact> 0.29086826E-01</totfact>
</mgrwt>
</event>
<event>
 4    1  0.2061941E-008  0.1095153E+04  0.7818608E-02  0.9209929E-01
          2   -1    0    0  501    0  0.00000000000E+00  0.00000000000E+00  0.36890464674E+04  0.36890464674E+04  0.25500000000E-02 0. -1.
         -2   -1    0    0    0  501 -0.00000000000E+00 -0.00000000000E+00 -0.73572508785E+03  0.73572508785E+03  0.25500000000E-02 0.  1.
    8880022    1    1    2    0    0 -0.52127930955E+03  0.95091313863E+03  0.31294540783E+04  0.33155455655E+04  0.15294330000E+03 0.  0.
    8880022    1    1    2    0    0  0.52127930955E+03 -0.95091313863E+03 -0.17613269873E+03  0.11092259898E+04  0.15294330000E+03 0.  0.
<mgrwt>
<rscale>  0 0.10951528E+04</rscale>
<asrwt>0</asrwt>
<pdfrwt beam="1">  1        2 0.56754562E+00 0.10951528E+04</pdfrwt>
<pdfrwt beam="2">  1       -2 0.11318847E+00 0.10951528E+04</pdfrwt>
<totfact> 0.37207275E-01</totfact>
</mgrwt>
</event>
<event>
 4    1  0.2061941E-008  0.5017474E+03  0.7818608E-02  0.1013324E+00
         -2   -1    0    0    0  501 -0.00000000000E+00  0.00000000000E+00  0.26686419314E+04  0.26686419314E+04  0.25500000000E-02 0.  1.
          2   -1    0    0  501    0  0.00000000000E+00 -0.00000000000E+00 -0.13469810564E+04  0.13469810564E+04  0.25500000000E-02 0. -1.
    8880022    1    1    2    0    0  0.46998383064E+03  0.86452564668E+02 -0.12753958379E+04  0.13705418795E+04  0.15294330000E+03 0.  0.
    8880022    1    1    2    0    0 -0.46998383064E+03 -0.86452564668E+02  0.25970567129E+04  0.26450811084E+04  0.15294330000E+03 0.  0.
<mgrwt>
<rscale>  0 0.50174745E+03</rscale>
<asrwt>0</asrwt>
<pdfrwt beam="1">  1        2 0.20722786E+00 0.50174745E+03</pdfrwt>
<pdfrwt beam="2">  1       -2 0.41056029E+00 0.50174745E+03</pdfrwt>
<totfact> 0.11436211E-01</totfact>
</mgrwt>
</event>
<event>
 4    1  0.2061941E-008  0.6201538E+03  0.7818608E-02  0.9864454E-01
          2   -1    0    0  501    0  0.00000000000E+00  0.00000000000E+00  0.15765153414E+04  0.15765153414E+04  0.25500000000E-02 0. -1.
         -2   -1    0    0    0  501 -0.00000000000E+00 -0.00000000000E+00 -0.11701278166E+04  0.11701278166E+04  0.25500000000E-02 0.  1.
    8880022    1    1    2    0    0  0.58211154376E+03 -0.14948310653E+03 -0.10186138084E+04  0.11925455095E+04  0.15294330000E+03 0.  1.
    8880022    1    1    2    0    0 -0.58211154376E+03  0.14948310653E+03  0.14250013332E+04  0.15540976485E+04  0.15294330000E+03 0.  0.
<mgrwt>
<rscale>  0 0.62015377E+03</rscale>
<asrwt>0</asrwt>
<pdfrwt beam="1">  1        2 0.24254082E+00 0.62015377E+03</pdfrwt>
<pdfrwt beam="2">  1       -2 0.18001966E+00 0.62015377E+03</pdfrwt>
<totfact> 0.22028462E+00</totfact>
</mgrwt>
</event>
<event>
 4    1  0.2061941E-008  0.9004252E+03  0.7818608E-02  0.9425050E-01
         -2   -1    0    0    0  501 -0.00000000000E+00  0.00000000000E+00  0.75128837667E+03  0.75128837667E+03  0.25500000000E-02 0.  1.
          2   -1    0    0  501    0  0.00000000000E+00 -0.00000000000E+00 -0.16117918236E+04  0.16117918236E+04  0.25500000000E-02 0. -1.
    8880022    1    1    2    0    0  0.82356520232E+03  0.33032447519E+03  0.24895930775E+03  0.93420891202E+03  0.15294330000E+03 0.  0.
    8880022    1    1    2    0    0 -0.82356520232E+03 -0.33032447519E+03 -0.11094627547E+04  0.14288712883E+04  0.15294330000E+03 0.  0.
<mgrwt>
<rscale>  0 0.90042521E+03</rscale>
<asrwt>0</asrwt>
<pdfrwt beam="1">  1        2 0.24796797E+00 0.90042521E+03</pdfrwt>
<pdfrwt beam="2">  1       -2 0.11558283E+00 0.90042521E+03</pdfrwt>
<totfact> 0.64397064E+00</totfact>
</mgrwt>
</event>
<event>
 4    1  0.2061941E-008  0.1822529E+04  0.7818608E-02  0.8694410E-01
         -2   -1    0    0    0  501 -0.00000000000E+00  0.00000000000E+00  0.17556910654E+04  0.17556910654E+04  0.25500000000E-02 0.  1.
          2   -1    0    0  501    0  0.00000000000E+00 -0.00000000000E+00 -0.41622133896E+04  0.41622133896E+04  0.25500000000E-02 0. -1.
    8880022    1    1    2    0    0  0.18015387315E+04  0.22951875428E+03 -0.33885939267E+04  0.38476201882E+04  0.15294330000E+03 0.  0.
    8880022    1    1    2    0    0 -0.18015387315E+04 -0.22951875428E+03  0.98207160252E+03  0.20702842667E+04  0.15294330000E+03 0.  0.
<mgrwt>
<rscale>  0 0.18225291E+04</rscale>
<asrwt>0</asrwt>
<pdfrwt beam="1">  1        2 0.64034052E+00 0.18225291E+04</pdfrwt>
<pdfrwt beam="2">  1       -2 0.27010632E+00 0.18225291E+04</pdfrwt>
<totfact> 0.11048014E-02</totfact>
</mgrwt>
</event>
<event>
 4    1  0.2061941E-008  0.5791708E+03  0.7818608E-02  0.9949588E-01
         -2   -1    0    0    0  501 -0.00000000000E+00  0.00000000000E+00  0.47628530205E+03  0.47628530206E+03  0.25500000000E-02 0.  1.
          2   -1    0    0  501    0  0.00000000000E+00 -0.00000000000E+00 -0.24747377375E+04  0.24747377375E+04  0.25500000000E-02 0. -1.
    8880022    1    1    2    0    0  0.26152146639E+03  0.49361291955E+03 -0.22472435975E+04  0.23206771923E+04  0.15294330000E+03 0.  0.
    8880022    1    1    2    0    0 -0.26152146639E+03 -0.49361291955E+03  0.24879116205E+03  0.63034584718E+03  0.15294330000E+03 0.  0.
<mgrwt>
<rscale>  0 0.57917083E+03</rscale>
<asrwt>0</asrwt>
<pdfrwt beam="1">  1        2 0.38072887E+00 0.57917083E+03</pdfrwt>
<pdfrwt beam="2">  1       -2 0.73274664E-01 0.57917083E+03</pdfrwt>
<totfact> 0.65682472E+00</totfact>
</mgrwt>
</event>
<event>
 4    1  0.2061941E-008  0.1280359E+04  0.7818608E-02  0.9045287E-01
         -2   -1    0    0    0  501 -0.00000000000E+00  0.00000000000E+00  0.99366604241E+03  0.99366604241E+03  0.25500000000E-02 0.  1.
          2   -1    0    0  501    0  0.00000000000E+00 -0.00000000000E+00 -0.27927077437E+04  0.27927077437E+04  0.25500000000E-02 0. -1.
    8880022    1    1    2    0    0 -0.29818850402E+03 -0.12357233642E+04  0.31161277487E+03  0.13177339607E+04  0.15294330000E+03 0.  0.
    8880022    1    1    2    0    0  0.29818850402E+03  0.12357233642E+04 -0.21106544762E+04  0.24686398254E+04  0.15294330000E+03 0.  0.
<mgrwt>
<rscale>  0 0.12803594E+04</rscale>
<asrwt>0</asrwt>
<pdfrwt beam="1">  1        2 0.42964734E+00 0.12803594E+04</pdfrwt>
<pdfrwt beam="2">  1       -2 0.15287170E+00 0.12803594E+04</pdfrwt>
<totfact> 0.64606479E-01</totfact>
</mgrwt>
</event>
<event>
 4    1  0.2061941E-008  0.1028914E+04  0.7818608E-02  0.9277389E-01
         -2   -1    0    0    0  501 -0.00000000000E+00  0.00000000000E+00  0.29966164612E+03  0.29966164613E+03  0.25500000000E-02 0.  1.
          2   -1    0    0  501    0  0.00000000000E+00 -0.00000000000E+00 -0.42645383700E+04  0.42645383700E+04  0.25500000000E-02 0. -1.
    8880022    1    1    2    0    0 -0.31761506046E+03  0.96664016467E+03 -0.29277113287E+04  0.31032495568E+04  0.15294330000E+03 0.  0.
    8880022    1    1    2    0    0  0.31761506046E+03 -0.96664016467E+03 -0.10371653951E+04  0.14609504593E+04  0.15294330000E+03 0.  0.
<mgrwt>
<rscale>  0 0.10289141E+04</rscale>
<asrwt>0</asrwt>
<pdfrwt beam="1">  1        2 0.65608278E+00 0.10289141E+04</pdfrwt>
<pdfrwt beam="2">  1       -2 0.46101795E-01 0.10289141E+04</pdfrwt>
<totfact> 0.96490193E-01</totfact>
</mgrwt>
</event>
<event>
 4    1  0.2061941E-008  0.2474328E+04  0.7818608E-02  0.8412189E-01
          2   -1    0    0  501    0  0.00000000000E+00  0.00000000000E+00  0.29348405032E+04  0.29348405032E+04  0.25500000000E-02 0. -1.
         -2   -1    0    0    0  501 -0.00000000000E+00 -0.00000000000E+00 -0.38810073656E+04  0.38810073656E+04  0.25500000000E-02 0.  1.
    8880022    1    1    2    0    0 -0.42153115891E+03  0.24333556320E+04 -0.27907000939E+04  0.37296523721E+04  0.15294330000E+03 0.  0.
    8880022    1    1    2    0    0  0.42153115891E+03 -0.24333556320E+04  0.18445332315E+04  0.30861954968E+04  0.15294330000E+03 0.  0.
<mgrwt>
<rscale>  0 0.24743282E+04</rscale>
<asrwt>0</asrwt>
<pdfrwt beam="1">  1        2 0.45151392E+00 0.24743282E+04</pdfrwt>
<pdfrwt beam="2">  1       -2 0.59707805E+00 0.24743282E+04</pdfrwt>
<totfact> 0.80901293E-04</totfact>
</mgrwt>
</event>
<event>
 4    1  0.2061941E-008  0.8729783E+03  0.7818608E-02  0.9460005E-01
          2   -1    0    0  501    0  0.00000000000E+00  0.00000000000E+00  0.74689925284E+03  0.74689925284E+03  0.25500000000E-02 0. -1.
         -2   -1    0    0    0  501 -0.00000000000E+00 -0.00000000000E+00 -0.16420421003E+04  0.16420421003E+04  0.25500000000E-02 0.  1.
    8880022    1    1    2    0    0  0.13756494538E+03  0.84839571463E+03  0.28740697591E+03  0.91907226354E+03  0.15294330000E+03 0.  0.
    8880022    1    1    2    0    0 -0.13756494538E+03 -0.84839571463E+03 -0.11825498234E+04  0.14698690896E+04  0.15294330000E+03 0.  0.
<mgrwt>
<rscale>  0 0.87297827E+03</rscale>
<asrwt>0</asrwt>
<pdfrwt beam="1">  1        2 0.11490758E+00 0.87297827E+03</pdfrwt>
<pdfrwt beam="2">  1       -2 0.25262186E+00 0.87297827E+03</pdfrwt>
<totfact> 0.23667588E+00</totfact>
</mgrwt>
</event>
<event>
 4    1  0.2061941E-008  0.1467379E+04  0.7818608E-02  0.8906440E-01
          2   -1    0    0  501    0  0.00000000000E+00  0.00000000000E+00  0.17549671633E+04  0.17549671633E+04  0.25500000000E-02 0. -1.
         -2   -1    0    0    0  501 -0.00000000000E+00 -0.00000000000E+00 -0.15307505254E+04  0.15307505254E+04  0.25500000000E-02 0.  1.
    8880022    1    1    2    0    0  0.13677724183E+04 -0.50892723604E+03  0.84403151502E+03  0.16928051191E+04  0.15294330000E+03 0. -1.
    8880022    1    1    2    0    0 -0.13677724183E+04  0.50892723604E+03 -0.61981487710E+03  0.15929125697E+04  0.15294330000E+03 0.  0.
<mgrwt>
<rscale>  0 0.14673786E+04</rscale>
<asrwt>0</asrwt>
<pdfrwt beam="1">  1        2 0.26999495E+00 0.14673786E+04</pdfrwt>
<pdfrwt beam="2">  1       -2 0.23550008E+00 0.14673786E+04</pdfrwt>
<totfact> 0.68014011E-01</totfact>
</mgrwt>
</event>
<event>
 4    1  0.2061941E-008  0.2896184E+03  0.7818608E-02  0.1090549E+00
          2   -1    0    0  501    0  0.00000000000E+00  0.00000000000E+00  0.30456448495E+03  0.30456448496E+03  0.25500000000E-02 0. -1.
         -2   -1    0    0    0  501 -0.00000000000E+00 -0.00000000000E+00 -0.12947106388E+04  0.12947106388E+04  0.25500000000E-02 0.  1.
    8880022    1    1    2    0    0  0.10343875566E+03  0.22313136828E+03  0.21443748229E+03  0.36036408049E+03  0.15294330000E+03 0.  0.
    8880022    1    1    2    0    0 -0.10343875566E+03 -0.22313136828E+03 -0.12045836361E+04  0.12389110432E+04  0.15294330000E+03 0.  1.
<mgrwt>
<rscale>  0 0.28961843E+03</rscale>
<asrwt>0</asrwt>
<pdfrwt beam="1">  1        2 0.46856075E-01 0.28961843E+03</pdfrwt>
<pdfrwt beam="2">  1       -2 0.19918625E+00 0.28961843E+03</pdfrwt>
<totfact> 0.15767210E+01</totfact>
</mgrwt>
</event>
<event>
 4    1  0.2061941E-008  0.7588100E+03  0.7818608E-02  0.9621629E-01
         -2   -1    0    0    0  501 -0.00000000000E+00  0.00000000000E+00  0.11807125507E+04  0.11807125507E+04  0.25500000000E-02 0.  1.
          2   -1    0    0  501    0  0.00000000000E+00 -0.00000000000E+00 -0.22807012181E+04  0.22807012181E+04  0.25500000000E-02 0. -1.
    8880022    1    1    2    0    0  0.16329666897E+03  0.72507600215E+03 -0.20845540946E+04  0.22183684179E+04  0.15294330000E+03 0. -1.
    8880022    1    1    2    0    0 -0.16329666897E+03 -0.72507600215E+03  0.98456542722E+03  0.12430453509E+04  0.15294330000E+03 0.  0.
<mgrwt>
<rscale>  0 0.75881003E+03</rscale>
<asrwt>0</asrwt>
<pdfrwt beam="1">  1        2 0.35087711E+00 0.75881003E+03</pdfrwt>
<pdfrwt beam="2">  1       -2 0.18164808E+00 0.75881003E+03</pdfrwt>
<totfact> 0.85983920E-01</totfact>
</mgrwt>
</event>
<event>
 4    1  0.2061941E-008  0.1207231E+04  0.7818608E-02  0.9106550E-01
         -2   -1    0    0    0  501 -0.00000000000E+00  0.00000000000E+00  0.86897382441E+03  0.86897382441E+03  0.25500000000E-02 0.  1.
          2   -1    0    0  501    0  0.00000000000E+00 -0.00000000000E+00 -0.31948368478E+04  0.31948368478E+04  0.25500000000E-02 0. -1.
    8880022    1    1    2    0    0 -0.77286363495E+03 -0.91471178601E+03  0.23752261556E+03  0.12303757538E+04  0.15294330000E+03 0.  0.
    8880022    1    1    2    0    0  0.77286363495E+03  0.91471178601E+03 -0.25633856389E+04  0.28334349184E+04  0.15294330000E+03 0.  0.
<mgrwt>
<rscale>  0 0.12072313E+04</rscale>
<asrwt>0</asrwt>
<pdfrwt beam="1">  1        2 0.49151336E+00 0.12072313E+04</pdfrwt>
<pdfrwt beam="2">  1       -2 0.13368828E+00 0.12072313E+04</pdfrwt>
<totfact> 0.52270501E-01</totfact>
</mgrwt>
</event>
<event>
 4    1  0.2061941E-008  0.6974020E+03  0.7818608E-02  0.9721685E-01
         -2   -1    0    0    0  501 -0.00000000000E+00  0.00000000000E+00  0.14772844358E+04  0.14772844358E+04  0.25500000000E-02 0.  1.
          2   -1    0    0  501    0  0.00000000000E+00 -0.00000000000E+00 -0.57137231116E+03  0.57137231117E+03  0.25500000000E-02 0. -1.
    8880022    1    1    2    0    0  0.15432936047E+03  0.66269179212E+03  0.11197827448E+04  0.13191978667E+04  0.15294330000E+03 0.  0.
    8880022    1    1    2    0    0 -0.15432936047E+03 -0.66269179212E+03 -0.21387062018E+03  0.72945888030E+03  0.15294330000E+03 0.  0.
<mgrwt>
<rscale>  0 0.69740205E+03</rscale>
<asrwt>0</asrwt>
<pdfrwt beam="1">  1        2 0.87903434E-01 0.69740205E+03</pdfrwt>
<pdfrwt beam="2">  1       -2 0.22727453E+00 0.69740205E+03</pdfrwt>
<totfact> 0.48282274E+00</totfact>
</mgrwt>
</event>
<event>
 4    1  0.2061941E-008  0.5596632E+03  0.7818608E-02  0.9992817E-01
         -2   -1    0    0    0  501 -0.00000000000E+00  0.00000000000E+00  0.11130183629E+04  0.11130183629E+04  0.25500000000E-02 0.  1.
          2   -1    0    0  501    0  0.00000000000E+00 -0.00000000000E+00 -0.11071568454E+04  0.11071568454E+04  0.25500000000E-02 0. -1.
    8880022    1    1    2    0    0  0.17595095170E+03  0.50879518269E+03 -0.95575030253E+03  0.11075565760E+04  0.15294330000E+03 0.  0.
    8880022    1    1    2    0    0 -0.17595095170E+03 -0.50879518269E+03  0.96161182005E+03  0.11126186322E+04  0.15294330000E+03 0.  0.
<mgrwt>
<rscale>  0 0.55966323E+03</rscale>
<asrwt>0</asrwt>
<pdfrwt beam="1">  1        2 0.17033182E+00 0.55966323E+03</pdfrwt>
<pdfrwt beam="2">  1       -2 0.17123359E+00 0.55966323E+03</pdfrwt>
<totfact> 0.47494904E+00</totfact>
</mgrwt>
</event>
<event>
 4    1  0.2061941E-008  0.9558188E+03  0.7818608E-02  0.9358375E-01
          2   -1    0    0  501    0  0.00000000000E+00  0.00000000000E+00  0.10108666005E+04  0.10108666005E+04  0.25500000000E-02 0. -1.
         -2   -1    0    0    0  501 -0.00000000000E+00 -0.00000000000E+00 -0.15756579399E+04  0.15756579399E+04  0.25500000000E-02 0.  1.
    8880022    1    1    2    0    0 -0.22860864014E+03  0.91538843142E+03  0.56211374480E+03  0.11088558995E+04  0.15294330000E+03 0.  0.
    8880022    1    1    2    0    0  0.22860864014E+03 -0.91538843142E+03 -0.11269050842E+04  0.14776686409E+04  0.15294330000E+03 0.  0.
<mgrwt>
<rscale>  0 0.95581878E+03</rscale>
<asrwt>0</asrwt>
<pdfrwt beam="1">  1        2 0.15551794E+00 0.95581878E+03</pdfrwt>
<pdfrwt beam="2">  1       -2 0.24240891E+00 0.95581878E+03</pdfrwt>
<totfact> 0.17769094E+00</totfact>
</mgrwt>
</event>
<event>
 4    1  0.2061941E-008  0.5001346E+03  0.7818608E-02  0.1013744E+00
         -2   -1    0    0    0  501 -0.00000000000E+00  0.00000000000E+00  0.20225068879E+03  0.20225068880E+03  0.25500000000E-02 0.  1.
          2   -1    0    0  501    0  0.00000000000E+00 -0.00000000000E+00 -0.16073757443E+04  0.16073757443E+04  0.25500000000E-02 0. -1.
    8880022    1    1    2    0    0 -0.46210484111E+03  0.11490032933E+03 -0.26808743651E+03  0.56745528149E+03  0.15294330000E+03 0.  0.
    8880022    1    1    2    0    0  0.46210484111E+03 -0.11490032933E+03 -0.11370376190E+04  0.12421711516E+04  0.15294330000E+03 0.  0.
<mgrwt>
<rscale>  0 0.50013460E+03</rscale>
<asrwt>0</asrwt>
<pdfrwt beam="1">  1        2 0.24728857E+00 0.50013460E+03</pdfrwt>
<pdfrwt beam="2">  1       -2 0.31115492E-01 0.50013460E+03</pdfrwt>
<totfact> 0.11085503E+02</totfact>
</mgrwt>
</event>
<event>
 4    1  0.2061941E-008  0.8403259E+03  0.7818608E-02  0.9503414E-01
         -2   -1    0    0    0  501 -0.00000000000E+00  0.00000000000E+00  0.55474480915E+03  0.55474480915E+03  0.25500000000E-02 0.  1.
          2   -1    0    0  501    0  0.00000000000E+00 -0.00000000000E+00 -0.53243194801E+04  0.53243194801E+04  0.25500000000E-02 0. -1.
    8880022    1    1    2    0    0  0.74898857338E+03 -0.34895850516E+03  0.17939272763E+03  0.85926091795E+03  0.15294330000E+03 0.  0.
    8880022    1    1    2    0    0 -0.74898857338E+03  0.34895850516E+03 -0.49489673986E+04  0.50198033714E+04  0.15294330000E+03 0.  0.
<mgrwt>
<rscale>  0 0.84032587E+03</rscale>
<asrwt>0</asrwt>
<pdfrwt beam="1">  1        2 0.81912604E+00 0.84032587E+03</pdfrwt>
<pdfrwt beam="2">  1       -2 0.85345359E-01 0.84032587E+03</pdfrwt>
<totfact> 0.16863246E-02</totfact>
</mgrwt>
</event>
<event>
 4    1  0.2061941E-008  0.8181563E+03  0.7818608E-02  0.9534102E-01
         -2   -1    0    0    0  501 -0.00000000000E+00  0.00000000000E+00  0.12419117395E+04  0.12419117395E+04  0.25500000000E-02 0.  1.
          2   -1    0    0  501    0  0.00000000000E+00 -0.00000000000E+00 -0.16353794859E+04  0.16353794859E+04  0.25500000000E-02 0. -1.
    8880022    1    1    2    0    0  0.80364150418E+03  0.12182886958E+02 -0.13746834683E+04  0.15997294712E+04  0.15294330000E+03 0.  0.
    8880022    1    1    2    0    0 -0.80364150418E+03 -0.12182886958E+02  0.98121572188E+03  0.12775617542E+04  0.15294330000E+03 0.  1.
<mgrwt>
<rscale>  0 0.81815631E+03</rscale>
<asrwt>0</asrwt>
<pdfrwt beam="1">  1        2 0.25159684E+00 0.81815631E+03</pdfrwt>
<pdfrwt beam="2">  1       -2 0.19106334E+00 0.81815631E+03</pdfrwt>
<totfact> 0.16597872E+00</totfact>
</mgrwt>
</event>
<event>
 4    1  0.6449871E-008  0.1195882E+04  0.7818608E-02  0.9116469E-01
         -2   -1    0    0    0  501 -0.00000000000E+00  0.00000000000E+00  0.16564015012E+04  0.16564015012E+04  0.25500000000E-02 0.  1.
          2   -1    0    0  501    0  0.00000000000E+00 -0.00000000000E+00 -0.26393469501E+04  0.26393469501E+04  0.25500000000E-02 0. -1.
    8880022    1    1    2    0    0 -0.52698713241E+03  0.10625563677E+04 -0.22533509545E+04  0.25510240393E+04  0.15294330000E+03 0.  0.
    8880022    1    1    2    0    0  0.52698713241E+03 -0.10625563677E+04  0.12704055056E+04  0.17447244120E+04  0.15294330000E+03 0.  0.
<mgrwt>
<rscale>  0 0.11958817E+04</rscale>
<asrwt>0</asrwt>
<pdfrwt beam="1">  1        2 0.40605338E+00 0.11958817E+04</pdfrwt>
<pdfrwt beam="2">  1       -2 0.25483100E+00 0.11958817E+04</pdfrwt>
<totfact> 0.16969799E-01</totfact>
</mgrwt>
</event>
<event>
 4    1  0.2061941E-008  0.1085821E+04  0.7818608E-02  0.9219123E-01
         -2   -1    0    0    0  501 -0.00000000000E+00  0.00000000000E+00  0.11118902121E+04  0.11118902121E+04  0.25500000000E-02 0.  1.
          2   -1    0    0  501    0  0.00000000000E+00 -0.00000000000E+00 -0.34550645570E+04  0.34550645570E+04  0.25500000000E-02 0. -1.
    8880022    1    1    2    0    0 -0.17087303163E+03 -0.10613286184E+04 -0.30726404743E+04  0.32588536583E+04  0.15294330000E+03 0.  0.
    8880022    1    1    2    0    0  0.17087303163E+03  0.10613286184E+04  0.72946612937E+03  0.13081011108E+04  0.15294330000E+03 0.  0.
<mgrwt>
<rscale>  0 0.10858212E+04</rscale>
<asrwt>0</asrwt>
<pdfrwt beam="1">  1        2 0.53154839E+00 0.10858212E+04</pdfrwt>
<pdfrwt beam="2">  1       -2 0.17106003E+00 0.10858212E+04</pdfrwt>
<totfact> 0.18527655E-01</totfact>
</mgrwt>
</event>
<event>
 4    1  0.2061941E-008  0.1053569E+04  0.7818608E-02  0.9251667E-01
          2   -1    0    0  501    0  0.00000000000E+00  0.00000000000E+00  0.21881963547E+04  0.21881963547E+04  0.25500000000E-02 0. -1.
         -2   -1    0    0    0  501 -0.00000000000E+00 -0.00000000000E+00 -0.82042016597E+03  0.82042016597E+03  0.25500000000E-02 0.  1.
    8880022    1    1    2    0    0 -0.54783998241E+03  0.88684122920E+03 -0.24549461393E+03  0.10817926190E+04  0.15294330000E+03 0.  0.
    8880022    1    1    2    0    0  0.54783998241E+03 -0.88684122920E+03  0.16132708027E+04  0.19268239016E+04  0.15294330000E+03 0.  0.
<mgrwt>
<rscale>  0 0.10535690E+04</rscale>
<asrwt>0</asrwt>
<pdfrwt beam="1">  1        2 0.33664559E+00 0.10535690E+04</pdfrwt>
<pdfrwt beam="2">  1       -2 0.12621849E+00 0.10535690E+04</pdfrwt>
<totfact> 0.24393690E+00</totfact>
</mgrwt>
</event>
<event>
 4    1  0.2061941E-008  0.2908782E+03  0.7818608E-02  0.1089891E+00
         -2   -1    0    0    0  501 -0.00000000000E+00  0.00000000000E+00  0.64923294001E+02  0.64923294051E+02  0.25500000000E-02 0.  1.
          2   -1    0    0  501    0  0.00000000000E+00 -0.00000000000E+00 -0.19882783570E+04  0.19882783570E+04  0.25500000000E-02 0. -1.
    8880022    1    1    2    0    0  0.92968310016E+02  0.22929323894E+03 -0.35908627290E+03  0.46211805904E+03  0.15294330000E+03 0.  0.
    8880022    1    1    2    0    0 -0.92968310016E+02 -0.22929323894E+03 -0.15642687901E+04  0.15910835920E+04  0.15294330000E+03 0.  0.
<mgrwt>
<rscale>  0 0.29087824E+03</rscale>
<asrwt>0</asrwt>
<pdfrwt beam="1">  1        2 0.30588893E+00 0.29087824E+03</pdfrwt>
<pdfrwt beam="2">  1       -2 0.99882006E-02 0.29087824E+03</pdfrwt>
<totfact> 0.50028395E+02</totfact>
</mgrwt>
</event>
<event>
 4    1  0.2061941E-008  0.1289370E+04  0.7818608E-02  0.9038038E-01
         -2   -1    0    0    0  501 -0.00000000000E+00  0.00000000000E+00  0.69602745393E+03  0.69602745394E+03  0.25500000000E-02 0.  1.
          2   -1    0    0  501    0  0.00000000000E+00 -0.00000000000E+00 -0.27965212380E+04  0.27965212380E+04  0.25500000000E-02 0. -1.
    8880022    1    1    2    0    0  0.33849949846E+03  0.12347068253E+04 -0.38323295618E+03  0.13451178411E+04  0.15294330000E+03 0.  0.
    8880022    1    1    2    0    0 -0.33849949846E+03 -0.12347068253E+04 -0.17172608279E+04  0.21474308508E+04  0.15294330000E+03 0.  0.
<mgrwt>
<rscale>  0 0.12893698E+04</rscale>
<asrwt>0</asrwt>
<pdfrwt beam="1">  1        2 0.43023403E+00 0.12893698E+04</pdfrwt>
<pdfrwt beam="2">  1       -2 0.10708115E+00 0.12893698E+04</pdfrwt>
<totfact> 0.15895343E+00</totfact>
</mgrwt>
</event>
<event>
 4    1  0.2061941E-008  0.1360464E+04  0.7818608E-02  0.8982945E-01
         -2   -1    0    0    0  501 -0.00000000000E+00  0.00000000000E+00  0.10488376752E+04  0.10488376752E+04  0.25500000000E-02 0.  1.
          2   -1    0    0  501    0  0.00000000000E+00 -0.00000000000E+00 -0.39858495185E+04  0.39858495185E+04  0.25500000000E-02 0. -1.
    8880022    1    1    2    0    0  0.30279865542E+03 -0.13174915282E+04  0.41069373781E+03  0.14211023721E+04  0.15294330000E+03 0.  0.
    8880022    1    1    2    0    0 -0.30279865542E+03  0.13174915282E+04 -0.33477055811E+04  0.36135848217E+04  0.15294330000E+03 0.  0.
<mgrwt>
<rscale>  0 0.13604641E+04</rscale>
<asrwt>0</asrwt>
<pdfrwt beam="1">  1        2 0.61320761E+00 0.13604641E+04</pdfrwt>
<pdfrwt beam="2">  1       -2 0.16135964E+00 0.13604641E+04</pdfrwt>
<totfact> 0.84702324E-02</totfact>
</mgrwt>
</event>
<event>
 4    1  0.2061941E-008  0.5228122E+03  0.7818608E-02  0.1007990E+00
          2   -1    0    0  501    0  0.00000000000E+00  0.00000000000E+00  0.10901536972E+04  0.10901536972E+04  0.25500000000E-02 0. -1.
         -2   -1    0    0    0  501 -0.00000000000E+00 -0.00000000000E+00 -0.65526238386E+03  0.65526238387E+03  0.25500000000E-02 0.  1.
    8880022    1    1    2    0    0  0.12005911035E+02 -0.49979675001E+03  0.90315302778E+03  0.10435602416E+04  0.15294330000E+03 0.  0.
    8880022    1    1    2    0    0 -0.12005911035E+02  0.49979675001E+03 -0.46826171443E+03  0.70185583950E+03  0.15294330000E+03 0.  0.
<mgrwt>
<rscale>  0 0.52281219E+03</rscale>
<asrwt>0</asrwt>
<pdfrwt beam="1">  1        2 0.16771595E+00 0.52281219E+03</pdfrwt>
<pdfrwt beam="2">  1       -2 0.10080960E+00 0.52281219E+03</pdfrwt>
<totfact> 0.18771674E+01</totfact>
</mgrwt>
</event>
<event>
 4    1  0.2061941E-008  0.1178502E+04  0.7818608E-02  0.9131885E-01
          2   -1    0    0  501    0  0.00000000000E+00  0.00000000000E+00  0.32657943708E+04  0.32657943708E+04  0.25500000000E-02 0. -1.
         -2   -1    0    0    0  501 -0.00000000000E+00 -0.00000000000E+00 -0.48583424199E+03  0.48583424199E+03  0.25500000000E-02 0.  1.
    8880022    1    1    2    0    0  0.11448871024E+04  0.23389969268E+03  0.72771954290E+03  0.13850786727E+04  0.15294330000E+03 0.  0.
    8880022    1    1    2    0    0 -0.11448871024E+04 -0.23389969268E+03  0.20522405859E+04  0.23665499400E+04  0.15294330000E+03 0.  0.
<mgrwt>
<rscale>  0 0.11785021E+04</rscale>
<asrwt>0</asrwt>
<pdfrwt beam="1">  1        2 0.50242989E+00 0.11785021E+04</pdfrwt>
<pdfrwt beam="2">  1       -2 0.74743732E-01 0.11785021E+04</pdfrwt>
<totfact> 0.18926004E+00</totfact>
</mgrwt>
</event>
<event>
 4    1  0.2061941E-008  0.4661304E+03  0.7818608E-02  0.1023018E+00
         -2   -1    0    0    0  501 -0.00000000000E+00  0.00000000000E+00  0.40736591505E+03  0.40736591506E+03  0.25500000000E-02 0.  1.
          2   -1    0    0  501    0  0.00000000000E+00 -0.00000000000E+00 -0.18341846163E+04  0.18341846163E+04  0.25500000000E-02 0. -1.
    8880022    1    1    2    0    0  0.44016559939E+03 -0.11839720729E+02 -0.16572623909E+04  0.17215679537E+04  0.15294330000E+03 0.  0.
    8880022    1    1    2    0    0 -0.44016559939E+03  0.11839720729E+02  0.23044368971E+03  0.51998257760E+03  0.15294330000E+03 0.  0.
<mgrwt>
<rscale>  0 0.46613044E+03</rscale>
<asrwt>0</asrwt>
<pdfrwt beam="1">  1        2 0.28218224E+00 0.46613044E+03</pdfrwt>
<pdfrwt beam="2">  1       -2 0.62671680E-01 0.46613044E+03</pdfrwt>
<totfact> 0.21080232E+01</totfact>
</mgrwt>
</event>
<event>
 4    1  0.2061941E-008  0.8520635E+03  0.7818608E-02  0.9487572E-01
          2   -1    0    0  501    0  0.00000000000E+00  0.00000000000E+00  0.18534210477E+04  0.18534210477E+04  0.25500000000E-02 0. -1.
         -2   -1    0    0    0  501 -0.00000000000E+00 -0.00000000000E+00 -0.54110288253E+03  0.54110288253E+03  0.25500000000E-02 0.  1.
    8880022    1    1    2    0    0 -0.60465991360E+03 -0.58052303748E+03  0.27076891591E+02  0.85249364762E+03  0.15294330000E+03 0.  0.
    8880022    1    1    2    0    0  0.60465991360E+03  0.58052303748E+03  0.12852412735E+04  0.15420302826E+04  0.15294330000E+03 0.  0.
<mgrwt>
<rscale>  0 0.85206353E+03</rscale>
<asrwt>0</asrwt>
<pdfrwt beam="1">  1        2 0.28514169E+00 0.85206353E+03</pdfrwt>
<pdfrwt beam="2">  1       -2 0.83246599E-01 0.85206353E+03</pdfrwt>
<totfact> 0.10361222E+01</totfact>
</mgrwt>
</event>
<event>
 4    1  0.2061941E-008  0.6523492E+03  0.7818608E-02  0.9802381E-01
          2   -1    0    0  501    0  0.00000000000E+00  0.00000000000E+00  0.27605913420E+04  0.27605913420E+04  0.25500000000E-02 0. -1.
         -2   -1    0    0    0  501 -0.00000000000E+00 -0.00000000000E+00 -0.21707843187E+03  0.21707843188E+03  0.25500000000E-02 0.  1.
    8880022    1    1    2    0    0 -0.54598129923E+03 -0.32260229035E+03  0.20733307101E+04  0.21735362209E+04  0.15294330000E+03 0.  0.
    8880022    1    1    2    0    0  0.54598129923E+03  0.32260229035E+03  0.47018219996E+03  0.80413355297E+03  0.15294330000E+03 0.  0.
<mgrwt>
<rscale>  0 0.65234919E+03</rscale>
<asrwt>0</asrwt>
<pdfrwt beam="1">  1        2 0.42470634E+00 0.65234919E+03</pdfrwt>
<pdfrwt beam="2">  1       -2 0.33396684E-01 0.65234919E+03</pdfrwt>
<totfact> 0.21886760E+01</totfact>
</mgrwt>
</event>
<event>
 4    1  0.2061941E-008  0.4392158E+03  0.7818608E-02  0.1030988E+00
          2   -1    0    0  501    0  0.00000000000E+00  0.00000000000E+00  0.56929884509E+03  0.56929884509E+03  0.25500000000E-02 0. -1.
         -2   -1    0    0    0  501 -0.00000000000E+00 -0.00000000000E+00 -0.12806283828E+04  0.12806283828E+04  0.25500000000E-02 0.  1.
    8880022    1    1    2    0    0 -0.94845520738E+02 -0.40065349292E+03  0.43754120179E+03  0.61996197501E+03  0.15294330000E+03 0.  0.
    8880022    1    1    2    0    0  0.94845520738E+02  0.40065349292E+03 -0.11488707395E+04  0.12299652529E+04  0.15294330000E+03 0.  0.
<mgrwt>
<rscale>  0 0.43921583E+03</rscale>
<asrwt>0</asrwt>
<pdfrwt beam="1">  1        2 0.87584438E-01 0.43921583E+03</pdfrwt>
<pdfrwt beam="2">  1       -2 0.19701975E+00 0.43921583E+03</pdfrwt>
<totfact> 0.78517478E+00</totfact>
</mgrwt>
</event>
<event>
 4    1  0.2061941E-008  0.4783915E+03  0.7818608E-02  0.1019578E+00
          2   -1    0    0  501    0  0.00000000000E+00  0.00000000000E+00  0.70426299234E+03  0.70426299234E+03  0.25500000000E-02 0. -1.
         -2   -1    0    0    0  501 -0.00000000000E+00 -0.00000000000E+00 -0.91736243192E+03  0.91736243193E+03  0.25500000000E-02 0.  1.
    8880022    1    1    2    0    0  0.40827929140E+03  0.19691308893E+03  0.54501553905E+03  0.72518986149E+03  0.15294330000E+03 0.  0.
    8880022    1    1    2    0    0 -0.40827929140E+03 -0.19691308893E+03 -0.75811497863E+03  0.89643556279E+03  0.15294330000E+03 0.  0.
<mgrwt>
<rscale>  0 0.47839147E+03</rscale>
<asrwt>0</asrwt>
<pdfrwt beam="1">  1        2 0.10834815E+00 0.47839147E+03</pdfrwt>
<pdfrwt beam="2">  1       -2 0.14113268E+00 0.47839147E+03</pdfrwt>
<totfact> 0.15014453E+01</totfact>
</mgrwt>
</event>
<event>
 4    1  0.2061941E-008  0.4464557E+03  0.7818608E-02  0.1028784E+00
         -2   -1    0    0    0  501 -0.00000000000E+00  0.00000000000E+00  0.70131572475E+03  0.70131572475E+03  0.25500000000E-02 0.  1.
          2   -1    0    0  501    0  0.00000000000E+00 -0.00000000000E+00 -0.55256597925E+03  0.55256597926E+03  0.25500000000E-02 0. -1.
    8880022    1    1    2    0    0  0.40978084457E+03 -0.89502503889E+02 -0.36253123691E+03  0.57511006732E+03  0.15294330000E+03 0.  0.
    8880022    1    1    2    0    0 -0.40978084457E+03  0.89502503889E+02  0.51128098241E+03  0.67877163669E+03  0.15294330000E+03 0.  0.
<mgrwt>
<rscale>  0 0.44645570E+03</rscale>
<asrwt>0</asrwt>
<pdfrwt beam="1">  1        2 0.85010150E-01 0.44645570E+03</pdfrwt>
<pdfrwt beam="2">  1       -2 0.10789473E+00 0.44645570E+03</pdfrwt>
<totfact> 0.39267747E+01</totfact>
</mgrwt>
</event>
<event>
 4    1  0.2061941E-008  0.9229295E+03  0.7818608E-02  0.9397364E-01
          2   -1    0    0  501    0  0.00000000000E+00  0.00000000000E+00  0.26284692295E+04  0.26284692295E+04  0.25500000000E-02 0. -1.
         -2   -1    0    0    0  501 -0.00000000000E+00 -0.00000000000E+00 -0.75005216389E+03  0.75005216389E+03  0.25500000000E-02 0.  1.
    8880022    1    1    2    0    0 -0.90371635978E+03  0.10818450051E+03 -0.33385019955E+03  0.98145542631E+03  0.15294330000E+03 0.  0.
    8880022    1    1    2    0    0  0.90371635978E+03 -0.10818450051E+03  0.22122672652E+04  0.23970659671E+04  0.15294330000E+03 0.  0.
<mgrwt>
<rscale>  0 0.92292947E+03</rscale>
<asrwt>0</asrwt>
<pdfrwt beam="1">  1        2 0.40437987E+00 0.92292947E+03</pdfrwt>
<pdfrwt beam="2">  1       -2 0.11539264E+00 0.92292947E+03</pdfrwt>
<totfact> 0.17502569E+00</totfact>
</mgrwt>
</event>
<event>
 4    1  0.2061941E-008  0.9537400E+03  0.7818608E-02  0.9360790E-01
         -2   -1    0    0    0  501 -0.00000000000E+00  0.00000000000E+00  0.59593571058E+03  0.59593571058E+03  0.25500000000E-02 0.  1.
          2   -1    0    0  501    0  0.00000000000E+00 -0.00000000000E+00 -0.30660348706E+04  0.30660348706E+04  0.25500000000E-02 0. -1.
    8880022    1    1    2    0    0 -0.68947977895E+03  0.64097260066E+03 -0.25325546252E+04  0.27061878765E+04  0.15294330000E+03 0.  0.
    8880022    1    1    2    0    0  0.68947977895E+03 -0.64097260066E+03  0.62455465186E+02  0.95578270466E+03  0.15294330000E+03 0.  0.
<mgrwt>
<rscale>  0 0.95373995E+03</rscale>
<asrwt>0</asrwt>
<pdfrwt beam="1">  1        2 0.47169766E+00 0.95373995E+03</pdfrwt>
<pdfrwt beam="2">  1       -2 0.91682419E-01 0.95373995E+03</pdfrwt>
<totfact> 0.16490135E+00</totfact>
</mgrwt>
</event>
<event>
 4    1  0.2061941E-008  0.1050231E+04  0.7818608E-02  0.9255106E-01
          2   -1    0    0  501    0  0.00000000000E+00  0.00000000000E+00  0.13217983787E+04  0.13217983787E+04  0.25500000000E-02 0. -1.
         -2   -1    0    0    0  501 -0.00000000000E+00 -0.00000000000E+00 -0.14025838873E+04  0.14025838873E+04  0.25500000000E-02 0.  1.
    8880022    1    1    2    0    0 -0.10112545891E+04  0.23865624073E+03  0.82656150686E+03  0.13364835288E+04  0.15294330000E+03 0.  0.
    8880022    1    1    2    0    0  0.10112545891E+04 -0.23865624073E+03 -0.90734701549E+03  0.13878987372E+04  0.15294330000E+03 0.  0.
<mgrwt>
<rscale>  0 0.10502306E+04</rscale>
<asrwt>0</asrwt>
<pdfrwt beam="1">  1        2 0.20335360E+00 0.10502306E+04</pdfrwt>
<pdfrwt beam="2">  1       -2 0.21578214E+00 0.10502306E+04</pdfrwt>
<totfact> 0.16667013E+00</totfact>
</mgrwt>
</event>
<event>
 4    1  0.2061941E-008  0.6769068E+03  0.7818608E-02  0.9757561E-01
         -2   -1    0    0    0  501 -0.00000000000E+00  0.00000000000E+00  0.14709226715E+04  0.14709226715E+04  0.25500000000E-02 0.  1.
          2   -1    0    0  501    0  0.00000000000E+00 -0.00000000000E+00 -0.10146797718E+04  0.10146797718E+04  0.25500000000E-02 0. -1.
    8880022    1    1    2    0    0 -0.24097445082E+03 -0.61379348153E+03  0.12627112173E+04  0.14327045736E+04  0.15294330000E+03 0.  0.
    8880022    1    1    2    0    0  0.24097445082E+03  0.61379348153E+03 -0.80646831754E+03  0.10528978698E+04  0.15294330000E+03 0.  0.
<mgrwt>
<rscale>  0 0.67690677E+03</rscale>
<asrwt>0</asrwt>
<pdfrwt beam="1">  1        2 0.15610458E+00 0.67690677E+03</pdfrwt>
<pdfrwt beam="2">  1       -2 0.22629580E+00 0.67690677E+03</pdfrwt>
<totfact> 0.23164910E+00</totfact>
</mgrwt>
</event>
<event>
 4    1  0.2061941E-008  0.1392393E+04  0.7818608E-02  0.8959344E-01
         -2   -1    0    0    0  501 -0.00000000000E+00  0.00000000000E+00  0.81052440493E+03  0.81052440493E+03  0.25500000000E-02 0.  1.
          2   -1    0    0  501    0  0.00000000000E+00 -0.00000000000E+00 -0.25748475549E+04  0.25748475549E+04  0.25500000000E-02 0. -1.
    8880022    1    1    2    0    0  0.10984806284E+04  0.84184652268E+03 -0.43106367747E+03  0.14575914400E+04  0.15294330000E+03 0.  0.
    8880022    1    1    2    0    0 -0.10984806284E+04 -0.84184652268E+03 -0.13332594725E+04  0.19277805199E+04  0.15294330000E+03 0.  0.
<mgrwt>
<rscale>  0 0.13923925E+04</rscale>
<asrwt>0</asrwt>
<pdfrwt beam="1">  1        2 0.39613039E+00 0.13923925E+04</pdfrwt>
<pdfrwt beam="2">  1       -2 0.12469606E+00 0.13923925E+04</pdfrwt>
<totfact> 0.14576615E+00</totfact>
</mgrwt>
</event>
<event>
 4    1  0.2061941E-008  0.1605459E+03  0.7818608E-02  0.1188082E+00
          2   -1    0    0  501    0  0.00000000000E+00  0.00000000000E+00  0.36758934698E+04  0.36758934698E+04  0.25500000000E-02 0. -1.
         -2   -1    0    0    0  501 -0.00000000000E+00 -0.00000000000E+00 -0.22517848265E+02  0.22517848409E+02  0.25500000000E-02 0.  1.
    8880022    1    1    2    0    0  0.10704232095E+02 -0.47631310959E+02  0.33612023910E+04  0.33650343963E+04  0.15294330000E+03 0.  0.
    8880022    1    1    2    0    0 -0.10704232095E+02  0.47631310959E+02  0.29217323052E+03  0.33337692184E+03  0.15294330000E+03 0.  0.
<mgrwt>
<rscale>  0 0.16054587E+03</rscale>
<asrwt>0</asrwt>
<pdfrwt beam="1">  1        2 0.56552206E+00 0.16054587E+03</pdfrwt>
<pdfrwt beam="2">  1       -2 0.34642844E-02 0.16054587E+03</pdfrwt>
<totfact> 0.27562998E+02</totfact>
</mgrwt>
</event>
<event>
 4    1  0.2061941E-008  0.9038049E+03  0.7818608E-02  0.9420838E-01
         -2   -1    0    0    0  501 -0.00000000000E+00  0.00000000000E+00  0.69411795644E+03  0.69411795644E+03  0.25500000000E-02 0.  1.
          2   -1    0    0  501    0  0.00000000000E+00 -0.00000000000E+00 -0.33211512864E+04  0.33211512864E+04  0.25500000000E-02 0. -1.
    8880022    1    1    2    0    0 -0.17109399627E+03 -0.87418450328E+03  0.29966997208E+03  0.95218981643E+03  0.15294330000E+03 0.  0.
    8880022    1    1    2    0    0  0.17109399627E+03  0.87418450328E+03 -0.29267033020E+04  0.30630794264E+04  0.15294330000E+03 0.  0.
<mgrwt>
<rscale>  0 0.90380493E+03</rscale>
<asrwt>0</asrwt>
<pdfrwt beam="1">  1        2 0.51094634E+00 0.90380493E+03</pdfrwt>
<pdfrwt beam="2">  1       -2 0.10678738E+00 0.90380493E+03</pdfrwt>
<totfact> 0.79592709E-01</totfact>
</mgrwt>
</event>
<event>
 4    1  0.2061941E-008  0.8330033E+03  0.7818608E-02  0.9513438E-01
          2   -1    0    0  501    0  0.00000000000E+00  0.00000000000E+00  0.97282094927E+03  0.97282094928E+03  0.25500000000E-02 0. -1.
         -2   -1    0    0    0  501 -0.00000000000E+00 -0.00000000000E+00 -0.19805924815E+04  0.19805924815E+04  0.25500000000E-02 0.  1.
    8880022    1    1    2    0    0  0.62142461391E+03  0.53323000631E+03  0.67735497295E+03  0.10736406302E+04  0.15294330000E+03 0.  0.
    8880022    1    1    2    0    0 -0.62142461391E+03 -0.53323000631E+03 -0.16851265052E+04  0.18797728006E+04  0.15294330000E+03 0.  0.
<mgrwt>
<rscale>  0 0.83300327E+03</rscale>
<asrwt>0</asrwt>
<pdfrwt beam="1">  1        2 0.14966476E+00 0.83300327E+03</pdfrwt>
<pdfrwt beam="2">  1       -2 0.30470653E+00 0.83300327E+03</pdfrwt>
<totfact> 0.80463492E-01</totfact>
</mgrwt>
</event>
<event>
 4    1  0.2061941E-008  0.9911801E+03  0.7818608E-02  0.9318272E-01
          2   -1    0    0  501    0  0.00000000000E+00  0.00000000000E+00  0.12471164255E+04  0.12471164255E+04  0.25500000000E-02 0. -1.
         -2   -1    0    0    0  501 -0.00000000000E+00 -0.00000000000E+00 -0.16353933560E+04  0.16353933560E+04  0.25500000000E-02 0.  1.
    8880022    1    1    2    0    0 -0.41691247831E+03  0.88613224312E+03 -0.12317426868E+04  0.15810212100E+04  0.15294330000E+03 0.  0.
    8880022    1    1    2    0    0  0.41691247831E+03 -0.88613224312E+03  0.84346575631E+03  0.13014885716E+04  0.15294330000E+03 0.  0.
<mgrwt>
<rscale>  0 0.99118011E+03</rscale>
<asrwt>0</asrwt>
<pdfrwt beam="1">  1        2 0.19186406E+00 0.99118011E+03</pdfrwt>
<pdfrwt beam="2">  1       -2 0.25159898E+00 0.99118011E+03</pdfrwt>
<totfact> 0.11138411E+00</totfact>
</mgrwt>
</event>
<event>
 4    1  0.2061941E-008  0.1065827E+04  0.7818608E-02  0.9239155E-01
         -2   -1    0    0    0  501 -0.00000000000E+00  0.00000000000E+00  0.99884138884E+03  0.99884138884E+03  0.25500000000E-02 0.  1.
          2   -1    0    0  501    0  0.00000000000E+00 -0.00000000000E+00 -0.17757601717E+04  0.17757601717E+04  0.25500000000E-02 0. -1.
    8880022    1    1    2    0    0 -0.41739771387E+03 -0.96869704111E+03  0.44338858972E+03  0.11543742476E+04  0.15294330000E+03 0.  0.
    8880022    1    1    2    0    0  0.41739771387E+03  0.96869704111E+03 -0.12203073725E+04  0.16202273129E+04  0.15294330000E+03 0.  0.
<mgrwt>
<rscale>  0 0.10658267E+04</rscale>
<asrwt>0</asrwt>
<pdfrwt beam="1">  1        2 0.27319387E+00 0.10658267E+04</pdfrwt>
<pdfrwt beam="2">  1       -2 0.15366791E+00 0.10658267E+04</pdfrwt>
<totfact> 0.24676832E+00</totfact>
</mgrwt>
</event>
<event>
 4    1  0.2061941E-008  0.1072232E+04  0.7818608E-02  0.9232687E-01
         -2   -1    0    0    0  501 -0.00000000000E+00  0.00000000000E+00  0.18618771685E+04  0.18618771685E+04  0.25500000000E-02 0.  1.
          2   -1    0    0  501    0  0.00000000000E+00 -0.00000000000E+00 -0.18033556686E+04  0.18033556686E+04  0.25500000000E-02 0. -1.
    8880022    1    1    2    0    0 -0.96916775137E+03  0.43243987392E+03 -0.14568441393E+04  0.18088882978E+04  0.15294330000E+03 0.  0.
    8880022    1    1    2    0    0  0.96916775137E+03 -0.43243987392E+03  0.15153656392E+04  0.18563445392E+04  0.15294330000E+03 0.  0.
<mgrwt>
<rscale>  0 0.10722323E+04</rscale>
<asrwt>0</asrwt>
<pdfrwt beam="1">  1        2 0.27743933E+00 0.10722323E+04</pdfrwt>
<pdfrwt beam="2">  1       -2 0.28644264E+00 0.10722323E+04</pdfrwt>
<totfact> 0.32846778E-01</totfact>
</mgrwt>
</event>
<event>
 4    1  0.2061941E-008  0.3669801E+03  0.7818608E-02  0.1055854E+00
          2   -1    0    0  501    0  0.00000000000E+00  0.00000000000E+00  0.13760438625E+04  0.13760438625E+04  0.25500000000E-02 0. -1.
         -2   -1    0    0    0  501 -0.00000000000E+00 -0.00000000000E+00 -0.16753038892E+03  0.16753038894E+03  0.25500000000E-02 0.  1.
    8880022    1    1    2    0    0 -0.13821717640E+03 -0.30360948832E+03  0.10658666097E+03  0.38214536313E+03  0.15294330000E+03 0.  0.
    8880022    1    1    2    0    0  0.13821717640E+03  0.30360948832E+03  0.11019268126E+04  0.11614288883E+04  0.15294330000E+03 0.  0.
<mgrwt>
<rscale>  0 0.36698006E+03</rscale>
<asrwt>0</asrwt>
<pdfrwt beam="1">  1        2 0.21169905E+00 0.36698006E+03</pdfrwt>
<pdfrwt beam="2">  1       -2 0.25773907E-01 0.36698006E+03</pdfrwt>
<totfact> 0.21304146E+02</totfact>
</mgrwt>
</event>
<event>
 4    1  0.2061941E-008  0.2084857E+03  0.7818608E-02  0.1142771E+00
         -2   -1    0    0    0  501 -0.00000000000E+00  0.00000000000E+00  0.54212164813E+03  0.54212164813E+03  0.25500000000E-02 0.  1.
          2   -1    0    0  501    0  0.00000000000E+00 -0.00000000000E+00 -0.16981648561E+04  0.16981648561E+04  0.25500000000E-02 0. -1.
    8880022    1    1    2    0    0  0.71498769796E+02 -0.12232158188E+03  0.51535838357E+03  0.55593215414E+03  0.15294330000E+03 0.  0.
    8880022    1    1    2    0    0 -0.71498769796E+02  0.12232158188E+03 -0.16714015915E+04  0.16843543501E+04  0.15294330000E+03 0. -1.
<mgrwt>
<rscale>  0 0.20848572E+03</rscale>
<asrwt>0</asrwt>
<pdfrwt beam="1">  1        2 0.26125613E+00 0.20848572E+03</pdfrwt>
<pdfrwt beam="2">  1       -2 0.83403332E-01 0.20848572E+03</pdfrwt>
<totfact> 0.14559781E+01</totfact>
</mgrwt>
</event>
<event>
 4    1  0.2061941E-008  0.1069028E+04  0.7818608E-02  0.9235917E-01
          2   -1    0    0  501    0  0.00000000000E+00  0.00000000000E+00  0.20495763690E+04  0.20495763690E+04  0.25500000000E-02 0. -1.
         -2   -1    0    0    0  501 -0.00000000000E+00 -0.00000000000E+00 -0.96134179857E+03  0.96134179857E+03  0.25500000000E-02 0.  1.
    8880022    1    1    2    0    0 -0.51782402539E+03 -0.92265192084E+03 -0.43151947818E+03  0.11528352013E+04  0.15294330000E+03 0.  0.
    8880022    1    1    2    0    0  0.51782402539E+03  0.92265192084E+03  0.15197540486E+04  0.18580829663E+04  0.15294330000E+03 0.  0.
<mgrwt>
<rscale>  0 0.10690276E+04</rscale>
<asrwt>0</asrwt>
<pdfrwt beam="1">  1        2 0.31531943E+00 0.10690276E+04</pdfrwt>
<pdfrwt beam="2">  1       -2 0.14789874E+00 0.10690276E+04</pdfrwt>
<totfact> 0.19290951E+00</totfact>
</mgrwt>
</event>
<event>
 4    1  0.2061941E-008  0.1387618E+04  0.7818608E-02  0.8962830E-01
         -2   -1    0    0    0  501 -0.00000000000E+00  0.00000000000E+00  0.14964847131E+04  0.14964847131E+04  0.25500000000E-02 0.  1.
          2   -1    0    0  501    0  0.00000000000E+00 -0.00000000000E+00 -0.17946030654E+04  0.17946030654E+04  0.25500000000E-02 0. -1.
    8880022    1    1    2    0    0  0.72777565296E+03  0.11715096693E+04  0.72638396884E+03  0.15662431578E+04  0.15294330000E+03 0.  0.
    8880022    1    1    2    0    0 -0.72777565296E+03 -0.11715096693E+04 -0.10245023212E+04  0.17248446207E+04  0.15294330000E+03 0.  0.
<mgrwt>
<rscale>  0 0.13876181E+04</rscale>
<asrwt>0</asrwt>
<pdfrwt beam="1">  1        2 0.27609278E+00 0.13876181E+04</pdfrwt>
<pdfrwt beam="2">  1       -2 0.23022842E+00 0.13876181E+04</pdfrwt>
<totfact> 0.70329530E-01</totfact>
</mgrwt>
</event>
<event>
 4    1  0.2061941E-008  0.7502706E+03  0.7818608E-02  0.9634926E-01
         -2   -1    0    0    0  501 -0.00000000000E+00  0.00000000000E+00  0.80778620726E+03  0.80778620727E+03  0.25500000000E-02 0.  1.
          2   -1    0    0  501    0  0.00000000000E+00 -0.00000000000E+00 -0.11728909889E+04  0.11728909889E+04  0.25500000000E-02 0. -1.
    8880022    1    1    2    0    0  0.15821745572E+03  0.71727370546E+03  0.44837148336E+03  0.87403831263E+03  0.15294330000E+03 0.  0.
    8880022    1    1    2    0    0 -0.15821745572E+03 -0.71727370546E+03 -0.81347626505E+03  0.11066388836E+04  0.15294330000E+03 0.  0.
<mgrwt>
<rscale>  0 0.75027061E+03</rscale>
<asrwt>0</asrwt>
<pdfrwt beam="1">  1        2 0.18044477E+00 0.75027061E+03</pdfrwt>
<pdfrwt beam="2">  1       -2 0.12427480E+00 0.75027061E+03</pdfrwt>
<totfact> 0.97541254E+00</totfact>
</mgrwt>
</event>
<event>
 4    1  0.2061941E-008  0.1038320E+04  0.7818608E-02  0.9267486E-01
          2   -1    0    0  501    0  0.00000000000E+00  0.00000000000E+00  0.34431232522E+04  0.34431232522E+04  0.25500000000E-02 0. -1.
         -2   -1    0    0    0  501 -0.00000000000E+00 -0.00000000000E+00 -0.66949231587E+03  0.66949231588E+03  0.25500000000E-02 0.  1.
    8880022    1    1    2    0    0 -0.10201967131E+04 -0.11796517621E+03 -0.11344840629E+03  0.10444995501E+04  0.15294330000E+03 0.  0.
    8880022    1    1    2    0    0  0.10201967131E+04  0.11796517621E+03  0.28870793426E+04  0.30681160179E+04  0.15294330000E+03 0.  0.
<mgrwt>
<rscale>  0 0.10383202E+04</rscale>
<asrwt>0</asrwt>
<pdfrwt beam="1">  1        2 0.52971128E+00 0.10383202E+04</pdfrwt>
<pdfrwt beam="2">  1       -2 0.10299882E+00 0.10383202E+04</pdfrwt>
<totfact> 0.70236106E-01</totfact>
</mgrwt>
</event>
<event>
 4    1  0.2061941E-008  0.4656992E+03  0.7818608E-02  0.1023141E+00
         -2   -1    0    0    0  501 -0.00000000000E+00  0.00000000000E+00  0.14327766694E+04  0.14327766694E+04  0.25500000000E-02 0.  1.
          2   -1    0    0  501    0  0.00000000000E+00 -0.00000000000E+00 -0.12281164041E+04  0.12281164041E+04  0.25500000000E-02 0. -1.
    8880022    1    1    2    0    0  0.23950245674E+03 -0.36894807846E+03 -0.11434313203E+04  0.12346298833E+04  0.15294330000E+03 0.  0.
    8880022    1    1    2    0    0 -0.23950245674E+03  0.36894807846E+03  0.13480915856E+04  0.14262631902E+04  0.15294330000E+03 0.  0.
<mgrwt>
<rscale>  0 0.46569922E+03</rscale>
<asrwt>0</asrwt>
<pdfrwt beam="1">  1        2 0.18894099E+00 0.46569922E+03</pdfrwt>
<pdfrwt beam="2">  1       -2 0.22042718E+00 0.46569922E+03</pdfrwt>
<totfact> 0.19640207E+00</totfact>
</mgrwt>
</event>
<event>
 4    1  0.2061941E-008  0.1134395E+04  0.7818608E-02  0.9172302E-01
         -2   -1    0    0    0  501 -0.00000000000E+00  0.00000000000E+00  0.58681362758E+03  0.58681362758E+03  0.25500000000E-02 0.  1.
          2   -1    0    0  501    0  0.00000000000E+00 -0.00000000000E+00 -0.28056125283E+04  0.28056125283E+04  0.25500000000E-02 0. -1.
    8880022    1    1    2    0    0 -0.73458082482E+03  0.85079472585E+03 -0.31675649185E+03  0.11777890226E+04  0.15294330000E+03 0.  0.
    8880022    1    1    2    0    0  0.73458082482E+03 -0.85079472585E+03 -0.19020424089E+04  0.22146371333E+04  0.15294330000E+03 0.  0.
<mgrwt>
<rscale>  0 0.11343951E+04</rscale>
<asrwt>0</asrwt>
<pdfrwt beam="1">  1        2 0.43163269E+00 0.11343951E+04</pdfrwt>
<pdfrwt beam="2">  1       -2 0.90279021E-01 0.11343951E+04</pdfrwt>
<totfact> 0.24003604E+00</totfact>
</mgrwt>
</event>
<event>
 4    1  0.2061941E-008  0.1041726E+04  0.7818608E-02  0.9263928E-01
          2   -1    0    0  501    0  0.00000000000E+00  0.00000000000E+00  0.12764101345E+04  0.12764101345E+04  0.25500000000E-02 0. -1.
         -2   -1    0    0    0  501 -0.00000000000E+00 -0.00000000000E+00 -0.14237185761E+04  0.14237185761E+04  0.25500000000E-02 0.  1.
    8880022    1    1    2    0    0 -0.14623483046E+03 -0.10200082226E+04  0.78322449680E+03  0.13033164103E+04  0.15294330000E+03 0.  0.
    8880022    1    1    2    0    0  0.14623483046E+03  0.10200082226E+04 -0.93053293844E+03  0.13968123004E+04  0.15294330000E+03 0.  0.
<mgrwt>
<rscale>  0 0.10417260E+04</rscale>
<asrwt>0</asrwt>
<pdfrwt beam="1">  1        2 0.19637079E+00 0.10417260E+04</pdfrwt>
<pdfrwt beam="2">  1       -2 0.21903363E+00 0.10417260E+04</pdfrwt>
<totfact> 0.16911753E+00</totfact>
</mgrwt>
</event>
<event>
 4    1  0.2061941E-008  0.9625572E+03  0.7818608E-02  0.9350592E-01
         -2   -1    0    0    0  501 -0.00000000000E+00  0.00000000000E+00  0.50447675372E+03  0.50447675373E+03  0.25500000000E-02 0.  1.
          2   -1    0    0  501    0  0.00000000000E+00 -0.00000000000E+00 -0.28591297895E+04  0.28591297895E+04  0.25500000000E-02 0. -1.
    8880022    1    1    2    0    0  0.19951431382E+02 -0.95011930668E+03 -0.17155670140E+03  0.97772598991E+03  0.15294330000E+03 0.  0.
    8880022    1    1    2    0    0 -0.19951431382E+02  0.95011930668E+03 -0.21830963344E+04  0.23858805534E+04  0.15294330000E+03 0.  0.
<mgrwt>
<rscale>  0 0.96255722E+03</rscale>
<asrwt>0</asrwt>
<pdfrwt beam="1">  1        2 0.43986611E+00 0.96255722E+03</pdfrwt>
<pdfrwt beam="2">  1       -2 0.77611810E-01 0.96255722E+03</pdfrwt>
<totfact> 0.32241112E+00</totfact>
</mgrwt>
</event>
<event>
 4    1  0.2061941E-008  0.3710742E+03  0.7818608E-02  0.1054283E+00
         -2   -1    0    0    0  501 -0.00000000000E+00  0.00000000000E+00  0.12013825731E+04  0.12013825732E+04  0.25500000000E-02 0.  1.
          2   -1    0    0  501    0  0.00000000000E+00 -0.00000000000E+00 -0.14744175462E+04  0.14744175462E+04  0.25500000000E-02 0. -1.
    8880022    1    1    2    0    0 -0.28496455855E+03 -0.18193304126E+03  0.11483294794E+04  0.12067960380E+04  0.15294330000E+03 0.  0.
    8880022    1    1    2    0    0  0.28496455855E+03  0.18193304126E+03 -0.14213644524E+04  0.14690040813E+04  0.15294330000E+03 0.  0.
<mgrwt>
<rscale>  0 0.37107423E+03</rscale>
<asrwt>0</asrwt>
<pdfrwt beam="1">  1        2 0.22683347E+00 0.37107423E+03</pdfrwt>
<pdfrwt beam="2">  1       -2 0.18482809E+00 0.37107423E+03</pdfrwt>
<totfact> 0.24881031E+00</totfact>
</mgrwt>
</event>
<event>
 4    1  0.2061941E-008  0.6383091E+03  0.7818608E-02  0.9828967E-01
         -2   -1    0    0    0  501 -0.00000000000E+00  0.00000000000E+00  0.38306702233E+03  0.38306702234E+03  0.25500000000E-02 0.  1.
          2   -1    0    0  501    0  0.00000000000E+00 -0.00000000000E+00 -0.15778335762E+04  0.15778335762E+04  0.25500000000E-02 0. -1.
    8880022    1    1    2    0    0  0.28123569839E+03  0.55222581138E+03 -0.37669617838E+02  0.63941967277E+03  0.15294330000E+03 0.  0.
    8880022    1    1    2    0    0 -0.28123569839E+03 -0.55222581138E+03 -0.11570969360E+04  0.13214809257E+04  0.15294330000E+03 0.  0.
<mgrwt>
<rscale>  0 0.63830911E+03</rscale>
<asrwt>0</asrwt>
<pdfrwt beam="1">  1        2 0.24274362E+00 0.63830911E+03</pdfrwt>
<pdfrwt beam="2">  1       -2 0.58933389E-01 0.63830911E+03</pdfrwt>
<totfact> 0.32072457E+01</totfact>
</mgrwt>
</event>
<event>
 4    1  0.2061941E-008  0.6069094E+03  0.7818608E-02  0.9891174E-01
          2   -1    0    0  501    0  0.00000000000E+00  0.00000000000E+00  0.90708150716E+03  0.90708150716E+03  0.25500000000E-02 0. -1.
         -2   -1    0    0    0  501 -0.00000000000E+00 -0.00000000000E+00 -0.16823555164E+04  0.16823555164E+04  0.25500000000E-02 0.  1.
    8880022    1    1    2    0    0  0.55557407558E+03 -0.19048562265E+03 -0.15153285288E+04  0.16323478579E+04  0.15294330000E+03 0.  1.
    8880022    1    1    2    0    0 -0.55557407558E+03  0.19048562265E+03  0.74005451964E+03  0.95708916562E+03  0.15294330000E+03 0.  0.
<mgrwt>
<rscale>  0 0.60690937E+03</rscale>
<asrwt>0</asrwt>
<pdfrwt beam="1">  1        2 0.13955100E+00 0.60690937E+03</pdfrwt>
<pdfrwt beam="2">  1       -2 0.25882392E+00 0.60690937E+03</pdfrwt>
<totfact> 0.17490273E+00</totfact>
</mgrwt>
</event>
<event>
 4    1  0.2061941E-008  0.6147372E+03  0.7818608E-02  0.9875294E-01
          2   -1    0    0  501    0  0.00000000000E+00  0.00000000000E+00  0.41631861896E+03  0.41631861897E+03  0.25500000000E-02 0. -1.
         -2   -1    0    0    0  501 -0.00000000000E+00 -0.00000000000E+00 -0.18973856566E+04  0.18973856566E+04  0.25500000000E-02 0.  1.
    8880022    1    1    2    0    0 -0.56852947816E+03  0.17687384330E+03  0.94961275836E+02  0.62202847274E+03  0.15294330000E+03 0.  0.
    8880022    1    1    2    0    0  0.56852947816E+03 -0.17687384330E+03 -0.15760283135E+04  0.16916758028E+04  0.15294330000E+03 0.  0.
<mgrwt>
<rscale>  0 0.61473716E+03</rscale>
<asrwt>0</asrwt>
<pdfrwt beam="1">  1        2 0.64049020E-01 0.61473716E+03</pdfrwt>
<pdfrwt beam="2">  1       -2 0.29190548E+00 0.61473716E+03</pdfrwt>
<totfact> 0.28739835E+00</totfact>
</mgrwt>
</event>
<event>
 4    1  0.2061941E-008  0.1562236E+03  0.7818608E-02  0.1193028E+00
         -2   -1    0    0    0  501 -0.00000000000E+00  0.00000000000E+00  0.34769238554E+03  0.34769238555E+03  0.25500000000E-02 0.  1.
          2   -1    0    0  501    0  0.00000000000E+00 -0.00000000000E+00 -0.45299804259E+04  0.45299804259E+04  0.25500000000E-02 0. -1.
    8880022    1    1    2    0    0  0.29423329478E+02 -0.12182567903E+02  0.32872329675E+03  0.36395714874E+03  0.15294330000E+03 0.  0.
    8880022    1    1    2    0    0 -0.29423329478E+02  0.12182567903E+02 -0.45110113371E+04  0.45137156628E+04  0.15294330000E+03 0. -1.
<mgrwt>
<rscale>  0 0.15622356E+03</rscale>
<asrwt>0</asrwt>
<pdfrwt beam="1">  1        2 0.69692002E+00 0.15622356E+03</pdfrwt>
<pdfrwt beam="2">  1       -2 0.53491139E-01 0.15622356E+03</pdfrwt>
<totfact> 0.61755940E-01</totfact>
</mgrwt>
</event>
<event>
 4    1  0.2061941E-008  0.1075419E+04  0.7818608E-02  0.9229487E-01
          2   -1    0    0  501    0  0.00000000000E+00  0.00000000000E+00  0.44678274087E+04  0.44678274087E+04  0.25500000000E-02 0. -1.
         -2   -1    0    0    0  501 -0.00000000000E+00 -0.00000000000E+00 -0.27848244222E+03  0.27848244223E+03  0.25500000000E-02 0.  1.
    8880022    1    1    2    0    0  0.63470997040E+03 -0.85456288250E+03  0.27246753901E+04  0.29292289260E+04  0.15294330000E+03 0.  1.
    8880022    1    1    2    0    0 -0.63470997040E+03  0.85456288250E+03  0.14646695764E+04  0.18170809249E+04  0.15294330000E+03 0.  0.
<mgrwt>
<rscale>  0 0.10754190E+04</rscale>
<asrwt>0</asrwt>
<pdfrwt beam="1">  1        2 0.68735802E+00 0.10754190E+04</pdfrwt>
<pdfrwt beam="2">  1       -2 0.42843455E-01 0.10754190E+04</pdfrwt>
<totfact> 0.72384946E-01</totfact>
</mgrwt>
</event>
<event>
 4    1  0.2510359E-008  0.1162081E+04  0.7818608E-02  0.9146710E-01
          2   -1    0    0  501    0  0.00000000000E+00  0.00000000000E+00  0.33072188016E+04  0.33072188016E+04  0.25500000000E-02 0. -1.
         -2   -1    0    0    0  501 -0.00000000000E+00 -0.00000000000E+00 -0.13667004730E+04  0.13667004730E+04  0.25500000000E-02 0.  1.
    8880022    1    1    2    0    0 -0.81277383517E+03  0.81635748213E+03 -0.98669897653E+03  0.15244695369E+04  0.15294330000E+03 0.  0.
    8880022    1    1    2    0    0  0.81277383517E+03 -0.81635748213E+03  0.29272173051E+04  0.31494497377E+04  0.15294330000E+03 0.  0.
<mgrwt>
<rscale>  0 0.11620811E+04</rscale>
<asrwt>0</asrwt>
<pdfrwt beam="1">  1        2 0.50880289E+00 0.11620811E+04</pdfrwt>
<pdfrwt beam="2">  1       -2 0.21026161E+00 0.11620811E+04</pdfrwt>
<totfact> 0.12505369E-01</totfact>
</mgrwt>
</event>
<event>
 4    1  0.2061941E-008  0.9999434E+03  0.7818608E-02  0.9308607E-01
          2   -1    0    0  501    0  0.00000000000E+00  0.00000000000E+00  0.27849401877E+04  0.27849401878E+04  0.25500000000E-02 0. -1.
         -2   -1    0    0    0  501 -0.00000000000E+00 -0.00000000000E+00 -0.62727323204E+03  0.62727323205E+03  0.25500000000E-02 0.  1.
    8880022    1    1    2    0    0 -0.44751252207E+03 -0.88103788567E+03  0.21945127232E+04  0.24115913748E+04  0.15294330000E+03 0.  0.
    8880022    1    1    2    0    0  0.44751252207E+03  0.88103788567E+03 -0.36845767529E+02  0.10006220450E+04  0.15294330000E+03 0.  0.
<mgrwt>
<rscale>  0 0.99994343E+03</rscale>
<asrwt>0</asrwt>
<pdfrwt beam="1">  1        2 0.42845234E+00 0.99994343E+03</pdfrwt>
<pdfrwt beam="2">  1       -2 0.96503573E-01 0.99994343E+03</pdfrwt>
<totfact> 0.21527283E+00</totfact>
</mgrwt>
</event>
<event>
 4    1  0.2061941E-008  0.3886609E+03  0.7818608E-02  0.1047778E+00
          2   -1    0    0  501    0  0.00000000000E+00  0.00000000000E+00  0.26284889398E+04  0.26284889398E+04  0.25500000000E-02 0. -1.
         -2   -1    0    0    0  501 -0.00000000000E+00 -0.00000000000E+00 -0.21858521539E+03  0.21858521540E+03  0.25500000000E-02 0.  1.
    8880022    1    1    2    0    0  0.39042153528E+02  0.35516389003E+03  0.24271107151E+04  0.24580324967E+04  0.15294330000E+03 0.  0.
    8880022    1    1    2    0    0 -0.39042153528E+02 -0.35516389003E+03 -0.17206990640E+02  0.38904165854E+03  0.15294330000E+03 0.  0.
<mgrwt>
<rscale>  0 0.38866095E+03</rscale>
<asrwt>0</asrwt>
<pdfrwt beam="1">  1        2 0.40438291E+00 0.38866095E+03</pdfrwt>
<pdfrwt beam="2">  1       -2 0.33628495E-01 0.38866095E+03</pdfrwt>
<totfact> 0.27350503E+01</totfact>
</mgrwt>
</event>
<event>
 4    1  0.2061941E-008  0.1322477E+04  0.7818608E-02  0.9011928E-01
          2   -1    0    0  501    0  0.00000000000E+00  0.00000000000E+00  0.25617912462E+04  0.25617912462E+04  0.25500000000E-02 0. -1.
         -2   -1    0    0    0  501 -0.00000000000E+00 -0.00000000000E+00 -0.13767965337E+04  0.13767965337E+04  0.25500000000E-02 0.  1.
    8880022    1    1    2    0    0 -0.91320739382E+03 -0.94424934411E+03  0.19907453496E+04  0.23899818551E+04  0.15294330000E+03 0.  0.
    8880022    1    1    2    0    0  0.91320739382E+03  0.94424934411E+03 -0.80575063706E+03  0.15486059247E+04  0.15294330000E+03 0.  0.
<mgrwt>
<rscale>  0 0.13224773E+04</rscale>
<asrwt>0</asrwt>
<pdfrwt beam="1">  1        2 0.39412172E+00 0.13224773E+04</pdfrwt>
<pdfrwt beam="2">  1       -2 0.21181485E+00 0.13224773E+04</pdfrwt>
<totfact> 0.34292292E-01</totfact>
</mgrwt>
</event>
<event>
 4    1  0.2061941E-008  0.2992267E+03  0.7818608E-02  0.1085628E+00
         -2   -1    0    0    0  501 -0.00000000000E+00  0.00000000000E+00  0.19435741578E+03  0.19435741580E+03  0.25500000000E-02 0.  1.
          2   -1    0    0  501    0  0.00000000000E+00 -0.00000000000E+00 -0.46101861612E+03  0.46101861613E+03  0.25500000000E-02 0. -1.
    8880022    1    1    2    0    0 -0.98571659189E+02  0.23754703110E+03 -0.12445261803E+03  0.32407571820E+03  0.15294330000E+03 0. -1.
    8880022    1    1    2    0    0  0.98571659189E+02 -0.23754703110E+03 -0.14220858231E+03  0.33130031373E+03  0.15294330000E+03 0.  0.
<mgrwt>
<rscale>  0 0.29922670E+03</rscale>
<asrwt>0</asrwt>
<pdfrwt beam="1">  1        2 0.70925941E-01 0.29922670E+03</pdfrwt>
<pdfrwt beam="2">  1       -2 0.29901141E-01 0.29922670E+03</pdfrwt>
<totfact> 0.70404669E+02</totfact>
</mgrwt>
</event>
<event>
 4    1  0.2061941E-008  0.1003473E+04  0.7818608E-02  0.9304744E-01
          2   -1    0    0  501    0  0.00000000000E+00  0.00000000000E+00  0.34002895411E+04  0.34002895412E+04  0.25500000000E-02 0. -1.
         -2   -1    0    0    0  501 -0.00000000000E+00 -0.00000000000E+00 -0.58011621716E+03  0.58011621717E+03  0.25500000000E-02 0.  1.
    8880022    1    1    2    0    0 -0.15388170423E+03 -0.97973839373E+03  0.28025428831E+04  0.29767776477E+04  0.15294330000E+03 0.  0.
    8880022    1    1    2    0    0  0.15388170423E+03  0.97973839373E+03  0.17630440902E+02  0.10036281107E+04  0.15294330000E+03 0.  0.
<mgrwt>
<rscale>  0 0.10034732E+04</rscale>
<asrwt>0</asrwt>
<pdfrwt beam="1">  1        2 0.52312147E+00 0.10034732E+04</pdfrwt>
<pdfrwt beam="2">  1       -2 0.89248648E-01 0.10034732E+04</pdfrwt>
<totfact> 0.10583516E+00</totfact>
</mgrwt>
</event>
<event>
 4    1  0.2061941E-008  0.9252924E+03  0.7818608E-02  0.9394505E-01
          2   -1    0    0  501    0  0.00000000000E+00  0.00000000000E+00  0.70934263182E+03  0.70934263183E+03  0.25500000000E-02 0. -1.
         -2   -1    0    0    0  501 -0.00000000000E+00 -0.00000000000E+00 -0.12174869262E+04  0.12174869262E+04  0.25500000000E-02 0.  1.
    8880022    1    1    2    0    0  0.78677087460E+03 -0.46234836349E+03 -0.16459520824E+03  0.93981788338E+03  0.15294330000E+03 0.  0.
    8880022    1    1    2    0    0 -0.78677087460E+03  0.46234836349E+03 -0.34354908618E+03  0.98701167468E+03  0.15294330000E+03 0.  0.
<mgrwt>
<rscale>  0 0.92529242E+03</rscale>
<asrwt>0</asrwt>
<pdfrwt beam="1">  1        2 0.10912964E+00 0.92529242E+03</pdfrwt>
<pdfrwt beam="2">  1       -2 0.18730568E+00 0.92529242E+03</pdfrwt>
<totfact> 0.65105031E+00</totfact>
</mgrwt>
</event>
<event>
 4    1  0.2061941E-008  0.1156559E+04  0.7818608E-02  0.9151754E-01
          2   -1    0    0  501    0  0.00000000000E+00  0.00000000000E+00  0.16804135846E+04  0.16804135846E+04  0.25500000000E-02 0. -1.
         -2   -1    0    0    0  501 -0.00000000000E+00 -0.00000000000E+00 -0.82865364822E+03  0.82865364822E+03  0.25500000000E-02 0.  1.
    8880022    1    1    2    0    0  0.10506004778E+04  0.45877550536E+03  0.67487308985E+03  0.13390599944E+04  0.15294330000E+03 0.  0.
    8880022    1    1    2    0    0 -0.10506004778E+04 -0.45877550536E+03  0.17688684650E+03  0.11700072383E+04  0.15294330000E+03 0.  0.
<mgrwt>
<rscale>  0 0.11565587E+04</rscale>
<asrwt>0</asrwt>
<pdfrwt beam="1">  1        2 0.25852516E+00 0.11565587E+04</pdfrwt>
<pdfrwt beam="2">  1       -2 0.12748518E+00 0.11565587E+04</pdfrwt>
<totfact> 0.44895608E+00</totfact>
</mgrwt>
</event>
<event>
 4    1  0.2061941E-008  0.3900955E+03  0.7818608E-02  0.1047264E+00
         -2   -1    0    0    0  501 -0.00000000000E+00  0.00000000000E+00  0.62727245284E+03  0.62727245284E+03  0.25500000000E-02 0.  1.
          2   -1    0    0  501    0  0.00000000000E+00 -0.00000000000E+00 -0.10253554805E+04  0.10253554805E+04  0.25500000000E-02 0. -1.
    8880022    1    1    2    0    0 -0.25954820168E+03 -0.24782573410E+03  0.52293274053E+03  0.65240567718E+03  0.15294330000E+03 0.  0.
    8880022    1    1    2    0    0  0.25954820168E+03  0.24782573410E+03 -0.92101576822E+03  0.10002222562E+04  0.15294330000E+03 0. -1.
<mgrwt>
<rscale>  0 0.39009552E+03</rscale>
<asrwt>0</asrwt>
<pdfrwt beam="1">  1        2 0.15774700E+00 0.39009552E+03</pdfrwt>
<pdfrwt beam="2">  1       -2 0.96503455E-01 0.39009552E+03</pdfrwt>
<totfact> 0.23321258E+01</totfact>
</mgrwt>
</event>
<event>
 4    1  0.2061941E-008  0.1251704E+04  0.7818608E-02  0.9068767E-01
         -2   -1    0    0    0  501 -0.00000000000E+00  0.00000000000E+00  0.12266653766E+04  0.12266653766E+04  0.25500000000E-02 0.  1.
          2   -1    0    0  501    0  0.00000000000E+00 -0.00000000000E+00 -0.32453520192E+04  0.32453520192E+04  0.25500000000E-02 0. -1.
    8880022    1    1    2    0    0  0.22525712591E+03 -0.12217320987E+04  0.73192653232E+03  0.14499924812E+04  0.15294330000E+03 0.  0.
    8880022    1    1    2    0    0 -0.22525712591E+03  0.12217320987E+04 -0.27506131750E+04  0.30220249147E+04  0.15294330000E+03 0.  0.
<mgrwt>
<rscale>  0 0.12517035E+04</rscale>
<asrwt>0</asrwt>
<pdfrwt beam="1">  1        2 0.49928492E+00 0.12517035E+04</pdfrwt>
<pdfrwt beam="2">  1       -2 0.18871775E+00 0.12517035E+04</pdfrwt>
<totfact> 0.18749549E-01</totfact>
</mgrwt>
</event>
<event>
 4    1  0.2061941E-008  0.9120524E+03  0.7818608E-02  0.9410640E-01
         -2   -1    0    0    0  501 -0.00000000000E+00  0.00000000000E+00  0.43476473024E+03  0.43476473024E+03  0.25500000000E-02 0.  1.
          2   -1    0    0  501    0  0.00000000000E+00 -0.00000000000E+00 -0.24798110655E+04  0.24798110655E+04  0.25500000000E-02 0. -1.
    8880022    1    1    2    0    0 -0.55077287247E+03 -0.71070186577E+03 -0.17190479331E+04  0.19460126794E+04  0.15294330000E+03 0.  0.
    8880022    1    1    2    0    0  0.55077287247E+03  0.71070186577E+03 -0.32599840210E+03  0.96856311629E+03  0.15294330000E+03 0.  0.
<mgrwt>
<rscale>  0 0.91205238E+03</rscale>
<asrwt>0</asrwt>
<pdfrwt beam="1">  1        2 0.38150939E+00 0.91205238E+03</pdfrwt>
<pdfrwt beam="2">  1       -2 0.66886883E-01 0.91205238E+03</pdfrwt>
<totfact> 0.75066700E+00</totfact>
</mgrwt>
</event>
<event>
 4    1  0.2061941E-008  0.6004530E+03  0.7818608E-02  0.9904467E-01
          2   -1    0    0  501    0  0.00000000000E+00  0.00000000000E+00  0.17735328270E+04  0.17735328270E+04  0.25500000000E-02 0. -1.
         -2   -1    0    0    0  501 -0.00000000000E+00 -0.00000000000E+00 -0.24610697551E+03  0.24610697552E+03  0.25500000000E-02 0.  1.
    8880022    1    1    2    0    0  0.57951514670E+03  0.36254387479E+02  0.34251789803E+03  0.69127588513E+03  0.15294330000E+03 0.  0.
    8880022    1    1    2    0    0 -0.57951514670E+03 -0.36254387479E+02  0.11849079535E+04  0.13283639174E+04  0.15294330000E+03 0.  0.
<mgrwt>
<rscale>  0 0.60045303E+03</rscale>
<asrwt>0</asrwt>
<pdfrwt beam="1">  1        2 0.27285122E+00 0.60045303E+03</pdfrwt>
<pdfrwt beam="2">  1       -2 0.37862610E-01 0.60045303E+03</pdfrwt>
<totfact> 0.61335098E+01</totfact>
</mgrwt>
</event>
<event>
 4    1  0.2061941E-008  0.1441338E+04  0.7818608E-02  0.8924428E-01
          2   -1    0    0  501    0  0.00000000000E+00  0.00000000000E+00  0.22230285250E+04  0.22230285250E+04  0.25500000000E-02 0. -1.
         -2   -1    0    0    0  501 -0.00000000000E+00 -0.00000000000E+00 -0.11715822795E+04  0.11715822795E+04  0.25500000000E-02 0.  1.
    8880022    1    1    2    0    0 -0.81983918346E+03  0.11755540087E+04 -0.23777630928E+03  0.14608192018E+04  0.15294330000E+03 0.  0.
    8880022    1    1    2    0    0  0.81983918346E+03 -0.11755540087E+04  0.12892225548E+04  0.19337916027E+04  0.15294330000E+03 0.  0.
<mgrwt>
<rscale>  0 0.14413380E+04</rscale>
<asrwt>0</asrwt>
<pdfrwt beam="1">  1        2 0.34200438E+00 0.14413380E+04</pdfrwt>
<pdfrwt beam="2">  1       -2 0.18024343E+00 0.14413380E+04</pdfrwt>
<totfact> 0.85685623E-01</totfact>
</mgrwt>
</event>
<event>
 4    1  0.2061941E-008  0.1332721E+04  0.7818608E-02  0.9004012E-01
          2   -1    0    0  501    0  0.00000000000E+00  0.00000000000E+00  0.27542560208E+04  0.27542560208E+04  0.25500000000E-02 0. -1.
         -2   -1    0    0    0  501 -0.00000000000E+00 -0.00000000000E+00 -0.16425248412E+04  0.16425248413E+04  0.25500000000E-02 0.  1.
    8880022    1    1    2    0    0  0.60884827952E+03  0.11756088782E+04  0.22691854655E+04  0.26316053640E+04  0.15294330000E+03 0.  0.
    8880022    1    1    2    0    0 -0.60884827952E+03 -0.11756088782E+04 -0.11574542859E+04  0.17651754981E+04  0.15294330000E+03 0.  0.
<mgrwt>
<rscale>  0 0.13327206E+04</rscale>
<asrwt>0</asrwt>
<pdfrwt beam="1">  1        2 0.42373169E+00 0.13327206E+04</pdfrwt>
<pdfrwt beam="2">  1       -2 0.25269613E+00 0.13327206E+04</pdfrwt>
<totfact> 0.14645683E-01</totfact>
</mgrwt>
</event>
<event>
 4    1  0.2061941E-008  0.2543905E+03  0.7818608E-02  0.1110561E+00
         -2   -1    0    0    0  501 -0.00000000000E+00  0.00000000000E+00  0.91110306947E+03  0.91110306947E+03  0.25500000000E-02 0.  1.
          2   -1    0    0  501    0  0.00000000000E+00 -0.00000000000E+00 -0.14895411748E+03  0.14895411751E+03  0.25500000000E-02 0. -1.
    8880022    1    1    2    0    0  0.12551799471E+03  0.15990026676E+03  0.76443947769E+03  0.80565639722E+03  0.15294330000E+03 0.  0.
    8880022    1    1    2    0    0 -0.12551799471E+03 -0.15990026676E+03 -0.22905257128E+01  0.25440078976E+03  0.15294330000E+03 0.  0.
<mgrwt>
<rscale>  0 0.25439048E+03</rscale>
<asrwt>0</asrwt>
<pdfrwt beam="1">  1        2 0.22916018E-01 0.25439048E+03</pdfrwt>
<pdfrwt beam="2">  1       -2 0.14016970E+00 0.25439048E+03</pdfrwt>
<totfact> 0.90207535E+01</totfact>
</mgrwt>
</event>
<event>
 4    1  0.2061941E-008  0.8312774E+03  0.7818608E-02  0.9515816E-01
          2   -1    0    0  501    0  0.00000000000E+00  0.00000000000E+00  0.67761143802E+03  0.67761143802E+03  0.25500000000E-02 0. -1.
         -2   -1    0    0    0  501 -0.00000000000E+00 -0.00000000000E+00 -0.24673181243E+04  0.24673181243E+04  0.25500000000E-02 0.  1.
    8880022    1    1    2    0    0 -0.51879484693E+03 -0.63125462285E+03 -0.20992836805E+04  0.22578782332E+04  0.15294330000E+03 0.  0.
    8880022    1    1    2    0    0  0.51879484693E+03  0.63125462285E+03  0.30957699419E+03  0.88705132908E+03  0.15294330000E+03 0.  0.
<mgrwt>
<rscale>  0 0.83127742E+03</rscale>
<asrwt>0</asrwt>
<pdfrwt beam="1">  1        2 0.10424792E+00 0.83127742E+03</pdfrwt>
<pdfrwt beam="2">  1       -2 0.37958740E+00 0.83127742E+03</pdfrwt>
<totfact> 0.44953237E-01</totfact>
</mgrwt>
</event>
<event>
 4    1  0.2061941E-008  0.6369140E+03  0.7818608E-02  0.9831649E-01
          2   -1    0    0  501    0  0.00000000000E+00  0.00000000000E+00  0.25304135181E+04  0.25304135181E+04  0.25500000000E-02 0. -1.
         -2   -1    0    0    0  501 -0.00000000000E+00 -0.00000000000E+00 -0.76874678644E+03  0.76874678645E+03  0.25500000000E-02 0.  1.
    8880022    1    1    2    0    0  0.60901266015E+03  0.10663657509E+03  0.23483676328E+04  0.24332056985E+04  0.15294330000E+03 0.  0.
    8880022    1    1    2    0    0 -0.60901266015E+03 -0.10663657509E+03 -0.58670090113E+03  0.86595460607E+03  0.15294330000E+03 0.  0.
<mgrwt>
<rscale>  0 0.63691399E+03</rscale>
<asrwt>0</asrwt>
<pdfrwt beam="1">  1        2 0.38929438E+00 0.63691399E+03</pdfrwt>
<pdfrwt beam="2">  1       -2 0.11826874E+00 0.63691399E+03</pdfrwt>
<totfact> 0.19833593E+00</totfact>
</mgrwt>
</event>
<event>
 4    1  0.2635058E-008  0.1121670E+04  0.7818608E-02  0.9184324E-01
          2   -1    0    0  501    0  0.00000000000E+00  0.00000000000E+00  0.20744241949E+04  0.20744241949E+04  0.25500000000E-02 0. -1.
         -2   -1    0    0    0  501 -0.00000000000E+00 -0.00000000000E+00 -0.17206247094E+04  0.17206247094E+04  0.25500000000E-02 0.  1.
    8880022    1    1    2    0    0  0.10816215687E+04  0.25465012509E+03 -0.13500006617E+04  0.17551767272E+04  0.15294330000E+03 0.  0.
    8880022    1    1    2    0    0 -0.10816215687E+04 -0.25465012509E+03  0.17038001472E+04  0.20398721771E+04  0.15294330000E+03 0.  0.
<mgrwt>
<rscale>  0 0.11216700E+04</rscale>
<asrwt>0</asrwt>
<pdfrwt beam="1">  1        2 0.31914218E+00 0.11216700E+04</pdfrwt>
<pdfrwt beam="2">  1       -2 0.26471149E+00 0.11216700E+04</pdfrwt>
<totfact> 0.31263609E-01</totfact>
</mgrwt>
</event>
<event>
 4    1  0.2061941E-008  0.2563211E+03  0.7818608E-02  0.1109374E+00
          2   -1    0    0  501    0  0.00000000000E+00  0.00000000000E+00  0.20195127331E+04  0.20195127331E+04  0.25500000000E-02 0. -1.
         -2   -1    0    0    0  501 -0.00000000000E+00 -0.00000000000E+00 -0.18062584683E+03  0.18062584685E+03  0.25500000000E-02 0.  1.
    8880022    1    1    2    0    0 -0.17551042754E+03 -0.10726105140E+03  0.19155306442E+04  0.19326039804E+04  0.15294330000E+03 0.  0.
    8880022    1    1    2    0    0  0.17551042754E+03  0.10726105140E+03 -0.76643757886E+02  0.26753459956E+03  0.15294330000E+03 0.  1.
<mgrwt>
<rscale>  0 0.25632108E+03</rscale>
<asrwt>0</asrwt>
<pdfrwt beam="1">  1        2 0.31069428E+00 0.25632108E+03</pdfrwt>
<pdfrwt beam="2">  1       -2 0.27788591E-01 0.25632108E+03</pdfrwt>
<totfact> 0.86564240E+01</totfact>
</mgrwt>
</event>
<event>
 4    1  0.2061941E-008  0.8146564E+03  0.7818608E-02  0.9539042E-01
         -2   -1    0    0    0  501 -0.00000000000E+00  0.00000000000E+00  0.32797077204E+03  0.32797077205E+03  0.25500000000E-02 0.  1.
          2   -1    0    0  501    0  0.00000000000E+00 -0.00000000000E+00 -0.25651879372E+04  0.25651879372E+04  0.25500000000E-02 0. -1.
    8880022    1    1    2    0    0  0.77384200268E+03  0.20357311653E+03 -0.45389067064E+03  0.93256734491E+03  0.15294330000E+03 0.  0.
    8880022    1    1    2    0    0 -0.77384200268E+03 -0.20357311653E+03 -0.17833264945E+04  0.19605913644E+04  0.15294330000E+03 0.  0.
<mgrwt>
<rscale>  0 0.81465644E+03</rscale>
<asrwt>0</asrwt>
<pdfrwt beam="1">  1        2 0.39464429E+00 0.81465644E+03</pdfrwt>
<pdfrwt beam="2">  1       -2 0.50457043E-01 0.81465644E+03</pdfrwt>
<totfact> 0.12310606E+01</totfact>
</mgrwt>
</event>
<event>
 4    1  0.2061941E-008  0.1476189E+04  0.7818608E-02  0.8900443E-01
         -2   -1    0    0    0  501 -0.00000000000E+00  0.00000000000E+00  0.12045190413E+04  0.12045190413E+04  0.25500000000E-02 0.  1.
          2   -1    0    0  501    0  0.00000000000E+00 -0.00000000000E+00 -0.23643868659E+04  0.23643868659E+04  0.25500000000E-02 0. -1.
    8880022    1    1    2    0    0  0.99505643656E+03 -0.10796314011E+04 -0.14446874541E+04  0.20654914106E+04  0.15294330000E+03 0.  0.
    8880022    1    1    2    0    0 -0.99505643656E+03  0.10796314011E+04  0.28481962940E+03  0.15034144966E+04  0.15294330000E+03 0.  0.
<mgrwt>
<rscale>  0 0.14761886E+04</rscale>
<asrwt>0</asrwt>
<pdfrwt beam="1">  1        2 0.36375182E+00 0.14761886E+04</pdfrwt>
<pdfrwt beam="2">  1       -2 0.18531062E+00 0.14761886E+04</pdfrwt>
<totfact> 0.65503401E-01</totfact>
</mgrwt>
</event>
<event>
 4    1  0.2061941E-008  0.9617740E+03  0.7818608E-02  0.9351493E-01
         -2   -1    0    0    0  501 -0.00000000000E+00  0.00000000000E+00  0.16130056550E+04  0.16130056550E+04  0.25500000000E-02 0.  1.
          2   -1    0    0  501    0  0.00000000000E+00 -0.00000000000E+00 -0.97034382671E+03  0.97034382671E+03  0.25500000000E-02 0. -1.
    8880022    1    1    2    0    0  0.20178464585E+03  0.92784729100E+03  0.11474010706E+04  0.14971768461E+04  0.15294330000E+03 0.  0.
    8880022    1    1    2    0    0 -0.20178464585E+03 -0.92784729100E+03 -0.50473924226E+03  0.10861726356E+04  0.15294330000E+03 0.  0.
<mgrwt>
<rscale>  0 0.96177403E+03</rscale>
<asrwt>0</asrwt>
<pdfrwt beam="1">  1        2 0.14928367E+00 0.96177403E+03</pdfrwt>
<pdfrwt beam="2">  1       -2 0.24815472E+00 0.96177403E+03</pdfrwt>
<totfact> 0.17394070E+00</totfact>
</mgrwt>
</event>
<event>
 4    1  0.2061941E-008  0.3553534E+03  0.7818608E-02  0.1060439E+00
         -2   -1    0    0    0  501 -0.00000000000E+00  0.00000000000E+00  0.19336939467E+03  0.19336939469E+03  0.25500000000E-02 0.  1.
          2   -1    0    0  501    0  0.00000000000E+00 -0.00000000000E+00 -0.16260254675E+04  0.16260254675E+04  0.25500000000E-02 0. -1.
    8880022    1    1    2    0    0 -0.26022116326E+02 -0.31969866733E+03 -0.12626214233E+02  0.35557764656E+03  0.15294330000E+03 0.  0.
    8880022    1    1    2    0    0  0.26022116326E+02  0.31969866733E+03 -0.14200298586E+04  0.14638172156E+04  0.15294330000E+03 0.  0.
<mgrwt>
<rscale>  0 0.35535340E+03</rscale>
<asrwt>0</asrwt>
<pdfrwt beam="1">  1        2 0.25015775E+00 0.35535340E+03</pdfrwt>
<pdfrwt beam="2">  1       -2 0.29749139E-01 0.35535340E+03</pdfrwt>
<totfact> 0.12045324E+02</totfact>
</mgrwt>
</event>
<event>
 4    1  0.2061941E-008  0.1347920E+04  0.7818608E-02  0.8992404E-01
         -2   -1    0    0    0  501 -0.00000000000E+00  0.00000000000E+00  0.11677108676E+04  0.11677108676E+04  0.25500000000E-02 0.  1.
          2   -1    0    0  501    0  0.00000000000E+00 -0.00000000000E+00 -0.28565191041E+04  0.28565191041E+04  0.25500000000E-02 0. -1.
    8880022    1    1    2    0    0 -0.22162093081E+03 -0.13207500944E+04  0.51329200779E+03  0.14423442679E+04  0.15294330000E+03 0.  0.
    8880022    1    1    2    0    0  0.22162093081E+03  0.13207500944E+04 -0.22021002442E+04  0.25818857038E+04  0.15294330000E+03 0.  0.
<mgrwt>
<rscale>  0 0.13479200E+04</rscale>
<asrwt>0</asrwt>
<pdfrwt beam="1">  1        2 0.43946447E+00 0.13479200E+04</pdfrwt>
<pdfrwt beam="2">  1       -2 0.17964783E+00 0.13479200E+04</pdfrwt>
<totfact> 0.37438786E-01</totfact>
</mgrwt>
</event>
<event>
 4    1  0.2061941E-008  0.7574532E+03  0.7818608E-02  0.9623729E-01
          2   -1    0    0  501    0  0.00000000000E+00  0.00000000000E+00  0.82665361457E+03  0.82665361457E+03  0.25500000000E-02 0. -1.
         -2   -1    0    0    0  501 -0.00000000000E+00 -0.00000000000E+00 -0.72892805617E+03  0.72892805617E+03  0.25500000000E-02 0.  1.
    8880022    1    1    2    0    0  0.17313260673E+03 -0.72136594668E+03 -0.12128388241E+03  0.76710179356E+03  0.15294330000E+03 0.  0.
    8880022    1    1    2    0    0 -0.17313260673E+03  0.72136594668E+03  0.21900944081E+03  0.78847987718E+03  0.15294330000E+03 0.  0.
<mgrwt>
<rscale>  0 0.75745322E+03</rscale>
<asrwt>0</asrwt>
<pdfrwt beam="1">  1        2 0.12717748E+00 0.75745322E+03</pdfrwt>
<pdfrwt beam="2">  1       -2 0.11214278E+00 0.75745322E+03</pdfrwt>
<totfact> 0.20956411E+01</totfact>
</mgrwt>
</event>
<event>
 4    1  0.2061941E-008  0.9331160E+03  0.7818608E-02  0.9385106E-01
          2   -1    0    0  501    0  0.00000000000E+00  0.00000000000E+00  0.16344209267E+04  0.16344209267E+04  0.25500000000E-02 0. -1.
         -2   -1    0    0    0  501 -0.00000000000E+00 -0.00000000000E+00 -0.11374768292E+04  0.11374768292E+04  0.25500000000E-02 0.  1.
    8880022    1    1    2    0    0  0.90105636991E+03  0.18817855651E+03  0.12590333340E+04  0.15671216736E+04  0.15294330000E+03 0.  0.
    8880022    1    1    2    0    0 -0.90105636991E+03 -0.18817855651E+03 -0.76208923655E+03  0.12047760822E+04  0.15294330000E+03 0.  0.
<mgrwt>
<rscale>  0 0.93311596E+03</rscale>
<asrwt>0</asrwt>
<pdfrwt beam="1">  1        2 0.25144937E+00 0.93311596E+03</pdfrwt>
<pdfrwt beam="2">  1       -2 0.17499643E+00 0.93311596E+03</pdfrwt>
<totfact> 0.21018169E+00</totfact>
</mgrwt>
</event>
<event>
 4    1  0.2061941E-008  0.6321045E+03  0.7818608E-02  0.9840951E-01
          2   -1    0    0  501    0  0.00000000000E+00  0.00000000000E+00  0.35425206647E+04  0.35425206647E+04  0.25500000000E-02 0. -1.
         -2   -1    0    0    0  501 -0.00000000000E+00 -0.00000000000E+00 -0.18904672931E+03  0.18904672933E+03  0.25500000000E-02 0.  1.
    8880022    1    1    2    0    0 -0.56199856458E+03  0.24560551918E+03  0.49173341748E+03  0.80084821565E+03  0.15294330000E+03 0.  0.
    8880022    1    1    2    0    0  0.56199856458E+03 -0.24560551918E+03  0.28617405179E+04  0.29307191784E+04  0.15294330000E+03 0.  0.
<mgrwt>
<rscale>  0 0.63210451E+03</rscale>
<asrwt>0</asrwt>
<pdfrwt beam="1">  1        2 0.54500314E+00 0.63210451E+03</pdfrwt>
<pdfrwt beam="2">  1       -2 0.29084114E-01 0.63210451E+03</pdfrwt>
<totfact> 0.91443053E+00</totfact>
</mgrwt>
</event>
<event>
 4    1  0.2061941E-008  0.1063774E+04  0.7818608E-02  0.9241237E-01
          2   -1    0    0  501    0  0.00000000000E+00  0.00000000000E+00  0.60027441545E+03  0.60027441546E+03  0.25500000000E-02 0. -1.
         -2   -1    0    0    0  501 -0.00000000000E+00 -0.00000000000E+00 -0.20290151188E+04  0.20290151188E+04  0.25500000000E-02 0.  1.
    8880022    1    1    2    0    0  0.10522744052E+04  0.30703794267E+02 -0.36432671108E+03  0.11244330804E+04  0.15294330000E+03 0.  0.
    8880022    1    1    2    0    0 -0.10522744052E+04 -0.30703794267E+02 -0.10644139922E+04  0.15048564538E+04  0.15294330000E+03 0.  0.
<mgrwt>
<rscale>  0 0.10637743E+04</rscale>
<asrwt>0</asrwt>
<pdfrwt beam="1">  1        2 0.92349912E-01 0.10637743E+04</pdfrwt>
<pdfrwt beam="2">  1       -2 0.31215617E+00 0.10637743E+04</pdfrwt>
<totfact> 0.13268234E+00</totfact>
</mgrwt>
</event>
<event>
 4    1  0.2061941E-008  0.4519535E+03  0.7818608E-02  0.1027141E+00
         -2   -1    0    0    0  501 -0.00000000000E+00  0.00000000000E+00  0.88471082614E+03  0.88471082615E+03  0.25500000000E-02 0.  1.
          2   -1    0    0  501    0  0.00000000000E+00 -0.00000000000E+00 -0.37181368366E+03  0.37181368366E+03  0.25500000000E-02 0. -1.
    8880022    1    1    2    0    0 -0.14242252696E+03  0.40073203695E+03 -0.13035079804E+03  0.47037572768E+03  0.15294330000E+03 0. -1.
    8880022    1    1    2    0    0  0.14242252696E+03 -0.40073203695E+03  0.64324794053E+03  0.78614878213E+03  0.15294330000E+03 0.  0.
<mgrwt>
<rscale>  0 0.45195353E+03</rscale>
<asrwt>0</asrwt>
<pdfrwt beam="1">  1        2 0.57202106E-01 0.45195353E+03</pdfrwt>
<pdfrwt beam="2">  1       -2 0.13610936E+00 0.45195353E+03</pdfrwt>
<totfact> 0.34649324E+01</totfact>
</mgrwt>
</event>
<event>
 4    1  0.2061941E-008  0.6568831E+03  0.7818608E-02  0.9793949E-01
          2   -1    0    0  501    0  0.00000000000E+00  0.00000000000E+00  0.27377581677E+04  0.27377581677E+04  0.25500000000E-02 0. -1.
         -2   -1    0    0    0  501 -0.00000000000E+00 -0.00000000000E+00 -0.39442260073E+03  0.39442260074E+03  0.25500000000E-02 0.  1.
    8880022    1    1    2    0    0  0.61902877459E+03 -0.15781974723E+03  0.23851662726E+04  0.24739671577E+04  0.15294330000E+03 0.  0.
    8880022    1    1    2    0    0 -0.61902877459E+03  0.15781974723E+03 -0.41830705649E+02  0.65821361072E+03  0.15294330000E+03 0.  0.
<mgrwt>
<rscale>  0 0.65688306E+03</rscale>
<asrwt>0</asrwt>
<pdfrwt beam="1">  1        2 0.42119355E+00 0.65688306E+03</pdfrwt>
<pdfrwt beam="2">  1       -2 0.60680402E-01 0.65688306E+03</pdfrwt>
<totfact> 0.68589459E+00</totfact>
</mgrwt>
</event>
<event>
 4    1  0.2061941E-008  0.5984924E+03  0.7818608E-02  0.9908539E-01
         -2   -1    0    0    0  501 -0.00000000000E+00  0.00000000000E+00  0.84751687035E+03  0.84751687035E+03  0.25500000000E-02 0.  1.
          2   -1    0    0  501    0  0.00000000000E+00 -0.00000000000E+00 -0.82474014972E+03  0.82474014973E+03  0.25500000000E-02 0. -1.
    8880022    1    1    2    0    0  0.54806806104E+03 -0.18553402926E+03  0.59521307256E+03  0.84408040512E+03  0.15294330000E+03 0.  0.
    8880022    1    1    2    0    0 -0.54806806104E+03  0.18553402926E+03 -0.57243635193E+03  0.82817661496E+03  0.15294330000E+03 0. -1.
<mgrwt>
<rscale>  0 0.59849238E+03</rscale>
<asrwt>0</asrwt>
<pdfrwt beam="1">  1        2 0.12688310E+00 0.59849238E+03</pdfrwt>
<pdfrwt beam="2">  1       -2 0.13038721E+00 0.59849238E+03</pdfrwt>
<totfact> 0.14731911E+01</totfact>
</mgrwt>
</event>
<event>
 4    1  0.2061941E-008  0.2038985E+03  0.7818608E-02  0.1146491E+00
         -2   -1    0    0    0  501 -0.00000000000E+00  0.00000000000E+00  0.35207089025E+03  0.35207089026E+03  0.25500000000E-02 0.  1.
          2   -1    0    0  501    0  0.00000000000E+00 -0.00000000000E+00 -0.66710435186E+03  0.66710435186E+03  0.25500000000E-02 0. -1.
    8880022    1    1    2    0    0  0.52315995715E+02  0.12428178883E+03 -0.61980778029E+03  0.65248468485E+03  0.15294330000E+03 0.  0.
    8880022    1    1    2    0    0 -0.52315995715E+02 -0.12428178883E+03  0.30477431869E+03  0.36669055726E+03  0.15294330000E+03 0.  0.
<mgrwt>
<rscale>  0 0.20389845E+03</rscale>
<asrwt>0</asrwt>
<pdfrwt beam="1">  1        2 0.10263144E+00 0.20389845E+03</pdfrwt>
<pdfrwt beam="2">  1       -2 0.54164752E-01 0.20389845E+03</pdfrwt>
<totfact> 0.14834964E+02</totfact>
</mgrwt>
</event>
<event>
 4    1  0.2061941E-008  0.8609978E+03  0.7818608E-02  0.9475694E-01
          2   -1    0    0  501    0  0.00000000000E+00  0.00000000000E+00  0.30816816413E+04  0.30816816413E+04  0.25500000000E-02 0. -1.
         -2   -1    0    0    0  501 -0.00000000000E+00 -0.00000000000E+00 -0.25413034006E+03  0.25413034007E+03  0.25500000000E-02 0.  1.
    8880022    1    1    2    0    0  0.81770266504E+03  0.22200884950E+03  0.10282959430E+04  0.13411598626E+04  0.15294330000E+03 0.  0.
    8880022    1    1    2    0    0 -0.81770266504E+03 -0.22200884950E+03  0.17992553583E+04  0.19946521188E+04  0.15294330000E+03 0.  0.
<mgrwt>
<rscale>  0 0.86099781E+03</rscale>
<asrwt>0</asrwt>
<pdfrwt beam="1">  1        2 0.47410485E+00 0.86099781E+03</pdfrwt>
<pdfrwt beam="2">  1       -2 0.39096977E-01 0.86099781E+03</pdfrwt>
<totfact> 0.99988986E+00</totfact>
</mgrwt>
</event>
<event>
 4    1  0.2061941E-008  0.1016480E+04  0.7818608E-02  0.9290652E-01
         -2   -1    0    0    0  501 -0.00000000000E+00  0.00000000000E+00  0.28940436265E+03  0.28940436266E+03  0.25500000000E-02 0.  1.
          2   -1    0    0  501    0  0.00000000000E+00 -0.00000000000E+00 -0.37903410120E+04  0.37903410120E+04  0.25500000000E-02 0. -1.
    8880022    1    1    2    0    0 -0.19997360559E+03 -0.98480989778E+03 -0.12588661414E+04  0.16180159433E+04  0.15294330000E+03 0.  0.
    8880022    1    1    2    0    0  0.19997360559E+03  0.98480989778E+03 -0.22420705079E+04  0.24617294314E+04  0.15294330000E+03 0.  0.
<mgrwt>
<rscale>  0 0.10164800E+04</rscale>
<asrwt>0</asrwt>
<pdfrwt beam="1">  1        2 0.58312935E+00 0.10164800E+04</pdfrwt>
<pdfrwt beam="2">  1       -2 0.44523751E-01 0.10164800E+04</pdfrwt>
<totfact> 0.24948372E+00</totfact>
</mgrwt>
</event>
<event>
 4    1  0.2061941E-008  0.1150052E+04  0.7818608E-02  0.9157735E-01
          2   -1    0    0  501    0  0.00000000000E+00  0.00000000000E+00  0.14429685571E+04  0.14429685571E+04  0.25500000000E-02 0. -1.
         -2   -1    0    0    0  501 -0.00000000000E+00 -0.00000000000E+00 -0.13139703064E+04  0.13139703064E+04  0.25500000000E-02 0.  1.
    8880022    1    1    2    0    0  0.30907880840E+03  0.10971322831E+04 -0.69356112555E+03  0.13429994953E+04  0.15294330000E+03 0.  0.
    8880022    1    1    2    0    0 -0.30907880840E+03 -0.10971322831E+04  0.82255937630E+03  0.14139393682E+04  0.15294330000E+03 0.  0.
<mgrwt>
<rscale>  0 0.11500524E+04</rscale>
<asrwt>0</asrwt>
<pdfrwt beam="1">  1        2 0.22199516E+00 0.11500524E+04</pdfrwt>
<pdfrwt beam="2">  1       -2 0.20214928E+00 0.11500524E+04</pdfrwt>
<totfact> 0.17176769E+00</totfact>
</mgrwt>
</event>
<event>
 4    1  0.2061941E-008  0.1239601E+04  0.7818608E-02  0.9078883E-01
          2   -1    0    0  501    0  0.00000000000E+00  0.00000000000E+00  0.15768916860E+04  0.15768916860E+04  0.25500000000E-02 0. -1.
         -2   -1    0    0    0  501 -0.00000000000E+00 -0.00000000000E+00 -0.12729129269E+04  0.12729129269E+04  0.25500000000E-02 0.  1.
    8880022    1    1    2    0    0 -0.94395686716E+03  0.78877470910E+03  0.84195345929E+03  0.14984983782E+04  0.15294330000E+03 0.  0.
    8880022    1    1    2    0    0  0.94395686716E+03 -0.78877470910E+03 -0.53797470018E+03  0.13513062347E+04  0.15294330000E+03 0.  0.
<mgrwt>
<rscale>  0 0.12396015E+04</rscale>
<asrwt>0</asrwt>
<pdfrwt beam="1">  1        2 0.24259872E+00 0.12396015E+04</pdfrwt>
<pdfrwt beam="2">  1       -2 0.19583276E+00 0.12396015E+04</pdfrwt>
<totfact> 0.15725315E+00</totfact>
</mgrwt>
</event>
<event>
 4    1  0.2061941E-008  0.8971384E+03  0.7818608E-02  0.9429166E-01
         -2   -1    0    0    0  501 -0.00000000000E+00  0.00000000000E+00  0.87182182792E+03  0.87182182792E+03  0.25500000000E-02 0.  1.
          2   -1    0    0  501    0  0.00000000000E+00 -0.00000000000E+00 -0.33230850361E+04  0.33230850361E+04  0.25500000000E-02 0. -1.
    8880022    1    1    2    0    0  0.86733040199E+03  0.17089056825E+03  0.55681987335E+03  0.10558909209E+04  0.15294330000E+03 0.  0.
    8880022    1    1    2    0    0 -0.86733040199E+03 -0.17089056825E+03 -0.30080830816E+04  0.31390159431E+04  0.15294330000E+03 0.  0.
<mgrwt>
<rscale>  0 0.89713838E+03</rscale>
<asrwt>0</asrwt>
<pdfrwt beam="1">  1        2 0.51124384E+00 0.89713838E+03</pdfrwt>
<pdfrwt beam="2">  1       -2 0.13412644E+00 0.89713838E+03</pdfrwt>
<totfact> 0.45123419E-01</totfact>
</mgrwt>
</event>
<event>
 4    1  0.2061941E-008  0.7628959E+03  0.7818608E-02  0.9615333E-01
          2   -1    0    0  501    0  0.00000000000E+00  0.00000000000E+00  0.17880475105E+04  0.17880475105E+04  0.25500000000E-02 0. -1.
         -2   -1    0    0    0  501 -0.00000000000E+00 -0.00000000000E+00 -0.11343303694E+04  0.11343303694E+04  0.25500000000E-02 0.  1.
    8880022    1    1    2    0    0  0.35709315070E+03 -0.65658435470E+03 -0.90699951927E+03  0.11851828188E+04  0.15294330000E+03 0.  1.
    8880022    1    1    2    0    0 -0.35709315070E+03  0.65658435470E+03  0.15607166604E+04  0.17371950610E+04  0.15294330000E+03 0.  0.
<mgrwt>
<rscale>  0 0.76289592E+03</rscale>
<asrwt>0</asrwt>
<pdfrwt beam="1">  1        2 0.27508423E+00 0.76289592E+03</pdfrwt>
<pdfrwt beam="2">  1       -2 0.17451237E+00 0.76289592E+03</pdfrwt>
<totfact> 0.17918091E+00</totfact>
</mgrwt>
</event>
<event>
 4    1  0.2061941E-008  0.9839997E+03  0.7818608E-02  0.9326270E-01
         -2   -1    0    0    0  501 -0.00000000000E+00  0.00000000000E+00  0.75958342551E+03  0.75958342551E+03  0.25500000000E-02 0.  1.
          2   -1    0    0  501    0  0.00000000000E+00 -0.00000000000E+00 -0.32294632735E+04  0.32294632735E+04  0.25500000000E-02 0. -1.
    8880022    1    1    2    0    0 -0.97203332456E+03  0.38720892443E+01  0.31679996357E+03  0.10337396418E+04  0.15294330000E+03 0.  0.
    8880022    1    1    2    0    0  0.97203332456E+03 -0.38720892443E+01 -0.27866798115E+04  0.29553070572E+04  0.15294330000E+03 0.  0.
<mgrwt>
<rscale>  0 0.98399971E+03</rscale>
<asrwt>0</asrwt>
<pdfrwt beam="1">  1        2 0.49684050E+00 0.98399971E+03</pdfrwt>
<pdfrwt beam="2">  1       -2 0.11685899E+00 0.98399971E+03</pdfrwt>
<totfact> 0.72234322E-01</totfact>
</mgrwt>
</event>
<event>
 4    1  0.2061941E-008  0.4372273E+03  0.7818608E-02  0.1031601E+00
         -2   -1    0    0    0  501 -0.00000000000E+00  0.00000000000E+00  0.69678420899E+02  0.69678420946E+02  0.25500000000E-02 0.  1.
          2   -1    0    0  501    0  0.00000000000E+00 -0.00000000000E+00 -0.35166414917E+04  0.35166414917E+04  0.25500000000E-02 0. -1.
    8880022    1    1    2    0    0  0.36515436288E+03  0.18557584111E+03 -0.88273653765E+03  0.98508453924E+03  0.15294330000E+03 0.  0.
    8880022    1    1    2    0    0 -0.36515436288E+03 -0.18557584111E+03 -0.25642265331E+04  0.26012353734E+04  0.15294330000E+03 0.  0.
<mgrwt>
<rscale>  0 0.43722735E+03</rscale>
<asrwt>0</asrwt>
<pdfrwt beam="1">  1        2 0.54102163E+00 0.43722735E+03</pdfrwt>
<pdfrwt beam="2">  1       -2 0.10719760E-01 0.43722735E+03</pdfrwt>
<totfact> 0.55600389E+01</totfact>
</mgrwt>
</event>
<event>
 4    1  0.2061941E-008  0.8547580E+03  0.7818608E-02  0.9483973E-01
          2   -1    0    0  501    0  0.00000000000E+00  0.00000000000E+00  0.16556629770E+04  0.16556629770E+04  0.25500000000E-02 0. -1.
         -2   -1    0    0    0  501 -0.00000000000E+00 -0.00000000000E+00 -0.16630663898E+04  0.16630663898E+04  0.25500000000E-02 0.  1.
    8880022    1    1    2    0    0 -0.83740473832E+03 -0.77284433848E+02  0.14185768472E+04  0.16561918681E+04  0.15294330000E+03 0.  0.
    8880022    1    1    2    0    0  0.83740473832E+03  0.77284433848E+02 -0.14259802600E+04  0.16625374987E+04  0.15294330000E+03 0.  0.
<mgrwt>
<rscale>  0 0.85475800E+03</rscale>
<asrwt>0</asrwt>
<pdfrwt beam="1">  1        2 0.25471738E+00 0.85475800E+03</pdfrwt>
<pdfrwt beam="2">  1       -2 0.25585637E+00 0.85475800E+03</pdfrwt>
<totfact> 0.62958894E-01</totfact>
</mgrwt>
</event>
<event>
 4    1  0.2061941E-008  0.4097941E+03  0.7818608E-02  0.1040440E+00
         -2   -1    0    0    0  501 -0.00000000000E+00  0.00000000000E+00  0.10241580841E+04  0.10241580841E+04  0.25500000000E-02 0.  1.
          2   -1    0    0  501    0  0.00000000000E+00 -0.00000000000E+00 -0.22533903595E+04  0.22533903595E+04  0.25500000000E-02 0. -1.
    8880022    1    1    2    0    0 -0.36515481011E+03  0.10583728557E+03 -0.21926409116E+04  0.22306065065E+04  0.15294330000E+03 0. -1.
    8880022    1    1    2    0    0  0.36515481011E+03 -0.10583728557E+03  0.96340863627E+03  0.10469419372E+04  0.15294330000E+03 0.  0.
<mgrwt>
<rscale>  0 0.40979412E+03</rscale>
<asrwt>0</asrwt>
<pdfrwt beam="1">  1        2 0.34667544E+00 0.40979412E+03</pdfrwt>
<pdfrwt beam="2">  1       -2 0.15756278E+00 0.40979412E+03</pdfrwt>
<totfact> 0.14520052E+00</totfact>
</mgrwt>
</event>
<event>
 4    1  0.2061941E-008  0.2893321E+03  0.7818608E-02  0.1090698E+00
         -2   -1    0    0    0  501 -0.00000000000E+00  0.00000000000E+00  0.17332587914E+03  0.17332587916E+03  0.25500000000E-02 0.  1.
          2   -1    0    0  501    0  0.00000000000E+00 -0.00000000000E+00 -0.33006215251E+04  0.33006215251E+04  0.25500000000E-02 0. -1.
    8880022    1    1    2    0    0 -0.21215036500E+03 -0.12374818236E+03 -0.31685116936E+04  0.31816944221E+04  0.15294330000E+03 0. -1.
    8880022    1    1    2    0    0  0.21215036500E+03  0.12374818236E+03  0.41216047631E+02  0.29225298220E+03  0.15294330000E+03 0.  0.
<mgrwt>
<rscale>  0 0.28933206E+03</rscale>
<asrwt>0</asrwt>
<pdfrwt beam="1">  1        2 0.50778788E+00 0.28933206E+03</pdfrwt>
<pdfrwt beam="2">  1       -2 0.26665522E-01 0.28933206E+03</pdfrwt>
<totfact> 0.17299789E+01</totfact>
</mgrwt>
</event>
<event>
 4    1  0.2061941E-008  0.7250377E+03  0.7818608E-02  0.9675347E-01
         -2   -1    0    0    0  501 -0.00000000000E+00  0.00000000000E+00  0.62437232714E+03  0.62437232715E+03  0.25500000000E-02 0.  1.
          2   -1    0    0  501    0  0.00000000000E+00 -0.00000000000E+00 -0.11523673526E+04  0.11523673526E+04  0.25500000000E-02 0. -1.
    8880022    1    1    2    0    0 -0.70860221464E+03 -0.13075257423E+02 -0.72508481958E+03  0.10253914909E+04  0.15294330000E+03 0.  0.
    8880022    1    1    2    0    0  0.70860221464E+03  0.13075257423E+02  0.19708979413E+03  0.75134818887E+03  0.15294330000E+03 0.  1.
<mgrwt>
<rscale>  0 0.72503773E+03</rscale>
<asrwt>0</asrwt>
<pdfrwt beam="1">  1        2 0.17728728E+00 0.72503773E+03</pdfrwt>
<pdfrwt beam="2">  1       -2 0.96057281E-01 0.72503773E+03</pdfrwt>
<totfact> 0.18769625E+01</totfact>
</mgrwt>
</event>
<event>
 4    1  0.2061941E-008  0.7948231E+03  0.7818608E-02  0.9567541E-01
         -2   -1    0    0    0  501 -0.00000000000E+00  0.00000000000E+00  0.13565339039E+04  0.13565339039E+04  0.25500000000E-02 0.  1.
          2   -1    0    0  501    0  0.00000000000E+00 -0.00000000000E+00 -0.71769705597E+03  0.71769705598E+03  0.25500000000E-02 0. -1.
    8880022    1    1    2    0    0 -0.60353278985E+03  0.49406499800E+03 -0.29512212257E+03  0.84784477996E+03  0.15294330000E+03 0.  0.
    8880022    1    1    2    0    0  0.60353278985E+03 -0.49406499800E+03  0.93395897045E+03  0.12263861799E+04  0.15294330000E+03 0.  0.
<mgrwt>
<rscale>  0 0.79482306E+03</rscale>
<asrwt>0</asrwt>
<pdfrwt beam="1">  1        2 0.11041493E+00 0.79482306E+03</pdfrwt>
<pdfrwt beam="2">  1       -2 0.20869752E+00 0.79482306E+03</pdfrwt>
<totfact> 0.47110179E+00</totfact>
</mgrwt>
</event>
<event>
 4    1  0.2061941E-008  0.1021898E+04  0.7818608E-02  0.9284849E-01
          2   -1    0    0  501    0  0.00000000000E+00  0.00000000000E+00  0.16592706631E+04  0.16592706631E+04  0.25500000000E-02 0. -1.
         -2   -1    0    0    0  501 -0.00000000000E+00 -0.00000000000E+00 -0.88477183616E+03  0.88477183616E+03  0.25500000000E-02 0.  1.
    8880022    1    1    2    0    0  0.54213746782E+03 -0.85262549095E+03  0.10706905435E+04  0.14800855228E+04  0.15294330000E+03 0.  0.
    8880022    1    1    2    0    0 -0.54213746782E+03  0.85262549095E+03 -0.29619171657E+03  0.10639569765E+04  0.15294330000E+03 0.  0.
<mgrwt>
<rscale>  0 0.10218977E+04</rscale>
<asrwt>0</asrwt>
<pdfrwt beam="1">  1        2 0.25527241E+00 0.10218977E+04</pdfrwt>
<pdfrwt beam="2">  1       -2 0.13611874E+00 0.10218977E+04</pdfrwt>
<totfact> 0.39587112E+00</totfact>
</mgrwt>
</event>
<event>
 4    1  0.2061941E-008  0.4051136E+03  0.7818608E-02  0.1042023E+00
         -2   -1    0    0    0  501 -0.00000000000E+00  0.00000000000E+00  0.12942176648E+03  0.12942176650E+03  0.25500000000E-02 0.  1.
          2   -1    0    0  501    0  0.00000000000E+00 -0.00000000000E+00 -0.22115561765E+04  0.22115561765E+04  0.25500000000E-02 0. -1.
    8880022    1    1    2    0    0  0.32171738571E+03  0.19293342874E+03 -0.18055786909E+04  0.18504678993E+04  0.15294330000E+03 0.  0.
    8880022    1    1    2    0    0 -0.32171738571E+03 -0.19293342874E+03 -0.27655571909E+03  0.49051004370E+03  0.15294330000E+03 0.  0.
<mgrwt>
<rscale>  0 0.40511361E+03</rscale>
<asrwt>0</asrwt>
<pdfrwt beam="1">  1        2 0.34023938E+00 0.40511361E+03</pdfrwt>
<pdfrwt beam="2">  1       -2 0.19911043E-01 0.40511361E+03</pdfrwt>
<totfact> 0.11850576E+02</totfact>
</mgrwt>
</event>
<event>
 4    1  0.2061941E-008  0.2099510E+03  0.7818608E-02  0.1141605E+00
         -2   -1    0    0    0  501 -0.00000000000E+00  0.00000000000E+00  0.45024125546E+03  0.45024125547E+03  0.25500000000E-02 0.  1.
          2   -1    0    0  501    0  0.00000000000E+00 -0.00000000000E+00 -0.25270623296E+03  0.25270623297E+03  0.25500000000E-02 0. -1.
    8880022    1    1    2    0    0 -0.14375789662E+03  0.46284751437E+01  0.37385869489E+03  0.42877701942E+03  0.15294330000E+03 0.  0.
    8880022    1    1    2    0    0  0.14375789662E+03 -0.46284751437E+01 -0.17632367239E+03  0.27417046902E+03  0.15294330000E+03 0.  0.
<mgrwt>
<rscale>  0 0.20995097E+03</rscale>
<asrwt>0</asrwt>
<pdfrwt beam="1">  1        2 0.38877882E-01 0.20995097E+03</pdfrwt>
<pdfrwt beam="2">  1       -2 0.69267886E-01 0.20995097E+03</pdfrwt>
<totfact> 0.25933325E+02</totfact>
</mgrwt>
</event>
<event>
 4    1  0.2061941E-008  0.1022170E+04  0.7818608E-02  0.9284558E-01
          2   -1    0    0  501    0  0.00000000000E+00  0.00000000000E+00  0.19685047839E+04  0.19685047839E+04  0.25500000000E-02 0. -1.
         -2   -1    0    0    0  501 -0.00000000000E+00 -0.00000000000E+00 -0.14042944027E+04  0.14042944027E+04  0.25500000000E-02 0.  1.
    8880022    1    1    2    0    0  0.98134619246E+03  0.24166139031E+03 -0.10479442891E+04  0.14639055513E+04  0.15294330000E+03 0.  0.
    8880022    1    1    2    0    0 -0.98134619246E+03 -0.24166139031E+03  0.16121546703E+04  0.19088936354E+04  0.15294330000E+03 0.  0.
<mgrwt>
<rscale>  0 0.10221704E+04</rscale>
<asrwt>0</asrwt>
<pdfrwt beam="1">  1        2 0.30284689E+00 0.10221704E+04</pdfrwt>
<pdfrwt beam="2">  1       -2 0.21604529E+00 0.10221704E+04</pdfrwt>
<totfact> 0.72553040E-01</totfact>
</mgrwt>
</event>
<event>
 4    1  0.2061941E-008  0.4003793E+03  0.7818608E-02  0.1043648E+00
          2   -1    0    0  501    0  0.00000000000E+00  0.00000000000E+00  0.78257627846E+03  0.78257627847E+03  0.25500000000E-02 0. -1.
         -2   -1    0    0    0  501 -0.00000000000E+00 -0.00000000000E+00 -0.24982240270E+03  0.24982240271E+03  0.25500000000E-02 0.  1.
    8880022    1    1    2    0    0 -0.92355784278E+02  0.35830484529E+03  0.47339234295E+02  0.40316821448E+03  0.15294330000E+03 0.  0.
    8880022    1    1    2    0    0  0.92355784278E+02 -0.35830484529E+03  0.48541464147E+03  0.62923046670E+03  0.15294330000E+03 0.  0.
<mgrwt>
<rscale>  0 0.40037933E+03</rscale>
<asrwt>0</asrwt>
<pdfrwt beam="1">  1        2 0.12039635E+00 0.40037933E+03</pdfrwt>
<pdfrwt beam="2">  1       -2 0.38434216E-01 0.40037933E+03</pdfrwt>
<totfact> 0.23388238E+02</totfact>
</mgrwt>
</event>
<event>
 4    1  0.2061941E-008  0.1611671E+04  0.7818608E-02  0.8813410E-01
         -2   -1    0    0    0  501 -0.00000000000E+00  0.00000000000E+00  0.99660751426E+03  0.99660751426E+03  0.25500000000E-02 0.  1.
          2   -1    0    0  501    0  0.00000000000E+00 -0.00000000000E+00 -0.31216588851E+04  0.31216588851E+04  0.25500000000E-02 0. -1.
    8880022    1    1    2    0    0  0.11303422309E+04 -0.11386029915E+04 -0.22588971688E+03  0.16274237765E+04  0.15294330000E+03 0.  0.
    8880022    1    1    2    0    0 -0.11303422309E+04  0.11386029915E+04 -0.18991616539E+04  0.24908426229E+04  0.15294330000E+03 0.  0.
<mgrwt>
<rscale>  0 0.16116706E+04</rscale>
<asrwt>0</asrwt>
<pdfrwt beam="1">  1        2 0.48025521E+00 0.16116706E+04</pdfrwt>
<pdfrwt beam="2">  1       -2 0.15332423E+00 0.16116706E+04</pdfrwt>
<totfact> 0.38578692E-01</totfact>
</mgrwt>
</event>
<event>
 4    1  0.2061941E-008  0.1044400E+04  0.7818608E-02  0.9261145E-01
         -2   -1    0    0    0  501 -0.00000000000E+00  0.00000000000E+00  0.88683834417E+03  0.88683834417E+03  0.25500000000E-02 0.  1.
          2   -1    0    0  501    0  0.00000000000E+00 -0.00000000000E+00 -0.17821502070E+04  0.17821502070E+04  0.25500000000E-02 0. -1.
    8880022    1    1    2    0    0 -0.83794504009E+03 -0.60434043406E+03 -0.11904886683E+04  0.15836774207E+04  0.15294330000E+03 0.  0.
    8880022    1    1    2    0    0  0.83794504009E+03  0.60434043406E+03  0.29517680548E+03  0.10853111305E+04  0.15294330000E+03 0.  0.
<mgrwt>
<rscale>  0 0.10443998E+04</rscale>
<asrwt>0</asrwt>
<pdfrwt beam="1">  1        2 0.27417695E+00 0.10443998E+04</pdfrwt>
<pdfrwt beam="2">  1       -2 0.13643667E+00 0.10443998E+04</pdfrwt>
<totfact> 0.33564417E+00</totfact>
</mgrwt>
</event>
<event>
 4    1  0.2061941E-008  0.6597796E+03  0.7818608E-02  0.9788600E-01
         -2   -1    0    0    0  501 -0.00000000000E+00  0.00000000000E+00  0.26348641670E+03  0.26348641671E+03  0.25500000000E-02 0.  1.
          2   -1    0    0  501    0  0.00000000000E+00 -0.00000000000E+00 -0.34424198830E+04  0.34424198830E+04  0.25500000000E-02 0. -1.
    8880022    1    1    2    0    0 -0.27159990576E+03  0.58150745304E+03 -0.29257433715E+04  0.29992137896E+04  0.15294330000E+03 0.  0.
    8880022    1    1    2    0    0  0.27159990576E+03 -0.58150745304E+03 -0.25319009481E+03  0.70669251013E+03  0.15294330000E+03 0.  0.
<mgrwt>
<rscale>  0 0.65977957E+03</rscale>
<asrwt>0</asrwt>
<pdfrwt beam="1">  1        2 0.52960303E+00 0.65977957E+03</pdfrwt>
<pdfrwt beam="2">  1       -2 0.40536374E-01 0.65977957E+03</pdfrwt>
<totfact> 0.56633693E+00</totfact>
</mgrwt>
</event>
<event>
 4    1  0.2061941E-008  0.7802336E+03  0.7818608E-02  0.9589077E-01
          2   -1    0    0  501    0  0.00000000000E+00  0.00000000000E+00  0.10722584621E+04  0.10722584621E+04  0.25500000000E-02 0. -1.
         -2   -1    0    0    0  501 -0.00000000000E+00 -0.00000000000E+00 -0.10541153978E+04  0.10541153978E+04  0.25500000000E-02 0.  1.
    8880022    1    1    2    0    0  0.44958178014E+03  0.61907110289E+03 -0.71311796186E+03  0.10570249231E+04  0.15294330000E+03 0.  0.
    8880022    1    1    2    0    0 -0.44958178014E+03 -0.61907110289E+03  0.73126102617E+03  0.10693489369E+04  0.15294330000E+03 0.  0.
<mgrwt>
<rscale>  0 0.78023359E+03</rscale>
<asrwt>0</asrwt>
<pdfrwt beam="1">  1        2 0.16496284E+00 0.78023359E+03</pdfrwt>
<pdfrwt beam="2">  1       -2 0.16217160E+00 0.78023359E+03</pdfrwt>
<totfact> 0.55932674E+00</totfact>
</mgrwt>
</event>
<event>
 4    1  0.2061941E-008  0.7395656E+03  0.7818608E-02  0.9651864E-01
         -2   -1    0    0    0  501 -0.00000000000E+00  0.00000000000E+00  0.75394897775E+03  0.75394897776E+03  0.25500000000E-02 0.  1.
          2   -1    0    0  501    0  0.00000000000E+00 -0.00000000000E+00 -0.29745036366E+04  0.29745036366E+04  0.25500000000E-02 0. -1.
    8880022    1    1    2    0    0  0.72335624403E+03  0.17925472602E+02  0.51075118111E+03  0.89879029833E+03  0.15294330000E+03 0.  0.
    8880022    1    1    2    0    0 -0.72335624403E+03 -0.17925472602E+02 -0.27313058400E+04  0.28296623161E+04  0.15294330000E+03 0.  0.
<mgrwt>
<rscale>  0 0.73956557E+03</rscale>
<asrwt>0</asrwt>
<pdfrwt beam="1">  1        2 0.45761594E+00 0.73956557E+03</pdfrwt>
<pdfrwt beam="2">  1       -2 0.11599215E+00 0.73956557E+03</pdfrwt>
<totfact> 0.11156224E+00</totfact>
</mgrwt>
</event>
<event>
 4    1  0.2061941E-008  0.2999135E+03  0.7818608E-02  0.1085284E+00
          2   -1    0    0  501    0  0.00000000000E+00  0.00000000000E+00  0.13741025405E+04  0.13741025405E+04  0.25500000000E-02 0. -1.
         -2   -1    0    0    0  501 -0.00000000000E+00 -0.00000000000E+00 -0.40942409095E+03  0.40942409096E+03  0.25500000000E-02 0.  1.
    8880022    1    1    2    0    0  0.15890748519E+03 -0.20323596424E+03 -0.33503278040E+03  0.44966105343E+03  0.15294330000E+03 0.  0.
    8880022    1    1    2    0    0 -0.15890748519E+03  0.20323596424E+03  0.12997112300E+04  0.13338655781E+04  0.15294330000E+03 0.  0.
<mgrwt>
<rscale>  0 0.29991349E+03</rscale>
<asrwt>0</asrwt>
<pdfrwt beam="1">  1        2 0.21140039E+00 0.29991349E+03</pdfrwt>
<pdfrwt beam="2">  1       -2 0.62988322E-01 0.29991349E+03</pdfrwt>
<totfact> 0.38447377E+01</totfact>
</mgrwt>
</event>
<event>
 4    1  0.2061941E-008  0.9583000E+03  0.7818608E-02  0.9355501E-01
         -2   -1    0    0    0  501 -0.00000000000E+00  0.00000000000E+00  0.14609298864E+04  0.14609298864E+04  0.25500000000E-02 0.  1.
          2   -1    0    0  501    0  0.00000000000E+00 -0.00000000000E+00 -0.93451878902E+03  0.93451878902E+03  0.25500000000E-02 0. -1.
    8880022    1    1    2    0    0  0.65597680754E+03 -0.68164623643E+03 -0.42207240819E+03  0.10471312881E+04  0.15294330000E+03 0.  0.
    8880022    1    1    2    0    0 -0.65597680754E+03  0.68164623643E+03  0.94848350555E+03  0.13483173873E+04  0.15294330000E+03 0.  0.
<mgrwt>
<rscale>  0 0.95829996E+03</rscale>
<asrwt>0</asrwt>
<pdfrwt beam="1">  1        2 0.14377212E+00 0.95829996E+03</pdfrwt>
<pdfrwt beam="2">  1       -2 0.22475844E+00 0.95829996E+03</pdfrwt>
<totfact> 0.25614379E+00</totfact>
</mgrwt>
</event>
<event>
 4    1  0.2061941E-008  0.7130828E+03  0.7818608E-02  0.9695117E-01
          2   -1    0    0  501    0  0.00000000000E+00  0.00000000000E+00  0.15903193788E+04  0.15903193788E+04  0.25500000000E-02 0. -1.
         -2   -1    0    0    0  501 -0.00000000000E+00 -0.00000000000E+00 -0.72667331607E+03  0.72667331608E+03  0.25500000000E-02 0.  1.
    8880022    1    1    2    0    0  0.62602235038E+03  0.30527271014E+03 -0.43511337513E+03  0.83535065270E+03  0.15294330000E+03 0.  0.
    8880022    1    1    2    0    0 -0.62602235038E+03 -0.30527271014E+03  0.12987594378E+04  0.14816420422E+04  0.15294330000E+03 0.  0.
<mgrwt>
<rscale>  0 0.71308279E+03</rscale>
<asrwt>0</asrwt>
<pdfrwt beam="1">  1        2 0.24466452E+00 0.71308279E+03</pdfrwt>
<pdfrwt beam="2">  1       -2 0.11179589E+00 0.71308279E+03</pdfrwt>
<totfact> 0.73637992E+00</totfact>
</mgrwt>
</event>
<event>
 4    1  0.2061941E-008  0.9763284E+03  0.7818608E-02  0.9334895E-01
          2   -1    0    0  501    0  0.00000000000E+00  0.00000000000E+00  0.73047369242E+03  0.73047369242E+03  0.25500000000E-02 0. -1.
         -2   -1    0    0    0  501 -0.00000000000E+00 -0.00000000000E+00 -0.17642142789E+04  0.17642142789E+04  0.25500000000E-02 0.  1.
    8880022    1    1    2    0    0  0.63447883599E+03  0.72612813584E+03 -0.11533012687E+04  0.15110661575E+04  0.15294330000E+03 0.  0.
    8880022    1    1    2    0    0 -0.63447883599E+03 -0.72612813584E+03  0.11956068215E+03  0.98362181387E+03  0.15294330000E+03 0.  0.
<mgrwt>
<rscale>  0 0.97632839E+03</rscale>
<asrwt>0</asrwt>
<pdfrwt beam="1">  1        2 0.11238057E+00 0.97632839E+03</pdfrwt>
<pdfrwt beam="2">  1       -2 0.27141758E+00 0.97632839E+03</pdfrwt>
<totfact> 0.18502248E+00</totfact>
</mgrwt>
</event>
<event>
 4    1  0.2061941E-008  0.7305457E+03  0.7818608E-02  0.9666375E-01
          2   -1    0    0  501    0  0.00000000000E+00  0.00000000000E+00  0.29785895322E+04  0.29785895322E+04  0.25500000000E-02 0. -1.
         -2   -1    0    0    0  501 -0.00000000000E+00 -0.00000000000E+00 -0.49507684568E+03  0.49507684568E+03  0.25500000000E-02 0.  1.
    8880022    1    1    2    0    0 -0.58982609169E+03  0.40300188098E+03 -0.14562544455E+03  0.74491862484E+03  0.15294330000E+03 0.  0.
    8880022    1    1    2    0    0  0.58982609169E+03 -0.40300188098E+03  0.26291381311E+04  0.27287477531E+04  0.15294330000E+03 0.  0.
<mgrwt>
<rscale>  0 0.73054568E+03</rscale>
<asrwt>0</asrwt>
<pdfrwt beam="1">  1        2 0.45824454E+00 0.73054568E+03</pdfrwt>
<pdfrwt beam="2">  1       -2 0.76165670E-01 0.73054568E+03</pdfrwt>
<totfact> 0.29662557E+00</totfact>
</mgrwt>
</event>
<event>
 4    1  0.2061941E-008  0.8149738E+03  0.7818608E-02  0.9538593E-01
         -2   -1    0    0    0  501 -0.00000000000E+00  0.00000000000E+00  0.30728961413E+03  0.30728961414E+03  0.25500000000E-02 0.  1.
          2   -1    0    0  501    0  0.00000000000E+00 -0.00000000000E+00 -0.30406395606E+04  0.30406395606E+04  0.25500000000E-02 0. -1.
    8880022    1    1    2    0    0  0.73779441052E+03 -0.31056412332E+03 -0.46653065810E+03  0.93905972911E+03  0.15294330000E+03 0.  0.
    8880022    1    1    2    0    0 -0.73779441052E+03  0.31056412332E+03 -0.22668192883E+04  0.24088694456E+04  0.15294330000E+03 0.  0.
<mgrwt>
<rscale>  0 0.81497382E+03</rscale>
<asrwt>0</asrwt>
<pdfrwt beam="1">  1        2 0.46779068E+00 0.81497382E+03</pdfrwt>
<pdfrwt beam="2">  1       -2 0.47275327E-01 0.81497382E+03</pdfrwt>
<totfact> 0.73346549E+00</totfact>
</mgrwt>
</event>
<event>
 4    1  0.2061941E-008  0.4591809E+03  0.7818608E-02  0.1025019E+00
         -2   -1    0    0    0  501 -0.00000000000E+00  0.00000000000E+00  0.66748248054E+03  0.66748248055E+03  0.25500000000E-02 0.  1.
          2   -1    0    0  501    0  0.00000000000E+00 -0.00000000000E+00 -0.13784739394E+04  0.13784739394E+04  0.25500000000E-02 0. -1.
    8880022    1    1    2    0    0 -0.15126917025E+03 -0.40567612259E+03  0.54265644097E+03  0.71086084732E+03  0.15294330000E+03 0.  0.
    8880022    1    1    2    0    0  0.15126917025E+03  0.40567612259E+03 -0.12536478999E+04  0.13350955727E+04  0.15294330000E+03 0.  0.
<mgrwt>
<rscale>  0 0.45918094E+03</rscale>
<asrwt>0</asrwt>
<pdfrwt beam="1">  1        2 0.21207291E+00 0.45918094E+03</pdfrwt>
<pdfrwt beam="2">  1       -2 0.10268961E+00 0.45918094E+03</pdfrwt>
<totfact> 0.12378461E+01</totfact>
</mgrwt>
</event>
<event>
 4    1  0.2061941E-008  0.7590120E+03  0.7818608E-02  0.9621317E-01
          2   -1    0    0  501    0  0.00000000000E+00  0.00000000000E+00  0.21251546606E+04  0.21251546606E+04  0.25500000000E-02 0. -1.
         -2   -1    0    0    0  501 -0.00000000000E+00 -0.00000000000E+00 -0.36425343382E+03  0.36425343382E+03  0.25500000000E-02 0.  1.
    8880022    1    1    2    0    0 -0.30387110302E+03  0.67850564950E+03  0.25094900323E+03  0.79942142759E+03  0.15294330000E+03 0.  0.
    8880022    1    1    2    0    0  0.30387110302E+03 -0.67850564950E+03  0.15099522235E+04  0.16899866668E+04  0.15294330000E+03 0.  0.
<mgrwt>
<rscale>  0 0.75901200E+03</rscale>
<asrwt>0</asrwt>
<pdfrwt beam="1">  1        2 0.32694688E+00 0.75901200E+03</pdfrwt>
<pdfrwt beam="2">  1       -2 0.56038988E-01 0.75901200E+03</pdfrwt>
<totfact> 0.17618893E+01</totfact>
</mgrwt>
</event>
<event>
 4    1  0.2061941E-008  0.9755899E+03  0.7818608E-02  0.9335730E-01
         -2   -1    0    0    0  501 -0.00000000000E+00  0.00000000000E+00  0.44075530094E+03  0.44075530094E+03  0.25500000000E-02 0.  1.
          2   -1    0    0  501    0  0.00000000000E+00 -0.00000000000E+00 -0.25882286437E+04  0.25882286437E+04  0.25500000000E-02 0. -1.
    8880022    1    1    2    0    0 -0.70222468045E+01 -0.96350127916E+03 -0.45728707394E+03  0.10774447308E+04  0.15294330000E+03 0.  0.
    8880022    1    1    2    0    0  0.70222468045E+01  0.96350127916E+03 -0.16901862688E+04  0.19515392139E+04  0.15294330000E+03 0.  0.
<mgrwt>
<rscale>  0 0.97558991E+03</rscale>
<asrwt>0</asrwt>
<pdfrwt beam="1">  1        2 0.39818901E+00 0.97558991E+03</pdfrwt>
<pdfrwt beam="2">  1       -2 0.67808510E-01 0.97558991E+03</pdfrwt>
<totfact> 0.62607200E+00</totfact>
</mgrwt>
</event>
<event>
 4    1  0.2061941E-008  0.1392709E+04  0.7818608E-02  0.8959113E-01
         -2   -1    0    0    0  501 -0.00000000000E+00  0.00000000000E+00  0.12691376982E+04  0.12691376982E+04  0.25500000000E-02 0.  1.
          2   -1    0    0  501    0  0.00000000000E+00 -0.00000000000E+00 -0.18300528051E+04  0.18300528051E+04  0.25500000000E-02 0. -1.
    8880022    1    1    2    0    0 -0.13724139578E+04  0.18090517445E+03 -0.90967893209E+03  0.16634765301E+04  0.15294330000E+03 0.  0.
    8880022    1    1    2    0    0  0.13724139578E+04 -0.18090517445E+03  0.34876382524E+03  0.14357139731E+04  0.15294330000E+03 0.  0.
<mgrwt>
<rscale>  0 0.13927090E+04</rscale>
<asrwt>0</asrwt>
<pdfrwt beam="1">  1        2 0.28154659E+00 0.13927090E+04</pdfrwt>
<pdfrwt beam="2">  1       -2 0.19525195E+00 0.13927090E+04</pdfrwt>
<totfact> 0.11281185E+00</totfact>
</mgrwt>
</event>
<event>
 4    1  0.2061941E-008  0.3168116E+03  0.7818608E-02  0.1077126E+00
          2   -1    0    0  501    0  0.00000000000E+00  0.00000000000E+00  0.13220319602E+04  0.13220319602E+04  0.25500000000E-02 0. -1.
         -2   -1    0    0    0  501 -0.00000000000E+00 -0.00000000000E+00 -0.16678027293E+03  0.16678027295E+03  0.25500000000E-02 0.  1.
    8880022    1    1    2    0    0  0.22364883629E+03  0.16419234085E+03  0.11270692427E+04  0.11707496136E+04  0.15294330000E+03 0.  0.
    8880022    1    1    2    0    0 -0.22364883629E+03 -0.16419234085E+03  0.28182444523E+02  0.31806261956E+03  0.15294330000E+03 0.  0.
<mgrwt>
<rscale>  0 0.31681158E+03</rscale>
<asrwt>0</asrwt>
<pdfrwt beam="1">  1        2 0.20338954E+00 0.31681158E+03</pdfrwt>
<pdfrwt beam="2">  1       -2 0.25658503E-01 0.31681158E+03</pdfrwt>
<totfact> 0.23178436E+02</totfact>
</mgrwt>
</event>
<event>
 4    1  0.2061941E-008  0.1308932E+04  0.7818608E-02  0.9022511E-01
         -2   -1    0    0    0  501 -0.00000000000E+00  0.00000000000E+00  0.10098164296E+04  0.10098164296E+04  0.25500000000E-02 0.  1.
          2   -1    0    0  501    0  0.00000000000E+00 -0.00000000000E+00 -0.40061765943E+04  0.40061765943E+04  0.25500000000E-02 0. -1.
    8880022    1    1    2    0    0 -0.11904588620E+04  0.52222624994E+03  0.40606764045E+03  0.13704725973E+04  0.15294330000E+03 0.  0.
    8880022    1    1    2    0    0  0.11904588620E+04 -0.52222624994E+03 -0.34024278052E+04  0.36455204266E+04  0.15294330000E+03 0.  0.
<mgrwt>
<rscale>  0 0.13089325E+04</rscale>
<asrwt>0</asrwt>
<pdfrwt beam="1">  1        2 0.61633485E+00 0.13089325E+04</pdfrwt>
<pdfrwt beam="2">  1       -2 0.15535638E+00 0.13089325E+04</pdfrwt>
<totfact> 0.91243796E-02</totfact>
</mgrwt>
</event>
<event>
 4    1  0.2061941E-008  0.1489038E+04  0.7818608E-02  0.8891775E-01
         -2   -1    0    0    0  501 -0.00000000000E+00  0.00000000000E+00  0.19778434231E+04  0.19778434231E+04  0.25500000000E-02 0.  1.
          2   -1    0    0  501    0  0.00000000000E+00 -0.00000000000E+00 -0.16989292222E+04  0.16989292222E+04  0.25500000000E-02 0. -1.
    8880022    1    1    2    0    0  0.68572120566E+03  0.13128707947E+04  0.12116494313E+04  0.19197211497E+04  0.15294330000E+03 0.  0.
    8880022    1    1    2    0    0 -0.68572120566E+03 -0.13128707947E+04 -0.93273523037E+03  0.17570514956E+04  0.15294330000E+03 0.  0.
<mgrwt>
<rscale>  0 0.14890383E+04</rscale>
<asrwt>0</asrwt>
<pdfrwt beam="1">  1        2 0.26137373E+00 0.14890383E+04</pdfrwt>
<pdfrwt beam="2">  1       -2 0.30428360E+00 0.14890383E+04</pdfrwt>
<totfact> 0.27636540E-01</totfact>
</mgrwt>
</event>
<event>
 4    1  0.2061941E-008  0.7268930E+03  0.7818608E-02  0.9672316E-01
         -2   -1    0    0    0  501 -0.00000000000E+00  0.00000000000E+00  0.11831416326E+04  0.11831416326E+04  0.25500000000E-02 0.  1.
          2   -1    0    0  501    0  0.00000000000E+00 -0.00000000000E+00 -0.73896579845E+03  0.73896579845E+03  0.25500000000E-02 0. -1.
    8880022    1    1    2    0    0 -0.45619671632E+03 -0.54485439368E+03  0.82660677494E+03  0.11007507291E+04  0.15294330000E+03 0.  0.
    8880022    1    1    2    0    0  0.45619671632E+03  0.54485439368E+03 -0.38243094080E+03  0.82135670192E+03  0.15294330000E+03 0.  0.
<mgrwt>
<rscale>  0 0.72689298E+03</rscale>
<asrwt>0</asrwt>
<pdfrwt beam="1">  1        2 0.11368705E+00 0.72689298E+03</pdfrwt>
<pdfrwt beam="2">  1       -2 0.18202179E+00 0.72689298E+03</pdfrwt>
<totfact> 0.68581985E+00</totfact>
</mgrwt>
</event>
<event>
 4    1  0.2061941E-008  0.7335845E+03  0.7818608E-02  0.9661462E-01
         -2   -1    0    0    0  501 -0.00000000000E+00  0.00000000000E+00  0.13204884340E+04  0.13204884340E+04  0.25500000000E-02 0.  1.
          2   -1    0    0  501    0  0.00000000000E+00 -0.00000000000E+00 -0.14705286150E+04  0.14705286150E+04  0.25500000000E-02 0. -1.
    8880022    1    1    2    0    0 -0.31825093957E+03 -0.64301702384E+03 -0.12615014907E+04  0.14592916835E+04  0.15294330000E+03 0.  0.
    8880022    1    1    2    0    0  0.31825093957E+03  0.64301702384E+03  0.11114613096E+04  0.13317253656E+04  0.15294330000E+03 0.  0.
<mgrwt>
<rscale>  0 0.73358449E+03</rscale>
<asrwt>0</asrwt>
<pdfrwt beam="1">  1        2 0.22623517E+00 0.73358449E+03</pdfrwt>
<pdfrwt beam="2">  1       -2 0.20315207E+00 0.73358449E+03</pdfrwt>
<totfact> 0.17321426E+00</totfact>
</mgrwt>
</event>
<event>
 4    1  0.2061941E-008  0.5962113E+03  0.7818608E-02  0.9913298E-01
         -2   -1    0    0    0  501 -0.00000000000E+00  0.00000000000E+00  0.34172489442E+03  0.34172489443E+03  0.25500000000E-02 0.  1.
          2   -1    0    0  501    0  0.00000000000E+00 -0.00000000000E+00 -0.16053303669E+04  0.16053303669E+04  0.25500000000E-02 0. -1.
    8880022    1    1    2    0    0  0.57463815417E+03  0.43212026897E+02 -0.12094117722E+04  0.13483859890E+04  0.15294330000E+03 0. -1.
    8880022    1    1    2    0    0 -0.57463815417E+03 -0.43212026897E+02 -0.54193700274E+02  0.59866927235E+03  0.15294330000E+03 0.  0.
<mgrwt>
<rscale>  0 0.59621132E+03</rscale>
<asrwt>0</asrwt>
<pdfrwt beam="1">  1        2 0.24697390E+00 0.59621132E+03</pdfrwt>
<pdfrwt beam="2">  1       -2 0.52573062E-01 0.59621132E+03</pdfrwt>
<totfact> 0.39489816E+01</totfact>
</mgrwt>
</event>
<event>
 4    1  0.2061941E-008  0.5290593E+03  0.7818608E-02  0.1006461E+00
          2   -1    0    0  501    0  0.00000000000E+00  0.00000000000E+00  0.39013185991E+03  0.39013185992E+03  0.25500000000E-02 0. -1.
         -2   -1    0    0    0  501 -0.00000000000E+00 -0.00000000000E+00 -0.88928243305E+03  0.88928243305E+03  0.25500000000E-02 0.  1.
    8880022    1    1    2    0    0  0.32931840879E+03  0.38478753760E+03 -0.53076680059E+03  0.74941117758E+03  0.15294330000E+03 0.  0.
    8880022    1    1    2    0    0 -0.32931840879E+03 -0.38478753760E+03  0.31616227458E+02  0.53000311538E+03  0.15294330000E+03 0.  0.
<mgrwt>
<rscale>  0 0.52905928E+03</rscale>
<asrwt>0</asrwt>
<pdfrwt beam="1">  1        2 0.60020286E-01 0.52905928E+03</pdfrwt>
<pdfrwt beam="2">  1       -2 0.13681268E+00 0.52905928E+03</pdfrwt>
<totfact> 0.32155856E+01</totfact>
</mgrwt>
</event>
<event>
 4    1  0.2061941E-008  0.6660296E+03  0.7818608E-02  0.9777157E-01
          2   -1    0    0  501    0  0.00000000000E+00  0.00000000000E+00  0.28482367367E+04  0.28482367367E+04  0.25500000000E-02 0. -1.
         -2   -1    0    0    0  501 -0.00000000000E+00 -0.00000000000E+00 -0.23198461304E+03  0.23198461305E+03  0.25500000000E-02 0.  1.
    8880022    1    1    2    0    0  0.64695744380E+03 -0.40618034421E+02  0.21910349754E+04  0.22900283132E+04  0.15294330000E+03 0.  0.
    8880022    1    1    2    0    0 -0.64695744380E+03  0.40618034421E+02  0.42521714824E+03  0.79019303653E+03  0.15294330000E+03 0.  0.
<mgrwt>
<rscale>  0 0.66602959E+03</rscale>
<asrwt>0</asrwt>
<pdfrwt beam="1">  1        2 0.43819027E+00 0.66602959E+03</pdfrwt>
<pdfrwt beam="2">  1       -2 0.35689941E-01 0.66602959E+03</pdfrwt>
<totfact> 0.17090344E+01</totfact>
</mgrwt>
</event>
<event>
 4    1  0.2061941E-008  0.1263266E+04  0.7818608E-02  0.9059214E-01
         -2   -1    0    0    0  501 -0.00000000000E+00  0.00000000000E+00  0.11119169163E+04  0.11119169163E+04  0.25500000000E-02 0.  1.
          2   -1    0    0  501    0  0.00000000000E+00 -0.00000000000E+00 -0.16179291180E+04  0.16179291180E+04  0.25500000000E-02 0. -1.
    8880022    1    1    2    0    0  0.42924481573E+03  0.11782182635E+04 -0.71168966421E+03  0.14499459367E+04  0.15294330000E+03 0.  0.
    8880022    1    1    2    0    0 -0.42924481573E+03 -0.11782182635E+04  0.20567746260E+03  0.12799000976E+04  0.15294330000E+03 0.  0.
<mgrwt>
<rscale>  0 0.12632660E+04</rscale>
<asrwt>0</asrwt>
<pdfrwt beam="1">  1        2 0.24891217E+00 0.12632660E+04</pdfrwt>
<pdfrwt beam="2">  1       -2 0.17106414E+00 0.12632660E+04</pdfrwt>
<totfact> 0.22012643E+00</totfact>
</mgrwt>
</event>
<event>
 4    1  0.2061941E-008  0.8850943E+03  0.7818608E-02  0.9444408E-01
          2   -1    0    0  501    0  0.00000000000E+00  0.00000000000E+00  0.26887032596E+04  0.26887032596E+04  0.25500000000E-02 0. -1.
         -2   -1    0    0    0  501 -0.00000000000E+00 -0.00000000000E+00 -0.85251845442E+03  0.85251845443E+03  0.25500000000E-02 0.  1.
    8880022    1    1    2    0    0 -0.87386046335E+02  0.86738917447E+03  0.23546146189E+04  0.25154725118E+04  0.15294330000E+03 0.  0.
    8880022    1    1    2    0    0  0.87386046335E+02 -0.86738917447E+03 -0.51842981373E+03  0.10257492022E+04  0.15294330000E+03 0.  0.
<mgrwt>
<rscale>  0 0.88509432E+03</rscale>
<asrwt>0</asrwt>
<pdfrwt beam="1">  1        2 0.41364665E+00 0.88509432E+03</pdfrwt>
<pdfrwt beam="2">  1       -2 0.13115669E+00 0.88509432E+03</pdfrwt>
<totfact> 0.11795238E+00</totfact>
</mgrwt>
</event>
<event>
 4    1  0.2061941E-008  0.1466285E+04  0.7818608E-02  0.8907188E-01
         -2   -1    0    0    0  501 -0.00000000000E+00  0.00000000000E+00  0.12821452684E+04  0.12821452684E+04  0.25500000000E-02 0.  1.
          2   -1    0    0  501    0  0.00000000000E+00 -0.00000000000E+00 -0.28591811948E+04  0.28591811948E+04  0.25500000000E-02 0. -1.
    8880022    1    1    2    0    0 -0.41554137832E+03 -0.13978287912E+04  0.54302270566E+03  0.15636064973E+04  0.15294330000E+03 0.  0.
    8880022    1    1    2    0    0  0.41554137832E+03  0.13978287912E+04 -0.21200586320E+04  0.25777199659E+04  0.15294330000E+03 0.  0.
<mgrwt>
<rscale>  0 0.14662850E+04</rscale>
<asrwt>0</asrwt>
<pdfrwt beam="1">  1        2 0.43987403E+00 0.14662850E+04</pdfrwt>
<pdfrwt beam="2">  1       -2 0.19725312E+00 0.14662850E+04</pdfrwt>
<totfact> 0.27907031E-01</totfact>
</mgrwt>
</event>
<event>
 4    1  0.2061941E-008  0.3583282E+03  0.7818608E-02  0.1059248E+00
         -2   -1    0    0    0  501 -0.00000000000E+00  0.00000000000E+00  0.23483787419E+03  0.23483787421E+03  0.25500000000E-02 0.  1.
          2   -1    0    0  501    0  0.00000000000E+00 -0.00000000000E+00 -0.21695256301E+04  0.21695256301E+04  0.25500000000E-02 0. -1.
    8880022    1    1    2    0    0 -0.12559788375E+02  0.32380503928E+03  0.72375467038E+02  0.36556437599E+03  0.15294330000E+03 0.  1.
    8880022    1    1    2    0    0  0.12559788375E+02 -0.32380503928E+03 -0.20070632229E+04  0.20387991283E+04  0.15294330000E+03 0.  0.
<mgrwt>
<rscale>  0 0.35832821E+03</rscale>
<asrwt>0</asrwt>
<pdfrwt beam="1">  1        2 0.33377316E+00 0.35832821E+03</pdfrwt>
<pdfrwt beam="2">  1       -2 0.36128905E-01 0.35832821E+03</pdfrwt>
<totfact> 0.43061148E+01</totfact>
</mgrwt>
</event>
<event>
 4    1  0.2061941E-008  0.4103133E+03  0.7818608E-02  0.1040266E+00
         -2   -1    0    0    0  501 -0.00000000000E+00  0.00000000000E+00  0.64759400911E+03  0.64759400911E+03  0.25500000000E-02 0.  1.
          2   -1    0    0  501    0  0.00000000000E+00 -0.00000000000E+00 -0.11242026503E+04  0.11242026503E+04  0.25500000000E-02 0. -1.
    8880022    1    1    2    0    0  0.27834355362E+03  0.25978878946E+03 -0.10150451674E+04  0.10948395745E+04  0.15294330000E+03 0.  0.
    8880022    1    1    2    0    0 -0.27834355362E+03 -0.25978878946E+03  0.53843652625E+03  0.67695708489E+03  0.15294330000E+03 0.  0.
<mgrwt>
<rscale>  0 0.41031330E+03</rscale>
<asrwt>0</asrwt>
<pdfrwt beam="1">  1        2 0.17295425E+00 0.41031330E+03</pdfrwt>
<pdfrwt beam="2">  1       -2 0.99629848E-01 0.41031330E+03</pdfrwt>
<totfact> 0.18789592E+01</totfact>
</mgrwt>
</event>
<event>
 4    1  0.2061941E-008  0.1293395E+04  0.7818608E-02  0.9034820E-01
          2   -1    0    0  501    0  0.00000000000E+00  0.00000000000E+00  0.23100431675E+04  0.23100431675E+04  0.25500000000E-02 0. -1.
         -2   -1    0    0    0  501 -0.00000000000E+00 -0.00000000000E+00 -0.18738372164E+04  0.18738372164E+04  0.25500000000E-02 0.  1.
    8880022    1    1    2    0    0 -0.88145127462E+02  0.12812918717E+04 -0.14204817698E+04  0.19211034682E+04  0.15294330000E+03 0.  0.
    8880022    1    1    2    0    0  0.88145127462E+02 -0.12812918717E+04  0.18566877210E+04  0.22627769157E+04  0.15294330000E+03 0.  0.
<mgrwt>
<rscale>  0 0.12933948E+04</rscale>
<asrwt>0</asrwt>
<pdfrwt beam="1">  1        2 0.35539125E+00 0.12933948E+04</pdfrwt>
<pdfrwt beam="2">  1       -2 0.28828265E+00 0.12933948E+04</pdfrwt>
<totfact> 0.16173792E-01</totfact>
</mgrwt>
</event>
<event>
 4    1  0.2061941E-008  0.8062390E+03  0.7818608E-02  0.9551030E-01
         -2   -1    0    0    0  501 -0.00000000000E+00  0.00000000000E+00  0.14558176942E+04  0.14558176942E+04  0.25500000000E-02 0.  1.
          2   -1    0    0  501    0  0.00000000000E+00 -0.00000000000E+00 -0.16235387620E+04  0.16235387620E+04  0.25500000000E-02 0. -1.
    8880022    1    1    2    0    0 -0.75837618545E+03 -0.22692566597E+03  0.12271137686E+04  0.14682743445E+04  0.15294330000E+03 0.  0.
    8880022    1    1    2    0    0  0.75837618545E+03  0.22692566597E+03 -0.13948348364E+04  0.16110821117E+04  0.15294330000E+03 0.  0.
<mgrwt>
<rscale>  0 0.80623902E+03</rscale>
<asrwt>0</asrwt>
<pdfrwt beam="1">  1        2 0.24977519E+00 0.80623902E+03</pdfrwt>
<pdfrwt beam="2">  1       -2 0.22397195E+00 0.80623902E+03</pdfrwt>
<totfact> 0.10377322E+00</totfact>
</mgrwt>
</event>
<event>
 4    1  0.2061941E-008  0.1012503E+04  0.7818608E-02  0.9294937E-01
         -2   -1    0    0    0  501 -0.00000000000E+00  0.00000000000E+00  0.79740803942E+03  0.79740803942E+03  0.25500000000E-02 0.  1.
          2   -1    0    0  501    0  0.00000000000E+00 -0.00000000000E+00 -0.17083849935E+04  0.17083849935E+04  0.25500000000E-02 0. -1.
    8880022    1    1    2    0    0 -0.23133128643E+03  0.97378451158E+03 -0.10787536906E+04  0.14794835643E+04  0.15294330000E+03 0.  0.
    8880022    1    1    2    0    0  0.23133128643E+03 -0.97378451158E+03  0.16777673650E+03  0.10263094686E+04  0.15294330000E+03 0.  0.
<mgrwt>
<rscale>  0 0.10125029E+04</rscale>
<asrwt>0</asrwt>
<pdfrwt beam="1">  1        2 0.26282846E+00 0.10125029E+04</pdfrwt>
<pdfrwt beam="2">  1       -2 0.12267816E+00 0.10125029E+04</pdfrwt>
<totfact> 0.48471064E+00</totfact>
</mgrwt>
</event>
<event>
 4    1  0.2061941E-008  0.1062981E+04  0.7818608E-02  0.9242044E-01
          2   -1    0    0  501    0  0.00000000000E+00  0.00000000000E+00  0.92226369430E+03  0.92226369430E+03  0.25500000000E-02 0. -1.
         -2   -1    0    0    0  501 -0.00000000000E+00 -0.00000000000E+00 -0.14821843605E+04  0.14821843606E+04  0.25500000000E-02 0.  1.
    8880022    1    1    2    0    0 -0.85564235187E+03 -0.61189310759E+03 -0.78058706613E+03  0.13188043184E+04  0.15294330000E+03 0.  0.
    8880022    1    1    2    0    0  0.85564235187E+03  0.61189310759E+03  0.22066639988E+03  0.10856437364E+04  0.15294330000E+03 0.  0.
<mgrwt>
<rscale>  0 0.10629810E+04</rscale>
<asrwt>0</asrwt>
<pdfrwt beam="1">  1        2 0.14188672E+00 0.10629810E+04</pdfrwt>
<pdfrwt beam="2">  1       -2 0.22802836E+00 0.10629810E+04</pdfrwt>
<totfact> 0.24608158E+00</totfact>
</mgrwt>
</event>
<event>
 4    1  0.2061941E-008  0.7679904E+03  0.7818608E-02  0.9607542E-01
         -2   -1    0    0    0  501 -0.00000000000E+00  0.00000000000E+00  0.64577857902E+03  0.64577857902E+03  0.25500000000E-02 0.  1.
          2   -1    0    0  501    0  0.00000000000E+00 -0.00000000000E+00 -0.11457844091E+04  0.11457844091E+04  0.25500000000E-02 0. -1.
    8880022    1    1    2    0    0  0.35483170607E+03 -0.66371079231E+03  0.15347442723E+03  0.78317533687E+03  0.15294330000E+03 0.  0.
    8880022    1    1    2    0    0 -0.35483170607E+03  0.66371079231E+03 -0.65348025727E+03  0.10083876512E+04  0.15294330000E+03 0.  0.
<mgrwt>
<rscale>  0 0.76799037E+03</rscale>
<asrwt>0</asrwt>
<pdfrwt beam="1">  1        2 0.17627452E+00 0.76799037E+03</pdfrwt>
<pdfrwt beam="2">  1       -2 0.99350551E-01 0.76799037E+03</pdfrwt>
<totfact> 0.17413163E+01</totfact>
</mgrwt>
</event>
<event>
 4    1  0.2061941E-008  0.5121800E+03  0.7818608E-02  0.1010648E+00
         -2   -1    0    0    0  501 -0.00000000000E+00  0.00000000000E+00  0.25731563725E+03  0.25731563727E+03  0.25500000000E-02 0.  1.
          2   -1    0    0  501    0  0.00000000000E+00 -0.00000000000E+00 -0.26022154487E+04  0.26022154487E+04  0.25500000000E-02 0. -1.
    8880022    1    1    2    0    0 -0.13439160495E+03  0.46997404154E+03 -0.57392430283E+02  0.51538553266E+03  0.15294330000E+03 0.  0.
    8880022    1    1    2    0    0  0.13439160495E+03 -0.46997404154E+03 -0.22875073811E+04  0.23441455533E+04  0.15294330000E+03 0. -1.
<mgrwt>
<rscale>  0 0.51218000E+03</rscale>
<asrwt>0</asrwt>
<pdfrwt beam="1">  1        2 0.40034082E+00 0.51218000E+03</pdfrwt>
<pdfrwt beam="2">  1       -2 0.39587023E-01 0.51218000E+03</pdfrwt>
<totfact> 0.20087203E+01</totfact>
</mgrwt>
</event>
<event>
 4    1  0.2061941E-008  0.1401973E+04  0.7818608E-02  0.8952391E-01
         -2   -1    0    0    0  501 -0.00000000000E+00  0.00000000000E+00  0.11806320826E+04  0.11806320826E+04  0.25500000000E-02 0.  1.
          2   -1    0    0  501    0  0.00000000000E+00 -0.00000000000E+00 -0.21992255585E+04  0.21992255585E+04  0.25500000000E-02 0. -1.
    8880022    1    1    2    0    0  0.31147632444E+03 -0.13583519344E+04  0.32375642245E+03  0.14388701653E+04  0.15294330000E+03 0.  0.
    8880022    1    1    2    0    0 -0.31147632444E+03  0.13583519344E+04 -0.13423498983E+04  0.19409874758E+04  0.15294330000E+03 0.  0.
<mgrwt>
<rscale>  0 0.14019733E+04</rscale>
<asrwt>0</asrwt>
<pdfrwt beam="1">  1        2 0.33834239E+00 0.14019733E+04</pdfrwt>
<pdfrwt beam="2">  1       -2 0.18163571E+00 0.14019733E+04</pdfrwt>
<totfact> 0.86790404E-01</totfact>
</mgrwt>
</event>
<event>
 4    1  0.2061941E-008  0.2069852E+04  0.7818608E-02  0.8574641E-01
         -2   -1    0    0    0  501 -0.00000000000E+00  0.00000000000E+00  0.29771381918E+04  0.29771381918E+04  0.25500000000E-02 0.  1.
          2   -1    0    0  501    0  0.00000000000E+00 -0.00000000000E+00 -0.16920981881E+04  0.16920981881E+04  0.25500000000E-02 0. -1.
    8880022    1    1    2    0    0  0.56780338624E+02  0.20634124153E+04 -0.26028591902E+03  0.20861532099E+04  0.15294330000E+03 0.  0.
    8880022    1    1    2    0    0 -0.56780338624E+02 -0.20634124153E+04  0.15453259228E+04  0.25830831700E+04  0.15294330000E+03 0.  0.
<mgrwt>
<rscale>  0 0.20698518E+04</rscale>
<asrwt>0</asrwt>
<pdfrwt beam="1">  1        2 0.26032280E+00 0.20698518E+04</pdfrwt>
<pdfrwt beam="2">  1       -2 0.45802126E+00 0.20698518E+04</pdfrwt>
<totfact> 0.26789914E-02</totfact>
</mgrwt>
</event>
<event>
 4    1  0.2061941E-008  0.9164192E+03  0.7818608E-02  0.9405286E-01
         -2   -1    0    0    0  501 -0.00000000000E+00  0.00000000000E+00  0.15944037197E+04  0.15944037197E+04  0.25500000000E-02 0.  1.
          2   -1    0    0  501    0  0.00000000000E+00 -0.00000000000E+00 -0.99126581658E+03  0.99126581658E+03  0.25500000000E-02 0. -1.
    8880022    1    1    2    0    0 -0.31386502770E+03 -0.84730237856E+03 -0.58345780338E+03  0.10863918435E+04  0.15294330000E+03 0.  0.
    8880022    1    1    2    0    0  0.31386502770E+03  0.84730237856E+03  0.11865957065E+04  0.14992776928E+04  0.15294330000E+03 0.  1.
<mgrwt>
<rscale>  0 0.91641924E+03</rscale>
<asrwt>0</asrwt>
<pdfrwt beam="1">  1        2 0.15250243E+00 0.91641924E+03</pdfrwt>
<pdfrwt beam="2">  1       -2 0.24529288E+00 0.91641924E+03</pdfrwt>
<totfact> 0.17656459E+00</totfact>
</mgrwt>
</event>
<event>
 4    1  0.2061941E-008  0.8226513E+03  0.7818608E-02  0.9527797E-01
         -2   -1    0    0    0  501 -0.00000000000E+00  0.00000000000E+00  0.95815376652E+03  0.95815376652E+03  0.25500000000E-02 0.  1.
          2   -1    0    0  501    0  0.00000000000E+00 -0.00000000000E+00 -0.14546227426E+04  0.14546227426E+04  0.25500000000E-02 0. -1.
    8880022    1    1    2    0    0  0.48797082625E+03  0.64439733859E+03  0.61703825358E+03  0.10283439681E+04  0.15294330000E+03 0.  0.
    8880022    1    1    2    0    0 -0.48797082625E+03 -0.64439733859E+03 -0.11135072297E+04  0.13844325411E+04  0.15294330000E+03 0.  0.
<mgrwt>
<rscale>  0 0.82265127E+03</rscale>
<asrwt>0</asrwt>
<pdfrwt beam="1">  1        2 0.22378811E+00 0.82265127E+03</pdfrwt>
<pdfrwt beam="2">  1       -2 0.14740827E+00 0.82265127E+03</pdfrwt>
<totfact> 0.42882758E+00</totfact>
</mgrwt>
</event>
<event>
 4    1  0.2061941E-008  0.5013314E+03  0.7818608E-02  0.1013432E+00
          2   -1    0    0  501    0  0.00000000000E+00  0.00000000000E+00  0.49521866309E+03  0.49521866310E+03  0.25500000000E-02 0. -1.
         -2   -1    0    0    0  501 -0.00000000000E+00 -0.00000000000E+00 -0.81970665504E+03  0.81970665504E+03  0.25500000000E-02 0.  1.
    8880022    1    1    2    0    0 -0.32902940434E+03  0.34594967717E+03  0.24349738426E+03  0.55733666415E+03  0.15294330000E+03 0.  0.
    8880022    1    1    2    0    0  0.32902940434E+03 -0.34594967717E+03 -0.56798537620E+03  0.75758865399E+03  0.15294330000E+03 0.  0.
<mgrwt>
<rscale>  0 0.50133141E+03</rscale>
<asrwt>0</asrwt>
<pdfrwt beam="1">  1        2 0.76187487E-01 0.50133141E+03</pdfrwt>
<pdfrwt beam="2">  1       -2 0.12610872E+00 0.50133141E+03</pdfrwt>
<totfact> 0.30261270E+01</totfact>
</mgrwt>
</event>
<event>
 4    1  0.2061941E-008  0.1529496E+03  0.7818608E-02  0.1196895E+00
         -2   -1    0    0    0  501 -0.00000000000E+00  0.00000000000E+00  0.29494788252E+03  0.29494788253E+03  0.25500000000E-02 0.  1.
          2   -1    0    0  501    0  0.00000000000E+00 -0.00000000000E+00 -0.39272392969E+03  0.39272392970E+03  0.25500000000E-02 0. -1.
    8880022    1    1    2    0    0  0.43714402285E+00  0.13161810440E+01  0.25827132136E+03  0.30016270901E+03  0.15294330000E+03 0.  0.
    8880022    1    1    2    0    0 -0.43714402285E+00 -0.13161810440E+01 -0.35604736853E+03  0.38750910322E+03  0.15294330000E+03 0. -1.
<mgrwt>
<rscale>  0 0.15294959E+03</rscale>
<asrwt>0</asrwt>
<pdfrwt beam="1">  1        2 0.60419066E-01 0.15294959E+03</pdfrwt>
<pdfrwt beam="2">  1       -2 0.45376597E-01 0.15294959E+03</pdfrwt>
<totfact> 0.38340175E+02</totfact>
</mgrwt>
</event>
<event>
 4    1  0.2061941E-008  0.1297235E+04  0.7818608E-02  0.9031761E-01
          2   -1    0    0  501    0  0.00000000000E+00  0.00000000000E+00  0.20928831389E+04  0.20928831389E+04  0.25500000000E-02 0. -1.
         -2   -1    0    0    0  501 -0.00000000000E+00 -0.00000000000E+00 -0.90256564699E+03  0.90256564700E+03  0.25500000000E-02 0.  1.
    8880022    1    1    2    0    0  0.64562349615E+03  0.11147183304E+04  0.10899335692E+04  0.16943357086E+04  0.15294330000E+03 0.  0.
    8880022    1    1    2    0    0 -0.64562349615E+03 -0.11147183304E+04  0.10038392265E+03  0.13011130773E+04  0.15294330000E+03 0.  0.
<mgrwt>
<rscale>  0 0.12972349E+04</rscale>
<asrwt>0</asrwt>
<pdfrwt beam="1">  1        2 0.32198202E+00 0.12972349E+04</pdfrwt>
<pdfrwt beam="2">  1       -2 0.13885625E+00 0.12972349E+04</pdfrwt>
<totfact> 0.20988385E+00</totfact>
</mgrwt>
</event>
<event>
 4    1  0.2061941E-008  0.1154156E+04  0.7818608E-02  0.9153958E-01
          2   -1    0    0  501    0  0.00000000000E+00  0.00000000000E+00  0.13608669188E+04  0.13608669188E+04  0.25500000000E-02 0. -1.
         -2   -1    0    0    0  501 -0.00000000000E+00 -0.00000000000E+00 -0.15626980507E+04  0.15626980507E+04  0.25500000000E-02 0.  1.
    8880022    1    1    2    0    0  0.46115487115E+03 -0.10469096919E+04  0.79259080521E+03  0.14000984093E+04  0.15294330000E+03 0.  0.
    8880022    1    1    2    0    0 -0.46115487115E+03  0.10469096919E+04 -0.99442193716E+03  0.15234665603E+04  0.15294330000E+03 0.  0.
<mgrwt>
<rscale>  0 0.11541557E+04</rscale>
<asrwt>0</asrwt>
<pdfrwt beam="1">  1        2 0.20936414E+00 0.11541557E+04</pdfrwt>
<pdfrwt beam="2">  1       -2 0.24041509E+00 0.11541557E+04</pdfrwt>
<totfact> 0.10960948E+00</totfact>
</mgrwt>
</event>
<event>
 4    1  0.2061941E-008  0.8213023E+03  0.7818608E-02  0.9529685E-01
         -2   -1    0    0    0  501 -0.00000000000E+00  0.00000000000E+00  0.45352056470E+04  0.45352056470E+04  0.25500000000E-02 0.  1.
          2   -1    0    0  501    0  0.00000000000E+00 -0.00000000000E+00 -0.16461721568E+04  0.16461721568E+04  0.25500000000E-02 0. -1.
    8880022    1    1    2    0    0 -0.49699312014E+03  0.63572300118E+03 -0.15032435832E+04  0.17129736773E+04  0.15294330000E+03 0.  0.
    8880022    1    1    2    0    0  0.49699312014E+03 -0.63572300118E+03  0.43922770734E+04  0.44684041265E+04  0.15294330000E+03 0.  0.
<mgrwt>
<rscale>  0 0.82130235E+03</rscale>
<asrwt>0</asrwt>
<pdfrwt beam="1">  1        2 0.25325726E+00 0.82130235E+03</pdfrwt>
<pdfrwt beam="2">  1       -2 0.69772394E+00 0.82130235E+03</pdfrwt>
<totfact> 0.25704856E-03</totfact>
</mgrwt>
</event>
<event>
 4    1  0.2061941E-008  0.4149451E+03  0.7818608E-02  0.1038724E+00
         -2   -1    0    0    0  501 -0.00000000000E+00  0.00000000000E+00  0.62935544857E+03  0.62935544858E+03  0.25500000000E-02 0.  1.
          2   -1    0    0  501    0  0.00000000000E+00 -0.00000000000E+00 -0.15264667931E+04  0.15264667931E+04  0.25500000000E-02 0. -1.
    8880022    1    1    2    0    0  0.24307355515E+03 -0.29950458654E+03  0.52799569873E+03  0.67153470608E+03  0.15294330000E+03 0.  0.
    8880022    1    1    2    0    0 -0.24307355515E+03  0.29950458654E+03 -0.14251070433E+04  0.14842875356E+04  0.15294330000E+03 0.  0.
<mgrwt>
<rscale>  0 0.41494506E+03</rscale>
<asrwt>0</asrwt>
<pdfrwt beam="1">  1        2 0.23484104E+00 0.41494506E+03</pdfrwt>
<pdfrwt beam="2">  1       -2 0.96823916E-01 0.41494506E+03</pdfrwt>
<totfact> 0.11902861E+01</totfact>
</mgrwt>
</event>
<event>
 4    1  0.2061941E-008  0.6923537E+03  0.7818608E-02  0.9730399E-01
         -2   -1    0    0    0  501 -0.00000000000E+00  0.00000000000E+00  0.10659856797E+04  0.10659856797E+04  0.25500000000E-02 0.  1.
          2   -1    0    0  501    0  0.00000000000E+00 -0.00000000000E+00 -0.14685808747E+04  0.14685808747E+04  0.25500000000E-02 0. -1.
    8880022    1    1    2    0    0  0.62185214632E+03 -0.26317644132E+03 -0.12568760318E+04  0.14349532896E+04  0.15294330000E+03 0. -1.
    8880022    1    1    2    0    0 -0.62185214632E+03  0.26317644132E+03  0.85428083678E+03  0.10996132649E+04  0.15294330000E+03 0.  0.
<mgrwt>
<rscale>  0 0.69235366E+03</rscale>
<asrwt>0</asrwt>
<pdfrwt beam="1">  1        2 0.22593552E+00 0.69235366E+03</pdfrwt>
<pdfrwt beam="2">  1       -2 0.16399780E+00 0.69235366E+03</pdfrwt>
<totfact> 0.32292395E+00</totfact>
</mgrwt>
</event>
<event>
 4    1  0.2061941E-008  0.1107350E+04  0.7818608E-02  0.9198057E-01
         -2   -1    0    0    0  501 -0.00000000000E+00  0.00000000000E+00  0.46524994623E+03  0.46524994624E+03  0.25500000000E-02 0.  1.
          2   -1    0    0  501    0  0.00000000000E+00 -0.00000000000E+00 -0.37586730823E+04  0.37586730823E+04  0.25500000000E-02 0. -1.
    8880022    1    1    2    0    0  0.25198697236E+03 -0.10673965807E+04 -0.49228096100E+03  0.12118436749E+04  0.15294330000E+03 0.  0.
    8880022    1    1    2    0    0 -0.25198697236E+03  0.10673965807E+04 -0.28011421750E+04  0.30120793536E+04  0.15294330000E+03 0. -1.
<mgrwt>
<rscale>  0 0.11073502E+04</rscale>
<asrwt>0</asrwt>
<pdfrwt beam="1">  1        2 0.57825738E+00 0.11073502E+04</pdfrwt>
<pdfrwt beam="2">  1       -2 0.71576917E-01 0.11073502E+04</pdfrwt>
<totfact> 0.95834493E-01</totfact>
</mgrwt>
</event>
<event>
 4    1  0.2061941E-008  0.9231599E+03  0.7818608E-02  0.9397085E-01
         -2   -1    0    0    0  501 -0.00000000000E+00  0.00000000000E+00  0.87572832878E+03  0.87572832878E+03  0.25500000000E-02 0.  1.
          2   -1    0    0  501    0  0.00000000000E+00 -0.00000000000E+00 -0.13533169102E+04  0.13533169102E+04  0.25500000000E-02 0. -1.
    8880022    1    1    2    0    0  0.90674291983E+03 -0.81546195018E+02 -0.82949886148E+03  0.12410852182E+04  0.15294330000E+03 0.  0.
    8880022    1    1    2    0    0 -0.90674291983E+03  0.81546195018E+02  0.35191028002E+03  0.98796002084E+03  0.15294330000E+03 0.  0.
<mgrwt>
<rscale>  0 0.92315988E+03</rscale>
<asrwt>0</asrwt>
<pdfrwt beam="1">  1        2 0.20820260E+00 0.92315988E+03</pdfrwt>
<pdfrwt beam="2">  1       -2 0.13472744E+00 0.92315988E+03</pdfrwt>
<totfact> 0.61091922E+00</totfact>
</mgrwt>
</event>
<event>
 4    1  0.2061941E-008  0.5031731E+03  0.7818608E-02  0.1012954E+00
          2   -1    0    0  501    0  0.00000000000E+00  0.00000000000E+00  0.52008918050E+03  0.52008918050E+03  0.25500000000E-02 0. -1.
         -2   -1    0    0    0  501 -0.00000000000E+00 -0.00000000000E+00 -0.86895934136E+03  0.86895934137E+03  0.25500000000E-02 0.  1.
    8880022    1    1    2    0    0 -0.46317104461E+03 -0.12354805511E+03 -0.63501585380E+03  0.81020264507E+03  0.15294330000E+03 0.  0.
    8880022    1    1    2    0    0  0.46317104461E+03  0.12354805511E+03  0.28614569294E+03  0.57884587680E+03  0.15294330000E+03 0.  0.
<mgrwt>
<rscale>  0 0.50317312E+03</rscale>
<asrwt>0</asrwt>
<pdfrwt beam="1">  1        2 0.80013720E-01 0.50317312E+03</pdfrwt>
<pdfrwt beam="2">  1       -2 0.13368605E+00 0.50317312E+03</pdfrwt>
<totfact> 0.24697849E+01</totfact>
</mgrwt>
</event>
<event>
 4    1  0.2061941E-008  0.9053474E+03  0.7818608E-02  0.9418921E-01
          2   -1    0    0  501    0  0.00000000000E+00  0.00000000000E+00  0.10008547151E+04  0.10008547151E+04  0.25500000000E-02 0. -1.
         -2   -1    0    0    0  501 -0.00000000000E+00 -0.00000000000E+00 -0.94327086393E+03  0.94327086393E+03  0.25500000000E-02 0.  1.
    8880022    1    1    2    0    0  0.81219169436E+03  0.36960379988E+03 -0.32409952364E+03  0.96161035326E+03  0.15294330000E+03 0.  0.
    8880022    1    1    2    0    0 -0.81219169436E+03 -0.36960379988E+03  0.38168337483E+03  0.98251522579E+03  0.15294330000E+03 0.  0.
<mgrwt>
<rscale>  0 0.90534743E+03</rscale>
<asrwt>0</asrwt>
<pdfrwt beam="1">  1        2 0.15397765E+00 0.90534743E+03</pdfrwt>
<pdfrwt beam="2">  1       -2 0.14511860E+00 0.90534743E+03</pdfrwt>
<totfact> 0.82300408E+00</totfact>
</mgrwt>
</event>
<event>
 4    1  0.2061941E-008  0.1395384E+04  0.7818608E-02  0.8957167E-01
          2   -1    0    0  501    0  0.00000000000E+00  0.00000000000E+00  0.24594568925E+04  0.24594568925E+04  0.25500000000E-02 0. -1.
         -2   -1    0    0    0  501 -0.00000000000E+00 -0.00000000000E+00 -0.97749738618E+03  0.97749738618E+03  0.25500000000E-02 0.  1.
    8880022    1    1    2    0    0  0.13826699816E+04 -0.10921514126E+03 -0.82800512271E+01  0.13954083407E+04  0.15294330000E+03 0.  0.
    8880022    1    1    2    0    0 -0.13826699816E+04  0.10921514126E+03  0.14902395575E+04  0.20415459380E+04  0.15294330000E+03 0.  0.
<mgrwt>
<rscale>  0 0.13953838E+04</rscale>
<asrwt>0</asrwt>
<pdfrwt beam="1">  1        2 0.37837798E+00 0.13953838E+04</pdfrwt>
<pdfrwt beam="2">  1       -2 0.15038421E+00 0.13953838E+04</pdfrwt>
<totfact> 0.10443813E+00</totfact>
</mgrwt>
</event>
<event>
 4    1  0.2061941E-008  0.7029122E+03  0.7818608E-02  0.9712265E-01
          2   -1    0    0  501    0  0.00000000000E+00  0.00000000000E+00  0.21115823324E+04  0.21115823324E+04  0.25500000000E-02 0. -1.
         -2   -1    0    0    0  501 -0.00000000000E+00 -0.00000000000E+00 -0.52878171389E+03  0.52878171390E+03  0.25500000000E-02 0.  1.
    8880022    1    1    2    0    0  0.50112364096E+03  0.46858189742E+03 -0.19432178730E+03  0.72927807327E+03  0.15294330000E+03 0.  0.
    8880022    1    1    2    0    0 -0.50112364096E+03 -0.46858189742E+03  0.17771224058E+04  0.19110859731E+04  0.15294330000E+03 0.  0.
<mgrwt>
<rscale>  0 0.70291219E+03</rscale>
<asrwt>0</asrwt>
<pdfrwt beam="1">  1        2 0.32485882E+00 0.70291219E+03</pdfrwt>
<pdfrwt beam="2">  1       -2 0.81351032E-01 0.70291219E+03</pdfrwt>
<totfact> 0.80637042E+00</totfact>
</mgrwt>
</event>
<event>
 4    1  0.2061941E-008  0.1028291E+04  0.7818608E-02  0.9278049E-01
          2   -1    0    0  501    0  0.00000000000E+00  0.00000000000E+00  0.17173259374E+04  0.17173259374E+04  0.25500000000E-02 0. -1.
         -2   -1    0    0    0  501 -0.00000000000E+00 -0.00000000000E+00 -0.99797748312E+03  0.99797748313E+03  0.25500000000E-02 0.  1.
    8880022    1    1    2    0    0 -0.10145975000E+04  0.67691734769E+02  0.11999257546E+04  0.15802543236E+04  0.15294330000E+03 0.  0.
    8880022    1    1    2    0    0  0.10145975000E+04 -0.67691734769E+02 -0.48057730025E+03  0.11350490969E+04  0.15294330000E+03 0.  0.
<mgrwt>
<rscale>  0 0.10282908E+04</rscale>
<asrwt>0</asrwt>
<pdfrwt beam="1">  1        2 0.26420399E+00 0.10282908E+04</pdfrwt>
<pdfrwt beam="2">  1       -2 0.15353500E+00 0.10282908E+04</pdfrwt>
<totfact> 0.26763689E+00</totfact>
</mgrwt>
</event>
<event>
 4    1  0.2061941E-008  0.9820946E+03  0.7818608E-02  0.9328404E-01
         -2   -1    0    0    0  501 -0.00000000000E+00  0.00000000000E+00  0.46649077078E+03  0.46649077079E+03  0.25500000000E-02 0.  1.
          2   -1    0    0  501    0  0.00000000000E+00 -0.00000000000E+00 -0.28687595556E+04  0.28687595556E+04  0.25500000000E-02 0. -1.
    8880022    1    1    2    0    0 -0.96892114350E+03 -0.48062387767E+02 -0.20824158728E+04  0.23023826128E+04  0.15294330000E+03 0.  0.
    8880022    1    1    2    0    0  0.96892114350E+03  0.48062387767E+02 -0.31985291204E+03  0.10328677136E+04  0.15294330000E+03 0.  0.
<mgrwt>
<rscale>  0 0.98209461E+03</rscale>
<asrwt>0</asrwt>
<pdfrwt beam="1">  1        2 0.44134762E+00 0.98209461E+03</pdfrwt>
<pdfrwt beam="2">  1       -2 0.71767812E-01 0.98209461E+03</pdfrwt>
<totfact> 0.37748783E+00</totfact>
</mgrwt>
</event>
<event>
 4    1  0.2061941E-008  0.1509820E+04  0.7818608E-02  0.8877949E-01
          2   -1    0    0  501    0  0.00000000000E+00  0.00000000000E+00  0.25372629180E+04  0.25372629180E+04  0.25500000000E-02 0. -1.
         -2   -1    0    0    0  501 -0.00000000000E+00 -0.00000000000E+00 -0.10735738176E+04  0.10735738177E+04  0.25500000000E-02 0.  1.
    8880022    1    1    2    0    0  0.50678886206E+03 -0.14139765238E+04  0.14610632495E+04  0.21010145246E+04  0.15294330000E+03 0.  0.
    8880022    1    1    2    0    0 -0.50678886206E+03  0.14139765238E+04  0.26258507753E+01  0.15098222110E+04  0.15294330000E+03 0.  0.
<mgrwt>
<rscale>  0 0.15098199E+04</rscale>
<asrwt>0</asrwt>
<pdfrwt beam="1">  1        2 0.39034814E+00 0.15098199E+04</pdfrwt>
<pdfrwt beam="2">  1       -2 0.16516520E+00 0.15098199E+04</pdfrwt>
<totfact> 0.72030061E-01</totfact>
</mgrwt>
</event>
<event>
 4    1  0.2061941E-008  0.6925881E+03  0.7818608E-02  0.9729992E-01
          2   -1    0    0  501    0  0.00000000000E+00  0.00000000000E+00  0.95740330946E+03  0.95740330946E+03  0.25500000000E-02 0. -1.
         -2   -1    0    0    0  501 -0.00000000000E+00 -0.00000000000E+00 -0.10849939902E+04  0.10849939903E+04  0.25500000000E-02 0.  1.
    8880022    1    1    2    0    0 -0.43261964949E+03 -0.51877440978E+03  0.68539691694E+03  0.97439583134E+03  0.15294330000E+03 0.  0.
    8880022    1    1    2    0    0  0.43261964949E+03  0.51877440978E+03 -0.81298759773E+03  0.10680014684E+04  0.15294330000E+03 0.  0.
<mgrwt>
<rscale>  0 0.69258812E+03</rscale>
<asrwt>0</asrwt>
<pdfrwt beam="1">  1        2 0.14729282E+00 0.69258812E+03</pdfrwt>
<pdfrwt beam="2">  1       -2 0.16692215E+00 0.69258812E+03</pdfrwt>
<totfact> 0.61845464E+00</totfact>
</mgrwt>
</event>
<event>
 4    1  0.2061941E-008  0.3351254E+03  0.7818608E-02  0.1068891E+00
         -2   -1    0    0    0  501 -0.00000000000E+00  0.00000000000E+00  0.16441114899E+03  0.16441114901E+03  0.25500000000E-02 0.  1.
          2   -1    0    0  501    0  0.00000000000E+00 -0.00000000000E+00 -0.16543103252E+04  0.16543103252E+04  0.25500000000E-02 0. -1.
    8880022    1    1    2    0    0  0.99441746699E+02 -0.28112051231E+03 -0.48187317952E+02  0.33857211057E+03  0.15294330000E+03 0.  0.
    8880022    1    1    2    0    0 -0.99441746699E+02  0.28112051231E+03 -0.14417118583E+04  0.14801493637E+04  0.15294330000E+03 0.  0.
<mgrwt>
<rscale>  0 0.33512543E+03</rscale>
<asrwt>0</asrwt>
<pdfrwt beam="1">  1        2 0.25450927E+00 0.33512543E+03</pdfrwt>
<pdfrwt beam="2">  1       -2 0.25294024E-01 0.33512543E+03</pdfrwt>
<totfact> 0.15653024E+02</totfact>
</mgrwt>
</event>
<event>
 4    1  0.2061941E-008  0.5044092E+03  0.7818608E-02  0.1012634E+00
         -2   -1    0    0    0  501 -0.00000000000E+00  0.00000000000E+00  0.12426166541E+04  0.12426166541E+04  0.25500000000E-02 0.  1.
          2   -1    0    0  501    0  0.00000000000E+00 -0.00000000000E+00 -0.38035689571E+03  0.38035689572E+03  0.25500000000E-02 0. -1.
    8880022    1    1    2    0    0  0.33400408244E+03 -0.34565622761E+03  0.98251335671E+03  0.11044279532E+04  0.15294330000E+03 0.  0.
    8880022    1    1    2    0    0 -0.33400408244E+03  0.34565622761E+03 -0.12025359835E+03  0.51854559655E+03  0.15294330000E+03 0. -1.
<mgrwt>
<rscale>  0 0.50440917E+03</rscale>
<asrwt>0</asrwt>
<pdfrwt beam="1">  1        2 0.58516446E-01 0.50440917E+03</pdfrwt>
<pdfrwt beam="2">  1       -2 0.19117179E+00 0.50440917E+03</pdfrwt>
<totfact> 0.13404638E+01</totfact>
</mgrwt>
</event>
<event>
 4    1  0.2061941E-008  0.4985531E+03  0.7818608E-02  0.1014157E+00
         -2   -1    0    0    0  501 -0.00000000000E+00  0.00000000000E+00  0.54174448405E+03  0.54174448406E+03  0.25500000000E-02 0.  1.
          2   -1    0    0  501    0  0.00000000000E+00 -0.00000000000E+00 -0.18536799257E+04  0.18536799257E+04  0.25500000000E-02 0. -1.
    8880022    1    1    2    0    0 -0.35332358846E+03 -0.31674271878E+03  0.38300157099E+03  0.62868542567E+03  0.15294330000E+03 0.  0.
    8880022    1    1    2    0    0  0.35332358846E+03  0.31674271878E+03 -0.16949370127E+04  0.17667389841E+04  0.15294330000E+03 0.  0.
<mgrwt>
<rscale>  0 0.49855307E+03</rscale>
<asrwt>0</asrwt>
<pdfrwt beam="1">  1        2 0.28518152E+00 0.49855307E+03</pdfrwt>
<pdfrwt beam="2">  1       -2 0.83345306E-01 0.49855307E+03</pdfrwt>
<totfact> 0.10959355E+01</totfact>
</mgrwt>
</event>
<event>
 4    1  0.2061941E-008  0.2014562E+04  0.7818608E-02  0.8599843E-01
          2   -1    0    0  501    0  0.00000000000E+00  0.00000000000E+00  0.26021549020E+04  0.26021549020E+04  0.25500000000E-02 0. -1.
         -2   -1    0    0    0  501 -0.00000000000E+00 -0.00000000000E+00 -0.19836156178E+04  0.19836156178E+04  0.25500000000E-02 0.  1.
    8880022    1    1    2    0    0  0.14057746884E+04  0.14348749117E+04 -0.75075768641E+03  0.21499063337E+04  0.15294330000E+03 0.  0.
    8880022    1    1    2    0    0 -0.14057746884E+04 -0.14348749117E+04  0.13692969706E+04  0.24358641862E+04  0.15294330000E+03 0.  0.
<mgrwt>
<rscale>  0 0.20145620E+04</rscale>
<asrwt>0</asrwt>
<pdfrwt beam="1">  1        2 0.40033152E+00 0.20145620E+04</pdfrwt>
<pdfrwt beam="2">  1       -2 0.30517164E+00 0.20145620E+04</pdfrwt>
<totfact> 0.79292658E-02</totfact>
</mgrwt>
</event>
<event>
 4    1  0.2061941E-008  0.8221562E+03  0.7818608E-02  0.9528489E-01
         -2   -1    0    0    0  501 -0.00000000000E+00  0.00000000000E+00  0.48055100228E+03  0.48055100229E+03  0.25500000000E-02 0.  1.
          2   -1    0    0  501    0  0.00000000000E+00 -0.00000000000E+00 -0.37475841040E+04  0.37475841040E+04  0.25500000000E-02 0. -1.
    8880022    1    1    2    0    0  0.23901812861E+03 -0.77163427014E+03  0.37354128131E+02  0.82300431138E+03  0.15294330000E+03 0.  0.
    8880022    1    1    2    0    0 -0.23901812861E+03  0.77163427014E+03 -0.33043872299E+04  0.34051307950E+04  0.15294330000E+03 0.  0.
<mgrwt>
<rscale>  0 0.82215617E+03</rscale>
<asrwt>0</asrwt>
<pdfrwt beam="1">  1        2 0.57655138E+00 0.82215617E+03</pdfrwt>
<pdfrwt beam="2">  1       -2 0.73930926E-01 0.82215617E+03</pdfrwt>
<totfact> 0.95927120E-01</totfact>
</mgrwt>
</event>
<event>
 4    1  0.2061941E-008  0.2969272E+03  0.7818608E-02  0.1086787E+00
         -2   -1    0    0    0  501 -0.00000000000E+00  0.00000000000E+00  0.73229601627E+03  0.73229601627E+03  0.25500000000E-02 0.  1.
          2   -1    0    0  501    0  0.00000000000E+00 -0.00000000000E+00 -0.18300929736E+03  0.18300929738E+03  0.25500000000E-02 0. -1.
    8880022    1    1    2    0    0  0.12330837200E+03 -0.22264125263E+03  0.54233304580E+03  0.61829674717E+03  0.15294330000E+03 0.  0.
    8880022    1    1    2    0    0 -0.12330837200E+03  0.22264125263E+03  0.69536731076E+01  0.29700856649E+03  0.15294330000E+03 0. -1.
<mgrwt>
<rscale>  0 0.29692715E+03</rscale>
<asrwt>0</asrwt>
<pdfrwt beam="1">  1        2 0.28155277E-01 0.29692715E+03</pdfrwt>
<pdfrwt beam="2">  1       -2 0.11266092E+00 0.29692715E+03</pdfrwt>
<totfact> 0.12224949E+02</totfact>
</mgrwt>
</event>
<event>
 4    1  0.2061941E-008  0.6639412E+03  0.7818608E-02  0.9780966E-01
         -2   -1    0    0    0  501 -0.00000000000E+00  0.00000000000E+00  0.59515397305E+03  0.59515397306E+03  0.25500000000E-02 0.  1.
          2   -1    0    0  501    0  0.00000000000E+00 -0.00000000000E+00 -0.13747436049E+04  0.13747436049E+04  0.25500000000E-02 0. -1.
    8880022    1    1    2    0    0  0.64507540583E+03 -0.36110729614E+02 -0.10587078031E+04  0.12496720087E+04  0.15294330000E+03 0.  0.
    8880022    1    1    2    0    0 -0.64507540583E+03  0.36110729614E+02  0.27911817128E+03  0.72022556922E+03  0.15294330000E+03 0.  0.
<mgrwt>
<rscale>  0 0.66394120E+03</rscale>
<asrwt>0</asrwt>
<pdfrwt beam="1">  1        2 0.21149902E+00 0.66394120E+03</pdfrwt>
<pdfrwt beam="2">  1       -2 0.91562150E-01 0.66394120E+03</pdfrwt>
<totfact> 0.15705938E+01</totfact>
</mgrwt>
</event>
<event>
 4    1  0.2061941E-008  0.8717032E+03  0.7818608E-02  0.9461662E-01
          2   -1    0    0  501    0  0.00000000000E+00  0.00000000000E+00  0.43144531320E+04  0.43144531320E+04  0.25500000000E-02 0. -1.
         -2   -1    0    0    0  501 -0.00000000000E+00 -0.00000000000E+00 -0.21594491265E+03  0.21594491266E+03  0.25500000000E-02 0.  1.
    8880022    1    1    2    0    0  0.95546828132E+02  0.85284562422E+03  0.30220146502E+04  0.31452248019E+04  0.15294330000E+03 0.  0.
    8880022    1    1    2    0    0 -0.95546828132E+02 -0.85284562422E+03  0.10764935691E+04  0.13851732427E+04  0.15294330000E+03 0.  0.
<mgrwt>
<rscale>  0 0.87170322E+03</rscale>
<asrwt>0</asrwt>
<pdfrwt beam="1">  1        2 0.66376196E+00 0.87170322E+03</pdfrwt>
<pdfrwt beam="2">  1       -2 0.33222297E-01 0.87170322E+03</pdfrwt>
<totfact> 0.17042259E+00</totfact>
</mgrwt>
</event>
<event>
 4    1  0.2061941E-008  0.6489134E+03  0.7818608E-02  0.9808820E-01
          2   -1    0    0  501    0  0.00000000000E+00  0.00000000000E+00  0.73223677767E+03  0.73223677767E+03  0.25500000000E-02 0. -1.
         -2   -1    0    0    0  501 -0.00000000000E+00 -0.00000000000E+00 -0.14863879706E+04  0.14863879706E+04  0.25500000000E-02 0.  1.
    8880022    1    1    2    0    0  0.47430461619E+03 -0.41561055783E+03 -0.12456805978E+04  0.14045671253E+04  0.15294330000E+03 0.  0.
    8880022    1    1    2    0    0 -0.47430461619E+03  0.41561055783E+03  0.49152940484E+03  0.81405762300E+03  0.15294330000E+03 0.  0.
<mgrwt>
<rscale>  0 0.64891344E+03</rscale>
<asrwt>0</asrwt>
<pdfrwt beam="1">  1        2 0.11265181E+00 0.64891344E+03</pdfrwt>
<pdfrwt beam="2">  1       -2 0.22867507E+00 0.64891344E+03</pdfrwt>
<totfact> 0.35144073E+00</totfact>
</mgrwt>
</event>
<event>
 4    1  0.2061941E-008  0.6340519E+03  0.7818608E-02  0.9837174E-01
          2   -1    0    0  501    0  0.00000000000E+00  0.00000000000E+00  0.66730570121E+03  0.66730570121E+03  0.25500000000E-02 0. -1.
         -2   -1    0    0    0  501 -0.00000000000E+00 -0.00000000000E+00 -0.12244365448E+04  0.12244365448E+04  0.25500000000E-02 0.  1.
    8880022    1    1    2    0    0  0.48393620283E+03  0.38004726858E+03  0.39557828526E+03  0.74733125691E+03  0.15294330000E+03 0.  0.
    8880022    1    1    2    0    0 -0.48393620283E+03 -0.38004726858E+03 -0.95270912882E+03  0.11444109891E+04  0.15294330000E+03 0.  0.
<mgrwt>
<rscale>  0 0.63405191E+03</rscale>
<asrwt>0</asrwt>
<pdfrwt beam="1">  1        2 0.10266242E+00 0.63405191E+03</pdfrwt>
<pdfrwt beam="2">  1       -2 0.18837485E+00 0.63405191E+03</pdfrwt>
<totfact> 0.71551805E+00</totfact>
</mgrwt>
</event>
<event>
 4    1  0.2061941E-008  0.5550609E+03  0.7818608E-02  0.1000329E+00
          2   -1    0    0  501    0  0.00000000000E+00  0.00000000000E+00  0.17134206175E+04  0.17134206175E+04  0.25500000000E-02 0. -1.
         -2   -1    0    0    0  501 -0.00000000000E+00 -0.00000000000E+00 -0.10576532433E+04  0.10576532433E+04  0.25500000000E-02 0.  1.
    8880022    1    1    2    0    0 -0.25065341560E+02 -0.53298468894E+03  0.15901604464E+04  0.16842514207E+04  0.15294330000E+03 0.  0.
    8880022    1    1    2    0    0  0.25065341560E+02  0.53298468894E+03 -0.93439307212E+03  0.10868224401E+04  0.15294330000E+03 0.  0.
<mgrwt>
<rscale>  0 0.55506090E+03</rscale>
<asrwt>0</asrwt>
<pdfrwt beam="1">  1        2 0.26360317E+00 0.55506090E+03</pdfrwt>
<pdfrwt beam="2">  1       -2 0.16271588E+00 0.55506090E+03</pdfrwt>
<totfact> 0.24904691E+00</totfact>
</mgrwt>
</event>
<event>
 4    1  0.2061941E-008  0.4094827E+03  0.7818608E-02  0.1040545E+00
          2   -1    0    0  501    0  0.00000000000E+00  0.00000000000E+00  0.14511401531E+04  0.14511401531E+04  0.25500000000E-02 0. -1.
         -2   -1    0    0    0  501 -0.00000000000E+00 -0.00000000000E+00 -0.13193323883E+03  0.13193323886E+03  0.25500000000E-02 0.  1.
    8880022    1    1    2    0    0 -0.13862358878E+03  0.35364945570E+03  0.93855106148E+03  0.10239893480E+04  0.15294330000E+03 0.  0.
    8880022    1    1    2    0    0  0.13862358878E+03 -0.35364945570E+03  0.38065585277E+03  0.55908404390E+03  0.15294330000E+03 0.  0.
<mgrwt>
<rscale>  0 0.40948271E+03</rscale>
<asrwt>0</asrwt>
<pdfrwt beam="1">  1        2 0.22325234E+00 0.40948271E+03</pdfrwt>
<pdfrwt beam="2">  1       -2 0.20297420E-01 0.40948271E+03</pdfrwt>
<totfact> 0.29340745E+02</totfact>
</mgrwt>
</event>
<event>
 4    1  0.2061941E-008  0.8268964E+03  0.7818608E-02  0.9521881E-01
         -2   -1    0    0    0  501 -0.00000000000E+00  0.00000000000E+00  0.94335130616E+03  0.94335130617E+03  0.25500000000E-02 0.  1.
          2   -1    0    0  501    0  0.00000000000E+00 -0.00000000000E+00 -0.20296205641E+04  0.20296205641E+04  0.25500000000E-02 0. -1.
    8880022    1    1    2    0    0  0.23559667937E+03 -0.77772755782E+03  0.64872703005E+03  0.10510015995E+04  0.15294330000E+03 0.  0.
    8880022    1    1    2    0    0 -0.23559667937E+03  0.77772755782E+03 -0.17349962880E+04  0.19219702708E+04  0.15294330000E+03 0.  0.
<mgrwt>
<rscale>  0 0.82689637E+03</rscale>
<asrwt>0</asrwt>
<pdfrwt beam="1">  1        2 0.31224932E+00 0.82689637E+03</pdfrwt>
<pdfrwt beam="2">  1       -2 0.14513097E+00 0.82689637E+03</pdfrwt>
<totfact> 0.21542914E+00</totfact>
</mgrwt>
</event>
<event>
 4    1  0.2061941E-008  0.8366626E+03  0.7818608E-02  0.9508415E-01
          2   -1    0    0  501    0  0.00000000000E+00  0.00000000000E+00  0.20640004187E+04  0.20640004187E+04  0.25500000000E-02 0. -1.
         -2   -1    0    0    0  501 -0.00000000000E+00 -0.00000000000E+00 -0.76279182269E+03  0.76279182269E+03  0.25500000000E-02 0.  1.
    8880022    1    1    2    0    0 -0.44723353834E+02 -0.82134796765E+03 -0.40271647431E+03  0.92853910743E+03  0.15294330000E+03 0.  1.
    8880022    1    1    2    0    0  0.44723353834E+02  0.82134796765E+03  0.17039250703E+04  0.18982531340E+04  0.15294330000E+03 0.  0.
<mgrwt>
<rscale>  0 0.83666261E+03</rscale>
<asrwt>0</asrwt>
<pdfrwt beam="1">  1        2 0.31753853E+00 0.83666261E+03</pdfrwt>
<pdfrwt beam="2">  1       -2 0.11735259E+00 0.83666261E+03</pdfrwt>
<totfact> 0.35340483E+00</totfact>
</mgrwt>
</event>
<event>
 4    1  0.2061941E-008  0.4154911E+03  0.7818608E-02  0.1038544E+00
          2   -1    0    0  501    0  0.00000000000E+00  0.00000000000E+00  0.12802805667E+04  0.12802805667E+04  0.25500000000E-02 0. -1.
         -2   -1    0    0    0  501 -0.00000000000E+00 -0.00000000000E+00 -0.55637766010E+03  0.55637766011E+03  0.25500000000E-02 0.  1.
    8880022    1    1    2    0    0  0.23419636335E+03  0.30723480568E+03  0.11612918987E+04  0.12333822155E+04  0.15294330000E+03 0.  0.
    8880022    1    1    2    0    0 -0.23419636335E+03 -0.30723480568E+03 -0.43738899210E+03  0.60327601134E+03  0.15294330000E+03 0.  0.
<mgrwt>
<rscale>  0 0.41549105E+03</rscale>
<asrwt>0</asrwt>
<pdfrwt beam="1">  1        2 0.19696624E+00 0.41549105E+03</pdfrwt>
<pdfrwt beam="2">  1       -2 0.85596564E-01 0.41549105E+03</pdfrwt>
<totfact> 0.21612639E+01</totfact>
</mgrwt>
</event>
<event>
 4    1  0.2061941E-008  0.4562833E+03  0.7818608E-02  0.1025865E+00
          2   -1    0    0  501    0  0.00000000000E+00  0.00000000000E+00  0.75944148842E+03  0.75944148842E+03  0.25500000000E-02 0. -1.
         -2   -1    0    0    0  501 -0.00000000000E+00 -0.00000000000E+00 -0.43591234964E+03  0.43591234965E+03  0.25500000000E-02 0.  1.
    8880022    1    1    2    0    0 -0.22221881474E+03 -0.36799670290E+03 -0.20233237384E+03  0.49913206418E+03  0.15294330000E+03 0.  0.
    8880022    1    1    2    0    0  0.22221881474E+03  0.36799670290E+03  0.52586151262E+03  0.69622177389E+03  0.15294330000E+03 0.  0.
<mgrwt>
<rscale>  0 0.45628328E+03</rscale>
<asrwt>0</asrwt>
<pdfrwt beam="1">  1        2 0.11683715E+00 0.45628328E+03</pdfrwt>
<pdfrwt beam="2">  1       -2 0.67063438E-01 0.45628328E+03</pdfrwt>
<totfact> 0.78228070E+01</totfact>
</mgrwt>
</event>
<event>
 4    1  0.2061941E-008  0.3679823E+03  0.7818608E-02  0.1055467E+00
          2   -1    0    0  501    0  0.00000000000E+00  0.00000000000E+00  0.43011777199E+03  0.43011777200E+03  0.25500000000E-02 0. -1.
         -2   -1    0    0    0  501 -0.00000000000E+00 -0.00000000000E+00 -0.58293241847E+03  0.58293241848E+03  0.25500000000E-02 0.  1.
    8880022    1    1    2    0    0  0.30976691791E+03  0.12674295066E+03  0.26710940385E+03  0.45470694476E+03  0.15294330000E+03 0.  0.
    8880022    1    1    2    0    0 -0.30976691791E+03 -0.12674295066E+03 -0.41992405034E+03  0.55834324572E+03  0.15294330000E+03 0.  0.
<mgrwt>
<rscale>  0 0.36798230E+03</rscale>
<asrwt>0</asrwt>
<pdfrwt beam="1">  1        2 0.66171965E-01 0.36798230E+03</pdfrwt>
<pdfrwt beam="2">  1       -2 0.89681910E-01 0.36798230E+03</pdfrwt>
<totfact> 0.81150420E+01</totfact>
</mgrwt>
</event>
<event>
 4    1  0.2061941E-008  0.4805996E+03  0.7818608E-02  0.1018971E+00
          2   -1    0    0  501    0  0.00000000000E+00  0.00000000000E+00  0.46123373269E+04  0.46123373269E+04  0.25500000000E-02 0. -1.
         -2   -1    0    0    0  501 -0.00000000000E+00 -0.00000000000E+00 -0.73047057743E+02  0.73047057788E+02  0.25500000000E-02 0.  1.
    8880022    1    1    2    0    0 -0.38583910031E+03 -0.24230662912E+03  0.35833167394E+04  0.36154024426E+04  0.15294330000E+03 0. -1.
    8880022    1    1    2    0    0  0.38583910031E+03  0.24230662912E+03  0.95597352973E+03  0.10699819421E+04  0.15294330000E+03 0.  0.
<mgrwt>
<rscale>  0 0.48059959E+03</rscale>
<asrwt>0</asrwt>
<pdfrwt beam="1">  1        2 0.70959045E+00 0.48059959E+03</pdfrwt>
<pdfrwt beam="2">  1       -2 0.11238007E-01 0.48059959E+03</pdfrwt>
<totfact> 0.66205146E+00</totfact>
</mgrwt>
</event>
<event>
 4    1  0.2061941E-008  0.3289909E+03  0.7818608E-02  0.1071584E+00
         -2   -1    0    0    0  501 -0.00000000000E+00  0.00000000000E+00  0.40024977039E+03  0.40024977040E+03  0.25500000000E-02 0.  1.
          2   -1    0    0  501    0  0.00000000000E+00 -0.00000000000E+00 -0.16460043441E+04  0.16460043442E+04  0.25500000000E-02 0. -1.
    8880022    1    1    2    0    0  0.22524119490E+03 -0.18468821429E+03  0.31243774373E+03  0.45370952061E+03  0.15294330000E+03 0.  1.
    8880022    1    1    2    0    0 -0.22524119490E+03  0.18468821429E+03 -0.15581923175E+04  0.15925445939E+04  0.15294330000E+03 0.  0.
<mgrwt>
<rscale>  0 0.32899086E+03</rscale>
<asrwt>0</asrwt>
<pdfrwt beam="1">  1        2 0.25323143E+00 0.32899086E+03</pdfrwt>
<pdfrwt beam="2">  1       -2 0.61576889E-01 0.32899086E+03</pdfrwt>
<totfact> 0.28529872E+01</totfact>
</mgrwt>
</event>
<event>
 4    1  0.2061941E-008  0.8582814E+03  0.7818608E-02  0.9479289E-01
         -2   -1    0    0    0  501 -0.00000000000E+00  0.00000000000E+00  0.14328978501E+04  0.14328978501E+04  0.25500000000E-02 0.  1.
          2   -1    0    0  501    0  0.00000000000E+00 -0.00000000000E+00 -0.60727308273E+03  0.60727308273E+03  0.25500000000E-02 0. -1.
    8880022    1    1    2    0    0 -0.11862645960E+03  0.83617166976E+03  0.13236503725E+02  0.85838345526E+03  0.15294330000E+03 0.  0.
    8880022    1    1    2    0    0  0.11862645960E+03 -0.83617166976E+03  0.81238826366E+03  0.11817874776E+04  0.15294330000E+03 0.  0.
<mgrwt>
<rscale>  0 0.85828139E+03</rscale>
<asrwt>0</asrwt>
<pdfrwt beam="1">  1        2 0.93426628E-01 0.85828139E+03</pdfrwt>
<pdfrwt beam="2">  1       -2 0.22044582E+00 0.85828139E+03</pdfrwt>
<totfact> 0.48497823E+00</totfact>
</mgrwt>
</event>
<event>
 4    1  0.3686675E-008  0.1502384E+04  0.7818608E-02  0.8882869E-01
          2   -1    0    0  501    0  0.00000000000E+00  0.00000000000E+00  0.37464036830E+04  0.37464036830E+04  0.25500000000E-02 0. -1.
         -2   -1    0    0    0  501 -0.00000000000E+00 -0.00000000000E+00 -0.19368799218E+04  0.19368799218E+04  0.25500000000E-02 0.  1.
    8880022    1    1    2    0    0  0.75720772119E+03 -0.12885655126E+04  0.32633928154E+04  0.35926158901E+04  0.15294330000E+03 0.  0.
    8880022    1    1    2    0    0 -0.75720772119E+03  0.12885655126E+04 -0.14538690543E+04  0.20906677147E+04  0.15294330000E+03 0.  0.
<mgrwt>
<rscale>  0 0.15023835E+04</rscale>
<asrwt>0</asrwt>
<pdfrwt beam="1">  1        2 0.57636980E+00 0.15023835E+04</pdfrwt>
<pdfrwt beam="2">  1       -2 0.29798153E+00 0.15023835E+04</pdfrwt>
<totfact> 0.16739743E-02</totfact>
</mgrwt>
</event>
<event>
 4    1  0.2061941E-008  0.4663084E+03  0.7818608E-02  0.1022967E+00
          2   -1    0    0  501    0  0.00000000000E+00  0.00000000000E+00  0.22426166670E+04  0.22426166670E+04  0.25500000000E-02 0. -1.
         -2   -1    0    0    0  501 -0.00000000000E+00 -0.00000000000E+00 -0.20757868799E+03  0.20757868801E+03  0.25500000000E-02 0.  1.
    8880022    1    1    2    0    0 -0.22310204731E+03  0.37983855297E+03  0.19118414130E+04  0.19678874692E+04  0.15294330000E+03 0.  0.
    8880022    1    1    2    0    0  0.22310204731E+03 -0.37983855297E+03  0.12319656599E+03  0.48230788582E+03  0.15294330000E+03 0.  1.
<mgrwt>
<rscale>  0 0.46630838E+03</rscale>
<asrwt>0</asrwt>
<pdfrwt beam="1">  1        2 0.34501794E+00 0.46630838E+03</pdfrwt>
<pdfrwt beam="2">  1       -2 0.31935183E-01 0.46630838E+03</pdfrwt>
<totfact> 0.48287463E+01</totfact>
</mgrwt>
</event>
<event>
 4    1  0.2061941E-008  0.3343901E+03  0.7818608E-02  0.1069211E+00
          2   -1    0    0  501    0  0.00000000000E+00  0.00000000000E+00  0.75831913641E+03  0.75831913642E+03  0.25500000000E-02 0. -1.
         -2   -1    0    0    0  501 -0.00000000000E+00 -0.00000000000E+00 -0.56246516335E+03  0.56246516336E+03  0.25500000000E-02 0.  1.
    8880022    1    1    2    0    0  0.26822936442E+03  0.12836701490E+03  0.66518976854E+03  0.74450934423E+03  0.15294330000E+03 0. -1.
    8880022    1    1    2    0    0 -0.26822936442E+03 -0.12836701490E+03 -0.46933579549E+03  0.57627495555E+03  0.15294330000E+03 0.  0.
<mgrwt>
<rscale>  0 0.33439009E+03</rscale>
<asrwt>0</asrwt>
<pdfrwt beam="1">  1        2 0.11666448E+00 0.33439009E+03</pdfrwt>
<pdfrwt beam="2">  1       -2 0.86533102E-01 0.33439009E+03</pdfrwt>
<totfact> 0.45475360E+01</totfact>
</mgrwt>
</event>
<event>
 4    1  0.2061941E-008  0.1030043E+04  0.7818608E-02  0.9276194E-01
         -2   -1    0    0    0  501 -0.00000000000E+00  0.00000000000E+00  0.64758511827E+03  0.64758511828E+03  0.25500000000E-02 0.  1.
          2   -1    0    0  501    0  0.00000000000E+00 -0.00000000000E+00 -0.29213948930E+04  0.29213948930E+04  0.25500000000E-02 0. -1.
    8880022    1    1    2    0    0  0.26037165171E+03 -0.98478641016E+03  0.45687679472E+02  0.10310561031E+04  0.15294330000E+03 0.  0.
    8880022    1    1    2    0    0 -0.26037165171E+03  0.98478641016E+03 -0.23194974542E+04  0.25379239081E+04  0.15294330000E+03 0.  0.
<mgrwt>
<rscale>  0 0.10300434E+04</rscale>
<asrwt>0</asrwt>
<pdfrwt beam="1">  1        2 0.44944536E+00 0.10300434E+04</pdfrwt>
<pdfrwt beam="2">  1       -2 0.99628481E-01 0.10300434E+04</pdfrwt>
<totfact> 0.16450871E+00</totfact>
</mgrwt>
</event>
<event>
 4    1  0.2061941E-008  0.2848555E+03  0.7818608E-02  0.1093066E+00
         -2   -1    0    0    0  501 -0.00000000000E+00  0.00000000000E+00  0.42339952312E+03  0.42339952313E+03  0.25500000000E-02 0.  1.
          2   -1    0    0  501    0  0.00000000000E+00 -0.00000000000E+00 -0.48408624434E+03  0.48408624434E+03  0.25500000000E-02 0. -1.
    8880022    1    1    2    0    0 -0.15772434099E+03 -0.18131192121E+03 -0.38301242097E+03  0.47732708716E+03  0.15294330000E+03 0.  0.
    8880022    1    1    2    0    0  0.15772434099E+03  0.18131192121E+03  0.32232569975E+03  0.43015868031E+03  0.15294330000E+03 0.  0.
<mgrwt>
<rscale>  0 0.28485546E+03</rscale>
<asrwt>0</asrwt>
<pdfrwt beam="1">  1        2 0.74474807E-01 0.28485546E+03</pdfrwt>
<pdfrwt beam="2">  1       -2 0.65138388E-01 0.28485546E+03</pdfrwt>
<totfact> 0.14487918E+02</totfact>
</mgrwt>
</event>
<event>
 4    1  0.2061941E-008  0.9247931E+03  0.7818608E-02  0.9395109E-01
         -2   -1    0    0    0  501 -0.00000000000E+00  0.00000000000E+00  0.13110115580E+04  0.13110115580E+04  0.25500000000E-02 0.  1.
          2   -1    0    0  501    0  0.00000000000E+00 -0.00000000000E+00 -0.11853253726E+04  0.11853253726E+04  0.25500000000E-02 0. -1.
    8880022    1    1    2    0    0 -0.38621303480E+03 -0.82625064731E+03  0.89980708335E+03  0.12903081340E+04  0.15294330000E+03 0.  0.
    8880022    1    1    2    0    0  0.38621303480E+03  0.82625064731E+03 -0.77412089798E+03  0.12060287966E+04  0.15294330000E+03 0.  0.
<mgrwt>
<rscale>  0 0.92479311E+03</rscale>
<asrwt>0</asrwt>
<pdfrwt beam="1">  1        2 0.18235775E+00 0.92479311E+03</pdfrwt>
<pdfrwt beam="2">  1       -2 0.20169408E+00 0.92479311E+03</pdfrwt>
<totfact> 0.25098686E+00</totfact>
</mgrwt>
</event>
<event>
 4    1  0.2061941E-008  0.1914524E+04  0.7818608E-02  0.8647661E-01
          2   -1    0    0  501    0  0.00000000000E+00  0.00000000000E+00  0.20826230622E+04  0.20826230622E+04  0.25500000000E-02 0. -1.
         -2   -1    0    0    0  501 -0.00000000000E+00 -0.00000000000E+00 -0.17636022896E+04  0.17636022896E+04  0.25500000000E-02 0.  1.
    8880022    1    1    2    0    0  0.18117427858E+04 -0.59966425027E+03  0.72504106405E+02  0.19158960393E+04  0.15294330000E+03 0.  0.
    8880022    1    1    2    0    0 -0.18117427858E+04  0.59966425027E+03  0.24651666619E+03  0.19303293125E+04  0.15294330000E+03 0.  0.
<mgrwt>
<rscale>  0 0.19145236E+04</rscale>
<asrwt>0</asrwt>
<pdfrwt beam="1">  1        2 0.32040355E+00 0.19145236E+04</pdfrwt>
<pdfrwt beam="2">  1       -2 0.27132343E+00 0.19145236E+04</pdfrwt>
<totfact> 0.25687062E-01</totfact>
</mgrwt>
</event>
<event>
 4    1  0.2061941E-008  0.7609752E+03  0.7818608E-02  0.9618288E-01
          2   -1    0    0  501    0  0.00000000000E+00  0.00000000000E+00  0.56269720009E+03  0.56269720010E+03  0.25500000000E-02 0. -1.
         -2   -1    0    0    0  501 -0.00000000000E+00 -0.00000000000E+00 -0.12933161035E+04  0.12933161035E+04  0.25500000000E-02 0.  1.
    8880022    1    1    2    0    0  0.71194149698E+03  0.22097726550E+03 -0.78474132346E+03  0.10931158423E+04  0.15294330000E+03 0.  0.
    8880022    1    1    2    0    0 -0.71194149698E+03 -0.22097726550E+03  0.54122420093E+02  0.76289746123E+03  0.15294330000E+03 0.  0.
<mgrwt>
<rscale>  0 0.76097523E+03</rscale>
<asrwt>0</asrwt>
<pdfrwt beam="1">  1        2 0.86568801E-01 0.76097523E+03</pdfrwt>
<pdfrwt beam="2">  1       -2 0.19897171E+00 0.76097523E+03</pdfrwt>
<totfact> 0.73707873E+00</totfact>
</mgrwt>
</event>
<event>
 4    1  0.2061941E-008  0.1153416E+04  0.7818608E-02  0.9154638E-01
          2   -1    0    0  501    0  0.00000000000E+00  0.00000000000E+00  0.24188152237E+04  0.24188152237E+04  0.25500000000E-02 0. -1.
         -2   -1    0    0    0  501 -0.00000000000E+00 -0.00000000000E+00 -0.11458763292E+04  0.11458763292E+04  0.25500000000E-02 0.  1.
    8880022    1    1    2    0    0 -0.10847000735E+04 -0.36111241851E+03 -0.64881184085E+03  0.13233763206E+04  0.15294330000E+03 0.  0.
    8880022    1    1    2    0    0  0.10847000735E+04  0.36111241851E+03  0.19217507354E+04  0.22413152322E+04  0.15294330000E+03 0.  0.
<mgrwt>
<rscale>  0 0.11534158E+04</rscale>
<asrwt>0</asrwt>
<pdfrwt beam="1">  1        2 0.37212542E+00 0.11534158E+04</pdfrwt>
<pdfrwt beam="2">  1       -2 0.17628867E+00 0.11534158E+04</pdfrwt>
<totfact> 0.73245230E-01</totfact>
</mgrwt>
</event>
<event>
 4    1  0.2061941E-008  0.1602117E+04  0.7818608E-02  0.8819248E-01
          2   -1    0    0  501    0  0.00000000000E+00  0.00000000000E+00  0.23144924155E+04  0.23144924155E+04  0.25500000000E-02 0. -1.
         -2   -1    0    0    0  501 -0.00000000000E+00 -0.00000000000E+00 -0.11707703972E+04  0.11707703972E+04  0.25500000000E-02 0.  1.
    8880022    1    1    2    0    0 -0.12218057979E+04  0.10249772034E+04  0.97212716605E+03  0.18739825386E+04  0.15294330000E+03 0.  0.
    8880022    1    1    2    0    0  0.12218057979E+04 -0.10249772034E+04  0.17159485226E+03  0.16112802740E+04  0.15294330000E+03 0.  0.
<mgrwt>
<rscale>  0 0.16021171E+04</rscale>
<asrwt>0</asrwt>
<pdfrwt beam="1">  1        2 0.35607575E+00 0.16021171E+04</pdfrwt>
<pdfrwt beam="2">  1       -2 0.18011852E+00 0.16021171E+04</pdfrwt>
<totfact> 0.74988070E-01</totfact>
</mgrwt>
</event>
<event>
 4    1  0.2061941E-008  0.3793010E+03  0.7818608E-02  0.1051192E+00
          2   -1    0    0  501    0  0.00000000000E+00  0.00000000000E+00  0.12113593714E+04  0.12113593714E+04  0.25500000000E-02 0. -1.
         -2   -1    0    0    0  501 -0.00000000000E+00 -0.00000000000E+00 -0.89785326158E+03  0.89785326158E+03  0.25500000000E-02 0.  1.
    8880022    1    1    2    0    0 -0.34698854532E+03 -0.87485444538E+01 -0.82562923112E+03  0.90858839301E+03  0.15294330000E+03 0.  0.
    8880022    1    1    2    0    0  0.34698854532E+03  0.87485444538E+01  0.11391353409E+04  0.12006242399E+04  0.15294330000E+03 0.  0.
<mgrwt>
<rscale>  0 0.37930099E+03</rscale>
<asrwt>0</asrwt>
<pdfrwt beam="1">  1        2 0.18636298E+00 0.37930099E+03</pdfrwt>
<pdfrwt beam="2">  1       -2 0.13813127E+00 0.37930099E+03</pdfrwt>
<totfact> 0.75871903E+00</totfact>
</mgrwt>
</event>
<event>
 4    1  0.2071732E-008  0.1579779E+04  0.7818608E-02  0.8833067E-01
          2   -1    0    0  501    0  0.00000000000E+00  0.00000000000E+00  0.20566119124E+04  0.20566119124E+04  0.25500000000E-02 0. -1.
         -2   -1    0    0    0  501 -0.00000000000E+00 -0.00000000000E+00 -0.22686645530E+04  0.22686645530E+04  0.25500000000E-02 0.  1.
    8880022    1    1    2    0    0 -0.14593673151E+02  0.15722907693E+04  0.13688594872E+04  0.20903299231E+04  0.15294330000E+03 0.  0.
    8880022    1    1    2    0    0  0.14593673151E+02 -0.15722907693E+04 -0.15809121278E+04  0.22349465424E+04  0.15294330000E+03 0.  0.
<mgrwt>
<rscale>  0 0.15797794E+04</rscale>
<asrwt>0</asrwt>
<pdfrwt beam="1">  1        2 0.31640183E+00 0.15797794E+04</pdfrwt>
<pdfrwt beam="2">  1       -2 0.34902532E+00 0.15797794E+04</pdfrwt>
<totfact> 0.91145483E-02</totfact>
</mgrwt>
</event>
<event>
 4    1  0.2061941E-008  0.5281204E+03  0.7818608E-02  0.1006689E+00
         -2   -1    0    0    0  501 -0.00000000000E+00  0.00000000000E+00  0.10924689864E+04  0.10924689864E+04  0.25500000000E-02 0.  1.
          2   -1    0    0  501    0  0.00000000000E+00 -0.00000000000E+00 -0.14083886934E+04  0.14083886934E+04  0.25500000000E-02 0. -1.
    8880022    1    1    2    0    0 -0.45086545860E+03  0.22856034653E+03  0.97347203826E+03  0.11075012217E+04  0.15294330000E+03 0.  0.
    8880022    1    1    2    0    0  0.45086545860E+03 -0.22856034653E+03 -0.12893917452E+04  0.13933564581E+04  0.15294330000E+03 0.  0.
<mgrwt>
<rscale>  0 0.52812039E+03</rscale>
<asrwt>0</asrwt>
<pdfrwt beam="1">  1        2 0.21667518E+00 0.52812039E+03</pdfrwt>
<pdfrwt beam="2">  1       -2 0.16807215E+00 0.52812039E+03</pdfrwt>
<totfact> 0.33711898E+00</totfact>
</mgrwt>
</event>
<event>
 4    1  0.4112775E-008  0.8238504E+03  0.7818608E-02  0.9526122E-01
          2   -1    0    0  501    0  0.00000000000E+00  0.00000000000E+00  0.23594688067E+04  0.23594688067E+04  0.25500000000E-02 0. -1.
         -2   -1    0    0    0  501 -0.00000000000E+00 -0.00000000000E+00 -0.17972650296E+04  0.17972650296E+04  0.25500000000E-02 0.  1.
    8880022    1    1    2    0    0 -0.72193352631E+03  0.36626460485E+03 -0.16236900464E+04  0.18207412768E+04  0.15294330000E+03 0.  0.
    8880022    1    1    2    0    0  0.72193352631E+03 -0.36626460485E+03  0.21858938235E+04  0.23359925594E+04  0.15294330000E+03 0.  0.
<mgrwt>
<rscale>  0 0.82385037E+03</rscale>
<asrwt>0</asrwt>
<pdfrwt beam="1">  1        2 0.36299520E+00 0.82385037E+03</pdfrwt>
<pdfrwt beam="2">  1       -2 0.27650231E+00 0.82385037E+03</pdfrwt>
<totfact> 0.19498639E-01</totfact>
</mgrwt>
</event>
<event>
 4    1  0.2061941E-008  0.1279121E+04  0.7818608E-02  0.9046288E-01
         -2   -1    0    0    0  501 -0.00000000000E+00  0.00000000000E+00  0.11024648708E+04  0.11024648708E+04  0.25500000000E-02 0.  1.
          2   -1    0    0  501    0  0.00000000000E+00 -0.00000000000E+00 -0.25531281933E+04  0.25531281933E+04  0.25500000000E-02 0. -1.
    8880022    1    1    2    0    0 -0.12394200464E+04 -0.27676149561E+03 -0.19080718096E+04  0.22971479405E+04  0.15294330000E+03 0.  0.
    8880022    1    1    2    0    0  0.12394200464E+04  0.27676149561E+03  0.45740848709E+03  0.13584451236E+04  0.15294330000E+03 0.  0.
<mgrwt>
<rscale>  0 0.12791210E+04</rscale>
<asrwt>0</asrwt>
<pdfrwt beam="1">  1        2 0.39278895E+00 0.12791210E+04</pdfrwt>
<pdfrwt beam="2">  1       -2 0.16960998E+00 0.12791210E+04</pdfrwt>
<totfact> 0.67246966E-01</totfact>
</mgrwt>
</event>
<event>
 4    1  0.2061941E-008  0.2483501E+03  0.7818608E-02  0.1114352E+00
          2   -1    0    0  501    0  0.00000000000E+00  0.00000000000E+00  0.12762712114E+04  0.12762712114E+04  0.25500000000E-02 0. -1.
         -2   -1    0    0    0  501 -0.00000000000E+00 -0.00000000000E+00 -0.81025664091E+03  0.81025664091E+03  0.25500000000E-02 0.  1.
    8880022    1    1    2    0    0 -0.16390028921E+03  0.10687762148E+03 -0.77866640072E+03  0.81731214808E+03  0.15294330000E+03 0.  0.
    8880022    1    1    2    0    0  0.16390028921E+03 -0.10687762148E+03  0.12446809712E+04  0.12692157042E+04  0.15294330000E+03 0. -1.
<mgrwt>
<rscale>  0 0.24835012E+03</rscale>
<asrwt>0</asrwt>
<pdfrwt beam="1">  1        2 0.19634942E+00 0.24835012E+03</pdfrwt>
<pdfrwt beam="2">  1       -2 0.12465487E+00 0.24835012E+03</pdfrwt>
<totfact> 0.94089259E+00</totfact>
</mgrwt>
</event>
<event>
 4    1  0.2061941E-008  0.9798857E+03  0.7818608E-02  0.9330885E-01
         -2   -1    0    0    0  501 -0.00000000000E+00  0.00000000000E+00  0.14986430907E+04  0.14986430907E+04  0.25500000000E-02 0.  1.
          2   -1    0    0  501    0  0.00000000000E+00 -0.00000000000E+00 -0.80501449982E+03  0.80501449983E+03  0.25500000000E-02 0. -1.
    8880022    1    1    2    0    0  0.77180912666E+03  0.58403346242E+03  0.86720322308E+03  0.13085172893E+04  0.15294330000E+03 0.  0.
    8880022    1    1    2    0    0 -0.77180912666E+03 -0.58403346242E+03 -0.17357463219E+03  0.99514030125E+03  0.15294330000E+03 0.  0.
<mgrwt>
<rscale>  0 0.97988574E+03</rscale>
<asrwt>0</asrwt>
<pdfrwt beam="1">  1        2 0.12384839E+00 0.97988574E+03</pdfrwt>
<pdfrwt beam="2">  1       -2 0.23056047E+00 0.97988574E+03</pdfrwt>
<totfact> 0.28899967E+00</totfact>
</mgrwt>
</event>
<event>
 4    1  0.2061941E-008  0.4922085E+03  0.7818608E-02  0.1015833E+00
          2   -1    0    0  501    0  0.00000000000E+00  0.00000000000E+00  0.18724848084E+04  0.18724848084E+04  0.25500000000E-02 0. -1.
         -2   -1    0    0    0  501 -0.00000000000E+00 -0.00000000000E+00 -0.24539209274E+03  0.24539209276E+03  0.25500000000E-02 0.  1.
    8880022    1    1    2    0    0 -0.73891020430E+02  0.46197150148E+03  0.85456553625E+02  0.49957184333E+03  0.15294330000E+03 0.  0.
    8880022    1    1    2    0    0  0.73891020430E+02 -0.46197150148E+03  0.15416361620E+04  0.16183050578E+04  0.15294330000E+03 0. -1.
<mgrwt>
<rscale>  0 0.49220850E+03</rscale>
<asrwt>0</asrwt>
<pdfrwt beam="1">  1        2 0.28807458E+00 0.49220850E+03</pdfrwt>
<pdfrwt beam="2">  1       -2 0.37752630E-01 0.49220850E+03</pdfrwt>
<totfact> 0.55472687E+01</totfact>
</mgrwt>
</event>
<event>
 4    1  0.2061941E-008  0.4706690E+03  0.7818608E-02  0.1021732E+00
          2   -1    0    0  501    0  0.00000000000E+00  0.00000000000E+00  0.63054889079E+03  0.63054889079E+03  0.25500000000E-02 0. -1.
         -2   -1    0    0    0  501 -0.00000000000E+00 -0.00000000000E+00 -0.10312994772E+04  0.10312994772E+04  0.25500000000E-02 0.  1.
    8880022    1    1    2    0    0 -0.17744493207E+03  0.40822904765E+03 -0.87508107785E+03  0.99362780008E+03  0.15294330000E+03 0.  0.
    8880022    1    1    2    0    0  0.17744493207E+03 -0.40822904765E+03  0.47433049144E+03  0.66822056792E+03  0.15294330000E+03 0.  0.
<mgrwt>
<rscale>  0 0.47066901E+03</rscale>
<asrwt>0</asrwt>
<pdfrwt beam="1">  1        2 0.97007522E-01 0.47066901E+03</pdfrwt>
<pdfrwt beam="2">  1       -2 0.15866146E+00 0.47066901E+03</pdfrwt>
<totfact> 0.12664140E+01</totfact>
</mgrwt>
</event>
<event>
 4    1  0.2061941E-008  0.1467397E+04  0.7818608E-02  0.8906428E-01
         -2   -1    0    0    0  501 -0.00000000000E+00  0.00000000000E+00  0.17071000567E+04  0.17071000567E+04  0.25500000000E-02 0.  1.
          2   -1    0    0  501    0  0.00000000000E+00 -0.00000000000E+00 -0.16084072711E+04  0.16084072711E+04  0.25500000000E-02 0. -1.
    8880022    1    1    2    0    0 -0.14581837597E+04  0.59692703937E+02 -0.72070738612E+03  0.16348314547E+04  0.15294330000E+03 0.  0.
    8880022    1    1    2    0    0  0.14581837597E+04 -0.59692703937E+02  0.81940017168E+03  0.16806758731E+04  0.15294330000E+03 0.  0.
<mgrwt>
<rscale>  0 0.14673973E+04</rscale>
<asrwt>0</asrwt>
<pdfrwt beam="1">  1        2 0.24744727E+00 0.14673973E+04</pdfrwt>
<pdfrwt beam="2">  1       -2 0.26263078E+00 0.14673973E+04</pdfrwt>
<totfact> 0.55910314E-01</totfact>
</mgrwt>
</event>
<event>
 4    1  0.2061941E-008  0.6743268E+03  0.7818608E-02  0.9762173E-01
         -2   -1    0    0    0  501 -0.00000000000E+00  0.00000000000E+00  0.35232450582E+03  0.35232450583E+03  0.25500000000E-02 0.  1.
          2   -1    0    0  501    0  0.00000000000E+00 -0.00000000000E+00 -0.23219997028E+04  0.23219997028E+04  0.25500000000E-02 0. -1.
    8880022    1    1    2    0    0  0.45318849111E+03 -0.47533693467E+03 -0.93663605990E+02  0.68080065661E+03  0.15294330000E+03 0.  1.
    8880022    1    1    2    0    0 -0.45318849111E+03  0.47533693467E+03 -0.18760115910E+04  0.19935235520E+04  0.15294330000E+03 0.  0.
<mgrwt>
<rscale>  0 0.67432682E+03</rscale>
<asrwt>0</asrwt>
<pdfrwt beam="1">  1        2 0.35723071E+00 0.67432682E+03</pdfrwt>
<pdfrwt beam="2">  1       -2 0.54203772E-01 0.67432682E+03</pdfrwt>
<totfact> 0.14900108E+01</totfact>
</mgrwt>
</event>
<event>
 4    1  0.2061941E-008  0.4872685E+03  0.7818608E-02  0.1017156E+00
         -2   -1    0    0    0  501 -0.00000000000E+00  0.00000000000E+00  0.70993947650E+03  0.70993947650E+03  0.25500000000E-02 0.  1.
          2   -1    0    0  501    0  0.00000000000E+00 -0.00000000000E+00 -0.19465671768E+04  0.19465671768E+04  0.25500000000E-02 0. -1.
    8880022    1    1    2    0    0  0.28196214341E+03 -0.36679191022E+03 -0.18270907669E+04  0.18909498352E+04  0.15294330000E+03 0.  0.
    8880022    1    1    2    0    0 -0.28196214341E+03  0.36679191022E+03  0.59046306660E+03  0.76555681811E+03  0.15294330000E+03 0.  0.
<mgrwt>
<rscale>  0 0.48726852E+03</rscale>
<asrwt>0</asrwt>
<pdfrwt beam="1">  1        2 0.29947187E+00 0.48726852E+03</pdfrwt>
<pdfrwt beam="2">  1       -2 0.10922146E+00 0.48726852E+03</pdfrwt>
<totfact> 0.52211354E+00</totfact>
</mgrwt>
</event>
<event>
 4    1  0.2061941E-008  0.1175500E+04  0.7818608E-02  0.9134576E-01
         -2   -1    0    0    0  501 -0.00000000000E+00  0.00000000000E+00  0.99583545203E+03  0.99583545203E+03  0.25500000000E-02 0.  1.
          2   -1    0    0  501    0  0.00000000000E+00 -0.00000000000E+00 -0.15046057311E+04  0.15046057311E+04  0.25500000000E-02 0. -1.
    8880022    1    1    2    0    0 -0.41430215453E+03  0.10893857596E+04  0.94289111799E+02  0.11792750731E+04  0.15294330000E+03 0.  0.
    8880022    1    1    2    0    0  0.41430215453E+03 -0.10893857596E+04 -0.60305939083E+03  0.13211661100E+04  0.15294330000E+03 0.  0.
<mgrwt>
<rscale>  0 0.11754996E+04</rscale>
<asrwt>0</asrwt>
<pdfrwt beam="1">  1        2 0.23147781E+00 0.11754996E+04</pdfrwt>
<pdfrwt beam="2">  1       -2 0.15320545E+00 0.11754996E+04</pdfrwt>
<totfact> 0.34811803E+00</totfact>
</mgrwt>
</event>
<event>
 4    1  0.2061941E-008  0.6578858E+03  0.7818608E-02  0.9792094E-01
          2   -1    0    0  501    0  0.00000000000E+00  0.00000000000E+00  0.41489063558E+04  0.41489063558E+04  0.25500000000E-02 0. -1.
         -2   -1    0    0    0  501 -0.00000000000E+00 -0.00000000000E+00 -0.40635306291E+03  0.40635306292E+03  0.25500000000E-02 0.  1.
    8880022    1    1    2    0    0 -0.13834238447E+03 -0.62472668353E+03  0.38349019992E+04  0.38909236745E+04  0.15294330000E+03 0.  0.
    8880022    1    1    2    0    0  0.13834238447E+03  0.62472668353E+03 -0.92348706317E+02  0.66433574420E+03  0.15294330000E+03 0.  0.
<mgrwt>
<rscale>  0 0.65788578E+03</rscale>
<asrwt>0</asrwt>
<pdfrwt beam="1">  1        2 0.63829328E+00 0.65788578E+03</pdfrwt>
<pdfrwt beam="2">  1       -2 0.62515856E-01 0.65788578E+03</pdfrwt>
<totfact> 0.70280912E-01</totfact>
</mgrwt>
</event>
<event>
 4    1  0.2061941E-008  0.4377763E+03  0.7818608E-02  0.1031431E+00
         -2   -1    0    0    0  501 -0.00000000000E+00  0.00000000000E+00  0.30093509554E+03  0.30093509555E+03  0.25500000000E-02 0.  1.
          2   -1    0    0  501    0  0.00000000000E+00 -0.00000000000E+00 -0.34847771868E+04  0.34847771868E+04  0.25500000000E-02 0. -1.
    8880022    1    1    2    0    0 -0.36152241073E+03  0.19379871561E+03 -0.33030989617E+04  0.33319830131E+04  0.15294330000E+03 0.  0.
    8880022    1    1    2    0    0  0.36152241073E+03 -0.19379871561E+03  0.11925687045E+03  0.45372926927E+03  0.15294330000E+03 0.  0.
<mgrwt>
<rscale>  0 0.43777625E+03</rscale>
<asrwt>0</asrwt>
<pdfrwt beam="1">  1        2 0.53611954E+00 0.43777625E+03</pdfrwt>
<pdfrwt beam="2">  1       -2 0.46297709E-01 0.43777625E+03</pdfrwt>
<totfact> 0.43576105E+00</totfact>
</mgrwt>
</event>
<event>
 4    1  0.2061941E-008  0.1183732E+04  0.7818608E-02  0.9127217E-01
         -2   -1    0    0    0  501 -0.00000000000E+00  0.00000000000E+00  0.13091884822E+04  0.13091884822E+04  0.25500000000E-02 0.  1.
          2   -1    0    0  501    0  0.00000000000E+00 -0.00000000000E+00 -0.23283831665E+04  0.23283831665E+04  0.25500000000E-02 0. -1.
    8880022    1    1    2    0    0 -0.58113009761E+03 -0.10198611886E+04  0.82733523125E+03  0.14441967568E+04  0.15294330000E+03 0.  0.
    8880022    1    1    2    0    0  0.58113009761E+03  0.10198611886E+04 -0.18465299156E+04  0.21933748919E+04  0.15294330000E+03 0.  0.
<mgrwt>
<rscale>  0 0.11837317E+04</rscale>
<asrwt>0</asrwt>
<pdfrwt beam="1">  1        2 0.35821279E+00 0.11837317E+04</pdfrwt>
<pdfrwt beam="2">  1       -2 0.20141361E+00 0.11837317E+04</pdfrwt>
<totfact> 0.55513797E-01</totfact>
</mgrwt>
</event>
<event>
 4    1  0.2061941E-008  0.4912755E+03  0.7818608E-02  0.1016082E+00
          2   -1    0    0  501    0  0.00000000000E+00  0.00000000000E+00  0.34207242044E+04  0.34207242044E+04  0.25500000000E-02 0. -1.
         -2   -1    0    0    0  501 -0.00000000000E+00 -0.00000000000E+00 -0.17243815313E+03  0.17243815315E+03  0.25500000000E-02 0.  1.
    8880022    1    1    2    0    0  0.31281834925E+03  0.34656115964E+03  0.30050990499E+04  0.30449912824E+04  0.15294330000E+03 0.  0.
    8880022    1    1    2    0    0 -0.31281834925E+03 -0.34656115964E+03  0.24318700135E+03  0.54817107516E+03  0.15294330000E+03 0.  0.
<mgrwt>
<rscale>  0 0.49127549E+03</rscale>
<asrwt>0</asrwt>
<pdfrwt beam="1">  1        2 0.52626527E+00 0.49127549E+03</pdfrwt>
<pdfrwt beam="2">  1       -2 0.26528946E-01 0.49127549E+03</pdfrwt>
<totfact> 0.13547947E+01</totfact>
</mgrwt>
</event>
<event>
 4    1  0.2061941E-008  0.1069445E+04  0.7818608E-02  0.9235495E-01
         -2   -1    0    0    0  501 -0.00000000000E+00  0.00000000000E+00  0.61624550664E+03  0.61624550665E+03  0.25500000000E-02 0.  1.
          2   -1    0    0  501    0  0.00000000000E+00 -0.00000000000E+00 -0.26556247473E+04  0.26556247473E+04  0.25500000000E-02 0. -1.
    8880022    1    1    2    0    0 -0.58706696426E+03 -0.88072326959E+03 -0.12196531647E+03  0.10763773918E+04  0.15294330000E+03 0.  0.
    8880022    1    1    2    0    0  0.58706696426E+03  0.88072326959E+03 -0.19174139242E+04  0.21954928622E+04  0.15294330000E+03 0.  0.
<mgrwt>
<rscale>  0 0.10694451E+04</rscale>
<asrwt>0</asrwt>
<pdfrwt beam="1">  1        2 0.40855765E+00 0.10694451E+04</pdfrwt>
<pdfrwt beam="2">  1       -2 0.94807002E-01 0.10694451E+04</pdfrwt>
<totfact> 0.26487251E+00</totfact>
</mgrwt>
</event>
<event>
 4    1  0.2061941E-008  0.8029338E+03  0.7818608E-02  0.9555780E-01
          2   -1    0    0  501    0  0.00000000000E+00  0.00000000000E+00  0.20523381904E+04  0.20523381904E+04  0.25500000000E-02 0. -1.
         -2   -1    0    0    0  501 -0.00000000000E+00 -0.00000000000E+00 -0.76819597447E+03  0.76819597447E+03  0.25500000000E-02 0.  1.
    8880022    1    1    2    0    0 -0.40222465357E+03 -0.67788368789E+03  0.17263086899E+04  0.19039023904E+04  0.15294330000E+03 0.  0.
    8880022    1    1    2    0    0  0.40222465357E+03  0.67788368789E+03 -0.44216647399E+03  0.91663177448E+03  0.15294330000E+03 0.  0.
<mgrwt>
<rscale>  0 0.80293376E+03</rscale>
<asrwt>0</asrwt>
<pdfrwt beam="1">  1        2 0.31574433E+00 0.80293376E+03</pdfrwt>
<pdfrwt beam="2">  1       -2 0.11818400E+00 0.80293376E+03</pdfrwt>
<totfact> 0.35437847E+00</totfact>
</mgrwt>
</event>
<event>
 4    1  0.2061941E-008  0.1393935E+04  0.7818608E-02  0.8958221E-01
         -2   -1    0    0    0  501 -0.00000000000E+00  0.00000000000E+00  0.26535076438E+04  0.26535076438E+04  0.25500000000E-02 0.  1.
          2   -1    0    0  501    0  0.00000000000E+00 -0.00000000000E+00 -0.96522223939E+03  0.96522223939E+03  0.25500000000E-02 0. -1.
    8880022    1    1    2    0    0  0.86534661285E+03  0.10820522106E+04  0.17330505087E+04  0.22240767670E+04  0.15294330000E+03 0.  0.
    8880022    1    1    2    0    0 -0.86534661285E+03 -0.10820522106E+04 -0.44765104321E+02  0.13946531161E+04  0.15294330000E+03 0.  0.
<mgrwt>
<rscale>  0 0.13939345E+04</rscale>
<asrwt>0</asrwt>
<pdfrwt beam="1">  1        2 0.14849573E+00 0.13939345E+04</pdfrwt>
<pdfrwt beam="2">  1       -2 0.40823194E+00 0.13939345E+04</pdfrwt>
<totfact> 0.16732243E-01</totfact>
</mgrwt>
</event>
<event>
 4    1  0.2061941E-008  0.2358978E+03  0.7818608E-02  0.1122556E+00
         -2   -1    0    0    0  501 -0.00000000000E+00  0.00000000000E+00  0.10472546803E+03  0.10472546806E+03  0.25500000000E-02 0.  1.
          2   -1    0    0  501    0  0.00000000000E+00 -0.00000000000E+00 -0.11953150698E+04  0.11953150698E+04  0.25500000000E-02 0. -1.
    8880022    1    1    2    0    0 -0.14838658073E+03 -0.10118078775E+03 -0.10297486039E+04  0.10564231961E+04  0.15294330000E+03 0.  0.
    8880022    1    1    2    0    0  0.14838658073E+03  0.10118078775E+03 -0.60840997901E+02  0.24361734173E+03  0.15294330000E+03 0.  0.
<mgrwt>
<rscale>  0 0.23589782E+03</rscale>
<asrwt>0</asrwt>
<pdfrwt beam="1">  1        2 0.18389462E+00 0.23589782E+03</pdfrwt>
<pdfrwt beam="2">  1       -2 0.16111611E-01 0.23589782E+03</pdfrwt>
<totfact> 0.61518740E+02</totfact>
</mgrwt>
</event>
<event>
 4    1  0.2061941E-008  0.2954883E+03  0.7818608E-02  0.1087518E+00
          2   -1    0    0  501    0  0.00000000000E+00  0.00000000000E+00  0.10789201891E+04  0.10789201891E+04  0.25500000000E-02 0. -1.
         -2   -1    0    0    0  501 -0.00000000000E+00 -0.00000000000E+00 -0.31421144048E+03  0.31421144049E+03  0.25500000000E-02 0.  1.
    8880022    1    1    2    0    0 -0.23120704346E+03  0.10229842509E+03 -0.21784348269E+03  0.36710911279E+03  0.15294330000E+03 0.  0.
    8880022    1    1    2    0    0  0.23120704346E+03 -0.10229842509E+03  0.98255223130E+03  0.10260225168E+04  0.15294330000E+03 0.  0.
<mgrwt>
<rscale>  0 0.29548827E+03</rscale>
<asrwt>0</asrwt>
<pdfrwt beam="1">  1        2 0.16598772E+00 0.29548827E+03</pdfrwt>
<pdfrwt beam="2">  1       -2 0.48340222E-01 0.29548827E+03</pdfrwt>
<totfact> 0.97429525E+01</totfact>
</mgrwt>
</event>
<event>
 4    1  0.2061941E-008  0.1076257E+04  0.7818608E-02  0.9228648E-01
          2   -1    0    0  501    0  0.00000000000E+00  0.00000000000E+00  0.12669365573E+04  0.12669365573E+04  0.25500000000E-02 0. -1.
         -2   -1    0    0    0  501 -0.00000000000E+00 -0.00000000000E+00 -0.17689313230E+04  0.17689313230E+04  0.25500000000E-02 0.  1.
    8880022    1    1    2    0    0  0.77738076988E+03  0.72843381159E+03  0.80410148827E+03  0.13434684722E+04  0.15294330000E+03 0.  0.
    8880022    1    1    2    0    0 -0.77738076988E+03 -0.72843381159E+03 -0.13060962540E+04  0.16923994082E+04  0.15294330000E+03 0.  0.
<mgrwt>
<rscale>  0 0.10762566E+04</rscale>
<asrwt>0</asrwt>
<pdfrwt beam="1">  1        2 0.19491332E+00 0.10762566E+04</pdfrwt>
<pdfrwt beam="2">  1       -2 0.27214328E+00 0.10762566E+04</pdfrwt>
<totfact> 0.80425112E-01</totfact>
</mgrwt>
</event>
<event>
 4    1  0.2061941E-008  0.3371902E+03  0.7818608E-02  0.1067999E+00
         -2   -1    0    0    0  501 -0.00000000000E+00  0.00000000000E+00  0.36046207023E+03  0.36046207024E+03  0.25500000000E-02 0.  1.
          2   -1    0    0  501    0  0.00000000000E+00 -0.00000000000E+00 -0.24538698578E+04  0.24538698578E+04  0.25500000000E-02 0. -1.
    8880022    1    1    2    0    0  0.26411640885E+03  0.14334604855E+03  0.26691388483E+03  0.43004679046E+03  0.15294330000E+03 0.  0.
    8880022    1    1    2    0    0 -0.26411640885E+03 -0.14334604855E+03 -0.23603216724E+04  0.23842851376E+04  0.15294330000E+03 0.  0.
<mgrwt>
<rscale>  0 0.33719018E+03</rscale>
<asrwt>0</asrwt>
<pdfrwt beam="1">  1        2 0.37751843E+00 0.33719018E+03</pdfrwt>
<pdfrwt beam="2">  1       -2 0.55455705E-01 0.33719018E+03</pdfrwt>
<totfact> 0.13073815E+01</totfact>
</mgrwt>
</event>
<event>
 4    1  0.2061941E-008  0.7657680E+03  0.7818608E-02  0.9610932E-01
          2   -1    0    0  501    0  0.00000000000E+00  0.00000000000E+00  0.42048399180E+04  0.42048399180E+04  0.25500000000E-02 0. -1.
         -2   -1    0    0    0  501 -0.00000000000E+00 -0.00000000000E+00 -0.21333807612E+03  0.21333807613E+03  0.25500000000E-02 0.  1.
    8880022    1    1    2    0    0 -0.48070127897E+03 -0.57613825602E+03  0.32957445574E+04  0.33835385103E+04  0.15294330000E+03 0.  0.
    8880022    1    1    2    0    0  0.48070127897E+03  0.57613825602E+03  0.69575728442E+03  0.10346394838E+04  0.15294330000E+03 0.  0.
<mgrwt>
<rscale>  0 0.76576802E+03</rscale>
<asrwt>0</asrwt>
<pdfrwt beam="1">  1        2 0.64689838E+00 0.76576802E+03</pdfrwt>
<pdfrwt beam="2">  1       -2 0.32821246E-01 0.76576802E+03</pdfrwt>
<totfact> 0.22219390E+00</totfact>
</mgrwt>
</event>
<event>
 4    1  0.2061941E-008  0.5673306E+03  0.7818608E-02  0.9975603E-01
          2   -1    0    0  501    0  0.00000000000E+00  0.00000000000E+00  0.18971771364E+04  0.18971771364E+04  0.25500000000E-02 0. -1.
         -2   -1    0    0    0  501 -0.00000000000E+00 -0.00000000000E+00 -0.43206904677E+03  0.43206904677E+03  0.25500000000E-02 0.  1.
    8880022    1    1    2    0    0  0.54304373926E+03 -0.59798116525E+02  0.16401719688E+04  0.17355195354E+04  0.15294330000E+03 0.  0.
    8880022    1    1    2    0    0 -0.54304373926E+03  0.59798116525E+02 -0.17506387916E+03  0.59372664778E+03  0.15294330000E+03 0.  0.
<mgrwt>
<rscale>  0 0.56733057E+03</rscale>
<asrwt>0</asrwt>
<pdfrwt beam="1">  1        2 0.29187341E+00 0.56733057E+03</pdfrwt>
<pdfrwt beam="2">  1       -2 0.66472161E-01 0.56733057E+03</pdfrwt>
<totfact> 0.16850372E+01</totfact>
</mgrwt>
</event>
<event>
 4    1  0.2061941E-008  0.1147931E+04  0.7818608E-02  0.9159694E-01
         -2   -1    0    0    0  501 -0.00000000000E+00  0.00000000000E+00  0.61302084001E+03  0.61302084002E+03  0.25500000000E-02 0.  1.
          2   -1    0    0  501    0  0.00000000000E+00 -0.00000000000E+00 -0.28552051898E+04  0.28552051898E+04  0.25500000000E-02 0. -1.
    8880022    1    1    2    0    0 -0.12822748250E+03  0.11304479874E+04 -0.25902496278E+03  0.11767924727E+04  0.15294330000E+03 0.  0.
    8880022    1    1    2    0    0  0.12822748250E+03 -0.11304479874E+04 -0.19831593870E+04  0.22914335571E+04  0.15294330000E+03 0.  0.
<mgrwt>
<rscale>  0 0.11479314E+04</rscale>
<asrwt>0</asrwt>
<pdfrwt beam="1">  1        2 0.43926233E+00 0.11479314E+04</pdfrwt>
<pdfrwt beam="2">  1       -2 0.94310900E-01 0.11479314E+04</pdfrwt>
<totfact> 0.20201851E+00</totfact>
</mgrwt>
</event>
<event>
 4    1  0.2061941E-008  0.1621761E+03  0.7818608E-02  0.1186262E+00
         -2   -1    0    0    0  501 -0.00000000000E+00  0.00000000000E+00  0.28671292197E+03  0.28671292198E+03  0.25500000000E-02 0.  1.
          2   -1    0    0  501    0  0.00000000000E+00 -0.00000000000E+00 -0.37933181752E+03  0.37933181753E+03  0.25500000000E-02 0. -1.
    8880022    1    1    2    0    0  0.53784701810E+02 -0.40775529338E+01  0.24366332488E+03  0.29269931584E+03  0.15294330000E+03 0.  1.
    8880022    1    1    2    0    0 -0.53784701810E+02  0.40775529338E+01 -0.33628222042E+03  0.37334542367E+03  0.15294330000E+03 0.  0.
<mgrwt>
<rscale>  0 0.16217606E+03</rscale>
<asrwt>0</asrwt>
<pdfrwt beam="1">  1        2 0.58358741E-01 0.16217606E+03</pdfrwt>
<pdfrwt beam="2">  1       -2 0.44109680E-01 0.16217606E+03</pdfrwt>
<totfact> 0.42031826E+02</totfact>
</mgrwt>
</event>
<event>
 4    1  0.2061941E-008  0.4780641E+03  0.7818608E-02  0.1019669E+00
         -2   -1    0    0    0  501 -0.00000000000E+00  0.00000000000E+00  0.14144387203E+04  0.14144387203E+04  0.25500000000E-02 0.  1.
          2   -1    0    0  501    0  0.00000000000E+00 -0.00000000000E+00 -0.33815860893E+03  0.33815860894E+03  0.25500000000E-02 0. -1.
    8880022    1    1    2    0    0  0.44742659762E+03  0.70448857505E+02  0.11713689989E+04  0.12651682048E+04  0.15294330000E+03 0.  0.
    8880022    1    1    2    0    0 -0.44742659762E+03 -0.70448857505E+02 -0.95088887586E+02  0.48742912442E+03  0.15294330000E+03 0.  0.
<mgrwt>
<rscale>  0 0.47806407E+03</rscale>
<asrwt>0</asrwt>
<pdfrwt beam="1">  1        2 0.52024400E-01 0.47806407E+03</pdfrwt>
<pdfrwt beam="2">  1       -2 0.21760596E+00 0.47806407E+03</pdfrwt>
<totfact> 0.10391788E+01</totfact>
</mgrwt>
</event>
<event>
 4    1  0.2061941E-008  0.1348599E+04  0.7818608E-02  0.8991889E-01
          2   -1    0    0  501    0  0.00000000000E+00  0.00000000000E+00  0.33872497103E+04  0.33872497103E+04  0.25500000000E-02 0. -1.
         -2   -1    0    0    0  501 -0.00000000000E+00 -0.00000000000E+00 -0.12618102894E+04  0.12618102894E+04  0.25500000000E-02 0.  1.
    8880022    1    1    2    0    0  0.13385970038E+04 -0.59040938234E+02 -0.69913854053E+03  0.15190504017E+04  0.15294330000E+03 0.  0.
    8880022    1    1    2    0    0 -0.13385970038E+04  0.59040938234E+02  0.28245779614E+04  0.31300095981E+04  0.15294330000E+03 0.  0.
<mgrwt>
<rscale>  0 0.13485991E+04</rscale>
<asrwt>0</asrwt>
<pdfrwt beam="1">  1        2 0.52111534E+00 0.13485991E+04</pdfrwt>
<pdfrwt beam="2">  1       -2 0.19412466E+00 0.13485991E+04</pdfrwt>
<totfact> 0.13686205E-01</totfact>
</mgrwt>
</event>
<event>
 4    1  0.2061941E-008  0.1050379E+04  0.7818608E-02  0.9254952E-01
         -2   -1    0    0    0  501 -0.00000000000E+00  0.00000000000E+00  0.59131716529E+03  0.59131716530E+03  0.25500000000E-02 0.  1.
          2   -1    0    0  501    0  0.00000000000E+00 -0.00000000000E+00 -0.20595446101E+04  0.20595446101E+04  0.25500000000E-02 0. -1.
    8880022    1    1    2    0    0  0.76951999852E+03 -0.69838692969E+03 -0.32762052334E+03  0.11002873225E+04  0.15294330000E+03 0.  0.
    8880022    1    1    2    0    0 -0.76951999852E+03  0.69838692969E+03 -0.11406069214E+04  0.15505744529E+04  0.15294330000E+03 0.  0.
<mgrwt>
<rscale>  0 0.10503794E+04</rscale>
<asrwt>0</asrwt>
<pdfrwt beam="1">  1        2 0.31685301E+00 0.10503794E+04</pdfrwt>
<pdfrwt beam="2">  1       -2 0.90971873E-01 0.10503794E+04</pdfrwt>
<totfact> 0.63563364E+00</totfact>
</mgrwt>
</event>
<event>
 4    1  0.2061941E-008  0.7703533E+03  0.7818608E-02  0.9603949E-01
         -2   -1    0    0    0  501 -0.00000000000E+00  0.00000000000E+00  0.17205168137E+04  0.17205168137E+04  0.25500000000E-02 0.  1.
          2   -1    0    0  501    0  0.00000000000E+00 -0.00000000000E+00 -0.43385486235E+03  0.43385486236E+03  0.25500000000E-02 0. -1.
    8880022    1    1    2    0    0 -0.62650248641E+03 -0.42136356787E+03  0.11310270820E+04  0.13684540675E+04  0.15294330000E+03 0.  0.
    8880022    1    1    2    0    0  0.62650248641E+03  0.42136356787E+03  0.15563486938E+03  0.78591760852E+03  0.15294330000E+03 0.  0.
<mgrwt>
<rscale>  0 0.77035334E+03</rscale>
<asrwt>0</asrwt>
<pdfrwt beam="1">  1        2 0.66746901E-01 0.77035334E+03</pdfrwt>
<pdfrwt beam="2">  1       -2 0.26469490E+00 0.77035334E+03</pdfrwt>
<totfact> 0.38980650E+00</totfact>
</mgrwt>
</event>
<event>
 4    1  0.2061941E-008  0.7789522E+03  0.7818608E-02  0.9590993E-01
         -2   -1    0    0    0  501 -0.00000000000E+00  0.00000000000E+00  0.23277038613E+04  0.23277038613E+04  0.25500000000E-02 0.  1.
          2   -1    0    0  501    0  0.00000000000E+00 -0.00000000000E+00 -0.75915586673E+03  0.75915586674E+03  0.25500000000E-02 0. -1.
    8880022    1    1    2    0    0 -0.20443157994E+03  0.73592293982E+03 -0.46640861447E+03  0.90791161073E+03  0.15294330000E+03 0.  0.
    8880022    1    1    2    0    0  0.20443157994E+03 -0.73592293982E+03  0.20349566091E+04  0.21789481173E+04  0.15294330000E+03 0.  0.
<mgrwt>
<rscale>  0 0.77895218E+03</rscale>
<asrwt>0</asrwt>
<pdfrwt beam="1">  1        2 0.11679321E+00 0.77895218E+03</pdfrwt>
<pdfrwt beam="2">  1       -2 0.35810828E+00 0.77895218E+03</pdfrwt>
<totfact> 0.53689281E-01</totfact>
</mgrwt>
</event>
<event>
 4    1  0.2061941E-008  0.1819678E+04  0.7818608E-02  0.8695905E-01
          2   -1    0    0  501    0  0.00000000000E+00  0.00000000000E+00  0.23339812915E+04  0.23339812915E+04  0.25500000000E-02 0. -1.
         -2   -1    0    0    0  501 -0.00000000000E+00 -0.00000000000E+00 -0.20391065580E+04  0.20391065580E+04  0.25500000000E-02 0.  1.
    8880022    1    1    2    0    0  0.16439059339E+04  0.76512006739E+03  0.13535149928E+04  0.22678690275E+04  0.15294330000E+03 0.  0.
    8880022    1    1    2    0    0 -0.16439059339E+04 -0.76512006739E+03 -0.10586402593E+04  0.21052188221E+04  0.15294330000E+03 0.  0.
<mgrwt>
<rscale>  0 0.18196777E+04</rscale>
<asrwt>0</asrwt>
<pdfrwt beam="1">  1        2 0.35907404E+00 0.18196777E+04</pdfrwt>
<pdfrwt beam="2">  1       -2 0.31370870E+00 0.18196777E+04</pdfrwt>
<totfact> 0.10255917E-01</totfact>
</mgrwt>
</event>
<event>
 4    1  0.2061941E-008  0.5270630E+03  0.7818608E-02  0.1006947E+00
          2   -1    0    0  501    0  0.00000000000E+00  0.00000000000E+00  0.24359456628E+04  0.24359456628E+04  0.25500000000E-02 0. -1.
         -2   -1    0    0    0  501 -0.00000000000E+00 -0.00000000000E+00 -0.19004280702E+03  0.19004280704E+03  0.25500000000E-02 0.  1.
    8880022    1    1    2    0    0  0.38316803626E+03  0.32800304095E+03  0.19532833658E+04  0.20231439145E+04  0.15294330000E+03 0.  0.
    8880022    1    1    2    0    0 -0.38316803626E+03 -0.32800304095E+03  0.29261948996E+03  0.60284455526E+03  0.15294330000E+03 0.  0.
<mgrwt>
<rscale>  0 0.52706299E+03</rscale>
<asrwt>0</asrwt>
<pdfrwt beam="1">  1        2 0.37476087E+00 0.52706299E+03</pdfrwt>
<pdfrwt beam="2">  1       -2 0.29237355E-01 0.52706299E+03</pdfrwt>
<totfact> 0.43955447E+01</totfact>
</mgrwt>
</event>
<event>
 4    1  0.2061941E-008  0.2833090E+03  0.7818608E-02  0.1093895E+00
          2   -1    0    0  501    0  0.00000000000E+00  0.00000000000E+00  0.53777900461E+03  0.53777900462E+03  0.25500000000E-02 0. -1.
         -2   -1    0    0    0  501 -0.00000000000E+00 -0.00000000000E+00 -0.13037841459E+04  0.13037841459E+04  0.25500000000E-02 0.  1.
    8880022    1    1    2    0    0 -0.19711601361E+03 -0.13422974262E+03 -0.12494794818E+04  0.12811959160E+04  0.15294330000E+03 0.  0.
    8880022    1    1    2    0    0  0.19711601361E+03  0.13422974262E+03  0.48347434051E+03  0.56036723456E+03  0.15294330000E+03 0.  0.
<mgrwt>
<rscale>  0 0.28330902E+03</rscale>
<asrwt>0</asrwt>
<pdfrwt beam="1">  1        2 0.82735232E-01 0.28330902E+03</pdfrwt>
<pdfrwt beam="2">  1       -2 0.20058217E+00 0.28330902E+03</pdfrwt>
<totfact> 0.82658071E+00</totfact>
</mgrwt>
</event>
<event>
 4    1  0.2061941E-008  0.2677265E+03  0.7818608E-02  0.1102588E+00
         -2   -1    0    0    0  501 -0.00000000000E+00  0.00000000000E+00  0.19418569196E+02  0.19418569363E+02  0.25500000000E-02 0.  1.
          2   -1    0    0  501    0  0.00000000000E+00 -0.00000000000E+00 -0.38809714343E+04  0.38809714343E+04  0.25500000000E-02 0. -1.
    8880022    1    1    2    0    0 -0.40264055113E+02 -0.21602003561E+03 -0.14995135404E+04  0.15232263000E+04  0.15294330000E+03 0. -1.
    8880022    1    1    2    0    0  0.40264055113E+02  0.21602003561E+03 -0.23620393247E+04  0.23771637037E+04  0.15294330000E+03 0.  1.
<mgrwt>
<rscale>  0 0.26772655E+03</rscale>
<asrwt>0</asrwt>
<pdfrwt beam="1">  1        2 0.59707191E+00 0.26772655E+03</pdfrwt>
<pdfrwt beam="2">  1       -2 0.29874753E-02 0.26772655E+03</pdfrwt>
<totfact> 0.23456165E+02</totfact>
</mgrwt>
</event>
<event>
 4    1  0.2061941E-008  0.1231387E+04  0.7818608E-02  0.9085819E-01
          2   -1    0    0  501    0  0.00000000000E+00  0.00000000000E+00  0.24324997988E+04  0.24324997988E+04  0.25500000000E-02 0. -1.
         -2   -1    0    0    0  501 -0.00000000000E+00 -0.00000000000E+00 -0.26000359184E+04  0.26000359184E+04  0.25500000000E-02 0.  1.
    8880022    1    1    2    0    0 -0.93420513764E+03 -0.78751664763E+03 -0.22777617321E+04  0.25893072183E+04  0.15294330000E+03 0.  0.
    8880022    1    1    2    0    0  0.93420513764E+03  0.78751664763E+03  0.21102256125E+04  0.24432284989E+04  0.15294330000E+03 0.  0.
<mgrwt>
<rscale>  0 0.12313868E+04</rscale>
<asrwt>0</asrwt>
<pdfrwt beam="1">  1        2 0.37423074E+00 0.12313868E+04</pdfrwt>
<pdfrwt beam="2">  1       -2 0.40000552E+00 0.12313868E+04</pdfrwt>
<totfact> 0.27770336E-02</totfact>
</mgrwt>
</event>
<event>
 4    1  0.2061941E-008  0.1686918E+04  0.7818608E-02  0.8768861E-01
         -2   -1    0    0    0  501 -0.00000000000E+00  0.00000000000E+00  0.97492653653E+03  0.97492653653E+03  0.25500000000E-02 0.  1.
          2   -1    0    0  501    0  0.00000000000E+00 -0.00000000000E+00 -0.35449995776E+04  0.35449995776E+04  0.25500000000E-02 0. -1.
    8880022    1    1    2    0    0 -0.99093010859E+03 -0.13565978868E+04 -0.22348152962E+04  0.28000163156E+04  0.15294330000E+03 0.  0.
    8880022    1    1    2    0    0  0.99093010859E+03  0.13565978868E+04 -0.33525774483E+03  0.17199097985E+04  0.15294330000E+03 0.  0.
<mgrwt>
<rscale>  0 0.16869179E+04</rscale>
<asrwt>0</asrwt>
<pdfrwt beam="1">  1        2 0.54538454E+00 0.16869179E+04</pdfrwt>
<pdfrwt beam="2">  1       -2 0.14998870E+00 0.16869179E+04</pdfrwt>
<totfact> 0.21122601E-01</totfact>
</mgrwt>
</event>
<event>
 4    1  0.2061941E-008  0.4734648E+03  0.7818608E-02  0.1020947E+00
         -2   -1    0    0    0  501 -0.00000000000E+00  0.00000000000E+00  0.17145110516E+03  0.17145110518E+03  0.25500000000E-02 0.  1.
          2   -1    0    0  501    0  0.00000000000E+00 -0.00000000000E+00 -0.25904338360E+04  0.25904338360E+04  0.25500000000E-02 0. -1.
    8880022    1    1    2    0    0  0.23610207825E+03  0.38083213135E+03 -0.21813313970E+04  0.22321235674E+04  0.15294330000E+03 0.  0.
    8880022    1    1    2    0    0 -0.23610207825E+03 -0.38083213135E+03 -0.23765133378E+03  0.52976137372E+03  0.15294330000E+03 0.  0.
<mgrwt>
<rscale>  0 0.47346484E+03</rscale>
<asrwt>0</asrwt>
<pdfrwt beam="1">  1        2 0.39852825E+00 0.47346484E+03</pdfrwt>
<pdfrwt beam="2">  1       -2 0.26377095E-01 0.47346484E+03</pdfrwt>
<totfact> 0.43920731E+01</totfact>
</mgrwt>
</event>
<event>
 4    1  0.2061941E-008  0.2363326E+03  0.7818608E-02  0.1122260E+00
         -2   -1    0    0    0  501 -0.00000000000E+00  0.00000000000E+00  0.82806815509E+03  0.82806815510E+03  0.25500000000E-02 0.  1.
          2   -1    0    0  501    0  0.00000000000E+00 -0.00000000000E+00 -0.49142000489E+03  0.49142000490E+03  0.25500000000E-02 0. -1.
    8880022    1    1    2    0    0  0.15910858191E+02 -0.17946673773E+03  0.78112117413E+03  0.81609031795E+03  0.15294330000E+03 0.  0.
    8880022    1    1    2    0    0 -0.15910858191E+02  0.17946673773E+03 -0.44447302393E+03  0.50339784205E+03  0.15294330000E+03 0. -1.
<mgrwt>
<rscale>  0 0.23633264E+03</rscale>
<asrwt>0</asrwt>
<pdfrwt beam="1">  1        2 0.75603078E-01 0.23633264E+03</pdfrwt>
<pdfrwt beam="2">  1       -2 0.12739510E+00 0.23633264E+03</pdfrwt>
<totfact> 0.31063404E+01</totfact>
</mgrwt>
</event>
<event>
 4    1  0.2061941E-008  0.7661143E+03  0.7818608E-02  0.9610403E-01
          2   -1    0    0  501    0  0.00000000000E+00  0.00000000000E+00  0.15779885104E+04  0.15779885104E+04  0.25500000000E-02 0. -1.
         -2   -1    0    0    0  501 -0.00000000000E+00 -0.00000000000E+00 -0.41927625247E+03  0.41927625248E+03  0.25500000000E-02 0.  1.
    8880022    1    1    2    0    0  0.64578327040E+03  0.38275762191E+03  0.24384136095E+03  0.80398363900E+03  0.15294330000E+03 0.  0.
    8880022    1    1    2    0    0 -0.64578327040E+03 -0.38275762191E+03  0.91487089702E+03  0.11932811239E+04  0.15294330000E+03 0.  0.
<mgrwt>
<rscale>  0 0.76611428E+03</rscale>
<asrwt>0</asrwt>
<pdfrwt beam="1">  1        2 0.24276746E+00 0.76611428E+03</pdfrwt>
<pdfrwt beam="2">  1       -2 0.64504039E-01 0.76611428E+03</pdfrwt>
<totfact> 0.26048761E+01</totfact>
</mgrwt>
</event>
<event>
 4    1  0.2061941E-008  0.4889474E+03  0.7818608E-02  0.1016705E+00
          2   -1    0    0  501    0  0.00000000000E+00  0.00000000000E+00  0.24099639126E+04  0.24099639126E+04  0.25500000000E-02 0. -1.
         -2   -1    0    0    0  501 -0.00000000000E+00 -0.00000000000E+00 -0.66401228954E+03  0.66401228954E+03  0.25500000000E-02 0.  1.
    8880022    1    1    2    0    0  0.28476318169E+03 -0.36686220790E+03 -0.54456093865E+03  0.73185805875E+03  0.15294330000E+03 0.  0.
    8880022    1    1    2    0    0 -0.28476318169E+03  0.36686220790E+03  0.22905125617E+04  0.23421181434E+04  0.15294330000E+03 0.  0.
<mgrwt>
<rscale>  0 0.48894744E+03</rscale>
<asrwt>0</asrwt>
<pdfrwt beam="1">  1        2 0.37076367E+00 0.48894744E+03</pdfrwt>
<pdfrwt beam="2">  1       -2 0.10215574E+00 0.48894744E+03</pdfrwt>
<totfact> 0.34274641E+00</totfact>
</mgrwt>
</event>
<event>
 4    1  0.2061941E-008  0.1455435E+04  0.7818608E-02  0.8914641E-01
          2   -1    0    0  501    0  0.00000000000E+00  0.00000000000E+00  0.44583652063E+04  0.44583652063E+04  0.25500000000E-02 0. -1.
         -2   -1    0    0    0  501 -0.00000000000E+00 -0.00000000000E+00 -0.66069756055E+03  0.66069756055E+03  0.25500000000E-02 0.  1.
    8880022    1    1    2    0    0  0.13552145581E+04  0.50822605269E+03  0.32553128180E+04  0.35658594217E+04  0.15294330000E+03 0.  0.
    8880022    1    1    2    0    0 -0.13552145581E+04 -0.50822605269E+03  0.54235482773E+03  0.15532033451E+04  0.15294330000E+03 0.  0.
<mgrwt>
<rscale>  0 0.14554353E+04</rscale>
<asrwt>0</asrwt>
<pdfrwt beam="1">  1        2 0.68590233E+00 0.14554353E+04</pdfrwt>
<pdfrwt beam="2">  1       -2 0.10164578E+00 0.14554353E+04</pdfrwt>
<totfact> 0.10577622E-01</totfact>
</mgrwt>
</event>
<event>
 4    1  0.2061941E-008  0.8831397E+03  0.7818608E-02  0.9446907E-01
          2   -1    0    0  501    0  0.00000000000E+00  0.00000000000E+00  0.38336937025E+04  0.38336937025E+04  0.25500000000E-02 0. -1.
         -2   -1    0    0    0  501 -0.00000000000E+00 -0.00000000000E+00 -0.60547464847E+03  0.60547464847E+03  0.25500000000E-02 0.  1.
    8880022    1    1    2    0    0 -0.36265278272E+03 -0.79058653211E+03 -0.19453865408E+03  0.90431247172E+03  0.15294330000E+03 0.  0.
    8880022    1    1    2    0    0  0.36265278272E+03  0.79058653211E+03  0.34227577082E+04  0.35348558793E+04  0.15294330000E+03 0.  0.
<mgrwt>
<rscale>  0 0.88313972E+03</rscale>
<asrwt>0</asrwt>
<pdfrwt beam="1">  1        2 0.58979904E+00 0.88313972E+03</pdfrwt>
<pdfrwt beam="2">  1       -2 0.93149945E-01 0.88313972E+03</pdfrwt>
<totfact> 0.48347034E-01</totfact>
</mgrwt>
</event>
<event>
 4    1  0.2061941E-008  0.8020034E+03  0.7818608E-02  0.9557122E-01
         -2   -1    0    0    0  501 -0.00000000000E+00  0.00000000000E+00  0.42320920623E+03  0.42320920623E+03  0.25500000000E-02 0.  1.
          2   -1    0    0  501    0  0.00000000000E+00 -0.00000000000E+00 -0.19720520109E+04  0.19720520109E+04  0.25500000000E-02 0. -1.
    8880022    1    1    2    0    0  0.78470381685E+03 -0.63699715347E+02 -0.20091830932E+03  0.82678749020E+03  0.15294330000E+03 0.  0.
    8880022    1    1    2    0    0 -0.78470381685E+03  0.63699715347E+02 -0.13479244953E+04  0.15684737269E+04  0.15294330000E+03 0.  0.
<mgrwt>
<rscale>  0 0.80200336E+03</rscale>
<asrwt>0</asrwt>
<pdfrwt beam="1">  1        2 0.30339261E+00 0.80200336E+03</pdfrwt>
<pdfrwt beam="2">  1       -2 0.65109110E-01 0.80200336E+03</pdfrwt>
<totfact> 0.15465175E+01</totfact>
</mgrwt>
</event>
<event>
 4    1  0.2212097E-008  0.1298989E+04  0.7818608E-02  0.9030367E-01
         -2   -1    0    0    0  501 -0.00000000000E+00  0.00000000000E+00  0.17077065329E+04  0.17077065329E+04  0.25500000000E-02 0.  1.
          2   -1    0    0  501    0  0.00000000000E+00 -0.00000000000E+00 -0.21609801836E+04  0.21609801836E+04  0.25500000000E-02 0. -1.
    8880022    1    1    2    0    0 -0.10417003667E+04 -0.76081671346E+03 -0.16517069637E+04  0.21013113221E+04  0.15294330000E+03 0.  0.
    8880022    1    1    2    0    0  0.10417003667E+04  0.76081671346E+03  0.11984333130E+04  0.17673753943E+04  0.15294330000E+03 0.  0.
<mgrwt>
<rscale>  0 0.12989894E+04</rscale>
<asrwt>0</asrwt>
<pdfrwt beam="1">  1        2 0.33245849E+00 0.12989894E+04</pdfrwt>
<pdfrwt beam="2">  1       -2 0.26272408E+00 0.12989894E+04</pdfrwt>
<totfact> 0.28033662E-01</totfact>
</mgrwt>
</event>
<event>
 4    1  0.2061941E-008  0.1626767E+04  0.7818608E-02  0.8804271E-01
          2   -1    0    0  501    0  0.00000000000E+00  0.00000000000E+00  0.23036254775E+04  0.23036254775E+04  0.25500000000E-02 0. -1.
         -2   -1    0    0    0  501 -0.00000000000E+00 -0.00000000000E+00 -0.14019070263E+04  0.14019070263E+04  0.25500000000E-02 0.  1.
    8880022    1    1    2    0    0 -0.72642766994E+03  0.14475086001E+04 -0.33641522258E+03  0.16611878768E+04  0.15294330000E+03 0.  0.
    8880022    1    1    2    0    0  0.72642766994E+03 -0.14475086001E+04  0.12381336737E+04  0.20443446270E+04  0.15294330000E+03 0.  0.
<mgrwt>
<rscale>  0 0.16267667E+04</rscale>
<asrwt>0</asrwt>
<pdfrwt beam="1">  1        2 0.35440392E+00 0.16267667E+04</pdfrwt>
<pdfrwt beam="2">  1       -2 0.21567801E+00 0.16267667E+04</pdfrwt>
<totfact> 0.43990709E-01</totfact>
</mgrwt>
</event>
<event>
 4    1  0.2061941E-008  0.3300506E+03  0.7818608E-02  0.1071114E+00
         -2   -1    0    0    0  501 -0.00000000000E+00  0.00000000000E+00  0.85187282675E+03  0.85187282675E+03  0.25500000000E-02 0.  1.
          2   -1    0    0  501    0  0.00000000000E+00 -0.00000000000E+00 -0.22823634797E+04  0.22823634797E+04  0.25500000000E-02 0. -1.
    8880022    1    1    2    0    0 -0.20566255509E+03 -0.20795346699E+03  0.80733918450E+03  0.87219833917E+03  0.15294330000E+03 0.  0.
    8880022    1    1    2    0    0  0.20566255509E+03  0.20795346699E+03 -0.22378298374E+04  0.22620379673E+04  0.15294330000E+03 0. -1.
<mgrwt>
<rscale>  0 0.33005058E+03</rscale>
<asrwt>0</asrwt>
<pdfrwt beam="1">  1        2 0.35113284E+00 0.33005058E+03</pdfrwt>
<pdfrwt beam="2">  1       -2 0.13105736E+00 0.33005058E+03</pdfrwt>
<totfact> 0.23272162E+00</totfact>
</mgrwt>
</event>
<event>
 4    1  0.2061941E-008  0.1042127E+04  0.7818608E-02  0.9263510E-01
          2   -1    0    0  501    0  0.00000000000E+00  0.00000000000E+00  0.16575121829E+04  0.16575121829E+04  0.25500000000E-02 0. -1.
         -2   -1    0    0    0  501 -0.00000000000E+00 -0.00000000000E+00 -0.11680005836E+04  0.11680005836E+04  0.25500000000E-02 0.  1.
    8880022    1    1    2    0    0  0.36398335535E+03 -0.96444483605E+03 -0.69132428315E+03  0.12505833208E+04  0.15294330000E+03 0.  0.
    8880022    1    1    2    0    0 -0.36398335535E+03  0.96444483605E+03  0.11808358824E+04  0.15749294457E+04  0.15294330000E+03 0.  0.
<mgrwt>
<rscale>  0 0.10421273E+04</rscale>
<asrwt>0</asrwt>
<pdfrwt beam="1">  1        2 0.25500187E+00 0.10421273E+04</pdfrwt>
<pdfrwt beam="2">  1       -2 0.17969240E+00 0.10421273E+04</pdfrwt>
<totfact> 0.18655186E+00</totfact>
</mgrwt>
</event>
<event>
 4    1  0.2061941E-008  0.4436791E+03  0.7818608E-02  0.1029624E+00
         -2   -1    0    0    0  501 -0.00000000000E+00  0.00000000000E+00  0.61563705575E+02  0.61563705628E+02  0.25500000000E-02 0.  1.
          2   -1    0    0  501    0  0.00000000000E+00 -0.00000000000E+00 -0.48403101053E+04  0.48403101053E+04  0.25500000000E-02 0. -1.
    8880022    1    1    2    0    0 -0.11721030950E+03 -0.39965135761E+03 -0.38172367647E+04  0.38429347685E+04  0.15294330000E+03 0.  0.
    8880022    1    1    2    0    0  0.11721030950E+03  0.39965135761E+03 -0.96150963506E+03  0.10589390424E+04  0.15294330000E+03 0.  1.
<mgrwt>
<rscale>  0 0.44367907E+03</rscale>
<asrwt>0</asrwt>
<pdfrwt beam="1">  1        2 0.74466279E+00 0.44367907E+03</pdfrwt>
<pdfrwt beam="2">  1       -2 0.94713432E-02 0.44367907E+03</pdfrwt>
<totfact> 0.51085494E+00</totfact>
</mgrwt>
</event>
<event>
 4    1  0.2061941E-008  0.5282737E+03  0.7818608E-02  0.1006652E+00
         -2   -1    0    0    0  501 -0.00000000000E+00  0.00000000000E+00  0.33582211120E+03  0.33582211121E+03  0.25500000000E-02 0.  1.
          2   -1    0    0  501    0  0.00000000000E+00 -0.00000000000E+00 -0.18000534743E+04  0.18000534743E+04  0.25500000000E-02 0. -1.
    8880022    1    1    2    0    0 -0.49380376437E+03 -0.10880854509E+03  0.51447156100E+02  0.53077294587E+03  0.15294330000E+03 0.  0.
    8880022    1    1    2    0    0  0.49380376437E+03  0.10880854509E+03 -0.15156785192E+04  0.16051026396E+04  0.15294330000E+03 0.  0.
<mgrwt>
<rscale>  0 0.52827371E+03</rscale>
<asrwt>0</asrwt>
<pdfrwt beam="1">  1        2 0.27693130E+00 0.52827371E+03</pdfrwt>
<pdfrwt beam="2">  1       -2 0.51664941E-01 0.52827371E+03</pdfrwt>
<totfact> 0.32441142E+01</totfact>
</mgrwt>
</event>
<event>
 4    1  0.2061941E-008  0.3894869E+03  0.7818608E-02  0.1047482E+00
          2   -1    0    0  501    0  0.00000000000E+00  0.00000000000E+00  0.20753848966E+04  0.20753848966E+04  0.25500000000E-02 0. -1.
         -2   -1    0    0    0  501 -0.00000000000E+00 -0.00000000000E+00 -0.65280686684E+03  0.65280686685E+03  0.25500000000E-02 0.  1.
    8880022    1    1    2    0    0  0.61841355150E+02  0.35282300985E+03  0.19967493130E+04  0.20343814543E+04  0.15294330000E+03 0. -1.
    8880022    1    1    2    0    0 -0.61841355150E+02 -0.35282300985E+03 -0.57417128329E+03  0.69381030913E+03  0.15294330000E+03 0.  0.
<mgrwt>
<rscale>  0 0.38948695E+03</rscale>
<asrwt>0</asrwt>
<pdfrwt beam="1">  1        2 0.31928998E+00 0.38948695E+03</pdfrwt>
<pdfrwt beam="2">  1       -2 0.10043183E+00 0.38948695E+03</pdfrwt>
<totfact> 0.55947781E+00</totfact>
</mgrwt>
</event>
<event>
 4    1  0.2061941E-008  0.9215626E+03  0.7818608E-02  0.9399021E-01
          2   -1    0    0  501    0  0.00000000000E+00  0.00000000000E+00  0.39239503774E+04  0.39239503774E+04  0.25500000000E-02 0. -1.
         -2   -1    0    0    0  501 -0.00000000000E+00 -0.00000000000E+00 -0.43186353066E+03  0.43186353067E+03  0.25500000000E-02 0.  1.
    8880022    1    1    2    0    0  0.68751587970E+03  0.59431302484E+03  0.20782394830E+03  0.94470551117E+03  0.15294330000E+03 0.  0.
    8880022    1    1    2    0    0 -0.68751587970E+03 -0.59431302484E+03  0.32842628984E+04  0.34111083969E+04  0.15294330000E+03 0.  0.
<mgrwt>
<rscale>  0 0.92156265E+03</rscale>
<asrwt>0</asrwt>
<pdfrwt beam="1">  1        2 0.60368467E+00 0.92156265E+03</pdfrwt>
<pdfrwt beam="2">  1       -2 0.66440543E-01 0.92156265E+03</pdfrwt>
<totfact> 0.87453944E-01</totfact>
</mgrwt>
</event>
<event>
 4    1  0.2061941E-008  0.2261863E+03  0.7818608E-02  0.1129353E+00
         -2   -1    0    0    0  501 -0.00000000000E+00  0.00000000000E+00  0.82193372798E+02  0.82193372838E+02  0.25500000000E-02 0.  1.
          2   -1    0    0  501    0  0.00000000000E+00 -0.00000000000E+00 -0.13150722509E+04  0.13150722509E+04  0.25500000000E-02 0. -1.
    8880022    1    1    2    0    0 -0.16546499010E+03  0.19746621677E+02 -0.11234608292E+04  0.11460036997E+04  0.15294330000E+03 0.  0.
    8880022    1    1    2    0    0  0.16546499010E+03 -0.19746621677E+02 -0.10941804888E+03  0.25126192400E+03  0.15294330000E+03 0.  1.
<mgrwt>
<rscale>  0 0.22618631E+03</rscale>
<asrwt>0</asrwt>
<pdfrwt beam="1">  1        2 0.20231879E+00 0.22618631E+03</pdfrwt>
<pdfrwt beam="2">  1       -2 0.12645135E-01 0.22618631E+03</pdfrwt>
<totfact> 0.78647880E+02</totfact>
</mgrwt>
</event>
<event>
 4    1  0.2061941E-008  0.4216971E+03  0.7818608E-02  0.1036515E+00
          2   -1    0    0  501    0  0.00000000000E+00  0.00000000000E+00  0.13867482469E+04  0.13867482469E+04  0.25500000000E-02 0. -1.
         -2   -1    0    0    0  501 -0.00000000000E+00 -0.00000000000E+00 -0.39381591867E+03  0.39381591868E+03  0.25500000000E-02 0.  1.
    8880022    1    1    2    0    0  0.22978441225E+03 -0.31880388051E+03  0.12275718345E+04  0.12979834560E+04  0.15294330000E+03 0.  0.
    8880022    1    1    2    0    0 -0.22978441225E+03  0.31880388051E+03 -0.23463950623E+03  0.48258070956E+03  0.15294330000E+03 0.  0.
<mgrwt>
<rscale>  0 0.42169710E+03</rscale>
<asrwt>0</asrwt>
<pdfrwt beam="1">  1        2 0.21334589E+00 0.42169710E+03</pdfrwt>
<pdfrwt beam="2">  1       -2 0.60587063E-01 0.42169710E+03</pdfrwt>
<totfact> 0.39938488E+01</totfact>
</mgrwt>
</event>
<event>
 4    1  0.2061941E-008  0.1050631E+04  0.7818608E-02  0.9254693E-01
          2   -1    0    0  501    0  0.00000000000E+00  0.00000000000E+00  0.19524600409E+04  0.19524600409E+04  0.25500000000E-02 0. -1.
         -2   -1    0    0    0  501 -0.00000000000E+00 -0.00000000000E+00 -0.81721110503E+03  0.81721110504E+03  0.25500000000E-02 0.  1.
    8880022    1    1    2    0    0 -0.54689935517E+03  0.88393149861E+03 -0.20117075507E+03  0.10697173106E+04  0.15294330000E+03 0.  0.
    8880022    1    1    2    0    0  0.54689935517E+03 -0.88393149861E+03  0.13364196910E+04  0.16999538354E+04  0.15294330000E+03 0.  0.
<mgrwt>
<rscale>  0 0.10506310E+04</rscale>
<asrwt>0</asrwt>
<pdfrwt beam="1">  1        2 0.30037846E+00 0.10506310E+04</pdfrwt>
<pdfrwt beam="2">  1       -2 0.12572479E+00 0.10506310E+04</pdfrwt>
<totfact> 0.33280446E+00</totfact>
</mgrwt>
</event>
<event>
 4    1  0.2061941E-008  0.1232227E+04  0.7818608E-02  0.9085107E-01
         -2   -1    0    0    0  501 -0.00000000000E+00  0.00000000000E+00  0.66298786966E+03  0.66298786966E+03  0.25500000000E-02 0.  1.
          2   -1    0    0  501    0  0.00000000000E+00 -0.00000000000E+00 -0.36276244604E+04  0.36276244604E+04  0.25500000000E-02 0. -1.
    8880022    1    1    2    0    0 -0.10641954508E+04  0.60206319555E+03 -0.17971978986E+03  0.12452641907E+04  0.15294330000E+03 0.  0.
    8880022    1    1    2    0    0  0.10641954508E+04 -0.60206319555E+03 -0.27849168009E+04  0.30453481393E+04  0.15294330000E+03 0.  0.
<mgrwt>
<rscale>  0 0.12322271E+04</rscale>
<asrwt>0</asrwt>
<pdfrwt beam="1">  1        2 0.55809606E+00 0.12322271E+04</pdfrwt>
<pdfrwt beam="2">  1       -2 0.10199814E+00 0.12322271E+04</pdfrwt>
<totfact> 0.51873605E-01</totfact>
</mgrwt>
</event>
<event>
 4    1  0.2061941E-008  0.2602961E+04  0.7818608E-02  0.8367196E-01
         -2   -1    0    0    0  501 -0.00000000000E+00  0.00000000000E+00  0.20064358230E+04  0.20064358230E+04  0.25500000000E-02 0.  1.
          2   -1    0    0  501    0  0.00000000000E+00 -0.00000000000E+00 -0.36421334104E+04  0.36421334104E+04  0.25500000000E-02 0. -1.
    8880022    1    1    2    0    0  0.54106901534E+03  0.25415073662E+04 -0.55601132587E+02  0.26035549755E+04  0.15294330000E+03 0.  0.
    8880022    1    1    2    0    0 -0.54106901534E+03 -0.25415073662E+04 -0.15800964548E+04  0.30450142580E+04  0.15294330000E+03 0.  0.
<mgrwt>
<rscale>  0 0.26029612E+04</rscale>
<asrwt>0</asrwt>
<pdfrwt beam="1">  1        2 0.56032821E+00 0.26029612E+04</pdfrwt>
<pdfrwt beam="2">  1       -2 0.30868244E+00 0.26029612E+04</pdfrwt>
<totfact> 0.15036799E-02</totfact>
</mgrwt>
</event>
<event>
 4    1  0.2061941E-008  0.8289807E+03  0.7818608E-02  0.9518991E-01
          2   -1    0    0  501    0  0.00000000000E+00  0.00000000000E+00  0.99283321283E+03  0.99283321283E+03  0.25500000000E-02 0. -1.
         -2   -1    0    0    0  501 -0.00000000000E+00 -0.00000000000E+00 -0.80300326899E+03  0.80300326900E+03  0.25500000000E-02 0.  1.
    8880022    1    1    2    0    0 -0.76594106688E+03  0.27776186950E+03 -0.23867568274E+03  0.86265584599E+03  0.15294330000E+03 0.  0.
    8880022    1    1    2    0    0  0.76594106688E+03 -0.27776186950E+03  0.42850562657E+03  0.93318063583E+03  0.15294330000E+03 0.  0.
<mgrwt>
<rscale>  0 0.82898072E+03</rscale>
<asrwt>0</asrwt>
<pdfrwt beam="1">  1        2 0.15274357E+00 0.82898072E+03</pdfrwt>
<pdfrwt beam="2">  1       -2 0.12353897E+00 0.82898072E+03</pdfrwt>
<totfact> 0.12676743E+01</totfact>
</mgrwt>
</event>
<event>
 4    1  0.2061941E-008  0.5518996E+03  0.7818608E-02  0.1001055E+00
         -2   -1    0    0    0  501 -0.00000000000E+00  0.00000000000E+00  0.43614998094E+03  0.43614998094E+03  0.25500000000E-02 0.  1.
          2   -1    0    0  501    0  0.00000000000E+00 -0.00000000000E+00 -0.89503260615E+03  0.89503260615E+03  0.25500000000E-02 0. -1.
    8880022    1    1    2    0    0  0.51577946860E+03 -0.12317879835E+03 -0.54143906103E+03  0.77314253952E+03  0.15294330000E+03 0.  1.
    8880022    1    1    2    0    0 -0.51577946860E+03  0.12317879835E+03  0.82556435821E+02  0.55804004757E+03  0.15294330000E+03 0.  0.
<mgrwt>
<rscale>  0 0.55189956E+03</rscale>
<asrwt>0</asrwt>
<pdfrwt beam="1">  1        2 0.13769732E+00 0.55189956E+03</pdfrwt>
<pdfrwt beam="2">  1       -2 0.67099997E-01 0.55189956E+03</pdfrwt>
<totfact> 0.62200103E+01</totfact>
</mgrwt>
</event>
<event>
 4    1  0.2061941E-008  0.7958831E+03  0.7818608E-02  0.9565995E-01
          2   -1    0    0  501    0  0.00000000000E+00  0.00000000000E+00  0.20929370479E+04  0.20929370479E+04  0.25500000000E-02 0. -1.
         -2   -1    0    0    0  501 -0.00000000000E+00 -0.00000000000E+00 -0.58826504032E+03  0.58826504033E+03  0.25500000000E-02 0.  1.
    8880022    1    1    2    0    0 -0.84530276339E+02  0.77646173994E+03 -0.18178401146E+03  0.81637937324E+03  0.15294330000E+03 0.  0.
    8880022    1    1    2    0    0  0.84530276339E+02 -0.77646173994E+03  0.16864560191E+04  0.18648227150E+04  0.15294330000E+03 0.  0.
<mgrwt>
<rscale>  0 0.79588307E+03</rscale>
<asrwt>0</asrwt>
<pdfrwt beam="1">  1        2 0.32199032E+00 0.79588307E+03</pdfrwt>
<pdfrwt beam="2">  1       -2 0.90502313E-01 0.79588307E+03</pdfrwt>
<totfact> 0.63762843E+00</totfact>
</mgrwt>
</event>
<event>
 4    1  0.2061941E-008  0.1396387E+04  0.7818608E-02  0.8956438E-01
         -2   -1    0    0    0  501 -0.00000000000E+00  0.00000000000E+00  0.10867441963E+04  0.10867441963E+04  0.25500000000E-02 0.  1.
          2   -1    0    0  501    0  0.00000000000E+00 -0.00000000000E+00 -0.27304831664E+04  0.27304831664E+04  0.25500000000E-02 0. -1.
    8880022    1    1    2    0    0  0.89335587077E+03 -0.10622709531E+04  0.29573770949E+03  0.14273600581E+04  0.15294330000E+03 0.  0.
    8880022    1    1    2    0    0 -0.89335587077E+03  0.10622709531E+04 -0.19394766796E+04  0.23898673045E+04  0.15294330000E+03 0.  0.
<mgrwt>
<rscale>  0 0.13963867E+04</rscale>
<asrwt>0</asrwt>
<pdfrwt beam="1">  1        2 0.42007433E+00 0.13963867E+04</pdfrwt>
<pdfrwt beam="2">  1       -2 0.16719142E+00 0.13963867E+04</pdfrwt>
<totfact> 0.54290428E-01</totfact>
</mgrwt>
</event>
<event>
 4    1  0.2061941E-008  0.1353594E+04  0.7818608E-02  0.8988112E-01
          2   -1    0    0  501    0  0.00000000000E+00  0.00000000000E+00  0.16758883890E+04  0.16758883890E+04  0.25500000000E-02 0. -1.
         -2   -1    0    0    0  501 -0.00000000000E+00 -0.00000000000E+00 -0.17062393952E+04  0.17062393952E+04  0.25500000000E-02 0.  1.
    8880022    1    1    2    0    0  0.11688286270E+04  0.66533075169E+03 -0.10287496260E+04  0.17001596438E+04  0.15294330000E+03 0.  0.
    8880022    1    1    2    0    0 -0.11688286270E+04 -0.66533075169E+03  0.99839861979E+03  0.16819681404E+04  0.15294330000E+03 0.  0.
<mgrwt>
<rscale>  0 0.13535941E+04</rscale>
<asrwt>0</asrwt>
<pdfrwt beam="1">  1        2 0.25782898E+00 0.13535941E+04</pdfrwt>
<pdfrwt beam="2">  1       -2 0.26249837E+00 0.13535941E+04</pdfrwt>
<totfact> 0.51991210E-01</totfact>
</mgrwt>
</event>
<event>
 4    1  0.2061941E-008  0.5539698E+03  0.7818608E-02  0.1000579E+00
         -2   -1    0    0    0  501 -0.00000000000E+00  0.00000000000E+00  0.46568484637E+03  0.46568484637E+03  0.25500000000E-02 0.  1.
          2   -1    0    0  501    0  0.00000000000E+00 -0.00000000000E+00 -0.10087941451E+04  0.10087941451E+04  0.25500000000E-02 0. -1.
    8880022    1    1    2    0    0  0.12477766822E+03 -0.51761131133E+03  0.16257410284E+03  0.57733259741E+03  0.15294330000E+03 0.  0.
    8880022    1    1    2    0    0 -0.12477766822E+03  0.51761131133E+03 -0.70568340156E+03  0.89714639405E+03  0.15294330000E+03 0.  0.
<mgrwt>
<rscale>  0 0.55396984E+03</rscale>
<asrwt>0</asrwt>
<pdfrwt beam="1">  1        2 0.15519910E+00 0.55396984E+03</pdfrwt>
<pdfrwt beam="2">  1       -2 0.71643822E-01 0.55396984E+03</pdfrwt>
<totfact> 0.45533097E+01</totfact>
</mgrwt>
</event>
<event>
 4    1  0.2061941E-008  0.7810949E+03  0.7818608E-02  0.9587792E-01
         -2   -1    0    0    0  501 -0.00000000000E+00  0.00000000000E+00  0.70587644189E+03  0.70587644190E+03  0.25500000000E-02 0.  1.
          2   -1    0    0  501    0  0.00000000000E+00 -0.00000000000E+00 -0.10671356204E+04  0.10671356204E+04  0.25500000000E-02 0. -1.
    8880022    1    1    2    0    0  0.72556383625E+02 -0.76253072142E+03 -0.56709746452E+03  0.96525059813E+03  0.15294330000E+03 0.  0.
    8880022    1    1    2    0    0 -0.72556383625E+02  0.76253072142E+03  0.20583828605E+03  0.80776146413E+03  0.15294330000E+03 0.  0.
<mgrwt>
<rscale>  0 0.78109486E+03</rscale>
<asrwt>0</asrwt>
<pdfrwt beam="1">  1        2 0.16417471E+00 0.78109486E+03</pdfrwt>
<pdfrwt beam="2">  1       -2 0.10859637E+00 0.78109486E+03</pdfrwt>
<totfact> 0.15695707E+01</totfact>
</mgrwt>
</event>
<event>
 4    1  0.2061941E-008  0.4364049E+03  0.7818608E-02  0.1031856E+00
          2   -1    0    0  501    0  0.00000000000E+00  0.00000000000E+00  0.27072473055E+04  0.27072473055E+04  0.25500000000E-02 0. -1.
         -2   -1    0    0    0  501 -0.00000000000E+00 -0.00000000000E+00 -0.19546517105E+03  0.19546517107E+03  0.25500000000E-02 0.  1.
    8880022    1    1    2    0    0  0.22041014883E+03  0.34420486988E+03  0.94715500067E+02  0.44656500660E+03  0.15294330000E+03 0.  0.
    8880022    1    1    2    0    0 -0.22041014883E+03 -0.34420486988E+03  0.24170666344E+04  0.24561474699E+04  0.15294330000E+03 0.  0.
<mgrwt>
<rscale>  0 0.43640495E+03</rscale>
<asrwt>0</asrwt>
<pdfrwt beam="1">  1        2 0.41649958E+00 0.43640495E+03</pdfrwt>
<pdfrwt beam="2">  1       -2 0.30071565E-01 0.43640495E+03</pdfrwt>
<totfact> 0.29950621E+01</totfact>
</mgrwt>
</event>
<event>
 4    1  0.2061941E-008  0.1028906E+04  0.7818608E-02  0.9277397E-01
         -2   -1    0    0    0  501 -0.00000000000E+00  0.00000000000E+00  0.17533153509E+04  0.17533153509E+04  0.25500000000E-02 0.  1.
          2   -1    0    0  501    0  0.00000000000E+00 -0.00000000000E+00 -0.94058943834E+03  0.94058943834E+03  0.25500000000E-02 0. -1.
    8880022    1    1    2    0    0 -0.98922548326E+03 -0.23809478868E+03 -0.39963304984E+03  0.11037909280E+04  0.15294330000E+03 0.  0.
    8880022    1    1    2    0    0  0.98922548326E+03  0.23809478868E+03  0.12123589624E+04  0.15901138613E+04  0.15294330000E+03 0.  0.
<mgrwt>
<rscale>  0 0.10289061E+04</rscale>
<asrwt>0</asrwt>
<pdfrwt beam="1">  1        2 0.14470607E+00 0.10289061E+04</pdfrwt>
<pdfrwt beam="2">  1       -2 0.26974082E+00 0.10289061E+04</pdfrwt>
<totfact> 0.13341304E+00</totfact>
</mgrwt>
</event>
<event>
 4    1  0.2061941E-008  0.4417238E+03  0.7818608E-02  0.1030219E+00
         -2   -1    0    0    0  501 -0.00000000000E+00  0.00000000000E+00  0.42778379613E+03  0.42778379613E+03  0.25500000000E-02 0.  1.
          2   -1    0    0  501    0  0.00000000000E+00 -0.00000000000E+00 -0.51772514471E+03  0.51772514471E+03  0.25500000000E-02 0. -1.
    8880022    1    1    2    0    0  0.28141607331E+03  0.30419284536E+03 -0.20805081831E+03  0.48826743645E+03  0.15294330000E+03 0.  0.
    8880022    1    1    2    0    0 -0.28141607331E+03 -0.30419284536E+03  0.11810946973E+03  0.45724150439E+03  0.15294330000E+03 0.  0.
<mgrwt>
<rscale>  0 0.44172384E+03</rscale>
<asrwt>0</asrwt>
<pdfrwt beam="1">  1        2 0.79650023E-01 0.44172384E+03</pdfrwt>
<pdfrwt beam="2">  1       -2 0.65812891E-01 0.44172384E+03</pdfrwt>
<totfact> 0.12945851E+02</totfact>
</mgrwt>
</event>
<event>
 4    1  0.2061941E-008  0.1199171E+04  0.7818608E-02  0.9113582E-01
          2   -1    0    0  501    0  0.00000000000E+00  0.00000000000E+00  0.18569040979E+04  0.18569040979E+04  0.25500000000E-02 0. -1.
         -2   -1    0    0    0  501 -0.00000000000E+00 -0.00000000000E+00 -0.15757935060E+04  0.15757935060E+04  0.25500000000E-02 0.  1.
    8880022    1    1    2    0    0  0.37621650099E+03 -0.11283088355E+04 -0.10834271465E+04  0.16161143891E+04  0.15294330000E+03 0.  0.
    8880022    1    1    2    0    0 -0.37621650099E+03  0.11283088355E+04  0.13645377383E+04  0.18165832148E+04  0.15294330000E+03 0.  0.
<mgrwt>
<rscale>  0 0.11991711E+04</rscale>
<asrwt>0</asrwt>
<pdfrwt beam="1">  1        2 0.28567755E+00 0.11991711E+04</pdfrwt>
<pdfrwt beam="2">  1       -2 0.24242977E+00 0.11991711E+04</pdfrwt>
<totfact> 0.55801534E-01</totfact>
</mgrwt>
</event>
<event>
 4    1  0.2061941E-008  0.3261344E+03  0.7818608E-02  0.1072860E+00
          2   -1    0    0  501    0  0.00000000000E+00  0.00000000000E+00  0.68680226564E+03  0.68680226565E+03  0.25500000000E-02 0. -1.
         -2   -1    0    0    0  501 -0.00000000000E+00 -0.00000000000E+00 -0.23193071511E+03  0.23193071513E+03  0.25500000000E-02 0.  1.
    8880022    1    1    2    0    0 -0.27595316022E+03  0.82594508546E+02  0.49222633537E+03  0.59046627146E+03  0.15294330000E+03 0.  0.
    8880022    1    1    2    0    0  0.27595316022E+03 -0.82594508546E+02 -0.37354784845E+02  0.32826670932E+03  0.15294330000E+03 0.  0.
<mgrwt>
<rscale>  0 0.32613441E+03</rscale>
<asrwt>0</asrwt>
<pdfrwt beam="1">  1        2 0.10566189E+00 0.32613441E+03</pdfrwt>
<pdfrwt beam="2">  1       -2 0.35681649E-01 0.32613441E+03</pdfrwt>
<totfact> 0.31908174E+02</totfact>
</mgrwt>
</event>
<event>
 4    1  0.2061941E-008  0.4484754E+03  0.7818608E-02  0.1028178E+00
          2   -1    0    0  501    0  0.00000000000E+00  0.00000000000E+00  0.19629840858E+04  0.19629840858E+04  0.25500000000E-02 0. -1.
         -2   -1    0    0    0  501 -0.00000000000E+00 -0.00000000000E+00 -0.12657117790E+04  0.12657117790E+04  0.25500000000E-02 0.  1.
    8880022    1    1    2    0    0 -0.34868866005E+03  0.23696991009E+03  0.18962632506E+04  0.19485749892E+04  0.15294330000E+03 0.  0.
    8880022    1    1    2    0    0  0.34868866005E+03 -0.23696991009E+03 -0.11989909438E+04  0.12801208756E+04  0.15294330000E+03 0.  0.
<mgrwt>
<rscale>  0 0.44847539E+03</rscale>
<asrwt>0</asrwt>
<pdfrwt beam="1">  1        2 0.30199755E+00 0.44847539E+03</pdfrwt>
<pdfrwt beam="2">  1       -2 0.19472489E+00 0.44847539E+03</pdfrwt>
<totfact> 0.11390667E+00</totfact>
</mgrwt>
</event>
<event>
 4    1  0.2061941E-008  0.8659648E+03  0.7818608E-02  0.9469157E-01
          2   -1    0    0  501    0  0.00000000000E+00  0.00000000000E+00  0.22098118970E+04  0.22098118970E+04  0.25500000000E-02 0. -1.
         -2   -1    0    0    0  501 -0.00000000000E+00 -0.00000000000E+00 -0.61992970583E+03  0.61992970583E+03  0.25500000000E-02 0.  1.
    8880022    1    1    2    0    0  0.80041168150E+03 -0.29299223621E+03 -0.15692385512E+03  0.88006821308E+03  0.15294330000E+03 0.  0.
    8880022    1    1    2    0    0 -0.80041168150E+03  0.29299223621E+03  0.17468060463E+04  0.19496733898E+04  0.15294330000E+03 0.  0.
<mgrwt>
<rscale>  0 0.86596476E+03</rscale>
<asrwt>0</asrwt>
<pdfrwt beam="1">  1        2 0.33997106E+00 0.86596476E+03</pdfrwt>
<pdfrwt beam="2">  1       -2 0.95373800E-01 0.86596476E+03</pdfrwt>
<totfact> 0.48140102E+00</totfact>
</mgrwt>
</event>
<event>
 4    1  0.2061941E-008  0.4768918E+03  0.7818608E-02  0.1019993E+00
          2   -1    0    0  501    0  0.00000000000E+00  0.00000000000E+00  0.10722462153E+04  0.10722462153E+04  0.25500000000E-02 0. -1.
         -2   -1    0    0    0  501 -0.00000000000E+00 -0.00000000000E+00 -0.67172979396E+03  0.67172979396E+03  0.25500000000E-02 0.  1.
    8880022    1    1    2    0    0 -0.17389971737E+03  0.41688490725E+03 -0.52104231340E+03  0.70633623931E+03  0.15294330000E+03 0.  0.
    8880022    1    1    2    0    0  0.17389971737E+03 -0.41688490725E+03  0.92155873472E+03  0.10376397699E+04  0.15294330000E+03 0.  0.
<mgrwt>
<rscale>  0 0.47689180E+03</rscale>
<asrwt>0</asrwt>
<pdfrwt beam="1">  1        2 0.16496095E+00 0.47689180E+03</pdfrwt>
<pdfrwt beam="2">  1       -2 0.10334305E+00 0.47689180E+03</pdfrwt>
<totfact> 0.18286790E+01</totfact>
</mgrwt>
</event>
<event>
 4    1  0.2061941E-008  0.1023728E+04  0.7818608E-02  0.9282896E-01
         -2   -1    0    0    0  501 -0.00000000000E+00  0.00000000000E+00  0.31435644491E+03  0.31435644492E+03  0.25500000000E-02 0.  1.
          2   -1    0    0  501    0  0.00000000000E+00 -0.00000000000E+00 -0.40014058163E+04  0.40014058163E+04  0.25500000000E-02 0. -1.
    8880022    1    1    2    0    0  0.98413708204E+03 -0.23685906388E+03 -0.96214610136E+03  0.14049002761E+04  0.15294330000E+03 0.  0.
    8880022    1    1    2    0    0 -0.98413708204E+03  0.23685906388E+03 -0.27249032700E+04  0.29108619851E+04  0.15294330000E+03 0.  0.
<mgrwt>
<rscale>  0 0.10237283E+04</rscale>
<asrwt>0</asrwt>
<pdfrwt beam="1">  1        2 0.61560086E+00 0.10237283E+04</pdfrwt>
<pdfrwt beam="2">  1       -2 0.48362533E-01 0.10237283E+04</pdfrwt>
<totfact> 0.14516051E+00</totfact>
</mgrwt>
</event>
<event>
 4    1  0.2061941E-008  0.4037649E+03  0.7818608E-02  0.1042484E+00
          2   -1    0    0  501    0  0.00000000000E+00  0.00000000000E+00  0.18401692138E+04  0.18401692138E+04  0.25500000000E-02 0. -1.
         -2   -1    0    0    0  501 -0.00000000000E+00 -0.00000000000E+00 -0.28718222592E+03  0.28718222593E+03  0.25500000000E-02 0.  1.
    8880022    1    1    2    0    0 -0.33568957266E+03  0.16415525277E+03  0.16610148473E+04  0.17093848052E+04  0.15294330000E+03 0.  0.
    8880022    1    1    2    0    0  0.33568957266E+03 -0.16415525277E+03 -0.10802785939E+03  0.41796663459E+03  0.15294330000E+03 0.  1.
<mgrwt>
<rscale>  0 0.40376489E+03</rscale>
<asrwt>0</asrwt>
<pdfrwt beam="1">  1        2 0.28310296E+00 0.40376489E+03</pdfrwt>
<pdfrwt beam="2">  1       -2 0.44181880E-01 0.40376489E+03</pdfrwt>
<totfact> 0.43292437E+01</totfact>
</mgrwt>
</event>
<event>
 4    1  0.2061941E-008  0.7913854E+03  0.7818608E-02  0.9572571E-01
          2   -1    0    0  501    0  0.00000000000E+00  0.00000000000E+00  0.10042950264E+04  0.10042950264E+04  0.25500000000E-02 0. -1.
         -2   -1    0    0    0  501 -0.00000000000E+00 -0.00000000000E+00 -0.18381060818E+04  0.18381060818E+04  0.25500000000E-02 0.  1.
    8880022    1    1    2    0    0 -0.76962649891E+03 -0.10283141802E+03  0.73832245368E+03  0.10823173966E+04  0.15294330000E+03 0.  0.
    8880022    1    1    2    0    0  0.76962649891E+03  0.10283141802E+03 -0.15721335091E+04  0.17600837116E+04  0.15294330000E+03 0.  0.
<mgrwt>
<rscale>  0 0.79138543E+03</rscale>
<asrwt>0</asrwt>
<pdfrwt beam="1">  1        2 0.15450693E+00 0.79138543E+03</pdfrwt>
<pdfrwt beam="2">  1       -2 0.28278555E+00 0.79138543E+03</pdfrwt>
<totfact> 0.10483414E+00</totfact>
</mgrwt>
</event>
<event>
 4    1  0.2061941E-008  0.1016874E+04  0.7818608E-02  0.9290229E-01
         -2   -1    0    0    0  501 -0.00000000000E+00  0.00000000000E+00  0.10082470146E+04  0.10082470146E+04  0.25500000000E-02 0.  1.
          2   -1    0    0  501    0  0.00000000000E+00 -0.00000000000E+00 -0.10991840419E+04  0.10991840419E+04  0.25500000000E-02 0. -1.
    8880022    1    1    2    0    0  0.90015848602E+03  0.44761152389E+03 -0.31814863007E+03  0.10654818535E+04  0.15294330000E+03 0.  0.
    8880022    1    1    2    0    0 -0.90015848602E+03 -0.44761152389E+03  0.22721160269E+03  0.10419492030E+04  0.15294330000E+03 0.  0.
<mgrwt>
<rscale>  0 0.10168741E+04</rscale>
<asrwt>0</asrwt>
<pdfrwt beam="1">  1        2 0.16910524E+00 0.10168741E+04</pdfrwt>
<pdfrwt beam="2">  1       -2 0.15511493E+00 0.10168741E+04</pdfrwt>
<totfact> 0.59130885E+00</totfact>
</mgrwt>
</event>
<event>
 4    1  0.2061941E-008  0.6863897E+03  0.7818608E-02  0.9740795E-01
         -2   -1    0    0    0  501 -0.00000000000E+00  0.00000000000E+00  0.70236051009E+03  0.70236051009E+03  0.25500000000E-02 0.  1.
          2   -1    0    0  501    0  0.00000000000E+00 -0.00000000000E+00 -0.16149283888E+04  0.16149283888E+04  0.25500000000E-02 0. -1.
    8880022    1    1    2    0    0 -0.16993273310E+03 -0.64719550734E+03 -0.13422012980E+04  0.15075261642E+04  0.15294330000E+03 0.  0.
    8880022    1    1    2    0    0  0.16993273310E+03  0.64719550734E+03  0.42963341926E+03  0.80976273467E+03  0.15294330000E+03 0.  0.
<mgrwt>
<rscale>  0 0.68638969E+03</rscale>
<asrwt>0</asrwt>
<pdfrwt beam="1">  1        2 0.24845052E+00 0.68638969E+03</pdfrwt>
<pdfrwt beam="2">  1       -2 0.10805546E+00 0.68638969E+03</pdfrwt>
<totfact> 0.77828058E+00</totfact>
</mgrwt>
</event>
<event>
 4    1  0.2061941E-008  0.1237370E+04  0.7818608E-02  0.9080761E-01
          2   -1    0    0  501    0  0.00000000000E+00  0.00000000000E+00  0.21599474971E+04  0.21599474971E+04  0.25500000000E-02 0. -1.
         -2   -1    0    0    0  501 -0.00000000000E+00 -0.00000000000E+00 -0.10095515268E+04  0.10095515268E+04  0.25500000000E-02 0.  1.
    8880022    1    1    2    0    0 -0.32773303446E+03  0.11833363848E+04  0.14400900670E+04  0.18986692697E+04  0.15294330000E+03 0.  0.
    8880022    1    1    2    0    0  0.32773303446E+03 -0.11833363848E+04 -0.28969409673E+03  0.12708297542E+04  0.15294330000E+03 0.  0.
<mgrwt>
<rscale>  0 0.12373704E+04</rscale>
<asrwt>0</asrwt>
<pdfrwt beam="1">  1        2 0.33229961E+00 0.12373704E+04</pdfrwt>
<pdfrwt beam="2">  1       -2 0.15531562E+00 0.12373704E+04</pdfrwt>
<totfact> 0.14399652E+00</totfact>
</mgrwt>
</event>
<event>
 4    1  0.2061941E-008  0.5262816E+03  0.7818608E-02  0.1007138E+00
         -2   -1    0    0    0  501 -0.00000000000E+00  0.00000000000E+00  0.10478197626E+04  0.10478197626E+04  0.25500000000E-02 0.  1.
          2   -1    0    0  501    0  0.00000000000E+00 -0.00000000000E+00 -0.14054067529E+04  0.14054067529E+04  0.25500000000E-02 0. -1.
    8880022    1    1    2    0    0 -0.35291207349E+03  0.35921262240E+03 -0.12840515402E+04  0.13877177849E+04  0.15294330000E+03 0.  0.
    8880022    1    1    2    0    0  0.35291207349E+03 -0.35921262240E+03  0.92646454986E+03  0.10655087305E+04  0.15294330000E+03 0.  0.
<mgrwt>
<rscale>  0 0.52628157E+03</rscale>
<asrwt>0</asrwt>
<pdfrwt beam="1">  1        2 0.21621642E+00 0.52628157E+03</pdfrwt>
<pdfrwt beam="2">  1       -2 0.16120304E+00 0.52628157E+03</pdfrwt>
<totfact> 0.37922618E+00</totfact>
</mgrwt>
</event>
<event>
 4    1  0.3988048E-008  0.1267833E+04  0.7818608E-02  0.9055470E-01
          2   -1    0    0  501    0  0.00000000000E+00  0.00000000000E+00  0.19073890429E+04  0.19073890429E+04  0.25500000000E-02 0. -1.
         -2   -1    0    0    0  501 -0.00000000000E+00 -0.00000000000E+00 -0.20704836444E+04  0.20704836444E+04  0.25500000000E-02 0.  1.
    8880022    1    1    2    0    0  0.12543862249E+04  0.10258351115E+03 -0.16131351365E+04  0.20517321461E+04  0.15294330000E+03 0.  0.
    8880022    1    1    2    0    0 -0.12543862249E+04 -0.10258351115E+03  0.14500405350E+04  0.19261405411E+04  0.15294330000E+03 0.  0.
<mgrwt>
<rscale>  0 0.12678327E+04</rscale>
<asrwt>0</asrwt>
<pdfrwt beam="1">  1        2 0.29344447E+00 0.12678327E+04</pdfrwt>
<pdfrwt beam="2">  1       -2 0.31853594E+00 0.12678327E+04</pdfrwt>
<totfact> 0.17804210E-01</totfact>
</mgrwt>
</event>
<event>
 4    1  0.2061941E-008  0.7235132E+03  0.7818608E-02  0.9677845E-01
         -2   -1    0    0    0  501 -0.00000000000E+00  0.00000000000E+00  0.45803304591E+03  0.45803304592E+03  0.25500000000E-02 0.  1.
          2   -1    0    0  501    0  0.00000000000E+00 -0.00000000000E+00 -0.17450359145E+04  0.17450359146E+04  0.25500000000E-02 0. -1.
    8880022    1    1    2    0    0 -0.40950387523E+03 -0.57652951011E+03 -0.12905765280E+04  0.14795469332E+04  0.15294330000E+03 0.  0.
    8880022    1    1    2    0    0  0.40950387523E+03  0.57652951011E+03  0.35736594034E+01  0.72352202725E+03  0.15294330000E+03 0.  0.
<mgrwt>
<rscale>  0 0.72351320E+03</rscale>
<asrwt>0</asrwt>
<pdfrwt beam="1">  1        2 0.26846706E+00 0.72351320E+03</pdfrwt>
<pdfrwt beam="2">  1       -2 0.70466623E-01 0.72351320E+03</pdfrwt>
<totfact> 0.17512375E+01</totfact>
</mgrwt>
</event>
<event>
 4    1  0.2061941E-008  0.1269217E+04  0.7818608E-02  0.9054339E-01
          2   -1    0    0  501    0  0.00000000000E+00  0.00000000000E+00  0.22893638003E+04  0.22893638003E+04  0.25500000000E-02 0. -1.
         -2   -1    0    0    0  501 -0.00000000000E+00 -0.00000000000E+00 -0.13841676924E+04  0.13841676924E+04  0.25500000000E-02 0.  1.
    8880022    1    1    2    0    0 -0.17833019570E+03  0.12472848382E+04  0.17404883097E+04  0.21541152095E+04  0.15294330000E+03 0.  0.
    8880022    1    1    2    0    0  0.17833019570E+03 -0.12472848382E+04 -0.83529220180E+03  0.15194162833E+04  0.15294330000E+03 0.  0.
<mgrwt>
<rscale>  0 0.12692174E+04</rscale>
<asrwt>0</asrwt>
<pdfrwt beam="1">  1        2 0.35220981E+00 0.12692174E+04</pdfrwt>
<pdfrwt beam="2">  1       -2 0.21294888E+00 0.12692174E+04</pdfrwt>
<totfact> 0.48607014E-01</totfact>
</mgrwt>
</event>
<event>
 4    1  0.2061941E-008  0.7942312E+03  0.7818608E-02  0.9568405E-01
         -2   -1    0    0    0  501 -0.00000000000E+00  0.00000000000E+00  0.34290106936E+03  0.34290106937E+03  0.25500000000E-02 0.  1.
          2   -1    0    0  501    0  0.00000000000E+00 -0.00000000000E+00 -0.27442880164E+04  0.27442880164E+04  0.25500000000E-02 0. -1.
    8880022    1    1    2    0    0  0.74849187383E+03 -0.21718987724E+03 -0.20869636743E+04  0.22329846750E+04  0.15294330000E+03 0.  0.
    8880022    1    1    2    0    0 -0.74849187383E+03  0.21718987724E+03 -0.31442327280E+03  0.85420441082E+03  0.15294330000E+03 0.  0.
<mgrwt>
<rscale>  0 0.79423119E+03</rscale>
<asrwt>0</asrwt>
<pdfrwt beam="1">  1        2 0.42219814E+00 0.79423119E+03</pdfrwt>
<pdfrwt beam="2">  1       -2 0.52754012E-01 0.79423119E+03</pdfrwt>
<totfact> 0.88758786E+00</totfact>
</mgrwt>
</event>
<event>
 4    1  0.2061941E-008  0.9402837E+03  0.7818608E-02  0.9376580E-01
          2   -1    0    0  501    0  0.00000000000E+00  0.00000000000E+00  0.20805302667E+04  0.20805302667E+04  0.25500000000E-02 0. -1.
         -2   -1    0    0    0  501 -0.00000000000E+00 -0.00000000000E+00 -0.70665813292E+03  0.70665813293E+03  0.25500000000E-02 0.  1.
    8880022    1    1    2    0    0  0.41063788802E+03  0.83193648214E+03 -0.19295084625E+03  0.95987679807E+03  0.15294330000E+03 0.  0.
    8880022    1    1    2    0    0 -0.41063788802E+03 -0.83193648214E+03  0.15668229800E+04  0.18273116015E+04  0.15294330000E+03 0.  0.
<mgrwt>
<rscale>  0 0.94028370E+03</rscale>
<asrwt>0</asrwt>
<pdfrwt beam="1">  1        2 0.32008158E+00 0.94028370E+03</pdfrwt>
<pdfrwt beam="2">  1       -2 0.10871664E+00 0.94028370E+03</pdfrwt>
<totfact> 0.41084253E+00</totfact>
</mgrwt>
</event>
<event>
 4    1  0.2061941E-008  0.6911108E+03  0.7818608E-02  0.9732556E-01
         -2   -1    0    0    0  501 -0.00000000000E+00  0.00000000000E+00  0.31252948973E+03  0.31252948974E+03  0.25500000000E-02 0.  1.
          2   -1    0    0  501    0  0.00000000000E+00 -0.00000000000E+00 -0.18040149578E+04  0.18040149578E+04  0.25500000000E-02 0. -1.
    8880022    1    1    2    0    0  0.33394856468E+03 -0.58542366154E+03 -0.11594748498E+04  0.13498207613E+04  0.15294330000E+03 0.  0.
    8880022    1    1    2    0    0 -0.33394856468E+03  0.58542366154E+03 -0.33201061825E+03  0.76672368621E+03  0.15294330000E+03 0.  0.
<mgrwt>
<rscale>  0 0.69111082E+03</rscale>
<asrwt>0</asrwt>
<pdfrwt beam="1">  1        2 0.27754076E+00 0.69111082E+03</pdfrwt>
<pdfrwt beam="2">  1       -2 0.48081461E-01 0.69111082E+03</pdfrwt>
<totfact> 0.36433070E+01</totfact>
</mgrwt>
</event>
<event>
 4    1  0.2061941E-008  0.1515022E+04  0.7818608E-02  0.8874525E-01
         -2   -1    0    0    0  501 -0.00000000000E+00  0.00000000000E+00  0.11481808046E+04  0.11481808046E+04  0.25500000000E-02 0.  1.
          2   -1    0    0  501    0  0.00000000000E+00 -0.00000000000E+00 -0.24992090823E+04  0.24992090823E+04  0.25500000000E-02 0. -1.
    8880022    1    1    2    0    0  0.11895815924E+04 -0.92563192879E+03 -0.14913401518E+04  0.21258847415E+04  0.15294330000E+03 0.  0.
    8880022    1    1    2    0    0 -0.11895815924E+04  0.92563192879E+03  0.14031187410E+03  0.15215051454E+04  0.15294330000E+03 0.  0.
<mgrwt>
<rscale>  0 0.15150216E+04</rscale>
<asrwt>0</asrwt>
<pdfrwt beam="1">  1        2 0.38449370E+00 0.15150216E+04</pdfrwt>
<pdfrwt beam="2">  1       -2 0.17664320E+00 0.15150216E+04</pdfrwt>
<totfact> 0.62684867E-01</totfact>
</mgrwt>
</event>
<event>
 4    1  0.2061941E-008  0.4856818E+03  0.7818608E-02  0.1017585E+00
          2   -1    0    0  501    0  0.00000000000E+00  0.00000000000E+00  0.91937584126E+03  0.91937584126E+03  0.25500000000E-02 0. -1.
         -2   -1    0    0    0  501 -0.00000000000E+00 -0.00000000000E+00 -0.15214674552E+04  0.15214674552E+04  0.25500000000E-02 0.  1.
    8880022    1    1    2    0    0 -0.22888813509E+02  0.46040340208E+03  0.81172505762E+03  0.94593044809E+03  0.15294330000E+03 0. -1.
    8880022    1    1    2    0    0  0.22888813509E+02 -0.46040340208E+03 -0.14138166716E+04  0.14949128484E+04  0.15294330000E+03 0.  0.
<mgrwt>
<rscale>  0 0.48568183E+03</rscale>
<asrwt>0</asrwt>
<pdfrwt beam="1">  1        2 0.14144244E+00 0.48568183E+03</pdfrwt>
<pdfrwt beam="2">  1       -2 0.23407192E+00 0.48568183E+03</pdfrwt>
<totfact> 0.24882310E+00</totfact>
</mgrwt>
</event>
<event>
 4    1  0.2061941E-008  0.6904699E+03  0.7818608E-02  0.9733670E-01
         -2   -1    0    0    0  501 -0.00000000000E+00  0.00000000000E+00  0.21748613986E+03  0.21748613988E+03  0.25500000000E-02 0.  1.
          2   -1    0    0  501    0  0.00000000000E+00 -0.00000000000E+00 -0.32663838754E+04  0.32663838754E+04  0.25500000000E-02 0. -1.
    8880022    1    1    2    0    0 -0.66264246175E+03  0.11942363069E+03 -0.25234370571E+04  0.26161963363E+04  0.15294330000E+03 0.  0.
    8880022    1    1    2    0    0  0.66264246175E+03 -0.11942363069E+03 -0.52546067845E+03  0.86767367904E+03  0.15294330000E+03 0.  0.
<mgrwt>
<rscale>  0 0.69046990E+03</rscale>
<asrwt>0</asrwt>
<pdfrwt beam="1">  1        2 0.50252056E+00 0.69046990E+03</pdfrwt>
<pdfrwt beam="2">  1       -2 0.33459408E-01 0.69046990E+03</pdfrwt>
<totfact> 0.10608931E+01</totfact>
</mgrwt>
</event>
<event>
 4    1  0.2061941E-008  0.1158198E+04  0.7818608E-02  0.9150253E-01
         -2   -1    0    0    0  501 -0.00000000000E+00  0.00000000000E+00  0.11381477693E+04  0.11381477693E+04  0.25500000000E-02 0.  1.
          2   -1    0    0  501    0  0.00000000000E+00 -0.00000000000E+00 -0.23135233812E+04  0.23135233812E+04  0.25500000000E-02 0. -1.
    8880022    1    1    2    0    0  0.99592702030E+03 -0.57110490967E+03  0.62108695229E+03  0.13142191990E+04  0.15294330000E+03 0.  0.
    8880022    1    1    2    0    0 -0.99592702030E+03  0.57110490967E+03 -0.17964625642E+04  0.21374519516E+04  0.15294330000E+03 0.  0.
<mgrwt>
<rscale>  0 0.11581982E+04</rscale>
<asrwt>0</asrwt>
<pdfrwt beam="1">  1        2 0.35592667E+00 0.11581982E+04</pdfrwt>
<pdfrwt beam="2">  1       -2 0.17509966E+00 0.11581982E+04</pdfrwt>
<totfact> 0.85599534E-01</totfact>
</mgrwt>
</event>
<event>
 4    1  0.2061941E-008  0.1387333E+04  0.7818608E-02  0.8963039E-01
          2   -1    0    0  501    0  0.00000000000E+00  0.00000000000E+00  0.12396517673E+04  0.12396517673E+04  0.25500000000E-02 0. -1.
         -2   -1    0    0    0  501 -0.00000000000E+00 -0.00000000000E+00 -0.19620837540E+04  0.19620837540E+04  0.25500000000E-02 0.  1.
    8880022    1    1    2    0    0  0.35034307879E+03 -0.13336270225E+04  0.37010982784E+03  0.14358531421E+04  0.15294330000E+03 0.  0.
    8880022    1    1    2    0    0 -0.35034307879E+03  0.13336270225E+04 -0.10925418145E+04  0.17658823793E+04  0.15294330000E+03 0.  0.
<mgrwt>
<rscale>  0 0.13873330E+04</rscale>
<asrwt>0</asrwt>
<pdfrwt beam="1">  1        2 0.19071566E+00 0.13873330E+04</pdfrwt>
<pdfrwt beam="2">  1       -2 0.30185904E+00 0.13873330E+04</pdfrwt>
<totfact> 0.53056619E-01</totfact>
</mgrwt>
</event>
<event>
 4    1  0.2061941E-008  0.1186532E+04  0.7818608E-02  0.9124727E-01
         -2   -1    0    0    0  501 -0.00000000000E+00  0.00000000000E+00  0.44785257050E+03  0.44785257051E+03  0.25500000000E-02 0.  1.
          2   -1    0    0  501    0  0.00000000000E+00 -0.00000000000E+00 -0.39589355582E+04  0.39589355582E+04  0.25500000000E-02 0. -1.
    8880022    1    1    2    0    0  0.51013422319E+03 -0.10602971838E+04 -0.27554896411E+04  0.30000969750E+04  0.15294330000E+03 0.  0.
    8880022    1    1    2    0    0 -0.51013422319E+03  0.10602971838E+04 -0.75559334661E+03  0.14066911538E+04  0.15294330000E+03 0.  0.
<mgrwt>
<rscale>  0 0.11865322E+04</rscale>
<asrwt>0</asrwt>
<pdfrwt beam="1">  1        2 0.60906699E+00 0.11865322E+04</pdfrwt>
<pdfrwt beam="2">  1       -2 0.68900398E-01 0.11865322E+04</pdfrwt>
<totfact> 0.72410979E-01</totfact>
</mgrwt>
</event>
<event>
 4    1  0.2061941E-008  0.3332371E+03  0.7818608E-02  0.1069713E+00
         -2   -1    0    0    0  501 -0.00000000000E+00  0.00000000000E+00  0.88039400450E+03  0.88039400451E+03  0.25500000000E-02 0.  1.
          2   -1    0    0  501    0  0.00000000000E+00 -0.00000000000E+00 -0.39784691033E+03  0.39784691034E+03  0.25500000000E-02 0. -1.
    8880022    1    1    2    0    0 -0.18535595876E+01 -0.29606055258E+03 -0.28690465826E+03  0.43972857813E+03  0.15294330000E+03 0.  0.
    8880022    1    1    2    0    0  0.18535595876E+01  0.29606055258E+03  0.76945175244E+03  0.83851233671E+03  0.15294330000E+03 0.  1.
<mgrwt>
<rscale>  0 0.33323706E+03</rscale>
<asrwt>0</asrwt>
<pdfrwt beam="1">  1        2 0.61207217E-01 0.33323706E+03</pdfrwt>
<pdfrwt beam="2">  1       -2 0.13544523E+00 0.33323706E+03</pdfrwt>
<totfact> 0.33075801E+01</totfact>
</mgrwt>
</event>
<event>
 4    1  0.2061941E-008  0.4239364E+03  0.7818608E-02  0.1035793E+00
          2   -1    0    0  501    0  0.00000000000E+00  0.00000000000E+00  0.30590312076E+04  0.30590312076E+04  0.25500000000E-02 0. -1.
         -2   -1    0    0    0  501 -0.00000000000E+00 -0.00000000000E+00 -0.20015645912E+03  0.20015645913E+03  0.25500000000E-02 0.  1.
    8880022    1    1    2    0    0  0.31467057325E+03 -0.23940108241E+03  0.59731952736E+02  0.42812382218E+03  0.15294330000E+03 0.  0.
    8880022    1    1    2    0    0 -0.31467057325E+03  0.23940108241E+03  0.27991427958E+04  0.28310638446E+04  0.15294330000E+03 0.  0.
<mgrwt>
<rscale>  0 0.42393644E+03</rscale>
<asrwt>0</asrwt>
<pdfrwt beam="1">  1        2 0.47062018E+00 0.42393644E+03</pdfrwt>
<pdfrwt beam="2">  1       -2 0.30793302E-01 0.42393644E+03</pdfrwt>
<totfact> 0.17845561E+01</totfact>
</mgrwt>
</event>
<event>
 4    1  0.2061941E-008  0.1021282E+04  0.7818608E-02  0.9285507E-01
         -2   -1    0    0    0  501 -0.00000000000E+00  0.00000000000E+00  0.34158379373E+04  0.34158379373E+04  0.25500000000E-02 0.  1.
          2   -1    0    0  501    0  0.00000000000E+00 -0.00000000000E+00 -0.15084007511E+04  0.15084007511E+04  0.25500000000E-02 0. -1.
    8880022    1    1    2    0    0 -0.68793450757E+03  0.73916889614E+03 -0.12451193809E+04  0.16103845719E+04  0.15294330000E+03 0.  0.
    8880022    1    1    2    0    0  0.68793450757E+03 -0.73916889614E+03  0.31525565671E+04  0.33138541165E+04  0.15294330000E+03 0.  0.
<mgrwt>
<rscale>  0 0.10212816E+04</rscale>
<asrwt>0</asrwt>
<pdfrwt beam="1">  1        2 0.23206165E+00 0.10212816E+04</pdfrwt>
<pdfrwt beam="2">  1       -2 0.52551353E+00 0.10212816E+04</pdfrwt>
<totfact> 0.14556639E-02</totfact>
</mgrwt>
</event>
<event>
 4    1  0.2061941E-008  0.1559237E+03  0.7818608E-02  0.1193377E+00
          2   -1    0    0  501    0  0.00000000000E+00  0.00000000000E+00  0.14558182443E+04  0.14558182443E+04  0.25500000000E-02 0. -1.
         -2   -1    0    0    0  501 -0.00000000000E+00 -0.00000000000E+00 -0.29704826259E+02  0.29704826369E+02  0.25500000000E-02 0.  1.
    8880022    1    1    2    0    0  0.19163021849E+02 -0.23523201691E+02  0.12045160484E+04  0.12145662297E+04  0.15294330000E+03 0. -1.
    8880022    1    1    2    0    0 -0.19163021849E+02  0.23523201691E+02  0.22159736958E+03  0.27095684092E+03  0.15294330000E+03 0.  0.
<mgrwt>
<rscale>  0 0.15592375E+03</rscale>
<asrwt>0</asrwt>
<pdfrwt beam="1">  1        2 0.22397206E+00 0.15592375E+03</pdfrwt>
<pdfrwt beam="2">  1       -2 0.45699728E-02 0.15592375E+03</pdfrwt>
<totfact> 0.32203691E+03</totfact>
</mgrwt>
</event>
<event>
 4    1  0.2378184E-008  0.1766829E+04  0.7818608E-02  0.8724141E-01
          2   -1    0    0  501    0  0.00000000000E+00  0.00000000000E+00  0.33652012268E+04  0.33652012268E+04  0.25500000000E-02 0. -1.
         -2   -1    0    0    0  501 -0.00000000000E+00 -0.00000000000E+00 -0.18626866618E+04  0.18626866618E+04  0.25500000000E-02 0.  1.
    8880022    1    1    2    0    0 -0.15948053015E+04 -0.74490860781E+03 -0.11007545496E+04  0.20816688053E+04  0.15294330000E+03 0.  0.
    8880022    1    1    2    0    0  0.15948053015E+04  0.74490860781E+03  0.26032691146E+04  0.31462190832E+04  0.15294330000E+03 0.  0.
<mgrwt>
<rscale>  0 0.17668289E+04</rscale>
<asrwt>0</asrwt>
<pdfrwt beam="1">  1        2 0.51772326E+00 0.17668289E+04</pdfrwt>
<pdfrwt beam="2">  1       -2 0.28656718E+00 0.17668289E+04</pdfrwt>
<totfact> 0.35191094E-02</totfact>
</mgrwt>
</event>
<event>
 4    1  0.2061941E-008  0.1508158E+04  0.7818608E-02  0.8879046E-01
          2   -1    0    0  501    0  0.00000000000E+00  0.00000000000E+00  0.29911844609E+04  0.29911844609E+04  0.25500000000E-02 0. -1.
         -2   -1    0    0    0  501 -0.00000000000E+00 -0.00000000000E+00 -0.87995965973E+03  0.87995965973E+03  0.25500000000E-02 0.  1.
    8880022    1    1    2    0    0 -0.13530282733E+04  0.64843128088E+03  0.17690299835E+04  0.23246520965E+04  0.15294330000E+03 0.  0.
    8880022    1    1    2    0    0  0.13530282733E+04 -0.64843128088E+03  0.34219481770E+03  0.15464920241E+04  0.15294330000E+03 0.  0.
<mgrwt>
<rscale>  0 0.15081579E+04</rscale>
<asrwt>0</asrwt>
<pdfrwt beam="1">  1        2 0.46018222E+00 0.15081579E+04</pdfrwt>
<pdfrwt beam="2">  1       -2 0.13537841E+00 0.15081579E+04</pdfrwt>
<totfact> 0.65553989E-01</totfact>
</mgrwt>
</event>
<event>
 4    1  0.2061941E-008  0.3769789E+03  0.7818608E-02  0.1052056E+00
          2   -1    0    0  501    0  0.00000000000E+00  0.00000000000E+00  0.19521236164E+04  0.19521236164E+04  0.25500000000E-02 0. -1.
         -2   -1    0    0    0  501 -0.00000000000E+00 -0.00000000000E+00 -0.38347960828E+03  0.38347960829E+03  0.25500000000E-02 0.  1.
    8880022    1    1    2    0    0 -0.34288319714E+03  0.33949198669E+02 -0.26680416511E+03  0.46184147768E+03  0.15294330000E+03 0.  0.
    8880022    1    1    2    0    0  0.34288319714E+03 -0.33949198669E+02  0.18354481732E+04  0.18737617470E+04  0.15294330000E+03 0.  0.
<mgrwt>
<rscale>  0 0.37697890E+03</rscale>
<asrwt>0</asrwt>
<pdfrwt beam="1">  1        2 0.30032672E+00 0.37697890E+03</pdfrwt>
<pdfrwt beam="2">  1       -2 0.58996861E-01 0.37697890E+03</pdfrwt>
<totfact> 0.21160843E+01</totfact>
</mgrwt>
</event>
<event>
 4    1  0.2061941E-008  0.1191603E+04  0.7818608E-02  0.9120238E-01
         -2   -1    0    0    0  501 -0.00000000000E+00  0.00000000000E+00  0.74641775983E+03  0.74641775984E+03  0.25500000000E-02 0.  1.
          2   -1    0    0  501    0  0.00000000000E+00 -0.00000000000E+00 -0.20830753900E+04  0.20830753900E+04  0.25500000000E-02 0. -1.
    8880022    1    1    2    0    0  0.11285078830E+04  0.35070800179E+03 -0.25157069149E+03  0.12178692911E+04  0.15294330000E+03 0.  0.
    8880022    1    1    2    0    0 -0.11285078830E+04 -0.35070800179E+03 -0.10850869387E+04  0.16116238587E+04  0.15294330000E+03 0.  0.
<mgrwt>
<rscale>  0 0.11916030E+04</rscale>
<asrwt>0</asrwt>
<pdfrwt beam="1">  1        2 0.32047314E+00 0.11916030E+04</pdfrwt>
<pdfrwt beam="2">  1       -2 0.11483350E+00 0.11916030E+04</pdfrwt>
<totfact> 0.34766852E+00</totfact>
</mgrwt>
</event>
<event>
 4    1  0.2061941E-008  0.7173577E+03  0.7818608E-02  0.9688000E-01
          2   -1    0    0  501    0  0.00000000000E+00  0.00000000000E+00  0.24266719614E+04  0.24266719614E+04  0.25500000000E-02 0. -1.
         -2   -1    0    0    0  501 -0.00000000000E+00 -0.00000000000E+00 -0.29038857864E+03  0.29038857865E+03  0.25500000000E-02 0.  1.
    8880022    1    1    2    0    0 -0.32412655298E+03  0.62141164732E+03  0.17737071797E+04  0.19132797156E+04  0.15294330000E+03 0.  0.
    8880022    1    1    2    0    0  0.32412655298E+03 -0.62141164732E+03  0.36257620311E+03  0.80378082451E+03  0.15294330000E+03 0.  0.
<mgrwt>
<rscale>  0 0.71735773E+03</rscale>
<asrwt>0</asrwt>
<pdfrwt beam="1">  1        2 0.37333416E+00 0.71735773E+03</pdfrwt>
<pdfrwt beam="2">  1       -2 0.44675165E-01 0.71735773E+03</pdfrwt>
<totfact> 0.19136648E+01</totfact>
</mgrwt>
</event>
<event>
 4    1  0.2061941E-008  0.5471488E+03  0.7818608E-02  0.1002156E+00
          2   -1    0    0  501    0  0.00000000000E+00  0.00000000000E+00  0.19434343191E+04  0.19434343191E+04  0.25500000000E-02 0. -1.
         -2   -1    0    0    0  501 -0.00000000000E+00 -0.00000000000E+00 -0.26255518455E+03  0.26255518456E+03  0.25500000000E-02 0.  1.
    8880022    1    1    2    0    0  0.19273806919E+03  0.48870458609E+03  0.15495323807E+04  0.16432961960E+04  0.15294330000E+03 0.  0.
    8880022    1    1    2    0    0 -0.19273806919E+03 -0.48870458609E+03  0.13134675384E+03  0.56269330771E+03  0.15294330000E+03 0.  0.
<mgrwt>
<rscale>  0 0.54714878E+03</rscale>
<asrwt>0</asrwt>
<pdfrwt beam="1">  1        2 0.29898989E+00 0.54714878E+03</pdfrwt>
<pdfrwt beam="2">  1       -2 0.40393106E-01 0.54714878E+03</pdfrwt>
<totfact> 0.44169903E+01</totfact>
</mgrwt>
</event>
<event>
 4    1  0.2061941E-008  0.9000968E+03  0.7818608E-02  0.9425460E-01
          2   -1    0    0  501    0  0.00000000000E+00  0.00000000000E+00  0.24496693413E+04  0.24496693413E+04  0.25500000000E-02 0. -1.
         -2   -1    0    0    0  501 -0.00000000000E+00 -0.00000000000E+00 -0.48638363751E+03  0.48638363752E+03  0.25500000000E-02 0.  1.
    8880022    1    1    2    0    0 -0.23262612626E+03 -0.85596012339E+03  0.15116738417E+03  0.91270251369E+03  0.15294330000E+03 0.  0.
    8880022    1    1    2    0    0  0.23262612626E+03  0.85596012339E+03  0.18121183196E+04  0.20233504651E+04  0.15294330000E+03 0.  0.
<mgrwt>
<rscale>  0 0.90009683E+03</rscale>
<asrwt>0</asrwt>
<pdfrwt beam="1">  1        2 0.37687221E+00 0.90009683E+03</pdfrwt>
<pdfrwt beam="2">  1       -2 0.74828252E-01 0.90009683E+03</pdfrwt>
<totfact> 0.61148609E+00</totfact>
</mgrwt>
</event>
<event>
 4    1  0.2061941E-008  0.7228058E+03  0.7818608E-02  0.9679007E-01
         -2   -1    0    0    0  501 -0.00000000000E+00  0.00000000000E+00  0.39361771646E+03  0.39361771647E+03  0.25500000000E-02 0.  1.
          2   -1    0    0  501    0  0.00000000000E+00 -0.00000000000E+00 -0.26242077381E+04  0.26242077381E+04  0.25500000000E-02 0. -1.
    8880022    1    1    2    0    0  0.70618292671E+03  0.19032471687E+02 -0.54528491500E+02  0.72485969012E+03  0.15294330000E+03 0.  0.
    8880022    1    1    2    0    0 -0.70618292671E+03 -0.19032471687E+02 -0.21760615301E+04  0.22929657644E+04  0.15294330000E+03 0.  0.
<mgrwt>
<rscale>  0 0.72280579E+03</rscale>
<asrwt>0</asrwt>
<pdfrwt beam="1">  1        2 0.40372426E+00 0.72280579E+03</pdfrwt>
<pdfrwt beam="2">  1       -2 0.60556573E-01 0.72280579E+03</pdfrwt>
<totfact> 0.79121233E+00</totfact>
</mgrwt>
</event>
<event>
 4    1  0.2061941E-008  0.1811211E+04  0.7818608E-02  0.8700360E-01
          2   -1    0    0  501    0  0.00000000000E+00  0.00000000000E+00  0.26654083320E+04  0.26654083320E+04  0.25500000000E-02 0. -1.
         -2   -1    0    0    0  501 -0.00000000000E+00 -0.00000000000E+00 -0.17453276516E+04  0.17453276516E+04  0.25500000000E-02 0.  1.
    8880022    1    1    2    0    0  0.14496598589E+04  0.10749782846E+04 -0.73742490693E+03  0.19555764279E+04  0.15294330000E+03 0.  0.
    8880022    1    1    2    0    0 -0.14496598589E+04 -0.10749782846E+04  0.16575055873E+04  0.24551595558E+04  0.15294330000E+03 0.  0.
<mgrwt>
<rscale>  0 0.18112106E+04</rscale>
<asrwt>0</asrwt>
<pdfrwt beam="1">  1        2 0.41006282E+00 0.18112106E+04</pdfrwt>
<pdfrwt beam="2">  1       -2 0.26851195E+00 0.18112106E+04</pdfrwt>
<totfact> 0.12467062E-01</totfact>
</mgrwt>
</event>
<event>
 4    1  0.2061941E-008  0.1858477E+04  0.7818608E-02  0.8675806E-01
         -2   -1    0    0    0  501 -0.00000000000E+00  0.00000000000E+00  0.22123756147E+04  0.22123756147E+04  0.25500000000E-02 0.  1.
          2   -1    0    0  501    0  0.00000000000E+00 -0.00000000000E+00 -0.33214589037E+04  0.33214589037E+04  0.25500000000E-02 0. -1.
    8880022    1    1    2    0    0  0.13041205647E+04 -0.13152235680E+04 -0.25688290498E+04  0.31706178926E+04  0.15294330000E+03 0.  0.
    8880022    1    1    2    0    0 -0.13041205647E+04  0.13152235680E+04  0.14597457608E+04  0.23632166258E+04  0.15294330000E+03 0.  0.
<mgrwt>
<rscale>  0 0.18584766E+04</rscale>
<asrwt>0</asrwt>
<pdfrwt beam="1">  1        2 0.51099368E+00 0.18584766E+04</pdfrwt>
<pdfrwt beam="2">  1       -2 0.34036548E+00 0.18584766E+04</pdfrwt>
<totfact> 0.17306489E-02</totfact>
</mgrwt>
</event>
<event>
 4    1  0.2061941E-008  0.9840418E+03  0.7818608E-02  0.9326223E-01
         -2   -1    0    0    0  501 -0.00000000000E+00  0.00000000000E+00  0.67121120105E+03  0.67121120105E+03  0.25500000000E-02 0.  1.
          2   -1    0    0  501    0  0.00000000000E+00 -0.00000000000E+00 -0.30873987338E+04  0.30873987338E+04  0.25500000000E-02 0. -1.
    8880022    1    1    2    0    0  0.75250040488E+03 -0.61537770886E+03  0.16356995569E+03  0.99754366688E+03  0.15294330000E+03 0.  0.
    8880022    1    1    2    0    0 -0.75250040488E+03  0.61537770886E+03 -0.25797574884E+04  0.27610662680E+04  0.15294330000E+03 0.  0.
<mgrwt>
<rscale>  0 0.98404179E+03</rscale>
<asrwt>0</asrwt>
<pdfrwt beam="1">  1        2 0.47498441E+00 0.98404179E+03</pdfrwt>
<pdfrwt beam="2">  1       -2 0.10326326E+00 0.98404179E+03</pdfrwt>
<totfact> 0.12012970E+00</totfact>
</mgrwt>
</event>
<event>
 4    1  0.2061941E-008  0.1730777E+04  0.7818608E-02  0.8744003E-01
          2   -1    0    0  501    0  0.00000000000E+00  0.00000000000E+00  0.18335062254E+04  0.18335062254E+04  0.25500000000E-02 0. -1.
         -2   -1    0    0    0  501 -0.00000000000E+00 -0.00000000000E+00 -0.20489985189E+04  0.20489985189E+04  0.25500000000E-02 0.  1.
    8880022    1    1    2    0    0 -0.11589559863E+04 -0.12763305484E+04 -0.98159604876E+03  0.19897540307E+04  0.15294330000E+03 0.  0.
    8880022    1    1    2    0    0  0.11589559863E+04  0.12763305484E+04  0.76610375528E+03  0.18927507136E+04  0.15294330000E+03 0.  0.
<mgrwt>
<rscale>  0 0.17307774E+04</rscale>
<asrwt>0</asrwt>
<pdfrwt beam="1">  1        2 0.28207788E+00 0.17307774E+04</pdfrwt>
<pdfrwt beam="2">  1       -2 0.31523054E+00 0.17307774E+04</pdfrwt>
<totfact> 0.19390915E-01</totfact>
</mgrwt>
</event>
<event>
 4    1  0.2061941E-008  0.1816637E+03  0.7818608E-02  0.1166203E+00
          2   -1    0    0  501    0  0.00000000000E+00  0.00000000000E+00  0.77810507989E+03  0.77810507989E+03  0.25500000000E-02 0. -1.
         -2   -1    0    0    0  501 -0.00000000000E+00 -0.00000000000E+00 -0.30936475532E+03  0.30936475534E+03  0.25500000000E-02 0.  1.
    8880022    1    1    2    0    0  0.10759601309E+02 -0.97438627265E+02  0.73945957118E+03  0.76144741482E+03  0.15294330000E+03 0. -1.
    8880022    1    1    2    0    0 -0.10759601309E+02  0.97438627265E+02 -0.27071924662E+03  0.32602242041E+03  0.15294330000E+03 0.  0.
<mgrwt>
<rscale>  0 0.18166372E+03</rscale>
<asrwt>0</asrwt>
<pdfrwt beam="1">  1        2 0.11970847E+00 0.18166372E+03</pdfrwt>
<pdfrwt beam="2">  1       -2 0.47594578E-01 0.18166372E+03</pdfrwt>
<totfact> 0.15992994E+02</totfact>
</mgrwt>
</event>
<event>
 4    1  0.2061941E-008  0.2064237E+04  0.7818608E-02  0.8577163E-01
         -2   -1    0    0    0  501 -0.00000000000E+00  0.00000000000E+00  0.27032563321E+04  0.27032563321E+04  0.25500000000E-02 0.  1.
          2   -1    0    0  501    0  0.00000000000E+00 -0.00000000000E+00 -0.26955457747E+04  0.26955457747E+04  0.25500000000E-02 0. -1.
    8880022    1    1    2    0    0 -0.19248637130E+04  0.72978352137E+03  0.17433038697E+04  0.27018853301E+04  0.15294330000E+03 0.  0.
    8880022    1    1    2    0    0  0.19248637130E+04 -0.72978352137E+03 -0.17355933123E+04  0.26969167767E+04  0.15294330000E+03 0.  0.
<mgrwt>
<rscale>  0 0.20642374E+04</rscale>
<asrwt>0</asrwt>
<pdfrwt beam="1">  1        2 0.41469935E+00 0.20642374E+04</pdfrwt>
<pdfrwt beam="2">  1       -2 0.41588559E+00 0.20642374E+04</pdfrwt>
<totfact> 0.13621014E-02</totfact>
</mgrwt>
</event>
<event>
 4    1  0.2061941E-008  0.2020191E+03  0.7818608E-02  0.1148047E+00
         -2   -1    0    0    0  501 -0.00000000000E+00  0.00000000000E+00  0.44447510394E+03  0.44447510395E+03  0.25500000000E-02 0.  1.
          2   -1    0    0  501    0  0.00000000000E+00 -0.00000000000E+00 -0.15049157187E+04  0.15049157187E+04  0.25500000000E-02 0. -1.
    8880022    1    1    2    0    0 -0.12906988105E+03  0.27586510026E+02 -0.14747130453E+04  0.14884858981E+04  0.15294330000E+03 0.  0.
    8880022    1    1    2    0    0  0.12906988105E+03 -0.27586510026E+02  0.41427243058E+03  0.46090492456E+03  0.15294330000E+03 0.  1.
<mgrwt>
<rscale>  0 0.20201907E+03</rscale>
<asrwt>0</asrwt>
<pdfrwt beam="1">  1        2 0.23152549E+00 0.20201907E+03</pdfrwt>
<pdfrwt beam="2">  1       -2 0.68380786E-01 0.20201907E+03</pdfrwt>
<totfact> 0.28422325E+01</totfact>
</mgrwt>
</event>
<event>
 4    1  0.2061941E-008  0.5455878E+03  0.7818608E-02  0.1002520E+00
         -2   -1    0    0    0  501 -0.00000000000E+00  0.00000000000E+00  0.47082112732E+03  0.47082112732E+03  0.25500000000E-02 0.  1.
          2   -1    0    0  501    0  0.00000000000E+00 -0.00000000000E+00 -0.15129290420E+04  0.15129290420E+04  0.25500000000E-02 0. -1.
    8880022    1    1    2    0    0 -0.46939992889E+03 -0.23224566437E+03  0.23571292129E+03  0.59432867686E+03  0.15294330000E+03 0.  1.
    8880022    1    1    2    0    0  0.46939992889E+03  0.23224566437E+03 -0.12778208359E+04  0.13894214924E+04  0.15294330000E+03 0.  0.
<mgrwt>
<rscale>  0 0.54558775E+03</rscale>
<asrwt>0</asrwt>
<pdfrwt beam="1">  1        2 0.23275831E+00 0.54558775E+03</pdfrwt>
<pdfrwt beam="2">  1       -2 0.72434020E-01 0.54558775E+03</pdfrwt>
<totfact> 0.22692977E+01</totfact>
</mgrwt>
</event>
<event>
 4    1  0.2061941E-008  0.9260574E+03  0.7818608E-02  0.9393582E-01
          2   -1    0    0  501    0  0.00000000000E+00  0.00000000000E+00  0.11423734471E+04  0.11423734471E+04  0.25500000000E-02 0. -1.
         -2   -1    0    0    0  501 -0.00000000000E+00 -0.00000000000E+00 -0.98603260785E+03  0.98603260785E+03  0.25500000000E-02 0.  1.
    8880022    1    1    2    0    0 -0.21911220301E+03 -0.88666819307E+03  0.59806806064E+03  0.11023918089E+04  0.15294330000E+03 0.  0.
    8880022    1    1    2    0    0  0.21911220301E+03  0.88666819307E+03 -0.44172722135E+03  0.10260142461E+04  0.15294330000E+03 0.  0.
<mgrwt>
<rscale>  0 0.92605739E+03</rscale>
<asrwt>0</asrwt>
<pdfrwt beam="1">  1        2 0.17574976E+00 0.92605739E+03</pdfrwt>
<pdfrwt beam="2">  1       -2 0.15169732E+00 0.92605739E+03</pdfrwt>
<totfact> 0.59609501E+00</totfact>
</mgrwt>
</event>
<event>
 4    1  0.2061941E-008  0.7580419E+03  0.7818608E-02  0.9622818E-01
          2   -1    0    0  501    0  0.00000000000E+00  0.00000000000E+00  0.10186720730E+04  0.10186720730E+04  0.25500000000E-02 0. -1.
         -2   -1    0    0    0  501 -0.00000000000E+00 -0.00000000000E+00 -0.60610346199E+03  0.60610346199E+03  0.25500000000E-02 0.  1.
    8880022    1    1    2    0    0  0.48856428050E+03  0.55905348435E+03 -0.75906757542E+01  0.75807989415E+03  0.15294330000E+03 0.  0.
    8880022    1    1    2    0    0 -0.48856428050E+03 -0.55905348435E+03  0.42015928673E+03  0.86669564081E+03  0.15294330000E+03 0.  0.
<mgrwt>
<rscale>  0 0.75804189E+03</rscale>
<asrwt>0</asrwt>
<pdfrwt beam="1">  1        2 0.15671878E+00 0.75804189E+03</pdfrwt>
<pdfrwt beam="2">  1       -2 0.93246686E-01 0.75804189E+03</pdfrwt>
<totfact> 0.24227968E+01</totfact>
</mgrwt>
</event>
<event>
 4    1  0.2061941E-008  0.6934208E+03  0.7818608E-02  0.9728550E-01
         -2   -1    0    0    0  501 -0.00000000000E+00  0.00000000000E+00  0.34991762359E+03  0.34991762360E+03  0.25500000000E-02 0.  1.
          2   -1    0    0  501    0  0.00000000000E+00 -0.00000000000E+00 -0.24304484155E+04  0.24304484155E+04  0.25500000000E-02 0. -1.
    8880022    1    1    2    0    0 -0.51248251995E+03 -0.44136423277E+03 -0.19567520837E+04  0.20759843664E+04  0.15294330000E+03 0.  0.
    8880022    1    1    2    0    0  0.51248251995E+03  0.44136423277E+03 -0.12377870815E+03  0.70438167270E+03  0.15294330000E+03 0.  0.
<mgrwt>
<rscale>  0 0.69342078E+03</rscale>
<asrwt>0</asrwt>
<pdfrwt beam="1">  1        2 0.37391513E+00 0.69342078E+03</pdfrwt>
<pdfrwt beam="2">  1       -2 0.53833482E-01 0.69342078E+03</pdfrwt>
<totfact> 0.13103813E+01</totfact>
</mgrwt>
</event>
<event>
 4    1  0.2061941E-008  0.1262016E+04  0.7818608E-02  0.9060241E-01
         -2   -1    0    0    0  501 -0.00000000000E+00  0.00000000000E+00  0.21235339736E+04  0.21235339736E+04  0.25500000000E-02 0.  1.
          2   -1    0    0  501    0  0.00000000000E+00 -0.00000000000E+00 -0.91183090384E+03  0.91183090385E+03  0.25500000000E-02 0. -1.
    8880022    1    1    2    0    0 -0.10779932873E+04 -0.63814130515E+03  0.12451922347E+04  0.17729041731E+04  0.15294330000E+03 0.  0.
    8880022    1    1    2    0    0  0.10779932873E+04  0.63814130515E+03 -0.33489164884E+02  0.12624607043E+04  0.15294330000E+03 0.  0.
<mgrwt>
<rscale>  0 0.12620164E+04</rscale>
<asrwt>0</asrwt>
<pdfrwt beam="1">  1        2 0.14028168E+00 0.12620164E+04</pdfrwt>
<pdfrwt beam="2">  1       -2 0.32669753E+00 0.12620164E+04</pdfrwt>
<totfact> 0.61044767E-01</totfact>
</mgrwt>
</event>
<event>
 4    1  0.2061941E-008  0.2381476E+03  0.7818608E-02  0.1121033E+00
         -2   -1    0    0    0  501 -0.00000000000E+00  0.00000000000E+00  0.14846763736E+04  0.14846763736E+04  0.25500000000E-02 0.  1.
          2   -1    0    0  501    0  0.00000000000E+00 -0.00000000000E+00 -0.84623801868E+02  0.84623801906E+02  0.25500000000E-02 0. -1.
    8880022    1    1    2    0    0  0.15649082297E+03 -0.93985274062E+02  0.11885881913E+03  0.26616100637E+03  0.15294330000E+03 0. -1.
    8880022    1    1    2    0    0 -0.15649082297E+03  0.93985274062E+02  0.12811937526E+04  0.13031391691E+04  0.15294330000E+03 0.  0.
<mgrwt>
<rscale>  0 0.23814756E+03</rscale>
<asrwt>0</asrwt>
<pdfrwt beam="1">  1        2 0.13019047E-01 0.23814756E+03</pdfrwt>
<pdfrwt beam="2">  1       -2 0.22841174E+00 0.23814756E+03</pdfrwt>
<totfact> 0.44834392E+01</totfact>
</mgrwt>
</event>
<event>
 4    1  0.2061941E-008  0.1022485E+04  0.7818608E-02  0.9284222E-01
          2   -1    0    0  501    0  0.00000000000E+00  0.00000000000E+00  0.30996115064E+04  0.30996115064E+04  0.25500000000E-02 0. -1.
         -2   -1    0    0    0  501 -0.00000000000E+00 -0.00000000000E+00 -0.65373196271E+03  0.65373196272E+03  0.25500000000E-02 0.  1.
    8880022    1    1    2    0    0 -0.10047897465E+04  0.11171855077E+03 -0.82731665068E+02  0.10258263258E+04  0.15294330000E+03 0.  0.
    8880022    1    1    2    0    0  0.10047897465E+04 -0.11171855077E+03  0.25286112087E+04  0.27275171433E+04  0.15294330000E+03 0.  0.
<mgrwt>
<rscale>  0 0.10224848E+04</rscale>
<asrwt>0</asrwt>
<pdfrwt beam="1">  1        2 0.47686330E+00 0.10224848E+04</pdfrwt>
<pdfrwt beam="2">  1       -2 0.10057415E+00 0.10224848E+04</pdfrwt>
<totfact> 0.12493631E+00</totfact>
</mgrwt>
</event>
<event>
 4    1  0.2061941E-008  0.4210778E+03  0.7818608E-02  0.1036716E+00
         -2   -1    0    0    0  501 -0.00000000000E+00  0.00000000000E+00  0.50834459391E+03  0.50834459392E+03  0.25500000000E-02 0.  1.
          2   -1    0    0  501    0  0.00000000000E+00 -0.00000000000E+00 -0.84170859952E+03  0.84170859952E+03  0.25500000000E-02 0. -1.
    8880022    1    1    2    0    0 -0.19815840914E+03  0.33859723791E+03 -0.68324911216E+03  0.80258074168E+03  0.15294330000E+03 0.  0.
    8880022    1    1    2    0    0  0.19815840914E+03 -0.33859723791E+03  0.34988510655E+03  0.54747245176E+03  0.15294330000E+03 0.  0.
<mgrwt>
<rscale>  0 0.42107778E+03</rscale>
<asrwt>0</asrwt>
<pdfrwt beam="1">  1        2 0.12949363E+00 0.42107778E+03</pdfrwt>
<pdfrwt beam="2">  1       -2 0.78206861E-01 0.42107778E+03</pdfrwt>
<totfact> 0.49146480E+01</totfact>
</mgrwt>
</event>
<event>
 4    1  0.2061941E-008  0.3814622E+03  0.7818608E-02  0.1050395E+00
         -2   -1    0    0    0  501 -0.00000000000E+00  0.00000000000E+00  0.91343468894E+03  0.91343468894E+03  0.25500000000E-02 0.  1.
          2   -1    0    0  501    0  0.00000000000E+00 -0.00000000000E+00 -0.34628863365E+04  0.34628863365E+04  0.25500000000E-02 0. -1.
    8880022    1    1    2    0    0  0.22529129979E+02 -0.34873227821E+03  0.86251102510E+03  0.94310056993E+03  0.15294330000E+03 0.  0.
    8880022    1    1    2    0    0 -0.22529129979E+02  0.34873227821E+03 -0.34119626727E+04  0.34332204555E+04  0.15294330000E+03 0.  0.
<mgrwt>
<rscale>  0 0.38146221E+03</rscale>
<asrwt>0</asrwt>
<pdfrwt beam="1">  1        2 0.53275173E+00 0.38146221E+03</pdfrwt>
<pdfrwt beam="2">  1       -2 0.14052842E+00 0.38146221E+03</pdfrwt>
<totfact> 0.38242386E-01</totfact>
</mgrwt>
</event>
<event>
 4    1  0.2061941E-008  0.1374029E+04  0.7818608E-02  0.8972835E-01
         -2   -1    0    0    0  501 -0.00000000000E+00  0.00000000000E+00  0.96324831280E+03  0.96324831280E+03  0.25500000000E-02 0.  1.
          2   -1    0    0  501    0  0.00000000000E+00 -0.00000000000E+00 -0.28387165027E+04  0.28387165027E+04  0.25500000000E-02 0. -1.
    8880022    1    1    2    0    0 -0.70147831759E+03  0.11715337671E+04  0.11992209654E+03  0.13792520291E+04  0.15294330000E+03 0.  0.
    8880022    1    1    2    0    0  0.70147831759E+03 -0.11715337671E+04 -0.19953902865E+04  0.24227127865E+04  0.15294330000E+03 0.  0.
<mgrwt>
<rscale>  0 0.13740287E+04</rscale>
<asrwt>0</asrwt>
<pdfrwt beam="1">  1        2 0.43672561E+00 0.13740287E+04</pdfrwt>
<pdfrwt beam="2">  1       -2 0.14819205E+00 0.13740287E+04</pdfrwt>
<totfact> 0.65107997E-01</totfact>
</mgrwt>
</event>
<event>
 4    1  0.2061941E-008  0.4173569E+03  0.7818608E-02  0.1037930E+00
         -2   -1    0    0    0  501 -0.00000000000E+00  0.00000000000E+00  0.59442451200E+03  0.59442451201E+03  0.25500000000E-02 0.  1.
          2   -1    0    0  501    0  0.00000000000E+00 -0.00000000000E+00 -0.13585708849E+04  0.13585708849E+04  0.25500000000E-02 0. -1.
    8880022    1    1    2    0    0 -0.28929146567E+03  0.25904747894E+03  0.48272395375E+03  0.63812946726E+03  0.15294330000E+03 0.  0.
    8880022    1    1    2    0    0  0.28929146567E+03 -0.25904747894E+03 -0.12468703266E+04  0.13148659296E+04  0.15294330000E+03 0.  0.
<mgrwt>
<rscale>  0 0.41735692E+03</rscale>
<asrwt>0</asrwt>
<pdfrwt beam="1">  1        2 0.20901090E+00 0.41735692E+03</pdfrwt>
<pdfrwt beam="2">  1       -2 0.91449926E-01 0.41735692E+03</pdfrwt>
<totfact> 0.16790666E+01</totfact>
</mgrwt>
</event>
<event>
 4    1  0.2061941E-008  0.6275122E+03  0.7818608E-02  0.9849916E-01
          2   -1    0    0  501    0  0.00000000000E+00  0.00000000000E+00  0.13494973298E+04  0.13494973298E+04  0.25500000000E-02 0. -1.
         -2   -1    0    0    0  501 -0.00000000000E+00 -0.00000000000E+00 -0.36833533829E+03  0.36833533830E+03  0.25500000000E-02 0.  1.
    8880022    1    1    2    0    0  0.29207830922E+03 -0.53391967262E+03  0.99033190379E+02  0.63527882173E+03  0.15294330000E+03 0.  0.
    8880022    1    1    2    0    0 -0.29207830922E+03  0.53391967262E+03  0.88212880117E+03  0.10825538464E+04  0.15294330000E+03 0.  0.
<mgrwt>
<rscale>  0 0.62751224E+03</rscale>
<asrwt>0</asrwt>
<pdfrwt beam="1">  1        2 0.20761498E+00 0.62751224E+03</pdfrwt>
<pdfrwt beam="2">  1       -2 0.56666974E-01 0.62751224E+03</pdfrwt>
<totfact> 0.46721599E+01</totfact>
</mgrwt>
</event>
<event>
 4    1  0.2061941E-008  0.1730270E+04  0.7818608E-02  0.8744286E-01
         -2   -1    0    0    0  501 -0.00000000000E+00  0.00000000000E+00  0.14876894732E+04  0.14876894732E+04  0.25500000000E-02 0.  1.
          2   -1    0    0  501    0  0.00000000000E+00 -0.00000000000E+00 -0.21710270234E+04  0.21710270234E+04  0.25500000000E-02 0. -1.
    8880022    1    1    2    0    0  0.15804599654E+04 -0.68744989350E+03  0.15281134089E+03  0.17370043227E+04  0.15294330000E+03 0.  0.
    8880022    1    1    2    0    0 -0.15804599654E+04  0.68744989350E+03 -0.83614889111E+03  0.19217121739E+04  0.15294330000E+03 0.  0.
<mgrwt>
<rscale>  0 0.17302695E+04</rscale>
<asrwt>0</asrwt>
<pdfrwt beam="1">  1        2 0.33400416E+00 0.17302695E+04</pdfrwt>
<pdfrwt beam="2">  1       -2 0.22887530E+00 0.17302695E+04</pdfrwt>
<totfact> 0.42680096E-01</totfact>
</mgrwt>
</event>
<event>
 4    1  0.2061941E-008  0.3099564E+03  0.7818608E-02  0.1080367E+00
          2   -1    0    0  501    0  0.00000000000E+00  0.00000000000E+00  0.76644437761E+03  0.76644437762E+03  0.25500000000E-02 0. -1.
         -2   -1    0    0    0  501 -0.00000000000E+00 -0.00000000000E+00 -0.29783114378E+03  0.29783114379E+03  0.25500000000E-02 0.  1.
    8880022    1    1    2    0    0 -0.22973288716E+03  0.14108189113E+03 -0.17065254725E+03  0.35382940006E+03  0.15294330000E+03 0.  0.
    8880022    1    1    2    0    0  0.22973288716E+03 -0.14108189113E+03  0.63926578109E+03  0.71044612134E+03  0.15294330000E+03 0. -1.
<mgrwt>
<rscale>  0 0.30995637E+03</rscale>
<asrwt>0</asrwt>
<pdfrwt beam="1">  1        2 0.11791452E+00 0.30995637E+03</pdfrwt>
<pdfrwt beam="2">  1       -2 0.45820176E-01 0.30995637E+03</pdfrwt>
<totfact> 0.17222101E+02</totfact>
</mgrwt>
</event>
<event>
 4    1  0.2061941E-008  0.2295895E+03  0.7818608E-02  0.1126929E+00
         -2   -1    0    0    0  501 -0.00000000000E+00  0.00000000000E+00  0.29974906305E+03  0.29974906306E+03  0.25500000000E-02 0.  1.
          2   -1    0    0  501    0  0.00000000000E+00 -0.00000000000E+00 -0.73277768900E+03  0.73277768901E+03  0.25500000000E-02 0. -1.
    8880022    1    1    2    0    0  0.22880025434E+02  0.16969434409E+03  0.23355978826E+03  0.32750800553E+03  0.15294330000E+03 0.  0.
    8880022    1    1    2    0    0 -0.22880025434E+02 -0.16969434409E+03 -0.66658841422E+03  0.70501874653E+03  0.15294330000E+03 0.  0.
<mgrwt>
<rscale>  0 0.22958946E+03</rscale>
<asrwt>0</asrwt>
<pdfrwt beam="1">  1        2 0.11273503E+00 0.22958946E+03</pdfrwt>
<pdfrwt beam="2">  1       -2 0.46115241E-01 0.22958946E+03</pdfrwt>
<totfact> 0.18179909E+02</totfact>
</mgrwt>
</event>
<event>
 4    1  0.2061941E-008  0.9789478E+03  0.7818608E-02  0.9331941E-01
         -2   -1    0    0    0  501 -0.00000000000E+00  0.00000000000E+00  0.35025919186E+03  0.35025919187E+03  0.25500000000E-02 0.  1.
          2   -1    0    0  501    0  0.00000000000E+00 -0.00000000000E+00 -0.37741198869E+04  0.37741198869E+04  0.25500000000E-02 0. -1.
    8880022    1    1    2    0    0  0.69502980031E+03  0.67222072066E+03 -0.63042966810E+03  0.11643798092E+04  0.15294330000E+03 0.  0.
    8880022    1    1    2    0    0 -0.69502980031E+03 -0.67222072066E+03 -0.27934310269E+04  0.29599992696E+04  0.15294330000E+03 0.  0.
<mgrwt>
<rscale>  0 0.97894779E+03</rscale>
<asrwt>0</asrwt>
<pdfrwt beam="1">  1        2 0.58063380E+00 0.97894779E+03</pdfrwt>
<pdfrwt beam="2">  1       -2 0.53886032E-01 0.97894779E+03</pdfrwt>
<totfact> 0.17502995E+00</totfact>
</mgrwt>
</event>
<event>
 4    1  0.2061941E-008  0.3255763E+03  0.7818608E-02  0.1073111E+00
          2   -1    0    0  501    0  0.00000000000E+00  0.00000000000E+00  0.12154289753E+04  0.12154289753E+04  0.25500000000E-02 0. -1.
         -2   -1    0    0    0  501 -0.00000000000E+00 -0.00000000000E+00 -0.11569095621E+03  0.11569095624E+03  0.25500000000E-02 0.  1.
    8880022    1    1    2    0    0  0.21639229250E+03  0.18916294481E+03  0.21965148732E+03  0.39274250195E+03  0.15294330000E+03 0.  1.
    8880022    1    1    2    0    0 -0.21639229250E+03 -0.18916294481E+03  0.88008653178E+03  0.93837742960E+03  0.15294330000E+03 0.  0.
<mgrwt>
<rscale>  0 0.32557625E+03</rscale>
<asrwt>0</asrwt>
<pdfrwt beam="1">  1        2 0.18698907E+00 0.32557625E+03</pdfrwt>
<pdfrwt beam="2">  1       -2 0.17798609E-01 0.32557625E+03</pdfrwt>
<totfact> 0.50230165E+02</totfact>
</mgrwt>
</event>
<event>
 4    1  0.2061941E-008  0.4935625E+03  0.7818608E-02  0.1015473E+00
         -2   -1    0    0    0  501 -0.00000000000E+00  0.00000000000E+00  0.56516350670E+03  0.56516350670E+03  0.25500000000E-02 0.  1.
          2   -1    0    0  501    0  0.00000000000E+00 -0.00000000000E+00 -0.11593201345E+04  0.11593201345E+04  0.25500000000E-02 0. -1.
    8880022    1    1    2    0    0  0.23381389909E+03  0.40687024459E+03 -0.98048430755E+03  0.10977037240E+04  0.15294330000E+03 0. -1.
    8880022    1    1    2    0    0 -0.23381389909E+03 -0.40687024459E+03  0.38632767980E+03  0.62677991714E+03  0.15294330000E+03 0.  0.
<mgrwt>
<rscale>  0 0.49356255E+03</rscale>
<asrwt>0</asrwt>
<pdfrwt beam="1">  1        2 0.17835694E+00 0.49356255E+03</pdfrwt>
<pdfrwt beam="2">  1       -2 0.86948232E-01 0.49356255E+03</pdfrwt>
<totfact> 0.24152140E+01</totfact>
</mgrwt>
</event>
<event>
 4    1  0.2061941E-008  0.9990989E+03  0.7818608E-02  0.9309534E-01
          2   -1    0    0  501    0  0.00000000000E+00  0.00000000000E+00  0.14488077337E+04  0.14488077337E+04  0.25500000000E-02 0. -1.
         -2   -1    0    0    0  501 -0.00000000000E+00 -0.00000000000E+00 -0.74902970659E+03  0.74902970659E+03  0.25500000000E-02 0.  1.
    8880022    1    1    2    0    0 -0.54699333149E+03 -0.82195214785E+03  0.38736262454E+02  0.99984958323E+03  0.15294330000E+03 0.  0.
    8880022    1    1    2    0    0  0.54699333149E+03  0.82195214785E+03  0.66104176468E+03  0.11979878571E+04  0.15294330000E+03 0.  0.
<mgrwt>
<rscale>  0 0.99909894E+03</rscale>
<asrwt>0</asrwt>
<pdfrwt beam="1">  1        2 0.22289350E+00 0.99909894E+03</pdfrwt>
<pdfrwt beam="2">  1       -2 0.11523534E+00 0.99909894E+03</pdfrwt>
<totfact> 0.79155233E+00</totfact>
</mgrwt>
</event>
<event>
 4    1  0.2061941E-008  0.4584902E+03  0.7818608E-02  0.1025220E+00
         -2   -1    0    0    0  501 -0.00000000000E+00  0.00000000000E+00  0.41623963673E+03  0.41623963674E+03  0.25500000000E-02 0.  1.
          2   -1    0    0  501    0  0.00000000000E+00 -0.00000000000E+00 -0.63957749030E+03  0.63957749030E+03  0.25500000000E-02 0. -1.
    8880022    1    1    2    0    0  0.18717127740E+03  0.38960047596E+03  0.13046231258E+03  0.47669034600E+03  0.15294330000E+03 0.  1.
    8880022    1    1    2    0    0 -0.18717127740E+03 -0.38960047596E+03 -0.35380016614E+03  0.57912678105E+03  0.15294330000E+03 0. -1.
<mgrwt>
<rscale>  0 0.45849021E+03</rscale>
<asrwt>0</asrwt>
<pdfrwt beam="1">  1        2 0.98396537E-01 0.45849021E+03</pdfrwt>
<pdfrwt beam="2">  1       -2 0.64036867E-01 0.45849021E+03</pdfrwt>
<totfact> 0.10684012E+02</totfact>
</mgrwt>
</event>
<event>
 4    1  0.2061941E-008  0.9282481E+03  0.7818608E-02  0.9390943E-01
          2   -1    0    0  501    0  0.00000000000E+00  0.00000000000E+00  0.15768063252E+04  0.15768063252E+04  0.25500000000E-02 0. -1.
         -2   -1    0    0    0  501 -0.00000000000E+00 -0.00000000000E+00 -0.89525316747E+03  0.89525316748E+03  0.25500000000E-02 0.  1.
    8880022    1    1    2    0    0 -0.59725210370E+03 -0.69393281399E+03  0.11122957598E+04  0.14487395681E+04  0.15294330000E+03 0.  0.
    8880022    1    1    2    0    0  0.59725210370E+03  0.69393281399E+03 -0.43074260215E+03  0.10233199246E+04  0.15294330000E+03 0.  0.
<mgrwt>
<rscale>  0 0.92824807E+03</rscale>
<asrwt>0</asrwt>
<pdfrwt beam="1">  1        2 0.24258559E+00 0.92824807E+03</pdfrwt>
<pdfrwt beam="2">  1       -2 0.13773126E+00 0.92824807E+03</pdfrwt>
<totfact> 0.43153511E+00</totfact>
</mgrwt>
</event>
<event>
 4    1  0.2061941E-008  0.4304032E+03  0.7818608E-02  0.1033733E+00
         -2   -1    0    0    0  501 -0.00000000000E+00  0.00000000000E+00  0.24575415417E+03  0.24575415418E+03  0.25500000000E-02 0.  1.
          2   -1    0    0  501    0  0.00000000000E+00 -0.00000000000E+00 -0.21219961850E+04  0.21219961850E+04  0.25500000000E-02 0. -1.
    8880022    1    1    2    0    0 -0.19214799730E+03  0.35346060147E+03  0.12504496754E+02  0.43058479433E+03  0.15294330000E+03 0.  0.
    8880022    1    1    2    0    0  0.19214799730E+03 -0.35346060147E+03 -0.18887465276E+04  0.19371655448E+04  0.15294330000E+03 0.  0.
<mgrwt>
<rscale>  0 0.43040319E+03</rscale>
<asrwt>0</asrwt>
<pdfrwt beam="1">  1        2 0.32646094E+00 0.43040319E+03</pdfrwt>
<pdfrwt beam="2">  1       -2 0.37808333E-01 0.43040319E+03</pdfrwt>
<totfact> 0.41137177E+01</totfact>
</mgrwt>
</event>
<event>
 4    1  0.2061941E-008  0.6267160E+03  0.7818608E-02  0.9851478E-01
         -2   -1    0    0    0  501 -0.00000000000E+00  0.00000000000E+00  0.21080809371E+04  0.21080809371E+04  0.25500000000E-02 0.  1.
          2   -1    0    0  501    0  0.00000000000E+00 -0.00000000000E+00 -0.23195584240E+04  0.23195584240E+04  0.25500000000E-02 0. -1.
    8880022    1    1    2    0    0 -0.31437258973E+03 -0.52014537550E+03 -0.22287852581E+04  0.23152228222E+04  0.15294330000E+03 0.  0.
    8880022    1    1    2    0    0  0.31437258973E+03  0.52014537550E+03  0.20173077712E+04  0.21124165388E+04  0.15294330000E+03 0.  0.
<mgrwt>
<rscale>  0 0.62671604E+03</rscale>
<asrwt>0</asrwt>
<pdfrwt beam="1">  1        2 0.35685514E+00 0.62671604E+03</pdfrwt>
<pdfrwt beam="2">  1       -2 0.32432014E+00 0.62671604E+03</pdfrwt>
<totfact> 0.11184165E-01</totfact>
</mgrwt>
</event>
<event>
 4    1  0.2061941E-008  0.4920369E+03  0.7818608E-02  0.1015879E+00
          2   -1    0    0  501    0  0.00000000000E+00  0.00000000000E+00  0.33103713538E+04  0.33103713538E+04  0.25500000000E-02 0. -1.
         -2   -1    0    0    0  501 -0.00000000000E+00 -0.00000000000E+00 -0.11787444449E+03  0.11787444452E+03  0.25500000000E-02 0.  1.
    8880022    1    1    2    0    0 -0.29455542780E+03 -0.36324333027E+03  0.54020229205E+03  0.73069746570E+03  0.15294330000E+03 0.  0.
    8880022    1    1    2    0    0  0.29455542780E+03  0.36324333027E+03  0.26522946173E+04  0.26975483326E+04  0.15294330000E+03 0.  0.
<mgrwt>
<rscale>  0 0.49203686E+03</rscale>
<asrwt>0</asrwt>
<pdfrwt beam="1">  1        2 0.50928794E+00 0.49203686E+03</pdfrwt>
<pdfrwt beam="2">  1       -2 0.18134529E-01 0.49203686E+03</pdfrwt>
<totfact> 0.31224997E+01</totfact>
</mgrwt>
</event>
<event>
 4    1  0.2061941E-008  0.2934354E+03  0.7818608E-02  0.1088569E+00
         -2   -1    0    0    0  501 -0.00000000000E+00  0.00000000000E+00  0.60030466316E+03  0.60030466317E+03  0.25500000000E-02 0.  1.
          2   -1    0    0  501    0  0.00000000000E+00 -0.00000000000E+00 -0.35009435220E+04  0.35009435221E+04  0.25500000000E-02 0. -1.
    8880022    1    1    2    0    0 -0.93844227570E+02 -0.23217649422E+03  0.55785811421E+03  0.63032530658E+03  0.15294330000E+03 0.  0.
    8880022    1    1    2    0    0  0.93844227570E+02  0.23217649422E+03 -0.34584969731E+04  0.34709228786E+04  0.15294330000E+03 0.  0.
<mgrwt>
<rscale>  0 0.29343537E+03</rscale>
<asrwt>0</asrwt>
<pdfrwt beam="1">  1        2 0.53860668E+00 0.29343537E+03</pdfrwt>
<pdfrwt beam="2">  1       -2 0.92354566E-01 0.29343537E+03</pdfrwt>
<totfact> 0.10478980E+00</totfact>
</mgrwt>
</event>
<event>
 4    1  0.2061941E-008  0.2873123E+03  0.7818608E-02  0.1091761E+00
          2   -1    0    0  501    0  0.00000000000E+00  0.00000000000E+00  0.25485336686E+03  0.25485336687E+03  0.25500000000E-02 0. -1.
         -2   -1    0    0    0  501 -0.00000000000E+00 -0.00000000000E+00 -0.98452661527E+03  0.98452661528E+03  0.25500000000E-02 0.  1.
    8880022    1    1    2    0    0 -0.23555194318E+03 -0.60597007320E+02  0.14278139114E+03  0.32083468313E+03  0.15294330000E+03 0.  0.
    8880022    1    1    2    0    0  0.23555194318E+03  0.60597007320E+02 -0.87245463956E+03  0.91854529901E+03  0.15294330000E+03 0.  0.
<mgrwt>
<rscale>  0 0.28731232E+03</rscale>
<asrwt>0</asrwt>
<pdfrwt beam="1">  1        2 0.39208211E-01 0.28731232E+03</pdfrwt>
<pdfrwt beam="2">  1       -2 0.15146563E+00 0.28731232E+03</pdfrwt>
<totfact> 0.40624806E+01</totfact>
</mgrwt>
</event>
<event>
 4    1  0.3779473E-008  0.1127298E+04  0.7818608E-02  0.9178986E-01
          2   -1    0    0  501    0  0.00000000000E+00  0.00000000000E+00  0.27710169028E+04  0.27710169028E+04  0.25500000000E-02 0. -1.
         -2   -1    0    0    0  501 -0.00000000000E+00 -0.00000000000E+00 -0.23107146671E+04  0.23107146671E+04  0.25500000000E-02 0.  1.
    8880022    1    1    2    0    0 -0.10251433726E+03  0.11121603507E+04 -0.20446422023E+04  0.23348154581E+04  0.15294330000E+03 0.  0.
    8880022    1    1    2    0    0  0.10251433726E+03 -0.11121603507E+04  0.25049444380E+04  0.27469161118E+04  0.15294330000E+03 0.  0.
<mgrwt>
<rscale>  0 0.11272983E+04</rscale>
<asrwt>0</asrwt>
<pdfrwt beam="1">  1        2 0.42631029E+00 0.11272983E+04</pdfrwt>
<pdfrwt beam="2">  1       -2 0.35549456E+00 0.11272983E+04</pdfrwt>
<totfact> 0.34730261E-02</totfact>
</mgrwt>
</event>
<event>
 4    1  0.2061941E-008  0.7085663E+03  0.7818608E-02  0.9702694E-01
         -2   -1    0    0    0  501 -0.00000000000E+00  0.00000000000E+00  0.83519198028E+03  0.83519198028E+03  0.25500000000E-02 0.  1.
          2   -1    0    0  501    0  0.00000000000E+00 -0.00000000000E+00 -0.17404202782E+04  0.17404202782E+04  0.25500000000E-02 0. -1.
    8880022    1    1    2    0    0 -0.29111034129E+03 -0.62763788249E+03  0.58931686129E+03  0.92160759456E+03  0.15294330000E+03 0.  0.
    8880022    1    1    2    0    0  0.29111034129E+03  0.62763788249E+03 -0.14945451592E+04  0.16540046639E+04  0.15294330000E+03 0.  0.
<mgrwt>
<rscale>  0 0.70856630E+03</rscale>
<asrwt>0</asrwt>
<pdfrwt beam="1">  1        2 0.26775697E+00 0.70856630E+03</pdfrwt>
<pdfrwt beam="2">  1       -2 0.12849107E+00 0.70856630E+03</pdfrwt>
<totfact> 0.43220420E+00</totfact>
</mgrwt>
</event>
<event>
 4    1  0.2061941E-008  0.4993605E+03  0.7818608E-02  0.1013946E+00
          2   -1    0    0  501    0  0.00000000000E+00  0.00000000000E+00  0.15837950731E+04  0.15837950731E+04  0.25500000000E-02 0. -1.
         -2   -1    0    0    0  501 -0.00000000000E+00 -0.00000000000E+00 -0.35505585605E+03  0.35505585606E+03  0.25500000000E-02 0.  1.
    8880022    1    1    2    0    0  0.40910700235E+03  0.24207584295E+03  0.13375910303E+04  0.14277642209E+04  0.15294330000E+03 0.  0.
    8880022    1    1    2    0    0 -0.40910700235E+03 -0.24207584295E+03 -0.10885181324E+03  0.51108670827E+03  0.15294330000E+03 0.  0.
<mgrwt>
<rscale>  0 0.49936050E+03</rscale>
<asrwt>0</asrwt>
<pdfrwt beam="1">  1        2 0.24366078E+00 0.49936050E+03</pdfrwt>
<pdfrwt beam="2">  1       -2 0.54623978E-01 0.49936050E+03</pdfrwt>
<totfact> 0.38078060E+01</totfact>
</mgrwt>
</event>
<event>
 4    1  0.2061941E-008  0.7755475E+03  0.7818608E-02  0.9596101E-01
          2   -1    0    0  501    0  0.00000000000E+00  0.00000000000E+00  0.19104038641E+04  0.19104038641E+04  0.25500000000E-02 0. -1.
         -2   -1    0    0    0  501 -0.00000000000E+00 -0.00000000000E+00 -0.45247321163E+03  0.45247321163E+03  0.25500000000E-02 0.  1.
    8880022    1    1    2    0    0  0.70921137606E+03  0.27404661758E+03  0.77375467373E+02  0.77939780633E+03  0.15294330000E+03 0.  0.
    8880022    1    1    2    0    0 -0.70921137606E+03 -0.27404661758E+03  0.13805551851E+04  0.15834792694E+04  0.15294330000E+03 0.  0.
<mgrwt>
<rscale>  0 0.77554753E+03</rscale>
<asrwt>0</asrwt>
<pdfrwt beam="1">  1        2 0.29390830E+00 0.77554753E+03</pdfrwt>
<pdfrwt beam="2">  1       -2 0.69611261E-01 0.77554753E+03</pdfrwt>
<totfact> 0.14510032E+01</totfact>
</mgrwt>
</event>
<event>
 4    1  0.2061941E-008  0.8213506E+03  0.7818608E-02  0.9529617E-01
         -2   -1    0    0    0  501 -0.00000000000E+00  0.00000000000E+00  0.15680549443E+04  0.15680549443E+04  0.25500000000E-02 0.  1.
          2   -1    0    0  501    0  0.00000000000E+00 -0.00000000000E+00 -0.11948753134E+04  0.11948753134E+04  0.25500000000E-02 0. -1.
    8880022    1    1    2    0    0 -0.33730876463E+03 -0.73310843585E+03  0.12917112345E+04  0.15307301355E+04  0.15294330000E+03 0.  0.
    8880022    1    1    2    0    0  0.33730876463E+03  0.73310843585E+03 -0.91853160363E+03  0.12322001223E+04  0.15294330000E+03 0.  0.
<mgrwt>
<rscale>  0 0.82135062E+03</rscale>
<asrwt>0</asrwt>
<pdfrwt beam="1">  1        2 0.18382697E+00 0.82135062E+03</pdfrwt>
<pdfrwt beam="2">  1       -2 0.24123922E+00 0.82135062E+03</pdfrwt>
<totfact> 0.14192694E+00</totfact>
</mgrwt>
</event>
<event>
 4    1  0.2061941E-008  0.2251888E+04  0.7818608E-02  0.8497136E-01
          2   -1    0    0  501    0  0.00000000000E+00  0.00000000000E+00  0.31015005183E+04  0.31015005183E+04  0.25500000000E-02 0. -1.
         -2   -1    0    0    0  501 -0.00000000000E+00 -0.00000000000E+00 -0.20209104512E+04  0.20209104512E+04  0.25500000000E-02 0.  1.
    8880022    1    1    2    0    0  0.22152287877E+04 -0.37466100282E+03 -0.57889927849E+03  0.23251076269E+04  0.15294330000E+03 0.  0.
    8880022    1    1    2    0    0 -0.22152287877E+04  0.37466100282E+03  0.16594893456E+04  0.27973033426E+04  0.15294330000E+03 0.  0.
<mgrwt>
<rscale>  0 0.22518883E+04</rscale>
<asrwt>0</asrwt>
<pdfrwt beam="1">  1        2 0.47715393E+00 0.22518883E+04</pdfrwt>
<pdfrwt beam="2">  1       -2 0.31090930E+00 0.22518883E+04</pdfrwt>
<totfact> 0.35223848E-02</totfact>
</mgrwt>
</event>
<event>
 4    1  0.2061941E-008  0.2076956E+04  0.7818608E-02  0.8571463E-01
         -2   -1    0    0    0  501 -0.00000000000E+00  0.00000000000E+00  0.22409259874E+04  0.22409259874E+04  0.25500000000E-02 0.  1.
          2   -1    0    0  501    0  0.00000000000E+00 -0.00000000000E+00 -0.21753175083E+04  0.21753175083E+04  0.25500000000E-02 0. -1.
    8880022    1    1    2    0    0  0.12496709556E+04  0.16518712749E+04 -0.71626285651E+03  0.21969934772E+04  0.15294330000E+03 0.  0.
    8880022    1    1    2    0    0 -0.12496709556E+04 -0.16518712749E+04  0.78187133559E+03  0.22192500185E+04  0.15294330000E+03 0.  0.
<mgrwt>
<rscale>  0 0.20769564E+04</rscale>
<asrwt>0</asrwt>
<pdfrwt beam="1">  1        2 0.33466423E+00 0.20769564E+04</pdfrwt>
<pdfrwt beam="2">  1       -2 0.34475784E+00 0.20769564E+04</pdfrwt>
<totfact> 0.78798116E-02</totfact>
</mgrwt>
</event>
<event>
 4    1  0.2061941E-008  0.1142648E+04  0.7818608E-02  0.9164593E-01
          2   -1    0    0  501    0  0.00000000000E+00  0.00000000000E+00  0.18901292031E+04  0.18901292031E+04  0.25500000000E-02 0. -1.
         -2   -1    0    0    0  501 -0.00000000000E+00 -0.00000000000E+00 -0.77933455541E+03  0.77933455541E+03  0.25500000000E-02 0.  1.
    8880022    1    1    2    0    0 -0.22396923415E+03  0.11099958017E+04  0.10544962088E+03  0.11475034523E+04  0.15294330000E+03 0.  0.
    8880022    1    1    2    0    0  0.22396923415E+03 -0.11099958017E+04  0.10053450268E+04  0.15219603061E+04  0.15294330000E+03 0.  0.
<mgrwt>
<rscale>  0 0.11426480E+04</rscale>
<asrwt>0</asrwt>
<pdfrwt beam="1">  1        2 0.29078910E+00 0.11426480E+04</pdfrwt>
<pdfrwt beam="2">  1       -2 0.11989763E+00 0.11426480E+04</pdfrwt>
<totfact> 0.40166718E+00</totfact>
</mgrwt>
</event>
<event>
 4    1  0.2061941E-008  0.6779234E+03  0.7818608E-02  0.9755749E-01
         -2   -1    0    0    0  501 -0.00000000000E+00  0.00000000000E+00  0.43137207865E+04  0.43137207865E+04  0.25500000000E-02 0.  1.
          2   -1    0    0  501    0  0.00000000000E+00 -0.00000000000E+00 -0.17365023930E+04  0.17365023930E+04  0.25500000000E-02 0. -1.
    8880022    1    1    2    0    0 -0.48866539253E+03  0.44429115732E+03 -0.16422341876E+04  0.17766578957E+04  0.15294330000E+03 0.  0.
    8880022    1    1    2    0    0  0.48866539253E+03 -0.44429115732E+03  0.42194525811E+04  0.42735652838E+04  0.15294330000E+03 0.  0.
<mgrwt>
<rscale>  0 0.67792341E+03</rscale>
<asrwt>0</asrwt>
<pdfrwt beam="1">  1        2 0.26715422E+00 0.67792341E+03</pdfrwt>
<pdfrwt beam="2">  1       -2 0.66364934E+00 0.67792341E+03</pdfrwt>
<totfact> 0.30585782E-03</totfact>
</mgrwt>
</event>
<event>
 4    1  0.2061941E-008  0.3520453E+03  0.7818608E-02  0.1061779E+00
         -2   -1    0    0    0  501 -0.00000000000E+00  0.00000000000E+00  0.27489635629E+03  0.27489635630E+03  0.25500000000E-02 0.  1.
          2   -1    0    0  501    0  0.00000000000E+00 -0.00000000000E+00 -0.13901850272E+04  0.13901850272E+04  0.25500000000E-02 0. -1.
    8880022    1    1    2    0    0 -0.30822362972E+03  0.74447713567E+02 -0.12419976120E+04  0.12909275693E+04  0.15294330000E+03 0.  0.
    8880022    1    1    2    0    0  0.30822362972E+03 -0.74447713567E+02  0.12670894102E+03  0.37415381426E+03  0.15294330000E+03 0.  0.
<mgrwt>
<rscale>  0 0.35204534E+03</rscale>
<asrwt>0</asrwt>
<pdfrwt beam="1">  1        2 0.21387462E+00 0.35204534E+03</pdfrwt>
<pdfrwt beam="2">  1       -2 0.42291748E-01 0.35204534E+03</pdfrwt>
<totfact> 0.83323292E+01</totfact>
</mgrwt>
</event>
<event>
 4    1  0.2061941E-008  0.2662138E+03  0.7818608E-02  0.1103466E+00
          2   -1    0    0  501    0  0.00000000000E+00  0.00000000000E+00  0.15669445256E+04  0.15669445256E+04  0.25500000000E-02 0. -1.
         -2   -1    0    0    0  501 -0.00000000000E+00 -0.00000000000E+00 -0.86042942821E+03  0.86042942821E+03  0.25500000000E-02 0.  1.
    8880022    1    1    2    0    0  0.11583370344E+03 -0.18455542244E+03 -0.82810044355E+03  0.86983915089E+03  0.15294330000E+03 0.  0.
    8880022    1    1    2    0    0 -0.11583370344E+03  0.18455542244E+03  0.15346155409E+04  0.15575348029E+04  0.15294330000E+03 0. -1.
<mgrwt>
<rscale>  0 0.26621383E+03</rscale>
<asrwt>0</asrwt>
<pdfrwt beam="1">  1        2 0.24106839E+00 0.26621383E+03</pdfrwt>
<pdfrwt beam="2">  1       -2 0.13237376E+00 0.26621383E+03</pdfrwt>
<totfact> 0.55973794E+00</totfact>
</mgrwt>
</event>
<event>
 4    1  0.2061941E-008  0.1125422E+04  0.7818608E-02  0.9180762E-01
          2   -1    0    0  501    0  0.00000000000E+00  0.00000000000E+00  0.37479767839E+04  0.37479767839E+04  0.25500000000E-02 0. -1.
         -2   -1    0    0    0  501 -0.00000000000E+00 -0.00000000000E+00 -0.47302076260E+03  0.47302076261E+03  0.25500000000E-02 0.  1.
    8880022    1    1    2    0    0 -0.10225992628E+04  0.44438114264E+03  0.27653206704E+04  0.29855609047E+04  0.15294330000E+03 0.  0.
    8880022    1    1    2    0    0  0.10225992628E+04 -0.44438114264E+03  0.50963535093E+03  0.12354366419E+04  0.15294330000E+03 0.  0.
<mgrwt>
<rscale>  0 0.11254224E+04</rscale>
<asrwt>0</asrwt>
<pdfrwt beam="1">  1        2 0.57661182E+00 0.11254224E+04</pdfrwt>
<pdfrwt beam="2">  1       -2 0.72772424E-01 0.11254224E+04</pdfrwt>
<totfact> 0.93815283E-01</totfact>
</mgrwt>
</event>
<event>
 4    1  0.2061941E-008  0.7249578E+03  0.7818608E-02  0.9675478E-01
          2   -1    0    0  501    0  0.00000000000E+00  0.00000000000E+00  0.10450844903E+04  0.10450844903E+04  0.25500000000E-02 0. -1.
         -2   -1    0    0    0  501 -0.00000000000E+00 -0.00000000000E+00 -0.12517234853E+04  0.12517234853E+04  0.25500000000E-02 0.  1.
    8880022    1    1    2    0    0 -0.64581661858E+03 -0.29170708602E+03  0.78492550956E+03  0.10684904480E+04  0.15294330000E+03 0.  0.
    8880022    1    1    2    0    0  0.64581661858E+03  0.29170708602E+03 -0.99156450458E+03  0.12283175276E+04  0.15294330000E+03 0.  0.
<mgrwt>
<rscale>  0 0.72495778E+03</rscale>
<asrwt>0</asrwt>
<pdfrwt beam="1">  1        2 0.16078223E+00 0.72495778E+03</pdfrwt>
<pdfrwt beam="2">  1       -2 0.19257284E+00 0.72495778E+03</pdfrwt>
<totfact> 0.36086318E+00</totfact>
</mgrwt>
</event>
<event>
 4    1  0.2061941E-008  0.2094718E+03  0.7818608E-02  0.1141985E+00
          2   -1    0    0  501    0  0.00000000000E+00  0.00000000000E+00  0.88247995680E+03  0.88247995680E+03  0.25500000000E-02 0. -1.
         -2   -1    0    0    0  501 -0.00000000000E+00 -0.00000000000E+00 -0.48151211028E+03  0.48151211028E+03  0.25500000000E-02 0.  1.
    8880022    1    1    2    0    0 -0.14292485629E+03 -0.76978872062E+01  0.84630873478E+03  0.87184683264E+03  0.15294330000E+03 0.  0.
    8880022    1    1    2    0    0  0.14292485629E+03  0.76978872062E+01 -0.44534088826E+03  0.49214523444E+03  0.15294330000E+03 0.  1.
<mgrwt>
<rscale>  0 0.20947178E+03</rscale>
<asrwt>0</asrwt>
<pdfrwt beam="1">  1        2 0.13576614E+00 0.20947178E+03</pdfrwt>
<pdfrwt beam="2">  1       -2 0.74078788E-01 0.20947178E+03</pdfrwt>
<totfact> 0.54230664E+01</totfact>
</mgrwt>
</event>
<event>
 4    1  0.2061941E-008  0.1380716E+04  0.7818608E-02  0.8967897E-01
          2   -1    0    0  501    0  0.00000000000E+00  0.00000000000E+00  0.28270188614E+04  0.28270188614E+04  0.25500000000E-02 0. -1.
         -2   -1    0    0    0  501 -0.00000000000E+00 -0.00000000000E+00 -0.15460069458E+04  0.15460069458E+04  0.25500000000E-02 0.  1.
    8880022    1    1    2    0    0  0.75240347549E+03 -0.11475516886E+04 -0.10012973173E+04  0.17055714112E+04  0.15294330000E+03 0.  0.
    8880022    1    1    2    0    0 -0.75240347549E+03  0.11475516886E+04  0.22823092328E+04  0.26674543961E+04  0.15294330000E+03 0.  0.
<mgrwt>
<rscale>  0 0.13807163E+04</rscale>
<asrwt>0</asrwt>
<pdfrwt beam="1">  1        2 0.43492597E+00 0.13807163E+04</pdfrwt>
<pdfrwt beam="2">  1       -2 0.23784723E+00 0.13807163E+04</pdfrwt>
<totfact> 0.16240796E-01</totfact>
</mgrwt>
</event>
<event>
 4    1  0.2061941E-008  0.2151897E+04  0.7818608E-02  0.8538721E-01
          2   -1    0    0  501    0  0.00000000000E+00  0.00000000000E+00  0.21288899577E+04  0.21288899577E+04  0.25500000000E-02 0. -1.
         -2   -1    0    0    0  501 -0.00000000000E+00 -0.00000000000E+00 -0.30497763165E+04  0.30497763165E+04  0.25500000000E-02 0.  1.
    8880022    1    1    2    0    0  0.20215068665E+04  0.72164915535E+03  0.92619999673E+03  0.23427559843E+04  0.15294330000E+03 0.  0.
    8880022    1    1    2    0    0 -0.20215068665E+04 -0.72164915535E+03 -0.18470863556E+04  0.28359102900E+04  0.15294330000E+03 0.  0.
<mgrwt>
<rscale>  0 0.21518966E+04</rscale>
<asrwt>0</asrwt>
<pdfrwt beam="1">  1        2 0.32752153E+00 0.21518966E+04</pdfrwt>
<pdfrwt beam="2">  1       -2 0.46919636E+00 0.21518966E+04</pdfrwt>
<totfact> 0.12716679E-02</totfact>
</mgrwt>
</event>
<event>
 4    1  0.2061941E-008  0.8458560E+03  0.7818608E-02  0.9495916E-01
         -2   -1    0    0    0  501 -0.00000000000E+00  0.00000000000E+00  0.77954820736E+03  0.77954820736E+03  0.25500000000E-02 0.  1.
          2   -1    0    0  501    0  0.00000000000E+00 -0.00000000000E+00 -0.19895036020E+04  0.19895036020E+04  0.25500000000E-02 0. -1.
    8880022    1    1    2    0    0  0.73340807422E+03 -0.39267461784E+03  0.41118972823E+03  0.94050486678E+03  0.15294330000E+03 0.  0.
    8880022    1    1    2    0    0 -0.73340807422E+03  0.39267461784E+03 -0.16211451229E+04  0.18285469426E+04  0.15294330000E+03 0.  0.
<mgrwt>
<rscale>  0 0.84585602E+03</rscale>
<asrwt>0</asrwt>
<pdfrwt beam="1">  1        2 0.30607748E+00 0.84585602E+03</pdfrwt>
<pdfrwt beam="2">  1       -2 0.11993049E+00 0.84585602E+03</pdfrwt>
<totfact> 0.36742013E+00</totfact>
</mgrwt>
</event>
<event>
 4    1  0.2061941E-008  0.1038529E+04  0.7818608E-02  0.9267268E-01
          2   -1    0    0  501    0  0.00000000000E+00  0.00000000000E+00  0.17901973340E+04  0.17901973340E+04  0.25500000000E-02 0. -1.
         -2   -1    0    0    0  501 -0.00000000000E+00 -0.00000000000E+00 -0.14593822586E+04  0.14593822586E+04  0.25500000000E-02 0.  1.
    8880022    1    1    2    0    0 -0.88076573099E+03  0.52858609710E+03 -0.10796241503E+04  0.14980425541E+04  0.15294330000E+03 0.  0.
    8880022    1    1    2    0    0  0.88076573099E+03 -0.52858609710E+03  0.14104392256E+04  0.17515370385E+04  0.15294330000E+03 0.  0.
<mgrwt>
<rscale>  0 0.10385293E+04</rscale>
<asrwt>0</asrwt>
<pdfrwt beam="1">  1        2 0.27541498E+00 0.10385293E+04</pdfrwt>
<pdfrwt beam="2">  1       -2 0.22452035E+00 0.10385293E+04</pdfrwt>
<totfact> 0.80233959E-01</totfact>
</mgrwt>
</event>
<event>
 4    1  0.2061941E-008  0.7657723E+03  0.7818608E-02  0.9610926E-01
          2   -1    0    0  501    0  0.00000000000E+00  0.00000000000E+00  0.26838196981E+04  0.26838196981E+04  0.25500000000E-02 0. -1.
         -2   -1    0    0    0  501 -0.00000000000E+00 -0.00000000000E+00 -0.58617743009E+03  0.58617743009E+03  0.25500000000E-02 0.  1.
    8880022    1    1    2    0    0 -0.56642401823E+03  0.49211725891E+03 -0.24608396318E+03  0.80434105632E+03  0.15294330000E+03 0.  0.
    8880022    1    1    2    0    0  0.56642401823E+03 -0.49211725891E+03  0.23437262312E+04  0.24656560719E+04  0.15294330000E+03 0.  0.
<mgrwt>
<rscale>  0 0.76577230E+03</rscale>
<asrwt>0</asrwt>
<pdfrwt beam="1">  1        2 0.41289534E+00 0.76577230E+03</pdfrwt>
<pdfrwt beam="2">  1       -2 0.90181143E-01 0.76577230E+03</pdfrwt>
<totfact> 0.30073613E+00</totfact>
</mgrwt>
</event>
<event>
 4    1  0.2061941E-008  0.2894401E+03  0.7818608E-02  0.1090642E+00
          2   -1    0    0  501    0  0.00000000000E+00  0.00000000000E+00  0.50936736914E+03  0.50936736915E+03  0.25500000000E-02 0. -1.
         -2   -1    0    0    0  501 -0.00000000000E+00 -0.00000000000E+00 -0.53776341074E+03  0.53776341075E+03  0.25500000000E-02 0.  1.
    8880022    1    1    2    0    0 -0.22446721836E+03 -0.99991886541E+02  0.42201695207E+03  0.51173613351E+03  0.15294330000E+03 0.  0.
    8880022    1    1    2    0    0  0.22446721836E+03  0.99991886541E+02 -0.45041299367E+03  0.53539464638E+03  0.15294330000E+03 0.  0.
<mgrwt>
<rscale>  0 0.28944008E+03</rscale>
<asrwt>0</asrwt>
<pdfrwt beam="1">  1        2 0.78364210E-01 0.28944008E+03</pdfrwt>
<pdfrwt beam="2">  1       -2 0.82732833E-01 0.28944008E+03</pdfrwt>
<totfact> 0.81294354E+01</totfact>
</mgrwt>
</event>
<event>
 4    1  0.2061941E-008  0.4131733E+03  0.7818608E-02  0.1039311E+00
          2   -1    0    0  501    0  0.00000000000E+00  0.00000000000E+00  0.94654214291E+03  0.94654214292E+03  0.25500000000E-02 0. -1.
         -2   -1    0    0    0  501 -0.00000000000E+00 -0.00000000000E+00 -0.46179359175E+03  0.46179359176E+03  0.25500000000E-02 0.  1.
    8880022    1    1    2    0    0 -0.36439971542E+03  0.12055433059E+03 -0.30735044061E+03  0.51495285763E+03  0.15294330000E+03 0.  0.
    8880022    1    1    2    0    0  0.36439971542E+03 -0.12055433059E+03  0.79209899177E+03  0.89338287705E+03  0.15294330000E+03 0. -1.
<mgrwt>
<rscale>  0 0.41317327E+03</rscale>
<asrwt>0</asrwt>
<pdfrwt beam="1">  1        2 0.14562187E+00 0.41317327E+03</pdfrwt>
<pdfrwt beam="2">  1       -2 0.71045169E-01 0.41317327E+03</pdfrwt>
<totfact> 0.51773505E+01</totfact>
</mgrwt>
</event>
<event>
 4    1  0.2061941E-008  0.8052957E+03  0.7818608E-02  0.9552383E-01
          2   -1    0    0  501    0  0.00000000000E+00  0.00000000000E+00  0.48140219513E+04  0.48140219513E+04  0.25500000000E-02 0. -1.
         -2   -1    0    0    0  501 -0.00000000000E+00 -0.00000000000E+00 -0.69495103494E+03  0.69495103494E+03  0.25500000000E-02 0.  1.
    8880022    1    1    2    0    0 -0.36186306106E+03  0.70296848617E+03 -0.41361565844E+03  0.90530609930E+03  0.15294330000E+03 0.  0.
    8880022    1    1    2    0    0  0.36186306106E+03 -0.70296848617E+03  0.45326865748E+04  0.46036668870E+04  0.15294330000E+03 0.  0.
<mgrwt>
<rscale>  0 0.80529573E+03</rscale>
<asrwt>0</asrwt>
<pdfrwt beam="1">  1        2 0.74061878E+00 0.80529573E+03</pdfrwt>
<pdfrwt beam="2">  1       -2 0.10691554E+00 0.80529573E+03</pdfrwt>
<totfact> 0.46396579E-02</totfact>
</mgrwt>
</event>
<event>
 4    1  0.2061941E-008  0.7715582E+03  0.7818608E-02  0.9602123E-01
         -2   -1    0    0    0  501 -0.00000000000E+00  0.00000000000E+00  0.93862388218E+03  0.93862388218E+03  0.25500000000E-02 0.  1.
          2   -1    0    0  501    0  0.00000000000E+00 -0.00000000000E+00 -0.14742882181E+04  0.14742882181E+04  0.25500000000E-02 0. -1.
    8880022    1    1    2    0    0  0.74207371383E+03 -0.14572944840E+03  0.64286787999E+03  0.10042814511E+04  0.15294330000E+03 0.  0.
    8880022    1    1    2    0    0 -0.74207371383E+03  0.14572944840E+03 -0.11785322159E+04  0.14086306492E+04  0.15294330000E+03 0.  0.
<mgrwt>
<rscale>  0 0.77155824E+03</rscale>
<asrwt>0</asrwt>
<pdfrwt beam="1">  1        2 0.22681357E+00 0.77155824E+03</pdfrwt>
<pdfrwt beam="2">  1       -2 0.14440367E+00 0.77155824E+03</pdfrwt>
<totfact> 0.44455138E+00</totfact>
</mgrwt>
</event>
<event>
 4    1  0.2061941E-008  0.1036168E+04  0.7818608E-02  0.9269743E-01
          2   -1    0    0  501    0  0.00000000000E+00  0.00000000000E+00  0.24739230648E+04  0.24739230648E+04  0.25500000000E-02 0. -1.
         -2   -1    0    0    0  501 -0.00000000000E+00 -0.00000000000E+00 -0.56116884908E+03  0.56116884909E+03  0.25500000000E-02 0.  1.
    8880022    1    1    2    0    0  0.86786906851E+03  0.54502760791E+03  0.23391934667E+03  0.10622437231E+04  0.15294330000E+03 0.  0.
    8880022    1    1    2    0    0 -0.86786906851E+03 -0.54502760791E+03  0.16788348690E+04  0.19728481908E+04  0.15294330000E+03 0.  0.
<mgrwt>
<rscale>  0 0.10361677E+04</rscale>
<asrwt>0</asrwt>
<pdfrwt beam="1">  1        2 0.38060355E+00 0.10361677E+04</pdfrwt>
<pdfrwt beam="2">  1       -2 0.86333668E-01 0.10361677E+04</pdfrwt>
<totfact> 0.42096966E+00</totfact>
</mgrwt>
</event>
<event>
 4    1  0.2061941E-008  0.2336904E+03  0.7818608E-02  0.1124069E+00
          2   -1    0    0  501    0  0.00000000000E+00  0.00000000000E+00  0.41569642026E+03  0.41569642026E+03  0.25500000000E-02 0. -1.
         -2   -1    0    0    0  501 -0.00000000000E+00 -0.00000000000E+00 -0.29223382400E+03  0.29223382401E+03  0.25500000000E-02 0.  1.
    8880022    1    1    2    0    0  0.10799045866E+03 -0.13984846450E+03 -0.20088441140E+03  0.30816510501E+03  0.15294330000E+03 0.  1.
    8880022    1    1    2    0    0 -0.10799045866E+03  0.13984846450E+03  0.32434700766E+03  0.39976513927E+03  0.15294330000E+03 0.  0.
<mgrwt>
<rscale>  0 0.23369036E+03</rscale>
<asrwt>0</asrwt>
<pdfrwt beam="1">  1        2 0.63953295E-01 0.23369036E+03</pdfrwt>
<pdfrwt beam="2">  1       -2 0.44959050E-01 0.23369036E+03</pdfrwt>
<totfact> 0.36599356E+02</totfact>
</mgrwt>
</event>
<event>
 4    1  0.2061941E-008  0.9173175E+03  0.7818608E-02  0.9404189E-01
          2   -1    0    0  501    0  0.00000000000E+00  0.00000000000E+00  0.13692941003E+04  0.13692941003E+04  0.25500000000E-02 0. -1.
         -2   -1    0    0    0  501 -0.00000000000E+00 -0.00000000000E+00 -0.19883300747E+04  0.19883300747E+04  0.25500000000E-02 0.  1.
    8880022    1    1    2    0    0  0.32475305168E+03 -0.84416535527E+03 -0.17049854835E+04  0.19360906083E+04  0.15294330000E+03 0.  0.
    8880022    1    1    2    0    0 -0.32475305168E+03  0.84416535527E+03  0.10859495092E+04  0.14215335667E+04  0.15294330000E+03 0.  0.
<mgrwt>
<rscale>  0 0.91731747E+03</rscale>
<asrwt>0</asrwt>
<pdfrwt beam="1">  1        2 0.21066063E+00 0.91731747E+03</pdfrwt>
<pdfrwt beam="2">  1       -2 0.30589694E+00 0.91731747E+03</pdfrwt>
<totfact> 0.44938678E-01</totfact>
</mgrwt>
</event>
<event>
 4    1  0.2061941E-008  0.6364461E+03  0.7818608E-02  0.9832550E-01
         -2   -1    0    0    0  501 -0.00000000000E+00  0.00000000000E+00  0.70749541969E+03  0.70749541970E+03  0.25500000000E-02 0.  1.
          2   -1    0    0  501    0  0.00000000000E+00 -0.00000000000E+00 -0.68718352625E+03  0.68718352625E+03  0.25500000000E-02 0. -1.
    8880022    1    1    2    0    0 -0.50817789352E+03  0.35132209580E+03 -0.27468219427E+03  0.69319113333E+03  0.15294330000E+03 0. -1.
    8880022    1    1    2    0    0  0.50817789352E+03 -0.35132209580E+03  0.29499408771E+03  0.70148781262E+03  0.15294330000E+03 0.  0.
<mgrwt>
<rscale>  0 0.63644610E+03</rscale>
<asrwt>0</asrwt>
<pdfrwt beam="1">  1        2 0.10572054E+00 0.63644610E+03</pdfrwt>
<pdfrwt beam="2">  1       -2 0.10884545E+00 0.63644610E+03</pdfrwt>
<totfact> 0.28951690E+01</totfact>
</mgrwt>
</event>
<event>
 4    1  0.2061941E-008  0.4324445E+03  0.7818608E-02  0.1033091E+00
         -2   -1    0    0    0  501 -0.00000000000E+00  0.00000000000E+00  0.17283486926E+03  0.17283486928E+03  0.25500000000E-02 0.  1.
          2   -1    0    0  501    0  0.00000000000E+00 -0.00000000000E+00 -0.31766278936E+04  0.31766278936E+04  0.25500000000E-02 0. -1.
    8880022    1    1    2    0    0 -0.14520628773E+03 -0.37753375234E+03 -0.14197177891E+03  0.45515298436E+03  0.15294330000E+03 0.  0.
    8880022    1    1    2    0    0  0.14520628773E+03  0.37753375234E+03 -0.28618212455E+04  0.28943097785E+04  0.15294330000E+03 0.  0.
<mgrwt>
<rscale>  0 0.43244451E+03</rscale>
<asrwt>0</asrwt>
<pdfrwt beam="1">  1        2 0.48871194E+00 0.43244451E+03</pdfrwt>
<pdfrwt beam="2">  1       -2 0.26589982E-01 0.43244451E+03</pdfrwt>
<totfact> 0.19693336E+01</totfact>
</mgrwt>
</event>
<event>
 4    1  0.2061941E-008  0.3630319E+03  0.7818608E-02  0.1057390E+00
          2   -1    0    0  501    0  0.00000000000E+00  0.00000000000E+00  0.70185731240E+03  0.70185731240E+03  0.25500000000E-02 0. -1.
         -2   -1    0    0    0  501 -0.00000000000E+00 -0.00000000000E+00 -0.77655073668E+03  0.77655073668E+03  0.25500000000E-02 0.  1.
    8880022    1    1    2    0    0 -0.68042085897E+02 -0.32213474390E+03 -0.68100279249E+03  0.77172337989E+03  0.15294330000E+03 0.  0.
    8880022    1    1    2    0    0  0.68042085897E+02  0.32213474390E+03  0.60630936821E+03  0.70668466920E+03  0.15294330000E+03 0.  0.
<mgrwt>
<rscale>  0 0.36303192E+03</rscale>
<asrwt>0</asrwt>
<pdfrwt beam="1">  1        2 0.10797805E+00 0.36303192E+03</pdfrwt>
<pdfrwt beam="2">  1       -2 0.11946935E+00 0.36303192E+03</pdfrwt>
<totfact> 0.23358070E+01</totfact>
</mgrwt>
</event>
<event>
 4    1  0.2061941E-008  0.3714497E+03  0.7818608E-02  0.1054140E+00
          2   -1    0    0  501    0  0.00000000000E+00  0.00000000000E+00  0.38757565638E+03  0.38757565639E+03  0.25500000000E-02 0. -1.
         -2   -1    0    0    0  501 -0.00000000000E+00 -0.00000000000E+00 -0.11927601600E+04  0.11927601600E+04  0.25500000000E-02 0.  1.
    8880022    1    1    2    0    0 -0.32454274252E+03  0.96204085021E+02 -0.10644195912E+04  0.11273703636E+04  0.15294330000E+03 0.  0.
    8880022    1    1    2    0    0  0.32454274252E+03 -0.96204085021E+02  0.25923508760E+03  0.45296545272E+03  0.15294330000E+03 0.  0.
<mgrwt>
<rscale>  0 0.37144969E+03</rscale>
<asrwt>0</asrwt>
<pdfrwt beam="1">  1        2 0.59627025E-01 0.37144969E+03</pdfrwt>
<pdfrwt beam="2">  1       -2 0.18350156E+00 0.37144969E+03</pdfrwt>
<totfact> 0.15078851E+01</totfact>
</mgrwt>
</event>
<event>
 4    1  0.2061941E-008  0.4858133E+03  0.7818608E-02  0.1017550E+00
          2   -1    0    0  501    0  0.00000000000E+00  0.00000000000E+00  0.22098721970E+04  0.22098721970E+04  0.25500000000E-02 0. -1.
         -2   -1    0    0    0  501 -0.00000000000E+00 -0.00000000000E+00 -0.37500201281E+03  0.37500201282E+03  0.25500000000E-02 0.  1.
    8880022    1    1    2    0    0  0.43395997565E+03  0.15588974192E+03  0.20104436715E+04  0.20683080722E+04  0.15294330000E+03 0.  0.
    8880022    1    1    2    0    0 -0.43395997565E+03 -0.15588974192E+03 -0.17557348731E+03  0.51656613765E+03  0.15294330000E+03 0.  1.
<mgrwt>
<rscale>  0 0.48581326E+03</rscale>
<asrwt>0</asrwt>
<pdfrwt beam="1">  1        2 0.33998033E+00 0.48581326E+03</pdfrwt>
<pdfrwt beam="2">  1       -2 0.57692618E-01 0.48581326E+03</pdfrwt>
<totfact> 0.15668193E+01</totfact>
</mgrwt>
</event>
<event>
 4    1  0.2061941E-008  0.1940931E+04  0.7818608E-02  0.8634746E-01
         -2   -1    0    0    0  501 -0.00000000000E+00  0.00000000000E+00  0.23937649194E+04  0.23937649194E+04  0.25500000000E-02 0.  1.
          2   -1    0    0  501    0  0.00000000000E+00 -0.00000000000E+00 -0.39845035207E+04  0.39845035207E+04  0.25500000000E-02 0. -1.
    8880022    1    1    2    0    0 -0.24539461106E+03 -0.19192717713E+04  0.16852555388E+04  0.25704669870E+04  0.15294330000E+03 0.  0.
    8880022    1    1    2    0    0  0.24539461106E+03  0.19192717713E+04 -0.32759941401E+04  0.38078014531E+04  0.15294330000E+03 0.  0.
<mgrwt>
<rscale>  0 0.19409313E+04</rscale>
<asrwt>0</asrwt>
<pdfrwt beam="1">  1        2 0.61300054E+00 0.19409313E+04</pdfrwt>
<pdfrwt beam="2">  1       -2 0.36827153E+00 0.19409313E+04</pdfrwt>
<totfact> 0.37359623E-03</totfact>
</mgrwt>
</event>
<event>
 4    1  0.2061941E-008  0.9586408E+03  0.7818608E-02  0.9355107E-01
         -2   -1    0    0    0  501 -0.00000000000E+00  0.00000000000E+00  0.10389887869E+04  0.10389887869E+04  0.25500000000E-02 0.  1.
          2   -1    0    0  501    0  0.00000000000E+00 -0.00000000000E+00 -0.13303905673E+04  0.13303905673E+04  0.25500000000E-02 0. -1.
    8880022    1    1    2    0    0 -0.90902571006E+03 -0.26319729869E+03 -0.83154602202E+03  0.12690394002E+04  0.15294330000E+03 0.  0.
    8880022    1    1    2    0    0  0.90902571006E+03  0.26319729869E+03  0.54014424165E+03  0.11003399540E+04  0.15294330000E+03 0.  0.
<mgrwt>
<rscale>  0 0.95864082E+03</rscale>
<asrwt>0</asrwt>
<pdfrwt beam="1">  1        2 0.20467547E+00 0.95864082E+03</pdfrwt>
<pdfrwt beam="2">  1       -2 0.15984443E+00 0.95864082E+03</pdfrwt>
<totfact> 0.39939531E+00</totfact>
</mgrwt>
</event>
<event>
 4    1  0.2061941E-008  0.3894416E+03  0.7818608E-02  0.1047498E+00
          2   -1    0    0  501    0  0.00000000000E+00  0.00000000000E+00  0.63443026687E+03  0.63443026687E+03  0.25500000000E-02 0. -1.
         -2   -1    0    0    0  501 -0.00000000000E+00 -0.00000000000E+00 -0.47950003953E+03  0.47950003954E+03  0.25500000000E-02 0.  1.
    8880022    1    1    2    0    0 -0.49475957656E+02  0.35471854727E+03  0.47186803737E+03  0.61182041146E+03  0.15294330000E+03 0.  0.
    8880022    1    1    2    0    0  0.49475957656E+02 -0.35471854727E+03 -0.31693781003E+03  0.50210989495E+03  0.15294330000E+03 0.  0.
<mgrwt>
<rscale>  0 0.38944161E+03</rscale>
<asrwt>0</asrwt>
<pdfrwt beam="1">  1        2 0.97604656E-01 0.38944161E+03</pdfrwt>
<pdfrwt beam="2">  1       -2 0.73769237E-01 0.38944161E+03</pdfrwt>
<totfact> 0.80099237E+01</totfact>
</mgrwt>
</event>
<event>
 4    1  0.2061941E-008  0.8814493E+03  0.7818608E-02  0.9449072E-01
         -2   -1    0    0    0  501 -0.00000000000E+00  0.00000000000E+00  0.47467051539E+03  0.47467051540E+03  0.25500000000E-02 0.  1.
          2   -1    0    0  501    0  0.00000000000E+00 -0.00000000000E+00 -0.22836703038E+04  0.22836703038E+04  0.25500000000E-02 0. -1.
    8880022    1    1    2    0    0 -0.76216402012E+03 -0.41553245752E+03 -0.16385086298E+04  0.18605545947E+04  0.15294330000E+03 0.  0.
    8880022    1    1    2    0    0  0.76216402012E+03  0.41553245752E+03 -0.17049115864E+03  0.89778622456E+03  0.15294330000E+03 0.  0.
<mgrwt>
<rscale>  0 0.88144930E+03</rscale>
<asrwt>0</asrwt>
<pdfrwt beam="1">  1        2 0.35133389E+00 0.88144930E+03</pdfrwt>
<pdfrwt beam="2">  1       -2 0.73026234E-01 0.88144930E+03</pdfrwt>
<totfact> 0.80215396E+00</totfact>
</mgrwt>
</event>
<event>
 4    1  0.2061941E-008  0.1863452E+03  0.7818608E-02  0.1161800E+00
         -2   -1    0    0    0  501 -0.00000000000E+00  0.00000000000E+00  0.17619583705E+03  0.17619583707E+03  0.25500000000E-02 0.  1.
          2   -1    0    0  501    0  0.00000000000E+00 -0.00000000000E+00 -0.33710854467E+03  0.33710854468E+03  0.25500000000E-02 0. -1.
    8880022    1    1    2    0    0  0.93644828983E+02 -0.50631254811E+02  0.84956652851E+02  0.20479786092E+03  0.15294330000E+03 0.  0.
    8880022    1    1    2    0    0 -0.93644828983E+02  0.50631254811E+02 -0.24586936047E+03  0.30850652083E+03  0.15294330000E+03 0. -1.
<mgrwt>
<rscale>  0 0.18634519E+03</rscale>
<asrwt>0</asrwt>
<pdfrwt beam="1">  1        2 0.51862853E-01 0.18634519E+03</pdfrwt>
<pdfrwt beam="2">  1       -2 0.27107052E-01 0.18634519E+03</pdfrwt>
<totfact> 0.11775992E+03</totfact>
</mgrwt>
</event>
<event>
 4    1  0.2061941E-008  0.5478794E+03  0.7818608E-02  0.1001986E+00
          2   -1    0    0  501    0  0.00000000000E+00  0.00000000000E+00  0.31398644276E+04  0.31398644276E+04  0.25500000000E-02 0. -1.
         -2   -1    0    0    0  501 -0.00000000000E+00 -0.00000000000E+00 -0.27807171577E+03  0.27807171578E+03  0.25500000000E-02 0.  1.
    8880022    1    1    2    0    0 -0.47827818703E+03 -0.21915796234E+03  0.46523752012E+02  0.54985120639E+03  0.15294330000E+03 0.  0.
    8880022    1    1    2    0    0  0.47827818703E+03  0.21915796234E+03  0.28152689599E+04  0.28680849370E+04  0.15294330000E+03 0.  0.
<mgrwt>
<rscale>  0 0.54787945E+03</rscale>
<asrwt>0</asrwt>
<pdfrwt beam="1">  1        2 0.48305608E+00 0.54787945E+03</pdfrwt>
<pdfrwt beam="2">  1       -2 0.42780262E-01 0.54787945E+03</pdfrwt>
<totfact> 0.82148805E+00</totfact>
</mgrwt>
</event>
<event>
 4    1  0.2061941E-008  0.8937951E+03  0.7818608E-02  0.9433371E-01
          2   -1    0    0  501    0  0.00000000000E+00  0.00000000000E+00  0.26032786272E+04  0.26032786272E+04  0.25500000000E-02 0. -1.
         -2   -1    0    0    0  501 -0.00000000000E+00 -0.00000000000E+00 -0.49026657063E+03  0.49026657064E+03  0.25500000000E-02 0.  1.
    8880022    1    1    2    0    0  0.81369618586E+03 -0.33671435489E+03  0.11047535966E+03  0.90059674538E+03  0.15294330000E+03 0.  0.
    8880022    1    1    2    0    0 -0.81369618586E+03  0.33671435489E+03  0.20025366969E+04  0.21929484525E+04  0.15294330000E+03 0.  0.
<mgrwt>
<rscale>  0 0.89379511E+03</rscale>
<asrwt>0</asrwt>
<pdfrwt beam="1">  1        2 0.40050441E+00 0.89379511E+03</pdfrwt>
<pdfrwt beam="2">  1       -2 0.75425626E-01 0.89379511E+03</pdfrwt>
<totfact> 0.49119458E+00</totfact>
</mgrwt>
</event>
<event>
 4    1  0.2061941E-008  0.1382939E+04  0.7818608E-02  0.8966262E-01
         -2   -1    0    0    0  501 -0.00000000000E+00  0.00000000000E+00  0.94650924810E+03  0.94650924811E+03  0.25500000000E-02 0.  1.
          2   -1    0    0  501    0  0.00000000000E+00 -0.00000000000E+00 -0.29102536990E+04  0.29102536990E+04  0.25500000000E-02 0. -1.
    8880022    1    1    2    0    0  0.13734377762E+04  0.52885007832E+02  0.84324122812E+02  0.13855072572E+04  0.15294330000E+03 0.  0.
    8880022    1    1    2    0    0 -0.13734377762E+04 -0.52885007832E+02 -0.20480685737E+04  0.24712556899E+04  0.15294330000E+03 0.  0.
<mgrwt>
<rscale>  0 0.13829388E+04</rscale>
<asrwt>0</asrwt>
<pdfrwt beam="1">  1        2 0.44773133E+00 0.13829388E+04</pdfrwt>
<pdfrwt beam="2">  1       -2 0.14561681E+00 0.13829388E+04</pdfrwt>
<totfact> 0.61638168E-01</totfact>
</mgrwt>
</event>
<event>
 4    1  0.2061941E-008  0.1567133E+03  0.7818608E-02  0.1192458E+00
         -2   -1    0    0    0  501 -0.00000000000E+00  0.00000000000E+00  0.14749572076E+03  0.14749572078E+03  0.25500000000E-02 0.  1.
          2   -1    0    0  501    0  0.00000000000E+00 -0.00000000000E+00 -0.95892241942E+03  0.95892241942E+03  0.25500000000E-02 0. -1.
    8880022    1    1    2    0    0 -0.27638885132E+02 -0.20087342202E+02 -0.90860454100E+03  0.92202021357E+03  0.15294330000E+03 0. -1.
    8880022    1    1    2    0    0  0.27638885132E+02  0.20087342202E+02  0.97177842346E+02  0.18439792663E+03  0.15294330000E+03 0.  0.
<mgrwt>
<rscale>  0 0.15671331E+03</rscale>
<asrwt>0</asrwt>
<pdfrwt beam="1">  1        2 0.14752652E+00 0.15671331E+03</pdfrwt>
<pdfrwt beam="2">  1       -2 0.22691650E-01 0.15671331E+03</pdfrwt>
<totfact> 0.47815556E+02</totfact>
</mgrwt>
</event>
<event>
 4    1  0.2061941E-008  0.7612899E+03  0.7818608E-02  0.9617803E-01
         -2   -1    0    0    0  501 -0.00000000000E+00  0.00000000000E+00  0.84294257197E+03  0.84294257198E+03  0.25500000000E-02 0.  1.
          2   -1    0    0  501    0  0.00000000000E+00 -0.00000000000E+00 -0.16638229443E+04  0.16638229443E+04  0.25500000000E-02 0. -1.
    8880022    1    1    2    0    0  0.55424054426E+03 -0.49898699837E+03 -0.13705403760E+04  0.15677828869E+04  0.15294330000E+03 0.  0.
    8880022    1    1    2    0    0 -0.55424054426E+03  0.49898699837E+03  0.54966000368E+03  0.93898262929E+03  0.15294330000E+03 0.  1.
<mgrwt>
<rscale>  0 0.76128986E+03</rscale>
<asrwt>0</asrwt>
<pdfrwt beam="1">  1        2 0.25597276E+00 0.76128986E+03</pdfrwt>
<pdfrwt beam="2">  1       -2 0.12968347E+00 0.76128986E+03</pdfrwt>
<totfact> 0.46105011E+00</totfact>
</mgrwt>
</event>
<event>
 4    1  0.2590985E-008  0.6590591E+03  0.7818608E-02  0.9789927E-01
         -2   -1    0    0    0  501 -0.00000000000E+00  0.00000000000E+00  0.13815943565E+04  0.13815943565E+04  0.25500000000E-02 0.  1.
          2   -1    0    0  501    0  0.00000000000E+00 -0.00000000000E+00 -0.24795121524E+04  0.24795121524E+04  0.25500000000E-02 0. -1.
    8880022    1    1    2    0    0 -0.73446854874E+02 -0.63684597784E+03 -0.23529729155E+04  0.24435303219E+04  0.15294330000E+03 0.  0.
    8880022    1    1    2    0    0  0.73446854874E+02  0.63684597784E+03  0.12550551195E+04  0.14175761870E+04  0.15294330000E+03 0.  0.
<mgrwt>
<rscale>  0 0.65905910E+03</rscale>
<asrwt>0</asrwt>
<pdfrwt beam="1">  1        2 0.38146341E+00 0.65905910E+03</pdfrwt>
<pdfrwt beam="2">  1       -2 0.21255298E+00 0.65905910E+03</pdfrwt>
<totfact> 0.42792195E-01</totfact>
</mgrwt>
</event>
<event>
 4    1  0.2061941E-008  0.7361390E+03  0.7818608E-02  0.9657350E-01
         -2   -1    0    0    0  501 -0.00000000000E+00  0.00000000000E+00  0.29923836755E+03  0.29923836756E+03  0.25500000000E-02 0.  1.
          2   -1    0    0  501    0  0.00000000000E+00 -0.00000000000E+00 -0.32420038231E+04  0.32420038231E+04  0.25500000000E-02 0. -1.
    8880022    1    1    2    0    0  0.47742211975E+03 -0.53905207023E+03 -0.26477675691E+04  0.27481946379E+04  0.15294330000E+03 0.  0.
    8880022    1    1    2    0    0 -0.47742211975E+03  0.53905207023E+03 -0.29499788640E+03  0.79304755270E+03  0.15294330000E+03 0.  1.
<mgrwt>
<rscale>  0 0.73613903E+03</rscale>
<asrwt>0</asrwt>
<pdfrwt beam="1">  1        2 0.49876979E+00 0.73613903E+03</pdfrwt>
<pdfrwt beam="2">  1       -2 0.46036674E-01 0.73613903E+03</pdfrwt>
<totfact> 0.58624856E+00</totfact>
</mgrwt>
</event>
<event>
 4    1  0.2061941E-008  0.6216851E+03  0.7818608E-02  0.9861410E-01
         -2   -1    0    0    0  501 -0.00000000000E+00  0.00000000000E+00  0.71763223402E+03  0.71763223402E+03  0.25500000000E-02 0.  1.
          2   -1    0    0  501    0  0.00000000000E+00 -0.00000000000E+00 -0.10828643536E+04  0.10828643536E+04  0.25500000000E-02 0. -1.
    8880022    1    1    2    0    0  0.53566158018E+03  0.27598431687E+03 -0.82087041486E+03  0.10297186813E+04  0.15294330000E+03 0.  0.
    8880022    1    1    2    0    0 -0.53566158018E+03 -0.27598431687E+03  0.45563829531E+03  0.77077790628E+03  0.15294330000E+03 0.  0.
<mgrwt>
<rscale>  0 0.62168507E+03</rscale>
<asrwt>0</asrwt>
<pdfrwt beam="1">  1        2 0.16659452E+00 0.62168507E+03</pdfrwt>
<pdfrwt beam="2">  1       -2 0.11040496E+00 0.62168507E+03</pdfrwt>
<totfact> 0.15036821E+01</totfact>
</mgrwt>
</event>
<event>
 4    1  0.2061941E-008  0.7743258E+03  0.7818608E-02  0.9597941E-01
         -2   -1    0    0    0  501 -0.00000000000E+00  0.00000000000E+00  0.50811014553E+03  0.50811014554E+03  0.25500000000E-02 0.  1.
          2   -1    0    0  501    0  0.00000000000E+00 -0.00000000000E+00 -0.19095551915E+04  0.19095551915E+04  0.25500000000E-02 0. -1.
    8880022    1    1    2    0    0 -0.56294242660E+03 -0.50920001228E+03 -0.14478986724E+04  0.16419473337E+04  0.15294330000E+03 0.  0.
    8880022    1    1    2    0    0  0.56294242660E+03  0.50920001228E+03  0.46453626475E+02  0.77571800327E+03  0.15294330000E+03 0.  0.
<mgrwt>
<rscale>  0 0.77432582E+03</rscale>
<asrwt>0</asrwt>
<pdfrwt beam="1">  1        2 0.29377772E+00 0.77432582E+03</pdfrwt>
<pdfrwt beam="2">  1       -2 0.78170792E-01 0.77432582E+03</pdfrwt>
<totfact> 0.11244014E+01</totfact>
</mgrwt>
</event>
<event>
 4    1  0.2061941E-008  0.7187373E+03  0.7818608E-02  0.9685715E-01
          2   -1    0    0  501    0  0.00000000000E+00  0.00000000000E+00  0.22490751557E+04  0.22490751557E+04  0.25500000000E-02 0. -1.
         -2   -1    0    0    0  501 -0.00000000000E+00 -0.00000000000E+00 -0.35706576057E+03  0.35706576058E+03  0.25500000000E-02 0.  1.
    8880022    1    1    2    0    0  0.55235006905E+03 -0.43370614275E+03  0.16771309132E+03  0.73804535840E+03  0.15294330000E+03 0.  0.
    8880022    1    1    2    0    0 -0.55235006905E+03  0.43370614275E+03  0.17242963038E+04  0.18680955579E+04  0.15294330000E+03 0.  0.
<mgrwt>
<rscale>  0 0.71873727E+03</rscale>
<asrwt>0</asrwt>
<pdfrwt beam="1">  1        2 0.34601157E+00 0.71873727E+03</pdfrwt>
<pdfrwt beam="2">  1       -2 0.54933193E-01 0.71873727E+03</pdfrwt>
<totfact> 0.15788608E+01</totfact>
</mgrwt>
</event>
<event>
 4    1  0.2061941E-008  0.3752184E+03  0.7818608E-02  0.1052715E+00
         -2   -1    0    0    0  501 -0.00000000000E+00  0.00000000000E+00  0.73328169459E+03  0.73328169460E+03  0.25500000000E-02 0.  1.
          2   -1    0    0  501    0  0.00000000000E+00 -0.00000000000E+00 -0.42626082079E+03  0.42626082080E+03  0.25500000000E-02 0. -1.
    8880022    1    1    2    0    0  0.48340187578E+01  0.34259862655E+03 -0.27629348877E+03  0.46596880969E+03  0.15294330000E+03 0.  0.
    8880022    1    1    2    0    0 -0.48340187578E+01 -0.34259862655E+03  0.58331436257E+03  0.69357370571E+03  0.15294330000E+03 0.  0.
<mgrwt>
<rscale>  0 0.37521839E+03</rscale>
<asrwt>0</asrwt>
<pdfrwt beam="1">  1        2 0.65578589E-01 0.37521839E+03</pdfrwt>
<pdfrwt beam="2">  1       -2 0.11281257E+00 0.37521839E+03</pdfrwt>
<totfact> 0.47806992E+01</totfact>
</mgrwt>
</event>
<event>
 4    1  0.2061941E-008  0.9614089E+03  0.7818608E-02  0.9351914E-01
          2   -1    0    0  501    0  0.00000000000E+00  0.00000000000E+00  0.23366130663E+04  0.23366130663E+04  0.25500000000E-02 0. -1.
         -2   -1    0    0    0  501 -0.00000000000E+00 -0.00000000000E+00 -0.81389907907E+03  0.81389907908E+03  0.25500000000E-02 0.  1.
    8880022    1    1    2    0    0 -0.66072213005E+03  0.68144090285E+03  0.18906899709E+04  0.21210883188E+04  0.15294330000E+03 0.  0.
    8880022    1    1    2    0    0  0.66072213005E+03 -0.68144090285E+03 -0.36797598363E+03  0.10294238266E+04  0.15294330000E+03 0.  0.
<mgrwt>
<rscale>  0 0.96140891E+03</rscale>
<asrwt>0</asrwt>
<pdfrwt beam="1">  1        2 0.35947893E+00 0.96140891E+03</pdfrwt>
<pdfrwt beam="2">  1       -2 0.12521524E+00 0.96140891E+03</pdfrwt>
<totfact> 0.20826678E+00</totfact>
</mgrwt>
</event>
<event>
 4    1  0.2061941E-008  0.6474420E+03  0.7818608E-02  0.9811591E-01
         -2   -1    0    0    0  501 -0.00000000000E+00  0.00000000000E+00  0.37016240233E+03  0.37016240234E+03  0.25500000000E-02 0.  1.
          2   -1    0    0  501    0  0.00000000000E+00 -0.00000000000E+00 -0.16289604717E+04  0.16289604717E+04  0.25500000000E-02 0. -1.
    8880022    1    1    2    0    0 -0.51613595333E+03 -0.35971253501E+03 -0.11812597104E+04  0.13470544112E+04  0.15294330000E+03 0.  0.
    8880022    1    1    2    0    0  0.51613595333E+03  0.35971253501E+03 -0.77538358956E+02  0.65206846289E+03  0.15294330000E+03 0.  0.
<mgrwt>
<rscale>  0 0.64744195E+03</rscale>
<asrwt>0</asrwt>
<pdfrwt beam="1">  1        2 0.25060930E+00 0.64744195E+03</pdfrwt>
<pdfrwt beam="2">  1       -2 0.56948063E-01 0.64744195E+03</pdfrwt>
<totfact> 0.32262677E+01</totfact>
</mgrwt>
</event>
<event>
 4    1  0.2061941E-008  0.6635489E+03  0.7818608E-02  0.9781683E-01
         -2   -1    0    0    0  501 -0.00000000000E+00  0.00000000000E+00  0.84517916195E+03  0.84517916195E+03  0.25500000000E-02 0.  1.
          2   -1    0    0  501    0  0.00000000000E+00 -0.00000000000E+00 -0.16467771875E+04  0.16467771875E+04  0.25500000000E-02 0. -1.
    8880022    1    1    2    0    0 -0.48489726902E+03  0.42635675452E+03  0.62941783775E+03  0.91458400987E+03  0.15294330000E+03 0.  0.
    8880022    1    1    2    0    0  0.48489726902E+03 -0.42635675452E+03 -0.14310158633E+04  0.15773723396E+04  0.15294330000E+03 0. -1.
<mgrwt>
<rscale>  0 0.66354887E+03</rscale>
<asrwt>0</asrwt>
<pdfrwt beam="1">  1        2 0.25335034E+00 0.66354887E+03</pdfrwt>
<pdfrwt beam="2">  1       -2 0.13002756E+00 0.66354887E+03</pdfrwt>
<totfact> 0.47557428E+00</totfact>
</mgrwt>
</event>
<event>
 4    1  0.2061941E-008  0.9951629E+03  0.7818608E-02  0.9313866E-01
         -2   -1    0    0    0  501 -0.00000000000E+00  0.00000000000E+00  0.12469449608E+04  0.12469449608E+04  0.25500000000E-02 0.  1.
          2   -1    0    0  501    0  0.00000000000E+00 -0.00000000000E+00 -0.12250258715E+04  0.12250258715E+04  0.25500000000E-02 0. -1.
    8880022    1    1    2    0    0 -0.79406927622E+02 -0.98012860439E+03 -0.72200217514E+03  0.12294862078E+04  0.15294330000E+03 0.  0.
    8880022    1    1    2    0    0  0.79406927622E+02  0.98012860439E+03  0.74392126446E+03  0.12424846245E+04  0.15294330000E+03 0.  0.
<mgrwt>
<rscale>  0 0.99516290E+03</rscale>
<asrwt>0</asrwt>
<pdfrwt beam="1">  1        2 0.18846552E+00 0.99516290E+03</pdfrwt>
<pdfrwt beam="2">  1       -2 0.19183768E+00 0.99516290E+03</pdfrwt>
<totfact> 0.27366101E+00</totfact>
</mgrwt>
</event>
<event>
 4    1  0.2061941E-008  0.1008870E+04  0.7818608E-02  0.9298870E-01
         -2   -1    0    0    0  501 -0.00000000000E+00  0.00000000000E+00  0.15479514066E+04  0.15479514066E+04  0.25500000000E-02 0.  1.
          2   -1    0    0  501    0  0.00000000000E+00 -0.00000000000E+00 -0.16480926110E+04  0.16480926110E+04  0.25500000000E-02 0. -1.
    8880022    1    1    2    0    0 -0.90127775538E+03  0.42676067069E+03 -0.12889637381E+04  0.16368400758E+04  0.15294330000E+03 0.  0.
    8880022    1    1    2    0    0  0.90127775538E+03 -0.42676067069E+03  0.11888225338E+04  0.15592039418E+04  0.15294330000E+03 0.  0.
<mgrwt>
<rscale>  0 0.10088696E+04</rscale>
<asrwt>0</asrwt>
<pdfrwt beam="1">  1        2 0.25355271E+00 0.10088696E+04</pdfrwt>
<pdfrwt beam="2">  1       -2 0.23814637E+00 0.10088696E+04</pdfrwt>
<totfact> 0.79467947E-01</totfact>
</mgrwt>
</event>
<event>
 4    1  0.2061941E-008  0.8355269E+03  0.7818608E-02  0.9509971E-01
         -2   -1    0    0    0  501 -0.00000000000E+00  0.00000000000E+00  0.11971297573E+04  0.11971297573E+04  0.25500000000E-02 0.  1.
          2   -1    0    0  501    0  0.00000000000E+00 -0.00000000000E+00 -0.81344080725E+03  0.81344080725E+03  0.25500000000E-02 0. -1.
    8880022    1    1    2    0    0  0.77128027787E+03 -0.28256008896E+03 -0.34304679451E+03  0.90320885024E+03  0.15294330000E+03 0. -1.
    8880022    1    1    2    0    0 -0.77128027787E+03  0.28256008896E+03  0.72673574457E+03  0.11073617143E+04  0.15294330000E+03 0.  0.
<mgrwt>
<rscale>  0 0.83552685E+03</rscale>
<asrwt>0</asrwt>
<pdfrwt beam="1">  1        2 0.12514474E+00 0.83552685E+03</pdfrwt>
<pdfrwt beam="2">  1       -2 0.18417381E+00 0.83552685E+03</pdfrwt>
<totfact> 0.57708962E+00</totfact>
</mgrwt>
</event>
<event>
 4    1  0.2061941E-008  0.9210242E+03  0.7818608E-02  0.9399675E-01
          2   -1    0    0  501    0  0.00000000000E+00  0.00000000000E+00  0.31666159373E+04  0.31666159373E+04  0.25500000000E-02 0. -1.
         -2   -1    0    0    0  501 -0.00000000000E+00 -0.00000000000E+00 -0.38266645642E+03  0.38266645643E+03  0.25500000000E-02 0.  1.
    8880022    1    1    2    0    0  0.33274393568E+02  0.90762702083E+03  0.42003760291E+03  0.10122831793E+04  0.15294330000E+03 0.  0.
    8880022    1    1    2    0    0 -0.33274393568E+02 -0.90762702083E+03  0.23639118779E+04  0.25369992144E+04  0.15294330000E+03 0.  0.
<mgrwt>
<rscale>  0 0.92102424E+03</rscale>
<asrwt>0</asrwt>
<pdfrwt beam="1">  1        2 0.48717170E+00 0.92102424E+03</pdfrwt>
<pdfrwt beam="2">  1       -2 0.58871760E-01 0.92102424E+03</pdfrwt>
<totfact> 0.38217720E+00</totfact>
</mgrwt>
</event>
<event>
 4    1  0.2061941E-008  0.2023096E+04  0.7818608E-02  0.8595898E-01
         -2   -1    0    0    0  501 -0.00000000000E+00  0.00000000000E+00  0.29432648275E+04  0.29432648275E+04  0.25500000000E-02 0.  1.
          2   -1    0    0  501    0  0.00000000000E+00 -0.00000000000E+00 -0.17731772888E+04  0.17731772888E+04  0.25500000000E-02 0. -1.
    8880022    1    1    2    0    0  0.15885385394E+04  0.12434105683E+04  0.16804259937E+04  0.26299710466E+04  0.15294330000E+03 0.  0.
    8880022    1    1    2    0    0 -0.15885385394E+04 -0.12434105683E+04 -0.51033845508E+03  0.20864710696E+04  0.15294330000E+03 0.  0.
<mgrwt>
<rscale>  0 0.20230957E+04</rscale>
<asrwt>0</asrwt>
<pdfrwt beam="1">  1        2 0.27279651E+00 0.20230957E+04</pdfrwt>
<pdfrwt beam="2">  1       -2 0.45280997E+00 0.20230957E+04</pdfrwt>
<totfact> 0.26232892E-02</totfact>
</mgrwt>
</event>
<event>
 4    1  0.2061941E-008  0.8607726E+03  0.7818608E-02  0.9475991E-01
         -2   -1    0    0    0  501 -0.00000000000E+00  0.00000000000E+00  0.86783859707E+03  0.86783859708E+03  0.25500000000E-02 0.  1.
          2   -1    0    0  501    0  0.00000000000E+00 -0.00000000000E+00 -0.21184885293E+04  0.21184885293E+04  0.25500000000E-02 0. -1.
    8880022    1    1    2    0    0 -0.84475591603E+03  0.62651280367E+02  0.52837342712E+03  0.10100038971E+04  0.15294330000E+03 0.  0.
    8880022    1    1    2    0    0  0.84475591603E+03 -0.62651280367E+02 -0.17790233594E+04  0.19763232293E+04  0.15294330000E+03 0.  0.
<mgrwt>
<rscale>  0 0.86077256E+03</rscale>
<asrwt>0</asrwt>
<pdfrwt beam="1">  1        2 0.32592131E+00 0.86077256E+03</pdfrwt>
<pdfrwt beam="2">  1       -2 0.13351363E+00 0.86077256E+03</pdfrwt>
<totfact> 0.23763337E+00</totfact>
</mgrwt>
</event>
<event>
 4    1  0.2061941E-008  0.4463018E+03  0.7818608E-02  0.1028831E+00
          2   -1    0    0  501    0  0.00000000000E+00  0.00000000000E+00  0.16195046009E+04  0.16195046009E+04  0.25500000000E-02 0. -1.
         -2   -1    0    0    0  501 -0.00000000000E+00 -0.00000000000E+00 -0.31168127026E+03  0.31168127027E+03  0.25500000000E-02 0.  1.
    8880022    1    1    2    0    0 -0.39723451461E+03  0.13415819357E+03 -0.97387456630E+02  0.45680373272E+03  0.15294330000E+03 0.  0.
    8880022    1    1    2    0    0  0.39723451461E+03 -0.13415819357E+03  0.14052107872E+04  0.14743821384E+04  0.15294330000E+03 0.  0.
<mgrwt>
<rscale>  0 0.44630184E+03</rscale>
<asrwt>0</asrwt>
<pdfrwt beam="1">  1        2 0.24915456E+00 0.44630184E+03</pdfrwt>
<pdfrwt beam="2">  1       -2 0.47950964E-01 0.44630184E+03</pdfrwt>
<totfact> 0.47903412E+01</totfact>
</mgrwt>
</event>
<event>
 4    1  0.2061941E-008  0.3561138E+03  0.7818608E-02  0.1060133E+00
         -2   -1    0    0    0  501 -0.00000000000E+00  0.00000000000E+00  0.97873669847E+03  0.97873669847E+03  0.25500000000E-02 0.  1.
          2   -1    0    0  501    0  0.00000000000E+00 -0.00000000000E+00 -0.19595498324E+04  0.19595498324E+04  0.25500000000E-02 0. -1.
    8880022    1    1    2    0    0 -0.25006418632E+03  0.20222081764E+03  0.92933366789E+03  0.99522765016E+03  0.15294330000E+03 0.  0.
    8880022    1    1    2    0    0  0.25006418632E+03 -0.20222081764E+03 -0.19101468019E+04  0.19430588807E+04  0.15294330000E+03 0.  0.
<mgrwt>
<rscale>  0 0.35611376E+03</rscale>
<asrwt>0</asrwt>
<pdfrwt beam="1">  1        2 0.30146921E+00 0.35611376E+03</pdfrwt>
<pdfrwt beam="2">  1       -2 0.15057488E+00 0.35611376E+03</pdfrwt>
<totfact> 0.24020216E+00</totfact>
</mgrwt>
</event>
<event>
 4    1  0.2061941E-008  0.9565878E+03  0.7818608E-02  0.9357483E-01
         -2   -1    0    0    0  501 -0.00000000000E+00  0.00000000000E+00  0.49766861033E+03  0.49766861033E+03  0.25500000000E-02 0.  1.
          2   -1    0    0  501    0  0.00000000000E+00 -0.00000000000E+00 -0.18573571834E+04  0.18573571834E+04  0.25500000000E-02 0. -1.
    8880022    1    1    2    0    0  0.39354404021E+03  0.85836572942E+03 -0.56180929674E+03  0.11093646722E+04  0.15294330000E+03 0.  0.
    8880022    1    1    2    0    0 -0.39354404021E+03 -0.85836572942E+03 -0.79787927629E+03  0.12456611215E+04  0.15294330000E+03 0.  0.
<mgrwt>
<rscale>  0 0.95658784E+03</rscale>
<asrwt>0</asrwt>
<pdfrwt beam="1">  1        2 0.28574725E+00 0.95658784E+03</pdfrwt>
<pdfrwt beam="2">  1       -2 0.76564403E-01 0.95658784E+03</pdfrwt>
<totfact> 0.12295862E+01</totfact>
</mgrwt>
</event>
<event>
 4    1  0.2061941E-008  0.3121249E+03  0.7818608E-02  0.1079332E+00
          2   -1    0    0  501    0  0.00000000000E+00  0.00000000000E+00  0.23019370073E+04  0.23019370073E+04  0.25500000000E-02 0. -1.
         -2   -1    0    0    0  501 -0.00000000000E+00 -0.00000000000E+00 -0.32706850518E+03  0.32706850519E+03  0.25500000000E-02 0.  1.
    8880022    1    1    2    0    0  0.84391692781E+02 -0.25866644046E+03  0.22139455439E+04  0.22358391735E+04  0.15294330000E+03 0. -1.
    8880022    1    1    2    0    0 -0.84391692781E+02  0.25866644046E+03 -0.23907704178E+03  0.39316633903E+03  0.15294330000E+03 0.  0.
<mgrwt>
<rscale>  0 0.31212488E+03</rscale>
<asrwt>0</asrwt>
<pdfrwt beam="1">  1        2 0.35414414E+00 0.31212488E+03</pdfrwt>
<pdfrwt beam="2">  1       -2 0.50318234E-01 0.31212488E+03</pdfrwt>
<totfact> 0.19452406E+01</totfact>
</mgrwt>
</event>
<event>
 4    1  0.2061941E-008  0.4800075E+03  0.7818608E-02  0.1019133E+00
          2   -1    0    0  501    0  0.00000000000E+00  0.00000000000E+00  0.18700708201E+04  0.18700708201E+04  0.25500000000E-02 0. -1.
         -2   -1    0    0    0  501 -0.00000000000E+00 -0.00000000000E+00 -0.55934214534E+03  0.55934214534E+03  0.25500000000E-02 0.  1.
    8880022    1    1    2    0    0 -0.43697600473E+03  0.12675785989E+03 -0.41724788523E+03  0.63600553024E+03  0.15294330000E+03 0.  0.
    8880022    1    1    2    0    0  0.43697600473E+03 -0.12675785989E+03  0.17279765600E+04  0.17934074352E+04  0.15294330000E+03 0.  0.
<mgrwt>
<rscale>  0 0.48000754E+03</rscale>
<asrwt>0</asrwt>
<pdfrwt beam="1">  1        2 0.28770320E+00 0.48000754E+03</pdfrwt>
<pdfrwt beam="2">  1       -2 0.86052639E-01 0.48000754E+03</pdfrwt>
<totfact> 0.10033673E+01</totfact>
</mgrwt>
</event>
<event>
 4    1  0.2061941E-008  0.2950081E+03  0.7818608E-02  0.1087763E+00
         -2   -1    0    0    0  501 -0.00000000000E+00  0.00000000000E+00  0.15396376950E+03  0.15396376952E+03  0.25500000000E-02 0.  1.
          2   -1    0    0  501    0  0.00000000000E+00 -0.00000000000E+00 -0.14338052018E+04  0.14338052018E+04  0.25500000000E-02 0. -1.
    8880022    1    1    2    0    0 -0.19239867832E+03 -0.16315906556E+03 -0.12578063344E+04  0.12919390698E+04  0.15294330000E+03 0.  0.
    8880022    1    1    2    0    0  0.19239867832E+03  0.16315906556E+03 -0.22035097877E+02  0.29582990154E+03  0.15294330000E+03 0.  0.
<mgrwt>
<rscale>  0 0.29500811E+03</rscale>
<asrwt>0</asrwt>
<pdfrwt beam="1">  1        2 0.22058541E+00 0.29500811E+03</pdfrwt>
<pdfrwt beam="2">  1       -2 0.23686735E-01 0.29500811E+03</pdfrwt>
<totfact> 0.23267894E+02</totfact>
</mgrwt>
</event>
<event>
 4    1  0.2061941E-008  0.3345240E+03  0.7818608E-02  0.1069153E+00
         -2   -1    0    0    0  501 -0.00000000000E+00  0.00000000000E+00  0.53669447767E+03  0.53669447767E+03  0.25500000000E-02 0.  1.
          2   -1    0    0  501    0  0.00000000000E+00 -0.00000000000E+00 -0.48090408560E+03  0.48090408560E+03  0.25500000000E-02 0. -1.
    8880022    1    1    2    0    0  0.21206005814E+03  0.20867476390E+03 -0.35503174757E+03  0.48780510467E+03  0.15294330000E+03 0. -1.
    8880022    1    1    2    0    0 -0.21206005814E+03 -0.20867476390E+03  0.41082213964E+03  0.52979345860E+03  0.15294330000E+03 0.  0.
<mgrwt>
<rscale>  0 0.33452396E+03</rscale>
<asrwt>0</asrwt>
<pdfrwt beam="1">  1        2 0.73985244E-01 0.33452396E+03</pdfrwt>
<pdfrwt beam="2">  1       -2 0.82568381E-01 0.33452396E+03</pdfrwt>
<totfact> 0.86634162E+01</totfact>
</mgrwt>
</event>
<event>
 4    1  0.2061941E-008  0.6417320E+03  0.7818608E-02  0.9822418E-01
         -2   -1    0    0    0  501 -0.00000000000E+00  0.00000000000E+00  0.35072620994E+03  0.35072620995E+03  0.25500000000E-02 0.  1.
          2   -1    0    0  501    0  0.00000000000E+00 -0.00000000000E+00 -0.14997756059E+04  0.14997756059E+04  0.25500000000E-02 0. -1.
    8880022    1    1    2    0    0 -0.28999960507E+03  0.55165980308E+03 -0.14342517531E+03  0.65756425024E+03  0.15294330000E+03 0.  0.
    8880022    1    1    2    0    0  0.28999960507E+03 -0.55165980308E+03 -0.10056242206E+04  0.11929375656E+04  0.15294330000E+03 0.  0.
<mgrwt>
<rscale>  0 0.64173200E+03</rscale>
<asrwt>0</asrwt>
<pdfrwt beam="1">  1        2 0.23073470E+00 0.64173200E+03</pdfrwt>
<pdfrwt beam="2">  1       -2 0.53957879E-01 0.64173200E+03</pdfrwt>
<totfact> 0.42529169E+01</totfact>
</mgrwt>
</event>
<event>
 4    1  0.2061941E-008  0.1152733E+04  0.7818608E-02  0.9155266E-01
          2   -1    0    0  501    0  0.00000000000E+00  0.00000000000E+00  0.22301094891E+04  0.22301094891E+04  0.25500000000E-02 0. -1.
         -2   -1    0    0    0  501 -0.00000000000E+00 -0.00000000000E+00 -0.10040668366E+04  0.10040668366E+04  0.25500000000E-02 0.  1.
    8880022    1    1    2    0    0 -0.23697820595E+03  0.11176954209E+04 -0.41808151681E+03  0.12262077848E+04  0.15294330000E+03 0.  0.
    8880022    1    1    2    0    0  0.23697820595E+03 -0.11176954209E+04  0.16441241693E+04  0.20079685409E+04  0.15294330000E+03 0.  0.
<mgrwt>
<rscale>  0 0.11527330E+04</rscale>
<asrwt>0</asrwt>
<pdfrwt beam="1">  1        2 0.34309376E+00 0.11527330E+04</pdfrwt>
<pdfrwt beam="2">  1       -2 0.15447182E+00 0.11527330E+04</pdfrwt>
<totfact> 0.13488491E+00</totfact>
</mgrwt>
</event>
<event>
 4    1  0.2061941E-008  0.6224752E+03  0.7818608E-02  0.9859844E-01
         -2   -1    0    0    0  501 -0.00000000000E+00  0.00000000000E+00  0.21277687985E+03  0.21277687987E+03  0.25500000000E-02 0.  1.
          2   -1    0    0  501    0  0.00000000000E+00 -0.00000000000E+00 -0.26741387718E+04  0.26741387718E+04  0.25500000000E-02 0. -1.
    8880022    1    1    2    0    0 -0.57999856128E+03 -0.16638911146E+03 -0.41539181167E+03  0.74834863380E+03  0.15294330000E+03 0.  0.
    8880022    1    1    2    0    0  0.57999856128E+03  0.16638911146E+03 -0.20459700803E+04  0.21385670179E+04  0.15294330000E+03 0.  0.
<mgrwt>
<rscale>  0 0.62247516E+03</rscale>
<asrwt>0</asrwt>
<pdfrwt beam="1">  1        2 0.41140594E+00 0.62247516E+03</pdfrwt>
<pdfrwt beam="2">  1       -2 0.32734906E-01 0.62247516E+03</pdfrwt>
<totfact> 0.25651675E+01</totfact>
</mgrwt>
</event>
<event>
 4    1  0.2061941E-008  0.1474253E+04  0.7818608E-02  0.8901757E-01
         -2   -1    0    0    0  501 -0.00000000000E+00  0.00000000000E+00  0.25099966859E+04  0.25099966859E+04  0.25500000000E-02 0.  1.
          2   -1    0    0  501    0  0.00000000000E+00 -0.00000000000E+00 -0.19743939583E+04  0.19743939583E+04  0.25500000000E-02 0. -1.
    8880022    1    1    2    0    0  0.13005181640E+04  0.67726069538E+03 -0.14122479313E+04  0.20415350638E+04  0.15294330000E+03 0.  0.
    8880022    1    1    2    0    0 -0.13005181640E+04 -0.67726069538E+03  0.19478506589E+04  0.24428555804E+04  0.15294330000E+03 0.  0.
<mgrwt>
<rscale>  0 0.14742528E+04</rscale>
<asrwt>0</asrwt>
<pdfrwt beam="1">  1        2 0.30375292E+00 0.14742528E+04</pdfrwt>
<pdfrwt beam="2">  1       -2 0.38615334E+00 0.14742528E+04</pdfrwt>
<totfact> 0.59491666E-02</totfact>
</mgrwt>
</event>
<event>
 4    1  0.2061941E-008  0.2301907E+03  0.7818608E-02  0.1126506E+00
          2   -1    0    0  501    0  0.00000000000E+00  0.00000000000E+00  0.28424386077E+04  0.28424386077E+04  0.25500000000E-02 0. -1.
         -2   -1    0    0    0  501 -0.00000000000E+00 -0.00000000000E+00 -0.51624915613E+03  0.51624915614E+03  0.25500000000E-02 0.  1.
    8880022    1    1    2    0    0  0.13760647842E+03  0.10325004665E+03  0.28118394429E+04  0.28212459696E+04  0.15294330000E+03 0.  0.
    8880022    1    1    2    0    0 -0.13760647842E+03 -0.10325004665E+03 -0.48564999139E+03  0.53744179423E+03  0.15294330000E+03 0.  1.
<mgrwt>
<rscale>  0 0.23019072E+03</rscale>
<asrwt>0</asrwt>
<pdfrwt beam="1">  1        2 0.43729825E+00 0.23019072E+03</pdfrwt>
<pdfrwt beam="2">  1       -2 0.79422947E-01 0.23019072E+03</pdfrwt>
<totfact> 0.38968298E+00</totfact>
</mgrwt>
</event>
<event>
 4    1  0.2061941E-008  0.4302453E+03  0.7818608E-02  0.1033782E+00
         -2   -1    0    0    0  501 -0.00000000000E+00  0.00000000000E+00  0.47441936824E+03  0.47441936825E+03  0.25500000000E-02 0.  1.
          2   -1    0    0  501    0  0.00000000000E+00 -0.00000000000E+00 -0.19940988113E+04  0.19940988113E+04  0.25500000000E-02 0. -1.
    8880022    1    1    2    0    0 -0.24160284272E+03  0.32147701163E+03  0.34709901702E+03  0.55280085315E+03  0.15294330000E+03 0.  1.
    8880022    1    1    2    0    0  0.24160284272E+03 -0.32147701163E+03 -0.18667784600E+04  0.19157173263E+04  0.15294330000E+03 0.  0.
<mgrwt>
<rscale>  0 0.43024534E+03</rscale>
<asrwt>0</asrwt>
<pdfrwt beam="1">  1        2 0.30678443E+00 0.43024534E+03</pdfrwt>
<pdfrwt beam="2">  1       -2 0.72987596E-01 0.43024534E+03</pdfrwt>
<totfact> 0.12579936E+01</totfact>
</mgrwt>
</event>
<event>
 4    1  0.2061941E-008  0.9061140E+03  0.7818608E-02  0.9417971E-01
          2   -1    0    0  501    0  0.00000000000E+00  0.00000000000E+00  0.15999942043E+04  0.15999942043E+04  0.25500000000E-02 0. -1.
         -2   -1    0    0    0  501 -0.00000000000E+00 -0.00000000000E+00 -0.14405416507E+04  0.14405416507E+04  0.25500000000E-02 0.  1.
    8880022    1    1    2    0    0 -0.53472787739E+03 -0.71534402558E+03 -0.11400719403E+04  0.14562989596E+04  0.15294330000E+03 0.  0.
    8880022    1    1    2    0    0  0.53472787739E+03  0.71534402558E+03  0.12995244939E+04  0.15842368955E+04  0.15294330000E+03 0.  0.
<mgrwt>
<rscale>  0 0.90611403E+03</rscale>
<asrwt>0</asrwt>
<pdfrwt beam="1">  1        2 0.24615295E+00 0.90611403E+03</pdfrwt>
<pdfrwt beam="2">  1       -2 0.22162179E+00 0.90611403E+03</pdfrwt>
<totfact> 0.10874111E+00</totfact>
</mgrwt>
</event>
<event>
 4    1  0.2061941E-008  0.9725770E+03  0.7818608E-02  0.9339144E-01
         -2   -1    0    0    0  501 -0.00000000000E+00  0.00000000000E+00  0.69819458471E+03  0.69819458471E+03  0.25500000000E-02 0.  1.
          2   -1    0    0  501    0  0.00000000000E+00 -0.00000000000E+00 -0.35566392442E+04  0.35566392442E+04  0.25500000000E-02 0. -1.
    8880022    1    1    2    0    0 -0.66298462358E+03 -0.69495737617E+03  0.24466658946E+03  0.10028797330E+04  0.15294330000E+03 0.  0.
    8880022    1    1    2    0    0  0.66298462358E+03  0.69495737617E+03 -0.31031112490E+04  0.32519540960E+04  0.15294330000E+03 0.  0.
<mgrwt>
<rscale>  0 0.97257700E+03</rscale>
<asrwt>0</asrwt>
<pdfrwt beam="1">  1        2 0.54717526E+00 0.97257700E+03</pdfrwt>
<pdfrwt beam="2">  1       -2 0.10741455E+00 0.97257700E+03</pdfrwt>
<totfact> 0.53669999E-01</totfact>
</mgrwt>
</event>
<event>
 4    1  0.2061941E-008  0.7754687E+03  0.7818608E-02  0.9596220E-01
         -2   -1    0    0    0  501 -0.00000000000E+00  0.00000000000E+00  0.11574578546E+04  0.11574578546E+04  0.25500000000E-02 0.  1.
          2   -1    0    0  501    0  0.00000000000E+00 -0.00000000000E+00 -0.98097182050E+03  0.98097182051E+03  0.25500000000E-02 0. -1.
    8880022    1    1    2    0    0 -0.52361176209E+03 -0.55117218577E+03  0.82155371239E+03  0.11297354607E+04  0.15294330000E+03 0.  0.
    8880022    1    1    2    0    0  0.52361176209E+03  0.55117218577E+03 -0.64506767826E+03  0.10086942145E+04  0.15294330000E+03 0.  0.
<mgrwt>
<rscale>  0 0.77546870E+03</rscale>
<asrwt>0</asrwt>
<pdfrwt beam="1">  1        2 0.15091874E+00 0.77546870E+03</pdfrwt>
<pdfrwt beam="2">  1       -2 0.17807044E+00 0.77546870E+03</pdfrwt>
<totfact> 0.49300150E+00</totfact>
</mgrwt>
</event>
<event>
 4    1  0.2061941E-008  0.5101175E+03  0.7818608E-02  0.1011171E+00
          2   -1    0    0  501    0  0.00000000000E+00  0.00000000000E+00  0.18654833116E+04  0.18654833117E+04  0.25500000000E-02 0. -1.
         -2   -1    0    0    0  501 -0.00000000000E+00 -0.00000000000E+00 -0.20761339575E+03  0.20761339576E+03  0.25500000000E-02 0.  1.
    8880022    1    1    2    0    0  0.39128714613E+03  0.28934856860E+03  0.14226852750E+04  0.15113746292E+04  0.15294330000E+03 0.  0.
    8880022    1    1    2    0    0 -0.39128714613E+03 -0.28934856860E+03  0.23518464087E+03  0.56172207825E+03  0.15294330000E+03 0.  1.
<mgrwt>
<rscale>  0 0.51011751E+03</rscale>
<asrwt>0</asrwt>
<pdfrwt beam="1">  1        2 0.28699742E+00 0.51011751E+03</pdfrwt>
<pdfrwt beam="2">  1       -2 0.31940524E-01 0.51011751E+03</pdfrwt>
<totfact> 0.76513844E+01</totfact>
</mgrwt>
</event>
<event>
 4    1  0.2061941E-008  0.6155693E+03  0.7818608E-02  0.9873621E-01
         -2   -1    0    0    0  501 -0.00000000000E+00  0.00000000000E+00  0.35258793383E+03  0.35258793384E+03  0.25500000000E-02 0.  1.
          2   -1    0    0  501    0  0.00000000000E+00 -0.00000000000E+00 -0.19755592445E+04  0.19755592445E+04  0.25500000000E-02 0. -1.
    8880022    1    1    2    0    0  0.58254224522E+03  0.12719448961E+03 -0.15975613189E+04  0.17120536575E+04  0.15294330000E+03 0.  0.
    8880022    1    1    2    0    0 -0.58254224522E+03 -0.12719448961E+03 -0.25409991761E+02  0.61609352078E+03  0.15294330000E+03 0.  0.
<mgrwt>
<rscale>  0 0.61556930E+03</rscale>
<asrwt>0</asrwt>
<pdfrwt beam="1">  1        2 0.30393219E+00 0.61556930E+03</pdfrwt>
<pdfrwt beam="2">  1       -2 0.54244299E-01 0.61556930E+03</pdfrwt>
<totfact> 0.23249773E+01</totfact>
</mgrwt>
</event>
<event>
 4    1  0.2061941E-008  0.6585678E+03  0.7818608E-02  0.9790834E-01
         -2   -1    0    0    0  501 -0.00000000000E+00  0.00000000000E+00  0.15181753125E+04  0.15181753125E+04  0.25500000000E-02 0.  1.
          2   -1    0    0  501    0  0.00000000000E+00 -0.00000000000E+00 -0.11859221480E+04  0.11859221480E+04  0.25500000000E-02 0. -1.
    8880022    1    1    2    0    0 -0.36456570633E+03 -0.52669886386E+03  0.13441232351E+04  0.14967894881E+04  0.15294330000E+03 0.  0.
    8880022    1    1    2    0    0  0.36456570633E+03  0.52669886386E+03 -0.10118700706E+04  0.12073079724E+04  0.15294330000E+03 0.  0.
<mgrwt>
<rscale>  0 0.65856776E+03</rscale>
<asrwt>0</asrwt>
<pdfrwt beam="1">  1        2 0.18244956E+00 0.65856776E+03</pdfrwt>
<pdfrwt beam="2">  1       -2 0.23356543E+00 0.65856776E+03</pdfrwt>
<totfact> 0.16485859E+00</totfact>
</mgrwt>
</event>
<event>
 4    1  0.2061941E-008  0.4191880E+03  0.7818608E-02  0.1037331E+00
         -2   -1    0    0    0  501 -0.00000000000E+00  0.00000000000E+00  0.57292486218E+03  0.57292486219E+03  0.25500000000E-02 0.  1.
          2   -1    0    0  501    0  0.00000000000E+00 -0.00000000000E+00 -0.14161258781E+04  0.14161258781E+04  0.25500000000E-02 0. -1.
    8880022    1    1    2    0    0 -0.12304037073E+03 -0.37038901106E+03  0.45866404050E+03  0.62136246057E+03  0.15294330000E+03 0.  0.
    8880022    1    1    2    0    0  0.12304037073E+03  0.37038901106E+03 -0.13018650564E+04  0.13676882797E+04  0.15294330000E+03 0.  0.
<mgrwt>
<rscale>  0 0.41918803E+03</rscale>
<asrwt>0</asrwt>
<pdfrwt beam="1">  1        2 0.21786552E+00 0.41918803E+03</pdfrwt>
<pdfrwt beam="2">  1       -2 0.88142287E-01 0.41918803E+03</pdfrwt>
<totfact> 0.16963946E+01</totfact>
</mgrwt>
</event>
<event>
 4    1  0.2061941E-008  0.4693903E+03  0.7818608E-02  0.1022092E+00
         -2   -1    0    0    0  501 -0.00000000000E+00  0.00000000000E+00  0.68270273550E+03  0.68270273551E+03  0.25500000000E-02 0.  1.
          2   -1    0    0  501    0  0.00000000000E+00 -0.00000000000E+00 -0.50266061227E+03  0.50266061228E+03  0.25500000000E-02 0. -1.
    8880022    1    1    2    0    0  0.40867541571E+03  0.17297391178E+03  0.44462138702E+03  0.64654110493E+03  0.15294330000E+03 0.  0.
    8880022    1    1    2    0    0 -0.40867541571E+03 -0.17297391178E+03 -0.26457926379E+03  0.53882224286E+03  0.15294330000E+03 0.  0.
<mgrwt>
<rscale>  0 0.46939027E+03</rscale>
<asrwt>0</asrwt>
<pdfrwt beam="1">  1        2 0.77332402E-01 0.46939027E+03</pdfrwt>
<pdfrwt beam="2">  1       -2 0.10503119E+00 0.46939027E+03</pdfrwt>
<totfact> 0.46590292E+01</totfact>
</mgrwt>
</event>
<event>
 4    1  0.2061941E-008  0.1065056E+04  0.7818608E-02  0.9239936E-01
         -2   -1    0    0    0  501 -0.00000000000E+00  0.00000000000E+00  0.45541261972E+03  0.45541261973E+03  0.25500000000E-02 0.  1.
          2   -1    0    0  501    0  0.00000000000E+00 -0.00000000000E+00 -0.30296773524E+04  0.30296773524E+04  0.25500000000E-02 0. -1.
    8880022    1    1    2    0    0 -0.97547405738E+03 -0.39925413246E+03 -0.55223317902E+03  0.11997110635E+04  0.15294330000E+03 0.  0.
    8880022    1    1    2    0    0  0.97547405738E+03  0.39925413246E+03 -0.20220315536E+04  0.22853789086E+04  0.15294330000E+03 0.  0.
<mgrwt>
<rscale>  0 0.10650564E+04</rscale>
<asrwt>0</asrwt>
<pdfrwt beam="1">  1        2 0.46610420E+00 0.10650564E+04</pdfrwt>
<pdfrwt beam="2">  1       -2 0.70063482E-01 0.10650564E+04</pdfrwt>
<totfact> 0.31351726E+00</totfact>
</mgrwt>
</event>
<event>
 4    1  0.2061941E-008  0.1194207E+04  0.7818608E-02  0.9117942E-01
         -2   -1    0    0    0  501 -0.00000000000E+00  0.00000000000E+00  0.62612453060E+03  0.62612453061E+03  0.25500000000E-02 0.  1.
          2   -1    0    0  501    0  0.00000000000E+00 -0.00000000000E+00 -0.28796422332E+04  0.28796422332E+04  0.25500000000E-02 0. -1.
    8880022    1    1    2    0    0 -0.10423418530E+04  0.56237234957E+03 -0.32534447914E+03  0.12377317485E+04  0.15294330000E+03 0.  0.
    8880022    1    1    2    0    0  0.10423418530E+04 -0.56237234957E+03 -0.19281732234E+04  0.22680350153E+04  0.15294330000E+03 0.  0.
<mgrwt>
<rscale>  0 0.11942072E+04</rscale>
<asrwt>0</asrwt>
<pdfrwt beam="1">  1        2 0.44302188E+00 0.11942072E+04</pdfrwt>
<pdfrwt beam="2">  1       -2 0.96326852E-01 0.11942072E+04</pdfrwt>
<totfact> 0.18466346E+00</totfact>
</mgrwt>
</event>
<event>
 4    1  0.2061941E-008  0.9337074E+03  0.7818608E-02  0.9384399E-01
          2   -1    0    0  501    0  0.00000000000E+00  0.00000000000E+00  0.19559366876E+04  0.19559366876E+04  0.25500000000E-02 0. -1.
         -2   -1    0    0    0  501 -0.00000000000E+00 -0.00000000000E+00 -0.65455553664E+03  0.65455553664E+03  0.25500000000E-02 0.  1.
    8880022    1    1    2    0    0  0.91909835565E+03  0.60631003784E+02 -0.86562055137E+02  0.93771133531E+03  0.15294330000E+03 0.  0.
    8880022    1    1    2    0    0 -0.91909835565E+03 -0.60631003784E+02  0.13879432061E+04  0.16727808889E+04  0.15294330000E+03 0.  0.
<mgrwt>
<rscale>  0 0.93370743E+03</rscale>
<asrwt>0</asrwt>
<pdfrwt beam="1">  1        2 0.30091334E+00 0.93370743E+03</pdfrwt>
<pdfrwt beam="2">  1       -2 0.10070085E+00 0.93370743E+03</pdfrwt>
<totfact> 0.57893581E+00</totfact>
</mgrwt>
</event>
<event>
 4    1  0.2061941E-008  0.5287971E+03  0.7818608E-02  0.1006524E+00
         -2   -1    0    0    0  501 -0.00000000000E+00  0.00000000000E+00  0.56270284466E+03  0.56270284467E+03  0.25500000000E-02 0.  1.
          2   -1    0    0  501    0  0.00000000000E+00 -0.00000000000E+00 -0.11888274660E+04  0.11888274660E+04  0.25500000000E-02 0. -1.
    8880022    1    1    2    0    0 -0.50356054837E+03 -0.51589735476E+02  0.35504734331E+03  0.63693405914E+03  0.15294330000E+03 0.  0.
    8880022    1    1    2    0    0  0.50356054837E+03  0.51589735476E+02 -0.98117196463E+03  0.11145962515E+04  0.15294330000E+03 0.  0.
<mgrwt>
<rscale>  0 0.52879711E+03</rscale>
<asrwt>0</asrwt>
<pdfrwt beam="1">  1        2 0.18289653E+00 0.52879711E+03</pdfrwt>
<pdfrwt beam="2">  1       -2 0.86569669E-01 0.52879711E+03</pdfrwt>
<totfact> 0.23305572E+01</totfact>
</mgrwt>
</event>
<event>
 4    1  0.2061941E-008  0.2956118E+03  0.7818608E-02  0.1087455E+00
         -2   -1    0    0    0  501 -0.00000000000E+00  0.00000000000E+00  0.26280958861E+03  0.26280958862E+03  0.25500000000E-02 0.  1.
          2   -1    0    0  501    0  0.00000000000E+00 -0.00000000000E+00 -0.43334245415E+03  0.43334245416E+03  0.25500000000E-02 0. -1.
    8880022    1    1    2    0    0 -0.20288809304E+03 -0.15109962920E+03 -0.25317105299E+03  0.38920677195E+03  0.15294330000E+03 0. -1.
    8880022    1    1    2    0    0  0.20288809304E+03  0.15109962920E+03  0.82638187451E+02  0.30694527082E+03  0.15294330000E+03 0.  0.
<mgrwt>
<rscale>  0 0.29561179E+03</rscale>
<asrwt>0</asrwt>
<pdfrwt beam="1">  1        2 0.66668070E-01 0.29561179E+03</pdfrwt>
<pdfrwt beam="2">  1       -2 0.40432244E-01 0.29561179E+03</pdfrwt>
<totfact> 0.42854647E+02</totfact>
</mgrwt>
</event>
<event>
 4    1  0.2061941E-008  0.6855425E+03  0.7818608E-02  0.9742281E-01
         -2   -1    0    0    0  501 -0.00000000000E+00  0.00000000000E+00  0.99948011394E+03  0.99948011394E+03  0.25500000000E-02 0.  1.
          2   -1    0    0  501    0  0.00000000000E+00 -0.00000000000E+00 -0.76515093264E+03  0.76515093264E+03  0.25500000000E-02 0. -1.
    8880022    1    1    2    0    0  0.43040813972E+02 -0.66687656174E+03  0.66495661129E+03  0.95505801299E+03  0.15294330000E+03 0.  0.
    8880022    1    1    2    0    0 -0.43040813972E+02  0.66687656174E+03 -0.43062742998E+03  0.80957303360E+03  0.15294330000E+03 0.  0.
<mgrwt>
<rscale>  0 0.68554250E+03</rscale>
<asrwt>0</asrwt>
<pdfrwt beam="1">  1        2 0.11771553E+00 0.68554250E+03</pdfrwt>
<pdfrwt beam="2">  1       -2 0.15376617E+00 0.68554250E+03</pdfrwt>
<totfact> 0.10490071E+01</totfact>
</mgrwt>
</event>
<event>
 4    1  0.2061941E-008  0.6366584E+03  0.7818608E-02  0.9832141E-01
         -2   -1    0    0    0  501 -0.00000000000E+00  0.00000000000E+00  0.91534408960E+03  0.91534408960E+03  0.25500000000E-02 0.  1.
          2   -1    0    0  501    0  0.00000000000E+00 -0.00000000000E+00 -0.10734581007E+04  0.10734581007E+04  0.25500000000E-02 0. -1.
    8880022    1    1    2    0    0 -0.59083568852E+03  0.18126070619E+03 -0.84123899539E+03  0.10549961871E+04  0.15294330000E+03 0.  0.
    8880022    1    1    2    0    0  0.59083568852E+03 -0.18126070619E+03  0.68312498428E+03  0.93380600320E+03  0.15294330000E+03 0.  0.
<mgrwt>
<rscale>  0 0.63665839E+03</rscale>
<asrwt>0</asrwt>
<pdfrwt beam="1">  1        2 0.16514740E+00 0.63665839E+03</pdfrwt>
<pdfrwt beam="2">  1       -2 0.14082217E+00 0.63665839E+03</pdfrwt>
<totfact> 0.82834073E+00</totfact>
</mgrwt>
</event>
<event>
 4    1  0.2061941E-008  0.1097659E+04  0.7818608E-02  0.9207477E-01
          2   -1    0    0  501    0  0.00000000000E+00  0.00000000000E+00  0.27473412066E+04  0.27473412066E+04  0.25500000000E-02 0. -1.
         -2   -1    0    0    0  501 -0.00000000000E+00 -0.00000000000E+00 -0.73551977341E+03  0.73551977341E+03  0.25500000000E-02 0.  1.
    8880022    1    1    2    0    0 -0.89772728712E+03 -0.61282053791E+03  0.21124398168E+04  0.23806001189E+04  0.15294330000E+03 0.  0.
    8880022    1    1    2    0    0  0.89772728712E+03  0.61282053791E+03 -0.10061838360E+03  0.11022608611E+04  0.15294330000E+03 0.  0.
<mgrwt>
<rscale>  0 0.10976588E+04</rscale>
<asrwt>0</asrwt>
<pdfrwt beam="1">  1        2 0.42266787E+00 0.10976588E+04</pdfrwt>
<pdfrwt beam="2">  1       -2 0.11315689E+00 0.10976588E+04</pdfrwt>
<totfact> 0.15233441E+00</totfact>
</mgrwt>
</event>
<event>
 4    1  0.2061941E-008  0.4114679E+03  0.7818608E-02  0.1039880E+00
         -2   -1    0    0    0  501 -0.00000000000E+00  0.00000000000E+00  0.91758617196E+03  0.91758617196E+03  0.25500000000E-02 0.  1.
          2   -1    0    0  501    0  0.00000000000E+00 -0.00000000000E+00 -0.16404916129E+04  0.16404916129E+04  0.25500000000E-02 0. -1.
    8880022    1    1    2    0    0 -0.38119256515E+03 -0.24625196856E+02 -0.15664175291E+04  0.16195584894E+04  0.15294330000E+03 0.  0.
    8880022    1    1    2    0    0  0.38119256515E+03  0.24625196856E+02  0.84351208818E+03  0.93851929546E+03  0.15294330000E+03 0.  0.
<mgrwt>
<rscale>  0 0.41146789E+03</rscale>
<asrwt>0</asrwt>
<pdfrwt beam="1">  1        2 0.25238333E+00 0.41146789E+03</pdfrwt>
<pdfrwt beam="2">  1       -2 0.14116710E+00 0.41146789E+03</pdfrwt>
<totfact> 0.41198189E+00</totfact>
</mgrwt>
</event>
<event>
 4    1  0.2061941E-008  0.3840512E+03  0.7818608E-02  0.1049446E+00
          2   -1    0    0  501    0  0.00000000000E+00  0.00000000000E+00  0.15843370057E+04  0.15843370057E+04  0.25500000000E-02 0. -1.
         -2   -1    0    0    0  501 -0.00000000000E+00 -0.00000000000E+00 -0.96714899546E+03  0.96714899546E+03  0.25500000000E-02 0.  1.
    8880022    1    1    2    0    0  0.33046299274E+03 -0.12205701871E+03  0.15213834175E+04  0.15691089387E+04  0.15294330000E+03 0.  0.
    8880022    1    1    2    0    0 -0.33046299274E+03  0.12205701871E+03 -0.90419540726E+03  0.98237706249E+03  0.15294330000E+03 0.  1.
<mgrwt>
<rscale>  0 0.38405124E+03</rscale>
<asrwt>0</asrwt>
<pdfrwt beam="1">  1        2 0.24374415E+00 0.38405124E+03</pdfrwt>
<pdfrwt beam="2">  1       -2 0.14879215E+00 0.38405124E+03</pdfrwt>
<totfact> 0.38881846E+00</totfact>
</mgrwt>
</event>
<event>
 4    1  0.2061941E-008  0.1893548E+04  0.7818608E-02  0.8658075E-01
         -2   -1    0    0    0  501 -0.00000000000E+00  0.00000000000E+00  0.14532860408E+04  0.14532860408E+04  0.25500000000E-02 0.  1.
          2   -1    0    0  501    0  0.00000000000E+00 -0.00000000000E+00 -0.30394442928E+04  0.30394442928E+04  0.25500000000E-02 0. -1.
    8880022    1    1    2    0    0  0.69736445388E+03 -0.17538003877E+04 -0.17677992227E+04  0.25904900552E+04  0.15294330000E+03 0.  0.
    8880022    1    1    2    0    0 -0.69736445388E+03  0.17538003877E+04  0.18164097081E+03  0.19022402784E+04  0.15294330000E+03 0.  0.
<mgrwt>
<rscale>  0 0.18935482E+04</rscale>
<asrwt>0</asrwt>
<pdfrwt beam="1">  1        2 0.46760681E+00 0.18935482E+04</pdfrwt>
<pdfrwt beam="2">  1       -2 0.22358247E+00 0.18935482E+04</pdfrwt>
<totfact> 0.13885409E-01</totfact>
</mgrwt>
</event>
<event>
 4    1  0.2061941E-008  0.3705714E+03  0.7818608E-02  0.1054475E+00
         -2   -1    0    0    0  501 -0.00000000000E+00  0.00000000000E+00  0.41631354136E+03  0.41631354136E+03  0.25500000000E-02 0.  1.
          2   -1    0    0  501    0  0.00000000000E+00 -0.00000000000E+00 -0.21471528834E+04  0.21471528834E+04  0.25500000000E-02 0. -1.
    8880022    1    1    2    0    0 -0.15269565548E+03 -0.30102411195E+03 -0.20445972306E+04  0.20779078343E+04  0.15294330000E+03 0. -1.
    8880022    1    1    2    0    0  0.15269565548E+03  0.30102411195E+03  0.31375788857E+03  0.48555859052E+03  0.15294330000E+03 0.  0.
<mgrwt>
<rscale>  0 0.37057136E+03</rscale>
<asrwt>0</asrwt>
<pdfrwt beam="1">  1        2 0.33033121E+00 0.37057136E+03</pdfrwt>
<pdfrwt beam="2">  1       -2 0.64048238E-01 0.37057136E+03</pdfrwt>
<totfact> 0.14037004E+01</totfact>
</mgrwt>
</event>
<event>
 4    1  0.2061941E-008  0.6096061E+03  0.7818608E-02  0.9885674E-01
         -2   -1    0    0    0  501 -0.00000000000E+00  0.00000000000E+00  0.12640633357E+03  0.12640633359E+03  0.25500000000E-02 0.  1.
          2   -1    0    0  501    0  0.00000000000E+00 -0.00000000000E+00 -0.37652009323E+04  0.37652009323E+04  0.25500000000E-02 0. -1.
    8880022    1    1    2    0    0  0.29630394774E+03  0.51032531649E+03 -0.27303923761E+04  0.27976172251E+04  0.15294330000E+03 0. -1.
    8880022    1    1    2    0    0 -0.29630394774E+03 -0.51032531649E+03 -0.90840222264E+03  0.10939900407E+04  0.15294330000E+03 0.  0.
<mgrwt>
<rscale>  0 0.60960611E+03</rscale>
<asrwt>0</asrwt>
<pdfrwt beam="1">  1        2 0.57926160E+00 0.60960611E+03</pdfrwt>
<pdfrwt beam="2">  1       -2 0.19447131E-01 0.60960611E+03</pdfrwt>
<totfact> 0.13132933E+01</totfact>
</mgrwt>
</event>
<event>
 4    1  0.2061941E-008  0.6014549E+03  0.7818608E-02  0.9902392E-01
         -2   -1    0    0    0  501 -0.00000000000E+00  0.00000000000E+00  0.61212571169E+03  0.61212571170E+03  0.25500000000E-02 0.  1.
          2   -1    0    0  501    0  0.00000000000E+00 -0.00000000000E+00 -0.19214760364E+04  0.19214760364E+04  0.25500000000E-02 0. -1.
    8880022    1    1    2    0    0 -0.13709446014E+03 -0.56529770274E+03 -0.17088175205E+04  0.18115753793E+04  0.15294330000E+03 0.  0.
    8880022    1    1    2    0    0  0.13709446014E+03  0.56529770274E+03  0.39946719575E+03  0.72202636878E+03  0.15294330000E+03 0.  0.
<mgrwt>
<rscale>  0 0.60145493E+03</rscale>
<asrwt>0</asrwt>
<pdfrwt beam="1">  1        2 0.29561170E+00 0.60145493E+03</pdfrwt>
<pdfrwt beam="2">  1       -2 0.94173187E-01 0.60145493E+03</pdfrwt>
<totfact> 0.74556023E+00</totfact>
</mgrwt>
</event>
<event>
 4    1  0.2061941E-008  0.6540708E+03  0.7818608E-02  0.9799170E-01
         -2   -1    0    0    0  501 -0.00000000000E+00  0.00000000000E+00  0.35864309600E+03  0.35864309601E+03  0.25500000000E-02 0.  1.
          2   -1    0    0  501    0  0.00000000000E+00 -0.00000000000E+00 -0.16234550257E+04  0.16234550257E+04  0.25500000000E-02 0. -1.
    8880022    1    1    2    0    0 -0.53551495738E+03  0.34298787913E+03 -0.12200334352E+03  0.66535210501E+03  0.15294330000E+03 0.  1.
    8880022    1    1    2    0    0  0.53551495738E+03 -0.34298787913E+03 -0.11428085861E+04  0.13167460167E+04  0.15294330000E+03 0.  0.
<mgrwt>
<rscale>  0 0.65407080E+03</rscale>
<asrwt>0</asrwt>
<pdfrwt beam="1">  1        2 0.24976231E+00 0.65407080E+03</pdfrwt>
<pdfrwt beam="2">  1       -2 0.55175862E-01 0.65407080E+03</pdfrwt>
<totfact> 0.34663206E+01</totfact>
</mgrwt>
</event>
<event>
 4    1  0.2061941E-008  0.1045122E+04  0.7818608E-02  0.9260395E-01
         -2   -1    0    0    0  501 -0.00000000000E+00  0.00000000000E+00  0.15555260520E+04  0.15555260520E+04  0.25500000000E-02 0.  1.
          2   -1    0    0  501    0  0.00000000000E+00 -0.00000000000E+00 -0.81944692080E+03  0.81944692081E+03  0.25500000000E-02 0. -1.
    8880022    1    1    2    0    0 -0.30999128496E+03  0.98630310335E+03  0.81723081437E+03  0.13267050408E+04  0.15294330000E+03 0.  1.
    8880022    1    1    2    0    0  0.30999128496E+03 -0.98630310335E+03 -0.81151683192E+02  0.10482679319E+04  0.15294330000E+03 0.  0.
<mgrwt>
<rscale>  0 0.10451220E+04</rscale>
<asrwt>0</asrwt>
<pdfrwt beam="1">  1        2 0.12606876E+00 0.10451220E+04</pdfrwt>
<pdfrwt beam="2">  1       -2 0.23931170E+00 0.10451220E+04</pdfrwt>
<totfact> 0.24730723E+00</totfact>
</mgrwt>
</event>
<event>
 4    1  0.2146276E-008  0.1552387E+04  0.7818608E-02  0.8850345E-01
          2   -1    0    0  501    0  0.00000000000E+00  0.00000000000E+00  0.21041678895E+04  0.21041678895E+04  0.25500000000E-02 0. -1.
         -2   -1    0    0    0  501 -0.00000000000E+00 -0.00000000000E+00 -0.22809474542E+04  0.22809474543E+04  0.25500000000E-02 0.  1.
    8880022    1    1    2    0    0 -0.89417149194E+03  0.12597502404E+04  0.14586982100E+04  0.21301890634E+04  0.15294330000E+03 0.  0.
    8880022    1    1    2    0    0  0.89417149194E+03 -0.12597502404E+04 -0.16354777747E+04  0.22549262803E+04  0.15294330000E+03 0.  0.
<mgrwt>
<rscale>  0 0.15523869E+04</rscale>
<asrwt>0</asrwt>
<pdfrwt beam="1">  1        2 0.32371814E+00 0.15523869E+04</pdfrwt>
<pdfrwt beam="2">  1       -2 0.35091499E+00 0.15523869E+04</pdfrwt>
<totfact> 0.83690708E-02</totfact>
</mgrwt>
</event>
<event>
 4    1  0.2061941E-008  0.1669415E+04  0.7818608E-02  0.8779003E-01
          2   -1    0    0  501    0  0.00000000000E+00  0.00000000000E+00  0.22372649895E+04  0.22372649895E+04  0.25500000000E-02 0. -1.
         -2   -1    0    0    0  501 -0.00000000000E+00 -0.00000000000E+00 -0.13593147705E+04  0.13593147705E+04  0.25500000000E-02 0.  1.
    8880022    1    1    2    0    0  0.16596988994E+04 -0.94619773172E+02 -0.80937982308E+02  0.16713754659E+04  0.15294330000E+03 0.  0.
    8880022    1    1    2    0    0 -0.16596988994E+04  0.94619773172E+02  0.95888820132E+03  0.19252042940E+04  0.15294330000E+03 0.  0.
<mgrwt>
<rscale>  0 0.16694146E+04</rscale>
<asrwt>0</asrwt>
<pdfrwt beam="1">  1        2 0.34419461E+00 0.16694146E+04</pdfrwt>
<pdfrwt beam="2">  1       -2 0.20912535E+00 0.16694146E+04</pdfrwt>
<totfact> 0.52662557E-01</totfact>
</mgrwt>
</event>
<event>
 4    1  0.2061941E-008  0.1312951E+04  0.7818608E-02  0.9019357E-01
          2   -1    0    0  501    0  0.00000000000E+00  0.00000000000E+00  0.21854658911E+04  0.21854658911E+04  0.25500000000E-02 0. -1.
         -2   -1    0    0    0  501 -0.00000000000E+00 -0.00000000000E+00 -0.79987390554E+03  0.79987390555E+03  0.25500000000E-02 0.  1.
    8880022    1    1    2    0    0  0.10589849815E+04 -0.76092044343E+03  0.86862637464E+03  0.15742784201E+04  0.15294330000E+03 0.  0.
    8880022    1    1    2    0    0 -0.10589849815E+04  0.76092044343E+03  0.51696561089E+03  0.14110613765E+04  0.15294330000E+03 0.  0.
<mgrwt>
<rscale>  0 0.13129512E+04</rscale>
<asrwt>0</asrwt>
<pdfrwt beam="1">  1        2 0.33622551E+00 0.13129512E+04</pdfrwt>
<pdfrwt beam="2">  1       -2 0.12305753E+00 0.13129512E+04</pdfrwt>
<totfact> 0.25337788E+00</totfact>
</mgrwt>
</event>
<event>
 4    1  0.2061941E-008  0.9635464E+03  0.7818608E-02  0.9349456E-01
          2   -1    0    0  501    0  0.00000000000E+00  0.00000000000E+00  0.19428915911E+04  0.19428915911E+04  0.25500000000E-02 0. -1.
         -2   -1    0    0    0  501 -0.00000000000E+00 -0.00000000000E+00 -0.52644851736E+03  0.52644851737E+03  0.25500000000E-02 0.  1.
    8880022    1    1    2    0    0 -0.94388001881E+03 -0.11882940257E+03  0.33311072706E+03  0.10195019992E+04  0.15294330000E+03 0.  0.
    8880022    1    1    2    0    0  0.94388001881E+03  0.11882940257E+03  0.10833323467E+04  0.14498381093E+04  0.15294330000E+03 0. -1.
<mgrwt>
<rscale>  0 0.96354635E+03</rscale>
<asrwt>0</asrwt>
<pdfrwt beam="1">  1        2 0.29890639E+00 0.96354635E+03</pdfrwt>
<pdfrwt beam="2">  1       -2 0.80992081E-01 0.96354635E+03</pdfrwt>
<totfact> 0.97168947E+00</totfact>
</mgrwt>
</event>
<event>
 4    1  0.2061941E-008  0.3418641E+03  0.7818608E-02  0.1066005E+00
          2   -1    0    0  501    0  0.00000000000E+00  0.00000000000E+00  0.42661027360E+04  0.42661027360E+04  0.25500000000E-02 0. -1.
         -2   -1    0    0    0  501 -0.00000000000E+00 -0.00000000000E+00 -0.21373082586E+03  0.21373082588E+03  0.25500000000E-02 0.  1.
    8880022    1    1    2    0    0 -0.29687633487E+03 -0.73101874374E+02 -0.65257618648E+02  0.34803685444E+03  0.15294330000E+03 0.  1.
    8880022    1    1    2    0    0  0.29687633487E+03  0.73101874374E+02  0.41176295288E+04  0.41317967074E+04  0.15294330000E+03 0.  0.
<mgrwt>
<rscale>  0 0.34186415E+03</rscale>
<asrwt>0</asrwt>
<pdfrwt beam="1">  1        2 0.65632343E+00 0.34186415E+03</pdfrwt>
<pdfrwt beam="2">  1       -2 0.32881669E-01 0.34186415E+03</pdfrwt>
<totfact> 0.22836379E+00</totfact>
</mgrwt>
</event>
<event>
 4    1  0.2061941E-008  0.1347739E+04  0.7818608E-02  0.8992541E-01
          2   -1    0    0  501    0  0.00000000000E+00  0.00000000000E+00  0.13429318023E+04  0.13429318023E+04  0.25500000000E-02 0. -1.
         -2   -1    0    0    0  501 -0.00000000000E+00 -0.00000000000E+00 -0.18081709147E+04  0.18081709147E+04  0.25500000000E-02 0.  1.
    8880022    1    1    2    0    0 -0.38684512333E+03 -0.12819362838E+04  0.55825553477E+03  0.14587839731E+04  0.15294330000E+03 0.  0.
    8880022    1    1    2    0    0  0.38684512333E+03  0.12819362838E+04 -0.10234946472E+04  0.16923187439E+04  0.15294330000E+03 0.  0.
<mgrwt>
<rscale>  0 0.13477394E+04</rscale>
<asrwt>0</asrwt>
<pdfrwt beam="1">  1        2 0.20660489E+00 0.13477394E+04</pdfrwt>
<pdfrwt beam="2">  1       -2 0.27818014E+00 0.13477394E+04</pdfrwt>
<totfact> 0.64554857E-01</totfact>
</mgrwt>
</event>
<event>
 4    1  0.2061941E-008  0.4323281E+03  0.7818608E-02  0.1033127E+00
         -2   -1    0    0    0  501 -0.00000000000E+00  0.00000000000E+00  0.88806974980E+02  0.88806975017E+02  0.25500000000E-02 0.  1.
          2   -1    0    0  501    0  0.00000000000E+00 -0.00000000000E+00 -0.33996145470E+04  0.33996145470E+04  0.25500000000E-02 0. -1.
    8880022    1    1    2    0    0 -0.40406582583E+03  0.15707675523E+02 -0.57890608369E+03  0.72252323798E+03  0.15294330000E+03 0.  1.
    8880022    1    1    2    0    0  0.40406582583E+03 -0.15707675523E+02 -0.27319014884E+04  0.27658982841E+04  0.15294330000E+03 0.  0.
<mgrwt>
<rscale>  0 0.43232809E+03</rscale>
<asrwt>0</asrwt>
<pdfrwt beam="1">  1        2 0.52301752E+00 0.43232809E+03</pdfrwt>
<pdfrwt beam="2">  1       -2 0.13662614E-01 0.43232809E+03</pdfrwt>
<totfact> 0.44748965E+01</totfact>
</mgrwt>
</event>
<event>
 4    1  0.2061941E-008  0.1554634E+04  0.7818608E-02  0.8848913E-01
          2   -1    0    0  501    0  0.00000000000E+00  0.00000000000E+00  0.14943442509E+04  0.14943442509E+04  0.25500000000E-02 0. -1.
         -2   -1    0    0    0  501 -0.00000000000E+00 -0.00000000000E+00 -0.23824269380E+04  0.23824269380E+04  0.25500000000E-02 0.  1.
    8880022    1    1    2    0    0 -0.41313783594E+03  0.14909099929E+04 -0.15424934789E+04  0.21900167268E+04  0.15294330000E+03 0.  0.
    8880022    1    1    2    0    0  0.41313783594E+03 -0.14909099929E+04  0.65441079175E+03  0.16867544622E+04  0.15294330000E+03 0.  0.
<mgrwt>
<rscale>  0 0.15546341E+04</rscale>
<asrwt>0</asrwt>
<pdfrwt beam="1">  1        2 0.22989912E+00 0.15546341E+04</pdfrwt>
<pdfrwt beam="2">  1       -2 0.36652722E+00 0.15546341E+04</pdfrwt>
<totfact> 0.14634305E-01</totfact>
</mgrwt>
</event>
<event>
 4    1  0.2061941E-008  0.8821898E+03  0.7818608E-02  0.9448123E-01
         -2   -1    0    0    0  501 -0.00000000000E+00  0.00000000000E+00  0.74292665390E+03  0.74292665390E+03  0.25500000000E-02 0.  1.
          2   -1    0    0  501    0  0.00000000000E+00 -0.00000000000E+00 -0.13347707512E+04  0.13347707512E+04  0.25500000000E-02 0. -1.
    8880022    1    1    2    0    0 -0.80290072853E+03  0.33199033562E+03 -0.77781520911E+03  0.11761187505E+04  0.15294330000E+03 0.  0.
    8880022    1    1    2    0    0  0.80290072853E+03 -0.33199033562E+03  0.18597111185E+03  0.90157865452E+03  0.15294330000E+03 0.  0.
<mgrwt>
<rscale>  0 0.88218978E+03</rscale>
<asrwt>0</asrwt>
<pdfrwt beam="1">  1        2 0.20534935E+00 0.88218978E+03</pdfrwt>
<pdfrwt beam="2">  1       -2 0.11429641E+00 0.88218978E+03</pdfrwt>
<totfact> 0.94986091E+00</totfact>
</mgrwt>
</event>
<event>
 4    1  0.2061941E-008  0.1136307E+04  0.7818608E-02  0.9170509E-01
         -2   -1    0    0    0  501 -0.00000000000E+00  0.00000000000E+00  0.92353174730E+03  0.92353174730E+03  0.25500000000E-02 0.  1.
          2   -1    0    0  501    0  0.00000000000E+00 -0.00000000000E+00 -0.23778009634E+04  0.23778009634E+04  0.25500000000E-02 0. -1.
    8880022    1    1    2    0    0  0.32199723714E+03 -0.10789443238E+04 -0.17866740290E+04  0.21174037909E+04  0.15294330000E+03 0.  0.
    8880022    1    1    2    0    0 -0.32199723714E+03  0.10789443238E+04  0.33240481293E+03  0.11839289198E+04  0.15294330000E+03 0.  0.
<mgrwt>
<rscale>  0 0.11363075E+04</rscale>
<asrwt>0</asrwt>
<pdfrwt beam="1">  1        2 0.36581553E+00 0.11363075E+04</pdfrwt>
<pdfrwt beam="2">  1       -2 0.14208181E+00 0.11363075E+04</pdfrwt>
<totfact> 0.13935194E+00</totfact>
</mgrwt>
</event>
<event>
 4    1  0.2061941E-008  0.6308425E+03  0.7818608E-02  0.9843406E-01
          2   -1    0    0  501    0  0.00000000000E+00  0.00000000000E+00  0.24792966197E+04  0.24792966197E+04  0.25500000000E-02 0. -1.
         -2   -1    0    0    0  501 -0.00000000000E+00 -0.00000000000E+00 -0.34492174603E+03  0.34492174604E+03  0.25500000000E-02 0.  1.
    8880022    1    1    2    0    0  0.58645783431E+03 -0.17503671454E+03  0.34670125228E+02  0.63179451838E+03  0.15294330000E+03 0.  0.
    8880022    1    1    2    0    0 -0.58645783431E+03  0.17503671454E+03  0.20997047484E+04  0.21924238473E+04  0.15294330000E+03 0.  0.
<mgrwt>
<rscale>  0 0.63084253E+03</rscale>
<asrwt>0</asrwt>
<pdfrwt beam="1">  1        2 0.38143024E+00 0.63084253E+03</pdfrwt>
<pdfrwt beam="2">  1       -2 0.53064885E-01 0.63084253E+03</pdfrwt>
<totfact> 0.12817154E+01</totfact>
</mgrwt>
</event>
<event>
 4    1  0.2061941E-008  0.7980063E+03  0.7818608E-02  0.9562907E-01
         -2   -1    0    0    0  501 -0.00000000000E+00  0.00000000000E+00  0.86172841453E+03  0.86172841453E+03  0.25500000000E-02 0.  1.
          2   -1    0    0  501    0  0.00000000000E+00 -0.00000000000E+00 -0.14036982954E+04  0.14036982954E+04  0.25500000000E-02 0. -1.
    8880022    1    1    2    0    0 -0.38390011605E+03 -0.68267346716E+03  0.50848013673E+03  0.94623784765E+03  0.15294330000E+03 0.  0.
    8880022    1    1    2    0    0  0.38390011605E+03  0.68267346716E+03 -0.10504500176E+04  0.13191888623E+04  0.15294330000E+03 0.  0.
<mgrwt>
<rscale>  0 0.79800627E+03</rscale>
<asrwt>0</asrwt>
<pdfrwt beam="1">  1        2 0.21595358E+00 0.79800627E+03</pdfrwt>
<pdfrwt beam="2">  1       -2 0.13257360E+00 0.79800627E+03</pdfrwt>
<totfact> 0.60511366E+00</totfact>
</mgrwt>
</event>
<event>
 4    1  0.2061941E-008  0.1066433E+04  0.7818608E-02  0.9238540E-01
         -2   -1    0    0    0  501 -0.00000000000E+00  0.00000000000E+00  0.86708372277E+03  0.86708372278E+03  0.25500000000E-02 0.  1.
          2   -1    0    0  501    0  0.00000000000E+00 -0.00000000000E+00 -0.13261430236E+04  0.13261430236E+04  0.25500000000E-02 0. -1.
    8880022    1    1    2    0    0 -0.10359462795E+04 -0.20175030729E+03 -0.11474866261E+03  0.10725888257E+04  0.15294330000E+03 0.  0.
    8880022    1    1    2    0    0  0.10359462795E+04  0.20175030729E+03 -0.34431063817E+03  0.11206379206E+04  0.15294330000E+03 0.  0.
<mgrwt>
<rscale>  0 0.10664331E+04</rscale>
<asrwt>0</asrwt>
<pdfrwt beam="1">  1        2 0.20402200E+00 0.10664331E+04</pdfrwt>
<pdfrwt beam="2">  1       -2 0.13339750E+00 0.10664331E+04</pdfrwt>
<totfact> 0.63998632E+00</totfact>
</mgrwt>
</event>
<event>
 4    1  0.2061941E-008  0.1244526E+04  0.7818608E-02  0.9074752E-01
         -2   -1    0    0    0  501 -0.00000000000E+00  0.00000000000E+00  0.38497019074E+04  0.38497019074E+04  0.25500000000E-02 0.  1.
          2   -1    0    0  501    0  0.00000000000E+00 -0.00000000000E+00 -0.54731005431E+03  0.54731005432E+03  0.25500000000E-02 0. -1.
    8880022    1    1    2    0    0 -0.42852236766E+03 -0.11583704352E+04  0.51966304133E+03  0.13486640850E+04  0.15294330000E+03 0.  0.
    8880022    1    1    2    0    0  0.42852236766E+03  0.11583704352E+04  0.27827288117E+04  0.30483478767E+04  0.15294330000E+03 0.  0.
<mgrwt>
<rscale>  0 0.12445261E+04</rscale>
<asrwt>0</asrwt>
<pdfrwt beam="1">  1        2 0.84201549E-01 0.12445261E+04</pdfrwt>
<pdfrwt beam="2">  1       -2 0.59226182E+00 0.12445261E+04</pdfrwt>
<totfact> 0.28795502E-02</totfact>
</mgrwt>
</event>
<event>
 4    1  0.2061941E-008  0.1333382E+04  0.7818608E-02  0.9003504E-01
          2   -1    0    0  501    0  0.00000000000E+00  0.00000000000E+00  0.37095566066E+04  0.37095566066E+04  0.25500000000E-02 0. -1.
         -2   -1    0    0    0  501 -0.00000000000E+00 -0.00000000000E+00 -0.64156092904E+03  0.64156092904E+03  0.25500000000E-02 0.  1.
    8880022    1    1    2    0    0 -0.76028592660E+03  0.10846577172E+04  0.26281767591E+04  0.29470700337E+04  0.15294330000E+03 0.  0.
    8880022    1    1    2    0    0  0.76028592660E+03 -0.10846577172E+04  0.43981891854E+03  0.14040475020E+04  0.15294330000E+03 0.  0.
<mgrwt>
<rscale>  0 0.13333824E+04</rscale>
<asrwt>0</asrwt>
<pdfrwt beam="1">  1        2 0.57070100E+00 0.13333824E+04</pdfrwt>
<pdfrwt beam="2">  1       -2 0.98701684E-01 0.13333824E+04</pdfrwt>
<totfact> 0.48258011E-01</totfact>
</mgrwt>
</event>
<event>
 4    1  0.2061941E-008  0.1951115E+03  0.7818608E-02  0.1153930E+00
         -2   -1    0    0    0  501 -0.00000000000E+00  0.00000000000E+00  0.51325709485E+03  0.51325709486E+03  0.25500000000E-02 0.  1.
          2   -1    0    0  501    0  0.00000000000E+00 -0.00000000000E+00 -0.17034974328E+04  0.17034974328E+04  0.25500000000E-02 0. -1.
    8880022    1    1    2    0    0  0.10976978170E+03  0.51258471136E+02  0.48885915161E+03  0.52635706413E+03  0.15294330000E+03 0.  0.
    8880022    1    1    2    0    0 -0.10976978170E+03 -0.51258471136E+02 -0.16790994895E+04  0.16903974635E+04  0.15294330000E+03 0.  0.
<mgrwt>
<rscale>  0 0.19511148E+03</rscale>
<asrwt>0</asrwt>
<pdfrwt beam="1">  1        2 0.26207653E+00 0.19511148E+03</pdfrwt>
<pdfrwt beam="2">  1       -2 0.78962631E-01 0.19511148E+03</pdfrwt>
<totfact> 0.16442310E+01</totfact>
</mgrwt>
</event>
<event>
 4    1  0.2061941E-008  0.9914568E+03  0.7818608E-02  0.9317965E-01
         -2   -1    0    0    0  501 -0.00000000000E+00  0.00000000000E+00  0.41159158954E+03  0.41159158955E+03  0.25500000000E-02 0.  1.
          2   -1    0    0  501    0  0.00000000000E+00 -0.00000000000E+00 -0.32450755207E+04  0.32450755207E+04  0.25500000000E-02 0. -1.
    8880022    1    1    2    0    0 -0.82521034929E+03 -0.52784728445E+03 -0.47726220755E+03  0.11003480104E+04  0.15294330000E+03 0.  0.
    8880022    1    1    2    0    0  0.82521034929E+03  0.52784728445E+03 -0.23562217236E+04  0.25563190998E+04  0.15294330000E+03 0.  0.
<mgrwt>
<rscale>  0 0.99145677E+03</rscale>
<asrwt>0</asrwt>
<pdfrwt beam="1">  1        2 0.49924237E+00 0.99145677E+03</pdfrwt>
<pdfrwt beam="2">  1       -2 0.63321785E-01 0.99145677E+03</pdfrwt>
<totfact> 0.28822956E+00</totfact>
</mgrwt>
</event>
<event>
 4    1  0.2061941E-008  0.3806571E+03  0.7818608E-02  0.1050691E+00
          2   -1    0    0  501    0  0.00000000000E+00  0.00000000000E+00  0.24825308688E+04  0.24825308688E+04  0.25500000000E-02 0. -1.
         -2   -1    0    0    0  501 -0.00000000000E+00 -0.00000000000E+00 -0.75093941384E+02  0.75093941428E+02  0.25500000000E-02 0.  1.
    8880022    1    1    2    0    0 -0.32416049782E+03  0.12817235995E+03  0.18072534209E+04  0.18469068094E+04  0.15294330000E+03 0.  0.
    8880022    1    1    2    0    0  0.32416049782E+03 -0.12817235995E+03  0.60018350650E+03  0.71071800082E+03  0.15294330000E+03 0.  0.
<mgrwt>
<rscale>  0 0.38065711E+03</rscale>
<asrwt>0</asrwt>
<pdfrwt beam="1">  1        2 0.38192781E+00 0.38065711E+03</pdfrwt>
<pdfrwt beam="2">  1       -2 0.11552915E-01 0.38065711E+03</pdfrwt>
<totfact> 0.21078479E+02</totfact>
</mgrwt>
</event>
<event>
 4    1  0.2061941E-008  0.4788381E+03  0.7818608E-02  0.1019455E+00
          2   -1    0    0  501    0  0.00000000000E+00  0.00000000000E+00  0.96190623386E+03  0.96190623387E+03  0.25500000000E-02 0. -1.
         -2   -1    0    0    0  501 -0.00000000000E+00 -0.00000000000E+00 -0.33202060519E+03  0.33202060520E+03  0.25500000000E-02 0.  1.
    8880022    1    1    2    0    0  0.84073827099E+02  0.44589891418E+03 -0.28663697697E+02  0.47969522684E+03  0.15294330000E+03 0.  0.
    8880022    1    1    2    0    0 -0.84073827099E+02 -0.44589891418E+03  0.65854932637E+03  0.81423161223E+03  0.15294330000E+03 0.  0.
<mgrwt>
<rscale>  0 0.47883808E+03</rscale>
<asrwt>0</asrwt>
<pdfrwt beam="1">  1        2 0.14798557E+00 0.47883808E+03</pdfrwt>
<pdfrwt beam="2">  1       -2 0.51080094E-01 0.47883808E+03</pdfrwt>
<totfact> 0.10027489E+02</totfact>
</mgrwt>
</event>
<event>
 4    1  0.2061941E-008  0.1129011E+04  0.7818608E-02  0.9177368E-01
          2   -1    0    0  501    0  0.00000000000E+00  0.00000000000E+00  0.20848142857E+04  0.20848142857E+04  0.25500000000E-02 0. -1.
         -2   -1    0    0    0  501 -0.00000000000E+00 -0.00000000000E+00 -0.12066002652E+04  0.12066002652E+04  0.25500000000E-02 0.  1.
    8880022    1    1    2    0    0 -0.45734623948E+03 -0.10208372376E+04 -0.71674068332E+03  0.13373044188E+04  0.15294330000E+03 0.  0.
    8880022    1    1    2    0    0  0.45734623948E+03  0.10208372376E+04  0.15949547038E+04  0.19541101321E+04  0.15294330000E+03 0.  0.
<mgrwt>
<rscale>  0 0.11290110E+04</rscale>
<asrwt>0</asrwt>
<pdfrwt beam="1">  1        2 0.32074065E+00 0.11290110E+04</pdfrwt>
<pdfrwt beam="2">  1       -2 0.18563081E+00 0.11290110E+04</pdfrwt>
<totfact> 0.97521950E-01</totfact>
</mgrwt>
</event>
<event>
 4    1  0.2061941E-008  0.3873368E+03  0.7818608E-02  0.1048255E+00
         -2   -1    0    0    0  501 -0.00000000000E+00  0.00000000000E+00  0.77505946629E+03  0.77505946629E+03  0.25500000000E-02 0.  1.
          2   -1    0    0  501    0  0.00000000000E+00 -0.00000000000E+00 -0.27404108328E+04  0.27404108328E+04  0.25500000000E-02 0. -1.
    8880022    1    1    2    0    0 -0.21199185546E+03 -0.28582797205E+03 -0.26771942400E+04  0.27050690986E+04  0.15294330000E+03 0.  0.
    8880022    1    1    2    0    0  0.21199185546E+03  0.28582797205E+03  0.71184287344E+03  0.81040120056E+03  0.15294330000E+03 0.  1.
<mgrwt>
<rscale>  0 0.38733684E+03</rscale>
<asrwt>0</asrwt>
<pdfrwt beam="1">  1        2 0.42160166E+00 0.38733684E+03</pdfrwt>
<pdfrwt beam="2">  1       -2 0.11923992E+00 0.38733684E+03</pdfrwt>
<totfact> 0.15966124E+00</totfact>
</mgrwt>
</event>
<event>
 4    1  0.2061941E-008  0.4775897E+03  0.7818608E-02  0.1019800E+00
         -2   -1    0    0    0  501 -0.00000000000E+00  0.00000000000E+00  0.76597026140E+03  0.76597026140E+03  0.25500000000E-02 0.  1.
          2   -1    0    0  501    0  0.00000000000E+00 -0.00000000000E+00 -0.16364785773E+04  0.16364785773E+04  0.25500000000E-02 0. -1.
    8880022    1    1    2    0    0 -0.42530410762E+03 -0.15432645554E+03  0.65119678844E+03  0.80755752063E+03  0.15294330000E+03 0.  0.
    8880022    1    1    2    0    0  0.42530410762E+03  0.15432645554E+03 -0.15217051044E+04  0.15948913181E+04  0.15294330000E+03 0.  0.
<mgrwt>
<rscale>  0 0.47758967E+03</rscale>
<asrwt>0</asrwt>
<pdfrwt beam="1">  1        2 0.25176593E+00 0.47758967E+03</pdfrwt>
<pdfrwt beam="2">  1       -2 0.11784158E+00 0.47758967E+03</pdfrwt>
<totfact> 0.63946417E+00</totfact>
</mgrwt>
</event>
<event>
 4    1  0.2061941E-008  0.1542625E+04  0.7818608E-02  0.8856592E-01
          2   -1    0    0  501    0  0.00000000000E+00  0.00000000000E+00  0.22843628129E+04  0.22843628129E+04  0.25500000000E-02 0. -1.
         -2   -1    0    0    0  501 -0.00000000000E+00 -0.00000000000E+00 -0.11631823041E+04  0.11631823041E+04  0.25500000000E-02 0.  1.
    8880022    1    1    2    0    0 -0.79990508462E+03 -0.13101343635E+04  0.35880250976E+01  0.15426291589E+04  0.15294330000E+03 0.  0.
    8880022    1    1    2    0    0  0.79990508462E+03  0.13101343635E+04  0.11175924838E+04  0.19049159581E+04  0.15294330000E+03 0.  0.
<mgrwt>
<rscale>  0 0.15426250E+04</rscale>
<asrwt>0</asrwt>
<pdfrwt beam="1">  1        2 0.35144043E+00 0.15426250E+04</pdfrwt>
<pdfrwt beam="2">  1       -2 0.17895113E+00 0.15426250E+04</pdfrwt>
<totfact> 0.79936423E-01</totfact>
</mgrwt>
</event>
<event>
 4    1  0.2061941E-008  0.1557009E+04  0.7818608E-02  0.8847403E-01
          2   -1    0    0  501    0  0.00000000000E+00  0.00000000000E+00  0.39215255892E+04  0.39215255892E+04  0.25500000000E-02 0. -1.
         -2   -1    0    0    0  501 -0.00000000000E+00 -0.00000000000E+00 -0.79962892410E+03  0.79962892411E+03  0.25500000000E-02 0.  1.
    8880022    1    1    2    0    0 -0.32026755234E+03  0.15160188120E+04  0.26853736830E+04  0.31041114371E+04  0.15294330000E+03 0.  0.
    8880022    1    1    2    0    0  0.32026755234E+03 -0.15160188120E+04  0.43652298201E+03  0.16170430762E+04  0.15294330000E+03 0.  0.
<mgrwt>
<rscale>  0 0.15570087E+04</rscale>
<asrwt>0</asrwt>
<pdfrwt beam="1">  1        2 0.60331163E+00 0.15570087E+04</pdfrwt>
<pdfrwt beam="2">  1       -2 0.12301984E+00 0.15570087E+04</pdfrwt>
<totfact> 0.18880355E-01</totfact>
</mgrwt>
</event>
<event>
 4    1  0.2061941E-008  0.1355738E+04  0.7818608E-02  0.8986496E-01
         -2   -1    0    0    0  501 -0.00000000000E+00  0.00000000000E+00  0.10791853445E+04  0.10791853445E+04  0.25500000000E-02 0.  1.
          2   -1    0    0  501    0  0.00000000000E+00 -0.00000000000E+00 -0.20003906780E+04  0.20003906780E+04  0.25500000000E-02 0. -1.
    8880022    1    1    2    0    0  0.91620917605E+03  0.98751874639E+03  0.13293885192E+03  0.13622396706E+04  0.15294330000E+03 0.  0.
    8880022    1    1    2    0    0 -0.91620917605E+03 -0.98751874639E+03 -0.10541441854E+04  0.17173363519E+04  0.15294330000E+03 0.  0.
<mgrwt>
<rscale>  0 0.13557375E+04</rscale>
<asrwt>0</asrwt>
<pdfrwt beam="1">  1        2 0.30775241E+00 0.13557375E+04</pdfrwt>
<pdfrwt beam="2">  1       -2 0.16602851E+00 0.13557375E+04</pdfrwt>
<totfact> 0.14527375E+00</totfact>
</mgrwt>
</event>
<event>
 4    1  0.2061941E-008  0.5607910E+03  0.7818608E-02  0.9990267E-01
          2   -1    0    0  501    0  0.00000000000E+00  0.00000000000E+00  0.72009386616E+03  0.72009386616E+03  0.25500000000E-02 0. -1.
         -2   -1    0    0    0  501 -0.00000000000E+00 -0.00000000000E+00 -0.52059198618E+03  0.52059198619E+03  0.25500000000E-02 0.  1.
    8880022    1    1    2    0    0  0.44514653952E+03  0.30485965052E+03 -0.14922994223E+03  0.58030688161E+03  0.15294330000E+03 0.  0.
    8880022    1    1    2    0    0 -0.44514653952E+03 -0.30485965052E+03  0.34873182220E+03  0.66037897074E+03  0.15294330000E+03 0.  0.
<mgrwt>
<rscale>  0 0.56079096E+03</rscale>
<asrwt>0</asrwt>
<pdfrwt beam="1">  1        2 0.11078367E+00 0.56079096E+03</pdfrwt>
<pdfrwt beam="2">  1       -2 0.80091074E-01 0.56079096E+03</pdfrwt>
<totfact> 0.56090914E+01</totfact>
</mgrwt>
</event>
<event>
 4    1  0.2061941E-008  0.5841079E+03  0.7818608E-02  0.9938937E-01
         -2   -1    0    0    0  501 -0.00000000000E+00  0.00000000000E+00  0.24624025908E+03  0.24624025909E+03  0.25500000000E-02 0.  1.
          2   -1    0    0  501    0  0.00000000000E+00 -0.00000000000E+00 -0.38717104664E+04  0.38717104664E+04  0.25500000000E-02 0. -1.
    8880022    1    1    2    0    0  0.55834574218E+03 -0.77719759528E+02 -0.34626553324E+04  0.35115757051E+04  0.15294330000E+03 0.  0.
    8880022    1    1    2    0    0 -0.55834574218E+03  0.77719759528E+02 -0.16281487494E+03  0.60637502038E+03  0.15294330000E+03 0.  0.
<mgrwt>
<rscale>  0 0.58410785E+03</rscale>
<asrwt>0</asrwt>
<pdfrwt beam="1">  1        2 0.59564772E+00 0.58410785E+03</pdfrwt>
<pdfrwt beam="2">  1       -2 0.37883120E-01 0.58410785E+03</pdfrwt>
<totfact> 0.32687271E+00</totfact>
</mgrwt>
</event>
<event>
 4    1  0.2061941E-008  0.1286848E+04  0.7818608E-02  0.9040060E-01
          2   -1    0    0  501    0  0.00000000000E+00  0.00000000000E+00  0.12787616463E+04  0.12787616463E+04  0.25500000000E-02 0. -1.
         -2   -1    0    0    0  501 -0.00000000000E+00 -0.00000000000E+00 -0.13730369326E+04  0.13730369326E+04  0.25500000000E-02 0.  1.
    8880022    1    1    2    0    0  0.10296223369E+04 -0.75661393743E+03  0.26898704204E+03  0.13146605983E+04  0.15294330000E+03 0.  0.
    8880022    1    1    2    0    0 -0.10296223369E+04  0.75661393743E+03 -0.36326232835E+03  0.13371379806E+04  0.15294330000E+03 0.  0.
<mgrwt>
<rscale>  0 0.12868483E+04</rscale>
<asrwt>0</asrwt>
<pdfrwt beam="1">  1        2 0.19673256E+00 0.12868483E+04</pdfrwt>
<pdfrwt beam="2">  1       -2 0.21123645E+00 0.12868483E+04</pdfrwt>
<totfact> 0.18404578E+00</totfact>
</mgrwt>
</event>
<event>
 4    1  0.2061941E-008  0.1629280E+04  0.7818608E-02  0.8802759E-01
          2   -1    0    0  501    0  0.00000000000E+00  0.00000000000E+00  0.37014215575E+04  0.37014215575E+04  0.25500000000E-02 0. -1.
         -2   -1    0    0    0  501 -0.00000000000E+00 -0.00000000000E+00 -0.79461677990E+03  0.79461677990E+03  0.25500000000E-02 0.  1.
    8880022    1    1    2    0    0 -0.16104816952E+04  0.19367741384E+03  0.21552110877E+04  0.27017565984E+04  0.15294330000E+03 0.  0.
    8880022    1    1    2    0    0  0.16104816952E+04 -0.19367741384E+03  0.75159368986E+03  0.17942817390E+04  0.15294330000E+03 0.  0.
<mgrwt>
<rscale>  0 0.16292802E+04</rscale>
<asrwt>0</asrwt>
<pdfrwt beam="1">  1        2 0.56944946E+00 0.16292802E+04</pdfrwt>
<pdfrwt beam="2">  1       -2 0.12224874E+00 0.16292802E+04</pdfrwt>
<totfact> 0.27917841E-01</totfact>
</mgrwt>
</event>
<event>
 4    1  0.2061941E-008  0.7695313E+03  0.7818608E-02  0.9605197E-01
         -2   -1    0    0    0  501 -0.00000000000E+00  0.00000000000E+00  0.11942268152E+04  0.11942268152E+04  0.25500000000E-02 0.  1.
          2   -1    0    0  501    0  0.00000000000E+00 -0.00000000000E+00 -0.69382815412E+03  0.69382815413E+03  0.25500000000E-02 0. -1.
    8880022    1    1    2    0    0 -0.72939085825E+03 -0.19177007617E+03  0.75445171395E+03  0.10776714842E+04  0.15294330000E+03 0.  0.
    8880022    1    1    2    0    0  0.72939085825E+03  0.19177007617E+03 -0.25405305289E+03  0.81038348509E+03  0.15294330000E+03 0.  0.
<mgrwt>
<rscale>  0 0.76953131E+03</rscale>
<asrwt>0</asrwt>
<pdfrwt beam="1">  1        2 0.10674279E+00 0.76953131E+03</pdfrwt>
<pdfrwt beam="2">  1       -2 0.18372720E+00 0.76953131E+03</pdfrwt>
<totfact> 0.71979467E+00</totfact>
</mgrwt>
</event>
<event>
 4    1  0.2061941E-008  0.7904326E+03  0.7818608E-02  0.9573970E-01
         -2   -1    0    0    0  501 -0.00000000000E+00  0.00000000000E+00  0.13511144892E+04  0.13511144892E+04  0.25500000000E-02 0.  1.
          2   -1    0    0  501    0  0.00000000000E+00 -0.00000000000E+00 -0.11496402158E+04  0.11496402158E+04  0.25500000000E-02 0. -1.
    8880022    1    1    2    0    0 -0.46203586069E+03  0.62282814899E+03  0.10674728824E+04  0.13282627930E+04  0.15294330000E+03 0.  0.
    8880022    1    1    2    0    0  0.46203586069E+03 -0.62282814899E+03 -0.86599860906E+03  0.11724919120E+04  0.15294330000E+03 0.  0.
<mgrwt>
<rscale>  0 0.79043260E+03</rscale>
<asrwt>0</asrwt>
<pdfrwt beam="1">  1        2 0.17686773E+00 0.79043260E+03</pdfrwt>
<pdfrwt beam="2">  1       -2 0.20786377E+00 0.79043260E+03</pdfrwt>
<totfact> 0.24516170E+00</totfact>
</mgrwt>
</event>
<event>
 4    1  0.2061941E-008  0.1242654E+04  0.7818608E-02  0.9076319E-01
          2   -1    0    0  501    0  0.00000000000E+00  0.00000000000E+00  0.17508927033E+04  0.17508927033E+04  0.25500000000E-02 0. -1.
         -2   -1    0    0    0  501 -0.00000000000E+00 -0.00000000000E+00 -0.14108825207E+04  0.14108825207E+04  0.25500000000E-02 0.  1.
    8880022    1    1    2    0    0 -0.36459118874E+03  0.11780795209E+04 -0.79795637068E+03  0.14767952177E+04  0.15294330000E+03 0.  0.
    8880022    1    1    2    0    0  0.36459118874E+03 -0.11780795209E+04  0.11379665533E+04  0.16849800064E+04  0.15294330000E+03 0.  0.
<mgrwt>
<rscale>  0 0.12426543E+04</rscale>
<asrwt>0</asrwt>
<pdfrwt beam="1">  1        2 0.26936811E+00 0.12426543E+04</pdfrwt>
<pdfrwt beam="2">  1       -2 0.21705885E+00 0.12426543E+04</pdfrwt>
<totfact> 0.91535277E-01</totfact>
</mgrwt>
</event>
<event>
 4    1  0.2061941E-008  0.1090621E+04  0.7818608E-02  0.9214382E-01
          2   -1    0    0  501    0  0.00000000000E+00  0.00000000000E+00  0.44352087250E+04  0.44352087250E+04  0.25500000000E-02 0. -1.
         -2   -1    0    0    0  501 -0.00000000000E+00 -0.00000000000E+00 -0.32221418282E+03  0.32221418283E+03  0.25500000000E-02 0.  1.
    8880022    1    1    2    0    0  0.98829992488E+03 -0.43511578426E+03  0.10824372209E+04  0.15365950922E+04  0.15294330000E+03 0.  0.
    8880022    1    1    2    0    0 -0.98829992488E+03  0.43511578426E+03  0.30305573213E+04  0.32208278156E+04  0.15294330000E+03 0.  0.
<mgrwt>
<rscale>  0 0.10906210E+04</rscale>
<asrwt>0</asrwt>
<pdfrwt beam="1">  1        2 0.68233980E+00 0.10906210E+04</pdfrwt>
<pdfrwt beam="2">  1       -2 0.49571413E-01 0.10906210E+04</pdfrwt>
<totfact> 0.57754435E-01</totfact>
</mgrwt>
</event>
<event>
 4    1  0.2061941E-008  0.1119538E+04  0.7818608E-02  0.9186356E-01
         -2   -1    0    0    0  501 -0.00000000000E+00  0.00000000000E+00  0.51921820368E+03  0.51921820369E+03  0.25500000000E-02 0.  1.
          2   -1    0    0  501    0  0.00000000000E+00 -0.00000000000E+00 -0.28025123538E+04  0.28025123538E+04  0.25500000000E-02 0. -1.
    8880022    1    1    2    0    0  0.27429069066E+03  0.10745870824E+04 -0.52321283408E+03  0.12357653917E+04  0.15294330000E+03 0.  0.
    8880022    1    1    2    0    0 -0.27429069066E+03 -0.10745870824E+04 -0.17600813160E+04  0.20859651658E+04  0.15294330000E+03 0.  0.
<mgrwt>
<rscale>  0 0.11195376E+04</rscale>
<asrwt>0</asrwt>
<pdfrwt beam="1">  1        2 0.43115574E+00 0.11195376E+04</pdfrwt>
<pdfrwt beam="2">  1       -2 0.79879725E-01 0.11195376E+04</pdfrwt>
<totfact> 0.31968249E+00</totfact>
</mgrwt>
</event>
<event>
 4    1  0.2061941E-008  0.7440950E+03  0.7818608E-02  0.9644660E-01
          2   -1    0    0  501    0  0.00000000000E+00  0.00000000000E+00  0.24084733406E+04  0.24084733406E+04  0.25500000000E-02 0. -1.
         -2   -1    0    0    0  501 -0.00000000000E+00 -0.00000000000E+00 -0.10902760014E+04  0.10902760014E+04  0.25500000000E-02 0.  1.
    8880022    1    1    2    0    0 -0.72813635068E+03  0.10160727332E+02  0.22131378232E+04  0.23348782545E+04  0.15294330000E+03 0.  0.
    8880022    1    1    2    0    0  0.72813635068E+03 -0.10160727332E+02 -0.89494048403E+03  0.11638710876E+04  0.15294330000E+03 0.  0.
<mgrwt>
<rscale>  0 0.74409505E+03</rscale>
<asrwt>0</asrwt>
<pdfrwt beam="1">  1        2 0.37053436E+00 0.74409505E+03</pdfrwt>
<pdfrwt beam="2">  1       -2 0.16773477E+00 0.74409505E+03</pdfrwt>
<totfact> 0.91533222E-01</totfact>
</mgrwt>
</event>
<event>
 4    1  0.2061941E-008  0.1218232E+04  0.7818608E-02  0.9097046E-01
         -2   -1    0    0    0  501 -0.00000000000E+00  0.00000000000E+00  0.65386668980E+03  0.65386668981E+03  0.25500000000E-02 0.  1.
          2   -1    0    0  501    0  0.00000000000E+00 -0.00000000000E+00 -0.29533824892E+04  0.29533824892E+04  0.25500000000E-02 0. -1.
    8880022    1    1    2    0    0  0.77257869664E+03 -0.92941856409E+03 -0.20175387484E+04  0.23568094883E+04  0.15294330000E+03 0.  0.
    8880022    1    1    2    0    0 -0.77257869664E+03  0.92941856409E+03 -0.28197705099E+03  0.12504396907E+04  0.15294330000E+03 0.  0.
<mgrwt>
<rscale>  0 0.12182317E+04</rscale>
<asrwt>0</asrwt>
<pdfrwt beam="1">  1        2 0.45436653E+00 0.12182317E+04</pdfrwt>
<pdfrwt beam="2">  1       -2 0.10059488E+00 0.12182317E+04</pdfrwt>
<totfact> 0.14972249E+00</totfact>
</mgrwt>
</event>
<event>
 4    1  0.2061941E-008  0.1022864E+04  0.7818608E-02  0.9283817E-01
         -2   -1    0    0    0  501 -0.00000000000E+00  0.00000000000E+00  0.19506299429E+04  0.19506299429E+04  0.25500000000E-02 0.  1.
          2   -1    0    0  501    0  0.00000000000E+00 -0.00000000000E+00 -0.80171019831E+03  0.80171019832E+03  0.25500000000E-02 0. -1.
    8880022    1    1    2    0    0 -0.77958921974E+02 -0.10083562654E+04 -0.21725388622E+03  0.10456820050E+04  0.15294330000E+03 0.  0.
    8880022    1    1    2    0    0  0.77958921974E+02  0.10083562654E+04  0.13661736308E+04  0.17066581362E+04  0.15294330000E+03 0.  0.
<mgrwt>
<rscale>  0 0.10228644E+04</rscale>
<asrwt>0</asrwt>
<pdfrwt beam="1">  1        2 0.12334003E+00 0.10228644E+04</pdfrwt>
<pdfrwt beam="2">  1       -2 0.30009691E+00 0.10228644E+04</pdfrwt>
<totfact> 0.10918780E+00</totfact>
</mgrwt>
</event>
<event>
 4    1  0.2061941E-008  0.5612529E+03  0.7818608E-02  0.9989224E-01
         -2   -1    0    0    0  501 -0.00000000000E+00  0.00000000000E+00  0.27294007575E+04  0.27294007575E+04  0.25500000000E-02 0.  1.
          2   -1    0    0  501    0  0.00000000000E+00 -0.00000000000E+00 -0.31932194955E+03  0.31932194956E+03  0.25500000000E-02 0. -1.
    8880022    1    1    2    0    0  0.36693468193E+03 -0.39619708723E+03  0.24231677424E+04  0.24873171799E+04  0.15294330000E+03 0.  0.
    8880022    1    1    2    0    0 -0.36693468193E+03  0.39619708723E+03 -0.13088934410E+02  0.56140552718E+03  0.15294330000E+03 0.  0.
<mgrwt>
<rscale>  0 0.56125292E+03</rscale>
<asrwt>0</asrwt>
<pdfrwt beam="1">  1        2 0.49126453E-01 0.56125292E+03</pdfrwt>
<pdfrwt beam="2">  1       -2 0.41990782E+00 0.56125292E+03</pdfrwt>
<totfact> 0.62297858E-01</totfact>
</mgrwt>
</event>
<event>
 4    1  0.2061941E-008  0.1298264E+04  0.7818608E-02  0.9030943E-01
         -2   -1    0    0    0  501 -0.00000000000E+00  0.00000000000E+00  0.52645926769E+03  0.52645926770E+03  0.25500000000E-02 0.  1.
          2   -1    0    0  501    0  0.00000000000E+00 -0.00000000000E+00 -0.46125952814E+04  0.46125952814E+04  0.25500000000E-02 0. -1.
    8880022    1    1    2    0    0 -0.12785077294E+04  0.16587565403E+03 -0.62188425467E+03  0.14395236802E+04  0.15294330000E+03 0.  0.
    8880022    1    1    2    0    0  0.12785077294E+04 -0.16587565403E+03 -0.34642517590E+04  0.36995308688E+04  0.15294330000E+03 0.  0.
<mgrwt>
<rscale>  0 0.12982636E+04</rscale>
<asrwt>0</asrwt>
<pdfrwt beam="1">  1        2 0.70963002E+00 0.12982636E+04</pdfrwt>
<pdfrwt beam="2">  1       -2 0.80993737E-01 0.12982636E+04</pdfrwt>
<totfact> 0.12996849E-01</totfact>
</mgrwt>
</event>
<event>
 4    1  0.2061941E-008  0.7409516E+03  0.7818608E-02  0.9649654E-01
         -2   -1    0    0    0  501 -0.00000000000E+00  0.00000000000E+00  0.25882578563E+03  0.25882578564E+03  0.25500000000E-02 0.  1.
          2   -1    0    0  501    0  0.00000000000E+00 -0.00000000000E+00 -0.27278436266E+04  0.27278436266E+04  0.25500000000E-02 0. -1.
    8880022    1    1    2    0    0  0.37190714390E+03  0.62233652290E+03 -0.19387652255E+04  0.20755288300E+04  0.15294330000E+03 0. -1.
    8880022    1    1    2    0    0 -0.37190714390E+03 -0.62233652290E+03 -0.53025261547E+03  0.91114058226E+03  0.15294330000E+03 0.  1.
<mgrwt>
<rscale>  0 0.74095163E+03</rscale>
<asrwt>0</asrwt>
<pdfrwt beam="1">  1        2 0.41966823E+00 0.74095163E+03</pdfrwt>
<pdfrwt beam="2">  1       -2 0.39819354E-01 0.74095163E+03</pdfrwt>
<totfact> 0.16079121E+01</totfact>
</mgrwt>
</event>
<event>
 4    1  0.2061941E-008  0.1322409E+04  0.7818608E-02  0.9011981E-01
          2   -1    0    0  501    0  0.00000000000E+00  0.00000000000E+00  0.31679607794E+04  0.31679607794E+04  0.25500000000E-02 0. -1.
         -2   -1    0    0    0  501 -0.00000000000E+00 -0.00000000000E+00 -0.64612837755E+03  0.64612837756E+03  0.25500000000E-02 0.  1.
    8880022    1    1    2    0    0 -0.10176512735E+04  0.83051714629E+03  0.19887382415E+04  0.23882722397E+04  0.15294330000E+03 0.  0.
    8880022    1    1    2    0    0  0.10176512735E+04 -0.83051714629E+03  0.53309416029E+03  0.14258169172E+04  0.15294330000E+03 0.  0.
<mgrwt>
<rscale>  0 0.13224086E+04</rscale>
<asrwt>0</asrwt>
<pdfrwt beam="1">  1        2 0.48737858E+00 0.13224086E+04</pdfrwt>
<pdfrwt beam="2">  1       -2 0.99404366E-01 0.13224086E+04</pdfrwt>
<totfact> 0.11147974E+00</totfact>
</mgrwt>
</event>
<event>
 4    1  0.2061941E-008  0.1933523E+03  0.7818608E-02  0.1155472E+00
         -2   -1    0    0    0  501 -0.00000000000E+00  0.00000000000E+00  0.15826986423E+03  0.15826986426E+03  0.25500000000E-02 0.  1.
          2   -1    0    0  501    0  0.00000000000E+00 -0.00000000000E+00 -0.69684143296E+03  0.69684143296E+03  0.25500000000E-02 0. -1.
    8880022    1    1    2    0    0 -0.73422904142E+02  0.92749758477E+02  0.78331968590E+02  0.20861685183E+03  0.15294330000E+03 0.  1.
    8880022    1    1    2    0    0  0.73422904142E+02 -0.92749758477E+02 -0.61690353731E+03  0.64649444539E+03  0.15294330000E+03 0.  0.
<mgrwt>
<rscale>  0 0.19335225E+03</rscale>
<asrwt>0</asrwt>
<pdfrwt beam="1">  1        2 0.10720637E+00 0.19335225E+03</pdfrwt>
<pdfrwt beam="2">  1       -2 0.24349210E-01 0.19335225E+03</pdfrwt>
<totfact> 0.63294856E+02</totfact>
</mgrwt>
</event>
<event>
 4    1  0.2061941E-008  0.1338238E+04  0.7818608E-02  0.8999780E-01
         -2   -1    0    0    0  501 -0.00000000000E+00  0.00000000000E+00  0.10826199276E+04  0.10826199276E+04  0.25500000000E-02 0.  1.
          2   -1    0    0  501    0  0.00000000000E+00 -0.00000000000E+00 -0.27559624073E+04  0.27559624073E+04  0.25500000000E-02 0. -1.
    8880022    1    1    2    0    0  0.13002724188E+04 -0.27709160004E+03 -0.20501897221E+04  0.24482968912E+04  0.15294330000E+03 0.  0.
    8880022    1    1    2    0    0 -0.13002724188E+04  0.27709160004E+03  0.37684724235E+03  0.13902854437E+04  0.15294330000E+03 0.  0.
<mgrwt>
<rscale>  0 0.13382376E+04</rscale>
<asrwt>0</asrwt>
<pdfrwt beam="1">  1        2 0.42399421E+00 0.13382376E+04</pdfrwt>
<pdfrwt beam="2">  1       -2 0.16655691E+00 0.13382376E+04</pdfrwt>
<totfact> 0.53360134E-01</totfact>
</mgrwt>
</event>
<event>
 4    1  0.2061941E-008  0.6442224E+03  0.7818608E-02  0.9817681E-01
         -2   -1    0    0    0  501 -0.00000000000E+00  0.00000000000E+00  0.13840864022E+04  0.13840864022E+04  0.25500000000E-02 0.  1.
          2   -1    0    0  501    0  0.00000000000E+00 -0.00000000000E+00 -0.10735735683E+04  0.10735735683E+04  0.25500000000E-02 0. -1.
    8880022    1    1    2    0    0 -0.32758672413E+03  0.53321458061E+03  0.11984573268E+04  0.13606331129E+04  0.15294330000E+03 0.  0.
    8880022    1    1    2    0    0  0.32758672413E+03 -0.53321458061E+03 -0.88794449293E+03  0.10970268576E+04  0.15294330000E+03 0.  0.
<mgrwt>
<rscale>  0 0.64422240E+03</rscale>
<asrwt>0</asrwt>
<pdfrwt beam="1">  1        2 0.16516516E+00 0.64422240E+03</pdfrwt>
<pdfrwt beam="2">  1       -2 0.21293637E+00 0.64422240E+03</pdfrwt>
<totfact> 0.25951681E+00</totfact>
</mgrwt>
</event>
<event>
 4    1  0.2061941E-008  0.1076338E+04  0.7818608E-02  0.9228567E-01
          2   -1    0    0  501    0  0.00000000000E+00  0.00000000000E+00  0.95880926724E+03  0.95880926724E+03  0.25500000000E-02 0. -1.
         -2   -1    0    0    0  501 -0.00000000000E+00 -0.00000000000E+00 -0.16264354093E+04  0.16264354093E+04  0.25500000000E-02 0.  1.
    8880022    1    1    2    0    0 -0.20602949630E+03  0.10453052521E+04 -0.98924259057E+03  0.14618836409E+04  0.15294330000E+03 0.  0.
    8880022    1    1    2    0    0  0.20602949630E+03 -0.10453052521E+04  0.32161644855E+03  0.11233610356E+04  0.15294330000E+03 0.  0.
<mgrwt>
<rscale>  0 0.10763377E+04</rscale>
<asrwt>0</asrwt>
<pdfrwt beam="1">  1        2 0.14750912E+00 0.10763377E+04</pdfrwt>
<pdfrwt beam="2">  1       -2 0.25022083E+00 0.10763377E+04</pdfrwt>
<totfact> 0.16953333E+00</totfact>
</mgrwt>
</event>
<event>
 4    1  0.2061941E-008  0.3926758E+03  0.7818608E-02  0.1046346E+00
          2   -1    0    0  501    0  0.00000000000E+00  0.00000000000E+00  0.76300301864E+03  0.76300301865E+03  0.25500000000E-02 0. -1.
         -2   -1    0    0    0  501 -0.00000000000E+00 -0.00000000000E+00 -0.53781417526E+03  0.53781417527E+03  0.25500000000E-02 0.  1.
    8880022    1    1    2    0    0 -0.27584044048E+03  0.23391163020E+03 -0.40128630501E+03  0.56144897448E+03  0.15294330000E+03 0.  0.
    8880022    1    1    2    0    0  0.27584044048E+03 -0.23391163020E+03  0.62647514839E+03  0.73936821943E+03  0.15294330000E+03 0. -1.
<mgrwt>
<rscale>  0 0.39267576E+03</rscale>
<asrwt>0</asrwt>
<pdfrwt beam="1">  1        2 0.11738508E+00 0.39267576E+03</pdfrwt>
<pdfrwt beam="2">  1       -2 0.82740643E-01 0.39267576E+03</pdfrwt>
<totfact> 0.49441536E+01</totfact>
</mgrwt>
</event>
<event>
 4    1  0.2061941E-008  0.2582474E+03  0.7818608E-02  0.1108201E+00
          2   -1    0    0  501    0  0.00000000000E+00  0.00000000000E+00  0.24491214023E+04  0.24491214023E+04  0.25500000000E-02 0. -1.
         -2   -1    0    0    0  501 -0.00000000000E+00 -0.00000000000E+00 -0.77606226313E+02  0.77606226355E+02  0.25500000000E-02 0.  1.
    8880022    1    1    2    0    0  0.14589782911E+03  0.14837080222E+03  0.16789492385E+03  0.30802667086E+03  0.15294330000E+03 0.  0.
    8880022    1    1    2    0    0 -0.14589782911E+03 -0.14837080222E+03  0.22036202522E+04  0.22187009578E+04  0.15294330000E+03 0.  0.
<mgrwt>
<rscale>  0 0.25824741E+03</rscale>
<asrwt>0</asrwt>
<pdfrwt beam="1">  1        2 0.37678789E+00 0.25824741E+03</pdfrwt>
<pdfrwt beam="2">  1       -2 0.11939420E-01 0.25824741E+03</pdfrwt>
<totfact> 0.21458490E+02</totfact>
</mgrwt>
</event>
<event>
 4    1  0.2061941E-008  0.7624932E+03  0.7818608E-02  0.9615952E-01
         -2   -1    0    0    0  501 -0.00000000000E+00  0.00000000000E+00  0.14556834700E+04  0.14556834700E+04  0.25500000000E-02 0.  1.
          2   -1    0    0  501    0  0.00000000000E+00 -0.00000000000E+00 -0.76166545391E+03  0.76166545392E+03  0.25500000000E-02 0. -1.
    8880022    1    1    2    0    0  0.50864311837E+02 -0.74526312063E+03  0.11116138321E+04  0.13479915660E+04  0.15294330000E+03 0.  0.
    8880022    1    1    2    0    0 -0.50864311837E+02  0.74526312063E+03 -0.41759581604E+03  0.86935735792E+03  0.15294330000E+03 0.  0.
<mgrwt>
<rscale>  0 0.76249325E+03</rscale>
<asrwt>0</asrwt>
<pdfrwt beam="1">  1        2 0.11717930E+00 0.76249325E+03</pdfrwt>
<pdfrwt beam="2">  1       -2 0.22395130E+00 0.76249325E+03</pdfrwt>
<totfact> 0.35117708E+00</totfact>
</mgrwt>
</event>
<event>
 4    1  0.2061941E-008  0.8695694E+03  0.7818608E-02  0.9464442E-01
          2   -1    0    0  501    0  0.00000000000E+00  0.00000000000E+00  0.11803012217E+04  0.11803012217E+04  0.25500000000E-02 0. -1.
         -2   -1    0    0    0  501 -0.00000000000E+00 -0.00000000000E+00 -0.15088263530E+04  0.15088263530E+04  0.25500000000E-02 0.  1.
    8880022    1    1    2    0    0  0.79438131948E+03 -0.31893202923E+03 -0.11841862205E+04  0.14691657422E+04  0.15294330000E+03 0.  0.
    8880022    1    1    2    0    0 -0.79438131948E+03  0.31893202923E+03  0.85566108925E+03  0.12199618325E+04  0.15294330000E+03 0.  0.
<mgrwt>
<rscale>  0 0.86956942E+03</rscale>
<asrwt>0</asrwt>
<pdfrwt beam="1">  1        2 0.18158480E+00 0.86956942E+03</pdfrwt>
<pdfrwt beam="2">  1       -2 0.23212713E+00 0.86956942E+03</pdfrwt>
<totfact> 0.16347856E+00</totfact>
</mgrwt>
</event>
<event>
 4    1  0.2061941E-008  0.5715887E+03  0.7818608E-02  0.9966169E-01
          2   -1    0    0  501    0  0.00000000000E+00  0.00000000000E+00  0.47447389957E+03  0.47447389957E+03  0.25500000000E-02 0. -1.
         -2   -1    0    0    0  501 -0.00000000000E+00 -0.00000000000E+00 -0.19092662808E+04  0.19092662808E+04  0.25500000000E-02 0.  1.
    8880022    1    1    2    0    0 -0.54412156043E+03 -0.85168652459E+02 -0.16704064078E+04  0.17654946027E+04  0.15294330000E+03 0.  0.
    8880022    1    1    2    0    0  0.54412156043E+03  0.85168652459E+02  0.23561402652E+03  0.61824557774E+03  0.15294330000E+03 0. -1.
<mgrwt>
<rscale>  0 0.57158869E+03</rscale>
<asrwt>0</asrwt>
<pdfrwt beam="1">  1        2 0.72995985E-01 0.57158869E+03</pdfrwt>
<pdfrwt beam="2">  1       -2 0.29373327E+00 0.57158869E+03</pdfrwt>
<totfact> 0.24366091E+00</totfact>
</mgrwt>
</event>
<event>
 4    1  0.2061941E-008  0.2341806E+03  0.7818608E-02  0.1123731E+00
          2   -1    0    0  501    0  0.00000000000E+00  0.00000000000E+00  0.21172099421E+04  0.21172099421E+04  0.25500000000E-02 0. -1.
         -2   -1    0    0    0  501 -0.00000000000E+00 -0.00000000000E+00 -0.31915170041E+03  0.31915170042E+03  0.25500000000E-02 0.  1.
    8880022    1    1    2    0    0 -0.16873375135E+03 -0.54569589449E+02  0.20667303978E+04  0.20799555547E+04  0.15294330000E+03 0.  0.
    8880022    1    1    2    0    0  0.16873375135E+03  0.54569589449E+02 -0.26867215617E+03  0.35640608785E+03  0.15294330000E+03 0.  1.
<mgrwt>
<rscale>  0 0.23418064E+03</rscale>
<asrwt>0</asrwt>
<pdfrwt beam="1">  1        2 0.32572460E+00 0.23418064E+03</pdfrwt>
<pdfrwt beam="2">  1       -2 0.49100262E-01 0.23418064E+03</pdfrwt>
<totfact> 0.26467867E+01</totfact>
</mgrwt>
</event>
<event>
 4    1  0.2061941E-008  0.5364938E+03  0.7818608E-02  0.1004669E+00
          2   -1    0    0  501    0  0.00000000000E+00  0.00000000000E+00  0.16777479579E+04  0.16777479579E+04  0.25500000000E-02 0. -1.
         -2   -1    0    0    0  501 -0.00000000000E+00 -0.00000000000E+00 -0.31775755914E+03  0.31775755915E+03  0.25500000000E-02 0.  1.
    8880022    1    1    2    0    0 -0.46423699516E+03  0.22117392696E+03  0.13567836292E+04  0.14590021806E+04  0.15294330000E+03 0.  0.
    8880022    1    1    2    0    0  0.46423699516E+03 -0.22117392696E+03  0.32067696070E+01  0.53650333645E+03  0.15294330000E+03 0.  0.
<mgrwt>
<rscale>  0 0.53649375E+03</rscale>
<asrwt>0</asrwt>
<pdfrwt beam="1">  1        2 0.25811507E+00 0.53649375E+03</pdfrwt>
<pdfrwt beam="2">  1       -2 0.48885778E-01 0.53649375E+03</pdfrwt>
<totfact> 0.42191356E+01</totfact>
</mgrwt>
</event>
<event>
 4    1  0.2061941E-008  0.3882791E+03  0.7818608E-02  0.1047915E+00
         -2   -1    0    0    0  501 -0.00000000000E+00  0.00000000000E+00  0.12331786371E+04  0.12331786371E+04  0.25500000000E-02 0.  1.
          2   -1    0    0  501    0  0.00000000000E+00 -0.00000000000E+00 -0.28014948240E+03  0.28014948241E+03  0.25500000000E-02 0. -1.
    8880022    1    1    2    0    0 -0.45450178461E+02  0.35398207293E+03  0.10445735538E+04  0.11144032434E+04  0.15294330000E+03 0.  0.
    8880022    1    1    2    0    0  0.45450178461E+02 -0.35398207293E+03 -0.91544399150E+02  0.39892487602E+03  0.15294330000E+03 0.  0.
<mgrwt>
<rscale>  0 0.38827913E+03</rscale>
<asrwt>0</asrwt>
<pdfrwt beam="1">  1        2 0.43099920E-01 0.38827913E+03</pdfrwt>
<pdfrwt beam="2">  1       -2 0.18971979E+00 0.38827913E+03</pdfrwt>
<totfact> 0.19516605E+01</totfact>
</mgrwt>
</event>
<event>
 4    1  0.2061941E-008  0.6711875E+03  0.7818608E-02  0.9767815E-01
         -2   -1    0    0    0  501 -0.00000000000E+00  0.00000000000E+00  0.39681205775E+03  0.39681205775E+03  0.25500000000E-02 0.  1.
          2   -1    0    0  501    0  0.00000000000E+00 -0.00000000000E+00 -0.19097714369E+04  0.19097714369E+04  0.25500000000E-02 0. -1.
    8880022    1    1    2    0    0 -0.17393091499E+02  0.65329815976E+03 -0.22038723987E+02  0.67154922645E+03  0.15294330000E+03 0.  0.
    8880022    1    1    2    0    0  0.17393091499E+02 -0.65329815976E+03 -0.14909206552E+04  0.16350342682E+04  0.15294330000E+03 0.  0.
<mgrwt>
<rscale>  0 0.67118750E+03</rscale>
<asrwt>0</asrwt>
<pdfrwt beam="1">  1        2 0.29381099E+00 0.67118750E+03</pdfrwt>
<pdfrwt beam="2">  1       -2 0.61048010E-01 0.67118750E+03</pdfrwt>
<totfact> 0.19545296E+01</totfact>
</mgrwt>
</event>
<event>
 4    1  0.2061941E-008  0.7251722E+03  0.7818608E-02  0.9675127E-01
          2   -1    0    0  501    0  0.00000000000E+00  0.00000000000E+00  0.15738090646E+04  0.15738090646E+04  0.25500000000E-02 0. -1.
         -2   -1    0    0    0  501 -0.00000000000E+00 -0.00000000000E+00 -0.39279025576E+03  0.39279025577E+03  0.25500000000E-02 0.  1.
    8880022    1    1    2    0    0 -0.63526313073E+03 -0.31452153573E+03  0.21055151069E+03  0.75512027742E+03  0.15294330000E+03 0.  0.
    8880022    1    1    2    0    0  0.63526313073E+03  0.31452153573E+03  0.97046729811E+03  0.12114790429E+04  0.15294330000E+03 0.  0.
<mgrwt>
<rscale>  0 0.72517218E+03</rscale>
<asrwt>0</asrwt>
<pdfrwt beam="1">  1        2 0.24212448E+00 0.72517218E+03</pdfrwt>
<pdfrwt beam="2">  1       -2 0.60429269E-01 0.72517218E+03</pdfrwt>
<totfact> 0.30237871E+01</totfact>
</mgrwt>
</event>
<event>
 4    1  0.2061941E-008  0.1237230E+04  0.7818608E-02  0.9080880E-01
         -2   -1    0    0    0  501 -0.00000000000E+00  0.00000000000E+00  0.85171393512E+03  0.85171393512E+03  0.25500000000E-02 0.  1.
          2   -1    0    0  501    0  0.00000000000E+00 -0.00000000000E+00 -0.27028338782E+04  0.27028338782E+04  0.25500000000E-02 0. -1.
    8880022    1    1    2    0    0 -0.54056540695E+03  0.11023313477E+04 -0.19543119373E+04  0.23130223001E+04  0.15294330000E+03 0.  0.
    8880022    1    1    2    0    0  0.54056540695E+03 -0.11023313477E+04  0.10319199426E+03  0.12415255132E+04  0.15294330000E+03 0.  0.
<mgrwt>
<rscale>  0 0.12372296E+04</rscale>
<asrwt>0</asrwt>
<pdfrwt beam="1">  1        2 0.41582059E+00 0.12372296E+04</pdfrwt>
<pdfrwt beam="2">  1       -2 0.13103291E+00 0.12372296E+04</pdfrwt>
<totfact> 0.11005201E+00</totfact>
</mgrwt>
</event>
<event>
 4    1  0.2061941E-008  0.6040396E+03  0.7818608E-02  0.9897060E-01
          2   -1    0    0  501    0  0.00000000000E+00  0.00000000000E+00  0.27106223875E+04  0.27106223875E+04  0.25500000000E-02 0. -1.
         -2   -1    0    0    0  501 -0.00000000000E+00 -0.00000000000E+00 -0.30153364714E+03  0.30153364715E+03  0.25500000000E-02 0.  1.
    8880022    1    1    2    0    0  0.41332358997E+02 -0.58289268097E+03  0.23251292123E+04  0.24023092532E+04  0.15294330000E+03 0.  0.
    8880022    1    1    2    0    0 -0.41332358997E+02  0.58289268097E+03  0.83959528088E+02  0.60984678141E+03  0.15294330000E+03 0.  0.
<mgrwt>
<rscale>  0 0.60403965E+03</rscale>
<asrwt>0</asrwt>
<pdfrwt beam="1">  1        2 0.41701884E+00 0.60403965E+03</pdfrwt>
<pdfrwt beam="2">  1       -2 0.46389791E-01 0.60403965E+03</pdfrwt>
<totfact> 0.12487478E+01</totfact>
</mgrwt>
</event>
<event>
 4    1  0.2061941E-008  0.4181061E+03  0.7818608E-02  0.1037684E+00
         -2   -1    0    0    0  501 -0.00000000000E+00  0.00000000000E+00  0.17936044593E+04  0.17936044593E+04  0.25500000000E-02 0.  1.
          2   -1    0    0  501    0  0.00000000000E+00 -0.00000000000E+00 -0.75126567252E+03  0.75126567253E+03  0.25500000000E-02 0. -1.
    8880022    1    1    2    0    0 -0.26736212898E+03 -0.28273412931E+03  0.17081994241E+04  0.17586238999E+04  0.15294330000E+03 0.  0.
    8880022    1    1    2    0    0  0.26736212898E+03  0.28273412931E+03 -0.66586063730E+03  0.78624623192E+03  0.15294330000E+03 0. -1.
<mgrwt>
<rscale>  0 0.41810615E+03</rscale>
<asrwt>0</asrwt>
<pdfrwt beam="1">  1        2 0.11557933E+00 0.41810615E+03</pdfrwt>
<pdfrwt beam="2">  1       -2 0.27593915E+00 0.41810615E+03</pdfrwt>
<totfact> 0.18632460E+00</totfact>
</mgrwt>
</event>
<event>
 4    1  0.2061941E-008  0.2223215E+03  0.7818608E-02  0.1132164E+00
         -2   -1    0    0    0  501 -0.00000000000E+00  0.00000000000E+00  0.81603013378E+02  0.81603013418E+02  0.25500000000E-02 0.  1.
          2   -1    0    0  501    0  0.00000000000E+00 -0.00000000000E+00 -0.94849806797E+03  0.94849806798E+03  0.25500000000E-02 0. -1.
    8880022    1    1    2    0    0  0.86546917199E+02 -0.13617940315E+03 -0.12381146873E+03  0.25447226082E+03  0.15294330000E+03 0.  0.
    8880022    1    1    2    0    0 -0.86546917199E+02  0.13617940315E+03 -0.74308358586E+03  0.77562882058E+03  0.15294330000E+03 0.  0.
<mgrwt>
<rscale>  0 0.22232151E+03</rscale>
<asrwt>0</asrwt>
<pdfrwt beam="1">  1        2 0.14592277E+00 0.22232151E+03</pdfrwt>
<pdfrwt beam="2">  1       -2 0.12554310E-01 0.22232151E+03</pdfrwt>
<totfact> 0.13000123E+03</totfact>
</mgrwt>
</event>
<event>
 4    1  0.2061941E-008  0.1157789E+04  0.7818608E-02  0.9150628E-01
          2   -1    0    0  501    0  0.00000000000E+00  0.00000000000E+00  0.32342591107E+04  0.32342591107E+04  0.25500000000E-02 0. -1.
         -2   -1    0    0    0  501 -0.00000000000E+00 -0.00000000000E+00 -0.56044782686E+03  0.56044782686E+03  0.25500000000E-02 0.  1.
    8880022    1    1    2    0    0  0.54441896364E+03 -0.10102930840E+04  0.36854575674E+03  0.12150315845E+04  0.15294330000E+03 0.  0.
    8880022    1    1    2    0    0 -0.54441896364E+03  0.10102930840E+04  0.23052655271E+04  0.25796753530E+04  0.15294330000E+03 0.  0.
<mgrwt>
<rscale>  0 0.11577892E+04</rscale>
<asrwt>0</asrwt>
<pdfrwt beam="1">  1        2 0.49757833E+00 0.11577892E+04</pdfrwt>
<pdfrwt beam="2">  1       -2 0.86222742E-01 0.11577892E+04</pdfrwt>
<totfact> 0.14399860E+00</totfact>
</mgrwt>
</event>
<event>
 4    1  0.2061941E-008  0.4885303E+03  0.7818608E-02  0.1016817E+00
          2   -1    0    0  501    0  0.00000000000E+00  0.00000000000E+00  0.10536738629E+04  0.10536738629E+04  0.25500000000E-02 0. -1.
         -2   -1    0    0    0  501 -0.00000000000E+00 -0.00000000000E+00 -0.48345752711E+03  0.48345752712E+03  0.25500000000E-02 0.  1.
    8880022    1    1    2    0    0 -0.70073210108E+02  0.45865017154E+03 -0.27520223899E+03  0.56071218997E+03  0.15294330000E+03 0.  0.
    8880022    1    1    2    0    0  0.70073210108E+02 -0.45865017154E+03  0.84541857477E+03  0.97641920004E+03  0.15294330000E+03 0. -1.
<mgrwt>
<rscale>  0 0.48853033E+03</rscale>
<asrwt>0</asrwt>
<pdfrwt beam="1">  1        2 0.16210367E+00 0.48853033E+03</pdfrwt>
<pdfrwt beam="2">  1       -2 0.74378081E-01 0.48853033E+03</pdfrwt>
<totfact> 0.39677858E+01</totfact>
</mgrwt>
</event>
<event>
 4    1  0.2061941E-008  0.1076997E+04  0.7818608E-02  0.9227907E-01
         -2   -1    0    0    0  501 -0.00000000000E+00  0.00000000000E+00  0.65267107709E+03  0.65267107710E+03  0.25500000000E-02 0.  1.
          2   -1    0    0  501    0  0.00000000000E+00 -0.00000000000E+00 -0.27694328971E+04  0.27694328971E+04  0.25500000000E-02 0. -1.
    8880022    1    1    2    0    0  0.31614213513E+03  0.10181276858E+04 -0.34200525428E+02  0.10775394021E+04  0.15294330000E+03 0.  0.
    8880022    1    1    2    0    0 -0.31614213513E+03 -0.10181276858E+04 -0.20825612946E+04  0.23445645722E+04  0.15294330000E+03 0.  0.
<mgrwt>
<rscale>  0 0.10769965E+04</rscale>
<asrwt>0</asrwt>
<pdfrwt beam="1">  1        2 0.42606659E+00 0.10769965E+04</pdfrwt>
<pdfrwt beam="2">  1       -2 0.10041094E+00 0.10769965E+04</pdfrwt>
<totfact> 0.19793829E+00</totfact>
</mgrwt>
</event>
<event>
 4    1  0.2061941E-008  0.1072390E+04  0.7818608E-02  0.9232529E-01
         -2   -1    0    0    0  501 -0.00000000000E+00  0.00000000000E+00  0.56678509553E+03  0.56678509553E+03  0.25500000000E-02 0.  1.
          2   -1    0    0  501    0  0.00000000000E+00 -0.00000000000E+00 -0.36355821019E+04  0.36355821019E+04  0.25500000000E-02 0. -1.
    8880022    1    1    2    0    0  0.23673130788E+02  0.10611631889E+04 -0.13762649493E+03  0.10811847371E+04  0.15294330000E+03 0.  0.
    8880022    1    1    2    0    0 -0.23673130788E+02 -0.10611631889E+04 -0.29311705114E+04  0.31211824603E+04  0.15294330000E+03 0.  0.
<mgrwt>
<rscale>  0 0.10723896E+04</rscale>
<asrwt>0</asrwt>
<pdfrwt beam="1">  1        2 0.55932031E+00 0.10723896E+04</pdfrwt>
<pdfrwt beam="2">  1       -2 0.87197709E-01 0.10723896E+04</pdfrwt>
<totfact> 0.75878405E-01</totfact>
</mgrwt>
</event>
<event>
 4    1  0.2061941E-008  0.1300941E+04  0.7818608E-02  0.9028819E-01
         -2   -1    0    0    0  501 -0.00000000000E+00  0.00000000000E+00  0.11299695520E+04  0.11299695520E+04  0.25500000000E-02 0.  1.
          2   -1    0    0  501    0  0.00000000000E+00 -0.00000000000E+00 -0.28121673932E+04  0.28121673932E+04  0.25500000000E-02 0. -1.
    8880022    1    1    2    0    0 -0.70211752489E+03  0.10844756672E+04  0.50644359511E+03  0.13960419977E+04  0.15294330000E+03 0.  0.
    8880022    1    1    2    0    0  0.70211752489E+03 -0.10844756672E+04 -0.21886414364E+04  0.25460949475E+04  0.15294330000E+03 0.  0.
<mgrwt>
<rscale>  0 0.13009413E+04</rscale>
<asrwt>0</asrwt>
<pdfrwt beam="1">  1        2 0.43264113E+00 0.13009413E+04</pdfrwt>
<pdfrwt beam="2">  1       -2 0.17384147E+00 0.13009413E+04</pdfrwt>
<totfact> 0.44006183E-01</totfact>
</mgrwt>
</event>
<event>
 4    1  0.2061941E-008  0.1218289E+04  0.7818608E-02  0.9096997E-01
          2   -1    0    0  501    0  0.00000000000E+00  0.00000000000E+00  0.19821236245E+04  0.19821236245E+04  0.25500000000E-02 0. -1.
         -2   -1    0    0    0  501 -0.00000000000E+00 -0.00000000000E+00 -0.11979020178E+04  0.11979020178E+04  0.25500000000E-02 0.  1.
    8880022    1    1    2    0    0  0.11857054094E+04 -0.23438992164E+03 -0.58144130939E+03  0.13499265175E+04  0.15294330000E+03 0.  0.
    8880022    1    1    2    0    0 -0.11857054094E+04  0.23438992164E+03  0.13656629162E+04  0.18300991249E+04  0.15294330000E+03 0.  0.
<mgrwt>
<rscale>  0 0.12182888E+04</rscale>
<asrwt>0</asrwt>
<pdfrwt beam="1">  1        2 0.30494209E+00 0.12182888E+04</pdfrwt>
<pdfrwt beam="2">  1       -2 0.18429262E+00 0.12182888E+04</pdfrwt>
<totfact> 0.11226785E+00</totfact>
</mgrwt>
</event>
<event>
 4    1  0.2061941E-008  0.3154725E+03  0.7818608E-02  0.1077752E+00
         -2   -1    0    0    0  501 -0.00000000000E+00  0.00000000000E+00  0.14416515853E+03  0.14416515856E+03  0.25500000000E-02 0.  1.
          2   -1    0    0  501    0  0.00000000000E+00 -0.00000000000E+00 -0.83314341080E+03  0.83314341081E+03  0.25500000000E-02 0. -1.
    8880022    1    1    2    0    0 -0.42060936201E+02 -0.27269414889E+03 -0.54679672165E+03  0.63127611155E+03  0.15294330000E+03 0.  0.
    8880022    1    1    2    0    0  0.42060936201E+02  0.27269414889E+03 -0.14218153062E+03  0.34603245781E+03  0.15294330000E+03 0.  0.
<mgrwt>
<rscale>  0 0.31547246E+03</rscale>
<asrwt>0</asrwt>
<pdfrwt beam="1">  1        2 0.12817591E+00 0.31547246E+03</pdfrwt>
<pdfrwt beam="2">  1       -2 0.22179256E-01 0.31547246E+03</pdfrwt>
<totfact> 0.59228689E+02</totfact>
</mgrwt>
</event>
<event>
 4    1  0.2061941E-008  0.6584859E+03  0.7818608E-02  0.9790985E-01
          2   -1    0    0  501    0  0.00000000000E+00  0.00000000000E+00  0.23349685684E+04  0.23349685684E+04  0.25500000000E-02 0. -1.
         -2   -1    0    0    0  501 -0.00000000000E+00 -0.00000000000E+00 -0.91057922797E+03  0.91057922797E+03  0.25500000000E-02 0.  1.
    8880022    1    1    2    0    0 -0.28699129034E+03 -0.57258017782E+03 -0.73568331583E+03  0.98733664723E+03  0.15294330000E+03 0.  0.
    8880022    1    1    2    0    0  0.28699129034E+03  0.57258017782E+03  0.21600726563E+04  0.22582111492E+04  0.15294330000E+03 0.  0.
<mgrwt>
<rscale>  0 0.65848593E+03</rscale>
<asrwt>0</asrwt>
<pdfrwt beam="1">  1        2 0.35922593E+00 0.65848593E+03</pdfrwt>
<pdfrwt beam="2">  1       -2 0.14008911E+00 0.65848593E+03</pdfrwt>
<totfact> 0.16572615E+00</totfact>
</mgrwt>
</event>
<event>
 4    1  0.2061941E-008  0.8434500E+03  0.7818608E-02  0.9499171E-01
          2   -1    0    0  501    0  0.00000000000E+00  0.00000000000E+00  0.27925621293E+04  0.27925621293E+04  0.25500000000E-02 0. -1.
         -2   -1    0    0    0  501 -0.00000000000E+00 -0.00000000000E+00 -0.35126368466E+03  0.35126368467E+03  0.25500000000E-02 0.  1.
    8880022    1    1    2    0    0 -0.13459808167E+03  0.81847390009E+03  0.39669289817E+03  0.93207997361E+03  0.15294330000E+03 0.  0.
    8880022    1    1    2    0    0  0.13459808167E+03 -0.81847390009E+03  0.20446055464E+04  0.22117458403E+04  0.15294330000E+03 0.  0.
<mgrwt>
<rscale>  0 0.84344995E+03</rscale>
<asrwt>0</asrwt>
<pdfrwt beam="1">  1        2 0.42962494E+00 0.84344995E+03</pdfrwt>
<pdfrwt beam="2">  1       -2 0.54040567E-01 0.84344995E+03</pdfrwt>
<totfact> 0.78462493E+00</totfact>
</mgrwt>
</event>
<event>
 4    1  0.2061941E-008  0.3521776E+03  0.7818608E-02  0.1061725E+00
         -2   -1    0    0    0  501 -0.00000000000E+00  0.00000000000E+00  0.12111483330E+03  0.12111483333E+03  0.25500000000E-02 0.  1.
          2   -1    0    0  501    0  0.00000000000E+00 -0.00000000000E+00 -0.11235628421E+04  0.11235628421E+04  0.25500000000E-02 0. -1.
    8880022    1    1    2    0    0 -0.27508446791E+03  0.15800618681E+03 -0.31602354287E+03  0.47318067608E+03  0.15294330000E+03 0.  0.
    8880022    1    1    2    0    0  0.27508446791E+03 -0.15800618681E+03 -0.68642446594E+03  0.77149699935E+03  0.15294330000E+03 0.  0.
<mgrwt>
<rscale>  0 0.35217762E+03</rscale>
<asrwt>0</asrwt>
<pdfrwt beam="1">  1        2 0.17285581E+00 0.35217762E+03</pdfrwt>
<pdfrwt beam="2">  1       -2 0.18633052E-01 0.35217762E+03</pdfrwt>
<totfact> 0.52408014E+02</totfact>
</mgrwt>
</event>
<event>
 4    1  0.2061941E-008  0.4950480E+03  0.7818608E-02  0.1015080E+00
          2   -1    0    0  501    0  0.00000000000E+00  0.00000000000E+00  0.10342052521E+04  0.10342052521E+04  0.25500000000E-02 0. -1.
         -2   -1    0    0    0  501 -0.00000000000E+00 -0.00000000000E+00 -0.25186241907E+03  0.25186241908E+03  0.25500000000E-02 0.  1.
    8880022    1    1    2    0    0 -0.25982100583E+03  0.39264986037E+03  0.23479241574E+03  0.54790510074E+03  0.15294330000E+03 0.  0.
    8880022    1    1    2    0    0  0.25982100583E+03 -0.39264986037E+03  0.54755041730E+03  0.73816257045E+03  0.15294330000E+03 0.  0.
<mgrwt>
<rscale>  0 0.49504800E+03</rscale>
<asrwt>0</asrwt>
<pdfrwt beam="1">  1        2 0.15910850E+00 0.49504800E+03</pdfrwt>
<pdfrwt beam="2">  1       -2 0.38748065E-01 0.49504800E+03</pdfrwt>
<totfact> 0.15565908E+02</totfact>
</mgrwt>
</event>
<event>
 4    1  0.2061941E-008  0.1190790E+04  0.7818608E-02  0.9120956E-01
         -2   -1    0    0    0  501 -0.00000000000E+00  0.00000000000E+00  0.85728963857E+03  0.85728963858E+03  0.25500000000E-02 0.  1.
          2   -1    0    0  501    0  0.00000000000E+00 -0.00000000000E+00 -0.27997269263E+04  0.27997269263E+04  0.25500000000E-02 0. -1.
    8880022    1    1    2    0    0  0.11272936668E+04  0.35184960946E+03 -0.21409184128E+04  0.24497984534E+04  0.15294330000E+03 0.  0.
    8880022    1    1    2    0    0 -0.11272936668E+04 -0.35184960946E+03  0.19848112504E+03  0.12072181115E+04  0.15294330000E+03 0.  0.
<mgrwt>
<rscale>  0 0.11907900E+04</rscale>
<asrwt>0</asrwt>
<pdfrwt beam="1">  1        2 0.43072722E+00 0.11907900E+04</pdfrwt>
<pdfrwt beam="2">  1       -2 0.13189071E+00 0.11907900E+04</pdfrwt>
<totfact> 0.95360202E-01</totfact>
</mgrwt>
</event>
<event>
 4    1  0.2061941E-008  0.4275198E+03  0.7818608E-02  0.1034646E+00
         -2   -1    0    0    0  501 -0.00000000000E+00  0.00000000000E+00  0.10273866370E+04  0.10273866370E+04  0.25500000000E-02 0.  1.
          2   -1    0    0  501    0  0.00000000000E+00 -0.00000000000E+00 -0.93981596623E+03  0.93981596623E+03  0.25500000000E-02 0. -1.
    8880022    1    1    2    0    0  0.31018866834E+03 -0.25132543512E+03  0.92941250193E+03  0.10230252861E+04  0.15294330000E+03 0.  0.
    8880022    1    1    2    0    0 -0.31018866834E+03  0.25132543512E+03 -0.84184183120E+03  0.94417731707E+03  0.15294330000E+03 0.  0.
<mgrwt>
<rscale>  0 0.42751975E+03</rscale>
<asrwt>0</asrwt>
<pdfrwt beam="1">  1        2 0.14458707E+00 0.42751975E+03</pdfrwt>
<pdfrwt beam="2">  1       -2 0.15805948E+00 0.42751975E+03</pdfrwt>
<totfact> 0.77113789E+00</totfact>
</mgrwt>
</event>
<event>
 4    1  0.2061941E-008  0.1193415E+04  0.7818608E-02  0.9118640E-01
         -2   -1    0    0    0  501 -0.00000000000E+00  0.00000000000E+00  0.21625782983E+04  0.21625782983E+04  0.25500000000E-02 0.  1.
          2   -1    0    0  501    0  0.00000000000E+00 -0.00000000000E+00 -0.15671125841E+04  0.15671125841E+04  0.25500000000E-02 0. -1.
    8880022    1    1    2    0    0 -0.16573842093E+03  0.11719122244E+04 -0.11221812636E+04  0.16381483227E+04  0.15294330000E+03 0.  0.
    8880022    1    1    2    0    0  0.16573842093E+03 -0.11719122244E+04  0.17176469778E+04  0.20915425597E+04  0.15294330000E+03 0.  0.
<mgrwt>
<rscale>  0 0.11934149E+04</rscale>
<asrwt>0</asrwt>
<pdfrwt beam="1">  1        2 0.24109425E+00 0.11934149E+04</pdfrwt>
<pdfrwt beam="2">  1       -2 0.33270435E+00 0.11934149E+04</pdfrwt>
<totfact> 0.22761663E-01</totfact>
</mgrwt>
</event>
<event>
 4    1  0.2299696E-008  0.1657474E+04  0.7818608E-02  0.8785997E-01
         -2   -1    0    0    0  501 -0.00000000000E+00  0.00000000000E+00  0.35742312369E+04  0.35742312369E+04  0.25500000000E-02 0.  1.
          2   -1    0    0  501    0  0.00000000000E+00 -0.00000000000E+00 -0.20327051506E+04  0.20327051506E+04  0.25500000000E-02 0. -1.
    8880022    1    1    2    0    0  0.14425885742E+04 -0.80172772741E+03 -0.14400236189E+04  0.21956522537E+04  0.15294330000E+03 0.  0.
    8880022    1    1    2    0    0 -0.14425885742E+04  0.80172772741E+03  0.29815497053E+04  0.34112841338E+04  0.15294330000E+03 0.  0.
<mgrwt>
<rscale>  0 0.16574742E+04</rscale>
<asrwt>0</asrwt>
<pdfrwt beam="1">  1        2 0.31272387E+00 0.16574742E+04</pdfrwt>
<pdfrwt beam="2">  1       -2 0.54988173E+00 0.16574742E+04</pdfrwt>
<totfact> 0.49261495E-03</totfact>
</mgrwt>
</event>
<event>
 4    1  0.2061941E-008  0.3048313E+03  0.7818608E-02  0.1082850E+00
         -2   -1    0    0    0  501 -0.00000000000E+00  0.00000000000E+00  0.78023008810E+03  0.78023008811E+03  0.25500000000E-02 0.  1.
          2   -1    0    0  501    0  0.00000000000E+00 -0.00000000000E+00 -0.24568342419E+03  0.24568342420E+03  0.25500000000E-02 0. -1.
    8880022    1    1    2    0    0  0.89156325264E+02 -0.24815645418E+03 -0.10093061952E+03  0.32110608692E+03  0.15294330000E+03 0. -1.
    8880022    1    1    2    0    0 -0.89156325264E+02  0.24815645418E+03  0.63547728344E+03  0.70480742538E+03  0.15294330000E+03 0.  0.
<mgrwt>
<rscale>  0 0.30483131E+03</rscale>
<asrwt>0</asrwt>
<pdfrwt beam="1">  1        2 0.37797450E-01 0.30483131E+03</pdfrwt>
<pdfrwt beam="2">  1       -2 0.12003540E+00 0.30483131E+03</pdfrwt>
<totfact> 0.75782787E+01</totfact>
</mgrwt>
</event>
<event>
 4    1  0.2061941E-008  0.1880066E+03  0.7818608E-02  0.1160272E+00
         -2   -1    0    0    0  501 -0.00000000000E+00  0.00000000000E+00  0.77778158981E+03  0.77778158981E+03  0.25500000000E-02 0.  1.
          2   -1    0    0  501    0  0.00000000000E+00 -0.00000000000E+00 -0.92231425643E+03  0.92231425644E+03  0.25500000000E-02 0. -1.
    8880022    1    1    2    0    0  0.10908871463E+03  0.73817385987E+01  0.75657481914E+03  0.77958447118E+03  0.15294330000E+03 0.  0.
    8880022    1    1    2    0    0 -0.10908871463E+03 -0.73817385987E+01 -0.90110748576E+03  0.92051137507E+03  0.15294330000E+03 0.  0.
<mgrwt>
<rscale>  0 0.18800662E+03</rscale>
<asrwt>0</asrwt>
<pdfrwt beam="1">  1        2 0.14189450E+00 0.18800662E+03</pdfrwt>
<pdfrwt beam="2">  1       -2 0.11965871E+00 0.18800662E+03</pdfrwt>
<totfact> 0.17214285E+01</totfact>
</mgrwt>
</event>
<event>
 4    1  0.2061941E-008  0.6567517E+03  0.7818608E-02  0.9794192E-01
          2   -1    0    0  501    0  0.00000000000E+00  0.00000000000E+00  0.23088356751E+04  0.23088356751E+04  0.25500000000E-02 0. -1.
         -2   -1    0    0    0  501 -0.00000000000E+00 -0.00000000000E+00 -0.76503672568E+03  0.76503672569E+03  0.25500000000E-02 0.  1.
    8880022    1    1    2    0    0  0.63322806379E+03 -0.83387190531E+02  0.21080711815E+04  0.22080052001E+04  0.15294330000E+03 0.  0.
    8880022    1    1    2    0    0 -0.63322806379E+03  0.83387190531E+02 -0.56427223209E+03  0.86586720070E+03  0.15294330000E+03 0.  0.
<mgrwt>
<rscale>  0 0.65675175E+03</rscale>
<asrwt>0</asrwt>
<pdfrwt beam="1">  1        2 0.35520549E+00 0.65675175E+03</pdfrwt>
<pdfrwt beam="2">  1       -2 0.11769796E+00 0.65675175E+03</pdfrwt>
<totfact> 0.26581042E+00</totfact>
</mgrwt>
</event>
<event>
 4    1  0.2061941E-008  0.2763786E+03  0.7818608E-02  0.1097683E+00
         -2   -1    0    0    0  501 -0.00000000000E+00  0.00000000000E+00  0.57843922250E+03  0.57843922250E+03  0.25500000000E-02 0.  1.
          2   -1    0    0  501    0  0.00000000000E+00 -0.00000000000E+00 -0.30526360613E+03  0.30526360614E+03  0.25500000000E-02 0. -1.
    8880022    1    1    2    0    0  0.22525315812E+03  0.47481435059E+02 -0.19624406746E+03  0.33896439186E+03  0.15294330000E+03 0.  0.
    8880022    1    1    2    0    0 -0.22525315812E+03 -0.47481435059E+02  0.46941968383E+03  0.54473843678E+03  0.15294330000E+03 0.  0.
<mgrwt>
<rscale>  0 0.27637859E+03</rscale>
<asrwt>0</asrwt>
<pdfrwt beam="1">  1        2 0.46963632E-01 0.27637859E+03</pdfrwt>
<pdfrwt beam="2">  1       -2 0.88990649E-01 0.27637859E+03</pdfrwt>
<totfact> 0.12130471E+02</totfact>
</mgrwt>
</event>
<event>
 4    1  0.2061941E-008  0.1621939E+03  0.7818608E-02  0.1186242E+00
         -2   -1    0    0    0  501 -0.00000000000E+00  0.00000000000E+00  0.67173086285E+03  0.67173086286E+03  0.25500000000E-02 0.  1.
          2   -1    0    0  501    0  0.00000000000E+00 -0.00000000000E+00 -0.24458768926E+04  0.24458768926E+04  0.25500000000E-02 0. -1.
    8880022    1    1    2    0    0 -0.51639440369E+02  0.15765948843E+02  0.65920091050E+03  0.67886131895E+03  0.15294330000E+03 0.  1.
    8880022    1    1    2    0    0  0.51639440369E+02 -0.15765948843E+02 -0.24333469402E+04  0.24387464365E+04  0.15294330000E+03 0.  0.
<mgrwt>
<rscale>  0 0.16219387E+03</rscale>
<asrwt>0</asrwt>
<pdfrwt beam="1">  1        2 0.37628875E+00 0.16219387E+03</pdfrwt>
<pdfrwt beam="2">  1       -2 0.10334321E+00 0.16219387E+03</pdfrwt>
<totfact> 0.37572831E+00</totfact>
</mgrwt>
</event>
<event>
 4    1  0.2061941E-008  0.6855659E+03  0.7818608E-02  0.9742240E-01
         -2   -1    0    0    0  501 -0.00000000000E+00  0.00000000000E+00  0.81095652585E+03  0.81095652585E+03  0.25500000000E-02 0.  1.
          2   -1    0    0  501    0  0.00000000000E+00 -0.00000000000E+00 -0.15713056608E+04  0.15713056608E+04  0.25500000000E-02 0. -1.
    8880022    1    1    2    0    0  0.55908778827E+03  0.36610083345E+03  0.56612503851E+03  0.88909964992E+03  0.15294330000E+03 0.  0.
    8880022    1    1    2    0    0 -0.55908778827E+03 -0.36610083345E+03 -0.13264741734E+04  0.14931625367E+04  0.15294330000E+03 0.  0.
<mgrwt>
<rscale>  0 0.68556592E+03</rscale>
<asrwt>0</asrwt>
<pdfrwt beam="1">  1        2 0.24173933E+00 0.68556592E+03</pdfrwt>
<pdfrwt beam="2">  1       -2 0.12476254E+00 0.68556592E+03</pdfrwt>
<totfact> 0.57824395E+00</totfact>
</mgrwt>
</event>
<event>
 4    1  0.2061941E-008  0.7510750E+03  0.7818608E-02  0.9633665E-01
         -2   -1    0    0    0  501 -0.00000000000E+00  0.00000000000E+00  0.38431841967E+03  0.38431841968E+03  0.25500000000E-02 0.  1.
          2   -1    0    0  501    0  0.00000000000E+00 -0.00000000000E+00 -0.16635081893E+04  0.16635081893E+04  0.25500000000E-02 0. -1.
    8880022    1    1    2    0    0 -0.69907419757E+03  0.22807304445E+03 -0.99076948469E+03  0.12432770697E+04  0.15294330000E+03 0.  0.
    8880022    1    1    2    0    0  0.69907419757E+03 -0.22807304445E+03 -0.28842028494E+03  0.80454953924E+03  0.15294330000E+03 0.  0.
<mgrwt>
<rscale>  0 0.75107503E+03</rscale>
<asrwt>0</asrwt>
<pdfrwt beam="1">  1        2 0.25592433E+00 0.75107503E+03</pdfrwt>
<pdfrwt beam="2">  1       -2 0.59125912E-01 0.75107503E+03</pdfrwt>
<totfact> 0.28173292E+01</totfact>
</mgrwt>
</event>
<event>
 4    1  0.2061941E-008  0.9303842E+03  0.7818608E-02  0.9388377E-01
          2   -1    0    0  501    0  0.00000000000E+00  0.00000000000E+00  0.12293660756E+04  0.12293660756E+04  0.25500000000E-02 0. -1.
         -2   -1    0    0    0  501 -0.00000000000E+00 -0.00000000000E+00 -0.18712255427E+04  0.18712255427E+04  0.25500000000E-02 0.  1.
    8880022    1    1    2    0    0 -0.80604071651E+03  0.43877276816E+03  0.90342577717E+03  0.12968396071E+04  0.15294330000E+03 0.  0.
    8880022    1    1    2    0    0  0.80604071651E+03 -0.43877276816E+03 -0.15452852443E+04  0.18037520112E+04  0.15294330000E+03 0.  0.
<mgrwt>
<rscale>  0 0.93038424E+03</rscale>
<asrwt>0</asrwt>
<pdfrwt beam="1">  1        2 0.18913324E+00 0.93038424E+03</pdfrwt>
<pdfrwt beam="2">  1       -2 0.28788085E+00 0.93038424E+03</pdfrwt>
<totfact> 0.69480482E-01</totfact>
</mgrwt>
</event>
<event>
 4    1  0.2061941E-008  0.1183418E+04  0.7818608E-02  0.9127496E-01
          2   -1    0    0  501    0  0.00000000000E+00  0.00000000000E+00  0.34234355530E+04  0.34234355530E+04  0.25500000000E-02 0. -1.
         -2   -1    0    0    0  501 -0.00000000000E+00 -0.00000000000E+00 -0.48799149244E+03  0.48799149245E+03  0.25500000000E-02 0.  1.
    8880022    1    1    2    0    0 -0.70467759844E+03 -0.93835812371E+03  0.22541407995E+04  0.25459043351E+04  0.15294330000E+03 0.  0.
    8880022    1    1    2    0    0  0.70467759844E+03  0.93835812371E+03  0.68130326099E+03  0.13655227104E+04  0.15294330000E+03 0.  0.
<mgrwt>
<rscale>  0 0.11834180E+04</rscale>
<asrwt>0</asrwt>
<pdfrwt beam="1">  1        2 0.52668241E+00 0.11834180E+04</pdfrwt>
<pdfrwt beam="2">  1       -2 0.75075612E-01 0.11834180E+04</pdfrwt>
<totfact> 0.14709174E+00</totfact>
</mgrwt>
</event>
<event>
 4    1  0.2061941E-008  0.6859490E+03  0.7818608E-02  0.9741568E-01
         -2   -1    0    0    0  501 -0.00000000000E+00  0.00000000000E+00  0.13520542428E+04  0.13520542428E+04  0.25500000000E-02 0.  1.
          2   -1    0    0  501    0  0.00000000000E+00 -0.00000000000E+00 -0.38005767009E+03  0.38005767010E+03  0.25500000000E-02 0. -1.
    8880022    1    1    2    0    0  0.59370248630E+03 -0.30765527663E+03  0.73749430946E+03  0.10071861402E+04  0.15294330000E+03 0.  0.
    8880022    1    1    2    0    0 -0.59370248630E+03  0.30765527663E+03  0.23450226326E+03  0.72492577273E+03  0.15294330000E+03 0.  0.
<mgrwt>
<rscale>  0 0.68594902E+03</rscale>
<asrwt>0</asrwt>
<pdfrwt beam="1">  1        2 0.58470410E-01 0.68594902E+03</pdfrwt>
<pdfrwt beam="2">  1       -2 0.20800835E+00 0.68594902E+03</pdfrwt>
<totfact> 0.10201522E+01</totfact>
</mgrwt>
</event>
<event>
 4    1  0.2061941E-008  0.4919343E+03  0.7818608E-02  0.1015906E+00
          2   -1    0    0  501    0  0.00000000000E+00  0.00000000000E+00  0.20937985060E+03  0.20937985061E+03  0.25500000000E-02 0. -1.
         -2   -1    0    0    0  501 -0.00000000000E+00 -0.00000000000E+00 -0.20625128571E+04  0.20625128571E+04  0.25500000000E-02 0.  1.
    8880022    1    1    2    0    0  0.46635342638E+03 -0.33498516506E+02 -0.17339035084E+03  0.52159710091E+03  0.15294330000E+03 0.  0.
    8880022    1    1    2    0    0 -0.46635342638E+03  0.33498516506E+02 -0.16797426556E+04  0.17502956068E+04  0.15294330000E+03 0.  0.
<mgrwt>
<rscale>  0 0.49193427E+03</rscale>
<asrwt>0</asrwt>
<pdfrwt beam="1">  1        2 0.32212286E-01 0.49193427E+03</pdfrwt>
<pdfrwt beam="2">  1       -2 0.31730966E+00 0.49193427E+03</pdfrwt>
<totfact> 0.44434552E+00</totfact>
</mgrwt>
</event>
<event>
 4    1  0.2061941E-008  0.4910683E+03  0.7818608E-02  0.1016137E+00
         -2   -1    0    0    0  501 -0.00000000000E+00  0.00000000000E+00  0.32307423507E+03  0.32307423508E+03  0.25500000000E-02 0.  1.
          2   -1    0    0  501    0  0.00000000000E+00 -0.00000000000E+00 -0.18754004564E+04  0.18754004564E+04  0.25500000000E-02 0. -1.
    8880022    1    1    2    0    0 -0.12846881534E+03 -0.44861140162E+03 -0.16290437743E+04  0.17014498811E+04  0.15294330000E+03 0.  0.
    8880022    1    1    2    0    0  0.12846881534E+03  0.44861140162E+03  0.76717553012E+02  0.49702481038E+03  0.15294330000E+03 0.  0.
<mgrwt>
<rscale>  0 0.49106830E+03</rscale>
<asrwt>0</asrwt>
<pdfrwt beam="1">  1        2 0.28852314E+00 0.49106830E+03</pdfrwt>
<pdfrwt beam="2">  1       -2 0.49703730E-01 0.49106830E+03</pdfrwt>
<totfact> 0.32185144E+01</totfact>
</mgrwt>
</event>
<event>
 4    1  0.2061941E-008  0.6354506E+03  0.7818608E-02  0.9834470E-01
          2   -1    0    0  501    0  0.00000000000E+00  0.00000000000E+00  0.41063885786E+04  0.41063885786E+04  0.25500000000E-02 0. -1.
         -2   -1    0    0    0  501 -0.00000000000E+00 -0.00000000000E+00 -0.20843986722E+03  0.20843986724E+03  0.25500000000E-02 0.  1.
    8880022    1    1    2    0    0 -0.16313568211E+03  0.59480461001E+03  0.38096566953E+03  0.74089963506E+03  0.15294330000E+03 0.  0.
    8880022    1    1    2    0    0  0.16313568211E+03 -0.59480461001E+03  0.35169830419E+04  0.35739288108E+04  0.15294330000E+03 0.  0.
<mgrwt>
<rscale>  0 0.63545057E+03</rscale>
<asrwt>0</asrwt>
<pdfrwt beam="1">  1        2 0.63175208E+00 0.63545057E+03</pdfrwt>
<pdfrwt beam="2">  1       -2 0.32067672E-01 0.63545057E+03</pdfrwt>
<totfact> 0.28964364E+00</totfact>
</mgrwt>
</event>
<event>
 4    1  0.2061941E-008  0.1152771E+04  0.7818608E-02  0.9155231E-01
          2   -1    0    0  501    0  0.00000000000E+00  0.00000000000E+00  0.22295424429E+04  0.22295424429E+04  0.25500000000E-02 0. -1.
         -2   -1    0    0    0  501 -0.00000000000E+00 -0.00000000000E+00 -0.10299623403E+04  0.10299623403E+04  0.25500000000E-02 0.  1.
    8880022    1    1    2    0    0 -0.99643640908E+03  0.55910936806E+03 -0.45805133856E+03  0.12404400367E+04  0.15294330000E+03 0.  0.
    8880022    1    1    2    0    0  0.99643640908E+03 -0.55910936806E+03  0.16576314412E+04  0.20190647465E+04  0.15294330000E+03 0.  0.
<mgrwt>
<rscale>  0 0.11527708E+04</rscale>
<asrwt>0</asrwt>
<pdfrwt beam="1">  1        2 0.34300653E+00 0.11527708E+04</pdfrwt>
<pdfrwt beam="2">  1       -2 0.15845575E+00 0.11527708E+04</pdfrwt>
<totfact> 0.12598034E+00</totfact>
</mgrwt>
</event>
<event>
 4    1  0.2061941E-008  0.2515763E+03  0.7818608E-02  0.1112313E+00
         -2   -1    0    0    0  501 -0.00000000000E+00  0.00000000000E+00  0.55820832656E+02  0.55820832714E+02  0.25500000000E-02 0.  1.
          2   -1    0    0  501    0  0.00000000000E+00 -0.00000000000E+00 -0.23421753795E+04  0.23421753795E+04  0.25500000000E-02 0. -1.
    8880022    1    1    2    0    0  0.77200664360E+02 -0.18422555590E+03 -0.20043822589E+04  0.20201086334E+04  0.15294330000E+03 0.  0.
    8880022    1    1    2    0    0 -0.77200664360E+02  0.18422555590E+03 -0.28197228796E+03  0.37788757881E+03  0.15294330000E+03 0.  0.
<mgrwt>
<rscale>  0 0.25157633E+03</rscale>
<asrwt>0</asrwt>
<pdfrwt beam="1">  1        2 0.36033460E+00 0.25157633E+03</pdfrwt>
<pdfrwt beam="2">  1       -2 0.85878222E-02 0.25157633E+03</pdfrwt>
<totfact> 0.41551210E+02</totfact>
</mgrwt>
</event>
<event>
 4    1  0.2487013E-008  0.1761200E+04  0.7818608E-02  0.8727209E-01
          2   -1    0    0  501    0  0.00000000000E+00  0.00000000000E+00  0.36006857730E+04  0.36006857730E+04  0.25500000000E-02 0. -1.
         -2   -1    0    0    0  501 -0.00000000000E+00 -0.00000000000E+00 -0.13897853115E+04  0.13897853115E+04  0.25500000000E-02 0.  1.
    8880022    1    1    2    0    0  0.17390208013E+04  0.23289850208E+03 -0.43302563269E+03  0.18136531948E+04  0.15294330000E+03 0.  0.
    8880022    1    1    2    0    0 -0.17390208013E+04 -0.23289850208E+03  0.26439260942E+04  0.31768178896E+04  0.15294330000E+03 0.  0.
<mgrwt>
<rscale>  0 0.17612004E+04</rscale>
<asrwt>0</asrwt>
<pdfrwt beam="1">  1        2 0.55395165E+00 0.17612004E+04</pdfrwt>
<pdfrwt beam="2">  1       -2 0.21381313E+00 0.17612004E+04</pdfrwt>
<totfact> 0.68414585E-02</totfact>
</mgrwt>
</event>
<event>
 4    1  0.2061941E-008  0.8835548E+03  0.7818608E-02  0.9446375E-01
         -2   -1    0    0    0  501 -0.00000000000E+00  0.00000000000E+00  0.67884671316E+03  0.67884671316E+03  0.25500000000E-02 0.  1.
          2   -1    0    0  501    0  0.00000000000E+00 -0.00000000000E+00 -0.24830038921E+04  0.24830038921E+04  0.25500000000E-02 0. -1.
    8880022    1    1    2    0    0  0.50261432086E+03 -0.71039164626E+03 -0.20604276952E+04  0.22418812160E+04  0.15294330000E+03 0.  0.
    8880022    1    1    2    0    0 -0.50261432086E+03  0.71039164626E+03  0.25627051626E+03  0.91996938923E+03  0.15294330000E+03 0.  0.
<mgrwt>
<rscale>  0 0.88355481E+03</rscale>
<asrwt>0</asrwt>
<pdfrwt beam="1">  1        2 0.38200059E+00 0.88355481E+03</pdfrwt>
<pdfrwt beam="2">  1       -2 0.10443796E+00 0.88355481E+03</pdfrwt>
<totfact> 0.27196436E+00</totfact>
</mgrwt>
</event>
<event>
 4    1  0.2061941E-008  0.9639975E+03  0.7818608E-02  0.9348938E-01
          2   -1    0    0  501    0  0.00000000000E+00  0.00000000000E+00  0.10750650469E+04  0.10750650469E+04  0.25500000000E-02 0. -1.
         -2   -1    0    0    0  501 -0.00000000000E+00 -0.00000000000E+00 -0.21383347838E+04  0.21383347838E+04  0.25500000000E-02 0.  1.
    8880022    1    1    2    0    0 -0.80393427850E+03 -0.50949891031E+03  0.70850235436E+03  0.11963555922E+04  0.15294330000E+03 0.  0.
    8880022    1    1    2    0    0  0.80393427850E+03  0.50949891031E+03 -0.17717720913E+04  0.20170442385E+04  0.15294330000E+03 0.  0.
<mgrwt>
<rscale>  0 0.96399747E+03</rscale>
<asrwt>0</asrwt>
<pdfrwt beam="1">  1        2 0.16539462E+00 0.96399747E+03</pdfrwt>
<pdfrwt beam="2">  1       -2 0.32897458E+00 0.96399747E+03</pdfrwt>
<totfact> 0.48228215E-01</totfact>
</mgrwt>
</event>
<event>
 4    1  0.2061941E-008  0.4251658E+03  0.7818608E-02  0.1035398E+00
         -2   -1    0    0    0  501 -0.00000000000E+00  0.00000000000E+00  0.71678436746E+03  0.71678436747E+03  0.25500000000E-02 0.  1.
          2   -1    0    0  501    0  0.00000000000E+00 -0.00000000000E+00 -0.10429305009E+04  0.10429305009E+04  0.25500000000E-02 0. -1.
    8880022    1    1    2    0    0 -0.30473489328E+03 -0.25399007465E+03  0.60305534889E+03  0.73786294124E+03  0.15294330000E+03 0.  0.
    8880022    1    1    2    0    0  0.30473489328E+03  0.25399007465E+03 -0.92920148236E+03  0.10218519272E+04  0.15294330000E+03 0.  0.
<mgrwt>
<rscale>  0 0.42516581E+03</rscale>
<asrwt>0</asrwt>
<pdfrwt beam="1">  1        2 0.16045085E+00 0.42516581E+03</pdfrwt>
<pdfrwt beam="2">  1       -2 0.11027452E+00 0.42516581E+03</pdfrwt>
<totfact> 0.16477200E+01</totfact>
</mgrwt>
</event>
<event>
 4    1  0.2061941E-008  0.6651655E+03  0.7818608E-02  0.9778731E-01
         -2   -1    0    0    0  501 -0.00000000000E+00  0.00000000000E+00  0.70448190046E+03  0.70448190046E+03  0.25500000000E-02 0.  1.
          2   -1    0    0  501    0  0.00000000000E+00 -0.00000000000E+00 -0.12118787620E+04  0.12118787620E+04  0.25500000000E-02 0. -1.
    8880022    1    1    2    0    0 -0.54386623072E+03 -0.35108837759E+03 -0.91876156984E+03  0.11342698096E+04  0.15294330000E+03 0.  0.
    8880022    1    1    2    0    0  0.54386623072E+03  0.35108837759E+03  0.41136470831E+03  0.78209085282E+03  0.15294330000E+03 0.  0.
<mgrwt>
<rscale>  0 0.66516553E+03</rscale>
<asrwt>0</asrwt>
<pdfrwt beam="1">  1        2 0.18644289E+00 0.66516553E+03</pdfrwt>
<pdfrwt beam="2">  1       -2 0.10838183E+00 0.66516553E+03</pdfrwt>
<totfact> 0.13082085E+01</totfact>
</mgrwt>
</event>
<event>
 4    1  0.2061941E-008  0.1746068E+04  0.7818608E-02  0.8735518E-01
          2   -1    0    0  501    0  0.00000000000E+00  0.00000000000E+00  0.99233140618E+03  0.99233140618E+03  0.25500000000E-02 0. -1.
         -2   -1    0    0    0  501 -0.00000000000E+00 -0.00000000000E+00 -0.35055911343E+04  0.35055911343E+04  0.25500000000E-02 0.  1.
    8880022    1    1    2    0    0  0.75340476025E+03 -0.15677187386E+04 -0.46597880278E+03  0.18071769902E+04  0.15294330000E+03 0.  0.
    8880022    1    1    2    0    0 -0.75340476025E+03  0.15677187386E+04 -0.20472809253E+04  0.26907455503E+04  0.15294330000E+03 0.  0.
<mgrwt>
<rscale>  0 0.17460677E+04</rscale>
<asrwt>0</asrwt>
<pdfrwt beam="1">  1        2 0.15266637E+00 0.17460677E+04</pdfrwt>
<pdfrwt beam="2">  1       -2 0.53932171E+00 0.17460677E+04</pdfrwt>
<totfact> 0.22488611E-02</totfact>
</mgrwt>
</event>
<event>
 4    1  0.2061941E-008  0.1147611E+04  0.7818608E-02  0.9159990E-01
          2   -1    0    0  501    0  0.00000000000E+00  0.00000000000E+00  0.18047202059E+04  0.18047202059E+04  0.25500000000E-02 0. -1.
         -2   -1    0    0    0  501 -0.00000000000E+00 -0.00000000000E+00 -0.86743027073E+03  0.86743027074E+03  0.25500000000E-02 0.  1.
    8880022    1    1    2    0    0 -0.93007637669E+03 -0.65465850504E+03 -0.63628364517E+02  0.11493737627E+04  0.15294330000E+03 0.  0.
    8880022    1    1    2    0    0  0.93007637669E+03  0.65465850504E+03  0.10009182996E+04  0.15227767139E+04  0.15294330000E+03 0.  0.
<mgrwt>
<rscale>  0 0.11476112E+04</rscale>
<asrwt>0</asrwt>
<pdfrwt beam="1">  1        2 0.27764926E+00 0.11476112E+04</pdfrwt>
<pdfrwt beam="2">  1       -2 0.13345081E+00 0.11476112E+04</pdfrwt>
<totfact> 0.34126668E+00</totfact>
</mgrwt>
</event>
<event>
 4    1  0.2061941E-008  0.1198532E+04  0.7818608E-02  0.9114142E-01
         -2   -1    0    0    0  501 -0.00000000000E+00  0.00000000000E+00  0.19970213038E+04  0.19970213038E+04  0.25500000000E-02 0.  1.
          2   -1    0    0  501    0  0.00000000000E+00 -0.00000000000E+00 -0.12793408904E+04  0.12793408904E+04  0.25500000000E-02 0. -1.
    8880022    1    1    2    0    0 -0.11287346943E+04  0.37288823565E+03 -0.72502279385E+03  0.14007631316E+04  0.15294330000E+03 0.  0.
    8880022    1    1    2    0    0  0.11287346943E+04 -0.37288823565E+03  0.14427032072E+04  0.18755990626E+04  0.15294330000E+03 0.  0.
<mgrwt>
<rscale>  0 0.11985321E+04</rscale>
<asrwt>0</asrwt>
<pdfrwt beam="1">  1        2 0.19682167E+00 0.11985321E+04</pdfrwt>
<pdfrwt beam="2">  1       -2 0.30723405E+00 0.11985321E+04</pdfrwt>
<totfact> 0.47660813E-01</totfact>
</mgrwt>
</event>
<event>
 4    1  0.2061941E-008  0.3401559E+03  0.7818608E-02  0.1066730E+00
         -2   -1    0    0    0  501 -0.00000000000E+00  0.00000000000E+00  0.13197172457E+03  0.13197172459E+03  0.25500000000E-02 0.  1.
          2   -1    0    0  501    0  0.00000000000E+00 -0.00000000000E+00 -0.17822897024E+04  0.17822897024E+04  0.25500000000E-02 0. -1.
    8880022    1    1    2    0    0  0.24140157918E+03 -0.18449839464E+03 -0.15073974081E+04  0.15453002877E+04  0.15294330000E+03 0.  0.
    8880022    1    1    2    0    0 -0.24140157918E+03  0.18449839464E+03 -0.14292056968E+03  0.36896113929E+03  0.15294330000E+03 0.  0.
<mgrwt>
<rscale>  0 0.34015590E+03</rscale>
<asrwt>0</asrwt>
<pdfrwt beam="1">  1        2 0.27419840E+00 0.34015590E+03</pdfrwt>
<pdfrwt beam="2">  1       -2 0.20303344E-01 0.34015590E+03</pdfrwt>
<totfact> 0.19661960E+02</totfact>
</mgrwt>
</event>
<event>
 4    1  0.2061941E-008  0.3233264E+03  0.7818608E-02  0.1074129E+00
          2   -1    0    0  501    0  0.00000000000E+00  0.00000000000E+00  0.11806776785E+04  0.11806776785E+04  0.25500000000E-02 0. -1.
         -2   -1    0    0    0  501 -0.00000000000E+00 -0.00000000000E+00 -0.21247689248E+03  0.21247689250E+03  0.25500000000E-02 0.  1.
    8880022    1    1    2    0    0  0.22372024588E+03 -0.17634497957E+03  0.10160979937E+04  0.10662997168E+04  0.15294330000E+03 0. -1.
    8880022    1    1    2    0    0 -0.22372024588E+03  0.17634497957E+03 -0.47897207624E+02  0.32685485425E+03  0.15294330000E+03 0.  0.
<mgrwt>
<rscale>  0 0.32332639E+03</rscale>
<asrwt>0</asrwt>
<pdfrwt beam="1">  1        2 0.18164272E+00 0.32332639E+03</pdfrwt>
<pdfrwt beam="2">  1       -2 0.32688753E-01 0.32332639E+03</pdfrwt>
<totfact> 0.17921084E+02</totfact>
</mgrwt>
</event>
<event>
 4    1  0.2061941E-008  0.4058231E+03  0.7818608E-02  0.1041782E+00
         -2   -1    0    0    0  501 -0.00000000000E+00  0.00000000000E+00  0.18466295270E+03  0.18466295272E+03  0.25500000000E-02 0.  1.
          2   -1    0    0  501    0  0.00000000000E+00 -0.00000000000E+00 -0.15574616094E+04  0.15574616094E+04  0.25500000000E-02 0. -1.
    8880022    1    1    2    0    0 -0.20680724462E+03  0.31389724425E+03 -0.11695704256E+03  0.42234028839E+03  0.15294330000E+03 0.  0.
    8880022    1    1    2    0    0  0.20680724462E+03 -0.31389724425E+03 -0.12558416141E+04  0.13197842737E+04  0.15294330000E+03 0.  0.
<mgrwt>
<rscale>  0 0.40582308E+03</rscale>
<asrwt>0</asrwt>
<pdfrwt beam="1">  1        2 0.23960947E+00 0.40582308E+03</pdfrwt>
<pdfrwt beam="2">  1       -2 0.28409686E-01 0.40582308E+03</pdfrwt>
<totfact> 0.14139941E+02</totfact>
</mgrwt>
</event>
<event>
 4    1  0.2061941E-008  0.6490362E+03  0.7818608E-02  0.9808589E-01
          2   -1    0    0  501    0  0.00000000000E+00  0.00000000000E+00  0.15405353060E+04  0.15405353060E+04  0.25500000000E-02 0. -1.
         -2   -1    0    0    0  501 -0.00000000000E+00 -0.00000000000E+00 -0.10832479616E+04  0.10832479616E+04  0.25500000000E-02 0.  1.
    8880022    1    1    2    0    0  0.29736950615E+03 -0.55626227488E+03 -0.90564695514E+03  0.11142012395E+04  0.15294330000E+03 0.  0.
    8880022    1    1    2    0    0 -0.29736950615E+03  0.55626227488E+03  0.13629342995E+04  0.15095820281E+04  0.15294330000E+03 0.  0.
<mgrwt>
<rscale>  0 0.64903620E+03</rscale>
<asrwt>0</asrwt>
<pdfrwt beam="1">  1        2 0.23700543E+00 0.64903620E+03</pdfrwt>
<pdfrwt beam="2">  1       -2 0.16665353E+00 0.64903620E+03</pdfrwt>
<totfact> 0.28417080E+00</totfact>
</mgrwt>
</event>
<event>
 4    1  0.2061941E-008  0.5554939E+03  0.7818608E-02  0.1000230E+00
         -2   -1    0    0    0  501 -0.00000000000E+00  0.00000000000E+00  0.14745609853E+03  0.14745609856E+03  0.25500000000E-02 0.  1.
          2   -1    0    0  501    0  0.00000000000E+00 -0.00000000000E+00 -0.46238690363E+04  0.46238690363E+04  0.25500000000E-02 0. -1.
    8880022    1    1    2    0    0  0.38966828041E+02  0.53260060635E+03 -0.47309788351E+03  0.72965408241E+03  0.15294330000E+03 0.  0.
    8880022    1    1    2    0    0 -0.38966828041E+02 -0.53260060635E+03 -0.40033150543E+04  0.40416710525E+04  0.15294330000E+03 0.  0.
<mgrwt>
<rscale>  0 0.55549390E+03</rscale>
<asrwt>0</asrwt>
<pdfrwt beam="1">  1        2 0.71136436E+00 0.55549390E+03</pdfrwt>
<pdfrwt beam="2">  1       -2 0.22685557E-01 0.55549390E+03</pdfrwt>
<totfact> 0.19089288E+00</totfact>
</mgrwt>
</event>
<event>
 4    1  0.2061941E-008  0.6807714E+03  0.7818608E-02  0.9750693E-01
          2   -1    0    0  501    0  0.00000000000E+00  0.00000000000E+00  0.34567521192E+04  0.34567521192E+04  0.25500000000E-02 0. -1.
         -2   -1    0    0    0  501 -0.00000000000E+00 -0.00000000000E+00 -0.25837662343E+03  0.25837662344E+03  0.25500000000E-02 0.  1.
    8880022    1    1    2    0    0  0.40324622184E+03  0.52673568413E+03  0.28876240016E+04  0.29667864810E+04  0.15294330000E+03 0.  0.
    8880022    1    1    2    0    0 -0.40324622184E+03 -0.52673568413E+03  0.31075149414E+03  0.74834226160E+03  0.15294330000E+03 0.  0.
<mgrwt>
<rscale>  0 0.68077136E+03</rscale>
<asrwt>0</asrwt>
<pdfrwt beam="1">  1        2 0.53180802E+00 0.68077136E+03</pdfrwt>
<pdfrwt beam="2">  1       -2 0.39750250E-01 0.68077136E+03</pdfrwt>
<totfact> 0.57269665E+00</totfact>
</mgrwt>
</event>
<event>
 4    1  0.3442223E-008  0.1620886E+04  0.7818608E-02  0.8807819E-01
          2   -1    0    0  501    0  0.00000000000E+00  0.00000000000E+00  0.25790074755E+04  0.25790074755E+04  0.25500000000E-02 0. -1.
         -2   -1    0    0    0  501 -0.00000000000E+00 -0.00000000000E+00 -0.20183724591E+04  0.20183724591E+04  0.25500000000E-02 0.  1.
    8880022    1    1    2    0    0 -0.15893403655E+04  0.27906303242E+03 -0.13374108570E+04  0.21014134355E+04  0.15294330000E+03 0.  0.
    8880022    1    1    2    0    0  0.15893403655E+04 -0.27906303242E+03  0.18980458734E+04  0.24959664990E+04  0.15294330000E+03 0.  0.
<mgrwt>
<rscale>  0 0.16208858E+04</rscale>
<asrwt>0</asrwt>
<pdfrwt beam="1">  1        2 0.39677038E+00 0.16208858E+04</pdfrwt>
<pdfrwt beam="2">  1       -2 0.31051884E+00 0.16208858E+04</pdfrwt>
<totfact> 0.79252095E-02</totfact>
</mgrwt>
</event>
<event>
 4    1  0.2061941E-008  0.6952126E+03  0.7818608E-02  0.9725455E-01
         -2   -1    0    0    0  501 -0.00000000000E+00  0.00000000000E+00  0.59953489765E+03  0.59953489765E+03  0.25500000000E-02 0.  1.
          2   -1    0    0  501    0  0.00000000000E+00 -0.00000000000E+00 -0.22584932202E+04  0.22584932202E+04  0.25500000000E-02 0. -1.
    8880022    1    1    2    0    0  0.64511331999E+03  0.20918334696E+03 -0.19754151904E+04  0.20941790028E+04  0.15294330000E+03 0.  0.
    8880022    1    1    2    0    0 -0.64511331999E+03 -0.20918334696E+03  0.31645686788E+03  0.76384911502E+03  0.15294330000E+03 0.  0.
<mgrwt>
<rscale>  0 0.69521257E+03</rscale>
<asrwt>0</asrwt>
<pdfrwt beam="1">  1        2 0.34746049E+00 0.69521257E+03</pdfrwt>
<pdfrwt beam="2">  1       -2 0.92236139E-01 0.69521257E+03</pdfrwt>
<totfact> 0.50323340E+00</totfact>
</mgrwt>
</event>
<event>
 4    1  0.2061941E-008  0.1195592E+04  0.7818608E-02  0.9116724E-01
         -2   -1    0    0    0  501 -0.00000000000E+00  0.00000000000E+00  0.13144246502E+04  0.13144246502E+04  0.25500000000E-02 0.  1.
          2   -1    0    0  501    0  0.00000000000E+00 -0.00000000000E+00 -0.26226126885E+04  0.26226126885E+04  0.25500000000E-02 0. -1.
    8880022    1    1    2    0    0 -0.11226672402E+04  0.38166274670E+03  0.85196594420E+03  0.14680891688E+04  0.15294330000E+03 0.  0.
    8880022    1    1    2    0    0  0.11226672402E+04 -0.38166274670E+03 -0.21601539825E+04  0.24689481699E+04  0.15294330000E+03 0.  0.
<mgrwt>
<rscale>  0 0.11955918E+04</rscale>
<asrwt>0</asrwt>
<pdfrwt beam="1">  1        2 0.40347887E+00 0.11955918E+04</pdfrwt>
<pdfrwt beam="2">  1       -2 0.20221918E+00 0.11955918E+04</pdfrwt>
<totfact> 0.37122776E-01</totfact>
</mgrwt>
</event>
<event>
 4    1  0.2061941E-008  0.7741757E+03  0.7818608E-02  0.9598168E-01
          2   -1    0    0  501    0  0.00000000000E+00  0.00000000000E+00  0.15781601314E+04  0.15781601314E+04  0.25500000000E-02 0. -1.
         -2   -1    0    0    0  501 -0.00000000000E+00 -0.00000000000E+00 -0.57723234079E+03  0.57723234079E+03  0.25500000000E-02 0.  1.
    8880022    1    1    2    0    0  0.49111202623E+03  0.57858915224E+03  0.11307766054E+04  0.13704027925E+04  0.15294330000E+03 0.  0.
    8880022    1    1    2    0    0 -0.49111202623E+03 -0.57858915224E+03 -0.12984881485E+03  0.78498967963E+03  0.15294330000E+03 0.  0.
<mgrwt>
<rscale>  0 0.77417574E+03</rscale>
<asrwt>0</asrwt>
<pdfrwt beam="1">  1        2 0.24279386E+00 0.77417574E+03</pdfrwt>
<pdfrwt beam="2">  1       -2 0.88804977E-01 0.77417574E+03</pdfrwt>
<totfact> 0.12785357E+01</totfact>
</mgrwt>
</event>
<event>
 4    1  0.2061941E-008  0.8010169E+03  0.7818608E-02  0.9558546E-01
          2   -1    0    0  501    0  0.00000000000E+00  0.00000000000E+00  0.26058424679E+04  0.26058424679E+04  0.25500000000E-02 0. -1.
         -2   -1    0    0    0  501 -0.00000000000E+00 -0.00000000000E+00 -0.26934234032E+03  0.26934234033E+03  0.25500000000E-02 0.  1.
    8880022    1    1    2    0    0 -0.31165924160E+03  0.72187594966E+03  0.74710054659E+03  0.10953480037E+04  0.15294330000E+03 0.  0.
    8880022    1    1    2    0    0  0.31165924160E+03 -0.72187594966E+03  0.15893995810E+04  0.17798368045E+04  0.15294330000E+03 0.  0.
<mgrwt>
<rscale>  0 0.80101687E+03</rscale>
<asrwt>0</asrwt>
<pdfrwt beam="1">  1        2 0.40089886E+00 0.80101687E+03</pdfrwt>
<pdfrwt beam="2">  1       -2 0.41437282E-01 0.80101687E+03</pdfrwt>
<totfact> 0.17342403E+01</totfact>
</mgrwt>
</event>
<event>
 4    1  0.2061941E-008  0.7087826E+03  0.7818608E-02  0.9702330E-01
          2   -1    0    0  501    0  0.00000000000E+00  0.00000000000E+00  0.12965070457E+04  0.12965070457E+04  0.25500000000E-02 0. -1.
         -2   -1    0    0    0  501 -0.00000000000E+00 -0.00000000000E+00 -0.80719000755E+03  0.80719000755E+03  0.25500000000E-02 0.  1.
    8880022    1    1    2    0    0  0.25617559923E+03 -0.64292705115E+03 -0.51381266453E+03  0.87542917360E+03  0.15294330000E+03 0.  0.
    8880022    1    1    2    0    0 -0.25617559923E+03  0.64292705115E+03  0.10031297027E+04  0.12282678796E+04  0.15294330000E+03 0.  0.
<mgrwt>
<rscale>  0 0.70878261E+03</rscale>
<asrwt>0</asrwt>
<pdfrwt beam="1">  1        2 0.19946262E+00 0.70878261E+03</pdfrwt>
<pdfrwt beam="2">  1       -2 0.12418308E+00 0.70878261E+03</pdfrwt>
<totfact> 0.83169480E+00</totfact>
</mgrwt>
</event>
<event>
 4    1  0.2061941E-008  0.5308493E+03  0.7818608E-02  0.1006026E+00
         -2   -1    0    0    0  501 -0.00000000000E+00  0.00000000000E+00  0.12303842381E+04  0.12303842381E+04  0.25500000000E-02 0.  1.
          2   -1    0    0  501    0  0.00000000000E+00 -0.00000000000E+00 -0.12261367898E+04  0.12261367898E+04  0.25500000000E-02 0. -1.
    8880022    1    1    2    0    0 -0.27990402736E+03 -0.42433832492E+03  0.11097437475E+04  0.12301756447E+04  0.15294330000E+03 0.  0.
    8880022    1    1    2    0    0  0.27990402736E+03  0.42433832492E+03 -0.11054962992E+04  0.12263453832E+04  0.15294330000E+03 0.  0.
<mgrwt>
<rscale>  0 0.53084926E+03</rscale>
<asrwt>0</asrwt>
<pdfrwt beam="1">  1        2 0.18863643E+00 0.53084926E+03</pdfrwt>
<pdfrwt beam="2">  1       -2 0.18928988E+00 0.53084926E+03</pdfrwt>
<totfact> 0.30611973E+00</totfact>
</mgrwt>
</event>
<event>
 4    1  0.2061941E-008  0.6892132E+03  0.7818608E-02  0.9735859E-01
          2   -1    0    0  501    0  0.00000000000E+00  0.00000000000E+00  0.34466275898E+03  0.34466275899E+03  0.25500000000E-02 0. -1.
         -2   -1    0    0    0  501 -0.00000000000E+00 -0.00000000000E+00 -0.19185347545E+04  0.19185347545E+04  0.25500000000E-02 0.  1.
    8880022    1    1    2    0    0  0.65528433927E+03 -0.14908236234E+03 -0.13874711456E+04  0.15492226919E+04  0.15294330000E+03 0.  0.
    8880022    1    1    2    0    0 -0.65528433927E+03  0.14908236234E+03 -0.18640084990E+03  0.71397482163E+03  0.15294330000E+03 0.  0.
<mgrwt>
<rscale>  0 0.68921315E+03</rscale>
<asrwt>0</asrwt>
<pdfrwt beam="1">  1        2 0.53025041E-01 0.68921315E+03</pdfrwt>
<pdfrwt beam="2">  1       -2 0.29515919E+00 0.68921315E+03</pdfrwt>
<totfact> 0.33529758E+00</totfact>
</mgrwt>
</event>
<event>
 4    1  0.2061941E-008  0.3618881E+03  0.7818608E-02  0.1057839E+00
          2   -1    0    0  501    0  0.00000000000E+00  0.00000000000E+00  0.16246813712E+04  0.16246813712E+04  0.25500000000E-02 0. -1.
         -2   -1    0    0    0  501 -0.00000000000E+00 -0.00000000000E+00 -0.38074885946E+03  0.38074885947E+03  0.25500000000E-02 0.  1.
    8880022    1    1    2    0    0  0.32507039247E+03 -0.43596011029E+02 -0.26830120699E+03  0.45049812755E+03  0.15294330000E+03 0.  1.
    8880022    1    1    2    0    0 -0.32507039247E+03  0.43596011029E+02  0.15122337187E+04  0.15549321031E+04  0.15294330000E+03 0.  0.
<mgrwt>
<rscale>  0 0.36188814E+03</rscale>
<asrwt>0</asrwt>
<pdfrwt beam="1">  1        2 0.24995099E+00 0.36188814E+03</pdfrwt>
<pdfrwt beam="2">  1       -2 0.58576746E-01 0.36188814E+03</pdfrwt>
<totfact> 0.32223253E+01</totfact>
</mgrwt>
</event>
<event>
 4    1  0.2061941E-008  0.6243127E+03  0.7818608E-02  0.9856210E-01
         -2   -1    0    0    0  501 -0.00000000000E+00  0.00000000000E+00  0.99130405574E+03  0.99130405574E+03  0.25500000000E-02 0.  1.
          2   -1    0    0  501    0  0.00000000000E+00 -0.00000000000E+00 -0.26327469840E+04  0.26327469840E+04  0.25500000000E-02 0. -1.
    8880022    1    1    2    0    0 -0.43191841036E+03 -0.42405331376E+03  0.85052785356E+03  0.10550658789E+04  0.15294330000E+03 0.  1.
    8880022    1    1    2    0    0  0.43191841036E+03  0.42405331376E+03 -0.24919707818E+04  0.25689851608E+04  0.15294330000E+03 0.  0.
<mgrwt>
<rscale>  0 0.62431273E+03</rscale>
<asrwt>0</asrwt>
<pdfrwt beam="1">  1        2 0.40503800E+00 0.62431273E+03</pdfrwt>
<pdfrwt beam="2">  1       -2 0.15250832E+00 0.62431273E+03</pdfrwt>
<totfact> 0.90932591E-01</totfact>
</mgrwt>
</event>
<event>
 4    1  0.2061941E-008  0.1922094E+04  0.7818608E-02  0.8643936E-01
          2   -1    0    0  501    0  0.00000000000E+00  0.00000000000E+00  0.24830636014E+04  0.24830636014E+04  0.25500000000E-02 0. -1.
         -2   -1    0    0    0  501 -0.00000000000E+00 -0.00000000000E+00 -0.26359241405E+04  0.26359241405E+04  0.25500000000E-02 0.  1.
    8880022    1    1    2    0    0  0.14437989987E+04  0.12595630396E+04 -0.17655913975E+04  0.26099347186E+04  0.15294330000E+03 0.  0.
    8880022    1    1    2    0    0 -0.14437989987E+04 -0.12595630396E+04  0.16127308584E+04  0.25090530233E+04  0.15294330000E+03 0.  0.
<mgrwt>
<rscale>  0 0.19220942E+04</rscale>
<asrwt>0</asrwt>
<pdfrwt beam="1">  1        2 0.38200979E+00 0.19220942E+04</pdfrwt>
<pdfrwt beam="2">  1       -2 0.40552679E+00 0.19220942E+04</pdfrwt>
<totfact> 0.21622597E-02</totfact>
</mgrwt>
</event>
<event>
 4    1  0.2061941E-008  0.1219323E+04  0.7818608E-02  0.9096109E-01
         -2   -1    0    0    0  501 -0.00000000000E+00  0.00000000000E+00  0.95663320219E+03  0.95663320219E+03  0.25500000000E-02 0.  1.
          2   -1    0    0  501    0  0.00000000000E+00 -0.00000000000E+00 -0.16780714197E+04  0.16780714197E+04  0.25500000000E-02 0. -1.
    8880022    1    1    2    0    0 -0.52960972755E+03  0.10875983152E+04 -0.71871324590E+03  0.14153787273E+04  0.15294330000E+03 0.  0.
    8880022    1    1    2    0    0  0.52960972755E+03 -0.10875983152E+04 -0.27249716354E+01  0.12193258946E+04  0.15294330000E+03 0.  0.
<mgrwt>
<rscale>  0 0.12193228E+04</rscale>
<asrwt>0</asrwt>
<pdfrwt beam="1">  1        2 0.25816483E+00 0.12193228E+04</pdfrwt>
<pdfrwt beam="2">  1       -2 0.14717434E+00 0.12193228E+04</pdfrwt>
<totfact> 0.30842065E+00</totfact>
</mgrwt>
</event>
<event>
 4    1  0.2061941E-008  0.3283258E+03  0.7818608E-02  0.1071880E+00
         -2   -1    0    0    0  501 -0.00000000000E+00  0.00000000000E+00  0.35173793454E+03  0.35173793455E+03  0.25500000000E-02 0.  1.
          2   -1    0    0  501    0  0.00000000000E+00 -0.00000000000E+00 -0.10576073731E+04  0.10576073732E+04  0.25500000000E-02 0. -1.
    8880022    1    1    2    0    0 -0.28596533983E+03 -0.51283663555E+02  0.24092556070E+03  0.40723822088E+03  0.15294330000E+03 0.  1.
    8880022    1    1    2    0    0  0.28596533983E+03  0.51283663555E+02 -0.94679499931E+03  0.10021070868E+04  0.15294330000E+03 0.  0.
<mgrwt>
<rscale>  0 0.32832582E+03</rscale>
<asrwt>0</asrwt>
<pdfrwt beam="1">  1        2 0.16270883E+00 0.32832582E+03</pdfrwt>
<pdfrwt beam="2">  1       -2 0.54113529E-01 0.32832582E+03</pdfrwt>
<totfact> 0.79432155E+01</totfact>
</mgrwt>
</event>
<event>
 4    1  0.2061941E-008  0.7517557E+03  0.7818608E-02  0.9632600E-01
         -2   -1    0    0    0  501 -0.00000000000E+00  0.00000000000E+00  0.65355594990E+03  0.65355594991E+03  0.25500000000E-02 0.  1.
          2   -1    0    0  501    0  0.00000000000E+00 -0.00000000000E+00 -0.18491286640E+04  0.18491286640E+04  0.25500000000E-02 0. -1.
    8880022    1    1    2    0    0  0.65018753835E+03 -0.34496539732E+03 -0.15108107876E+04  0.16875087701E+04  0.15294330000E+03 0.  0.
    8880022    1    1    2    0    0 -0.65018753835E+03  0.34496539732E+03  0.31523807345E+03  0.81517584381E+03  0.15294330000E+03 0.  1.
<mgrwt>
<rscale>  0 0.75175569E+03</rscale>
<asrwt>0</asrwt>
<pdfrwt beam="1">  1        2 0.28448133E+00 0.75175569E+03</pdfrwt>
<pdfrwt beam="2">  1       -2 0.10054707E+00 0.75175569E+03</pdfrwt>
<totfact> 0.68184654E+00</totfact>
</mgrwt>
</event>
<event>
 4    1  0.2061941E-008  0.6233622E+03  0.7818608E-02  0.9858088E-01
          2   -1    0    0  501    0  0.00000000000E+00  0.00000000000E+00  0.18506018215E+04  0.18506018215E+04  0.25500000000E-02 0. -1.
         -2   -1    0    0    0  501 -0.00000000000E+00 -0.00000000000E+00 -0.33404873244E+03  0.33404873245E+03  0.25500000000E-02 0.  1.
    8880022    1    1    2    0    0  0.12550159246E+03 -0.59113287281E+03  0.14239891009E+04  0.15544533880E+04  0.15294330000E+03 0.  0.
    8880022    1    1    2    0    0 -0.12550159246E+03  0.59113287281E+03  0.92563988145E+02  0.63019716593E+03  0.15294330000E+03 0.  0.
<mgrwt>
<rscale>  0 0.62336215E+03</rscale>
<asrwt>0</asrwt>
<pdfrwt beam="1">  1        2 0.28470798E+00 0.62336215E+03</pdfrwt>
<pdfrwt beam="2">  1       -2 0.51392112E-01 0.62336215E+03</pdfrwt>
<totfact> 0.30317691E+01</totfact>
</mgrwt>
</event>
<event>
 4    1  0.2061941E-008  0.1091950E+04  0.7818608E-02  0.9213074E-01
         -2   -1    0    0    0  501 -0.00000000000E+00  0.00000000000E+00  0.74355458921E+03  0.74355458921E+03  0.25500000000E-02 0.  1.
          2   -1    0    0  501    0  0.00000000000E+00 -0.00000000000E+00 -0.38580878549E+04  0.38580878549E+04  0.25500000000E-02 0. -1.
    8880022    1    1    2    0    0  0.10594327533E+04  0.21578875139E+03  0.20155604195E+03  0.11103958912E+04  0.15294330000E+03 0.  0.
    8880022    1    1    2    0    0 -0.10594327533E+04 -0.21578875139E+03 -0.33160893077E+04  0.34912465530E+04  0.15294330000E+03 0.  0.
<mgrwt>
<rscale>  0 0.10919497E+04</rscale>
<asrwt>0</asrwt>
<pdfrwt beam="1">  1        2 0.59355197E+00 0.10919497E+04</pdfrwt>
<pdfrwt beam="2">  1       -2 0.11439302E+00 0.10919497E+04</pdfrwt>
<totfact> 0.27173523E-01</totfact>
</mgrwt>
</event>
<event>
 4    1  0.2061941E-008  0.5394108E+03  0.7818608E-02  0.1003975E+00
         -2   -1    0    0    0  501 -0.00000000000E+00  0.00000000000E+00  0.16536159167E+04  0.16536159167E+04  0.25500000000E-02 0.  1.
          2   -1    0    0  501    0  0.00000000000E+00 -0.00000000000E+00 -0.15768508021E+04  0.15768508021E+04  0.25500000000E-02 0. -1.
    8880022    1    1    2    0    0 -0.50849765365E+03 -0.94881459845E+02  0.15608313757E+04  0.16514110910E+04  0.15294330000E+03 0.  0.
    8880022    1    1    2    0    0  0.50849765365E+03  0.94881459845E+02 -0.14840662611E+04  0.15790556277E+04  0.15294330000E+03 0.  0.
<mgrwt>
<rscale>  0 0.53941080E+03</rscale>
<asrwt>0</asrwt>
<pdfrwt beam="1">  1        2 0.24259243E+00 0.53941080E+03</pdfrwt>
<pdfrwt beam="2">  1       -2 0.25440245E+00 0.53941080E+03</pdfrwt>
<totfact> 0.76368656E-01</totfact>
</mgrwt>
</event>
<event>
 4    1  0.2061941E-008  0.1123149E+04  0.7818608E-02  0.9182918E-01
         -2   -1    0    0    0  501 -0.00000000000E+00  0.00000000000E+00  0.86908345879E+03  0.86908345879E+03  0.25500000000E-02 0.  1.
          2   -1    0    0  501    0  0.00000000000E+00 -0.00000000000E+00 -0.34302280308E+04  0.34302280308E+04  0.25500000000E-02 0. -1.
    8880022    1    1    2    0    0 -0.16095011014E+01 -0.11126857853E+04 -0.29132551294E+04  0.31222618963E+04  0.15294330000E+03 0.  0.
    8880022    1    1    2    0    0  0.16095011014E+01  0.11126857853E+04  0.35211055737E+03  0.11770495933E+04  0.15294330000E+03 0.  0.
<mgrwt>
<rscale>  0 0.11231491E+04</rscale>
<asrwt>0</asrwt>
<pdfrwt beam="1">  1        2 0.52772738E+00 0.11231491E+04</pdfrwt>
<pdfrwt beam="2">  1       -2 0.13370515E+00 0.11231491E+04</pdfrwt>
<totfact> 0.37011405E-01</totfact>
</mgrwt>
</event>
<event>
 4    1  0.2061941E-008  0.7461113E+03  0.7818608E-02  0.9641471E-01
         -2   -1    0    0    0  501 -0.00000000000E+00  0.00000000000E+00  0.77365540262E+03  0.77365540263E+03  0.25500000000E-02 0.  1.
          2   -1    0    0  501    0  0.00000000000E+00 -0.00000000000E+00 -0.12778008549E+04  0.12778008549E+04  0.25500000000E-02 0. -1.
    8880022    1    1    2    0    0  0.33806434594E+03 -0.64730434714E+03  0.42590623533E+03  0.85911477354E+03  0.15294330000E+03 0.  0.
    8880022    1    1    2    0    0 -0.33806434594E+03  0.64730434714E+03 -0.93005168761E+03  0.11923414840E+04  0.15294330000E+03 0.  0.
<mgrwt>
<rscale>  0 0.74611130E+03</rscale>
<asrwt>0</asrwt>
<pdfrwt beam="1">  1        2 0.19658475E+00 0.74611130E+03</pdfrwt>
<pdfrwt beam="2">  1       -2 0.11902391E+00 0.74611130E+03</pdfrwt>
<totfact> 0.94290270E+00</totfact>
</mgrwt>
</event>
<event>
 4    1  0.2061941E-008  0.9462759E+03  0.7818608E-02  0.9369514E-01
          2   -1    0    0  501    0  0.00000000000E+00  0.00000000000E+00  0.41239489398E+04  0.41239489398E+04  0.25500000000E-02 0. -1.
         -2   -1    0    0    0  501 -0.00000000000E+00 -0.00000000000E+00 -0.31254867852E+03  0.31254867853E+03  0.25500000000E-02 0.  1.
    8880022    1    1    2    0    0  0.29565994648E+03 -0.88579436633E+03  0.31313468788E+04  0.32712033553E+04  0.15294330000E+03 0.  1.
    8880022    1    1    2    0    0 -0.29565994648E+03  0.88579436633E+03  0.68005338245E+03  0.11652942630E+04  0.15294330000E+03 0.  0.
<mgrwt>
<rscale>  0 0.94627592E+03</rscale>
<asrwt>0</asrwt>
<pdfrwt beam="1">  1        2 0.63445363E+00 0.94627592E+03</pdfrwt>
<pdfrwt beam="2">  1       -2 0.48084416E-01 0.94627592E+03</pdfrwt>
<totfact> 0.11852477E+00</totfact>
</mgrwt>
</event>
<event>
 4    1  0.2061941E-008  0.7333774E+03  0.7818608E-02  0.9661796E-01
          2   -1    0    0  501    0  0.00000000000E+00  0.00000000000E+00  0.28837385084E+04  0.28837385084E+04  0.25500000000E-02 0. -1.
         -2   -1    0    0    0  501 -0.00000000000E+00 -0.00000000000E+00 -0.38860239234E+03  0.38860239235E+03  0.25500000000E-02 0.  1.
    8880022    1    1    2    0    0 -0.89037914749E+01 -0.71719692872E+03  0.67649117445E+02  0.73649084732E+03  0.15294330000E+03 0.  0.
    8880022    1    1    2    0    0  0.89037914749E+01  0.71719692872E+03  0.24274869986E+04  0.25358500534E+04  0.15294330000E+03 0.  0.
<mgrwt>
<rscale>  0 0.73337737E+03</rscale>
<asrwt>0</asrwt>
<pdfrwt beam="1">  1        2 0.44365208E+00 0.73337737E+03</pdfrwt>
<pdfrwt beam="2">  1       -2 0.59784983E-01 0.73337737E+03</pdfrwt>
<totfact> 0.57143796E+00</totfact>
</mgrwt>
</event>
<event>
 4    1  0.2061941E-008  0.2073033E+03  0.7818608E-02  0.1143719E+00
          2   -1    0    0  501    0  0.00000000000E+00  0.00000000000E+00  0.15699319312E+04  0.15699319312E+04  0.25500000000E-02 0. -1.
         -2   -1    0    0    0  501 -0.00000000000E+00 -0.00000000000E+00 -0.23613812393E+03  0.23613812394E+03  0.25500000000E-02 0.  1.
    8880022    1    1    2    0    0  0.39956018086E+02 -0.13411385825E+03  0.15159794402E+04  0.15300876858E+04  0.15294330000E+03 0.  0.
    8880022    1    1    2    0    0 -0.39956018086E+02  0.13411385825E+03 -0.18218563285E+03  0.27598236934E+03  0.15294330000E+03 0.  1.
<mgrwt>
<rscale>  0 0.20730331E+03</rscale>
<asrwt>0</asrwt>
<pdfrwt beam="1">  1        2 0.24152799E+00 0.20730331E+03</pdfrwt>
<pdfrwt beam="2">  1       -2 0.36328941E-01 0.20730331E+03</pdfrwt>
<totfact> 0.92529703E+01</totfact>
</mgrwt>
</event>
<event>
 4    1  0.2806600E-008  0.8873210E+03  0.7818608E-02  0.9441571E-01
          2   -1    0    0  501    0  0.00000000000E+00  0.00000000000E+00  0.21723628238E+04  0.21723628238E+04  0.25500000000E-02 0. -1.
         -2   -1    0    0    0  501 -0.00000000000E+00 -0.00000000000E+00 -0.16291661034E+04  0.16291661034E+04  0.25500000000E-02 0.  1.
    8880022    1    1    2    0    0 -0.24171149887E+02  0.87370624251E+03  0.19476522653E+04  0.21402541536E+04  0.15294330000E+03 0.  0.
    8880022    1    1    2    0    0  0.24171149887E+02 -0.87370624251E+03 -0.14044555449E+04  0.16612747736E+04  0.15294330000E+03 0.  0.
<mgrwt>
<rscale>  0 0.88732097E+03</rscale>
<asrwt>0</asrwt>
<pdfrwt beam="1">  1        2 0.33420966E+00 0.88732097E+03</pdfrwt>
<pdfrwt beam="2">  1       -2 0.25064094E+00 0.88732097E+03</pdfrwt>
<totfact> 0.35012700E-01</totfact>
</mgrwt>
</event>
<event>
 4    1  0.2061941E-008  0.7851793E+03  0.7818608E-02  0.9581721E-01
          2   -1    0    0  501    0  0.00000000000E+00  0.00000000000E+00  0.74065292978E+03  0.74065292979E+03  0.25500000000E-02 0. -1.
         -2   -1    0    0    0  501 -0.00000000000E+00 -0.00000000000E+00 -0.11460453554E+04  0.11460453554E+04  0.25500000000E-02 0.  1.
    8880022    1    1    2    0    0 -0.58379721455E+03 -0.50229039655E+03  0.29082196394E+03  0.83730752887E+03  0.15294330000E+03 0.  0.
    8880022    1    1    2    0    0  0.58379721455E+03  0.50229039655E+03 -0.69621438953E+03  0.10493907563E+04  0.15294330000E+03 0.  0.
<mgrwt>
<rscale>  0 0.78517927E+03</rscale>
<asrwt>0</asrwt>
<pdfrwt beam="1">  1        2 0.11394660E+00 0.78517927E+03</pdfrwt>
<pdfrwt beam="2">  1       -2 0.17631467E+00 0.78517927E+03</pdfrwt>
<totfact> 0.74335793E+00</totfact>
</mgrwt>
</event>
<event>
 4    1  0.2061941E-008  0.9714649E+03  0.7818608E-02  0.9340407E-01
          2   -1    0    0  501    0  0.00000000000E+00  0.00000000000E+00  0.22370785250E+04  0.22370785250E+04  0.25500000000E-02 0. -1.
         -2   -1    0    0    0  501 -0.00000000000E+00 -0.00000000000E+00 -0.70088519874E+03  0.70088519874E+03  0.25500000000E-02 0.  1.
    8880022    1    1    2    0    0 -0.83992069558E+03 -0.46355758447E+03 -0.15875702657E+03  0.98435148981E+03  0.15294330000E+03 0.  0.
    8880022    1    1    2    0    0  0.83992069558E+03  0.46355758447E+03  0.16949503528E+04  0.19536122339E+04  0.15294330000E+03 0.  0.
<mgrwt>
<rscale>  0 0.97146491E+03</rscale>
<asrwt>0</asrwt>
<pdfrwt beam="1">  1        2 0.34416592E+00 0.97146491E+03</pdfrwt>
<pdfrwt beam="2">  1       -2 0.10782849E+00 0.97146491E+03</pdfrwt>
<totfact> 0.34176879E+00</totfact>
</mgrwt>
</event>
<event>
 4    1  0.2061941E-008  0.1994080E+04  0.7818608E-02  0.8609393E-01
         -2   -1    0    0    0  501 -0.00000000000E+00  0.00000000000E+00  0.19924744674E+04  0.19924744674E+04  0.25500000000E-02 0.  1.
          2   -1    0    0  501    0  0.00000000000E+00 -0.00000000000E+00 -0.21928771101E+04  0.21928771101E+04  0.25500000000E-02 0. -1.
    8880022    1    1    2    0    0 -0.13394657827E+04 -0.14692836811E+04  0.52733332812E+03  0.20626282288E+04  0.15294330000E+03 0.  0.
    8880022    1    1    2    0    0  0.13394657827E+04  0.14692836811E+04 -0.72773597083E+03  0.21227233486E+04  0.15294330000E+03 0.  0.
<mgrwt>
<rscale>  0 0.19940799E+04</rscale>
<asrwt>0</asrwt>
<pdfrwt beam="1">  1        2 0.33736571E+00 0.19940799E+04</pdfrwt>
<pdfrwt beam="2">  1       -2 0.30653453E+00 0.19940799E+04</pdfrwt>
<totfact> 0.13429769E-01</totfact>
</mgrwt>
</event>
<event>
 4    1  0.2061941E-008  0.8618836E+03  0.7818608E-02  0.9474525E-01
          2   -1    0    0  501    0  0.00000000000E+00  0.00000000000E+00  0.71045077037E+03  0.71045077038E+03  0.25500000000E-02 0. -1.
         -2   -1    0    0    0  501 -0.00000000000E+00 -0.00000000000E+00 -0.11877123934E+04  0.11877123934E+04  0.25500000000E-02 0.  1.
    8880022    1    1    2    0    0  0.62256691604E+03  0.57607477241E+03 -0.56693196144E+03  0.10316274571E+04  0.15294330000E+03 0.  0.
    8880022    1    1    2    0    0 -0.62256691604E+03 -0.57607477241E+03  0.89670338405E+02  0.86653570668E+03  0.15294330000E+03 0.  0.
<mgrwt>
<rscale>  0 0.86188361E+03</rscale>
<asrwt>0</asrwt>
<pdfrwt beam="1">  1        2 0.10930012E+00 0.86188361E+03</pdfrwt>
<pdfrwt beam="2">  1       -2 0.18272498E+00 0.86188361E+03</pdfrwt>
<totfact> 0.70240081E+00</totfact>
</mgrwt>
</event>
<event>
 4    1  0.2061941E-008  0.3957064E+03  0.7818608E-02  0.1045277E+00
          2   -1    0    0  501    0  0.00000000000E+00  0.00000000000E+00  0.18961886741E+04  0.18961886741E+04  0.25500000000E-02 0. -1.
         -2   -1    0    0    0  501 -0.00000000000E+00 -0.00000000000E+00 -0.42827566908E+03  0.42827566909E+03  0.25500000000E-02 0.  1.
    8880022    1    1    2    0    0 -0.12474843491E+03  0.34297193741E+03 -0.31023314258E+03  0.50282022397E+03  0.15294330000E+03 0.  1.
    8880022    1    1    2    0    0  0.12474843491E+03 -0.34297193741E+03  0.17781461476E+04  0.18216441192E+04  0.15294330000E+03 0.  0.
<mgrwt>
<rscale>  0 0.39570643E+03</rscale>
<asrwt>0</asrwt>
<pdfrwt beam="1">  1        2 0.29172134E+00 0.39570643E+03</pdfrwt>
<pdfrwt beam="2">  1       -2 0.65888563E-01 0.39570643E+03</pdfrwt>
<totfact> 0.17862466E+01</totfact>
</mgrwt>
</event>
<event>
 4    1  0.2819945E-008  0.1619965E+04  0.7818608E-02  0.8808376E-01
          2   -1    0    0  501    0  0.00000000000E+00  0.00000000000E+00  0.30806833624E+04  0.30806833624E+04  0.25500000000E-02 0. -1.
         -2   -1    0    0    0  501 -0.00000000000E+00 -0.00000000000E+00 -0.20623534800E+04  0.20623534800E+04  0.25500000000E-02 0.  1.
    8880022    1    1    2    0    0 -0.32227473011E+03 -0.15802004514E+04 -0.14609463482E+04  0.21814330963E+04  0.15294330000E+03 0.  0.
    8880022    1    1    2    0    0  0.32227473011E+03  0.15802004514E+04  0.24792762306E+04  0.29616037461E+04  0.15294330000E+03 0.  0.
<mgrwt>
<rscale>  0 0.16199649E+04</rscale>
<asrwt>0</asrwt>
<pdfrwt beam="1">  1        2 0.47395129E+00 0.16199649E+04</pdfrwt>
<pdfrwt beam="2">  1       -2 0.31728515E+00 0.16199649E+04</pdfrwt>
<totfact> 0.35682946E-02</totfact>
</mgrwt>
</event>
<event>
 4    1  0.2061941E-008  0.6885701E+03  0.7818608E-02  0.9736981E-01
          2   -1    0    0  501    0  0.00000000000E+00  0.00000000000E+00  0.17890325844E+04  0.17890325844E+04  0.25500000000E-02 0. -1.
         -2   -1    0    0    0  501 -0.00000000000E+00 -0.00000000000E+00 -0.39584107186E+03  0.39584107187E+03  0.25500000000E-02 0.  1.
    8880022    1    1    2    0    0  0.63786012369E+02 -0.66833261967E+03  0.13246184384E+04  0.14928974534E+04  0.15294330000E+03 0.  0.
    8880022    1    1    2    0    0 -0.63786012369E+02  0.66833261967E+03  0.68573074133E+02  0.69197620292E+03  0.15294330000E+03 0.  0.
<mgrwt>
<rscale>  0 0.68857011E+03</rscale>
<asrwt>0</asrwt>
<pdfrwt beam="1">  1        2 0.27523578E+00 0.68857011E+03</pdfrwt>
<pdfrwt beam="2">  1       -2 0.60898627E-01 0.68857011E+03</pdfrwt>
<totfact> 0.22791470E+01</totfact>
</mgrwt>
</event>
<event>
 4    1  0.2061941E-008  0.7420941E+03  0.7818608E-02  0.9647836E-01
          2   -1    0    0  501    0  0.00000000000E+00  0.00000000000E+00  0.15561170218E+04  0.15561170218E+04  0.25500000000E-02 0. -1.
         -2   -1    0    0    0  501 -0.00000000000E+00 -0.00000000000E+00 -0.46272518341E+03  0.46272518342E+03  0.25500000000E-02 0.  1.
    8880022    1    1    2    0    0  0.72170703970E+03 -0.80317579437E+02  0.10362305957E+04  0.12745499069E+04  0.15294330000E+03 0.  0.
    8880022    1    1    2    0    0 -0.72170703970E+03  0.80317579437E+02  0.57161242754E+02  0.74429229837E+03  0.15294330000E+03 0.  0.
<mgrwt>
<rscale>  0 0.74209408E+03</rscale>
<asrwt>0</asrwt>
<pdfrwt beam="1">  1        2 0.23940262E+00 0.74209408E+03</pdfrwt>
<pdfrwt beam="2">  1       -2 0.71188490E-01 0.74209408E+03</pdfrwt>
<totfact> 0.21691986E+01</totfact>
</mgrwt>
</event>
<event>
 4    1  0.2061941E-008  0.7427673E+03  0.7818608E-02  0.9646766E-01
         -2   -1    0    0    0  501 -0.00000000000E+00  0.00000000000E+00  0.14572246337E+04  0.14572246337E+04  0.25500000000E-02 0.  1.
          2   -1    0    0  501    0  0.00000000000E+00 -0.00000000000E+00 -0.10929127820E+04  0.10929127820E+04  0.25500000000E-02 0. -1.
    8880022    1    1    2    0    0  0.54030361369E+03 -0.48619291230E+03  0.12129821858E+04  0.14223322323E+04  0.15294330000E+03 0.  0.
    8880022    1    1    2    0    0 -0.54030361369E+03  0.48619291230E+03 -0.84867033405E+03  0.11278051835E+04  0.15294330000E+03 0.  0.
<mgrwt>
<rscale>  0 0.74276726E+03</rscale>
<asrwt>0</asrwt>
<pdfrwt beam="1">  1        2 0.16814043E+00 0.74276726E+03</pdfrwt>
<pdfrwt beam="2">  1       -2 0.22418841E+00 0.74276726E+03</pdfrwt>
<totfact> 0.21099332E+00</totfact>
</mgrwt>
</event>
<event>
 4    1  0.2061941E-008  0.3567929E+03  0.7818608E-02  0.1059861E+00
         -2   -1    0    0    0  501 -0.00000000000E+00  0.00000000000E+00  0.31698585849E+03  0.31698585850E+03  0.25500000000E-02 0.  1.
          2   -1    0    0  501    0  0.00000000000E+00 -0.00000000000E+00 -0.22620762914E+04  0.22620762914E+04  0.25500000000E-02 0. -1.
    8880022    1    1    2    0    0  0.30700406431E+03 -0.98275429755E+02  0.19692825099E+03  0.40753152595E+03  0.15294330000E+03 0.  0.
    8880022    1    1    2    0    0 -0.30700406431E+03  0.98275429755E+02 -0.21420186839E+04  0.21715306240E+04  0.15294330000E+03 0.  0.
<mgrwt>
<rscale>  0 0.35679295E+03</rscale>
<asrwt>0</asrwt>
<pdfrwt beam="1">  1        2 0.34801173E+00 0.35679295E+03</pdfrwt>
<pdfrwt beam="2">  1       -2 0.48767057E-01 0.35679295E+03</pdfrwt>
<totfact> 0.21432515E+01</totfact>
</mgrwt>
</event>
<event>
 4    1  0.2061941E-008  0.2667638E+03  0.7818608E-02  0.1103146E+00
          2   -1    0    0  501    0  0.00000000000E+00  0.00000000000E+00  0.16974186708E+04  0.16974186708E+04  0.25500000000E-02 0. -1.
         -2   -1    0    0    0  501 -0.00000000000E+00 -0.00000000000E+00 -0.25102297067E+03  0.25102297068E+03  0.25500000000E-02 0.  1.
    8880022    1    1    2    0    0 -0.18230889797E+02 -0.21780471950E+03 -0.16595498536E+03  0.31417188187E+03  0.15294330000E+03 0.  1.
    8880022    1    1    2    0    0  0.18230889797E+02  0.21780471950E+03  0.16123506855E+04  0.16342697596E+04  0.15294330000E+03 0.  0.
<mgrwt>
<rscale>  0 0.26676378E+03</rscale>
<asrwt>0</asrwt>
<pdfrwt beam="1">  1        2 0.26114134E+00 0.26676378E+03</pdfrwt>
<pdfrwt beam="2">  1       -2 0.38618918E-01 0.26676378E+03</pdfrwt>
<totfact> 0.69287886E+01</totfact>
</mgrwt>
</event>
<event>
 4    1  0.2061941E-008  0.1496331E+04  0.7818608E-02  0.8886896E-01
          2   -1    0    0  501    0  0.00000000000E+00  0.00000000000E+00  0.19423433226E+04  0.19423433226E+04  0.25500000000E-02 0. -1.
         -2   -1    0    0    0  501 -0.00000000000E+00 -0.00000000000E+00 -0.13512687401E+04  0.13512687401E+04  0.25500000000E-02 0.  1.
    8880022    1    1    2    0    0 -0.14704458605E+04 -0.23109322853E+03  0.92676921298E+03  0.17600874797E+04  0.15294330000E+03 0.  0.
    8880022    1    1    2    0    0  0.14704458605E+04  0.23109322853E+03 -0.33569463043E+03  0.15335245831E+04  0.15294330000E+03 0.  0.
<mgrwt>
<rscale>  0 0.14963311E+04</rscale>
<asrwt>0</asrwt>
<pdfrwt beam="1">  1        2 0.29882205E+00 0.14963311E+04</pdfrwt>
<pdfrwt beam="2">  1       -2 0.20788750E+00 0.14963311E+04</pdfrwt>
<totfact> 0.79843336E-01</totfact>
</mgrwt>
</event>
<event>
 4    1  0.2061941E-008  0.1250825E+04  0.7818608E-02  0.9069496E-01
         -2   -1    0    0    0  501 -0.00000000000E+00  0.00000000000E+00  0.92690569337E+03  0.92690569338E+03  0.25500000000E-02 0.  1.
          2   -1    0    0  501    0  0.00000000000E+00 -0.00000000000E+00 -0.30272122710E+04  0.30272122710E+04  0.25500000000E-02 0. -1.
    8880022    1    1    2    0    0 -0.12225045697E+04  0.21599847783E+03  0.26486581858E+03  0.12785610350E+04  0.15294330000E+03 0.  0.
    8880022    1    1    2    0    0  0.12225045697E+04 -0.21599847783E+03 -0.23651723963E+04  0.26755569294E+04  0.15294330000E+03 0.  0.
<mgrwt>
<rscale>  0 0.12508255E+04</rscale>
<asrwt>0</asrwt>
<pdfrwt beam="1">  1        2 0.46572496E+00 0.12508255E+04</pdfrwt>
<pdfrwt beam="2">  1       -2 0.14260088E+00 0.12508255E+04</pdfrwt>
<totfact> 0.56092898E-01</totfact>
</mgrwt>
</event>
<event>
 4    1  0.2061941E-008  0.1201729E+04  0.7818608E-02  0.9111345E-01
          2   -1    0    0  501    0  0.00000000000E+00  0.00000000000E+00  0.43639756447E+04  0.43639756448E+04  0.25500000000E-02 0. -1.
         -2   -1    0    0    0  501 -0.00000000000E+00 -0.00000000000E+00 -0.48110506714E+03  0.48110506715E+03  0.25500000000E-02 0.  1.
    8880022    1    1    2    0    0 -0.11259151891E+04 -0.39124878393E+03  0.32949282361E+04  0.35072359997E+04  0.15294330000E+03 0.  0.
    8880022    1    1    2    0    0  0.11259151891E+04  0.39124878393E+03  0.58794234151E+03  0.13378447121E+04  0.15294330000E+03 0.  0.
<mgrwt>
<rscale>  0 0.12017289E+04</rscale>
<asrwt>0</asrwt>
<pdfrwt beam="1">  1        2 0.67138085E+00 0.12017289E+04</pdfrwt>
<pdfrwt beam="2">  1       -2 0.74016166E-01 0.12017289E+04</pdfrwt>
<totfact> 0.28046019E-01</totfact>
</mgrwt>
</event>
<event>
 4    1  0.2061941E-008  0.1092035E+04  0.7818608E-02  0.9212990E-01
          2   -1    0    0  501    0  0.00000000000E+00  0.00000000000E+00  0.17381300904E+04  0.17381300904E+04  0.25500000000E-02 0. -1.
         -2   -1    0    0    0  501 -0.00000000000E+00 -0.00000000000E+00 -0.69811855251E+03  0.69811855252E+03  0.25500000000E-02 0.  1.
    8880022    1    1    2    0    0  0.10760300444E+04 -0.10634230103E+03  0.36021570753E+03  0.11499114533E+04  0.15294330000E+03 0.  0.
    8880022    1    1    2    0    0 -0.10760300444E+04  0.10634230103E+03  0.67979583038E+03  0.12863371897E+04  0.15294330000E+03 0.  0.
<mgrwt>
<rscale>  0 0.10920353E+04</rscale>
<asrwt>0</asrwt>
<pdfrwt beam="1">  1        2 0.26740463E+00 0.10920353E+04</pdfrwt>
<pdfrwt beam="2">  1       -2 0.10740285E+00 0.10920353E+04</pdfrwt>
<totfact> 0.64175405E+00</totfact>
</mgrwt>
</event>
<event>
 4    1  0.2061941E-008  0.6492004E+03  0.7818608E-02  0.9808281E-01
          2   -1    0    0  501    0  0.00000000000E+00  0.00000000000E+00  0.14800925882E+04  0.14800925882E+04  0.25500000000E-02 0. -1.
         -2   -1    0    0    0  501 -0.00000000000E+00 -0.00000000000E+00 -0.60140202091E+03  0.60140202092E+03  0.25500000000E-02 0.  1.
    8880022    1    1    2    0    0  0.40447986301E+03  0.48421636313E+03 -0.31583699773E+03  0.72195159675E+03  0.15294330000E+03 0.  0.
    8880022    1    1    2    0    0 -0.40447986301E+03 -0.48421636313E+03  0.11945275650E+04  0.13595430124E+04  0.15294330000E+03 0.  0.
<mgrwt>
<rscale>  0 0.64920035E+03</rscale>
<asrwt>0</asrwt>
<pdfrwt beam="1">  1        2 0.22770655E+00 0.64920035E+03</pdfrwt>
<pdfrwt beam="2">  1       -2 0.92523389E-01 0.64920035E+03</pdfrwt>
<totfact> 0.13411128E+01</totfact>
</mgrwt>
</event>
<event>
 4    1  0.2061941E-008  0.4105562E+03  0.7818608E-02  0.1040185E+00
         -2   -1    0    0    0  501 -0.00000000000E+00  0.00000000000E+00  0.25441694474E+03  0.25441694475E+03  0.25500000000E-02 0.  1.
          2   -1    0    0  501    0  0.00000000000E+00 -0.00000000000E+00 -0.12282664700E+04  0.12282664700E+04  0.25500000000E-02 0. -1.
    8880022    1    1    2    0    0 -0.62747930928E+02  0.37580238187E+03  0.16208411814E+02  0.41087601376E+03  0.15294330000E+03 0.  0.
    8880022    1    1    2    0    0  0.62747930928E+02 -0.37580238187E+03 -0.99005793712E+03  0.10718074010E+04  0.15294330000E+03 0.  0.
<mgrwt>
<rscale>  0 0.41055619E+03</rscale>
<asrwt>0</asrwt>
<pdfrwt beam="1">  1        2 0.18896407E+00 0.41055619E+03</pdfrwt>
<pdfrwt beam="2">  1       -2 0.39141069E-01 0.41055619E+03</pdfrwt>
<totfact> 0.11819108E+02</totfact>
</mgrwt>
</event>
<event>
 4    1  0.2061941E-008  0.5036960E+03  0.7818608E-02  0.1012819E+00
          2   -1    0    0  501    0  0.00000000000E+00  0.00000000000E+00  0.27567580619E+04  0.27567580619E+04  0.25500000000E-02 0. -1.
         -2   -1    0    0    0  501 -0.00000000000E+00 -0.00000000000E+00 -0.94573703784E+03  0.94573703784E+03  0.25500000000E-02 0.  1.
    8880022    1    1    2    0    0 -0.13773836136E+03 -0.45972402732E+03  0.26643785004E+04  0.27115719580E+04  0.15294330000E+03 0.  0.
    8880022    1    1    2    0    0  0.13773836136E+03  0.45972402732E+03 -0.85335747627E+03  0.99092314172E+03  0.15294330000E+03 0.  0.
<mgrwt>
<rscale>  0 0.50369603E+03</rscale>
<asrwt>0</asrwt>
<pdfrwt beam="1">  1        2 0.42411662E+00 0.50369603E+03</pdfrwt>
<pdfrwt beam="2">  1       -2 0.14549801E+00 0.50369603E+03</pdfrwt>
<totfact> 0.90495646E-01</totfact>
</mgrwt>
</event>
<event>
 4    1  0.2061941E-008  0.5185217E+03  0.7818608E-02  0.1009054E+00
          2   -1    0    0  501    0  0.00000000000E+00  0.00000000000E+00  0.16153536421E+04  0.16153536421E+04  0.25500000000E-02 0. -1.
         -2   -1    0    0    0  501 -0.00000000000E+00 -0.00000000000E+00 -0.18814935065E+03  0.18814935067E+03  0.25500000000E-02 0.  1.
    8880022    1    1    2    0    0 -0.39904769729E+03 -0.29365639044E+03  0.10198872671E+04  0.11441306005E+04  0.15294330000E+03 0.  0.
    8880022    1    1    2    0    0  0.39904769729E+03  0.29365639044E+03  0.40731702435E+03  0.65937239228E+03  0.15294330000E+03 0.  0.
<mgrwt>
<rscale>  0 0.51852174E+03</rscale>
<asrwt>0</asrwt>
<pdfrwt beam="1">  1        2 0.24851594E+00 0.51852174E+03</pdfrwt>
<pdfrwt beam="2">  1       -2 0.28946054E-01 0.51852174E+03</pdfrwt>
<totfact> 0.12509859E+02</totfact>
</mgrwt>
</event>
<event>
 4    1  0.2061941E-008  0.8387432E+03  0.7818608E-02  0.9505571E-01
          2   -1    0    0  501    0  0.00000000000E+00  0.00000000000E+00  0.14687234687E+04  0.14687234687E+04  0.25500000000E-02 0. -1.
         -2   -1    0    0    0  501 -0.00000000000E+00 -0.00000000000E+00 -0.61914375646E+03  0.61914375647E+03  0.25500000000E-02 0.  1.
    8880022    1    1    2    0    0  0.76305685859E+03  0.31279814952E+03  0.92148968144E+03  0.12460470849E+04  0.15294330000E+03 0.  0.
    8880022    1    1    2    0    0 -0.76305685859E+03 -0.31279814952E+03 -0.71909969245E+02  0.84182014022E+03  0.15294330000E+03 0.  1.
<mgrwt>
<rscale>  0 0.83874317E+03</rscale>
<asrwt>0</asrwt>
<pdfrwt beam="1">  1        2 0.22595745E+00 0.83874317E+03</pdfrwt>
<pdfrwt beam="2">  1       -2 0.95252887E-01 0.83874317E+03</pdfrwt>
<totfact> 0.12403372E+01</totfact>
</mgrwt>
</event>
<event>
 4    1  0.2061941E-008  0.1694383E+04  0.7818608E-02  0.8764575E-01
         -2   -1    0    0    0  501 -0.00000000000E+00  0.00000000000E+00  0.21814339924E+04  0.21814339924E+04  0.25500000000E-02 0.  1.
          2   -1    0    0  501    0  0.00000000000E+00 -0.00000000000E+00 -0.19968716116E+04  0.19968716116E+04  0.25500000000E-02 0. -1.
    8880022    1    1    2    0    0 -0.42455383128E+03 -0.16331855570E+04 -0.11275607040E+04  0.20352704522E+04  0.15294330000E+03 0.  0.
    8880022    1    1    2    0    0  0.42455383128E+03  0.16331855570E+04  0.13121230848E+04  0.21430351518E+04  0.15294330000E+03 0.  0.
<mgrwt>
<rscale>  0 0.16943827E+04</rscale>
<asrwt>0</asrwt>
<pdfrwt beam="1">  1        2 0.30721102E+00 0.16943827E+04</pdfrwt>
<pdfrwt beam="2">  1       -2 0.33560523E+00 0.16943827E+04</pdfrwt>
<totfact> 0.11789252E-01</totfact>
</mgrwt>
</event>
<event>
 4    1  0.2061941E-008  0.8531458E+03  0.7818608E-02  0.9486124E-01
         -2   -1    0    0    0  501 -0.00000000000E+00  0.00000000000E+00  0.51506745675E+03  0.51506745676E+03  0.25500000000E-02 0.  1.
          2   -1    0    0  501    0  0.00000000000E+00 -0.00000000000E+00 -0.31335720856E+04  0.31335720856E+04  0.25500000000E-02 0. -1.
    8880022    1    1    2    0    0  0.48056069983E+03  0.68813337350E+03  0.42512149953E+02  0.85420434433E+03  0.15294330000E+03 0.  0.
    8880022    1    1    2    0    0 -0.48056069983E+03 -0.68813337350E+03 -0.26610167788E+04  0.27944351980E+04  0.15294330000E+03 0.  0.
<mgrwt>
<rscale>  0 0.85314581E+03</rscale>
<asrwt>0</asrwt>
<pdfrwt beam="1">  1        2 0.48208800E+00 0.85314581E+03</pdfrwt>
<pdfrwt beam="2">  1       -2 0.79241150E-01 0.85314581E+03</pdfrwt>
<totfact> 0.21247730E+00</totfact>
</mgrwt>
</event>
<event>
 4    1  0.2061941E-008  0.6988264E+03  0.7818608E-02  0.9719241E-01
          2   -1    0    0  501    0  0.00000000000E+00  0.00000000000E+00  0.23953595487E+04  0.23953595487E+04  0.25500000000E-02 0. -1.
         -2   -1    0    0    0  501 -0.00000000000E+00 -0.00000000000E+00 -0.22594290054E+03  0.22594290055E+03  0.25500000000E-02 0.  1.
    8880022    1    1    2    0    0  0.51723382897E+03  0.44433750626E+03  0.14942992345E+04  0.16496328405E+04  0.15294330000E+03 0.  0.
    8880022    1    1    2    0    0 -0.51723382897E+03 -0.44433750626E+03  0.67511741372E+03  0.97166960878E+03  0.15294330000E+03 0.  0.
<mgrwt>
<rscale>  0 0.69882638E+03</rscale>
<asrwt>0</asrwt>
<pdfrwt beam="1">  1        2 0.36851684E+00 0.69882638E+03</pdfrwt>
<pdfrwt beam="2">  1       -2 0.34760447E-01 0.69882638E+03</pdfrwt>
<totfact> 0.32546833E+01</totfact>
</mgrwt>
</event>
<event>
 4    1  0.2061941E-008  0.6476185E+03  0.7818608E-02  0.9811258E-01
          2   -1    0    0  501    0  0.00000000000E+00  0.00000000000E+00  0.26068636143E+04  0.26068636143E+04  0.25500000000E-02 0. -1.
         -2   -1    0    0    0  501 -0.00000000000E+00 -0.00000000000E+00 -0.28729642798E+03  0.28729642799E+03  0.25500000000E-02 0.  1.
    8880022    1    1    2    0    0 -0.28773869131E+03 -0.55966462337E+03  0.21196652083E+04  0.22163912772E+04  0.15294330000E+03 0.  0.
    8880022    1    1    2    0    0  0.28773869131E+03  0.55966462337E+03  0.19990197798E+03  0.67776876510E+03  0.15294330000E+03 0.  0.
<mgrwt>
<rscale>  0 0.64761848E+03</rscale>
<asrwt>0</asrwt>
<pdfrwt beam="1">  1        2 0.40105594E+00 0.64761848E+03</pdfrwt>
<pdfrwt beam="2">  1       -2 0.44199451E-01 0.64761848E+03</pdfrwt>
<totfact> 0.15641249E+01</totfact>
</mgrwt>
</event>
<event>
 4    1  0.2061941E-008  0.2446029E+03  0.7818608E-02  0.1116764E+00
          2   -1    0    0  501    0  0.00000000000E+00  0.00000000000E+00  0.89846605349E+03  0.89846605350E+03  0.25500000000E-02 0. -1.
         -2   -1    0    0    0  501 -0.00000000000E+00 -0.00000000000E+00 -0.34006774827E+03  0.34006774828E+03  0.25500000000E-02 0.  1.
    8880022    1    1    2    0    0 -0.75315308533E+02  0.17540387900E+03  0.83453361750E+03  0.86964183904E+03  0.15294330000E+03 0. -1.
    8880022    1    1    2    0    0  0.75315308533E+02 -0.17540387900E+03 -0.27613531228E+03  0.36889196273E+03  0.15294330000E+03 0.  0.
<mgrwt>
<rscale>  0 0.24460288E+03</rscale>
<asrwt>0</asrwt>
<pdfrwt beam="1">  1        2 0.13822555E+00 0.24460288E+03</pdfrwt>
<pdfrwt beam="2">  1       -2 0.52318115E-01 0.24460288E+03</pdfrwt>
<totfact> 0.10862457E+02</totfact>
</mgrwt>
</event>
<event>
 4    1  0.2061941E-008  0.1446168E+04  0.7818608E-02  0.8921061E-01
         -2   -1    0    0    0  501 -0.00000000000E+00  0.00000000000E+00  0.18765275415E+04  0.18765275415E+04  0.25500000000E-02 0.  1.
          2   -1    0    0  501    0  0.00000000000E+00 -0.00000000000E+00 -0.30821246212E+04  0.30821246212E+04  0.25500000000E-02 0. -1.
    8880022    1    1    2    0    0  0.29556668602E+03  0.14073562379E+04  0.13781760914E+04  0.19976917275E+04  0.15294330000E+03 0.  0.
    8880022    1    1    2    0    0 -0.29556668602E+03 -0.14073562379E+04 -0.25837731711E+04  0.29609604352E+04  0.15294330000E+03 0.  0.
<mgrwt>
<rscale>  0 0.14461684E+04</rscale>
<asrwt>0</asrwt>
<pdfrwt beam="1">  1        2 0.47417302E+00 0.14461684E+04</pdfrwt>
<pdfrwt beam="2">  1       -2 0.28869655E+00 0.14461684E+04</pdfrwt>
<totfact> 0.54650963E-02</totfact>
</mgrwt>
</event>
<event>
 4    1  0.2061941E-008  0.6312506E+03  0.7818608E-02  0.9842611E-01
          2   -1    0    0  501    0  0.00000000000E+00  0.00000000000E+00  0.13860947457E+04  0.13860947457E+04  0.25500000000E-02 0. -1.
         -2   -1    0    0    0  501 -0.00000000000E+00 -0.00000000000E+00 -0.68243732132E+03  0.68243732133E+03  0.25500000000E-02 0.  1.
    8880022    1    1    2    0    0 -0.50526101334E+03 -0.34611707758E+03 -0.43499026834E+03  0.76661196805E+03  0.15294330000E+03 0.  0.
    8880022    1    1    2    0    0  0.50526101334E+03  0.34611707758E+03  0.11386476927E+04  0.13019200990E+04  0.15294330000E+03 0.  0.
<mgrwt>
<rscale>  0 0.63125064E+03</rscale>
<asrwt>0</asrwt>
<pdfrwt beam="1">  1        2 0.21324534E+00 0.63125064E+03</pdfrwt>
<pdfrwt beam="2">  1       -2 0.10499036E+00 0.63125064E+03</pdfrwt>
<totfact> 0.11269908E+01</totfact>
</mgrwt>
</event>
<event>
 4    1  0.2061941E-008  0.9951446E+03  0.7818608E-02  0.9313886E-01
         -2   -1    0    0    0  501 -0.00000000000E+00  0.00000000000E+00  0.18947131048E+04  0.18947131048E+04  0.25500000000E-02 0.  1.
          2   -1    0    0  501    0  0.00000000000E+00 -0.00000000000E+00 -0.11797098621E+04  0.11797098621E+04  0.25500000000E-02 0. -1.
    8880022    1    1    2    0    0  0.37907448956E+03 -0.90731672380E+03  0.15047074388E+04  0.18040114288E+04  0.15294330000E+03 0.  0.
    8880022    1    1    2    0    0 -0.37907448956E+03  0.90731672380E+03 -0.78970419604E+03  0.12704115381E+04  0.15294330000E+03 0.  0.
<mgrwt>
<rscale>  0 0.99514459E+03</rscale>
<asrwt>0</asrwt>
<pdfrwt beam="1">  1        2 0.18149383E+00 0.99514459E+03</pdfrwt>
<pdfrwt beam="2">  1       -2 0.29149432E+00 0.99514459E+03</pdfrwt>
<totfact> 0.70027210E-01</totfact>
</mgrwt>
</event>
<event>
 4    1  0.2061941E-008  0.1055341E+04  0.7818608E-02  0.9249847E-01
          2   -1    0    0  501    0  0.00000000000E+00  0.00000000000E+00  0.31202600094E+04  0.31202600094E+04  0.25500000000E-02 0. -1.
         -2   -1    0    0    0  501 -0.00000000000E+00 -0.00000000000E+00 -0.10719884237E+04  0.10719884237E+04  0.25500000000E-02 0.  1.
    8880022    1    1    2    0    0 -0.13908676333E+03 -0.10348954686E+04 -0.68780883527E+03  0.12596929807E+04  0.15294330000E+03 0.  0.
    8880022    1    1    2    0    0  0.13908676333E+03  0.10348954686E+04  0.27360804210E+04  0.29325554524E+04  0.15294330000E+03 0.  0.
<mgrwt>
<rscale>  0 0.10553414E+04</rscale>
<asrwt>0</asrwt>
<pdfrwt beam="1">  1        2 0.48003999E+00 0.10553414E+04</pdfrwt>
<pdfrwt beam="2">  1       -2 0.16492130E+00 0.10553414E+04</pdfrwt>
<totfact> 0.34177913E-01</totfact>
</mgrwt>
</event>
<event>
 4    1  0.2061941E-008  0.4447332E+03  0.7818608E-02  0.1029304E+00
         -2   -1    0    0    0  501 -0.00000000000E+00  0.00000000000E+00  0.63567442294E+03  0.63567442294E+03  0.25500000000E-02 0.  1.
          2   -1    0    0  501    0  0.00000000000E+00 -0.00000000000E+00 -0.14984284075E+04  0.14984284075E+04  0.25500000000E-02 0. -1.
    8880022    1    1    2    0    0  0.33943874542E+03  0.24326392415E+03 -0.13812036089E+04  0.14510379254E+04  0.15294330000E+03 0.  0.
    8880022    1    1    2    0    0 -0.33943874542E+03 -0.24326392415E+03  0.51844962427E+03  0.68306490512E+03  0.15294330000E+03 0.  0.
<mgrwt>
<rscale>  0 0.44473324E+03</rscale>
<asrwt>0</asrwt>
<pdfrwt beam="1">  1        2 0.23052745E+00 0.44473324E+03</pdfrwt>
<pdfrwt beam="2">  1       -2 0.97796066E-01 0.44473324E+03</pdfrwt>
<totfact> 0.11960661E+01</totfact>
</mgrwt>
</event>
<event>
 4    1  0.2061941E-008  0.6330909E+03  0.7818608E-02  0.9839036E-01
          2   -1    0    0  501    0  0.00000000000E+00  0.00000000000E+00  0.34863595492E+04  0.34863595492E+04  0.25500000000E-02 0. -1.
         -2   -1    0    0    0  501 -0.00000000000E+00 -0.00000000000E+00 -0.58210821662E+03  0.58210821663E+03  0.25500000000E-02 0.  1.
    8880022    1    1    2    0    0  0.52673270778E+03 -0.31617249866E+03 -0.37019477271E+03  0.73338135858E+03  0.15294330000E+03 0.  0.
    8880022    1    1    2    0    0 -0.52673270778E+03  0.31617249866E+03  0.32744461053E+04  0.33350864072E+04  0.15294330000E+03 0. -1.
<mgrwt>
<rscale>  0 0.63309087E+03</rscale>
<asrwt>0</asrwt>
<pdfrwt beam="1">  1        2 0.53636301E+00 0.63309087E+03</pdfrwt>
<pdfrwt beam="2">  1       -2 0.89555110E-01 0.63309087E+03</pdfrwt>
<totfact> 0.99633793E-01</totfact>
</mgrwt>
</event>
<event>
 4    1  0.2061941E-008  0.5653757E+03  0.7818608E-02  0.9979964E-01
          2   -1    0    0  501    0  0.00000000000E+00  0.00000000000E+00  0.40665195930E+04  0.40665195930E+04  0.25500000000E-02 0. -1.
         -2   -1    0    0    0  501 -0.00000000000E+00 -0.00000000000E+00 -0.24816328588E+03  0.24816328590E+03  0.25500000000E-02 0.  1.
    8880022    1    1    2    0    0  0.40707265570E+03  0.36131685081E+03  0.12594000059E+03  0.57923272565E+03  0.15294330000E+03 0.  1.
    8880022    1    1    2    0    0 -0.40707265570E+03 -0.36131685081E+03  0.36924163066E+04  0.37354501533E+04  0.15294330000E+03 0.  0.
<mgrwt>
<rscale>  0 0.56537569E+03</rscale>
<asrwt>0</asrwt>
<pdfrwt beam="1">  1        2 0.62561837E+00 0.56537569E+03</pdfrwt>
<pdfrwt beam="2">  1       -2 0.38178969E-01 0.56537569E+03</pdfrwt>
<totfact> 0.22875000E+00</totfact>
</mgrwt>
</event>
<event>
 4    1  0.2061941E-008  0.3419502E+03  0.7818608E-02  0.1065968E+00
          2   -1    0    0  501    0  0.00000000000E+00  0.00000000000E+00  0.18289781816E+04  0.18289781816E+04  0.25500000000E-02 0. -1.
         -2   -1    0    0    0  501 -0.00000000000E+00 -0.00000000000E+00 -0.84993682929E+02  0.84993682967E+02  0.25500000000E-02 0.  1.
    8880022    1    1    2    0    0 -0.26484616933E+03  0.15295366615E+03  0.13483796267E+04  0.13910634738E+04  0.15294330000E+03 0.  0.
    8880022    1    1    2    0    0  0.26484616933E+03 -0.15295366615E+03  0.39560487193E+03  0.52290839074E+03  0.15294330000E+03 0.  0.
<mgrwt>
<rscale>  0 0.34195025E+03</rscale>
<asrwt>0</asrwt>
<pdfrwt beam="1">  1        2 0.28138126E+00 0.34195025E+03</pdfrwt>
<pdfrwt beam="2">  1       -2 0.13075951E-01 0.34195025E+03</pdfrwt>
<totfact> 0.38945530E+02</totfact>
</mgrwt>
</event>
<event>
 4    1  0.2061941E-008  0.8020695E+03  0.7818608E-02  0.9557026E-01
          2   -1    0    0  501    0  0.00000000000E+00  0.00000000000E+00  0.60931518555E+03  0.60931518556E+03  0.25500000000E-02 0. -1.
         -2   -1    0    0    0  501 -0.00000000000E+00 -0.00000000000E+00 -0.16242690541E+04  0.16242690541E+04  0.25500000000E-02 0.  1.
    8880022    1    1    2    0    0 -0.40164953113E+03 -0.67720123968E+03  0.15321107980E+03  0.81657158466E+03  0.15294330000E+03 0.  0.
    8880022    1    1    2    0    0  0.40164953113E+03  0.67720123968E+03 -0.11681649483E+04  0.14170126550E+04  0.15294330000E+03 0.  0.
<mgrwt>
<rscale>  0 0.80206952E+03</rscale>
<asrwt>0</asrwt>
<pdfrwt beam="1">  1        2 0.93740798E-01 0.80206952E+03</pdfrwt>
<pdfrwt beam="2">  1       -2 0.24988755E+00 0.80206952E+03</pdfrwt>
<totfact> 0.32039840E+00</totfact>
</mgrwt>
</event>
<event>
 4    1  0.2061941E-008  0.4611860E+03  0.7818608E-02  0.1024438E+00
          2   -1    0    0  501    0  0.00000000000E+00  0.00000000000E+00  0.15774578255E+04  0.15774578255E+04  0.25500000000E-02 0. -1.
         -2   -1    0    0    0  501 -0.00000000000E+00 -0.00000000000E+00 -0.35489038638E+03  0.35489038639E+03  0.25500000000E-02 0.  1.
    8880022    1    1    2    0    0 -0.43243896687E+03  0.47931397402E+02  0.13720947081E+04  0.14475276923E+04  0.15294330000E+03 0. -1.
    8880022    1    1    2    0    0  0.43243896687E+03 -0.47931397402E+02 -0.14952726907E+03  0.48482051951E+03  0.15294330000E+03 0.  0.
<mgrwt>
<rscale>  0 0.46118601E+03</rscale>
<asrwt>0</asrwt>
<pdfrwt beam="1">  1        2 0.24268581E+00 0.46118601E+03</pdfrwt>
<pdfrwt beam="2">  1       -2 0.54598522E-01 0.46118601E+03</pdfrwt>
<totfact> 0.38681930E+01</totfact>
</mgrwt>
</event>
<event>
 4    1  0.2061941E-008  0.4599783E+03  0.7818608E-02  0.1024788E+00
          2   -1    0    0  501    0  0.00000000000E+00  0.00000000000E+00  0.20889096999E+04  0.20889096999E+04  0.25500000000E-02 0. -1.
         -2   -1    0    0    0  501 -0.00000000000E+00 -0.00000000000E+00 -0.23943905171E+03  0.23943905172E+03  0.25500000000E-02 0.  1.
    8880022    1    1    2    0    0 -0.16561628276E+03  0.40094841590E+03  0.18090335034E+04  0.18665964360E+04  0.15294330000E+03 0.  0.
    8880022    1    1    2    0    0  0.16561628276E+03 -0.40094841590E+03  0.40437144802E+02  0.46175231566E+03  0.15294330000E+03 0.  0.
<mgrwt>
<rscale>  0 0.45997830E+03</rscale>
<asrwt>0</asrwt>
<pdfrwt beam="1">  1        2 0.32137072E+00 0.45997830E+03</pdfrwt>
<pdfrwt beam="2">  1       -2 0.36836778E-01 0.45997830E+03</pdfrwt>
<totfact> 0.44755924E+01</totfact>
</mgrwt>
</event>
<event>
 4    1  0.2061941E-008  0.3636901E+03  0.7818608E-02  0.1057132E+00
          2   -1    0    0  501    0  0.00000000000E+00  0.00000000000E+00  0.30837766657E+04  0.30837766657E+04  0.25500000000E-02 0. -1.
         -2   -1    0    0    0  501 -0.00000000000E+00 -0.00000000000E+00 -0.33486287077E+03  0.33486287078E+03  0.25500000000E-02 0.  1.
    8880022    1    1    2    0    0 -0.32891599984E+03  0.26327461455E+02 -0.22164015841E+03  0.42590478163E+03  0.15294330000E+03 0.  1.
    8880022    1    1    2    0    0  0.32891599984E+03 -0.26327461455E+02  0.29705539533E+04  0.29927347548E+04  0.15294330000E+03 0.  0.
<mgrwt>
<rscale>  0 0.36369015E+03</rscale>
<asrwt>0</asrwt>
<pdfrwt beam="1">  1        2 0.47442717E+00 0.36369015E+03</pdfrwt>
<pdfrwt beam="2">  1       -2 0.51517366E-01 0.36369015E+03</pdfrwt>
<totfact> 0.65221560E+00</totfact>
</mgrwt>
</event>
<event>
 4    1  0.2061941E-008  0.3983796E+03  0.7818608E-02  0.1044342E+00
          2   -1    0    0  501    0  0.00000000000E+00  0.00000000000E+00  0.30624893676E+04  0.30624893676E+04  0.25500000000E-02 0. -1.
         -2   -1    0    0    0  501 -0.00000000000E+00 -0.00000000000E+00 -0.37974733500E+03  0.37974733501E+03  0.25500000000E-02 0.  1.
    8880022    1    1    2    0    0 -0.34880107835E+03 -0.11684383215E+03  0.29407464477E+04  0.29676077901E+04  0.15294330000E+03 0.  0.
    8880022    1    1    2    0    0  0.34880107835E+03  0.11684383215E+03 -0.25800441507E+03  0.47462891250E+03  0.15294330000E+03 0.  0.
<mgrwt>
<rscale>  0 0.39837963E+03</rscale>
<asrwt>0</asrwt>
<pdfrwt beam="1">  1        2 0.47115221E+00 0.39837963E+03</pdfrwt>
<pdfrwt beam="2">  1       -2 0.58422667E-01 0.39837963E+03</pdfrwt>
<totfact> 0.51186721E+00</totfact>
</mgrwt>
</event>
<event>
 4    1  0.2061941E-008  0.8619992E+03  0.7818608E-02  0.9474372E-01
         -2   -1    0    0    0  501 -0.00000000000E+00  0.00000000000E+00  0.25176388440E+03  0.25176388441E+03  0.25500000000E-02 0.  1.
          2   -1    0    0  501    0  0.00000000000E+00 -0.00000000000E+00 -0.41986388437E+04  0.41986388437E+04  0.25500000000E-02 0. -1.
    8880022    1    1    2    0    0  0.82549742842E+03 -0.19546079478E+03 -0.76060979255E+03  0.11495955098E+04  0.15294330000E+03 0.  0.
    8880022    1    1    2    0    0 -0.82549742842E+03  0.19546079478E+03 -0.31862651668E+04  0.33008072184E+04  0.15294330000E+03 0.  0.
<mgrwt>
<rscale>  0 0.86199918E+03</rscale>
<asrwt>0</asrwt>
<pdfrwt beam="1">  1        2 0.64594439E+00 0.86199918E+03</pdfrwt>
<pdfrwt beam="2">  1       -2 0.38732908E-01 0.86199918E+03</pdfrwt>
<totfact> 0.16032223E+00</totfact>
</mgrwt>
</event>
<event>
 4    1  0.2061941E-008  0.1067189E+04  0.7818608E-02  0.9237775E-01
         -2   -1    0    0    0  501 -0.00000000000E+00  0.00000000000E+00  0.36739055385E+03  0.36739055386E+03  0.25500000000E-02 0.  1.
          2   -1    0    0  501    0  0.00000000000E+00 -0.00000000000E+00 -0.39649766986E+04  0.39649766986E+04  0.25500000000E-02 0. -1.
    8880022    1    1    2    0    0  0.10545673638E+04  0.58216705784E+02 -0.28105801959E+04  0.30063689395E+04  0.15294330000E+03 0.  0.
    8880022    1    1    2    0    0 -0.10545673638E+04 -0.58216705784E+02 -0.78700594887E+03  0.13259983130E+04  0.15294330000E+03 0.  0.
<mgrwt>
<rscale>  0 0.10671894E+04</rscale>
<asrwt>0</asrwt>
<pdfrwt beam="1">  1        2 0.60999638E+00 0.10671894E+04</pdfrwt>
<pdfrwt beam="2">  1       -2 0.56521627E-01 0.10671894E+04</pdfrwt>
<totfact> 0.11159884E+00</totfact>
</mgrwt>
</event>
<event>
 4    1  0.2061941E-008  0.1287239E+04  0.7818608E-02  0.9039746E-01
          2   -1    0    0  501    0  0.00000000000E+00  0.00000000000E+00  0.14910097338E+04  0.14910097338E+04  0.25500000000E-02 0. -1.
         -2   -1    0    0    0  501 -0.00000000000E+00 -0.00000000000E+00 -0.16095644167E+04  0.16095644167E+04  0.25500000000E-02 0.  1.
    8880022    1    1    2    0    0  0.47710322210E+01  0.12781119844E+04  0.80326498470E+03  0.15173065926E+04  0.15294330000E+03 0.  0.
    8880022    1    1    2    0    0 -0.47710322210E+01 -0.12781119844E+04 -0.92181966753E+03  0.15832675579E+04  0.15294330000E+03 0.  0.
<mgrwt>
<rscale>  0 0.12872392E+04</rscale>
<asrwt>0</asrwt>
<pdfrwt beam="1">  1        2 0.22938611E+00 0.12872392E+04</pdfrwt>
<pdfrwt beam="2">  1       -2 0.24762530E+00 0.12872392E+04</pdfrwt>
<totfact> 0.82085571E-01</totfact>
</mgrwt>
</event>
<event>
 4    1  0.2061941E-008  0.1106086E+04  0.7818608E-02  0.9199281E-01
         -2   -1    0    0    0  501 -0.00000000000E+00  0.00000000000E+00  0.12694102875E+04  0.12694102875E+04  0.25500000000E-02 0.  1.
          2   -1    0    0  501    0  0.00000000000E+00 -0.00000000000E+00 -0.11692360708E+04  0.11692360708E+04  0.25500000000E-02 0. -1.
    8880022    1    1    2    0    0 -0.97368538094E+03  0.50196693350E+03 -0.46104443935E+03  0.11983270219E+04  0.15294330000E+03 0. -1.
    8880022    1    1    2    0    0  0.97368538094E+03 -0.50196693350E+03  0.56121865607E+03  0.12403193364E+04  0.15294330000E+03 0.  0.
<mgrwt>
<rscale>  0 0.11060857E+04</rscale>
<asrwt>0</asrwt>
<pdfrwt beam="1">  1        2 0.17988247E+00 0.11060857E+04</pdfrwt>
<pdfrwt beam="2">  1       -2 0.19529389E+00 0.11060857E+04</pdfrwt>
<totfact> 0.27687019E+00</totfact>
</mgrwt>
</event>
<event>
 4    1  0.2061941E-008  0.4355824E+03  0.7818608E-02  0.1032111E+00
         -2   -1    0    0    0  501 -0.00000000000E+00  0.00000000000E+00  0.11297157103E+04  0.11297157103E+04  0.25500000000E-02 0.  1.
          2   -1    0    0  501    0  0.00000000000E+00 -0.00000000000E+00 -0.25611438065E+04  0.25611438065E+04  0.25500000000E-02 0. -1.
    8880022    1    1    2    0    0  0.16277720705E+02  0.40752353880E+03  0.10681829296E+04  0.11535800028E+04  0.15294330000E+03 0.  0.
    8880022    1    1    2    0    0 -0.16277720705E+02 -0.40752353880E+03 -0.24996110257E+04  0.25372795139E+04  0.15294330000E+03 0.  0.
<mgrwt>
<rscale>  0 0.43558243E+03</rscale>
<asrwt>0</asrwt>
<pdfrwt beam="1">  1        2 0.39402212E+00 0.43558243E+03</pdfrwt>
<pdfrwt beam="2">  1       -2 0.17380242E+00 0.43558243E+03</pdfrwt>
<totfact> 0.74547291E-01</totfact>
</mgrwt>
</event>
<event>
 4    1  0.2061941E-008  0.4944930E+03  0.7818608E-02  0.1015226E+00
         -2   -1    0    0    0  501 -0.00000000000E+00  0.00000000000E+00  0.11037416528E+04  0.11037416528E+04  0.25500000000E-02 0.  1.
          2   -1    0    0  501    0  0.00000000000E+00 -0.00000000000E+00 -0.96352566240E+03  0.96352566240E+03  0.25500000000E-02 0. -1.
    8880022    1    1    2    0    0  0.46978250178E+03  0.20882019894E+02 -0.83694498405E+03  0.97211121641E+03  0.15294330000E+03 0. -1.
    8880022    1    1    2    0    0 -0.46978250178E+03 -0.20882019894E+02  0.97716097443E+03  0.10951560988E+04  0.15294330000E+03 0.  0.
<mgrwt>
<rscale>  0 0.49449298E+03</rscale>
<asrwt>0</asrwt>
<pdfrwt beam="1">  1        2 0.14823472E+00 0.49449298E+03</pdfrwt>
<pdfrwt beam="2">  1       -2 0.16980641E+00 0.49449298E+03</pdfrwt>
<totfact> 0.60454122E+00</totfact>
</mgrwt>
</event>
<event>
 4    1  0.2061941E-008  0.6870184E+03  0.7818608E-02  0.9739694E-01
          2   -1    0    0  501    0  0.00000000000E+00  0.00000000000E+00  0.14373790180E+04  0.14373790181E+04  0.25500000000E-02 0. -1.
         -2   -1    0    0    0  501 -0.00000000000E+00 -0.00000000000E+00 -0.11590677481E+04  0.11590677481E+04  0.25500000000E-02 0.  1.
    8880022    1    1    2    0    0  0.50707660238E+03  0.43757968519E+03  0.12382023160E+04  0.14160294100E+04  0.15294330000E+03 0.  0.
    8880022    1    1    2    0    0 -0.50707660238E+03 -0.43757968519E+03 -0.95989104597E+03  0.11804173562E+04  0.15294330000E+03 0.  0.
<mgrwt>
<rscale>  0 0.68701842E+03</rscale>
<asrwt>0</asrwt>
<pdfrwt beam="1">  1        2 0.22113523E+00 0.68701842E+03</pdfrwt>
<pdfrwt beam="2">  1       -2 0.17831811E+00 0.68701842E+03</pdfrwt>
<totfact> 0.26671154E+00</totfact>
</mgrwt>
</event>
<event>
 4    1  0.2061941E-008  0.1586783E+04  0.7818608E-02  0.8828709E-01
         -2   -1    0    0    0  501 -0.00000000000E+00  0.00000000000E+00  0.16929999443E+04  0.16929999443E+04  0.25500000000E-02 0.  1.
          2   -1    0    0  501    0  0.00000000000E+00 -0.00000000000E+00 -0.22319273732E+04  0.22319273732E+04  0.25500000000E-02 0. -1.
    8880022    1    1    2    0    0  0.14513644408E+04  0.62292005648E+03  0.86411476893E+03  0.18068132509E+04  0.15294330000E+03 0.  0.
    8880022    1    1    2    0    0 -0.14513644408E+04 -0.62292005648E+03 -0.14030421978E+04  0.21181140665E+04  0.15294330000E+03 0.  0.
<mgrwt>
<rscale>  0 0.15867828E+04</rscale>
<asrwt>0</asrwt>
<pdfrwt beam="1">  1        2 0.34337344E+00 0.15867828E+04</pdfrwt>
<pdfrwt beam="2">  1       -2 0.26046153E+00 0.15867828E+04</pdfrwt>
<totfact> 0.25485523E-01</totfact>
</mgrwt>
</event>
<event>
 4    1  0.2061941E-008  0.8033486E+03  0.7818608E-02  0.9555183E-01
         -2   -1    0    0    0  501 -0.00000000000E+00  0.00000000000E+00  0.42026173876E+03  0.42026173877E+03  0.25500000000E-02 0.  1.
          2   -1    0    0  501    0  0.00000000000E+00 -0.00000000000E+00 -0.30885961122E+04  0.30885961122E+04  0.25500000000E-02 0. -1.
    8880022    1    1    2    0    0 -0.19021950698E+03  0.76537167039E+03 -0.90124110605E+02  0.80838806460E+03  0.15294330000E+03 0.  0.
    8880022    1    1    2    0    0  0.19021950698E+03 -0.76537167039E+03 -0.25782102628E+04  0.27004697863E+04  0.15294330000E+03 0.  0.
<mgrwt>
<rscale>  0 0.80334856E+03</rscale>
<asrwt>0</asrwt>
<pdfrwt beam="1">  1        2 0.47516862E+00 0.80334856E+03</pdfrwt>
<pdfrwt beam="2">  1       -2 0.64655654E-01 0.80334856E+03</pdfrwt>
<totfact> 0.35783862E+00</totfact>
</mgrwt>
</event>
<event>
 4    1  0.2061941E-008  0.1322309E+04  0.7818608E-02  0.9012059E-01
         -2   -1    0    0    0  501 -0.00000000000E+00  0.00000000000E+00  0.77980359851E+03  0.77980359852E+03  0.25500000000E-02 0.  1.
          2   -1    0    0  501    0  0.00000000000E+00 -0.00000000000E+00 -0.47746240326E+04  0.47746240326E+04  0.25500000000E-02 0. -1.
    8880022    1    1    2    0    0  0.11471443790E+04 -0.63966319782E+03 -0.40199876770E+04  0.42318792290E+04  0.15294330000E+03 0.  0.
    8880022    1    1    2    0    0 -0.11471443790E+04  0.63966319782E+03  0.25167242888E+02  0.13225484021E+04  0.15294330000E+03 0.  0.
<mgrwt>
<rscale>  0 0.13223089E+04</rscale>
<asrwt>0</asrwt>
<pdfrwt beam="1">  1        2 0.73455753E+00 0.13223089E+04</pdfrwt>
<pdfrwt beam="2">  1       -2 0.11996979E+00 0.13223089E+04</pdfrwt>
<totfact> 0.34250926E-02</totfact>
</mgrwt>
</event>
<event>
 4    1  0.2061941E-008  0.8255269E+03  0.7818608E-02  0.9523786E-01
         -2   -1    0    0    0  501 -0.00000000000E+00  0.00000000000E+00  0.59117648522E+03  0.59117648523E+03  0.25500000000E-02 0.  1.
          2   -1    0    0  501    0  0.00000000000E+00 -0.00000000000E+00 -0.22325046688E+04  0.22325046688E+04  0.25500000000E-02 0. -1.
    8880022    1    1    2    0    0 -0.45591475211E+03 -0.67100280336E+03  0.16118915319E+03  0.84111629364E+03  0.15294330000E+03 0.  0.
    8880022    1    1    2    0    0  0.45591475211E+03  0.67100280336E+03 -0.18025173368E+04  0.19825648604E+04  0.15294330000E+03 0.  0.
<mgrwt>
<rscale>  0 0.82552691E+03</rscale>
<asrwt>0</asrwt>
<pdfrwt beam="1">  1        2 0.34346225E+00 0.82552691E+03</pdfrwt>
<pdfrwt beam="2">  1       -2 0.90950230E-01 0.82552691E+03</pdfrwt>
<totfact> 0.52561829E+00</totfact>
</mgrwt>
</event>
<event>
 4    1  0.2061941E-008  0.7125976E+03  0.7818608E-02  0.9695928E-01
          2   -1    0    0  501    0  0.00000000000E+00  0.00000000000E+00  0.12423352638E+04  0.12423352638E+04  0.25500000000E-02 0. -1.
         -2   -1    0    0    0  501 -0.00000000000E+00 -0.00000000000E+00 -0.13946883344E+04  0.13946883344E+04  0.25500000000E-02 0.  1.
    8880022    1    1    2    0    0 -0.17254507363E+03 -0.67426397397E+03 -0.11847690445E+04  0.13825603245E+04  0.15294330000E+03 0.  0.
    8880022    1    1    2    0    0  0.17254507363E+03  0.67426397397E+03  0.10324159739E+04  0.12544632738E+04  0.15294330000E+03 0.  0.
<mgrwt>
<rscale>  0 0.71259762E+03</rscale>
<asrwt>0</asrwt>
<pdfrwt beam="1">  1        2 0.19112850E+00 0.71259762E+03</pdfrwt>
<pdfrwt beam="2">  1       -2 0.21456744E+00 0.71259762E+03</pdfrwt>
<totfact> 0.19836686E+00</totfact>
</mgrwt>
</event>
<event>
 4    1  0.2061941E-008  0.9648372E+03  0.7818608E-02  0.9347974E-01
          2   -1    0    0  501    0  0.00000000000E+00  0.00000000000E+00  0.29227855280E+04  0.29227855280E+04  0.25500000000E-02 0. -1.
         -2   -1    0    0    0  501 -0.00000000000E+00 -0.00000000000E+00 -0.38405713057E+03  0.38405713058E+03  0.25500000000E-02 0.  1.
    8880022    1    1    2    0    0 -0.58497191874E+03 -0.75188237752E+03  0.19524753490E+04  0.21778592463E+04  0.15294330000E+03 0.  0.
    8880022    1    1    2    0    0  0.58497191874E+03  0.75188237752E+03  0.58625304844E+03  0.11289834123E+04  0.15294330000E+03 0.  0.
<mgrwt>
<rscale>  0 0.96483724E+03</rscale>
<asrwt>0</asrwt>
<pdfrwt beam="1">  1        2 0.44965930E+00 0.96483724E+03</pdfrwt>
<pdfrwt beam="2">  1       -2 0.59085714E-01 0.96483724E+03</pdfrwt>
<totfact> 0.53393487E+00</totfact>
</mgrwt>
</event>
<event>
 4    1  0.2061941E-008  0.1306012E+04  0.7818608E-02  0.9024811E-01
          2   -1    0    0  501    0  0.00000000000E+00  0.00000000000E+00  0.17115571973E+04  0.17115571973E+04  0.25500000000E-02 0. -1.
         -2   -1    0    0    0  501 -0.00000000000E+00 -0.00000000000E+00 -0.11761348067E+04  0.11761348067E+04  0.25500000000E-02 0.  1.
    8880022    1    1    2    0    0 -0.11098648586E+04 -0.67117455292E+03  0.83189003758E+03  0.15484534131E+04  0.15294330000E+03 0.  0.
    8880022    1    1    2    0    0  0.11098648586E+04  0.67117455292E+03 -0.29646764704E+03  0.13392385910E+04  0.15294330000E+03 0.  0.
<mgrwt>
<rscale>  0 0.13060118E+04</rscale>
<asrwt>0</asrwt>
<pdfrwt beam="1">  1        2 0.26331649E+00 0.13060118E+04</pdfrwt>
<pdfrwt beam="2">  1       -2 0.18094382E+00 0.13060118E+04</pdfrwt>
<totfact> 0.16563486E+00</totfact>
</mgrwt>
</event>
<event>
 4    1  0.2061941E-008  0.4903201E+03  0.7818608E-02  0.1016337E+00
          2   -1    0    0  501    0  0.00000000000E+00  0.00000000000E+00  0.61337117798E+03  0.61337117798E+03  0.25500000000E-02 0. -1.
         -2   -1    0    0    0  501 -0.00000000000E+00 -0.00000000000E+00 -0.56519005370E+03  0.56519005371E+03  0.25500000000E-02 0.  1.
    8880022    1    1    2    0    0  0.10686720483E+03  0.45343306611E+03 -0.30215378579E+03  0.57594332029E+03  0.15294330000E+03 0.  0.
    8880022    1    1    2    0    0 -0.10686720483E+03 -0.45343306611E+03  0.35033491007E+03  0.60261791139E+03  0.15294330000E+03 0.  0.
<mgrwt>
<rscale>  0 0.49032010E+03</rscale>
<asrwt>0</asrwt>
<pdfrwt beam="1">  1        2 0.94364796E-01 0.49032010E+03</pdfrwt>
<pdfrwt beam="2">  1       -2 0.86952316E-01 0.49032010E+03</pdfrwt>
<totfact> 0.57154218E+01</totfact>
</mgrwt>
</event>
<event>
 4    1  0.2061941E-008  0.3394102E+03  0.7818608E-02  0.1067047E+00
          2   -1    0    0  501    0  0.00000000000E+00  0.00000000000E+00  0.13119314779E+04  0.13119314779E+04  0.25500000000E-02 0. -1.
         -2   -1    0    0    0  501 -0.00000000000E+00 -0.00000000000E+00 -0.96659393315E+03  0.96659393315E+03  0.25500000000E-02 0.  1.
    8880022    1    1    2    0    0 -0.29853272090E+01  0.30298298990E+03 -0.91361470679E+03  0.97462356314E+03  0.15294330000E+03 0.  0.
    8880022    1    1    2    0    0  0.29853272090E+01 -0.30298298990E+03  0.12589522516E+04  0.13039018480E+04  0.15294330000E+03 0. -1.
<mgrwt>
<rscale>  0 0.33941016E+03</rscale>
<asrwt>0</asrwt>
<pdfrwt beam="1">  1        2 0.20183561E+00 0.33941016E+03</pdfrwt>
<pdfrwt beam="2">  1       -2 0.14870676E+00 0.33941016E+03</pdfrwt>
<totfact> 0.55688962E+00</totfact>
</mgrwt>
</event>
<event>
 4    1  0.2061941E-008  0.4265621E+03  0.7818608E-02  0.1034951E+00
         -2   -1    0    0    0  501 -0.00000000000E+00  0.00000000000E+00  0.20670041938E+03  0.20670041940E+03  0.25500000000E-02 0.  1.
          2   -1    0    0  501    0  0.00000000000E+00 -0.00000000000E+00 -0.24164197667E+04  0.24164197667E+04  0.25500000000E-02 0. -1.
    8880022    1    1    2    0    0  0.14409997784E+03 -0.37121260888E+03 -0.21505827159E+04  0.21924783410E+04  0.15294330000E+03 0.  0.
    8880022    1    1    2    0    0 -0.14409997784E+03  0.37121260888E+03 -0.59136631415E+02  0.43064184515E+03  0.15294330000E+03 0.  1.
<mgrwt>
<rscale>  0 0.42656214E+03</rscale>
<asrwt>0</asrwt>
<pdfrwt beam="1">  1        2 0.37175687E+00 0.42656214E+03</pdfrwt>
<pdfrwt beam="2">  1       -2 0.31800066E-01 0.42656214E+03</pdfrwt>
<totfact> 0.39444065E+01</totfact>
</mgrwt>
</event>
<event>
 4    1  0.2249036E-008  0.1144276E+04  0.7818608E-02  0.9163080E-01
         -2   -1    0    0    0  501 -0.00000000000E+00  0.00000000000E+00  0.19284784252E+04  0.19284784252E+04  0.25500000000E-02 0.  1.
          2   -1    0    0  501    0  0.00000000000E+00 -0.00000000000E+00 -0.18830176313E+04  0.18830176313E+04  0.25500000000E-02 0. -1.
    8880022    1    1    2    0    0 -0.97481286915E+03  0.57940980795E+03  0.15466469765E+04  0.19239242132E+04  0.15294330000E+03 0.  0.
    8880022    1    1    2    0    0  0.97481286915E+03 -0.57940980795E+03 -0.15011861826E+04  0.18875718432E+04  0.15294330000E+03 0.  0.
<mgrwt>
<rscale>  0 0.11442760E+04</rscale>
<asrwt>0</asrwt>
<pdfrwt beam="1">  1        2 0.28969502E+00 0.11442760E+04</pdfrwt>
<pdfrwt beam="2">  1       -2 0.29668899E+00 0.11442760E+04</pdfrwt>
<totfact> 0.25438298E-01</totfact>
</mgrwt>
</event>
<event>
 4    1  0.2061941E-008  0.2705937E+03  0.7818608E-02  0.1100940E+00
          2   -1    0    0  501    0  0.00000000000E+00  0.00000000000E+00  0.22676632563E+04  0.22676632563E+04  0.25500000000E-02 0. -1.
         -2   -1    0    0    0  501 -0.00000000000E+00 -0.00000000000E+00 -0.20704715192E+03  0.20704715193E+03  0.25500000000E-02 0.  1.
    8880022    1    1    2    0    0  0.74118505504E+02 -0.21056051740E+03 -0.10647681607E+03  0.29078901238E+03  0.15294330000E+03 0.  0.
    8880022    1    1    2    0    0 -0.74118505504E+02  0.21056051740E+03  0.21670929204E+04  0.21839213958E+04  0.15294330000E+03 0. -1.
<mgrwt>
<rscale>  0 0.27059368E+03</rscale>
<asrwt>0</asrwt>
<pdfrwt beam="1">  1        2 0.34887128E+00 0.27059368E+03</pdfrwt>
<pdfrwt beam="2">  1       -2 0.31853407E-01 0.27059368E+03</pdfrwt>
<totfact> 0.49632378E+01</totfact>
</mgrwt>
</event>
<event>
 4    1  0.2061941E-008  0.1646056E+04  0.7818608E-02  0.8792743E-01
         -2   -1    0    0    0  501 -0.00000000000E+00  0.00000000000E+00  0.27803776614E+04  0.27803776614E+04  0.25500000000E-02 0.  1.
          2   -1    0    0  501    0  0.00000000000E+00 -0.00000000000E+00 -0.11855179589E+04  0.11855179589E+04  0.25500000000E-02 0. -1.
    8880022    1    1    2    0    0 -0.16341230237E+04 -0.12550110703E+03 -0.39152513659E+02  0.16465215324E+04  0.15294330000E+03 0.  0.
    8880022    1    1    2    0    0  0.16341230237E+04  0.12550110703E+03  0.16340122161E+04  0.23193740879E+04  0.15294330000E+03 0.  0.
<mgrwt>
<rscale>  0 0.16460560E+04</rscale>
<asrwt>0</asrwt>
<pdfrwt beam="1">  1        2 0.18238738E+00 0.16460560E+04</pdfrwt>
<pdfrwt beam="2">  1       -2 0.42775041E+00 0.16460560E+04</pdfrwt>
<totfact> 0.87610408E-02</totfact>
</mgrwt>
</event>
<event>
 4    1  0.2061941E-008  0.8319218E+03  0.7818608E-02  0.9514927E-01
          2   -1    0    0  501    0  0.00000000000E+00  0.00000000000E+00  0.16974968028E+04  0.16974968028E+04  0.25500000000E-02 0. -1.
         -2   -1    0    0    0  501 -0.00000000000E+00 -0.00000000000E+00 -0.58458236661E+03  0.58458236662E+03  0.25500000000E-02 0.  1.
    8880022    1    1    2    0    0  0.15131281738E+03 -0.80362098354E+03  0.11840853985E+04  0.14471185638E+04  0.15294330000E+03 0.  0.
    8880022    1    1    2    0    0 -0.15131281738E+03  0.80362098354E+03 -0.71170962352E+02  0.83496060553E+03  0.15294330000E+03 0.  0.
<mgrwt>
<rscale>  0 0.83192182E+03</rscale>
<asrwt>0</asrwt>
<pdfrwt beam="1">  1        2 0.26115335E+00 0.83192182E+03</pdfrwt>
<pdfrwt beam="2">  1       -2 0.89935749E-01 0.83192182E+03</pdfrwt>
<totfact> 0.10594862E+01</totfact>
</mgrwt>
</event>
<event>
 4    1  0.2061941E-008  0.4616346E+03  0.7818608E-02  0.1024308E+00
          2   -1    0    0  501    0  0.00000000000E+00  0.00000000000E+00  0.87193121582E+03  0.87193121583E+03  0.25500000000E-02 0. -1.
         -2   -1    0    0    0  501 -0.00000000000E+00 -0.00000000000E+00 -0.75695911255E+03  0.75695911255E+03  0.25500000000E-02 0.  1.
    8880022    1    1    2    0    0  0.31756678824E+03  0.29810429132E+03  0.72767067744E+03  0.86174886209E+03  0.15294330000E+03 0.  0.
    8880022    1    1    2    0    0 -0.31756678824E+03 -0.29810429132E+03 -0.61269857417E+03  0.76714146629E+03  0.15294330000E+03 0.  0.
<mgrwt>
<rscale>  0 0.46163458E+03</rscale>
<asrwt>0</asrwt>
<pdfrwt beam="1">  1        2 0.13414326E+00 0.46163458E+03</pdfrwt>
<pdfrwt beam="2">  1       -2 0.11645525E+00 0.46163458E+03</pdfrwt>
<totfact> 0.18468796E+01</totfact>
</mgrwt>
</event>
<event>
 4    1  0.2061941E-008  0.6505003E+03  0.7818608E-02  0.9805841E-01
         -2   -1    0    0    0  501 -0.00000000000E+00  0.00000000000E+00  0.63697384823E+03  0.63697384824E+03  0.25500000000E-02 0.  1.
          2   -1    0    0  501    0  0.00000000000E+00 -0.00000000000E+00 -0.15009844840E+04  0.15009844840E+04  0.25500000000E-02 0. -1.
    8880022    1    1    2    0    0 -0.43207990086E+03  0.46159070621E+03 -0.12301072314E+04  0.13915151722E+04  0.15294330000E+03 0.  0.
    8880022    1    1    2    0    0  0.43207990086E+03 -0.46159070621E+03  0.36609659563E+03  0.74644316001E+03  0.15294330000E+03 0.  0.
<mgrwt>
<rscale>  0 0.65050033E+03</rscale>
<asrwt>0</asrwt>
<pdfrwt beam="1">  1        2 0.23092069E+00 0.65050033E+03</pdfrwt>
<pdfrwt beam="2">  1       -2 0.97995977E-01 0.65050033E+03</pdfrwt>
<totfact> 0.11416964E+01</totfact>
</mgrwt>
</event>
<event>
 4    1  0.2061941E-008  0.4167332E+03  0.7818608E-02  0.1038135E+00
         -2   -1    0    0    0  501 -0.00000000000E+00  0.00000000000E+00  0.17195613733E+03  0.17195613735E+03  0.25500000000E-02 0.  1.
          2   -1    0    0  501    0  0.00000000000E+00 -0.00000000000E+00 -0.11898038749E+04  0.11898038749E+04  0.25500000000E-02 0. -1.
    8880022    1    1    2    0    0  0.37690641100E+03  0.90644866112E+02 -0.24419799117E+03  0.48301060683E+03  0.15294330000E+03 0.  1.
    8880022    1    1    2    0    0 -0.37690641100E+03 -0.90644866112E+02 -0.77364974641E+03  0.87874940543E+03  0.15294330000E+03 0.  0.
<mgrwt>
<rscale>  0 0.41673323E+03</rscale>
<asrwt>0</asrwt>
<pdfrwt beam="1">  1        2 0.18304674E+00 0.41673323E+03</pdfrwt>
<pdfrwt beam="2">  1       -2 0.26454791E-01 0.41673323E+03</pdfrwt>
<totfact> 0.25759922E+02</totfact>
</mgrwt>
</event>
<event>
 4    1  0.2061941E-008  0.6343201E+03  0.7818608E-02  0.9836655E-01
          2   -1    0    0  501    0  0.00000000000E+00  0.00000000000E+00  0.15209328748E+04  0.15209328748E+04  0.25500000000E-02 0. -1.
         -2   -1    0    0    0  501 -0.00000000000E+00 -0.00000000000E+00 -0.66470423617E+03  0.66470423618E+03  0.25500000000E-02 0.  1.
    8880022    1    1    2    0    0  0.30844935259E+03 -0.53275631848E+03  0.12760205893E+04  0.14249878930E+04  0.15294330000E+03 0.  0.
    8880022    1    1    2    0    0 -0.30844935259E+03  0.53275631848E+03 -0.41979195062E+03  0.76064921798E+03  0.15294330000E+03 0.  0.
<mgrwt>
<rscale>  0 0.63432007E+03</rscale>
<asrwt>0</asrwt>
<pdfrwt beam="1">  1        2 0.23398968E+00 0.63432007E+03</pdfrwt>
<pdfrwt beam="2">  1       -2 0.10226219E+00 0.63432007E+03</pdfrwt>
<totfact> 0.10088944E+01</totfact>
</mgrwt>
</event>
<event>
 4    1  0.2061941E-008  0.6068724E+03  0.7818608E-02  0.9891250E-01
          2   -1    0    0  501    0  0.00000000000E+00  0.00000000000E+00  0.58142057715E+03  0.58142057716E+03  0.25500000000E-02 0. -1.
         -2   -1    0    0    0  501 -0.00000000000E+00 -0.00000000000E+00 -0.92193909885E+03  0.92193909885E+03  0.25500000000E-02 0.  1.
    8880022    1    1    2    0    0 -0.15199860576E+03 -0.56727323799E+03  0.25023025647E+03  0.65643684918E+03  0.15294330000E+03 0.  0.
    8880022    1    1    2    0    0  0.15199860576E+03  0.56727323799E+03 -0.59074877816E+03  0.84692282683E+03  0.15294330000E+03 0.  0.
<mgrwt>
<rscale>  0 0.60687244E+03</rscale>
<asrwt>0</asrwt>
<pdfrwt beam="1">  1        2 0.89449320E-01 0.60687244E+03</pdfrwt>
<pdfrwt beam="2">  1       -2 0.14183678E+00 0.60687244E+03</pdfrwt>
<totfact> 0.18396724E+01</totfact>
</mgrwt>
</event>
<event>
 4    1  0.2061941E-008  0.3733688E+03  0.7818608E-02  0.1053412E+00
         -2   -1    0    0    0  501 -0.00000000000E+00  0.00000000000E+00  0.22007103289E+03  0.22007103291E+03  0.25500000000E-02 0.  1.
          2   -1    0    0  501    0  0.00000000000E+00 -0.00000000000E+00 -0.26504234862E+04  0.26504234862E+04  0.25500000000E-02 0. -1.
    8880022    1    1    2    0    0  0.34051882238E+03  0.77149130364E+01  0.36866256492E+02  0.37518443752E+03  0.15294330000E+03 0.  1.
    8880022    1    1    2    0    0 -0.34051882238E+03 -0.77149130364E+01 -0.24672187098E+04  0.24953100816E+04  0.15294330000E+03 0.  0.
<mgrwt>
<rscale>  0 0.37336877E+03</rscale>
<asrwt>0</asrwt>
<pdfrwt beam="1">  1        2 0.40775744E+00 0.37336877E+03</pdfrwt>
<pdfrwt beam="2">  1       -2 0.33857084E-01 0.37336877E+03</pdfrwt>
<totfact> 0.26370736E+01</totfact>
</mgrwt>
</event>
<event>
 4    1  0.2061941E-008  0.1932605E+04  0.7818608E-02  0.8638795E-01
         -2   -1    0    0    0  501 -0.00000000000E+00  0.00000000000E+00  0.19503315713E+04  0.19503315713E+04  0.25500000000E-02 0.  1.
          2   -1    0    0  501    0  0.00000000000E+00 -0.00000000000E+00 -0.20506580887E+04  0.20506580887E+04  0.25500000000E-02 0. -1.
    8880022    1    1    2    0    0 -0.12985946242E+04  0.14231029645E+04  0.46429561340E+03  0.19875945550E+04  0.15294330000E+03 0.  0.
    8880022    1    1    2    0    0  0.12985946242E+04 -0.14231029645E+04 -0.56462213074E+03  0.20133951050E+04  0.15294330000E+03 0.  0.
<mgrwt>
<rscale>  0 0.19326049E+04</rscale>
<asrwt>0</asrwt>
<pdfrwt beam="1">  1        2 0.31548586E+00 0.19326049E+04</pdfrwt>
<pdfrwt beam="2">  1       -2 0.30005101E+00 0.19326049E+04</pdfrwt>
<totfact> 0.17815093E-01</totfact>
</mgrwt>
</event>
<event>
 4    1  0.2061941E-008  0.7892341E+03  0.7818608E-02  0.9575732E-01
         -2   -1    0    0    0  501 -0.00000000000E+00  0.00000000000E+00  0.61453387453E+03  0.61453387454E+03  0.25500000000E-02 0.  1.
          2   -1    0    0  501    0  0.00000000000E+00 -0.00000000000E+00 -0.19787247200E+04  0.19787247200E+04  0.25500000000E-02 0. -1.
    8880022    1    1    2    0    0 -0.76063005989E+03  0.14470928128E+03 -0.15876512571E+04  0.17729994448E+04  0.15294330000E+03 0.  0.
    8880022    1    1    2    0    0  0.76063005989E+03 -0.14470928128E+03  0.22346041165E+03  0.82025914971E+03  0.15294330000E+03 0.  0.
<mgrwt>
<rscale>  0 0.78923413E+03</rscale>
<asrwt>0</asrwt>
<pdfrwt beam="1">  1        2 0.30441919E+00 0.78923413E+03</pdfrwt>
<pdfrwt beam="2">  1       -2 0.94543674E-01 0.78923413E+03</pdfrwt>
<totfact> 0.66594767E+00</totfact>
</mgrwt>
</event>
<event>
 4    1  0.2061941E-008  0.2270278E+03  0.7818608E-02  0.1128749E+00
          2   -1    0    0  501    0  0.00000000000E+00  0.00000000000E+00  0.18937917275E+04  0.18937917275E+04  0.25500000000E-02 0. -1.
         -2   -1    0    0    0  501 -0.00000000000E+00 -0.00000000000E+00 -0.57631387129E+02  0.57631387185E+02  0.25500000000E-02 0.  1.
    8880022    1    1    2    0    0  0.11824735802E+03 -0.11902747608E+03  0.16269032528E+04  0.16426672897E+04  0.15294330000E+03 0.  0.
    8880022    1    1    2    0    0 -0.11824735802E+03  0.11902747608E+03  0.20925708761E+03  0.30875582500E+03  0.15294330000E+03 0.  1.
<mgrwt>
<rscale>  0 0.22702782E+03</rscale>
<asrwt>0</asrwt>
<pdfrwt beam="1">  1        2 0.29135260E+00 0.22702782E+03</pdfrwt>
<pdfrwt beam="2">  1       -2 0.88663665E-02 0.22702782E+03</pdfrwt>
<totfact> 0.68469785E+02</totfact>
</mgrwt>
</event>
<event>
 4    1  0.2061941E-008  0.6081984E+03  0.7818608E-02  0.9888541E-01
          2   -1    0    0  501    0  0.00000000000E+00  0.00000000000E+00  0.48464386187E+03  0.48464386188E+03  0.25500000000E-02 0. -1.
         -2   -1    0    0    0  501 -0.00000000000E+00 -0.00000000000E+00 -0.14785860082E+04  0.14785860082E+04  0.25500000000E-02 0.  1.
    8880022    1    1    2    0    0  0.34514257316E+03  0.47685456515E+03  0.18579564436E+03  0.63594445244E+03  0.15294330000E+03 0.  0.
    8880022    1    1    2    0    0 -0.34514257316E+03 -0.47685456515E+03 -0.11797377907E+04  0.13272854177E+04  0.15294330000E+03 0.  0.
<mgrwt>
<rscale>  0 0.60819843E+03</rscale>
<asrwt>0</asrwt>
<pdfrwt beam="1">  1        2 0.74560595E-01 0.60819843E+03</pdfrwt>
<pdfrwt beam="2">  1       -2 0.22747477E+00 0.60819843E+03</pdfrwt>
<totfact> 0.59114316E+00</totfact>
</mgrwt>
</event>
<event>
 4    1  0.2061941E-008  0.5836033E+03  0.7818608E-02  0.9940020E-01
          2   -1    0    0  501    0  0.00000000000E+00  0.00000000000E+00  0.20323941972E+04  0.20323941972E+04  0.25500000000E-02 0. -1.
         -2   -1    0    0    0  501 -0.00000000000E+00 -0.00000000000E+00 -0.67852018316E+03  0.67852018317E+03  0.25500000000E-02 0.  1.
    8880022    1    1    2    0    0 -0.47875471264E+03  0.29663959363E+03  0.18531570641E+04  0.19428803053E+04  0.15294330000E+03 0.  0.
    8880022    1    1    2    0    0  0.47875471264E+03 -0.29663959363E+03 -0.49928305007E+03  0.76803407508E+03  0.15294330000E+03 0.  0.
<mgrwt>
<rscale>  0 0.58360327E+03</rscale>
<asrwt>0</asrwt>
<pdfrwt beam="1">  1        2 0.31267602E+00 0.58360327E+03</pdfrwt>
<pdfrwt beam="2">  1       -2 0.10438772E+00 0.58360327E+03</pdfrwt>
<totfact> 0.51129403E+00</totfact>
</mgrwt>
</event>
<event>
 4    1  0.2061941E-008  0.6544858E+03  0.7818608E-02  0.9798398E-01
          2   -1    0    0  501    0  0.00000000000E+00  0.00000000000E+00  0.13145853199E+04  0.13145853199E+04  0.25500000000E-02 0. -1.
         -2   -1    0    0    0  501 -0.00000000000E+00 -0.00000000000E+00 -0.60760996257E+03  0.60760996258E+03  0.25500000000E-02 0.  1.
    8880022    1    1    2    0    0 -0.59568342966E+03  0.22387775931E+03 -0.30099508128E+03  0.72038162904E+03  0.15294330000E+03 0.  0.
    8880022    1    1    2    0    0  0.59568342966E+03 -0.22387775931E+03  0.10079704386E+04  0.12018136535E+04  0.15294330000E+03 0.  0.
<mgrwt>
<rscale>  0 0.65448579E+03</rscale>
<asrwt>0</asrwt>
<pdfrwt beam="1">  1        2 0.20224389E+00 0.65448579E+03</pdfrwt>
<pdfrwt beam="2">  1       -2 0.93478457E-01 0.65448579E+03</pdfrwt>
<totfact> 0.16217914E+01</totfact>
</mgrwt>
</event>
<event>
 4    1  0.2061941E-008  0.1753008E+04  0.7818608E-02  0.8731696E-01
         -2   -1    0    0    0  501 -0.00000000000E+00  0.00000000000E+00  0.87287011448E+03  0.87287011448E+03  0.25500000000E-02 0.  1.
          2   -1    0    0  501    0  0.00000000000E+00 -0.00000000000E+00 -0.37161656804E+04  0.37161656804E+04  0.25500000000E-02 0. -1.
    8880022    1    1    2    0    0 -0.96589673947E+03 -0.14548841544E+04 -0.89529357594E+03  0.19683969758E+04  0.15294330000E+03 0.  0.
    8880022    1    1    2    0    0  0.96589673947E+03  0.14548841544E+04 -0.19480019900E+04  0.26206388191E+04  0.15294330000E+03 0.  0.
<mgrwt>
<rscale>  0 0.17530077E+04</rscale>
<asrwt>0</asrwt>
<pdfrwt beam="1">  1        2 0.57171779E+00 0.17530077E+04</pdfrwt>
<pdfrwt beam="2">  1       -2 0.13428771E+00 0.17530077E+04</pdfrwt>
<totfact> 0.21124374E-01</totfact>
</mgrwt>
</event>
<event>
 4    1  0.2061941E-008  0.9237231E+03  0.7818608E-02  0.9396403E-01
          2   -1    0    0  501    0  0.00000000000E+00  0.00000000000E+00  0.10998557068E+04  0.10998557068E+04  0.25500000000E-02 0. -1.
         -2   -1    0    0    0  501 -0.00000000000E+00 -0.00000000000E+00 -0.20327587381E+04  0.20327587381E+04  0.25500000000E-02 0.  1.
    8880022    1    1    2    0    0  0.80559386172E+03  0.42531305465E+03  0.76522065958E+03  0.11995111402E+04  0.15294330000E+03 0. -1.
    8880022    1    1    2    0    0 -0.80559386172E+03 -0.42531305465E+03 -0.16981236908E+04  0.19331033048E+04  0.15294330000E+03 0.  0.
<mgrwt>
<rscale>  0 0.92372307E+03</rscale>
<asrwt>0</asrwt>
<pdfrwt beam="1">  1        2 0.16920857E+00 0.92372307E+03</pdfrwt>
<pdfrwt beam="2">  1       -2 0.31273211E+00 0.92372307E+03</pdfrwt>
<totfact> 0.58890890E-01</totfact>
</mgrwt>
</event>
<event>
 4    1  0.2061941E-008  0.5655221E+03  0.7818608E-02  0.9979637E-01
         -2   -1    0    0    0  501 -0.00000000000E+00  0.00000000000E+00  0.15038913280E+04  0.15038913280E+04  0.25500000000E-02 0.  1.
          2   -1    0    0  501    0  0.00000000000E+00 -0.00000000000E+00 -0.15346750462E+04  0.15346750462E+04  0.25500000000E-02 0. -1.
    8880022    1    1    2    0    0  0.54444709526E+03  0.96692271158E+00  0.13947050690E+04  0.15049974940E+04  0.15294330000E+03 0.  0.
    8880022    1    1    2    0    0 -0.54444709526E+03 -0.96692271158E+00 -0.14254887873E+04  0.15335688801E+04  0.15294330000E+03 0.  0.
<mgrwt>
<rscale>  0 0.56552208E+03</rscale>
<asrwt>0</asrwt>
<pdfrwt beam="1">  1        2 0.23610385E+00 0.56552208E+03</pdfrwt>
<pdfrwt beam="2">  1       -2 0.23136790E+00 0.56552208E+03</pdfrwt>
<totfact> 0.11018201E+00</totfact>
</mgrwt>
</event>
<event>
 4    1  0.2061941E-008  0.6990917E+03  0.7818608E-02  0.9718787E-01
          2   -1    0    0  501    0  0.00000000000E+00  0.00000000000E+00  0.23881531119E+04  0.23881531119E+04  0.25500000000E-02 0. -1.
         -2   -1    0    0    0  501 -0.00000000000E+00 -0.00000000000E+00 -0.48976842459E+03  0.48976842460E+03  0.25500000000E-02 0.  1.
    8880022    1    1    2    0    0  0.27869912405E+03 -0.62262702518E+03  0.20471060381E+04  0.21631857060E+04  0.15294330000E+03 0.  0.
    8880022    1    1    2    0    0 -0.27869912405E+03  0.62262702518E+03 -0.14872135081E+03  0.71473583052E+03  0.15294330000E+03 0.  1.
<mgrwt>
<rscale>  0 0.69909174E+03</rscale>
<asrwt>0</asrwt>
<pdfrwt beam="1">  1        2 0.36740817E+00 0.69909174E+03</pdfrwt>
<pdfrwt beam="2">  1       -2 0.75348989E-01 0.69909174E+03</pdfrwt>
<totfact> 0.67371994E+00</totfact>
</mgrwt>
</event>
<event>
 4    1  0.2061941E-008  0.1181170E+04  0.7818608E-02  0.9129500E-01
          2   -1    0    0  501    0  0.00000000000E+00  0.00000000000E+00  0.99695322367E+03  0.99695322367E+03  0.25500000000E-02 0. -1.
         -2   -1    0    0    0  501 -0.00000000000E+00 -0.00000000000E+00 -0.23382032880E+04  0.23382032880E+04  0.25500000000E-02 0.  1.
    8880022    1    1    2    0    0 -0.27090157896E+02  0.11709130458E+04 -0.17272630470E+04  0.20925105792E+04  0.15294330000E+03 0.  0.
    8880022    1    1    2    0    0  0.27090157896E+02 -0.11709130458E+04  0.38601298274E+03  0.12426459324E+04  0.15294330000E+03 0.  0.
<mgrwt>
<rscale>  0 0.11811701E+04</rscale>
<asrwt>0</asrwt>
<pdfrwt beam="1">  1        2 0.15337742E+00 0.11811701E+04</pdfrwt>
<pdfrwt beam="2">  1       -2 0.35972358E+00 0.11811701E+04</pdfrwt>
<totfact> 0.33688416E-01</totfact>
</mgrwt>
</event>
<event>
 4    1  0.2061941E-008  0.6897542E+03  0.7818608E-02  0.9734916E-01
          2   -1    0    0  501    0  0.00000000000E+00  0.00000000000E+00  0.33483993428E+04  0.33483993428E+04  0.25500000000E-02 0. -1.
         -2   -1    0    0    0  501 -0.00000000000E+00 -0.00000000000E+00 -0.24687665919E+03  0.24687665920E+03  0.25500000000E-02 0.  1.
    8880022    1    1    2    0    0  0.62880106358E+03 -0.23870143170E+03  0.37958193636E+03  0.78730124506E+03  0.15294330000E+03 0.  0.
    8880022    1    1    2    0    0 -0.62880106358E+03  0.23870143170E+03  0.27219407472E+04  0.28079747569E+04  0.15294330000E+03 0.  0.
<mgrwt>
<rscale>  0 0.68975416E+03</rscale>
<asrwt>0</asrwt>
<pdfrwt beam="1">  1        2 0.51513833E+00 0.68975416E+03</pdfrwt>
<pdfrwt beam="2">  1       -2 0.37981027E-01 0.68975416E+03</pdfrwt>
<totfact> 0.73684593E+00</totfact>
</mgrwt>
</event>
<event>
 4    1  0.2061941E-008  0.9366774E+03  0.7818608E-02  0.9380860E-01
         -2   -1    0    0    0  501 -0.00000000000E+00  0.00000000000E+00  0.26123301492E+04  0.26123301492E+04  0.25500000000E-02 0.  1.
          2   -1    0    0  501    0  0.00000000000E+00 -0.00000000000E+00 -0.36923470589E+03  0.36923470590E+03  0.25500000000E-02 0. -1.
    8880022    1    1    2    0    0 -0.70188009691E+03  0.60111339982E+03  0.67331556158E+03  0.11535677216E+04  0.15294330000E+03 0.  0.
    8880022    1    1    2    0    0  0.70188009691E+03 -0.60111339982E+03  0.15697798817E+04  0.18279971334E+04  0.15294330000E+03 0.  0.
<mgrwt>
<rscale>  0 0.93667745E+03</rscale>
<asrwt>0</asrwt>
<pdfrwt beam="1">  1        2 0.56805338E-01 0.93667745E+03</pdfrwt>
<pdfrwt beam="2">  1       -2 0.40189696E+00 0.93667745E+03</pdfrwt>
<totfact> 0.64721814E-01</totfact>
</mgrwt>
</event>
<event>
 4    1  0.2061941E-008  0.1062833E+04  0.7818608E-02  0.9242194E-01
         -2   -1    0    0    0  501 -0.00000000000E+00  0.00000000000E+00  0.14469196806E+04  0.14469196806E+04  0.25500000000E-02 0.  1.
          2   -1    0    0  501    0  0.00000000000E+00 -0.00000000000E+00 -0.88595233661E+03  0.88595233662E+03  0.25500000000E-02 0. -1.
    8880022    1    1    2    0    0 -0.10777559470E+03 -0.10462349160E+04  0.68251985705E+03  0.12631104808E+04  0.15294330000E+03 0.  0.
    8880022    1    1    2    0    0  0.10777559470E+03  0.10462349160E+04 -0.12155251309E+03  0.10697615364E+04  0.15294330000E+03 0.  0.
<mgrwt>
<rscale>  0 0.10628334E+04</rscale>
<asrwt>0</asrwt>
<pdfrwt beam="1">  1        2 0.13630036E+00 0.10628334E+04</pdfrwt>
<pdfrwt beam="2">  1       -2 0.22260303E+00 0.10628334E+04</pdfrwt>
<totfact> 0.28163670E+00</totfact>
</mgrwt>
</event>
<event>
 4    1  0.2061941E-008  0.4642096E+03  0.7818608E-02  0.1023567E+00
         -2   -1    0    0    0  501 -0.00000000000E+00  0.00000000000E+00  0.51230931277E+03  0.51230931278E+03  0.25500000000E-02 0.  1.
          2   -1    0    0  501    0  0.00000000000E+00 -0.00000000000E+00 -0.88803666096E+03  0.88803666096E+03  0.25500000000E-02 0. -1.
    8880022    1    1    2    0    0 -0.41620729322E+03 -0.13736951667E+03  0.32010774000E+03  0.56387898813E+03  0.15294330000E+03 0.  0.
    8880022    1    1    2    0    0  0.41620729322E+03  0.13736951667E+03 -0.69583508818E+03  0.83646698560E+03  0.15294330000E+03 0. -1.
<mgrwt>
<rscale>  0 0.46420959E+03</rscale>
<asrwt>0</asrwt>
<pdfrwt beam="1">  1        2 0.13662102E+00 0.46420959E+03</pdfrwt>
<pdfrwt beam="2">  1       -2 0.78816817E-01 0.46420959E+03</pdfrwt>
<totfact> 0.44675322E+01</totfact>
</mgrwt>
</event>
<event>
 4    1  0.2061941E-008  0.1776413E+04  0.7818608E-02  0.8718945E-01
          2   -1    0    0  501    0  0.00000000000E+00  0.00000000000E+00  0.33570935687E+04  0.33570935687E+04  0.25500000000E-02 0. -1.
         -2   -1    0    0    0  501 -0.00000000000E+00 -0.00000000000E+00 -0.10743488310E+04  0.10743488310E+04  0.25500000000E-02 0.  1.
    8880022    1    1    2    0    0  0.90471941921E+03  0.15210958846E+04  0.35781264655E+03  0.18120903566E+04  0.15294330000E+03 0.  0.
    8880022    1    1    2    0    0 -0.90471941921E+03 -0.15210958846E+04  0.19249320911E+04  0.26193520431E+04  0.15294330000E+03 0.  0.
<mgrwt>
<rscale>  0 0.17764126E+04</rscale>
<asrwt>0</asrwt>
<pdfrwt beam="1">  1        2 0.51647593E+00 0.17764126E+04</pdfrwt>
<pdfrwt beam="2">  1       -2 0.16528444E+00 0.17764126E+04</pdfrwt>
<totfact> 0.21607825E-01</totfact>
</mgrwt>
</event>
<event>
 4    1  0.2061941E-008  0.9401722E+03  0.7818608E-02  0.9376712E-01
         -2   -1    0    0    0  501 -0.00000000000E+00  0.00000000000E+00  0.75902741603E+03  0.75902741603E+03  0.25500000000E-02 0.  1.
          2   -1    0    0  501    0  0.00000000000E+00 -0.00000000000E+00 -0.22711251605E+04  0.22711251605E+04  0.25500000000E-02 0. -1.
    8880022    1    1    2    0    0  0.32790648552E+03 -0.86776116883E+03 -0.18136084510E+04  0.20428165302E+04  0.15294330000E+03 0.  0.
    8880022    1    1    2    0    0 -0.32790648552E+03  0.86776116883E+03  0.30151070650E+03  0.98733604640E+03  0.15294330000E+03 0.  0.
<mgrwt>
<rscale>  0 0.94017220E+03</rscale>
<asrwt>0</asrwt>
<pdfrwt beam="1">  1        2 0.34940387E+00 0.94017220E+03</pdfrwt>
<pdfrwt beam="2">  1       -2 0.11677345E+00 0.94017220E+03</pdfrwt>
<totfact> 0.27054032E+00</totfact>
</mgrwt>
</event>
<event>
 4    1  0.2061941E-008  0.1813800E+04  0.7818608E-02  0.8698995E-01
         -2   -1    0    0    0  501 -0.00000000000E+00  0.00000000000E+00  0.10458510456E+04  0.10458510456E+04  0.25500000000E-02 0.  1.
          2   -1    0    0  501    0  0.00000000000E+00 -0.00000000000E+00 -0.32647682155E+04  0.32647682155E+04  0.25500000000E-02 0. -1.
    8880022    1    1    2    0    0 -0.17893036524E+04 -0.25469762860E+03 -0.69774785721E+03  0.19433790592E+04  0.15294330000E+03 0.  0.
    8880022    1    1    2    0    0  0.17893036524E+04  0.25469762860E+03 -0.15211693127E+04  0.23672402019E+04  0.15294330000E+03 0.  0.
<mgrwt>
<rscale>  0 0.18137999E+04</rscale>
<asrwt>0</asrwt>
<pdfrwt beam="1">  1        2 0.50227203E+00 0.18137999E+04</pdfrwt>
<pdfrwt beam="2">  1       -2 0.16090016E+00 0.18137999E+04</pdfrwt>
<totfact> 0.26725179E-01</totfact>
</mgrwt>
</event>
<event>
 4    1  0.2061941E-008  0.8441174E+03  0.7818608E-02  0.9498267E-01
         -2   -1    0    0    0  501 -0.00000000000E+00  0.00000000000E+00  0.48349769266E+03  0.48349769267E+03  0.25500000000E-02 0.  1.
          2   -1    0    0  501    0  0.00000000000E+00 -0.00000000000E+00 -0.23506561809E+04  0.23506561809E+04  0.25500000000E-02 0. -1.
    8880022    1    1    2    0    0 -0.69712741437E+03 -0.45072812068E+03 -0.68041541475E+02  0.84685522672E+03  0.15294330000E+03 0.  0.
    8880022    1    1    2    0    0  0.69712741437E+03  0.45072812068E+03 -0.17991169467E+04  0.19872986468E+04  0.15294330000E+03 0.  0.
<mgrwt>
<rscale>  0 0.84411736E+03</rscale>
<asrwt>0</asrwt>
<pdfrwt beam="1">  1        2 0.36163941E+00 0.84411736E+03</pdfrwt>
<pdfrwt beam="2">  1       -2 0.74384262E-01 0.84411736E+03</pdfrwt>
<totfact> 0.71032252E+00</totfact>
</mgrwt>
</event>
<event>
 4    1  0.2061941E-008  0.9058441E+03  0.7818608E-02  0.9418305E-01
         -2   -1    0    0    0  501 -0.00000000000E+00  0.00000000000E+00  0.13340657127E+04  0.13340657127E+04  0.25500000000E-02 0.  1.
          2   -1    0    0  501    0  0.00000000000E+00 -0.00000000000E+00 -0.99910767050E+03  0.99910767051E+03  0.25500000000E-02 0. -1.
    8880022    1    1    2    0    0 -0.63043536627E+03 -0.63222869713E+03 -0.55577966776E+03  0.10627532962E+04  0.15294330000E+03 0.  0.
    8880022    1    1    2    0    0  0.63043536627E+03  0.63222869713E+03  0.89073771000E+03  0.12704200870E+04  0.15294330000E+03 0.  0.
<mgrwt>
<rscale>  0 0.90584410E+03</rscale>
<asrwt>0</asrwt>
<pdfrwt beam="1">  1        2 0.15370887E+00 0.90584410E+03</pdfrwt>
<pdfrwt beam="2">  1       -2 0.20524088E+00 0.90584410E+03</pdfrwt>
<totfact> 0.31111025E+00</totfact>
</mgrwt>
</event>
<event>
 4    1  0.2061941E-008  0.8634926E+03  0.7818608E-02  0.9472404E-01
         -2   -1    0    0    0  501 -0.00000000000E+00  0.00000000000E+00  0.54464917426E+03  0.54464917427E+03  0.25500000000E-02 0.  1.
          2   -1    0    0  501    0  0.00000000000E+00 -0.00000000000E+00 -0.31210657104E+04  0.31210657104E+04  0.25500000000E-02 0. -1.
    8880022    1    1    2    0    0 -0.46114569904E+03 -0.71384348325E+03 -0.26614709164E+04  0.27980434175E+04  0.15294330000E+03 0.  0.
    8880022    1    1    2    0    0  0.46114569904E+03  0.71384348325E+03  0.85054380267E+02  0.86767146717E+03  0.15294330000E+03 0.  0.
<mgrwt>
<rscale>  0 0.86349263E+03</rscale>
<asrwt>0</asrwt>
<pdfrwt beam="1">  1        2 0.48016394E+00 0.86349263E+03</pdfrwt>
<pdfrwt beam="2">  1       -2 0.83792183E-01 0.86349263E+03</pdfrwt>
<totfact> 0.19031888E+00</totfact>
</mgrwt>
</event>
<event>
 4    1  0.2061941E-008  0.7189899E+03  0.7818608E-02  0.9685297E-01
          2   -1    0    0  501    0  0.00000000000E+00  0.00000000000E+00  0.15598694736E+04  0.15598694736E+04  0.25500000000E-02 0. -1.
         -2   -1    0    0    0  501 -0.00000000000E+00 -0.00000000000E+00 -0.37708249049E+03  0.37708249050E+03  0.25500000000E-02 0.  1.
    8880022    1    1    2    0    0  0.45424423115E+03  0.53592629574E+03  0.25431727572E+03  0.76264260683E+03  0.15294330000E+03 0.  0.
    8880022    1    1    2    0    0 -0.45424423115E+03 -0.53592629574E+03  0.92846970737E+03  0.11743093573E+04  0.15294330000E+03 0. -1.
<mgrwt>
<rscale>  0 0.71898989E+03</rscale>
<asrwt>0</asrwt>
<pdfrwt beam="1">  1        2 0.23997993E+00 0.71898989E+03</pdfrwt>
<pdfrwt beam="2">  1       -2 0.58012689E-01 0.71898989E+03</pdfrwt>
<totfact> 0.33564121E+01</totfact>
</mgrwt>
</event>
<event>
 4    1  0.2061941E-008  0.8143000E+03  0.7818608E-02  0.9539546E-01
         -2   -1    0    0    0  501 -0.00000000000E+00  0.00000000000E+00  0.72469400108E+03  0.72469400108E+03  0.25500000000E-02 0.  1.
          2   -1    0    0  501    0  0.00000000000E+00 -0.00000000000E+00 -0.16092137459E+04  0.16092137459E+04  0.25500000000E-02 0. -1.
    8880022    1    1    2    0    0 -0.37039005375E+03 -0.70887524408E+03  0.32421503171E+03  0.87647016115E+03  0.15294330000E+03 0.  0.
    8880022    1    1    2    0    0  0.37039005375E+03  0.70887524408E+03 -0.12087347766E+04  0.14574375859E+04  0.15294330000E+03 0.  0.
<mgrwt>
<rscale>  0 0.81430004E+03</rscale>
<asrwt>0</asrwt>
<pdfrwt beam="1">  1        2 0.24757134E+00 0.81430004E+03</pdfrwt>
<pdfrwt beam="2">  1       -2 0.11149139E+00 0.81430004E+03</pdfrwt>
<totfact> 0.71332140E+00</totfact>
</mgrwt>
</event>
<event>
 4    1  0.2061941E-008  0.4152329E+03  0.7818608E-02  0.1038629E+00
         -2   -1    0    0    0  501 -0.00000000000E+00  0.00000000000E+00  0.71514800009E+03  0.71514800010E+03  0.25500000000E-02 0.  1.
          2   -1    0    0  501    0  0.00000000000E+00 -0.00000000000E+00 -0.10476840930E+04  0.10476840930E+04  0.25500000000E-02 0. -1.
    8880022    1    1    2    0    0  0.38580155505E+03  0.13560789485E+02  0.60711034362E+03  0.73552794457E+03  0.15294330000E+03 0.  0.
    8880022    1    1    2    0    0 -0.38580155505E+03 -0.13560789485E+02 -0.93964643657E+03  0.10273041486E+04  0.15294330000E+03 0.  0.
<mgrwt>
<rscale>  0 0.41523293E+03</rscale>
<asrwt>0</asrwt>
<pdfrwt beam="1">  1        2 0.16118217E+00 0.41523293E+03</pdfrwt>
<pdfrwt beam="2">  1       -2 0.11002277E+00 0.41523293E+03</pdfrwt>
<totfact> 0.16489790E+01</totfact>
</mgrwt>
</event>
<event>
 4    1  0.2061941E-008  0.2361018E+03  0.7818608E-02  0.1122417E+00
          2   -1    0    0  501    0  0.00000000000E+00  0.00000000000E+00  0.11645388209E+04  0.11645388209E+04  0.25500000000E-02 0. -1.
         -2   -1    0    0    0  501 -0.00000000000E+00 -0.00000000000E+00 -0.22884412385E+04  0.22884412385E+04  0.25500000000E-02 0.  1.
    8880022    1    1    2    0    0 -0.15245670984E+03 -0.95443063722E+02  0.11463866663E+04  0.11704471233E+04  0.15294330000E+03 0.  0.
    8880022    1    1    2    0    0  0.15245670984E+03  0.95443063722E+02 -0.22702890839E+04  0.22825329361E+04  0.15294330000E+03 0.  1.
<mgrwt>
<rscale>  0 0.23610184E+03</rscale>
<asrwt>0</asrwt>
<pdfrwt beam="1">  1        2 0.17915982E+00 0.23610184E+03</pdfrwt>
<pdfrwt beam="2">  1       -2 0.35206788E+00 0.23610184E+03</pdfrwt>
<totfact> 0.39160573E-01</totfact>
</mgrwt>
</event>
<event>
 4    1  0.2061941E-008  0.6539765E+03  0.7818608E-02  0.9799346E-01
          2   -1    0    0  501    0  0.00000000000E+00  0.00000000000E+00  0.19148899678E+04  0.19148899678E+04  0.25500000000E-02 0. -1.
         -2   -1    0    0    0  501 -0.00000000000E+00 -0.00000000000E+00 -0.34741531857E+03  0.34741531858E+03  0.25500000000E-02 0.  1.
    8880022    1    1    2    0    0 -0.57483258241E+03  0.27177412653E+03  0.10776826470E+03  0.66279659440E+03  0.15294330000E+03 0.  1.
    8880022    1    1    2    0    0  0.57483258241E+03 -0.27177412653E+03  0.14597063845E+04  0.15995086920E+04  0.15294330000E+03 0.  0.
<mgrwt>
<rscale>  0 0.65397655E+03</rscale>
<asrwt>0</asrwt>
<pdfrwt beam="1">  1        2 0.29459845E+00 0.65397655E+03</pdfrwt>
<pdfrwt beam="2">  1       -2 0.53448512E-01 0.65397655E+03</pdfrwt>
<totfact> 0.25698674E+01</totfact>
</mgrwt>
</event>
<event>
 4    1  0.2061941E-008  0.6690611E+03  0.7818608E-02  0.9771655E-01
         -2   -1    0    0    0  501 -0.00000000000E+00  0.00000000000E+00  0.87667813747E+03  0.87667813748E+03  0.25500000000E-02 0.  1.
          2   -1    0    0  501    0  0.00000000000E+00 -0.00000000000E+00 -0.11034991625E+04  0.11034991625E+04  0.25500000000E-02 0. -1.
    8880022    1    1    2    0    0 -0.58431470999E+03 -0.28779764250E+03 -0.83913857699E+03  0.10732177634E+04  0.15294330000E+03 0.  0.
    8880022    1    1    2    0    0  0.58431470999E+03  0.28779764250E+03  0.61231755201E+03  0.90695953650E+03  0.15294330000E+03 0.  0.
<mgrwt>
<rscale>  0 0.66906115E+03</rscale>
<asrwt>0</asrwt>
<pdfrwt beam="1">  1        2 0.16976910E+00 0.66906115E+03</pdfrwt>
<pdfrwt beam="2">  1       -2 0.13487356E+00 0.66906115E+03</pdfrwt>
<totfact> 0.88300752E+00</totfact>
</mgrwt>
</event>
<event>
 4    1  0.2061941E-008  0.7493232E+03  0.7818608E-02  0.9636413E-01
          2   -1    0    0  501    0  0.00000000000E+00  0.00000000000E+00  0.12442706403E+04  0.12442706403E+04  0.25500000000E-02 0. -1.
         -2   -1    0    0    0  501 -0.00000000000E+00 -0.00000000000E+00 -0.87309946499E+03  0.87309946499E+03  0.25500000000E-02 0.  1.
    8880022    1    1    2    0    0 -0.72510990170E+03 -0.11094681587E+03  0.92147122048E+03  0.11876844820E+04  0.15294330000E+03 0.  0.
    8880022    1    1    2    0    0  0.72510990170E+03  0.11094681587E+03 -0.55030004518E+03  0.92968562333E+03  0.15294330000E+03 0.  0.
<mgrwt>
<rscale>  0 0.74932317E+03</rscale>
<asrwt>0</asrwt>
<pdfrwt beam="1">  1        2 0.19142625E+00 0.74932317E+03</pdfrwt>
<pdfrwt beam="2">  1       -2 0.13432299E+00 0.74932317E+03</pdfrwt>
<totfact> 0.72743500E+00</totfact>
</mgrwt>
</event>
<event>
 4    1  0.2061941E-008  0.2064604E+03  0.7818608E-02  0.1144400E+00
          2   -1    0    0  501    0  0.00000000000E+00  0.00000000000E+00  0.24130385317E+04  0.24130385317E+04  0.25500000000E-02 0. -1.
         -2   -1    0    0    0  501 -0.00000000000E+00 -0.00000000000E+00 -0.60933450239E+02  0.60933450292E+02  0.25500000000E-02 0.  1.
    8880022    1    1    2    0    0 -0.12675213941E+03 -0.56286143999E+02  0.13367876460E+03  0.24595914289E+03  0.15294330000E+03 0.  0.
    8880022    1    1    2    0    0  0.12675213941E+03  0.56286143999E+02  0.22184263169E+04  0.22280128391E+04  0.15294330000E+03 0. -1.
<mgrwt>
<rscale>  0 0.20646038E+03</rscale>
<asrwt>0</asrwt>
<pdfrwt beam="1">  1        2 0.37123664E+00 0.20646038E+03</pdfrwt>
<pdfrwt beam="2">  1       -2 0.93743785E-02 0.20646038E+03</pdfrwt>
<totfact> 0.33553467E+02</totfact>
</mgrwt>
</event>
<event>
 4    1  0.2061941E-008  0.1087582E+04  0.7818608E-02  0.9217381E-01
         -2   -1    0    0    0  501 -0.00000000000E+00  0.00000000000E+00  0.43805032932E+04  0.43805032932E+04  0.25500000000E-02 0.  1.
          2   -1    0    0  501    0  0.00000000000E+00 -0.00000000000E+00 -0.10317836691E+04  0.10317836691E+04  0.25500000000E-02 0. -1.
    8880022    1    1    2    0    0 -0.63124291405E+03  0.87233854514E+03 -0.65087037109E+03  0.12674644164E+04  0.15294330000E+03 0.  0.
    8880022    1    1    2    0    0  0.63124291405E+03 -0.87233854514E+03  0.39995899952E+04  0.41448225459E+04  0.15294330000E+03 0.  0.
<mgrwt>
<rscale>  0 0.10875816E+04</rscale>
<asrwt>0</asrwt>
<pdfrwt beam="1">  1        2 0.15873595E+00 0.10875816E+04</pdfrwt>
<pdfrwt beam="2">  1       -2 0.67392358E+00 0.10875816E+04</pdfrwt>
<totfact> 0.65889973E-03</totfact>
</mgrwt>
</event>
<event>
 4    1  0.2061941E-008  0.8107389E+03  0.7818608E-02  0.9544602E-01
         -2   -1    0    0    0  501 -0.00000000000E+00  0.00000000000E+00  0.36392207297E+03  0.36392207298E+03  0.25500000000E-02 0.  1.
          2   -1    0    0  501    0  0.00000000000E+00 -0.00000000000E+00 -0.35713502296E+04  0.35713502296E+04  0.25500000000E-02 0. -1.
    8880022    1    1    2    0    0  0.78269237014E+03  0.14594032984E+03 -0.22038453496E+03  0.84015886737E+03  0.15294330000E+03 0.  0.
    8880022    1    1    2    0    0 -0.78269237014E+03 -0.14594032984E+03 -0.29870436217E+04  0.30951134353E+04  0.15294330000E+03 0. -1.
<mgrwt>
<rscale>  0 0.81073891E+03</rscale>
<asrwt>0</asrwt>
<pdfrwt beam="1">  1        2 0.54943847E+00 0.81073891E+03</pdfrwt>
<pdfrwt beam="2">  1       -2 0.55988014E-01 0.81073891E+03</pdfrwt>
<totfact> 0.23329258E+00</totfact>
</mgrwt>
</event>
<event>
 4    1  0.2061941E-008  0.6605519E+03  0.7818608E-02  0.9787178E-01
          2   -1    0    0  501    0  0.00000000000E+00  0.00000000000E+00  0.27758771654E+04  0.27758771654E+04  0.25500000000E-02 0. -1.
         -2   -1    0    0    0  501 -0.00000000000E+00 -0.00000000000E+00 -0.34747720887E+03  0.34747720888E+03  0.25500000000E-02 0.  1.
    8880022    1    1    2    0    0  0.38203225044E+03 -0.51670930032E+03  0.23698798854E+04  0.24602153292E+04  0.15294330000E+03 0.  0.
    8880022    1    1    2    0    0 -0.38203225044E+03  0.51670930032E+03  0.58520071087E+02  0.66313904511E+03  0.15294330000E+03 0.  1.
<mgrwt>
<rscale>  0 0.66055189E+03</rscale>
<asrwt>0</asrwt>
<pdfrwt beam="1">  1        2 0.42705802E+00 0.66055189E+03</pdfrwt>
<pdfrwt beam="2">  1       -2 0.53458032E-01 0.66055189E+03</pdfrwt>
<totfact> 0.84806629E+00</totfact>
</mgrwt>
</event>
<event>
 4    1  0.2061941E-008  0.9330399E+03  0.7818608E-02  0.9385197E-01
          2   -1    0    0  501    0  0.00000000000E+00  0.00000000000E+00  0.29023093660E+04  0.29023093660E+04  0.25500000000E-02 0. -1.
         -2   -1    0    0    0  501 -0.00000000000E+00 -0.00000000000E+00 -0.44750928080E+03  0.44750928081E+03  0.25500000000E-02 0.  1.
    8880022    1    1    2    0    0 -0.89461586610E+03  0.21641216356E+03  0.26564257900E+03  0.97011824290E+03  0.15294330000E+03 0.  0.
    8880022    1    1    2    0    0  0.89461586610E+03 -0.21641216356E+03  0.21891575062E+04  0.23797004040E+04  0.15294330000E+03 0.  0.
<mgrwt>
<rscale>  0 0.93303988E+03</rscale>
<asrwt>0</asrwt>
<pdfrwt beam="1">  1        2 0.44650914E+00 0.93303988E+03</pdfrwt>
<pdfrwt beam="2">  1       -2 0.68847581E-01 0.93303988E+03</pdfrwt>
<totfact> 0.39756420E+00</totfact>
</mgrwt>
</event>
<event>
 4    1  0.2061941E-008  0.5809280E+03  0.7818608E-02  0.9945784E-01
          2   -1    0    0  501    0  0.00000000000E+00  0.00000000000E+00  0.16580089400E+04  0.16580089400E+04  0.25500000000E-02 0. -1.
         -2   -1    0    0    0  501 -0.00000000000E+00 -0.00000000000E+00 -0.38140805946E+03  0.38140805947E+03  0.25500000000E-02 0.  1.
    8880022    1    1    2    0    0  0.51079540753E+03 -0.23059419719E+03  0.13346472093E+04  0.14555962553E+04  0.15294330000E+03 0. -1.
    8880022    1    1    2    0    0 -0.51079540753E+03  0.23059419719E+03 -0.58046328674E+02  0.58382074425E+03  0.15294330000E+03 0.  0.
<mgrwt>
<rscale>  0 0.58092795E+03</rscale>
<asrwt>0</asrwt>
<pdfrwt beam="1">  1        2 0.25507830E+00 0.58092795E+03</pdfrwt>
<pdfrwt beam="2">  1       -2 0.58678163E-01 0.58092795E+03</pdfrwt>
<totfact> 0.29506593E+01</totfact>
</mgrwt>
</event>
<event>
 4    1  0.2061941E-008  0.6339370E+03  0.7818608E-02  0.9837396E-01
          2   -1    0    0  501    0  0.00000000000E+00  0.00000000000E+00  0.67862710154E+03  0.67862710155E+03  0.25500000000E-02 0. -1.
         -2   -1    0    0    0  501 -0.00000000000E+00 -0.00000000000E+00 -0.63420754808E+03  0.63420754808E+03  0.25500000000E-02 0.  1.
    8880022    1    1    2    0    0 -0.48812171596E+03  0.37446183841E+03  0.19116829111E+03  0.66213400952E+03  0.15294330000E+03 0.  0.
    8880022    1    1    2    0    0  0.48812171596E+03 -0.37446183841E+03 -0.14674873765E+03  0.65070064011E+03  0.15294330000E+03 0.  0.
<mgrwt>
<rscale>  0 0.63393701E+03</rscale>
<asrwt>0</asrwt>
<pdfrwt beam="1">  1        2 0.10440417E+00 0.63393701E+03</pdfrwt>
<pdfrwt beam="2">  1       -2 0.97570393E-01 0.63393701E+03</pdfrwt>
<totfact> 0.38167538E+01</totfact>
</mgrwt>
</event>
<event>
 4    1  0.2061941E-008  0.3783828E+03  0.7818608E-02  0.1051533E+00
          2   -1    0    0  501    0  0.00000000000E+00  0.00000000000E+00  0.84035986642E+03  0.84035986642E+03  0.25500000000E-02 0. -1.
         -2   -1    0    0    0  501 -0.00000000000E+00 -0.00000000000E+00 -0.25996789765E+03  0.25996789766E+03  0.25500000000E-02 0.  1.
    8880022    1    1    2    0    0  0.18925822881E+03 -0.28976404422E+03  0.61317702250E+03  0.72052730166E+03  0.15294330000E+03 0.  0.
    8880022    1    1    2    0    0 -0.18925822881E+03  0.28976404422E+03 -0.32785053733E+02  0.37980046243E+03  0.15294330000E+03 0.  0.
<mgrwt>
<rscale>  0 0.37838278E+03</rscale>
<asrwt>0</asrwt>
<pdfrwt beam="1">  1        2 0.12928613E+00 0.37838278E+03</pdfrwt>
<pdfrwt beam="2">  1       -2 0.39995062E-01 0.37838278E+03</pdfrwt>
<totfact> 0.19784191E+02</totfact>
</mgrwt>
</event>
<event>
 4    1  0.2061941E-008  0.3242311E+03  0.7818608E-02  0.1073718E+00
          2   -1    0    0  501    0  0.00000000000E+00  0.00000000000E+00  0.67566724079E+03  0.67566724080E+03  0.25500000000E-02 0. -1.
         -2   -1    0    0    0  501 -0.00000000000E+00 -0.00000000000E+00 -0.33996029385E+03  0.33996029386E+03  0.25500000000E-02 0.  1.
    8880022    1    1    2    0    0 -0.13590828961E+03  0.25152160236E+03 -0.20611758768E+03  0.38420084930E+03  0.15294330000E+03 0.  1.
    8880022    1    1    2    0    0  0.13590828961E+03 -0.25152160236E+03  0.54182453462E+03  0.63142668535E+03  0.15294330000E+03 0.  0.
<mgrwt>
<rscale>  0 0.32423114E+03</rscale>
<asrwt>0</asrwt>
<pdfrwt beam="1">  1        2 0.10394881E+00 0.32423114E+03</pdfrwt>
<pdfrwt beam="2">  1       -2 0.52301583E-01 0.32423114E+03</pdfrwt>
<totfact> 0.15426537E+02</totfact>
</mgrwt>
</event>
<event>
 4    1  0.2061941E-008  0.6201327E+03  0.7818608E-02  0.9864496E-01
          2   -1    0    0  501    0  0.00000000000E+00  0.00000000000E+00  0.11486178086E+04  0.11486178086E+04  0.25500000000E-02 0. -1.
         -2   -1    0    0    0  501 -0.00000000000E+00 -0.00000000000E+00 -0.62731954408E+03  0.62731954409E+03  0.25500000000E-02 0.  1.
    8880022    1    1    2    0    0 -0.49774608883E+03  0.33678148002E+03 -0.34570443082E+03  0.70998319750E+03  0.15294330000E+03 0.  0.
    8880022    1    1    2    0    0  0.49774608883E+03 -0.33678148002E+03  0.86700269537E+03  0.10659541552E+04  0.15294330000E+03 0.  0.
<mgrwt>
<rscale>  0 0.62013272E+03</rscale>
<asrwt>0</asrwt>
<pdfrwt beam="1">  1        2 0.17671043E+00 0.62013272E+03</pdfrwt>
<pdfrwt beam="2">  1       -2 0.96510700E-01 0.62013272E+03</pdfrwt>
<totfact> 0.18906350E+01</totfact>
</mgrwt>
</event>
<event>
 4    1  0.2061941E-008  0.3033297E+03  0.7818608E-02  0.1083588E+00
         -2   -1    0    0    0  501 -0.00000000000E+00  0.00000000000E+00  0.40161097881E+03  0.40161097882E+03  0.25500000000E-02 0.  1.
          2   -1    0    0  501    0  0.00000000000E+00 -0.00000000000E+00 -0.60104415592E+03  0.60104415593E+03  0.25500000000E-02 0. -1.
    8880022    1    1    2    0    0 -0.85471350085E+02  0.24761234626E+03  0.29465675508E+03  0.42288471483E+03  0.15294330000E+03 0.  0.
    8880022    1    1    2    0    0  0.85471350085E+02 -0.24761234626E+03 -0.49408993219E+03  0.57977041992E+03  0.15294330000E+03 0.  0.
<mgrwt>
<rscale>  0 0.30332965E+03</rscale>
<asrwt>0</asrwt>
<pdfrwt beam="1">  1        2 0.92468332E-01 0.30332965E+03</pdfrwt>
<pdfrwt beam="2">  1       -2 0.61786304E-01 0.30332965E+03</pdfrwt>
<totfact> 0.12612326E+02</totfact>
</mgrwt>
</event>
<event>
 4    1  0.2061941E-008  0.9942311E+03  0.7818608E-02  0.9314895E-01
         -2   -1    0    0    0  501 -0.00000000000E+00  0.00000000000E+00  0.78596980223E+03  0.78596980223E+03  0.25500000000E-02 0.  1.
          2   -1    0    0  501    0  0.00000000000E+00 -0.00000000000E+00 -0.19881666093E+04  0.19881666093E+04  0.25500000000E-02 0. -1.
    8880022    1    1    2    0    0 -0.98099928058E+03  0.52385905866E+02  0.23967445668E+03  0.10227117726E+04  0.15294330000E+03 0.  0.
    8880022    1    1    2    0    0  0.98099928058E+03 -0.52385905866E+02 -0.14418712638E+04  0.17514246389E+04  0.15294330000E+03 0.  0.
<mgrwt>
<rscale>  0 0.99423112E+03</rscale>
<asrwt>0</asrwt>
<pdfrwt beam="1">  1        2 0.30587178E+00 0.99423112E+03</pdfrwt>
<pdfrwt beam="2">  1       -2 0.12091843E+00 0.99423112E+03</pdfrwt>
<totfact> 0.35326525E+00</totfact>
</mgrwt>
</event>
<event>
 4    1  0.2061941E-008  0.4696184E+03  0.7818608E-02  0.1022028E+00
         -2   -1    0    0    0  501 -0.00000000000E+00  0.00000000000E+00  0.17281580233E+03  0.17281580235E+03  0.25500000000E-02 0.  1.
          2   -1    0    0  501    0  0.00000000000E+00 -0.00000000000E+00 -0.20824712705E+04  0.20824712705E+04  0.25500000000E-02 0. -1.
    8880022    1    1    2    0    0  0.24654196519E+03  0.36927877649E+03 -0.16564969985E+04  0.17217792293E+04  0.15294330000E+03 0.  0.
    8880022    1    1    2    0    0 -0.24654196519E+03 -0.36927877649E+03 -0.25315846967E+03  0.53350784357E+03  0.15294330000E+03 0.  0.
<mgrwt>
<rscale>  0 0.46961836E+03</rscale>
<asrwt>0</asrwt>
<pdfrwt beam="1">  1        2 0.32038018E+00 0.46961836E+03</pdfrwt>
<pdfrwt beam="2">  1       -2 0.26587048E-01 0.46961836E+03</pdfrwt>
<totfact> 0.82447729E+01</totfact>
</mgrwt>
</event>
<event>
 4    1  0.2061941E-008  0.3277483E+03  0.7818608E-02  0.1072138E+00
         -2   -1    0    0    0  501 -0.00000000000E+00  0.00000000000E+00  0.92611684780E+02  0.92611684815E+02  0.25500000000E-02 0.  1.
          2   -1    0    0  501    0  0.00000000000E+00 -0.00000000000E+00 -0.24275536582E+04  0.24275536582E+04  0.25500000000E-02 0. -1.
    8880022    1    1    2    0    0  0.21695439852E+03  0.19224479364E+03 -0.20780496261E+04  0.21037369544E+04  0.15294330000E+03 0.  0.
    8880022    1    1    2    0    0 -0.21695439852E+03 -0.19224479364E+03 -0.25689234728E+03  0.41642838859E+03  0.15294330000E+03 0.  0.
<mgrwt>
<rscale>  0 0.32774826E+03</rscale>
<asrwt>0</asrwt>
<pdfrwt beam="1">  1        2 0.37346975E+00 0.32774826E+03</pdfrwt>
<pdfrwt beam="2">  1       -2 0.14247953E-01 0.32774826E+03</pdfrwt>
<totfact> 0.16204704E+02</totfact>
</mgrwt>
</event>
<event>
 4    1  0.2061941E-008  0.6311879E+03  0.7818608E-02  0.9842733E-01
         -2   -1    0    0    0  501 -0.00000000000E+00  0.00000000000E+00  0.55916940702E+03  0.55916940702E+03  0.25500000000E-02 0.  1.
          2   -1    0    0  501    0  0.00000000000E+00 -0.00000000000E+00 -0.12598171604E+04  0.12598171604E+04  0.25500000000E-02 0. -1.
    8880022    1    1    2    0    0 -0.60967847950E+03 -0.57433722069E+02  0.24915296820E+03  0.67858332973E+03  0.15294330000E+03 0.  0.
    8880022    1    1    2    0    0  0.60967847950E+03  0.57433722069E+02 -0.94980072154E+03  0.11404032377E+04  0.15294330000E+03 0.  0.
<mgrwt>
<rscale>  0 0.63118788E+03</rscale>
<asrwt>0</asrwt>
<pdfrwt beam="1">  1        2 0.19381802E+00 0.63118788E+03</pdfrwt>
<pdfrwt beam="2">  1       -2 0.86026063E-01 0.63118788E+03</pdfrwt>
<totfact> 0.21178182E+01</totfact>
</mgrwt>
</event>
<event>
 4    1  0.2061941E-008  0.1008313E+04  0.7818608E-02  0.9299474E-01
          2   -1    0    0  501    0  0.00000000000E+00  0.00000000000E+00  0.12684499282E+04  0.12684499282E+04  0.25500000000E-02 0. -1.
         -2   -1    0    0    0  501 -0.00000000000E+00 -0.00000000000E+00 -0.14192853157E+04  0.14192853157E+04  0.25500000000E-02 0.  1.
    8880022    1    1    2    0    0  0.50292658228E+03 -0.86044672096E+03  0.81118970905E+03  0.12941113182E+04  0.15294330000E+03 0.  0.
    8880022    1    1    2    0    0 -0.50292658228E+03  0.86044672096E+03 -0.96202509663E+03  0.13936239257E+04  0.15294330000E+03 0.  0.
<mgrwt>
<rscale>  0 0.10083131E+04</rscale>
<asrwt>0</asrwt>
<pdfrwt beam="1">  1        2 0.19514614E+00 0.10083131E+04</pdfrwt>
<pdfrwt beam="2">  1       -2 0.21835159E+00 0.10083131E+04</pdfrwt>
<totfact> 0.17338002E+00</totfact>
</mgrwt>
</event>
<event>
 4    1  0.2061941E-008  0.9578900E+03  0.7818608E-02  0.9355976E-01
          2   -1    0    0  501    0  0.00000000000E+00  0.00000000000E+00  0.34253283083E+04  0.34253283083E+04  0.25500000000E-02 0. -1.
         -2   -1    0    0    0  501 -0.00000000000E+00 -0.00000000000E+00 -0.74921750134E+03  0.74921750135E+03  0.25500000000E-02 0.  1.
    8880022    1    1    2    0    0 -0.81876514371E+03  0.47305951773E+03 -0.33497271402E+03  0.10147709298E+04  0.15294330000E+03 0.  0.
    8880022    1    1    2    0    0  0.81876514371E+03 -0.47305951773E+03  0.30110835210E+04  0.31597748798E+04  0.15294330000E+03 0.  0.
<mgrwt>
<rscale>  0 0.95789004E+03</rscale>
<asrwt>0</asrwt>
<pdfrwt beam="1">  1        2 0.52697357E+00 0.95789004E+03</pdfrwt>
<pdfrwt beam="2">  1       -2 0.11526423E+00 0.95789004E+03</pdfrwt>
<totfact> 0.55760990E-01</totfact>
</mgrwt>
</event>
<event>
 4    1  0.2061941E-008  0.4363413E+03  0.7818608E-02  0.1031875E+00
         -2   -1    0    0    0  501 -0.00000000000E+00  0.00000000000E+00  0.41618410927E+03  0.41618410928E+03  0.25500000000E-02 0.  1.
          2   -1    0    0  501    0  0.00000000000E+00 -0.00000000000E+00 -0.25720784833E+04  0.25720784833E+04  0.25500000000E-02 0. -1.
    8880022    1    1    2    0    0  0.84149709068E+02  0.39990112798E+03 -0.24327033878E+04  0.24715257457E+04  0.15294330000E+03 0.  0.
    8880022    1    1    2    0    0 -0.84149709068E+02 -0.39990112798E+03  0.27680901383E+03  0.51673684680E+03  0.15294330000E+03 0.  1.
<mgrwt>
<rscale>  0 0.43634131E+03</rscale>
<asrwt>0</asrwt>
<pdfrwt beam="1">  1        2 0.39570437E+00 0.43634131E+03</pdfrwt>
<pdfrwt beam="2">  1       -2 0.64028326E-01 0.43634131E+03</pdfrwt>
<totfact> 0.80498013E+00</totfact>
</mgrwt>
</event>
<event>
 4    1  0.2061941E-008  0.3294694E+03  0.7818608E-02  0.1071372E+00
         -2   -1    0    0    0  501 -0.00000000000E+00  0.00000000000E+00  0.21197383311E+03  0.21197383312E+03  0.25500000000E-02 0.  1.
          2   -1    0    0  501    0  0.00000000000E+00 -0.00000000000E+00 -0.12353067462E+04  0.12353067462E+04  0.25500000000E-02 0. -1.
    8880022    1    1    2    0    0 -0.26064968613E+03  0.13122567683E+03  0.42026486553E+02  0.33213900061E+03  0.15294330000E+03 0.  0.
    8880022    1    1    2    0    0  0.26064968613E+03 -0.13122567683E+03 -0.10653593996E+04  0.11151415787E+04  0.15294330000E+03 0.  0.
<mgrwt>
<rscale>  0 0.32946941E+03</rscale>
<asrwt>0</asrwt>
<pdfrwt beam="1">  1        2 0.19004719E+00 0.32946941E+03</pdfrwt>
<pdfrwt beam="2">  1       -2 0.32611360E-01 0.32946941E+03</pdfrwt>
<totfact> 0.16732544E+02</totfact>
</mgrwt>
</event>
<event>
 4    1  0.2061941E-008  0.8465803E+03  0.7818608E-02  0.9494938E-01
         -2   -1    0    0    0  501 -0.00000000000E+00  0.00000000000E+00  0.12864267055E+04  0.12864267055E+04  0.25500000000E-02 0.  1.
          2   -1    0    0  501    0  0.00000000000E+00 -0.00000000000E+00 -0.91692546035E+03  0.91692546036E+03  0.25500000000E-02 0. -1.
    8880022    1    1    2    0    0  0.31961671023E+03 -0.76886395117E+03 -0.50536013694E+03  0.98594479454E+03  0.15294330000E+03 0.  0.
    8880022    1    1    2    0    0 -0.31961671023E+03  0.76886395117E+03  0.87486138210E+03  0.12174073713E+04  0.15294330000E+03 0.  0.
<mgrwt>
<rscale>  0 0.84658034E+03</rscale>
<asrwt>0</asrwt>
<pdfrwt beam="1">  1        2 0.14106545E+00 0.84658034E+03</pdfrwt>
<pdfrwt beam="2">  1       -2 0.19791180E+00 0.84658034E+03</pdfrwt>
<totfact> 0.39592653E+00</totfact>
</mgrwt>
</event>
<event>
 4    1  0.2061941E-008  0.8715228E+03  0.7818608E-02  0.9461897E-01
          2   -1    0    0  501    0  0.00000000000E+00  0.00000000000E+00  0.33378415004E+04  0.33378415004E+04  0.25500000000E-02 0. -1.
         -2   -1    0    0    0  501 -0.00000000000E+00 -0.00000000000E+00 -0.59006201779E+03  0.59006201780E+03  0.25500000000E-02 0.  1.
    8880022    1    1    2    0    0 -0.81452693606E+03  0.26964091343E+03  0.29132437021E+04  0.30408125349E+04  0.15294330000E+03 0.  0.
    8880022    1    1    2    0    0  0.81452693606E+03 -0.26964091343E+03 -0.16546421943E+03  0.88709098332E+03  0.15294330000E+03 0.  0.
<mgrwt>
<rscale>  0 0.87152281E+03</rscale>
<asrwt>0</asrwt>
<pdfrwt beam="1">  1        2 0.51351407E+00 0.87152281E+03</pdfrwt>
<pdfrwt beam="2">  1       -2 0.90778773E-01 0.87152281E+03</pdfrwt>
<totfact> 0.11468383E+00</totfact>
</mgrwt>
</event>
<event>
 4    1  0.2061941E-008  0.6828963E+03  0.7818608E-02  0.9746937E-01
          2   -1    0    0  501    0  0.00000000000E+00  0.00000000000E+00  0.27680158884E+04  0.27680158884E+04  0.25500000000E-02 0. -1.
         -2   -1    0    0    0  501 -0.00000000000E+00 -0.00000000000E+00 -0.88278916677E+03  0.88278916678E+03  0.25500000000E-02 0.  1.
    8880022    1    1    2    0    0 -0.66477658780E+03 -0.32060006461E+02 -0.69939033497E+03  0.97749386155E+03  0.15294330000E+03 0.  0.
    8880022    1    1    2    0    0  0.66477658780E+03  0.32060006461E+02  0.25846170566E+04  0.26733111936E+04  0.15294330000E+03 0.  0.
<mgrwt>
<rscale>  0 0.68289634E+03</rscale>
<asrwt>0</asrwt>
<pdfrwt beam="1">  1        2 0.42584859E+00 0.68289634E+03</pdfrwt>
<pdfrwt beam="2">  1       -2 0.13581372E+00 0.68289634E+03</pdfrwt>
<totfact> 0.10115858E+00</totfact>
</mgrwt>
</event>
<event>
 4    1  0.2061941E-008  0.3848467E+03  0.7818608E-02  0.1049157E+00
         -2   -1    0    0    0  501 -0.00000000000E+00  0.00000000000E+00  0.11524604211E+04  0.11524604211E+04  0.25500000000E-02 0.  1.
          2   -1    0    0  501    0  0.00000000000E+00 -0.00000000000E+00 -0.46002351771E+03  0.46002351771E+03  0.25500000000E-02 0. -1.
    8880022    1    1    2    0    0 -0.84455263742E+02  0.34290328957E+03 -0.33820289905E+03  0.51233603378E+03  0.15294330000E+03 0. -1.
    8880022    1    1    2    0    0  0.84455263742E+02 -0.34290328957E+03  0.10306398024E+04  0.11001479050E+04  0.15294330000E+03 0.  0.
<mgrwt>
<rscale>  0 0.38484674E+03</rscale>
<asrwt>0</asrwt>
<pdfrwt beam="1">  1        2 0.70772850E-01 0.38484674E+03</pdfrwt>
<pdfrwt beam="2">  1       -2 0.17730160E+00 0.38484674E+03</pdfrwt>
<totfact> 0.13690191E+01</totfact>
</mgrwt>
</event>
<event>
 4    1  0.2061941E-008  0.7172142E+03  0.7818608E-02  0.9688238E-01
          2   -1    0    0  501    0  0.00000000000E+00  0.00000000000E+00  0.24823025629E+04  0.24823025629E+04  0.25500000000E-02 0. -1.
         -2   -1    0    0    0  501 -0.00000000000E+00 -0.00000000000E+00 -0.23509734172E+03  0.23509734173E+03  0.25500000000E-02 0.  1.
    8880022    1    1    2    0    0  0.16952054938E+03  0.67990240580E+03  0.15914274568E+04  0.17455765527E+04  0.15294330000E+03 0.  0.
    8880022    1    1    2    0    0 -0.16952054938E+03 -0.67990240580E+03  0.65577776433E+03  0.97182335189E+03  0.15294330000E+03 0.  0.
<mgrwt>
<rscale>  0 0.71721416E+03</rscale>
<asrwt>0</asrwt>
<pdfrwt beam="1">  1        2 0.38189271E+00 0.71721416E+03</pdfrwt>
<pdfrwt beam="2">  1       -2 0.36168821E-01 0.71721416E+03</pdfrwt>
<totfact> 0.26885489E+01</totfact>
</mgrwt>
</event>
<event>
 4    1  0.2061941E-008  0.6419287E+03  0.7818608E-02  0.9822043E-01
          2   -1    0    0  501    0  0.00000000000E+00  0.00000000000E+00  0.10345830693E+04  0.10345830693E+04  0.25500000000E-02 0. -1.
         -2   -1    0    0    0  501 -0.00000000000E+00 -0.00000000000E+00 -0.84196578767E+03  0.84196578768E+03  0.25500000000E-02 0.  1.
    8880022    1    1    2    0    0 -0.17963823389E+02 -0.62318388189E+03 -0.58479239848E+03  0.86836320277E+03  0.15294330000E+03 0.  0.
    8880022    1    1    2    0    0  0.17963823389E+02  0.62318388189E+03  0.77740968006E+03  0.10081856542E+04  0.15294330000E+03 0.  0.
<mgrwt>
<rscale>  0 0.64192874E+03</rscale>
<asrwt>0</asrwt>
<pdfrwt beam="1">  1        2 0.15916663E+00 0.64192874E+03</pdfrwt>
<pdfrwt beam="2">  1       -2 0.12953320E+00 0.64192874E+03</pdfrwt>
<totfact> 0.10828249E+01</totfact>
</mgrwt>
</event>
<event>
 4    1  0.2061941E-008  0.8002321E+03  0.7818608E-02  0.9559681E-01
          2   -1    0    0  501    0  0.00000000000E+00  0.00000000000E+00  0.18449428030E+04  0.18449428030E+04  0.25500000000E-02 0. -1.
         -2   -1    0    0    0  501 -0.00000000000E+00 -0.00000000000E+00 -0.38408360347E+03  0.38408360348E+03  0.25500000000E-02 0.  1.
    8880022    1    1    2    0    0  0.76126585244E+03  0.19353065945E+03  0.38456749832E+03  0.88784211886E+03  0.15294330000E+03 0.  0.
    8880022    1    1    2    0    0 -0.76126585244E+03 -0.19353065945E+03  0.10762917012E+04  0.13411842876E+04  0.15294330000E+03 0.  0.
<mgrwt>
<rscale>  0 0.80023213E+03</rscale>
<asrwt>0</asrwt>
<pdfrwt beam="1">  1        2 0.28383735E+00 0.80023213E+03</pdfrwt>
<pdfrwt beam="2">  1       -2 0.59089786E-01 0.80023213E+03</pdfrwt>
<totfact> 0.22313572E+01</totfact>
</mgrwt>
</event>
<event>
 4    1  0.2061941E-008  0.6295454E+03  0.7818608E-02  0.9845936E-01
         -2   -1    0    0    0  501 -0.00000000000E+00  0.00000000000E+00  0.84204716428E+03  0.84204716429E+03  0.25500000000E-02 0.  1.
          2   -1    0    0  501    0  0.00000000000E+00 -0.00000000000E+00 -0.87629584216E+03  0.87629584216E+03  0.25500000000E-02 0. -1.
    8880022    1    1    2    0    0 -0.32268885048E+03 -0.51846665739E+03 -0.60166753221E+03  0.87082216404E+03  0.15294330000E+03 0.  0.
    8880022    1    1    2    0    0  0.32268885048E+03  0.51846665739E+03  0.56741885433E+03  0.84752084241E+03  0.15294330000E+03 0.  0.
<mgrwt>
<rscale>  0 0.62954541E+03</rscale>
<asrwt>0</asrwt>
<pdfrwt beam="1">  1        2 0.13481474E+00 0.62954541E+03</pdfrwt>
<pdfrwt beam="2">  1       -2 0.12954572E+00 0.62954541E+03</pdfrwt>
<totfact> 0.13741296E+01</totfact>
</mgrwt>
</event>
<event>
 4    1  0.2061941E-008  0.1495660E+04  0.7818608E-02  0.8887344E-01
         -2   -1    0    0    0  501 -0.00000000000E+00  0.00000000000E+00  0.90163067070E+03  0.90163067070E+03  0.25500000000E-02 0.  1.
          2   -1    0    0  501    0  0.00000000000E+00 -0.00000000000E+00 -0.37792368704E+04  0.37792368704E+04  0.25500000000E-02 0. -1.
    8880022    1    1    2    0    0 -0.14712384198E+04  0.22150438830E+03 -0.67095630992E+02  0.14971640386E+04  0.15294330000E+03 0.  0.
    8880022    1    1    2    0    0  0.14712384198E+04 -0.22150438830E+03 -0.28105105687E+04  0.31837035025E+04  0.15294330000E+03 0.  0.
<mgrwt>
<rscale>  0 0.14956598E+04</rscale>
<asrwt>0</asrwt>
<pdfrwt beam="1">  1        2 0.58142105E+00 0.14956598E+04</pdfrwt>
<pdfrwt beam="2">  1       -2 0.13871241E+00 0.14956598E+04</pdfrwt>
<totfact> 0.17975970E-01</totfact>
</mgrwt>
</event>
<event>
 4    1  0.2061941E-008  0.1256169E+04  0.7818608E-02  0.9065064E-01
          2   -1    0    0  501    0  0.00000000000E+00  0.00000000000E+00  0.23602761490E+04  0.23602761490E+04  0.25500000000E-02 0. -1.
         -2   -1    0    0    0  501 -0.00000000000E+00 -0.00000000000E+00 -0.93770431951E+03  0.93770431951E+03  0.25500000000E-02 0.  1.
    8880022    1    1    2    0    0  0.14745453897E+01  0.12468227306E+04  0.15947450009E+04  0.20300670843E+04  0.15294330000E+03 0.  0.
    8880022    1    1    2    0    0 -0.14745453897E+01 -0.12468227306E+04 -0.17217317148E+03  0.12679133842E+04  0.15294330000E+03 0.  0.
<mgrwt>
<rscale>  0 0.12561691E+04</rscale>
<asrwt>0</asrwt>
<pdfrwt beam="1">  1        2 0.36311940E+00 0.12561691E+04</pdfrwt>
<pdfrwt beam="2">  1       -2 0.14426221E+00 0.12561691E+04</pdfrwt>
<totfact> 0.13496088E+00</totfact>
</mgrwt>
</event>
<event>
 4    1  0.2061941E-008  0.4075920E+03  0.7818608E-02  0.1041182E+00
         -2   -1    0    0    0  501 -0.00000000000E+00  0.00000000000E+00  0.37858998454E+03  0.37858998455E+03  0.25500000000E-02 0.  1.
          2   -1    0    0  501    0  0.00000000000E+00 -0.00000000000E+00 -0.94992917984E+03  0.94992917985E+03  0.25500000000E-02 0. -1.
    8880022    1    1    2    0    0  0.16534710904E+03 -0.33970563761E+03  0.20157930455E+03  0.45471469707E+03  0.15294330000E+03 0.  1.
    8880022    1    1    2    0    0 -0.16534710904E+03  0.33970563761E+03 -0.77291849985E+03  0.87380446733E+03  0.15294330000E+03 0.  0.
<mgrwt>
<rscale>  0 0.40759200E+03</rscale>
<asrwt>0</asrwt>
<pdfrwt beam="1">  1        2 0.14614295E+00 0.40759200E+03</pdfrwt>
<pdfrwt beam="2">  1       -2 0.58244613E-01 0.40759200E+03</pdfrwt>
<totfact> 0.78628494E+01</totfact>
</mgrwt>
</event>
<event>
 4    1  0.2706756E-008  0.1064440E+04  0.7818608E-02  0.9240561E-01
         -2   -1    0    0    0  501 -0.00000000000E+00  0.00000000000E+00  0.12334055172E+04  0.12334055172E+04  0.25500000000E-02 0.  1.
          2   -1    0    0  501    0  0.00000000000E+00 -0.00000000000E+00 -0.29184694701E+04  0.29184694701E+04  0.25500000000E-02 0. -1.
    8880022    1    1    2    0    0  0.10531293923E+04  0.23648449525E+02  0.87591138279E+03  0.13784967064E+04  0.15294330000E+03 0.  0.
    8880022    1    1    2    0    0 -0.10531293923E+04 -0.23648449525E+02 -0.25609753356E+04  0.27733782809E+04  0.15294330000E+03 0.  0.
<mgrwt>
<rscale>  0 0.10644400E+04</rscale>
<asrwt>0</asrwt>
<pdfrwt beam="1">  1        2 0.44899530E+00 0.10644400E+04</pdfrwt>
<pdfrwt beam="2">  1       -2 0.18975470E+00 0.10644400E+04</pdfrwt>
<totfact> 0.30554099E-01</totfact>
</mgrwt>
</event>
<event>
 4    1  0.2061941E-008  0.2101747E+03  0.7818608E-02  0.1141428E+00
          2   -1    0    0  501    0  0.00000000000E+00  0.00000000000E+00  0.14177487408E+04  0.14177487408E+04  0.25500000000E-02 0. -1.
         -2   -1    0    0    0  501 -0.00000000000E+00 -0.00000000000E+00 -0.29943550079E+03  0.29943550080E+03  0.25500000000E-02 0.  1.
    8880022    1    1    2    0    0  0.13346049545E+03 -0.54498244518E+02  0.13718520862E+04  0.13878586246E+04  0.15294330000E+03 0.  0.
    8880022    1    1    2    0    0 -0.13346049545E+03  0.54498244518E+02 -0.25353884616E+03  0.32932561702E+03  0.15294330000E+03 0.  0.
<mgrwt>
<rscale>  0 0.21017473E+03</rscale>
<asrwt>0</asrwt>
<pdfrwt beam="1">  1        2 0.21811519E+00 0.21017473E+03</pdfrwt>
<pdfrwt beam="2">  1       -2 0.46067000E-01 0.21017473E+03</pdfrwt>
<totfact> 0.70633490E+01</totfact>
</mgrwt>
</event>
<event>
 4    1  0.2061941E-008  0.4369771E+03  0.7818608E-02  0.1031678E+00
          2   -1    0    0  501    0  0.00000000000E+00  0.00000000000E+00  0.11085865197E+04  0.11085865197E+04  0.25500000000E-02 0. -1.
         -2   -1    0    0    0  501 -0.00000000000E+00 -0.00000000000E+00 -0.70597928336E+03  0.70597928337E+03  0.25500000000E-02 0.  1.
    8880022    1    1    2    0    0 -0.40538301590E+03  0.56762375287E+02 -0.58757303826E+03  0.73225069829E+03  0.15294330000E+03 0.  0.
    8880022    1    1    2    0    0  0.40538301590E+03 -0.56762375287E+02  0.99018027460E+03  0.10823151048E+04  0.15294330000E+03 0.  0.
<mgrwt>
<rscale>  0 0.43697713E+03</rscale>
<asrwt>0</asrwt>
<pdfrwt beam="1">  1        2 0.17055177E+00 0.43697713E+03</pdfrwt>
<pdfrwt beam="2">  1       -2 0.10861220E+00 0.43697713E+03</pdfrwt>
<totfact> 0.15556629E+01</totfact>
</mgrwt>
</event>
<event>
 4    1  0.2061941E-008  0.1199583E+04  0.7818608E-02  0.9113222E-01
         -2   -1    0    0    0  501 -0.00000000000E+00  0.00000000000E+00  0.22910006921E+04  0.22910006921E+04  0.25500000000E-02 0.  1.
          2   -1    0    0  501    0  0.00000000000E+00 -0.00000000000E+00 -0.15078219170E+04  0.15078219170E+04  0.25500000000E-02 0. -1.
    8880022    1    1    2    0    0 -0.20405291843E+03  0.11721645814E+04 -0.10592334397E+04  0.16003045124E+04  0.15294330000E+03 0.  0.
    8880022    1    1    2    0    0  0.20405291843E+03 -0.11721645814E+04  0.18424122148E+04  0.21985180967E+04  0.15294330000E+03 0.  0.
<mgrwt>
<rscale>  0 0.11995829E+04</rscale>
<asrwt>0</asrwt>
<pdfrwt beam="1">  1        2 0.23197260E+00 0.11995829E+04</pdfrwt>
<pdfrwt beam="2">  1       -2 0.35246165E+00 0.11995829E+04</pdfrwt>
<totfact> 0.18493683E-01</totfact>
</mgrwt>
</event>
<event>
 4    1  0.2061941E-008  0.4606564E+03  0.7818608E-02  0.1024591E+00
         -2   -1    0    0    0  501 -0.00000000000E+00  0.00000000000E+00  0.18381548091E+03  0.18381548093E+03  0.25500000000E-02 0.  1.
          2   -1    0    0  501    0  0.00000000000E+00 -0.00000000000E+00 -0.23925356740E+04  0.23925356740E+04  0.25500000000E-02 0. -1.
    8880022    1    1    2    0    0  0.43100736074E+03 -0.55184500841E+02 -0.17769546512E+03  0.49374082825E+03  0.15294330000E+03 0.  0.
    8880022    1    1    2    0    0 -0.43100736074E+03  0.55184500841E+02 -0.20310247279E+04  0.20826103266E+04  0.15294330000E+03 0.  0.
<mgrwt>
<rscale>  0 0.46065641E+03</rscale>
<asrwt>0</asrwt>
<pdfrwt beam="1">  1        2 0.36808239E+00 0.46065641E+03</pdfrwt>
<pdfrwt beam="2">  1       -2 0.28279306E-01 0.46065641E+03</pdfrwt>
<totfact> 0.50059911E+01</totfact>
</mgrwt>
</event>
<event>
 4    1  0.2061941E-008  0.1029154E+04  0.7818608E-02  0.9277134E-01
          2   -1    0    0  501    0  0.00000000000E+00  0.00000000000E+00  0.14440696624E+04  0.14440696624E+04  0.25500000000E-02 0. -1.
         -2   -1    0    0    0  501 -0.00000000000E+00 -0.00000000000E+00 -0.26922508992E+04  0.26922508992E+04  0.25500000000E-02 0.  1.
    8880022    1    1    2    0    0 -0.11306982155E+03  0.10114258596E+04  0.11400009692E+04  0.15358258094E+04  0.15294330000E+03 0.  0.
    8880022    1    1    2    0    0  0.11306982155E+03 -0.10114258596E+04 -0.23881822061E+04  0.26004947522E+04  0.15294330000E+03 0.  0.
<mgrwt>
<rscale>  0 0.10291544E+04</rscale>
<asrwt>0</asrwt>
<pdfrwt beam="1">  1        2 0.22216456E+00 0.10291544E+04</pdfrwt>
<pdfrwt beam="2">  1       -2 0.41419245E+00 0.10291544E+04</pdfrwt>
<totfact> 0.82857465E-02</totfact>
</mgrwt>
</event>
<event>
 4    1  0.2061941E-008  0.7364312E+03  0.7818608E-02  0.9656881E-01
          2   -1    0    0  501    0  0.00000000000E+00  0.00000000000E+00  0.21250707117E+04  0.21250707117E+04  0.25500000000E-02 0. -1.
         -2   -1    0    0    0  501 -0.00000000000E+00 -0.00000000000E+00 -0.38194330359E+03  0.38194330360E+03  0.25500000000E-02 0.  1.
    8880022    1    1    2    0    0  0.72023186395E+03 -0.14331437669E+02  0.15936338651E+04  0.17555625529E+04  0.15294330000E+03 0.  0.
    8880022    1    1    2    0    0 -0.72023186395E+03  0.14331437669E+02  0.14949354297E+03  0.75145146241E+03  0.15294330000E+03 0.  0.
<mgrwt>
<rscale>  0 0.73643125E+03</rscale>
<asrwt>0</asrwt>
<pdfrwt beam="1">  1        2 0.32693396E+00 0.73643125E+03</pdfrwt>
<pdfrwt beam="2">  1       -2 0.58760508E-01 0.73643125E+03</pdfrwt>
<totfact> 0.16008305E+01</totfact>
</mgrwt>
</event>
<event>
 4    1  0.2061941E-008  0.8968373E+03  0.7818608E-02  0.9429544E-01
          2   -1    0    0  501    0  0.00000000000E+00  0.00000000000E+00  0.25957440115E+04  0.25957440115E+04  0.25500000000E-02 0. -1.
         -2   -1    0    0    0  501 -0.00000000000E+00 -0.00000000000E+00 -0.39689021215E+03  0.39689021216E+03  0.25500000000E-02 0.  1.
    8880022    1    1    2    0    0 -0.68202726607E+03  0.56192902626E+03  0.18001132012E+04  0.20111500720E+04  0.15294330000E+03 0.  0.
    8880022    1    1    2    0    0  0.68202726607E+03 -0.56192902626E+03  0.39874059817E+03  0.98148415161E+03  0.15294330000E+03 0.  0.
<mgrwt>
<rscale>  0 0.89683726E+03</rscale>
<asrwt>0</asrwt>
<pdfrwt beam="1">  1        2 0.39934521E+00 0.89683726E+03</pdfrwt>
<pdfrwt beam="2">  1       -2 0.61060035E-01 0.89683726E+03</pdfrwt>
<totfact> 0.78508098E+00</totfact>
</mgrwt>
</event>
<event>
 4    1  0.2061941E-008  0.5649844E+03  0.7818608E-02  0.9980839E-01
          2   -1    0    0  501    0  0.00000000000E+00  0.00000000000E+00  0.32605950875E+04  0.32605950875E+04  0.25500000000E-02 0. -1.
         -2   -1    0    0    0  501 -0.00000000000E+00 -0.00000000000E+00 -0.20573225273E+03  0.20573225275E+03  0.25500000000E-02 0.  1.
    8880022    1    1    2    0    0 -0.52876316694E+03  0.12737842291E+03  0.27265680024E+03  0.62733494488E+03  0.15294330000E+03 0.  0.
    8880022    1    1    2    0    0  0.52876316694E+03 -0.12737842291E+03  0.27822060345E+04  0.28389923953E+04  0.15294330000E+03 0.  0.
<mgrwt>
<rscale>  0 0.56498443E+03</rscale>
<asrwt>0</asrwt>
<pdfrwt beam="1">  1        2 0.50162998E+00 0.56498443E+03</pdfrwt>
<pdfrwt beam="2">  1       -2 0.31651118E-01 0.56498443E+03</pdfrwt>
<totfact> 0.12212197E+01</totfact>
</mgrwt>
</event>
<event>
 4    1  0.2061941E-008  0.8117282E+03  0.7818608E-02  0.9543194E-01
         -2   -1    0    0    0  501 -0.00000000000E+00  0.00000000000E+00  0.62148394743E+03  0.62148394743E+03  0.25500000000E-02 0.  1.
          2   -1    0    0  501    0  0.00000000000E+00 -0.00000000000E+00 -0.31594081720E+04  0.31594081720E+04  0.25500000000E-02 0. -1.
    8880022    1    1    2    0    0 -0.75654318958E+03 -0.25130354100E+03  0.27198690556E+03  0.85608387278E+03  0.15294330000E+03 0.  0.
    8880022    1    1    2    0    0  0.75654318958E+03  0.25130354100E+03 -0.28099111301E+04  0.29248082466E+04  0.15294330000E+03 0.  0.
<mgrwt>
<rscale>  0 0.81172823E+03</rscale>
<asrwt>0</asrwt>
<pdfrwt beam="1">  1        2 0.48606279E+00 0.81172823E+03</pdfrwt>
<pdfrwt beam="2">  1       -2 0.95612917E-01 0.81172823E+03</pdfrwt>
<totfact> 0.13409619E+00</totfact>
</mgrwt>
</event>
<event>
 4    1  0.2061941E-008  0.5871549E+03  0.7818608E-02  0.9932420E-01
         -2   -1    0    0    0  501 -0.00000000000E+00  0.00000000000E+00  0.91872810186E+03  0.91872810187E+03  0.25500000000E-02 0.  1.
          2   -1    0    0  501    0  0.00000000000E+00 -0.00000000000E+00 -0.21296350287E+04  0.21296350287E+04  0.25500000000E-02 0. -1.
    8880022    1    1    2    0    0  0.27114150801E+03 -0.49783687571E+03  0.77794348051E+03  0.97465223750E+03  0.15294330000E+03 0.  0.
    8880022    1    1    2    0    0 -0.27114150801E+03  0.49783687571E+03 -0.19888504073E+04  0.20737108930E+04  0.15294330000E+03 0.  0.
<mgrwt>
<rscale>  0 0.58715494E+03</rscale>
<asrwt>0</asrwt>
<pdfrwt beam="1">  1        2 0.32763616E+00 0.58715494E+03</pdfrwt>
<pdfrwt beam="2">  1       -2 0.14134279E+00 0.58715494E+03</pdfrwt>
<totfact> 0.21352667E+00</totfact>
</mgrwt>
</event>
<event>
 4    1  0.2061941E-008  0.1161218E+04  0.7818608E-02  0.9147496E-01
          2   -1    0    0  501    0  0.00000000000E+00  0.00000000000E+00  0.23561341550E+04  0.23561341550E+04  0.25500000000E-02 0. -1.
         -2   -1    0    0    0  501 -0.00000000000E+00 -0.00000000000E+00 -0.31374521350E+04  0.31374521350E+04  0.25500000000E-02 0.  1.
    8880022    1    1    2    0    0 -0.75209670723E+02  0.11486424311E+04 -0.28743269386E+04  0.31000295051E+04  0.15294330000E+03 0.  0.
    8880022    1    1    2    0    0  0.75209670723E+02 -0.11486424311E+04  0.20930089586E+04  0.23935567849E+04  0.15294330000E+03 0.  0.
<mgrwt>
<rscale>  0 0.11612181E+04</rscale>
<asrwt>0</asrwt>
<pdfrwt beam="1">  1        2 0.36248218E+00 0.11612181E+04</pdfrwt>
<pdfrwt beam="2">  1       -2 0.48268495E+00 0.11612181E+04</pdfrwt>
<totfact> 0.88527410E-03</totfact>
</mgrwt>
</event>
<event>
 4    1  0.2061941E-008  0.4858143E+03  0.7818608E-02  0.1017549E+00
          2   -1    0    0  501    0  0.00000000000E+00  0.00000000000E+00  0.50491692918E+04  0.50491692918E+04  0.25500000000E-02 0. -1.
         -2   -1    0    0    0  501 -0.00000000000E+00 -0.00000000000E+00 -0.67455594934E+02  0.67455594982E+02  0.25500000000E-02 0.  1.
    8880022    1    1    2    0    0  0.31630500022E+03 -0.33552198796E+03  0.39084685940E+04  0.39385457037E+04  0.15294330000E+03 0.  0.
    8880022    1    1    2    0    0 -0.31630500022E+03  0.33552198796E+03  0.10732451029E+04  0.11780791831E+04  0.15294330000E+03 0.  0.
<mgrwt>
<rscale>  0 0.48581428E+03</rscale>
<asrwt>0</asrwt>
<pdfrwt beam="1">  1        2 0.77679526E+00 0.48581428E+03</pdfrwt>
<pdfrwt beam="2">  1       -2 0.10377784E-01 0.48581428E+03</pdfrwt>
<totfact> 0.24570323E+00</totfact>
</mgrwt>
</event>
<event>
 4    1  0.2061941E-008  0.1375695E+04  0.7818608E-02  0.8971602E-01
         -2   -1    0    0    0  501 -0.00000000000E+00  0.00000000000E+00  0.94571887974E+03  0.94571887974E+03  0.25500000000E-02 0.  1.
          2   -1    0    0  501    0  0.00000000000E+00 -0.00000000000E+00 -0.28212281932E+04  0.28212281932E+04  0.25500000000E-02 0. -1.
    8880022    1    1    2    0    0  0.19324097085E+03  0.13534415644E+04  0.77709406901E+02  0.13778884375E+04  0.15294330000E+03 0.  0.
    8880022    1    1    2    0    0 -0.19324097085E+03 -0.13534415644E+04 -0.19532187203E+04  0.23890586354E+04  0.15294330000E+03 0.  0.
<mgrwt>
<rscale>  0 0.13756954E+04</rscale>
<asrwt>0</asrwt>
<pdfrwt beam="1">  1        2 0.43403510E+00 0.13756954E+04</pdfrwt>
<pdfrwt beam="2">  1       -2 0.14549521E+00 0.13756954E+04</pdfrwt>
<totfact> 0.70032028E-01</totfact>
</mgrwt>
</event>
<event>
 4    1  0.2061941E-008  0.8034906E+03  0.7818608E-02  0.9554978E-01
         -2   -1    0    0    0  501 -0.00000000000E+00  0.00000000000E+00  0.19993707539E+04  0.19993707539E+04  0.25500000000E-02 0.  1.
          2   -1    0    0  501    0  0.00000000000E+00 -0.00000000000E+00 -0.64519266376E+03  0.64519266377E+03  0.25500000000E-02 0. -1.
    8880022    1    1    2    0    0  0.53142153796E+03 -0.58292081827E+03 -0.25746488049E+03  0.84373298447E+03  0.15294330000E+03 0.  0.
    8880022    1    1    2    0    0 -0.53142153796E+03  0.58292081827E+03  0.16116429707E+04  0.18008304332E+04  0.15294330000E+03 0.  0.
<mgrwt>
<rscale>  0 0.80349062E+03</rscale>
<asrwt>0</asrwt>
<pdfrwt beam="1">  1        2 0.99260410E-01 0.80349062E+03</pdfrwt>
<pdfrwt beam="2">  1       -2 0.30759550E+00 0.80349062E+03</pdfrwt>
<totfact> 0.13414255E+00</totfact>
</mgrwt>
</event>
<event>
 4    1  0.2061941E-008  0.1064847E+04  0.7818608E-02  0.9240149E-01
         -2   -1    0    0    0  501 -0.00000000000E+00  0.00000000000E+00  0.87509087167E+03  0.87509087168E+03  0.25500000000E-02 0.  1.
          2   -1    0    0  501    0  0.00000000000E+00 -0.00000000000E+00 -0.13989264273E+04  0.13989264273E+04  0.25500000000E-02 0. -1.
    8880022    1    1    2    0    0  0.10101232121E+04 -0.30026319824E+03 -0.57070382003E+03  0.12081396422E+04  0.15294330000E+03 0.  0.
    8880022    1    1    2    0    0 -0.10101232121E+04  0.30026319824E+03  0.46868264435E+02  0.10658776567E+04  0.15294330000E+03 0.  0.
<mgrwt>
<rscale>  0 0.10648467E+04</rscale>
<asrwt>0</asrwt>
<pdfrwt beam="1">  1        2 0.21521945E+00 0.10648467E+04</pdfrwt>
<pdfrwt beam="2">  1       -2 0.13462936E+00 0.10648467E+04</pdfrwt>
<totfact> 0.56765693E+00</totfact>
</mgrwt>
</event>
<event>
 4    1  0.2061941E-008  0.5464805E+03  0.7818608E-02  0.1002312E+00
          2   -1    0    0  501    0  0.00000000000E+00  0.00000000000E+00  0.39906475949E+04  0.39906475949E+04  0.25500000000E-02 0. -1.
         -2   -1    0    0    0  501 -0.00000000000E+00 -0.00000000000E+00 -0.11341849203E+04  0.11341849203E+04  0.25500000000E-02 0.  1.
    8880022    1    1    2    0    0  0.33309833311E+02  0.52358355125E+03  0.39046691334E+04  0.39427251964E+04  0.15294330000E+03 0.  0.
    8880022    1    1    2    0    0 -0.33309833311E+02 -0.52358355125E+03 -0.10482064587E+04  0.11821073189E+04  0.15294330000E+03 0.  0.
<mgrwt>
<rscale>  0 0.54648050E+03</rscale>
<asrwt>0</asrwt>
<pdfrwt beam="1">  1        2 0.61394579E+00 0.54648050E+03</pdfrwt>
<pdfrwt beam="2">  1       -2 0.17448998E+00 0.54648050E+03</pdfrwt>
<totfact> 0.83030782E-02</totfact>
</mgrwt>
</event>
<event>
 4    1  0.2588300E-008  0.1180404E+04  0.7818608E-02  0.9130183E-01
         -2   -1    0    0    0  501 -0.00000000000E+00  0.00000000000E+00  0.12203272362E+04  0.12203272362E+04  0.25500000000E-02 0.  1.
          2   -1    0    0  501    0  0.00000000000E+00 -0.00000000000E+00 -0.38439062378E+04  0.38439062378E+04  0.25500000000E-02 0. -1.
    8880022    1    1    2    0    0 -0.11110046469E+04  0.36828207521E+03  0.81120821594E+03  0.14322756142E+04  0.15294330000E+03 0.  0.
    8880022    1    1    2    0    0  0.11110046469E+04 -0.36828207521E+03 -0.34347872176E+04  0.36319578598E+04  0.15294330000E+03 0.  0.
<mgrwt>
<rscale>  0 0.11804044E+04</rscale>
<asrwt>0</asrwt>
<pdfrwt beam="1">  1        2 0.59137019E+00 0.11804044E+04</pdfrwt>
<pdfrwt beam="2">  1       -2 0.18774265E+00 0.11804044E+04</pdfrwt>
<totfact> 0.73336817E-02</totfact>
</mgrwt>
</event>
<event>
 4    1  0.2061941E-008  0.1161374E+04  0.7818608E-02  0.9147354E-01
          2   -1    0    0  501    0  0.00000000000E+00  0.00000000000E+00  0.12090044882E+04  0.12090044882E+04  0.25500000000E-02 0. -1.
         -2   -1    0    0    0  501 -0.00000000000E+00 -0.00000000000E+00 -0.18527135223E+04  0.18527135223E+04  0.25500000000E-02 0.  1.
    8880022    1    1    2    0    0  0.69933970854E+03 -0.91450674568E+03 -0.12874432484E+04  0.17338686187E+04  0.15294330000E+03 0.  0.
    8880022    1    1    2    0    0 -0.69933970854E+03  0.91450674568E+03  0.64373421427E+03  0.13278493919E+04  0.15294330000E+03 0.  0.
<mgrwt>
<rscale>  0 0.11613743E+04</rscale>
<asrwt>0</asrwt>
<pdfrwt beam="1">  1        2 0.18600069E+00 0.11613743E+04</pdfrwt>
<pdfrwt beam="2">  1       -2 0.28503285E+00 0.11613743E+04</pdfrwt>
<totfact> 0.71931218E-01</totfact>
</mgrwt>
</event>
<event>
 4    1  0.2061941E-008  0.4650405E+03  0.7818608E-02  0.1023329E+00
          2   -1    0    0  501    0  0.00000000000E+00  0.00000000000E+00  0.70520644732E+03  0.70520644732E+03  0.25500000000E-02 0. -1.
         -2   -1    0    0    0  501 -0.00000000000E+00 -0.00000000000E+00 -0.65676264205E+03  0.65676264206E+03  0.25500000000E-02 0.  1.
    8880022    1    1    2    0    0  0.22904876086E+03  0.37471018430E+03  0.52141732567E+03  0.69866926194E+03  0.15294330000E+03 0.  0.
    8880022    1    1    2    0    0 -0.22904876086E+03 -0.37471018430E+03 -0.47297352040E+03  0.66329982744E+03  0.15294330000E+03 0.  0.
<mgrwt>
<rscale>  0 0.46504055E+03</rscale>
<asrwt>0</asrwt>
<pdfrwt beam="1">  1        2 0.10849330E+00 0.46504055E+03</pdfrwt>
<pdfrwt beam="2">  1       -2 0.10104041E+00 0.46504055E+03</pdfrwt>
<totfact> 0.34150750E+01</totfact>
</mgrwt>
</event>
<event>
 4    1  0.2061941E-008  0.5391502E+03  0.7818608E-02  0.1004037E+00
         -2   -1    0    0    0  501 -0.00000000000E+00  0.00000000000E+00  0.16859840362E+03  0.16859840364E+03  0.25500000000E-02 0.  1.
          2   -1    0    0  501    0  0.00000000000E+00 -0.00000000000E+00 -0.32972700367E+04  0.32972700367E+04  0.25500000000E-02 0. -1.
    8880022    1    1    2    0    0  0.14631982700E+03  0.49586468683E+03 -0.36734541561E+03  0.65239986726E+03  0.15294330000E+03 0.  0.
    8880022    1    1    2    0    0 -0.14631982700E+03 -0.49586468683E+03 -0.27613262175E+04  0.28134685731E+04  0.15294330000E+03 0.  0.
<mgrwt>
<rscale>  0 0.53915019E+03</rscale>
<asrwt>0</asrwt>
<pdfrwt beam="1">  1        2 0.50727227E+00 0.53915019E+03</pdfrwt>
<pdfrwt beam="2">  1       -2 0.25938218E-01 0.53915019E+03</pdfrwt>
<totfact> 0.16770538E+01</totfact>
</mgrwt>
</event>
<event>
 4    1  0.2061941E-008  0.5056419E+03  0.7818608E-02  0.1012317E+00
          2   -1    0    0  501    0  0.00000000000E+00  0.00000000000E+00  0.13767903361E+04  0.13767903361E+04  0.25500000000E-02 0. -1.
         -2   -1    0    0    0  501 -0.00000000000E+00 -0.00000000000E+00 -0.22723141310E+03  0.22723141311E+03  0.25500000000E-02 0.  1.
    8880022    1    1    2    0    0  0.34416982259E+03  0.33738579754E+03  0.23191674790E+03  0.55629045842E+03  0.15294330000E+03 0.  1.
    8880022    1    1    2    0    0 -0.34416982259E+03 -0.33738579754E+03  0.91764217513E+03  0.10477312908E+04  0.15294330000E+03 0.  0.
<mgrwt>
<rscale>  0 0.50564187E+03</rscale>
<asrwt>0</asrwt>
<pdfrwt beam="1">  1        2 0.21181389E+00 0.50564187E+03</pdfrwt>
<pdfrwt beam="2">  1       -2 0.34958680E-01 0.50564187E+03</pdfrwt>
<totfact> 0.11928959E+02</totfact>
</mgrwt>
</event>
<event>
 4    1  0.2061941E-008  0.1096026E+04  0.7818608E-02  0.9209074E-01
         -2   -1    0    0    0  501 -0.00000000000E+00  0.00000000000E+00  0.49427119709E+03  0.49427119709E+03  0.25500000000E-02 0.  1.
          2   -1    0    0  501    0  0.00000000000E+00 -0.00000000000E+00 -0.27142987477E+04  0.27142987477E+04  0.25500000000E-02 0. -1.
    8880022    1    1    2    0    0 -0.10833519288E+04  0.65037898860E+02 -0.59116570033E+03  0.12452910777E+04  0.15294330000E+03 0.  0.
    8880022    1    1    2    0    0  0.10833519288E+04 -0.65037898860E+02 -0.16288618503E+04  0.19632788672E+04  0.15294330000E+03 0.  0.
<mgrwt>
<rscale>  0 0.10960260E+04</rscale>
<asrwt>0</asrwt>
<pdfrwt beam="1">  1        2 0.41758441E+00 0.10960260E+04</pdfrwt>
<pdfrwt beam="2">  1       -2 0.76041724E-01 0.10960260E+04</pdfrwt>
<totfact> 0.40408261E+00</totfact>
</mgrwt>
</event>
<event>
 4    1  0.2061941E-008  0.8579372E+03  0.7818608E-02  0.9479745E-01
         -2   -1    0    0    0  501 -0.00000000000E+00  0.00000000000E+00  0.12772562430E+04  0.12772562430E+04  0.25500000000E-02 0.  1.
          2   -1    0    0  501    0  0.00000000000E+00 -0.00000000000E+00 -0.24939441779E+04  0.24939441779E+04  0.25500000000E-02 0. -1.
    8880022    1    1    2    0    0 -0.21637596191E+02 -0.84391734260E+03  0.10451119172E+04  0.13521520769E+04  0.15294330000E+03 0.  0.
    8880022    1    1    2    0    0  0.21637596191E+02  0.84391734260E+03 -0.22617998520E+04  0.24190483440E+04  0.15294330000E+03 0.  0.
<mgrwt>
<rscale>  0 0.85793725E+03</rscale>
<asrwt>0</asrwt>
<pdfrwt beam="1">  1        2 0.38368372E+00 0.85793725E+03</pdfrwt>
<pdfrwt beam="2">  1       -2 0.19650096E+00 0.85793725E+03</pdfrwt>
<totfact> 0.50855785E-01</totfact>
</mgrwt>
</event>
<event>
 4    1  0.2061941E-008  0.1960059E+04  0.7818608E-02  0.8625525E-01
         -2   -1    0    0    0  501 -0.00000000000E+00  0.00000000000E+00  0.13704386491E+04  0.13704386491E+04  0.25500000000E-02 0.  1.
          2   -1    0    0  501    0  0.00000000000E+00 -0.00000000000E+00 -0.31148822052E+04  0.31148822053E+04  0.25500000000E-02 0. -1.
    8880022    1    1    2    0    0  0.19388311690E+04  0.24366777778E+03 -0.16299080495E+03  0.19668243296E+04  0.15294330000E+03 0.  0.
    8880022    1    1    2    0    0 -0.19388311690E+04 -0.24366777778E+03 -0.15814527512E+04  0.25184965248E+04  0.15294330000E+03 0.  0.
<mgrwt>
<rscale>  0 0.19600592E+04</rscale>
<asrwt>0</asrwt>
<pdfrwt beam="1">  1        2 0.47921265E+00 0.19600592E+04</pdfrwt>
<pdfrwt beam="2">  1       -2 0.21083672E+00 0.19600592E+04</pdfrwt>
<totfact> 0.14913332E-01</totfact>
</mgrwt>
</event>
<event>
 4    1  0.2061941E-008  0.5969780E+03  0.7818608E-02  0.9911696E-01
          2   -1    0    0  501    0  0.00000000000E+00  0.00000000000E+00  0.79700596544E+03  0.79700596545E+03  0.25500000000E-02 0. -1.
         -2   -1    0    0    0  501 -0.00000000000E+00 -0.00000000000E+00 -0.19628451144E+04  0.19628451144E+04  0.25500000000E-02 0.  1.
    8880022    1    1    2    0    0  0.42591098579E+03  0.38934676465E+03  0.62968245741E+03  0.86768814741E+03  0.15294330000E+03 0.  0.
    8880022    1    1    2    0    0 -0.42591098579E+03 -0.38934676465E+03 -0.17955216063E+04  0.18921629324E+04  0.15294330000E+03 0.  0.
<mgrwt>
<rscale>  0 0.59697799E+03</rscale>
<asrwt>0</asrwt>
<pdfrwt beam="1">  1        2 0.12261630E+00 0.59697799E+03</pdfrwt>
<pdfrwt beam="2">  1       -2 0.30197617E+00 0.59697799E+03</pdfrwt>
<totfact> 0.11531026E+00</totfact>
</mgrwt>
</event>
<event>
 4    1  0.2061941E-008  0.4053739E+03  0.7818608E-02  0.1041935E+00
         -2   -1    0    0    0  501 -0.00000000000E+00  0.00000000000E+00  0.62754984255E+03  0.62754984256E+03  0.25500000000E-02 0.  1.
          2   -1    0    0  501    0  0.00000000000E+00 -0.00000000000E+00 -0.17406695863E+04  0.17406695863E+04  0.25500000000E-02 0. -1.
    8880022    1    1    2    0    0 -0.32391491689E+02 -0.37401488821E+03 -0.16479761268E+04  0.16971014445E+04  0.15294330000E+03 0.  0.
    8880022    1    1    2    0    0  0.32391491689E+02  0.37401488821E+03  0.53485638310E+03  0.67111798433E+03  0.15294330000E+03 0.  0.
<mgrwt>
<rscale>  0 0.40537390E+03</rscale>
<asrwt>0</asrwt>
<pdfrwt beam="1">  1        2 0.26779532E+00 0.40537390E+03</pdfrwt>
<pdfrwt beam="2">  1       -2 0.96546130E-01 0.40537390E+03</pdfrwt>
<totfact> 0.92113095E+00</totfact>
</mgrwt>
</event>
<event>
 4    1  0.2061941E-008  0.7191165E+03  0.7818608E-02  0.9685088E-01
          2   -1    0    0  501    0  0.00000000000E+00  0.00000000000E+00  0.17658643036E+04  0.17658643036E+04  0.25500000000E-02 0. -1.
         -2   -1    0    0    0  501 -0.00000000000E+00 -0.00000000000E+00 -0.37589779283E+03  0.37589779284E+03  0.25500000000E-02 0.  1.
    8880022    1    1    2    0    0 -0.70214823948E+03  0.26920148068E+02  0.19162453847E+03  0.74420995783E+03  0.15294330000E+03 0.  0.
    8880022    1    1    2    0    0  0.70214823948E+03 -0.26920148068E+02  0.11983419723E+04  0.13975521386E+04  0.15294330000E+03 0.  0.
<mgrwt>
<rscale>  0 0.71911647E+03</rscale>
<asrwt>0</asrwt>
<pdfrwt beam="1">  1        2 0.27167143E+00 0.71911647E+03</pdfrwt>
<pdfrwt beam="2">  1       -2 0.57830430E-01 0.71911647E+03</pdfrwt>
<totfact> 0.26051028E+01</totfact>
</mgrwt>
</event>
<event>
 4    1  0.2061941E-008  0.8202745E+03  0.7818608E-02  0.9531126E-01
         -2   -1    0    0    0  501 -0.00000000000E+00  0.00000000000E+00  0.17073870615E+04  0.17073870615E+04  0.25500000000E-02 0.  1.
          2   -1    0    0  501    0  0.00000000000E+00 -0.00000000000E+00 -0.88828329712E+03  0.88828329712E+03  0.25500000000E-02 0. -1.
    8880022    1    1    2    0    0  0.63167122333E+03 -0.50044988418E+03  0.13775974364E+04  0.16033168653E+04  0.15294330000E+03 0.  0.
    8880022    1    1    2    0    0 -0.63167122333E+03  0.50044988418E+03 -0.55849367199E+03  0.99235349328E+03  0.15294330000E+03 0.  0.
<mgrwt>
<rscale>  0 0.82027451E+03</rscale>
<asrwt>0</asrwt>
<pdfrwt beam="1">  1        2 0.13665897E+00 0.82027451E+03</pdfrwt>
<pdfrwt beam="2">  1       -2 0.26267493E+00 0.82027451E+03</pdfrwt>
<totfact> 0.16430654E+00</totfact>
</mgrwt>
</event>
<event>
 4    1  0.2061941E-008  0.8476261E+03  0.7818608E-02  0.9493529E-01
         -2   -1    0    0    0  501 -0.00000000000E+00  0.00000000000E+00  0.37267283229E+03  0.37267283230E+03  0.25500000000E-02 0.  1.
          2   -1    0    0  501    0  0.00000000000E+00 -0.00000000000E+00 -0.34158985883E+04  0.34158985883E+04  0.25500000000E-02 0. -1.
    8880022    1    1    2    0    0  0.83094301146E+03  0.67912299149E+02 -0.27718620657E+04  0.28985667722E+04  0.15294330000E+03 0.  0.
    8880022    1    1    2    0    0 -0.83094301146E+03 -0.67912299149E+02 -0.27136369025E+03  0.89000464834E+03  0.15294330000E+03 0.  0.
<mgrwt>
<rscale>  0 0.84762611E+03</rscale>
<asrwt>0</asrwt>
<pdfrwt beam="1">  1        2 0.52552284E+00 0.84762611E+03</pdfrwt>
<pdfrwt beam="2">  1       -2 0.57334284E-01 0.84762611E+03</pdfrwt>
<totfact> 0.28140753E+00</totfact>
</mgrwt>
</event>
<event>
 4    1  0.2061941E-008  0.9488206E+03  0.7818608E-02  0.9366530E-01
          2   -1    0    0  501    0  0.00000000000E+00  0.00000000000E+00  0.16656592601E+04  0.16656592602E+04  0.25500000000E-02 0. -1.
         -2   -1    0    0    0  501 -0.00000000000E+00 -0.00000000000E+00 -0.10210099682E+04  0.10210099682E+04  0.25500000000E-02 0.  1.
    8880022    1    1    2    0    0 -0.50470810715E+03 -0.78875762096E+03  0.12438941572E+04  0.15644593908E+04  0.15294330000E+03 0.  0.
    8880022    1    1    2    0    0  0.50470810715E+03  0.78875762096E+03 -0.59924486518E+03  0.11222098376E+04  0.15294330000E+03 0.  1.
<mgrwt>
<rscale>  0 0.94882059E+03</rscale>
<asrwt>0</asrwt>
<pdfrwt beam="1">  1        2 0.25625527E+00 0.94882059E+03</pdfrwt>
<pdfrwt beam="2">  1       -2 0.15707846E+00 0.94882059E+03</pdfrwt>
<totfact> 0.27153555E+00</totfact>
</mgrwt>
</event>
<event>
 4    1  0.2061941E-008  0.1115136E+04  0.7818608E-02  0.9190563E-01
          2   -1    0    0  501    0  0.00000000000E+00  0.00000000000E+00  0.33220652263E+04  0.33220652263E+04  0.25500000000E-02 0. -1.
         -2   -1    0    0    0  501 -0.00000000000E+00 -0.00000000000E+00 -0.86912582428E+03  0.86912582428E+03  0.25500000000E-02 0.  1.
    8880022    1    1    2    0    0 -0.78339240022E+03 -0.77873824643E+03  0.28076514957E+04  0.30209990870E+04  0.15294330000E+03 0.  0.
    8880022    1    1    2    0    0  0.78339240022E+03  0.77873824643E+03 -0.35471209371E+03  0.11701919636E+04  0.15294330000E+03 0.  0.
<mgrwt>
<rscale>  0 0.11151361E+04</rscale>
<asrwt>0</asrwt>
<pdfrwt beam="1">  1        2 0.51108696E+00 0.11151361E+04</pdfrwt>
<pdfrwt beam="2">  1       -2 0.13371166E+00 0.11151361E+04</pdfrwt>
<totfact> 0.43775770E-01</totfact>
</mgrwt>
</event>
<event>
 4    1  0.2061941E-008  0.8406823E+03  0.7818608E-02  0.9502929E-01
          2   -1    0    0  501    0  0.00000000000E+00  0.00000000000E+00  0.26036151865E+04  0.26036151865E+04  0.25500000000E-02 0. -1.
         -2   -1    0    0    0  501 -0.00000000000E+00 -0.00000000000E+00 -0.35799038678E+03  0.35799038678E+03  0.25500000000E-02 0.  1.
    8880022    1    1    2    0    0 -0.32039440915E+03  0.76203838007E+03  0.18508862088E+04  0.20328616483E+04  0.15294330000E+03 0.  0.
    8880022    1    1    2    0    0  0.32039440915E+03 -0.76203838007E+03  0.39473859098E+03  0.92874392506E+03  0.15294330000E+03 0.  0.
<mgrwt>
<rscale>  0 0.84068230E+03</rscale>
<asrwt>0</asrwt>
<pdfrwt beam="1">  1        2 0.40055618E+00 0.84068230E+03</pdfrwt>
<pdfrwt beam="2">  1       -2 0.55075444E-01 0.84068230E+03</pdfrwt>
<totfact> 0.97301372E+00</totfact>
</mgrwt>
</event>
<event>
 4    1  0.2061941E-008  0.1235499E+04  0.7818608E-02  0.9082340E-01
         -2   -1    0    0    0  501 -0.00000000000E+00  0.00000000000E+00  0.10143451531E+04  0.10143451531E+04  0.25500000000E-02 0.  1.
          2   -1    0    0  501    0  0.00000000000E+00 -0.00000000000E+00 -0.34733810732E+04  0.34733810732E+04  0.25500000000E-02 0. -1.
    8880022    1    1    2    0    0  0.53124266641E+03 -0.11049195373E+04 -0.29187490726E+04  0.31694721573E+04  0.15294330000E+03 0.  0.
    8880022    1    1    2    0    0 -0.53124266641E+03  0.11049195373E+04  0.45971315246E+03  0.13182540689E+04  0.15294330000E+03 0.  0.
<mgrwt>
<rscale>  0 0.12354989E+04</rscale>
<asrwt>0</asrwt>
<pdfrwt beam="1">  1        2 0.53436631E+00 0.12354989E+04</pdfrwt>
<pdfrwt beam="2">  1       -2 0.15605310E+00 0.12354989E+04</pdfrwt>
<totfact> 0.22600076E-01</totfact>
</mgrwt>
</event>
<event>
 4    1  0.2061941E-008  0.3166503E+03  0.7818608E-02  0.1077201E+00
         -2   -1    0    0    0  501 -0.00000000000E+00  0.00000000000E+00  0.18084126259E+03  0.18084126260E+03  0.25500000000E-02 0.  1.
          2   -1    0    0  501    0  0.00000000000E+00 -0.00000000000E+00 -0.23085045663E+04  0.23085045663E+04  0.25500000000E-02 0. -1.
    8880022    1    1    2    0    0  0.12588388485E+03  0.24704050292E+03  0.21122622411E+02  0.31735403061E+03  0.15294330000E+03 0.  0.
    8880022    1    1    2    0    0 -0.12588388485E+03 -0.24704050292E+03 -0.21487859261E+04  0.21719917983E+04  0.15294330000E+03 0.  0.
<mgrwt>
<rscale>  0 0.31665030E+03</rscale>
<asrwt>0</asrwt>
<pdfrwt beam="1">  1        2 0.35515453E+00 0.31665030E+03</pdfrwt>
<pdfrwt beam="2">  1       -2 0.27821734E-01 0.31665030E+03</pdfrwt>
<totfact> 0.59467391E+01</totfact>
</mgrwt>
</event>
<event>
 4    1  0.2061941E-008  0.1021416E+04  0.7818608E-02  0.9285363E-01
         -2   -1    0    0    0  501 -0.00000000000E+00  0.00000000000E+00  0.16008987351E+04  0.16008987351E+04  0.25500000000E-02 0.  1.
          2   -1    0    0  501    0  0.00000000000E+00 -0.00000000000E+00 -0.11735411333E+04  0.11735411333E+04  0.25500000000E-02 0. -1.
    8880022    1    1    2    0    0  0.13173386178E+03  0.10012719820E+04  0.11387371508E+04  0.15297102157E+04  0.15294330000E+03 0.  0.
    8880022    1    1    2    0    0 -0.13173386178E+03 -0.10012719820E+04 -0.71137954904E+03  0.12447296526E+04  0.15294330000E+03 0.  0.
<mgrwt>
<rscale>  0 0.10214162E+04</rscale>
<asrwt>0</asrwt>
<pdfrwt beam="1">  1        2 0.18054479E+00 0.10214162E+04</pdfrwt>
<pdfrwt beam="2">  1       -2 0.24629211E+00 0.10214162E+04</pdfrwt>
<totfact> 0.13222230E+00</totfact>
</mgrwt>
</event>
<event>
 4    1  0.2061941E-008  0.7554461E+03  0.7818608E-02  0.9626845E-01
         -2   -1    0    0    0  501 -0.00000000000E+00  0.00000000000E+00  0.69625635167E+03  0.69625635168E+03  0.25500000000E-02 0.  1.
          2   -1    0    0  501    0  0.00000000000E+00 -0.00000000000E+00 -0.24505803702E+04  0.24505803702E+04  0.25500000000E-02 0. -1.
    8880022    1    1    2    0    0 -0.69754656588E+03 -0.24644651707E+03 -0.21607484171E+04  0.22890025059E+04  0.15294330000E+03 0.  0.
    8880022    1    1    2    0    0  0.69754656588E+03  0.24644651707E+03  0.40642439852E+03  0.85783421596E+03  0.15294330000E+03 0.  0.
<mgrwt>
<rscale>  0 0.75544606E+03</rscale>
<asrwt>0</asrwt>
<pdfrwt beam="1">  1        2 0.37701236E+00 0.75544606E+03</pdfrwt>
<pdfrwt beam="2">  1       -2 0.10711636E+00 0.75544606E+03</pdfrwt>
<totfact> 0.27295712E+00</totfact>
</mgrwt>
</event>
<event>
 4    1  0.2061941E-008  0.4506103E+03  0.7818608E-02  0.1027540E+00
         -2   -1    0    0    0  501 -0.00000000000E+00  0.00000000000E+00  0.12134132642E+03  0.12134132644E+03  0.25500000000E-02 0.  1.
          2   -1    0    0  501    0  0.00000000000E+00 -0.00000000000E+00 -0.26582377187E+04  0.26582377187E+04  0.25500000000E-02 0. -1.
    8880022    1    1    2    0    0 -0.39903259969E+03  0.14293689058E+03 -0.42250767862E+03  0.61770734317E+03  0.15294330000E+03 0.  0.
    8880022    1    1    2    0    0  0.39903259969E+03 -0.14293689058E+03 -0.21143887137E+04  0.21618717020E+04  0.15294330000E+03 0.  0.
<mgrwt>
<rscale>  0 0.45061028E+03</rscale>
<asrwt>0</asrwt>
<pdfrwt beam="1">  1        2 0.40895961E+00 0.45061028E+03</pdfrwt>
<pdfrwt beam="2">  1       -2 0.18667898E-01 0.45061028E+03</pdfrwt>
<totfact> 0.74246610E+01</totfact>
</mgrwt>
</event>
<event>
 4    1  0.2061941E-008  0.1187252E+04  0.7818608E-02  0.9124088E-01
         -2   -1    0    0    0  501 -0.00000000000E+00  0.00000000000E+00  0.70942624758E+03  0.70942624759E+03  0.25500000000E-02 0.  1.
          2   -1    0    0  501    0  0.00000000000E+00 -0.00000000000E+00 -0.27090794647E+04  0.27090794647E+04  0.25500000000E-02 0. -1.
    8880022    1    1    2    0    0 -0.32736830656E+03  0.11309314715E+04 -0.11732735575E+03  0.11930353569E+04  0.15294330000E+03 0.  0.
    8880022    1    1    2    0    0  0.32736830656E+03 -0.11309314715E+04 -0.18823258614E+04  0.22254703554E+04  0.15294330000E+03 0.  0.
<mgrwt>
<rscale>  0 0.11872521E+04</rscale>
<asrwt>0</asrwt>
<pdfrwt beam="1">  1        2 0.41678145E+00 0.11872521E+04</pdfrwt>
<pdfrwt beam="2">  1       -2 0.10914250E+00 0.11872521E+04</pdfrwt>
<totfact> 0.17321841E+00</totfact>
</mgrwt>
</event>
<event>
 4    1  0.2061941E-008  0.4757226E+03  0.7818608E-02  0.1020317E+00
          2   -1    0    0  501    0  0.00000000000E+00  0.00000000000E+00  0.24337617136E+03  0.24337617137E+03  0.25500000000E-02 0. -1.
         -2   -1    0    0    0  501 -0.00000000000E+00 -0.00000000000E+00 -0.10773344230E+04  0.10773344230E+04  0.25500000000E-02 0.  1.
    8880022    1    1    2    0    0 -0.41206873980E+03  0.18198814272E+03 -0.66127893949E+03  0.81461759080E+03  0.15294330000E+03 0.  0.
    8880022    1    1    2    0    0  0.41206873980E+03 -0.18198814272E+03 -0.17267931216E+03  0.50609300358E+03  0.15294330000E+03 0. -1.
<mgrwt>
<rscale>  0 0.47572259E+03</rscale>
<asrwt>0</asrwt>
<pdfrwt beam="1">  1        2 0.37442488E-01 0.47572259E+03</pdfrwt>
<pdfrwt beam="2">  1       -2 0.16574375E+00 0.47572259E+03</pdfrwt>
<totfact> 0.32845477E+01</totfact>
</mgrwt>
</event>
<event>
 4    1  0.2061941E-008  0.5774432E+03  0.7818608E-02  0.9953342E-01
         -2   -1    0    0    0  501 -0.00000000000E+00  0.00000000000E+00  0.25865553697E+03  0.25865553699E+03  0.25500000000E-02 0.  1.
          2   -1    0    0  501    0  0.00000000000E+00 -0.00000000000E+00 -0.17810321432E+04  0.17810321432E+04  0.25500000000E-02 0. -1.
    8880022    1    1    2    0    0 -0.53144788908E+03 -0.16616910841E+03 -0.12971540470E+04  0.14198765109E+04  0.15294330000E+03 0.  0.
    8880022    1    1    2    0    0  0.53144788908E+03  0.16616910841E+03 -0.22522255917E+03  0.61981116929E+03  0.15294330000E+03 0.  0.
<mgrwt>
<rscale>  0 0.57744323E+03</rscale>
<asrwt>0</asrwt>
<pdfrwt beam="1">  1        2 0.27400494E+00 0.57744323E+03</pdfrwt>
<pdfrwt beam="2">  1       -2 0.39793161E-01 0.57744323E+03</pdfrwt>
<totfact> 0.55378513E+01</totfact>
</mgrwt>
</event>
<event>
 4    1  0.2061941E-008  0.7922812E+03  0.7818608E-02  0.9571257E-01
          2   -1    0    0  501    0  0.00000000000E+00  0.00000000000E+00  0.12770562750E+04  0.12770562750E+04  0.25500000000E-02 0. -1.
         -2   -1    0    0    0  501 -0.00000000000E+00 -0.00000000000E+00 -0.19139303287E+04  0.19139303287E+04  0.25500000000E-02 0.  1.
    8880022    1    1    2    0    0 -0.75967294403E+03  0.16496928453E+03  0.10570075037E+04  0.13209747774E+04  0.15294330000E+03 0.  0.
    8880022    1    1    2    0    0  0.75967294403E+03 -0.16496928453E+03 -0.16938815574E+04  0.18700118263E+04  0.15294330000E+03 0.  0.
<mgrwt>
<rscale>  0 0.79228120E+03</rscale>
<asrwt>0</asrwt>
<pdfrwt beam="1">  1        2 0.19647020E+00 0.79228120E+03</pdfrwt>
<pdfrwt beam="2">  1       -2 0.29445082E+00 0.79228120E+03</pdfrwt>
<totfact> 0.60959253E-01</totfact>
</mgrwt>
</event>
<event>
 4    1  0.2061941E-008  0.6074816E+03  0.7818608E-02  0.9890005E-01
         -2   -1    0    0    0  501 -0.00000000000E+00  0.00000000000E+00  0.63578690761E+03  0.63578690761E+03  0.25500000000E-02 0.  1.
          2   -1    0    0  501    0  0.00000000000E+00 -0.00000000000E+00 -0.87705837218E+03  0.87705837219E+03  0.25500000000E-02 0. -1.
    8880022    1    1    2    0    0  0.54760411010E+03 -0.21394385172E+03  0.31926218217E+03  0.68626687744E+03  0.15294330000E+03 0.  0.
    8880022    1    1    2    0    0 -0.54760411010E+03  0.21394385172E+03 -0.56053364675E+03  0.82657840236E+03  0.15294330000E+03 0.  0.
<mgrwt>
<rscale>  0 0.60748159E+03</rscale>
<asrwt>0</asrwt>
<pdfrwt beam="1">  1        2 0.13493206E+00 0.60748159E+03</pdfrwt>
<pdfrwt beam="2">  1       -2 0.97813370E-01 0.60748159E+03</pdfrwt>
<totfact> 0.27253602E+01</totfact>
</mgrwt>
</event>
<event>
 4    1  0.2061941E-008  0.6986884E+03  0.7818608E-02  0.9719478E-01
          2   -1    0    0  501    0  0.00000000000E+00  0.00000000000E+00  0.28375714079E+04  0.28375714079E+04  0.25500000000E-02 0. -1.
         -2   -1    0    0    0  501 -0.00000000000E+00 -0.00000000000E+00 -0.20888134610E+03  0.20888134612E+03  0.25500000000E-02 0.  1.
    8880022    1    1    2    0    0  0.16013900385E+03  0.66266829246E+03  0.67460445360E+03  0.97121397654E+03  0.15294330000E+03 0.  0.
    8880022    1    1    2    0    0 -0.16013900385E+03 -0.66266829246E+03  0.19540856082E+04  0.20752387775E+04  0.15294330000E+03 0.  0.
<mgrwt>
<rscale>  0 0.69868836E+03</rscale>
<asrwt>0</asrwt>
<pdfrwt beam="1">  1        2 0.43654942E+00 0.69868836E+03</pdfrwt>
<pdfrwt beam="2">  1       -2 0.32135594E-01 0.69868836E+03</pdfrwt>
<totfact> 0.21021490E+01</totfact>
</mgrwt>
</event>
<event>
 4    1  0.2061941E-008  0.1624516E+04  0.7818608E-02  0.8805627E-01
         -2   -1    0    0    0  501 -0.00000000000E+00  0.00000000000E+00  0.10365304282E+04  0.10365304282E+04  0.25500000000E-02 0.  1.
          2   -1    0    0  501    0  0.00000000000E+00 -0.00000000000E+00 -0.30951899831E+04  0.30951899831E+04  0.25500000000E-02 0. -1.
    8880022    1    1    2    0    0  0.15733113440E+04  0.37463448881E+03 -0.15916499970E+03  0.16322943165E+04  0.15294330000E+03 0.  0.
    8880022    1    1    2    0    0 -0.15733113440E+04 -0.37463448881E+03 -0.18994945552E+04  0.24994260949E+04  0.15294330000E+03 0.  0.
<mgrwt>
<rscale>  0 0.16245157E+04</rscale>
<asrwt>0</asrwt>
<pdfrwt beam="1">  1        2 0.47618307E+00 0.16245157E+04</pdfrwt>
<pdfrwt beam="2">  1       -2 0.15946622E+00 0.16245157E+04</pdfrwt>
<totfact> 0.35986843E-01</totfact>
</mgrwt>
</event>
<event>
 4    1  0.2061941E-008  0.9380801E+03  0.7818608E-02  0.9379193E-01
         -2   -1    0    0    0  501 -0.00000000000E+00  0.00000000000E+00  0.12274177956E+04  0.12274177956E+04  0.25500000000E-02 0.  1.
          2   -1    0    0  501    0  0.00000000000E+00 -0.00000000000E+00 -0.94014404699E+03  0.94014404699E+03  0.25500000000E-02 0. -1.
    8880022    1    1    2    0    0  0.22545205424E+03  0.89764912402E+03 -0.38442881270E+03  0.10137947246E+04  0.15294330000E+03 0.  0.
    8880022    1    1    2    0    0 -0.22545205424E+03 -0.89764912402E+03  0.67170256128E+03  0.11537671179E+04  0.15294330000E+03 0.  0.
<mgrwt>
<rscale>  0 0.93808008E+03</rscale>
<asrwt>0</asrwt>
<pdfrwt beam="1">  1        2 0.14463755E+00 0.93808008E+03</pdfrwt>
<pdfrwt beam="2">  1       -2 0.18883351E+00 0.93808008E+03</pdfrwt>
<totfact> 0.43425286E+00</totfact>
</mgrwt>
</event>
<event>
 4    1  0.2061941E-008  0.1402259E+04  0.7818608E-02  0.8952185E-01
         -2   -1    0    0    0  501 -0.00000000000E+00  0.00000000000E+00  0.16278503240E+04  0.16278503240E+04  0.25500000000E-02 0.  1.
          2   -1    0    0  501    0  0.00000000000E+00 -0.00000000000E+00 -0.29479231813E+04  0.29479231813E+04  0.25500000000E-02 0. -1.
    8880022    1    1    2    0    0 -0.46078828958E+03  0.13155279947E+04 -0.24177578675E+04  0.27949748678E+04  0.15294330000E+03 0.  0.
    8880022    1    1    2    0    0  0.46078828958E+03 -0.13155279947E+04  0.10976850103E+04  0.17807986375E+04  0.15294330000E+03 0.  0.
<mgrwt>
<rscale>  0 0.14022594E+04</rscale>
<asrwt>0</asrwt>
<pdfrwt beam="1">  1        2 0.45352664E+00 0.14022594E+04</pdfrwt>
<pdfrwt beam="2">  1       -2 0.25043851E+00 0.14022594E+04</pdfrwt>
<totfact> 0.11422973E-01</totfact>
</mgrwt>
</event>
<event>
 4    1  0.2061941E-008  0.6053508E+03  0.7818608E-02  0.9894367E-01
          2   -1    0    0  501    0  0.00000000000E+00  0.00000000000E+00  0.32490031526E+04  0.32490031526E+04  0.25500000000E-02 0. -1.
         -2   -1    0    0    0  501 -0.00000000000E+00 -0.00000000000E+00 -0.20786753897E+03  0.20786753899E+03  0.25500000000E-02 0.  1.
    8880022    1    1    2    0    0  0.17086577559E+03  0.56023460192E+03  0.35159979562E+03  0.70005142079E+03  0.15294330000E+03 0.  0.
    8880022    1    1    2    0    0 -0.17086577559E+03 -0.56023460192E+03  0.26895358180E+04  0.27568192708E+04  0.15294330000E+03 0.  0.
<mgrwt>
<rscale>  0 0.60535079E+03</rscale>
<asrwt>0</asrwt>
<pdfrwt beam="1">  1        2 0.49984663E+00 0.60535079E+03</pdfrwt>
<pdfrwt beam="2">  1       -2 0.31979622E-01 0.60535079E+03</pdfrwt>
<totfact> 0.12068303E+01</totfact>
</mgrwt>
</event>
<event>
 4    1  0.2061941E-008  0.1210964E+04  0.7818608E-02  0.9103313E-01
         -2   -1    0    0    0  501 -0.00000000000E+00  0.00000000000E+00  0.11396083596E+04  0.11396083596E+04  0.25500000000E-02 0.  1.
          2   -1    0    0  501    0  0.00000000000E+00 -0.00000000000E+00 -0.34545301230E+04  0.34545301230E+04  0.25500000000E-02 0. -1.
    8880022    1    1    2    0    0  0.83959446446E+03  0.85914153938E+03  0.66217031044E+03  0.13801826772E+04  0.15294330000E+03 0.  0.
    8880022    1    1    2    0    0 -0.83959446446E+03 -0.85914153938E+03 -0.29770920738E+04  0.32139558053E+04  0.15294330000E+03 0.  0.
<mgrwt>
<rscale>  0 0.12109644E+04</rscale>
<asrwt>0</asrwt>
<pdfrwt beam="1">  1        2 0.53146617E+00 0.12109644E+04</pdfrwt>
<pdfrwt beam="2">  1       -2 0.17532436E+00 0.12109644E+04</pdfrwt>
<totfact> 0.16928877E-01</totfact>
</mgrwt>
</event>
<event>
 4    1  0.2061941E-008  0.2342367E+03  0.7818608E-02  0.1123693E+00
          2   -1    0    0  501    0  0.00000000000E+00  0.00000000000E+00  0.19717920250E+04  0.19717920250E+04  0.25500000000E-02 0. -1.
         -2   -1    0    0    0  501 -0.00000000000E+00 -0.00000000000E+00 -0.19926763206E+03  0.19926763208E+03  0.25500000000E-02 0.  1.
    8880022    1    1    2    0    0  0.17053391250E+03  0.48921954147E+02  0.18931514233E+04  0.19075872555E+04  0.15294330000E+03 0.  0.
    8880022    1    1    2    0    0 -0.17053391250E+03 -0.48921954147E+02 -0.12062703036E+03  0.26347240155E+03  0.15294330000E+03 0.  0.
<mgrwt>
<rscale>  0 0.23423669E+03</rscale>
<asrwt>0</asrwt>
<pdfrwt beam="1">  1        2 0.30335261E+00 0.23423669E+03</pdfrwt>
<pdfrwt beam="2">  1       -2 0.30656559E-01 0.23423669E+03</pdfrwt>
<totfact> 0.77334623E+01</totfact>
</mgrwt>
</event>
<event>
 4    1  0.2061941E-008  0.8183240E+03  0.7818608E-02  0.9533866E-01
         -2   -1    0    0    0  501 -0.00000000000E+00  0.00000000000E+00  0.49693278249E+03  0.49693278249E+03  0.25500000000E-02 0.  1.
          2   -1    0    0  501    0  0.00000000000E+00 -0.00000000000E+00 -0.14294098641E+04  0.14294098641E+04  0.25500000000E-02 0. -1.
    8880022    1    1    2    0    0 -0.71164341528E+03 -0.37393342136E+03 -0.23577922355E+03  0.85161379122E+03  0.15294330000E+03 0.  0.
    8880022    1    1    2    0    0  0.71164341528E+03  0.37393342136E+03 -0.69669785804E+03  0.10747288554E+04  0.15294330000E+03 0.  0.
<mgrwt>
<rscale>  0 0.81832402E+03</rscale>
<asrwt>0</asrwt>
<pdfrwt beam="1">  1        2 0.21990921E+00 0.81832402E+03</pdfrwt>
<pdfrwt beam="2">  1       -2 0.76451198E-01 0.81832402E+03</pdfrwt>
<totfact> 0.21616175E+01</totfact>
</mgrwt>
</event>
<event>
 4    1  0.2061941E-008  0.6869201E+03  0.7818608E-02  0.9739866E-01
         -2   -1    0    0    0  501 -0.00000000000E+00  0.00000000000E+00  0.48037290761E+03  0.48037290762E+03  0.25500000000E-02 0.  1.
          2   -1    0    0  501    0  0.00000000000E+00 -0.00000000000E+00 -0.25827842271E+04  0.25827842271E+04  0.25500000000E-02 0. -1.
    8880022    1    1    2    0    0  0.64597113310E+03  0.17660378343E+03 -0.22568633997E+04  0.23590870394E+04  0.15294330000E+03 0.  0.
    8880022    1    1    2    0    0 -0.64597113310E+03 -0.17660378343E+03  0.15445208024E+03  0.70407009539E+03  0.15294330000E+03 0.  0.
<mgrwt>
<rscale>  0 0.68692012E+03</rscale>
<asrwt>0</asrwt>
<pdfrwt beam="1">  1        2 0.39735141E+00 0.68692012E+03</pdfrwt>
<pdfrwt beam="2">  1       -2 0.73903526E-01 0.68692012E+03</pdfrwt>
<totfact> 0.54723992E+00</totfact>
</mgrwt>
</event>
<event>
 4    1  0.2061941E-008  0.3078988E+03  0.7818608E-02  0.1081357E+00
          2   -1    0    0  501    0  0.00000000000E+00  0.00000000000E+00  0.31854080350E+04  0.31854080350E+04  0.25500000000E-02 0. -1.
         -2   -1    0    0    0  501 -0.00000000000E+00 -0.00000000000E+00 -0.42634324895E+02  0.42634324972E+02  0.25500000000E-02 0.  1.
    8880022    1    1    2    0    0 -0.26520003752E+03  0.32847963530E+02  0.68449471539E+03  0.75055627172E+03  0.15294330000E+03 0.  0.
    8880022    1    1    2    0    0  0.26520003752E+03 -0.32847963530E+02  0.24582789948E+04  0.24774860883E+04  0.15294330000E+03 0.  0.
<mgrwt>
<rscale>  0 0.30789885E+03</rscale>
<asrwt>0</asrwt>
<pdfrwt beam="1">  1        2 0.49006281E+00 0.30789885E+03</pdfrwt>
<pdfrwt beam="2">  1       -2 0.65591265E-02 0.30789885E+03</pdfrwt>
<totfact> 0.20548016E+02</totfact>
</mgrwt>
</event>
<event>
 4    1  0.2061941E-008  0.8518911E+03  0.7818608E-02  0.9487802E-01
         -2   -1    0    0    0  501 -0.00000000000E+00  0.00000000000E+00  0.28188510696E+04  0.28188510696E+04  0.25500000000E-02 0.  1.
          2   -1    0    0  501    0  0.00000000000E+00 -0.00000000000E+00 -0.29869368974E+03  0.29869368976E+03  0.25500000000E-02 0. -1.
    8880022    1    1    2    0    0 -0.83311955366E+03 -0.90766699398E+02  0.18392921767E+04  0.20269963366E+04  0.15294330000E+03 0.  0.
    8880022    1    1    2    0    0  0.83311955366E+03  0.90766699398E+02  0.68086520314E+03  0.10905484227E+04  0.15294330000E+03 0.  0.
<mgrwt>
<rscale>  0 0.85189109E+03</rscale>
<asrwt>0</asrwt>
<pdfrwt beam="1">  1        2 0.45952877E-01 0.85189109E+03</pdfrwt>
<pdfrwt beam="2">  1       -2 0.43366938E+00 0.85189109E+03</pdfrwt>
<totfact> 0.51396542E-01</totfact>
</mgrwt>
</event>
<event>
 4    1  0.2061941E-008  0.7987893E+03  0.7818608E-02  0.9561771E-01
         -2   -1    0    0    0  501 -0.00000000000E+00  0.00000000000E+00  0.45733602207E+03  0.45733602208E+03  0.25500000000E-02 0.  1.
          2   -1    0    0  501    0  0.00000000000E+00 -0.00000000000E+00 -0.19523881025E+04  0.19523881025E+04  0.25500000000E-02 0. -1.
    8880022    1    1    2    0    0  0.20768692518E+03  0.75600189451E+03 -0.10385434875E+03  0.80551232279E+03  0.15294330000E+03 0.  0.
    8880022    1    1    2    0    0 -0.20768692518E+03 -0.75600189451E+03 -0.13911977317E+04  0.16042118018E+04  0.15294330000E+03 0.  0.
<mgrwt>
<rscale>  0 0.79878932E+03</rscale>
<asrwt>0</asrwt>
<pdfrwt beam="1">  1        2 0.30036740E+00 0.79878932E+03</pdfrwt>
<pdfrwt beam="2">  1       -2 0.70359389E-01 0.79878932E+03</pdfrwt>
<totfact> 0.13403951E+01</totfact>
</mgrwt>
</event>
<event>
 4    1  0.2061941E-008  0.2929261E+03  0.7818608E-02  0.1088831E+00
         -2   -1    0    0    0  501 -0.00000000000E+00  0.00000000000E+00  0.17455610292E+03  0.17455610294E+03  0.25500000000E-02 0.  1.
          2   -1    0    0  501    0  0.00000000000E+00 -0.00000000000E+00 -0.25209059546E+04  0.25209059546E+04  0.25500000000E-02 0. -1.
    8880022    1    1    2    0    0  0.24859191926E+03 -0.24821676780E+02 -0.23823867648E+04  0.24003275626E+04  0.15294330000E+03 0.  0.
    8880022    1    1    2    0    0 -0.24859191926E+03  0.24821676780E+02  0.36036913105E+02  0.29513449490E+03  0.15294330000E+03 0.  0.
<mgrwt>
<rscale>  0 0.29292612E+03</rscale>
<asrwt>0</asrwt>
<pdfrwt beam="1">  1        2 0.38783166E+00 0.29292612E+03</pdfrwt>
<pdfrwt beam="2">  1       -2 0.26854787E-01 0.29292612E+03</pdfrwt>
<totfact> 0.48926855E+01</totfact>
</mgrwt>
</event>
<event>
 4    1  0.2061941E-008  0.9386793E+03  0.7818608E-02  0.9378482E-01
          2   -1    0    0  501    0  0.00000000000E+00  0.00000000000E+00  0.22837379976E+04  0.22837379976E+04  0.25500000000E-02 0. -1.
         -2   -1    0    0    0  501 -0.00000000000E+00 -0.00000000000E+00 -0.63211210389E+03  0.63211210390E+03  0.25500000000E-02 0.  1.
    8880022    1    1    2    0    0 -0.85532523496E+03 -0.35517018520E+03  0.17358533955E+04  0.19733995494E+04  0.15294330000E+03 0.  0.
    8880022    1    1    2    0    0  0.85532523496E+03  0.35517018520E+03 -0.84227501799E+02  0.94245055206E+03  0.15294330000E+03 0.  0.
<mgrwt>
<rscale>  0 0.93867927E+03</rscale>
<asrwt>0</asrwt>
<pdfrwt beam="1">  1        2 0.35134431E+00 0.93867927E+03</pdfrwt>
<pdfrwt beam="2">  1       -2 0.97248014E-01 0.93867927E+03</pdfrwt>
<totfact> 0.41400978E+00</totfact>
</mgrwt>
</event>
<event>
 4    1  0.2061941E-008  0.1385434E+04  0.7818608E-02  0.8964430E-01
         -2   -1    0    0    0  501 -0.00000000000E+00  0.00000000000E+00  0.16373690958E+04  0.16373690958E+04  0.25500000000E-02 0.  1.
          2   -1    0    0  501    0  0.00000000000E+00 -0.00000000000E+00 -0.16989885239E+04  0.16989885239E+04  0.25500000000E-02 0. -1.
    8880022    1    1    2    0    0  0.12300778044E+04  0.61882579751E+03  0.89802674238E+03  0.16510240627E+04  0.15294330000E+03 0.  0.
    8880022    1    1    2    0    0 -0.12300778044E+04 -0.61882579751E+03 -0.95964617047E+03  0.16853335569E+04  0.15294330000E+03 0.  0.
<mgrwt>
<rscale>  0 0.13854344E+04</rscale>
<asrwt>0</asrwt>
<pdfrwt beam="1">  1        2 0.26138285E+00 0.13854344E+04</pdfrwt>
<pdfrwt beam="2">  1       -2 0.25190294E+00 0.13854344E+04</pdfrwt>
<totfact> 0.58383373E-01</totfact>
</mgrwt>
</event>
<event>
 4    1  0.2061941E-008  0.1279589E+04  0.7818608E-02  0.9045910E-01
         -2   -1    0    0    0  501 -0.00000000000E+00  0.00000000000E+00  0.94907478365E+03  0.94907478365E+03  0.25500000000E-02 0.  1.
          2   -1    0    0  501    0  0.00000000000E+00 -0.00000000000E+00 -0.21620694701E+04  0.21620694701E+04  0.25500000000E-02 0. -1.
    8880022    1    1    2    0    0 -0.93191539885E+03 -0.86341785715E+03 -0.13057414249E+04  0.18281983012E+04  0.15294330000E+03 0.  0.
    8880022    1    1    2    0    0  0.93191539885E+03  0.86341785715E+03  0.92746738496E+02  0.12829459526E+04  0.15294330000E+03 0.  0.
<mgrwt>
<rscale>  0 0.12795891E+04</rscale>
<asrwt>0</asrwt>
<pdfrwt beam="1">  1        2 0.33262607E+00 0.12795891E+04</pdfrwt>
<pdfrwt beam="2">  1       -2 0.14601151E+00 0.12795891E+04</pdfrwt>
<totfact> 0.16857256E+00</totfact>
</mgrwt>
</event>
<event>
 4    1  0.2061941E-008  0.1119749E+04  0.7818608E-02  0.9186154E-01
          2   -1    0    0  501    0  0.00000000000E+00  0.00000000000E+00  0.18352558361E+04  0.18352558361E+04  0.25500000000E-02 0. -1.
         -2   -1    0    0    0  501 -0.00000000000E+00 -0.00000000000E+00 -0.12716329746E+04  0.12716329746E+04  0.25500000000E-02 0.  1.
    8880022    1    1    2    0    0  0.60943575992E+03 -0.92684058911E+03  0.13385444513E+04  0.17451470781E+04  0.15294330000E+03 0.  0.
    8880022    1    1    2    0    0 -0.60943575992E+03  0.92684058911E+03 -0.77492158974E+03  0.13617417326E+04  0.15294330000E+03 0.  0.
<mgrwt>
<rscale>  0 0.11197487E+04</rscale>
<asrwt>0</asrwt>
<pdfrwt beam="1">  1        2 0.28234705E+00 0.11197487E+04</pdfrwt>
<pdfrwt beam="2">  1       -2 0.19563584E+00 0.11197487E+04</pdfrwt>
<totfact> 0.11492498E+00</totfact>
</mgrwt>
</event>
<event>
 4    1  0.2061941E-008  0.7260309E+03  0.7818608E-02  0.9673723E-01
         -2   -1    0    0    0  501 -0.00000000000E+00  0.00000000000E+00  0.24934492206E+04  0.24934492206E+04  0.25500000000E-02 0.  1.
          2   -1    0    0  501    0  0.00000000000E+00 -0.00000000000E+00 -0.62649793026E+03  0.62649793026E+03  0.25500000000E-02 0. -1.
    8880022    1    1    2    0    0 -0.50271114385E+03 -0.50100968402E+03 -0.33631321511E+03  0.80014213069E+03  0.15294330000E+03 0.  0.
    8880022    1    1    2    0    0  0.50271114385E+03  0.50100968402E+03  0.22032645054E+04  0.23198050201E+04  0.15294330000E+03 0.  0.
<mgrwt>
<rscale>  0 0.72603089E+03</rscale>
<asrwt>0</asrwt>
<pdfrwt beam="1">  1        2 0.96384296E-01 0.72603089E+03</pdfrwt>
<pdfrwt beam="2">  1       -2 0.38360757E+00 0.72603089E+03</pdfrwt>
<totfact> 0.47650979E-01</totfact>
</mgrwt>
</event>
<event>
 4    1  0.2061941E-008  0.1018118E+04  0.7818608E-02  0.9288893E-01
          2   -1    0    0  501    0  0.00000000000E+00  0.00000000000E+00  0.14593269846E+04  0.14593269846E+04  0.25500000000E-02 0. -1.
         -2   -1    0    0    0  501 -0.00000000000E+00 -0.00000000000E+00 -0.14506919367E+04  0.14506919367E+04  0.25500000000E-02 0.  1.
    8880022    1    1    2    0    0 -0.89571355341E+03  0.45920585478E+03 -0.10351433765E+04  0.14519250152E+04  0.15294330000E+03 0.  0.
    8880022    1    1    2    0    0  0.89571355341E+03 -0.45920585478E+03  0.10437784244E+04  0.14580939061E+04  0.15294330000E+03 0.  0.
<mgrwt>
<rscale>  0 0.10181181E+04</rscale>
<asrwt>0</asrwt>
<pdfrwt beam="1">  1        2 0.22451184E+00 0.10181181E+04</pdfrwt>
<pdfrwt beam="2">  1       -2 0.22318338E+00 0.10181181E+04</pdfrwt>
<totfact> 0.12537223E+00</totfact>
</mgrwt>
</event>
<event>
 4    1  0.2061941E-008  0.4109678E+03  0.7818608E-02  0.1040047E+00
          2   -1    0    0  501    0  0.00000000000E+00  0.00000000000E+00  0.15294720542E+04  0.15294720542E+04  0.25500000000E-02 0. -1.
         -2   -1    0    0    0  501 -0.00000000000E+00 -0.00000000000E+00 -0.46187744831E+03  0.46187744831E+03  0.25500000000E-02 0.  1.
    8880022    1    1    2    0    0  0.14307548422E+03 -0.35359908022E+03 -0.33473574766E+03  0.53004016592E+03  0.15294330000E+03 0.  0.
    8880022    1    1    2    0    0 -0.14307548422E+03  0.35359908022E+03  0.14023303536E+04  0.14613093366E+04  0.15294330000E+03 0.  0.
<mgrwt>
<rscale>  0 0.41096783E+03</rscale>
<asrwt>0</asrwt>
<pdfrwt beam="1">  1        2 0.23530339E+00 0.41096783E+03</pdfrwt>
<pdfrwt beam="2">  1       -2 0.71058069E-01 0.41096783E+03</pdfrwt>
<totfact> 0.23785225E+01</totfact>
</mgrwt>
</event>
<event>
 4    1  0.2061941E-008  0.7064535E+03  0.7818608E-02  0.9706259E-01
         -2   -1    0    0    0  501 -0.00000000000E+00  0.00000000000E+00  0.60050591633E+03  0.60050591634E+03  0.25500000000E-02 0.  1.
          2   -1    0    0  501    0  0.00000000000E+00 -0.00000000000E+00 -0.16089039434E+04  0.16089039434E+04  0.25500000000E-02 0. -1.
    8880022    1    1    2    0    0  0.57545964268E+03  0.38017240182E+03  0.26390165788E+03  0.75413565988E+03  0.15294330000E+03 0.  0.
    8880022    1    1    2    0    0 -0.57545964268E+03 -0.38017240182E+03 -0.12722996850E+04  0.14552741999E+04  0.15294330000E+03 0.  0.
<mgrwt>
<rscale>  0 0.70645347E+03</rscale>
<asrwt>0</asrwt>
<pdfrwt beam="1">  1        2 0.24752368E+00 0.70645347E+03</pdfrwt>
<pdfrwt beam="2">  1       -2 0.92385526E-01 0.70645347E+03</pdfrwt>
<totfact> 0.11327324E+01</totfact>
</mgrwt>
</event>
<event>
 4    1  0.2061941E-008  0.4847915E+03  0.7818608E-02  0.1017827E+00
         -2   -1    0    0    0  501 -0.00000000000E+00  0.00000000000E+00  0.46058371011E+03  0.46058371012E+03  0.25500000000E-02 0.  1.
          2   -1    0    0  501    0  0.00000000000E+00 -0.00000000000E+00 -0.10818911154E+04  0.10818911154E+04  0.25500000000E-02 0. -1.
    8880022    1    1    2    0    0 -0.36446134799E+03 -0.28071171205E+03  0.24994208592E+03  0.54542995773E+03  0.15294330000E+03 0.  0.
    8880022    1    1    2    0    0  0.36446134799E+03  0.28071171205E+03 -0.87124949120E+03  0.99704486779E+03  0.15294330000E+03 0.  0.
<mgrwt>
<rscale>  0 0.48479149E+03</rscale>
<asrwt>0</asrwt>
<pdfrwt beam="1">  1        2 0.16644479E+00 0.48479149E+03</pdfrwt>
<pdfrwt beam="2">  1       -2 0.70859032E-01 0.48479149E+03</pdfrwt>
<totfact> 0.42422125E+01</totfact>
</mgrwt>
</event>
<event>
 4    1  0.2061941E-008  0.8617481E+03  0.7818608E-02  0.9474703E-01
         -2   -1    0    0    0  501 -0.00000000000E+00  0.00000000000E+00  0.14579171915E+04  0.14579171915E+04  0.25500000000E-02 0.  1.
          2   -1    0    0  501    0  0.00000000000E+00 -0.00000000000E+00 -0.18649869445E+04  0.18649869445E+04  0.25500000000E-02 0. -1.
    8880022    1    1    2    0    0 -0.62956038670E+03  0.56821818158E+03  0.12129744902E+04  0.14879237041E+04  0.15294330000E+03 0.  0.
    8880022    1    1    2    0    0  0.62956038670E+03 -0.56821818158E+03 -0.16200442432E+04  0.18349804318E+04  0.15294330000E+03 0.  0.
<mgrwt>
<rscale>  0 0.86174813E+03</rscale>
<asrwt>0</asrwt>
<pdfrwt beam="1">  1        2 0.28692107E+00 0.86174813E+03</pdfrwt>
<pdfrwt beam="2">  1       -2 0.22429495E+00 0.86174813E+03</pdfrwt>
<totfact> 0.75367780E-01</totfact>
</mgrwt>
</event>
<event>
 4    1  0.2061941E-008  0.7526243E+03  0.7818608E-02  0.9631242E-01
          2   -1    0    0  501    0  0.00000000000E+00  0.00000000000E+00  0.64311850555E+03  0.64311850555E+03  0.25500000000E-02 0. -1.
         -2   -1    0    0    0  501 -0.00000000000E+00 -0.00000000000E+00 -0.13903813417E+04  0.13903813417E+04  0.25500000000E-02 0.  1.
    8880022    1    1    2    0    0 -0.71232077915E+03 -0.18881411604E+03  0.24191978993E+03  0.79054949282E+03  0.15294330000E+03 0.  0.
    8880022    1    1    2    0    0  0.71232077915E+03  0.18881411604E+03 -0.98918262606E+03  0.12429503544E+04  0.15294330000E+03 0.  0.
<mgrwt>
<rscale>  0 0.75262429E+03</rscale>
<asrwt>0</asrwt>
<pdfrwt beam="1">  1        2 0.98941309E-01 0.75262429E+03</pdfrwt>
<pdfrwt beam="2">  1       -2 0.21390482E+00 0.75262429E+03</pdfrwt>
<totfact> 0.50348120E+00</totfact>
</mgrwt>
</event>
<event>
 4    1  0.2061941E-008  0.4687375E+03  0.7818608E-02  0.1022277E+00
          2   -1    0    0  501    0  0.00000000000E+00  0.00000000000E+00  0.98153046447E+03  0.98153046448E+03  0.25500000000E-02 0. -1.
         -2   -1    0    0    0  501 -0.00000000000E+00 -0.00000000000E+00 -0.88395375902E+03  0.88395375903E+03  0.25500000000E-02 0.  1.
    8880022    1    1    2    0    0  0.77320932592E+02  0.43628507061E+03  0.85482199049E+03  0.97490280433E+03  0.15294330000E+03 0.  0.
    8880022    1    1    2    0    0 -0.77320932592E+02 -0.43628507061E+03 -0.75724528503E+03  0.89058141917E+03  0.15294330000E+03 0.  0.
<mgrwt>
<rscale>  0 0.46873750E+03</rscale>
<asrwt>0</asrwt>
<pdfrwt beam="1">  1        2 0.15100469E+00 0.46873750E+03</pdfrwt>
<pdfrwt beam="2">  1       -2 0.13599289E+00 0.46873750E+03</pdfrwt>
<totfact> 0.10635493E+01</totfact>
</mgrwt>
</event>
<event>
 4    1  0.2061941E-008  0.2463727E+03  0.7818608E-02  0.1115619E+00
         -2   -1    0    0    0  501 -0.00000000000E+00  0.00000000000E+00  0.41911542979E+03  0.41911542980E+03  0.25500000000E-02 0.  1.
          2   -1    0    0  501    0  0.00000000000E+00 -0.00000000000E+00 -0.27652421504E+04  0.27652421504E+04  0.25500000000E-02 0. -1.
    8880022    1    1    2    0    0 -0.11985177515E+03 -0.15147079948E+03  0.37686008183E+03  0.45024773780E+03  0.15294330000E+03 0.  0.
    8880022    1    1    2    0    0  0.11985177515E+03  0.15147079948E+03 -0.27229868024E+04  0.27341098424E+04  0.15294330000E+03 0.  0.
<mgrwt>
<rscale>  0 0.24637269E+03</rscale>
<asrwt>0</asrwt>
<pdfrwt beam="1">  1        2 0.42542186E+00 0.24637269E+03</pdfrwt>
<pdfrwt beam="2">  1       -2 0.64479299E-01 0.24637269E+03</pdfrwt>
<totfact> 0.66886421E+00</totfact>
</mgrwt>
</event>
<event>
 4    1  0.2061941E-008  0.1333163E+04  0.7818608E-02  0.9003672E-01
         -2   -1    0    0    0  501 -0.00000000000E+00  0.00000000000E+00  0.14068481906E+04  0.14068481906E+04  0.25500000000E-02 0.  1.
          2   -1    0    0  501    0  0.00000000000E+00 -0.00000000000E+00 -0.13812394521E+04  0.13812394521E+04  0.25500000000E-02 0. -1.
    8880022    1    1    2    0    0 -0.78690873565E+03  0.10652258552E+04 -0.39448555852E+03  0.13903028410E+04  0.15294330000E+03 0.  0.
    8880022    1    1    2    0    0  0.78690873565E+03 -0.10652258552E+04  0.42009429699E+03  0.13977848018E+04  0.15294330000E+03 0.  0.
<mgrwt>
<rscale>  0 0.13331628E+04</rscale>
<asrwt>0</asrwt>
<pdfrwt beam="1">  1        2 0.21249838E+00 0.13331628E+04</pdfrwt>
<pdfrwt beam="2">  1       -2 0.21643818E+00 0.13331628E+04</pdfrwt>
<totfact> 0.14785025E+00</totfact>
</mgrwt>
</event>
<event>
 4    1  0.2061941E-008  0.3239801E+03  0.7818608E-02  0.1073832E+00
          2   -1    0    0  501    0  0.00000000000E+00  0.00000000000E+00  0.16786948832E+04  0.16786948832E+04  0.25500000000E-02 0. -1.
         -2   -1    0    0    0  501 -0.00000000000E+00 -0.00000000000E+00 -0.97736448511E+02  0.97736448544E+02  0.25500000000E-02 0.  1.
    8880022    1    1    2    0    0 -0.52825292358E+02  0.28067943976E+03  0.25736271779E+03  0.41376162333E+03  0.15294330000E+03 0.  0.
    8880022    1    1    2    0    0  0.52825292358E+02 -0.28067943976E+03  0.13235957169E+04  0.13626697084E+04  0.15294330000E+03 0.  0.
<mgrwt>
<rscale>  0 0.32398011E+03</rscale>
<asrwt>0</asrwt>
<pdfrwt beam="1">  1        2 0.25826074E+00 0.32398011E+03</pdfrwt>
<pdfrwt beam="2">  1       -2 0.15036378E-01 0.32398011E+03</pdfrwt>
<totfact> 0.37236992E+02</totfact>
</mgrwt>
</event>
<event>
 4    1  0.2061941E-008  0.8407917E+03  0.7818608E-02  0.9502780E-01
          2   -1    0    0  501    0  0.00000000000E+00  0.00000000000E+00  0.19235366290E+04  0.19235366290E+04  0.25500000000E-02 0. -1.
         -2   -1    0    0    0  501 -0.00000000000E+00 -0.00000000000E+00 -0.55850423793E+03  0.55850423794E+03  0.25500000000E-02 0.  1.
    8880022    1    1    2    0    0  0.44971467081E+01  0.82675199399E+03 -0.43203416094E+02  0.84190098709E+03  0.15294330000E+03 0.  0.
    8880022    1    1    2    0    0 -0.44971467081E+01 -0.82675199399E+03  0.14082358072E+04  0.16401398799E+04  0.15294330000E+03 0.  0.
<mgrwt>
<rscale>  0 0.84079173E+03</rscale>
<asrwt>0</asrwt>
<pdfrwt beam="1">  1        2 0.29592872E+00 0.84079173E+03</pdfrwt>
<pdfrwt beam="2">  1       -2 0.85923728E-01 0.84079173E+03</pdfrwt>
<totfact> 0.88384317E+00</totfact>
</mgrwt>
</event>
<event>
 4    1  0.2061941E-008  0.1219147E+04  0.7818608E-02  0.9096260E-01
          2   -1    0    0  501    0  0.00000000000E+00  0.00000000000E+00  0.10838688862E+04  0.10838688862E+04  0.25500000000E-02 0. -1.
         -2   -1    0    0    0  501 -0.00000000000E+00 -0.00000000000E+00 -0.21190720761E+04  0.21190720761E+04  0.25500000000E-02 0.  1.
    8880022    1    1    2    0    0 -0.80631812203E+03  0.90154245991E+03 -0.14689246548E+04  0.19089418576E+04  0.15294330000E+03 0.  0.
    8880022    1    1    2    0    0  0.80631812203E+03 -0.90154245991E+03  0.43372146499E+03  0.12939991048E+04  0.15294330000E+03 0.  0.
<mgrwt>
<rscale>  0 0.12191470E+04</rscale>
<asrwt>0</asrwt>
<pdfrwt beam="1">  1        2 0.16674906E+00 0.12191470E+04</pdfrwt>
<pdfrwt beam="2">  1       -2 0.32601109E+00 0.12191470E+04</pdfrwt>
<totfact> 0.47891180E-01</totfact>
</mgrwt>
</event>
<event>
 4    1  0.2061941E-008  0.1027603E+04  0.7818608E-02  0.9278778E-01
         -2   -1    0    0    0  501 -0.00000000000E+00  0.00000000000E+00  0.25641708805E+03  0.25641708806E+03  0.25500000000E-02 0.  1.
          2   -1    0    0  501    0  0.00000000000E+00 -0.00000000000E+00 -0.41386481867E+04  0.41386481867E+04  0.25500000000E-02 0. -1.
    8880022    1    1    2    0    0  0.10022859964E+04  0.16732908036E+03 -0.17865174300E+04  0.20609736584E+04  0.15294330000E+03 0.  0.
    8880022    1    1    2    0    0 -0.10022859964E+04 -0.16732908036E+03 -0.20957136686E+04  0.23340916164E+04  0.15294330000E+03 0.  0.
<mgrwt>
<rscale>  0 0.10276030E+04</rscale>
<asrwt>0</asrwt>
<pdfrwt beam="1">  1        2 0.63671506E+00 0.10276030E+04</pdfrwt>
<pdfrwt beam="2">  1       -2 0.39448786E-01 0.10276030E+04</pdfrwt>
<totfact> 0.16832247E+00</totfact>
</mgrwt>
</event>
<event>
 4    1  0.2061941E-008  0.7767632E+03  0.7818608E-02  0.9594274E-01
          2   -1    0    0  501    0  0.00000000000E+00  0.00000000000E+00  0.28853553745E+04  0.28853553745E+04  0.25500000000E-02 0. -1.
         -2   -1    0    0    0  501 -0.00000000000E+00 -0.00000000000E+00 -0.24595147384E+03  0.24595147385E+03  0.25500000000E-02 0.  1.
    8880022    1    1    2    0    0 -0.71957236112E+03  0.24936915798E+03  0.71376068678E+03  0.10549006261E+04  0.15294330000E+03 0.  1.
    8880022    1    1    2    0    0  0.71957236112E+03 -0.24936915798E+03  0.19256432139E+04  0.20764062223E+04  0.15294330000E+03 0.  0.
<mgrwt>
<rscale>  0 0.77676316E+03</rscale>
<asrwt>0</asrwt>
<pdfrwt beam="1">  1        2 0.44390080E+00 0.77676316E+03</pdfrwt>
<pdfrwt beam="2">  1       -2 0.37838690E-01 0.77676316E+03</pdfrwt>
<totfact> 0.14238514E+01</totfact>
</mgrwt>
</event>
<event>
 4    1  0.2061941E-008  0.4174072E+03  0.7818608E-02  0.1037913E+00
          2   -1    0    0  501    0  0.00000000000E+00  0.00000000000E+00  0.27920013806E+04  0.27920013806E+04  0.25500000000E-02 0. -1.
         -2   -1    0    0    0  501 -0.00000000000E+00 -0.00000000000E+00 -0.35874637519E+03  0.35874637520E+03  0.25500000000E-02 0.  1.
    8880022    1    1    2    0    0  0.22193769745E+03  0.31871736327E+03 -0.21518985972E+03  0.46961199723E+03  0.15294330000E+03 0.  1.
    8880022    1    1    2    0    0 -0.22193769745E+03 -0.31871736327E+03  0.26484448651E+04  0.26811357586E+04  0.15294330000E+03 0.  0.
<mgrwt>
<rscale>  0 0.41740718E+03</rscale>
<asrwt>0</asrwt>
<pdfrwt beam="1">  1        2 0.42953870E+00 0.41740718E+03</pdfrwt>
<pdfrwt beam="2">  1       -2 0.55191747E-01 0.41740718E+03</pdfrwt>
<totfact> 0.82741028E+00</totfact>
</mgrwt>
</event>
<event>
 4    1  0.2061941E-008  0.8994901E+03  0.7818608E-02  0.9426219E-01
         -2   -1    0    0    0  501 -0.00000000000E+00  0.00000000000E+00  0.88698069651E+03  0.88698069652E+03  0.25500000000E-02 0.  1.
          2   -1    0    0  501    0  0.00000000000E+00 -0.00000000000E+00 -0.26144441780E+04  0.26144441780E+04  0.25500000000E-02 0. -1.
    8880022    1    1    2    0    0  0.26473800379E+03 -0.84593411176E+03 -0.22763965858E+04  0.24476649691E+04  0.15294330000E+03 0.  0.
    8880022    1    1    2    0    0 -0.26473800379E+03  0.84593411176E+03  0.54893310436E+03  0.10537599054E+04  0.15294330000E+03 0.  0.
<mgrwt>
<rscale>  0 0.89949007E+03</rscale>
<asrwt>0</asrwt>
<pdfrwt beam="1">  1        2 0.40222218E+00 0.89949007E+03</pdfrwt>
<pdfrwt beam="2">  1       -2 0.13645857E+00 0.89949007E+03</pdfrwt>
<totfact> 0.11744023E+00</totfact>
</mgrwt>
</event>
<event>
 4    1  0.2061941E-008  0.9235453E+03  0.7818608E-02  0.9396618E-01
         -2   -1    0    0    0  501 -0.00000000000E+00  0.00000000000E+00  0.42477226879E+03  0.42477226880E+03  0.25500000000E-02 0.  1.
          2   -1    0    0  501    0  0.00000000000E+00 -0.00000000000E+00 -0.32602478997E+04  0.32602478997E+04  0.25500000000E-02 0. -1.
    8880022    1    1    2    0    0 -0.82238624055E+03 -0.39143974517E+03 -0.25596495029E+04  0.27211654550E+04  0.15294330000E+03 0.  0.
    8880022    1    1    2    0    0  0.82238624055E+03  0.39143974517E+03 -0.27582612795E+03  0.96385471344E+03  0.15294330000E+03 0.  0.
<mgrwt>
<rscale>  0 0.92354526E+03</rscale>
<asrwt>0</asrwt>
<pdfrwt beam="1">  1        2 0.50157658E+00 0.92354526E+03</pdfrwt>
<pdfrwt beam="2">  1       -2 0.65349582E-01 0.92354526E+03</pdfrwt>
<totfact> 0.26623266E+00</totfact>
</mgrwt>
</event>
<event>
 4    1  0.2061941E-008  0.8210417E+03  0.7818608E-02  0.9530050E-01
          2   -1    0    0  501    0  0.00000000000E+00  0.00000000000E+00  0.17886922914E+04  0.17886922914E+04  0.25500000000E-02 0. -1.
         -2   -1    0    0    0  501 -0.00000000000E+00 -0.00000000000E+00 -0.12282047898E+04  0.12282047898E+04  0.25500000000E-02 0.  1.
    8880022    1    1    2    0    0 -0.20534688424E+03 -0.78009641415E+03  0.15361134752E+04  0.17417674988E+04  0.15294330000E+03 0.  0.
    8880022    1    1    2    0    0  0.20534688424E+03  0.78009641415E+03 -0.97562597366E+03  0.12751295823E+04  0.15294330000E+03 0.  1.
<mgrwt>
<rscale>  0 0.82104166E+03</rscale>
<asrwt>0</asrwt>
<pdfrwt beam="1">  1        2 0.27518343E+00 0.82104166E+03</pdfrwt>
<pdfrwt beam="2">  1       -2 0.18895458E+00 0.82104166E+03</pdfrwt>
<totfact> 0.14117624E+00</totfact>
</mgrwt>
</event>
<event>
 4    1  0.2061941E-008  0.1228079E+04  0.7818608E-02  0.9088628E-01
          2   -1    0    0  501    0  0.00000000000E+00  0.00000000000E+00  0.37795134421E+04  0.37795134421E+04  0.25500000000E-02 0. -1.
         -2   -1    0    0    0  501 -0.00000000000E+00 -0.00000000000E+00 -0.10754881665E+04  0.10754881665E+04  0.25500000000E-02 0.  1.
    8880022    1    1    2    0    0 -0.75324194627E+02 -0.12161876919E+04  0.32772033355E+04  0.34997485040E+04  0.15294330000E+03 0.  0.
    8880022    1    1    2    0    0  0.75324194627E+02  0.12161876919E+04 -0.57317805990E+03  0.13552531046E+04  0.15294330000E+03 0.  0.
<mgrwt>
<rscale>  0 0.12280789E+04</rscale>
<asrwt>0</asrwt>
<pdfrwt beam="1">  1        2 0.58146360E+00 0.12280789E+04</pdfrwt>
<pdfrwt beam="2">  1       -2 0.16545972E+00 0.12280789E+04</pdfrwt>
<totfact> 0.11644644E-01</totfact>
</mgrwt>
</event>
<event>
 4    1  0.2061941E-008  0.5696061E+03  0.7818608E-02  0.9970551E-01
          2   -1    0    0  501    0  0.00000000000E+00  0.00000000000E+00  0.16126406988E+04  0.16126406988E+04  0.25500000000E-02 0. -1.
         -2   -1    0    0    0  501 -0.00000000000E+00 -0.00000000000E+00 -0.60311019579E+03  0.60311019580E+03  0.25500000000E-02 0.  1.
    8880022    1    1    2    0    0  0.55536360826E+02  0.54587104534E+03 -0.39963607697E+03  0.69581616289E+03  0.15294330000E+03 0.  0.
    8880022    1    1    2    0    0 -0.55536360826E+02 -0.54587104534E+03  0.14091665800E+04  0.15199347317E+04  0.15294330000E+03 0.  0.
<mgrwt>
<rscale>  0 0.56960613E+03</rscale>
<asrwt>0</asrwt>
<pdfrwt beam="1">  1        2 0.24809857E+00 0.56960613E+03</pdfrwt>
<pdfrwt beam="2">  1       -2 0.92786185E-01 0.56960613E+03</pdfrwt>
<totfact> 0.11413600E+01</totfact>
</mgrwt>
</event>
<event>
 4    1  0.2061941E-008  0.4372989E+03  0.7818608E-02  0.1031579E+00
          2   -1    0    0  501    0  0.00000000000E+00  0.00000000000E+00  0.81777121111E+03  0.81777121112E+03  0.25500000000E-02 0. -1.
         -2   -1    0    0    0  501 -0.00000000000E+00 -0.00000000000E+00 -0.13464263108E+04  0.13464263109E+04  0.25500000000E-02 0.  1.
    8880022    1    1    2    0    0 -0.52077196149E+02  0.40635781209E+03 -0.12479802928E+04  0.13223786031E+04  0.15294330000E+03 0.  0.
    8880022    1    1    2    0    0  0.52077196149E+02 -0.40635781209E+03  0.71932519303E+03  0.84181891886E+03  0.15294330000E+03 0.  0.
<mgrwt>
<rscale>  0 0.43729894E+03</rscale>
<asrwt>0</asrwt>
<pdfrwt beam="1">  1        2 0.12581096E+00 0.43729894E+03</pdfrwt>
<pdfrwt beam="2">  1       -2 0.20714251E+00 0.43729894E+03</pdfrwt>
<totfact> 0.43275472E+00</totfact>
</mgrwt>
</event>
<event>
 4    1  0.2061941E-008  0.7701617E+03  0.7818608E-02  0.9604240E-01
         -2   -1    0    0    0  501 -0.00000000000E+00  0.00000000000E+00  0.21720642492E+04  0.21720642492E+04  0.25500000000E-02 0.  1.
          2   -1    0    0  501    0  0.00000000000E+00 -0.00000000000E+00 -0.54785620317E+03  0.54785620317E+03  0.25500000000E-02 0. -1.
    8880022    1    1    2    0    0 -0.28725746910E+03 -0.69802616121E+03  0.17752272300E+04  0.19350919219E+04  0.15294330000E+03 0.  0.
    8880022    1    1    2    0    0  0.28725746910E+03  0.69802616121E+03 -0.15101918393E+03  0.78482853046E+03  0.15294330000E+03 0.  0.
<mgrwt>
<rscale>  0 0.77016169E+03</rscale>
<asrwt>0</asrwt>
<pdfrwt beam="1">  1        2 0.84285571E-01 0.77016169E+03</pdfrwt>
<pdfrwt beam="2">  1       -2 0.33416372E+00 0.77016169E+03</pdfrwt>
<totfact> 0.11323540E+00</totfact>
</mgrwt>
</event>
<event>
 4    1  0.2061941E-008  0.8353157E+03  0.7818608E-02  0.9510260E-01
         -2   -1    0    0    0  501 -0.00000000000E+00  0.00000000000E+00  0.13137641908E+04  0.13137641908E+04  0.25500000000E-02 0.  1.
          2   -1    0    0  501    0  0.00000000000E+00 -0.00000000000E+00 -0.24422715998E+04  0.24422715998E+04  0.25500000000E-02 0. -1.
    8880022    1    1    2    0    0  0.74842126237E+03  0.33797368064E+03  0.10970595994E+04  0.13788734577E+04  0.15294330000E+03 0.  0.
    8880022    1    1    2    0    0 -0.74842126237E+03 -0.33797368064E+03 -0.22255670084E+04  0.23771623329E+04  0.15294330000E+03 0.  0.
<mgrwt>
<rscale>  0 0.83531566E+03</rscale>
<asrwt>0</asrwt>
<pdfrwt beam="1">  1        2 0.37573409E+00 0.83531566E+03</pdfrwt>
<pdfrwt beam="2">  1       -2 0.20211757E+00 0.83531566E+03</pdfrwt>
<totfact> 0.50230031E-01</totfact>
</mgrwt>
</event>
<event>
 4    1  0.2061941E-008  0.4122011E+03  0.7818608E-02  0.1039635E+00
          2   -1    0    0  501    0  0.00000000000E+00  0.00000000000E+00  0.89770122898E+03  0.89770122898E+03  0.25500000000E-02 0. -1.
         -2   -1    0    0    0  501 -0.00000000000E+00 -0.00000000000E+00 -0.59433003818E+03  0.59433003819E+03  0.25500000000E-02 0.  1.
    8880022    1    1    2    0    0  0.27317207043E+03 -0.26813265327E+03  0.76756075596E+03  0.87124007422E+03  0.15294330000E+03 0.  0.
    8880022    1    1    2    0    0 -0.27317207043E+03  0.26813265327E+03 -0.46418956517E+03  0.62079119295E+03  0.15294330000E+03 0.  0.
<mgrwt>
<rscale>  0 0.41220111E+03</rscale>
<asrwt>0</asrwt>
<pdfrwt beam="1">  1        2 0.13810788E+00 0.41220111E+03</pdfrwt>
<pdfrwt beam="2">  1       -2 0.91435391E-01 0.41220111E+03</pdfrwt>
<totfact> 0.31722741E+01</totfact>
</mgrwt>
</event>
<event>
 4    1  0.2061941E-008  0.4119778E+03  0.7818608E-02  0.1039709E+00
          2   -1    0    0  501    0  0.00000000000E+00  0.00000000000E+00  0.33706691158E+04  0.33706691158E+04  0.25500000000E-02 0. -1.
         -2   -1    0    0    0  501 -0.00000000000E+00 -0.00000000000E+00 -0.17122951320E+03  0.17122951322E+03  0.25500000000E-02 0.  1.
    8880022    1    1    2    0    0 -0.29976814799E+03 -0.23764072791E+03  0.11177610244E+03  0.42687188734E+03  0.15294330000E+03 0.  0.
    8880022    1    1    2    0    0  0.29976814799E+03  0.23764072791E+03  0.30876635002E+04  0.31150267417E+04  0.15294330000E+03 0.  0.
<mgrwt>
<rscale>  0 0.41197780E+03</rscale>
<asrwt>0</asrwt>
<pdfrwt beam="1">  1        2 0.51856451E+00 0.41197780E+03</pdfrwt>
<pdfrwt beam="2">  1       -2 0.26343001E-01 0.41197780E+03</pdfrwt>
<totfact> 0.15170245E+01</totfact>
</mgrwt>
</event>
<event>
 4    1  0.2061941E-008  0.3513781E+03  0.7818608E-02  0.1062051E+00
         -2   -1    0    0    0  501 -0.00000000000E+00  0.00000000000E+00  0.47424096165E+03  0.47424096166E+03  0.25500000000E-02 0.  1.
          2   -1    0    0  501    0  0.00000000000E+00 -0.00000000000E+00 -0.40108097084E+03  0.40108097085E+03  0.25500000000E-02 0. -1.
    8880022    1    1    2    0    0  0.21518608065E+03 -0.23188329872E+03 -0.22267274499E+03  0.41599244933E+03  0.15294330000E+03 0.  0.
    8880022    1    1    2    0    0 -0.21518608065E+03  0.23188329872E+03  0.29583273580E+03  0.45932948317E+03  0.15294330000E+03 0.  0.
<mgrwt>
<rscale>  0 0.35137810E+03</rscale>
<asrwt>0</asrwt>
<pdfrwt beam="1">  1        2 0.61704765E-01 0.35137810E+03</pdfrwt>
<pdfrwt beam="2">  1       -2 0.72960148E-01 0.35137810E+03</pdfrwt>
<totfact> 0.13910319E+02</totfact>
</mgrwt>
</event>
<event>
 4    1  0.2061941E-008  0.1174446E+04  0.7818608E-02  0.9135523E-01
          2   -1    0    0  501    0  0.00000000000E+00  0.00000000000E+00  0.87419280052E+03  0.87419280052E+03  0.25500000000E-02 0. -1.
         -2   -1    0    0    0  501 -0.00000000000E+00 -0.00000000000E+00 -0.17040059558E+04  0.17040059558E+04  0.25500000000E-02 0.  1.
    8880022    1    1    2    0    0 -0.11426946515E+04  0.22400817895E+03 -0.76569840536E+03  0.14020044336E+04  0.15294330000E+03 0.  0.
    8880022    1    1    2    0    0  0.11426946515E+04 -0.22400817895E+03 -0.64114749904E+02  0.11761943228E+04  0.15294330000E+03 0.  0.
<mgrwt>
<rscale>  0 0.11744456E+04</rscale>
<asrwt>0</asrwt>
<pdfrwt beam="1">  1        2 0.13449120E+00 0.11744456E+04</pdfrwt>
<pdfrwt beam="2">  1       -2 0.26215476E+00 0.11744456E+04</pdfrwt>
<totfact> 0.16181263E+00</totfact>
</mgrwt>
</event>
<event>
 4    1  0.2061941E-008  0.1701067E+04  0.7818608E-02  0.8760756E-01
         -2   -1    0    0    0  501 -0.00000000000E+00  0.00000000000E+00  0.15329991171E+04  0.15329991171E+04  0.25500000000E-02 0.  1.
          2   -1    0    0  501    0  0.00000000000E+00 -0.00000000000E+00 -0.27756847662E+04  0.27756847662E+04  0.25500000000E-02 0. -1.
    8880022    1    1    2    0    0  0.28728613580E+03 -0.16696414094E+04 -0.18399581063E+04  0.25058079028E+04  0.15294330000E+03 0.  0.
    8880022    1    1    2    0    0 -0.28728613580E+03  0.16696414094E+04  0.59727245718E+03  0.18028759805E+04  0.15294330000E+03 0.  0.
<mgrwt>
<rscale>  0 0.17010666E+04</rscale>
<asrwt>0</asrwt>
<pdfrwt beam="1">  1        2 0.42702843E+00 0.17010666E+04</pdfrwt>
<pdfrwt beam="2">  1       -2 0.23584602E+00 0.17010666E+04</pdfrwt>
<totfact> 0.17250125E-01</totfact>
</mgrwt>
</event>
<event>
 4    1  0.2061941E-008  0.4764097E+03  0.7818608E-02  0.1020127E+00
          2   -1    0    0  501    0  0.00000000000E+00  0.00000000000E+00  0.13169758144E+04  0.13169758144E+04  0.25500000000E-02 0. -1.
         -2   -1    0    0    0  501 -0.00000000000E+00 -0.00000000000E+00 -0.30056808779E+03  0.30056808780E+03  0.25500000000E-02 0.  1.
    8880022    1    1    2    0    0 -0.45112410842E+03 -0.78462626668E+01  0.10364642849E+04  0.11407122301E+04  0.15294330000E+03 0.  0.
    8880022    1    1    2    0    0  0.45112410842E+03  0.78462626668E+01 -0.20056558217E+02  0.47683167216E+03  0.15294330000E+03 0.  0.
<mgrwt>
<rscale>  0 0.47640967E+03</rscale>
<asrwt>0</asrwt>
<pdfrwt beam="1">  1        2 0.20261167E+00 0.47640967E+03</pdfrwt>
<pdfrwt beam="2">  1       -2 0.46241244E-01 0.47640967E+03</pdfrwt>
<totfact> 0.75216482E+01</totfact>
</mgrwt>
</event>
<event>
 4    1  0.2061941E-008  0.1653373E+04  0.7818608E-02  0.8788414E-01
          2   -1    0    0  501    0  0.00000000000E+00  0.00000000000E+00  0.16332868751E+04  0.16332868751E+04  0.25500000000E-02 0. -1.
         -2   -1    0    0    0  501 -0.00000000000E+00 -0.00000000000E+00 -0.23595355183E+04  0.23595355183E+04  0.25500000000E-02 0.  1.
    8880022    1    1    2    0    0  0.31404232784E+02 -0.16459841088E+04  0.71320436789E+03  0.18006393408E+04  0.15294330000E+03 0.  0.
    8880022    1    1    2    0    0 -0.31404232784E+02  0.16459841088E+04 -0.14394530111E+04  0.21921830526E+04  0.15294330000E+03 0.  0.
<mgrwt>
<rscale>  0 0.16533728E+04</rscale>
<asrwt>0</asrwt>
<pdfrwt beam="1">  1        2 0.25127490E+00 0.16533728E+04</pdfrwt>
<pdfrwt beam="2">  1       -2 0.36300547E+00 0.16533728E+04</pdfrwt>
<totfact> 0.12713679E-01</totfact>
</mgrwt>
</event>
<event>
 4    1  0.2061941E-008  0.3781164E+03  0.7818608E-02  0.1051632E+00
         -2   -1    0    0    0  501 -0.00000000000E+00  0.00000000000E+00  0.16156746770E+04  0.16156746770E+04  0.25500000000E-02 0.  1.
          2   -1    0    0  501    0  0.00000000000E+00 -0.00000000000E+00 -0.66275892366E+03  0.66275892367E+03  0.25500000000E-02 0. -1.
    8880022    1    1    2    0    0  0.15506948619E+03  0.30908543889E+03 -0.58398193313E+03  0.69570604807E+03  0.15294330000E+03 0.  0.
    8880022    1    1    2    0    0 -0.15506948619E+03 -0.30908543889E+03  0.15368976864E+04  0.15827275526E+04  0.15294330000E+03 0.  1.
<mgrwt>
<rscale>  0 0.37811639E+03</rscale>
<asrwt>0</asrwt>
<pdfrwt beam="1">  1        2 0.10196291E+00 0.37811639E+03</pdfrwt>
<pdfrwt beam="2">  1       -2 0.24856533E+00 0.37811639E+03</pdfrwt>
<totfact> 0.32001276E+00</totfact>
</mgrwt>
</event>
<event>
 4    1  0.2061941E-008  0.7859180E+03  0.7818608E-02  0.9580627E-01
         -2   -1    0    0    0  501 -0.00000000000E+00  0.00000000000E+00  0.12221624140E+04  0.12221624140E+04  0.25500000000E-02 0.  1.
          2   -1    0    0  501    0  0.00000000000E+00 -0.00000000000E+00 -0.83652715567E+03  0.83652715567E+03  0.25500000000E-02 0. -1.
    8880022    1    1    2    0    0 -0.39882275993E+03 -0.65970892344E+03  0.84044565790E+03  0.11506589479E+04  0.15294330000E+03 0.  0.
    8880022    1    1    2    0    0  0.39882275993E+03  0.65970892344E+03 -0.45481039956E+03  0.90803062177E+03  0.15294330000E+03 0.  0.
<mgrwt>
<rscale>  0 0.78591800E+03</rscale>
<asrwt>0</asrwt>
<pdfrwt beam="1">  1        2 0.12869649E+00 0.78591800E+03</pdfrwt>
<pdfrwt beam="2">  1       -2 0.18802499E+00 0.78591800E+03</pdfrwt>
<totfact> 0.52662730E+00</totfact>
</mgrwt>
</event>
<event>
 4    1  0.2061941E-008  0.3234484E+03  0.7818608E-02  0.1074073E+00
         -2   -1    0    0    0  501 -0.00000000000E+00  0.00000000000E+00  0.18061036124E+03  0.18061036126E+03  0.25500000000E-02 0.  1.
          2   -1    0    0  501    0  0.00000000000E+00 -0.00000000000E+00 -0.12237415890E+04  0.12237415890E+04  0.25500000000E-02 0. -1.
    8880022    1    1    2    0    0  0.10514944921E+03 -0.26489767875E+03 -0.10311418839E+04  0.10806814631E+04  0.15294330000E+03 0. -1.
    8880022    1    1    2    0    0 -0.10514944921E+03  0.26489767875E+03 -0.11989343816E+02  0.32367048715E+03  0.15294330000E+03 0.  0.
<mgrwt>
<rscale>  0 0.32344836E+03</rscale>
<asrwt>0</asrwt>
<pdfrwt beam="1">  1        2 0.18826793E+00 0.32344836E+03</pdfrwt>
<pdfrwt beam="2">  1       -2 0.27786210E-01 0.32344836E+03</pdfrwt>
<totfact> 0.22796363E+02</totfact>
</mgrwt>
</event>
<event>
 4    1  0.2061941E-008  0.8490819E+03  0.7818608E-02  0.9491570E-01
          2   -1    0    0  501    0  0.00000000000E+00  0.00000000000E+00  0.18791946224E+04  0.18791946224E+04  0.25500000000E-02 0. -1.
         -2   -1    0    0    0  501 -0.00000000000E+00 -0.00000000000E+00 -0.14663773714E+04  0.14663773714E+04  0.25500000000E-02 0.  1.
    8880022    1    1    2    0    0  0.16820598451E+03  0.81808021781E+03 -0.12309940222E+04  0.14954218240E+04  0.15294330000E+03 0.  1.
    8880022    1    1    2    0    0 -0.16820598451E+03 -0.81808021781E+03  0.16438112732E+04  0.18501501698E+04  0.15294330000E+03 0.  0.
<mgrwt>
<rscale>  0 0.84908194E+03</rscale>
<asrwt>0</asrwt>
<pdfrwt beam="1">  1        2 0.28910686E+00 0.84908194E+03</pdfrwt>
<pdfrwt beam="2">  1       -2 0.22559652E+00 0.84908194E+03</pdfrwt>
<totfact> 0.72832553E-01</totfact>
</mgrwt>
</event>
<event>
 4    1  0.2489029E-008  0.1890250E+04  0.7818608E-02  0.8659725E-01
         -2   -1    0    0    0  501 -0.00000000000E+00  0.00000000000E+00  0.25646071918E+04  0.25646071918E+04  0.25500000000E-02 0.  1.
          2   -1    0    0  501    0  0.00000000000E+00 -0.00000000000E+00 -0.35927099812E+04  0.35927099812E+04  0.25500000000E-02 0. -1.
    8880022    1    1    2    0    0 -0.84538251198E+03  0.16837402590E+04 -0.29229144904E+04  0.34808725375E+04  0.15294330000E+03 0.  0.
    8880022    1    1    2    0    0  0.84538251198E+03 -0.16837402590E+04  0.18948117010E+04  0.26764446354E+04  0.15294330000E+03 0.  0.
<mgrwt>
<rscale>  0 0.18902499E+04</rscale>
<asrwt>0</asrwt>
<pdfrwt beam="1">  1        2 0.55272461E+00 0.18902499E+04</pdfrwt>
<pdfrwt beam="2">  1       -2 0.39455495E+00 0.18902499E+04</pdfrwt>
<totfact> 0.50295070E-03</totfact>
</mgrwt>
</event>
<event>
 4    1  0.2061941E-008  0.7096655E+03  0.7818608E-02  0.9700844E-01
         -2   -1    0    0    0  501 -0.00000000000E+00  0.00000000000E+00  0.27061386606E+03  0.27061386608E+03  0.25500000000E-02 0.  1.
          2   -1    0    0  501    0  0.00000000000E+00 -0.00000000000E+00 -0.25885378333E+04  0.25885378333E+04  0.25500000000E-02 0. -1.
    8880022    1    1    2    0    0  0.10218930924E+03 -0.68541292095E+03 -0.19168301142E+04  0.20439821102E+04  0.15294330000E+03 0.  0.
    8880022    1    1    2    0    0 -0.10218930924E+03  0.68541292095E+03 -0.40109385301E+03  0.81516958915E+03  0.15294330000E+03 0.  0.
<mgrwt>
<rscale>  0 0.70966554E+03</rscale>
<asrwt>0</asrwt>
<pdfrwt beam="1">  1        2 0.39823657E+00 0.70966554E+03</pdfrwt>
<pdfrwt beam="2">  1       -2 0.41632904E-01 0.70966554E+03</pdfrwt>
<totfact> 0.17832806E+01</totfact>
</mgrwt>
</event>
<event>
 4    1  0.2061941E-008  0.7589398E+03  0.7818608E-02  0.9621429E-01
          2   -1    0    0  501    0  0.00000000000E+00  0.00000000000E+00  0.51117774677E+03  0.51117774677E+03  0.25500000000E-02 0. -1.
         -2   -1    0    0    0  501 -0.00000000000E+00 -0.00000000000E+00 -0.19120241875E+04  0.19120241875E+04  0.25500000000E-02 0.  1.
    8880022    1    1    2    0    0  0.59552361152E+03 -0.44491530251E+03 -0.14768717902E+04  0.16604637714E+04  0.15294330000E+03 0.  0.
    8880022    1    1    2    0    0 -0.59552361152E+03  0.44491530251E+03  0.76025349528E+02  0.76273816286E+03  0.15294330000E+03 0.  0.
<mgrwt>
<rscale>  0 0.75893982E+03</rscale>
<asrwt>0</asrwt>
<pdfrwt beam="1">  1        2 0.78642731E-01 0.75893982E+03</pdfrwt>
<pdfrwt beam="2">  1       -2 0.29415756E+00 0.75893982E+03</pdfrwt>
<totfact> 0.21510705E+00</totfact>
</mgrwt>
</event>
<event>
 4    1  0.2061941E-008  0.7195683E+03  0.7818608E-02  0.9684341E-01
         -2   -1    0    0    0  501 -0.00000000000E+00  0.00000000000E+00  0.52535573115E+03  0.52535573115E+03  0.25500000000E-02 0.  1.
          2   -1    0    0  501    0  0.00000000000E+00 -0.00000000000E+00 -0.39647944709E+04  0.39647944709E+04  0.25500000000E-02 0. -1.
    8880022    1    1    2    0    0  0.52500409770E+03 -0.46771526961E+03  0.22640968443E+03  0.75434731672E+03  0.15294330000E+03 0.  0.
    8880022    1    1    2    0    0 -0.52500409770E+03  0.46771526961E+03 -0.36658484242E+04  0.37358028853E+04  0.15294330000E+03 0.  0.
<mgrwt>
<rscale>  0 0.71956829E+03</rscale>
<asrwt>0</asrwt>
<pdfrwt beam="1">  1        2 0.60996836E+00 0.71956829E+03</pdfrwt>
<pdfrwt beam="2">  1       -2 0.80823961E-01 0.71956829E+03</pdfrwt>
<totfact> 0.55288280E-01</totfact>
</mgrwt>
</event>
<event>
 4    1  0.2061941E-008  0.3393693E+03  0.7818608E-02  0.1067065E+00
         -2   -1    0    0    0  501 -0.00000000000E+00  0.00000000000E+00  0.13121594868E+03  0.13121594870E+03  0.25500000000E-02 0.  1.
          2   -1    0    0  501    0  0.00000000000E+00 -0.00000000000E+00 -0.16198059834E+04  0.16198059834E+04  0.25500000000E-02 0. -1.
    8880022    1    1    2    0    0  0.29521020868E+03 -0.68050042811E+02 -0.15170310572E+03  0.37173291614E+03  0.15294330000E+03 0.  0.
    8880022    1    1    2    0    0 -0.29521020868E+03  0.68050042811E+02 -0.13368869290E+04  0.13792890160E+04  0.15294330000E+03 0.  0.
<mgrwt>
<rscale>  0 0.33936931E+03</rscale>
<asrwt>0</asrwt>
<pdfrwt beam="1">  1        2 0.24920091E+00 0.33936931E+03</pdfrwt>
<pdfrwt beam="2">  1       -2 0.20187070E-01 0.33936931E+03</pdfrwt>
<totfact> 0.24236770E+02</totfact>
</mgrwt>
</event>
<event>
 4    1  0.2061941E-008  0.7521101E+03  0.7818608E-02  0.9632046E-01
         -2   -1    0    0    0  501 -0.00000000000E+00  0.00000000000E+00  0.12991668202E+04  0.12991668203E+04  0.25500000000E-02 0.  1.
          2   -1    0    0  501    0  0.00000000000E+00 -0.00000000000E+00 -0.20088571604E+04  0.20088571604E+04  0.25500000000E-02 0. -1.
    8880022    1    1    2    0    0 -0.46371149896E+03  0.57205733499E+03 -0.18186739201E+04  0.19680560026E+04  0.15294330000E+03 0.  0.
    8880022    1    1    2    0    0  0.46371149896E+03 -0.57205733499E+03  0.11089835799E+04  0.13399679781E+04  0.15294330000E+03 0.  0.
<mgrwt>
<rscale>  0 0.75211010E+03</rscale>
<asrwt>0</asrwt>
<pdfrwt beam="1">  1        2 0.30905495E+00 0.75211010E+03</pdfrwt>
<pdfrwt beam="2">  1       -2 0.19987182E+00 0.75211010E+03</pdfrwt>
<totfact> 0.91864476E-01</totfact>
</mgrwt>
</event>
<event>
 4    1  0.2061941E-008  0.4493424E+03  0.7818608E-02  0.1027918E+00
          2   -1    0    0  501    0  0.00000000000E+00  0.00000000000E+00  0.30417328761E+04  0.30417328761E+04  0.25500000000E-02 0. -1.
         -2   -1    0    0    0  501 -0.00000000000E+00 -0.00000000000E+00 -0.21957008118E+03  0.21957008119E+03  0.25500000000E-02 0.  1.
    8880022    1    1    2    0    0 -0.12911544500E+03  0.40230111133E+03  0.49038979742E+02  0.45201046101E+03  0.15294330000E+03 0.  0.
    8880022    1    1    2    0    0  0.12911544500E+03 -0.40230111133E+03  0.27731238151E+04  0.28092924962E+04  0.15294330000E+03 0.  0.
<mgrwt>
<rscale>  0 0.44934245E+03</rscale>
<asrwt>0</asrwt>
<pdfrwt beam="1">  1        2 0.46795889E+00 0.44934245E+03</pdfrwt>
<pdfrwt beam="2">  1       -2 0.33780013E-01 0.44934245E+03</pdfrwt>
<totfact> 0.15271136E+01</totfact>
</mgrwt>
</event>
<event>
 4    1  0.2061941E-008  0.5431926E+03  0.7818608E-02  0.1003082E+00
          2   -1    0    0  501    0  0.00000000000E+00  0.00000000000E+00  0.26902895563E+04  0.26902895563E+04  0.25500000000E-02 0. -1.
         -2   -1    0    0    0  501 -0.00000000000E+00 -0.00000000000E+00 -0.18982864692E+03  0.18982864694E+03  0.25500000000E-02 0.  1.
    8880022    1    1    2    0    0 -0.10739489174E+03 -0.51003221364E+03  0.21859816953E+04  0.22524595772E+04  0.15294330000E+03 0.  0.
    8880022    1    1    2    0    0  0.10739489174E+03  0.51003221364E+03  0.31447921405E+03  0.62765862601E+03  0.15294330000E+03 0.  0.
<mgrwt>
<rscale>  0 0.54319258E+03</rscale>
<asrwt>0</asrwt>
<pdfrwt beam="1">  1        2 0.41389068E+00 0.54319258E+03</pdfrwt>
<pdfrwt beam="2">  1       -2 0.29204408E-01 0.54319258E+03</pdfrwt>
<totfact> 0.31524204E+01</totfact>
</mgrwt>
</event>
<event>
 4    1  0.2061941E-008  0.4611219E+03  0.7818608E-02  0.1024456E+00
          2   -1    0    0  501    0  0.00000000000E+00  0.00000000000E+00  0.21510731006E+04  0.21510731006E+04  0.25500000000E-02 0. -1.
         -2   -1    0    0    0  501 -0.00000000000E+00 -0.00000000000E+00 -0.38823957757E+03  0.38823957757E+03  0.25500000000E-02 0.  1.
    8880022    1    1    2    0    0 -0.41732817456E+03 -0.12279652592E+03  0.19775864055E+04  0.20306357222E+04  0.15294330000E+03 0.  0.
    8880022    1    1    2    0    0  0.41732817456E+03  0.12279652592E+03 -0.21475288242E+03  0.50867695602E+03  0.15294330000E+03 0.  0.
<mgrwt>
<rscale>  0 0.46112194E+03</rscale>
<asrwt>0</asrwt>
<pdfrwt beam="1">  1        2 0.33093433E+00 0.46112194E+03</pdfrwt>
<pdfrwt beam="2">  1       -2 0.59729165E-01 0.46112194E+03</pdfrwt>
<totfact> 0.15778222E+01</totfact>
</mgrwt>
</event>
<event>
 4    1  0.2061941E-008  0.4239917E+03  0.7818608E-02  0.1035775E+00
         -2   -1    0    0    0  501 -0.00000000000E+00  0.00000000000E+00  0.88850260564E+03  0.88850260565E+03  0.25500000000E-02 0.  1.
          2   -1    0    0  501    0  0.00000000000E+00 -0.00000000000E+00 -0.43288973776E+03  0.43288973777E+03  0.25500000000E-02 0. -1.
    8880022    1    1    2    0    0  0.86919214676E+02 -0.38577495788E+03 -0.25437090940E+03  0.49444259583E+03  0.15294330000E+03 0.  0.
    8880022    1    1    2    0    0 -0.86919214676E+02  0.38577495788E+03  0.70998377728E+03  0.82694974758E+03  0.15294330000E+03 0.  0.
<mgrwt>
<rscale>  0 0.42399165E+03</rscale>
<asrwt>0</asrwt>
<pdfrwt beam="1">  1        2 0.66598422E-01 0.42399165E+03</pdfrwt>
<pdfrwt beam="2">  1       -2 0.13669271E+00 0.42399165E+03</pdfrwt>
<totfact> 0.29048415E+01</totfact>
</mgrwt>
</event>
<event>
 4    1  0.2061941E-008  0.9614085E+03  0.7818608E-02  0.9351914E-01
          2   -1    0    0  501    0  0.00000000000E+00  0.00000000000E+00  0.12710890218E+04  0.12710890218E+04  0.25500000000E-02 0. -1.
         -2   -1    0    0    0  501 -0.00000000000E+00 -0.00000000000E+00 -0.14084418918E+04  0.14084418918E+04  0.25500000000E-02 0.  1.
    8880022    1    1    2    0    0  0.19019794679E+03  0.92991360546E+03 -0.10004651211E+04  0.13875289850E+04  0.15294330000E+03 0.  0.
    8880022    1    1    2    0    0 -0.19019794679E+03 -0.92991360546E+03  0.86311225105E+03  0.12920019286E+04  0.15294330000E+03 0.  0.
<mgrwt>
<rscale>  0 0.96140846E+03</rscale>
<asrwt>0</asrwt>
<pdfrwt beam="1">  1        2 0.19555216E+00 0.96140846E+03</pdfrwt>
<pdfrwt beam="2">  1       -2 0.21668337E+00 0.96140846E+03</pdfrwt>
<totfact> 0.17809990E+00</totfact>
</mgrwt>
</event>
<event>
 4    1  0.2061941E-008  0.2553531E+03  0.7818608E-02  0.1109968E+00
          2   -1    0    0  501    0  0.00000000000E+00  0.00000000000E+00  0.33471259823E+04  0.33471259823E+04  0.25500000000E-02 0. -1.
         -2   -1    0    0    0  501 -0.00000000000E+00 -0.00000000000E+00 -0.18774151380E+03  0.18774151382E+03  0.25500000000E-02 0.  1.
    8880022    1    1    2    0    0  0.13916266653E+03 -0.14982423954E+03 -0.93532022164E+02  0.27194382268E+03  0.15294330000E+03 0.  0.
    8880022    1    1    2    0    0 -0.13916266653E+03  0.14982423954E+03  0.32529164907E+04  0.32629236734E+04  0.15294330000E+03 0. -1.
<mgrwt>
<rscale>  0 0.25535310E+03</rscale>
<asrwt>0</asrwt>
<pdfrwt beam="1">  1        2 0.51494243E+00 0.25535310E+03</pdfrwt>
<pdfrwt beam="2">  1       -2 0.28883311E-01 0.25535310E+03</pdfrwt>
<totfact> 0.14252016E+01</totfact>
</mgrwt>
</event>
<event>
 4    1  0.2061941E-008  0.7532228E+03  0.7818608E-02  0.9630308E-01
         -2   -1    0    0    0  501 -0.00000000000E+00  0.00000000000E+00  0.34728018855E+03  0.34728018856E+03  0.25500000000E-02 0.  1.
          2   -1    0    0  501    0  0.00000000000E+00 -0.00000000000E+00 -0.17066119732E+04  0.17066119732E+04  0.25500000000E-02 0. -1.
    8880022    1    1    2    0    0  0.71492888763E+03 -0.18118939705E+03 -0.46737059512E+03  0.88644223623E+03  0.15294330000E+03 0.  0.
    8880022    1    1    2    0    0 -0.71492888763E+03  0.18118939705E+03 -0.89196118947E+03  0.11674499255E+04  0.15294330000E+03 0.  0.
<mgrwt>
<rscale>  0 0.75322279E+03</rscale>
<asrwt>0</asrwt>
<pdfrwt beam="1">  1        2 0.26255568E+00 0.75322279E+03</pdfrwt>
<pdfrwt beam="2">  1       -2 0.53427722E-01 0.75322279E+03</pdfrwt>
<totfact> 0.32949034E+01</totfact>
</mgrwt>
</event>
<event>
 4    1  0.2061941E-008  0.7481559E+03  0.7818608E-02  0.9638248E-01
          2   -1    0    0  501    0  0.00000000000E+00  0.00000000000E+00  0.77787189601E+03  0.77787189601E+03  0.25500000000E-02 0. -1.
         -2   -1    0    0    0  501 -0.00000000000E+00 -0.00000000000E+00 -0.83404373507E+03  0.83404373507E+03  0.25500000000E-02 0.  1.
    8880022    1    1    2    0    0 -0.70488638889E+03 -0.19869766747E+03 -0.32666623700E+03  0.81636270598E+03  0.15294330000E+03 0.  0.
    8880022    1    1    2    0    0  0.70488638889E+03  0.19869766747E+03  0.27049439794E+03  0.79555292510E+03  0.15294330000E+03 0.  0.
<mgrwt>
<rscale>  0 0.74815589E+03</rscale>
<asrwt>0</asrwt>
<pdfrwt beam="1">  1        2 0.11967260E+00 0.74815589E+03</pdfrwt>
<pdfrwt beam="2">  1       -2 0.12831442E+00 0.74815589E+03</pdfrwt>
<totfact> 0.16288196E+01</totfact>
</mgrwt>
</event>
<event>
 4    1  0.2061941E-008  0.5042331E+03  0.7818608E-02  0.1012680E+00
          2   -1    0    0  501    0  0.00000000000E+00  0.00000000000E+00  0.30588666260E+04  0.30588666260E+04  0.25500000000E-02 0. -1.
         -2   -1    0    0    0  501 -0.00000000000E+00 -0.00000000000E+00 -0.46777692623E+03  0.46777692624E+03  0.25500000000E-02 0.  1.
    8880022    1    1    2    0    0 -0.46303460306E+03 -0.12829015625E+03 -0.30345825908E+03  0.58850486475E+03  0.15294330000E+03 0.  0.
    8880022    1    1    2    0    0  0.46303460306E+03  0.12829015625E+03  0.28945479588E+04  0.29381386875E+04  0.15294330000E+03 0.  0.
<mgrwt>
<rscale>  0 0.50423314E+03</rscale>
<asrwt>0</asrwt>
<pdfrwt beam="1">  1        2 0.47059486E+00 0.50423314E+03</pdfrwt>
<pdfrwt beam="2">  1       -2 0.71965682E-01 0.50423314E+03</pdfrwt>
<totfact> 0.31804201E+00</totfact>
</mgrwt>
</event>
<event>
 4    1  0.2061941E-008  0.7599226E+03  0.7818608E-02  0.9619911E-01
          2   -1    0    0  501    0  0.00000000000E+00  0.00000000000E+00  0.33139722756E+04  0.33139722756E+04  0.25500000000E-02 0. -1.
         -2   -1    0    0    0  501 -0.00000000000E+00 -0.00000000000E+00 -0.27910725225E+03  0.27910725226E+03  0.25500000000E-02 0.  1.
    8880022    1    1    2    0    0  0.15503692158E+02  0.74421123607E+03  0.41630828815E+03  0.86648425961E+03  0.15294330000E+03 0.  0.
    8880022    1    1    2    0    0 -0.15503692158E+02 -0.74421123607E+03  0.26185567352E+04  0.27265952682E+04  0.15294330000E+03 0.  0.
<mgrwt>
<rscale>  0 0.75992262E+03</rscale>
<asrwt>0</asrwt>
<pdfrwt beam="1">  1        2 0.50984187E+00 0.75992262E+03</pdfrwt>
<pdfrwt beam="2">  1       -2 0.42939579E-01 0.75992262E+03</pdfrwt>
<totfact> 0.60206165E+00</totfact>
</mgrwt>
</event>
<event>
 4    1  0.2061941E-008  0.2980976E+03  0.7818608E-02  0.1086196E+00
         -2   -1    0    0    0  501 -0.00000000000E+00  0.00000000000E+00  0.16593499185E+04  0.16593499185E+04  0.25500000000E-02 0.  1.
          2   -1    0    0  501    0  0.00000000000E+00 -0.00000000000E+00 -0.23377465937E+03  0.23377465938E+03  0.25500000000E-02 0. -1.
    8880022    1    1    2    0    0 -0.18757863373E+03  0.17402516475E+03 -0.11831509907E+03  0.32071890727E+03  0.15294330000E+03 0.  0.
    8880022    1    1    2    0    0  0.18757863373E+03 -0.17402516475E+03  0.15438903582E+04  0.15724056706E+04  0.15294330000E+03 0.  0.
<mgrwt>
<rscale>  0 0.29809756E+03</rscale>
<asrwt>0</asrwt>
<pdfrwt beam="1">  1        2 0.35965332E-01 0.29809756E+03</pdfrwt>
<pdfrwt beam="2">  1       -2 0.25528461E+00 0.29809756E+03</pdfrwt>
<totfact> 0.95758660E+00</totfact>
</mgrwt>
</event>
<event>
 4    1  0.2153846E-008  0.1595753E+04  0.7818608E-02  0.8823161E-01
         -2   -1    0    0    0  501 -0.00000000000E+00  0.00000000000E+00  0.12434912668E+04  0.12434912668E+04  0.25500000000E-02 0.  1.
          2   -1    0    0  501    0  0.00000000000E+00 -0.00000000000E+00 -0.39249258112E+04  0.39249258112E+04  0.25500000000E-02 0. -1.
    8880022    1    1    2    0    0 -0.15882487608E+04  0.22415676083E+02  0.44641989466E+03  0.16570211115E+04  0.15294330000E+03 0.  0.
    8880022    1    1    2    0    0  0.15882487608E+04 -0.22415676083E+02 -0.31278544390E+04  0.35113959665E+04  0.15294330000E+03 0.  0.
<mgrwt>
<rscale>  0 0.15957532E+04</rscale>
<asrwt>0</asrwt>
<pdfrwt beam="1">  1        2 0.60383473E+00 0.15957532E+04</pdfrwt>
<pdfrwt beam="2">  1       -2 0.19130635E+00 0.15957532E+04</pdfrwt>
<totfact> 0.56237888E-02</totfact>
</mgrwt>
</event>
<event>
 4    1  0.2061941E-008  0.6387077E+03  0.7818608E-02  0.9828202E-01
          2   -1    0    0  501    0  0.00000000000E+00  0.00000000000E+00  0.23820559856E+03  0.23820559858E+03  0.25500000000E-02 0. -1.
         -2   -1    0    0    0  501 -0.00000000000E+00 -0.00000000000E+00 -0.36876964890E+04  0.36876964890E+04  0.25500000000E-02 0.  1.
    8880022    1    1    2    0    0  0.28738892010E+03 -0.54951201470E+03 -0.31613181668E+04  0.32251945756E+04  0.15294330000E+03 0.  0.
    8880022    1    1    2    0    0 -0.28738892010E+03  0.54951201470E+03 -0.28817272365E+03  0.70070751200E+03  0.15294330000E+03 0.  0.
<mgrwt>
<rscale>  0 0.63870768E+03</rscale>
<asrwt>0</asrwt>
<pdfrwt beam="1">  1        2 0.36647018E-01 0.63870768E+03</pdfrwt>
<pdfrwt beam="2">  1       -2 0.56733788E+00 0.63870768E+03</pdfrwt>
<totfact> 0.10446206E-01</totfact>
</mgrwt>
</event>
<event>
 4    1  0.2061941E-008  0.3160536E+03  0.7818608E-02  0.1077480E+00
          2   -1    0    0  501    0  0.00000000000E+00  0.00000000000E+00  0.31844026361E+03  0.31844026362E+03  0.25500000000E-02 0. -1.
         -2   -1    0    0    0  501 -0.00000000000E+00 -0.00000000000E+00 -0.13059818979E+04  0.13059818979E+04  0.25500000000E-02 0.  1.
    8880022    1    1    2    0    0 -0.12058783295E+03 -0.24891124483E+03 -0.12017511300E+04  0.12426164592E+04  0.15294330000E+03 0.  1.
    8880022    1    1    2    0    0  0.12058783295E+03  0.24891124483E+03  0.21420949569E+03  0.38180570231E+03  0.15294330000E+03 0.  0.
<mgrwt>
<rscale>  0 0.31605361E+03</rscale>
<asrwt>0</asrwt>
<pdfrwt beam="1">  1        2 0.48990811E-01 0.31605361E+03</pdfrwt>
<pdfrwt beam="2">  1       -2 0.20092029E+00 0.31605361E+03</pdfrwt>
<totfact> 0.14559524E+01</totfact>
</mgrwt>
</event>
<event>
 4    1  0.2061941E-008  0.6239337E+03  0.7818608E-02  0.9856959E-01
          2   -1    0    0  501    0  0.00000000000E+00  0.00000000000E+00  0.71908774742E+03  0.71908774743E+03  0.25500000000E-02 0. -1.
         -2   -1    0    0    0  501 -0.00000000000E+00 -0.00000000000E+00 -0.12682110592E+04  0.12682110592E+04  0.25500000000E-02 0.  1.
    8880022    1    1    2    0    0  0.39109218323E+03 -0.46146346208E+03 -0.10268023541E+04  0.12015058676E+04  0.15294330000E+03 0.  0.
    8880022    1    1    2    0    0 -0.39109218323E+03  0.46146346208E+03  0.47767904225E+03  0.78579293903E+03  0.15294330000E+03 0.  0.
<mgrwt>
<rscale>  0 0.62393371E+03</rscale>
<asrwt>0</asrwt>
<pdfrwt beam="1">  1        2 0.11062888E+00 0.62393371E+03</pdfrwt>
<pdfrwt beam="2">  1       -2 0.19510939E+00 0.62393371E+03</pdfrwt>
<totfact> 0.58902555E+00</totfact>
</mgrwt>
</event>
<event>
 4    1  0.2061941E-008  0.2931106E+03  0.7818608E-02  0.1088736E+00
          2   -1    0    0  501    0  0.00000000000E+00  0.00000000000E+00  0.73319777693E+03  0.73319777694E+03  0.25500000000E-02 0. -1.
         -2   -1    0    0    0  501 -0.00000000000E+00 -0.00000000000E+00 -0.20506993826E+03  0.20506993828E+03  0.25500000000E-02 0.  1.
    8880022    1    1    2    0    0 -0.23780667403E+03  0.77266885043E+02  0.57119447718E+03  0.64201010079E+03  0.15294330000E+03 0.  0.
    8880022    1    1    2    0    0  0.23780667403E+03 -0.77266885043E+02 -0.43066638517E+02  0.29625761442E+03  0.15294330000E+03 0.  0.
<mgrwt>
<rscale>  0 0.29311063E+03</rscale>
<asrwt>0</asrwt>
<pdfrwt beam="1">  1        2 0.11279966E+00 0.29311063E+03</pdfrwt>
<pdfrwt beam="2">  1       -2 0.31549222E-01 0.29311063E+03</pdfrwt>
<totfact> 0.37119219E+02</totfact>
</mgrwt>
</event>
<event>
 4    1  0.2061941E-008  0.8697773E+03  0.7818608E-02  0.9464170E-01
         -2   -1    0    0    0  501 -0.00000000000E+00  0.00000000000E+00  0.76206404185E+03  0.76206404185E+03  0.25500000000E-02 0.  1.
          2   -1    0    0  501    0  0.00000000000E+00 -0.00000000000E+00 -0.11891893745E+04  0.11891893745E+04  0.25500000000E-02 0. -1.
    8880022    1    1    2    0    0  0.13298903058E+00 -0.85622477585E+03  0.18299918783E+03  0.88882013942E+03  0.15294330000E+03 0.  0.
    8880022    1    1    2    0    0 -0.13298903058E+00  0.85622477585E+03 -0.61012452050E+03  0.10624332770E+04  0.15294330000E+03 0.  0.
<mgrwt>
<rscale>  0 0.86977729E+03</rscale>
<asrwt>0</asrwt>
<pdfrwt beam="1">  1        2 0.18295221E+00 0.86977729E+03</pdfrwt>
<pdfrwt beam="2">  1       -2 0.11724062E+00 0.86977729E+03</pdfrwt>
<totfact> 0.10874295E+01</totfact>
</mgrwt>
</event>
<event>
 4    1  0.2061941E-008  0.6911756E+03  0.7818608E-02  0.9732443E-01
          2   -1    0    0  501    0  0.00000000000E+00  0.00000000000E+00  0.16936059692E+04  0.16936059692E+04  0.25500000000E-02 0. -1.
         -2   -1    0    0    0  501 -0.00000000000E+00 -0.00000000000E+00 -0.41034199257E+03  0.41034199258E+03  0.25500000000E-02 0.  1.
    8880022    1    1    2    0    0  0.51619134439E+03 -0.43344952889E+03  0.53479788957E+02  0.69324147233E+03  0.15294330000E+03 0.  0.
    8880022    1    1    2    0    0 -0.51619134439E+03  0.43344952889E+03  0.12297841877E+04  0.14107064895E+04  0.15294330000E+03 0.  0.
<mgrwt>
<rscale>  0 0.69117556E+03</rscale>
<asrwt>0</asrwt>
<pdfrwt beam="1">  1        2 0.26055476E+00 0.69117556E+03</pdfrwt>
<pdfrwt beam="2">  1       -2 0.63129539E-01 0.69117556E+03</pdfrwt>
<totfact> 0.23791476E+01</totfact>
</mgrwt>
</event>
<event>
 4    1  0.2061941E-008  0.2558930E+03  0.7818608E-02  0.1109636E+00
         -2   -1    0    0    0  501 -0.00000000000E+00  0.00000000000E+00  0.68494101884E+03  0.68494101885E+03  0.25500000000E-02 0.  1.
          2   -1    0    0  501    0  0.00000000000E+00 -0.00000000000E+00 -0.71658397636E+03  0.71658397636E+03  0.25500000000E-02 0. -1.
    8880022    1    1    2    0    0  0.15345080033E+02 -0.20458270799E+03 -0.66816607592E+03  0.71549082028E+03  0.15294330000E+03 0.  0.
    8880022    1    1    2    0    0 -0.15345080033E+02  0.20458270799E+03  0.63652311840E+03  0.68603417492E+03  0.15294330000E+03 0.  0.
<mgrwt>
<rscale>  0 0.25589296E+03</rscale>
<asrwt>0</asrwt>
<pdfrwt beam="1">  1        2 0.11024369E+00 0.25589296E+03</pdfrwt>
<pdfrwt beam="2">  1       -2 0.10537554E+00 0.25589296E+03</pdfrwt>
<totfact> 0.31477606E+01</totfact>
</mgrwt>
</event>
<event>
 4    1  0.2061941E-008  0.1080710E+04  0.7818608E-02  0.9224199E-01
          2   -1    0    0  501    0  0.00000000000E+00  0.00000000000E+00  0.16627862880E+04  0.16627862880E+04  0.25500000000E-02 0. -1.
         -2   -1    0    0    0  501 -0.00000000000E+00 -0.00000000000E+00 -0.19577614948E+04  0.19577614948E+04  0.25500000000E-02 0.  1.
    8880022    1    1    2    0    0  0.28526174546E+03  0.10311009182E+04 -0.15970917735E+04  0.19283768182E+04  0.15294330000E+03 0.  0.
    8880022    1    1    2    0    0 -0.28526174546E+03 -0.10311009182E+04  0.13021165667E+04  0.16921709645E+04  0.15294330000E+03 0.  0.
<mgrwt>
<rscale>  0 0.10807104E+04</rscale>
<asrwt>0</asrwt>
<pdfrwt beam="1">  1        2 0.25581328E+00 0.10807104E+04</pdfrwt>
<pdfrwt beam="2">  1       -2 0.30119407E+00 0.10807104E+04</pdfrwt>
<totfact> 0.31935894E-01</totfact>
</mgrwt>
</event>
<event>
 4    1  0.2061941E-008  0.1229496E+04  0.7818608E-02  0.9087424E-01
          2   -1    0    0  501    0  0.00000000000E+00  0.00000000000E+00  0.11995991740E+04  0.11995991740E+04  0.25500000000E-02 0. -1.
         -2   -1    0    0    0  501 -0.00000000000E+00 -0.00000000000E+00 -0.16509233469E+04  0.16509233469E+04  0.25500000000E-02 0.  1.
    8880022    1    1    2    0    0  0.23948105290E+03 -0.11962095440E+04 -0.91908844861E+03  0.15350516855E+04  0.15294330000E+03 0.  0.
    8880022    1    1    2    0    0 -0.23948105290E+03  0.11962095440E+04  0.46776427571E+03  0.13154708353E+04  0.15294330000E+03 0.  0.
<mgrwt>
<rscale>  0 0.12294959E+04</rscale>
<asrwt>0</asrwt>
<pdfrwt beam="1">  1        2 0.18455372E+00 0.12294959E+04</pdfrwt>
<pdfrwt beam="2">  1       -2 0.25398821E+00 0.12294959E+04</pdfrwt>
<totfact> 0.11161370E+00</totfact>
</mgrwt>
</event>
<event>
 4    1  0.2061941E-008  0.3225664E+03  0.7818608E-02  0.1074474E+00
         -2   -1    0    0    0  501 -0.00000000000E+00  0.00000000000E+00  0.37667608065E+03  0.37667608066E+03  0.25500000000E-02 0.  1.
          2   -1    0    0  501    0  0.00000000000E+00 -0.00000000000E+00 -0.18575636571E+04  0.18575636571E+04  0.25500000000E-02 0. -1.
    8880022    1    1    2    0    0 -0.14655332441E+03  0.24326847302E+03 -0.17711614946E+04  0.18002950092E+04  0.15294330000E+03 0.  0.
    8880022    1    1    2    0    0  0.14655332441E+03 -0.24326847302E+03  0.29027391822E+03  0.43394472859E+03  0.15294330000E+03 0.  0.
<mgrwt>
<rscale>  0 0.32256640E+03</rscale>
<asrwt>0</asrwt>
<pdfrwt beam="1">  1        2 0.28577902E+00 0.32256640E+03</pdfrwt>
<pdfrwt beam="2">  1       -2 0.57950167E-01 0.32256640E+03</pdfrwt>
<totfact> 0.25052326E+01</totfact>
</mgrwt>
</event>
<event>
 4    1  0.2061941E-008  0.2913503E+03  0.7818608E-02  0.1089646E+00
          2   -1    0    0  501    0  0.00000000000E+00  0.00000000000E+00  0.13528241122E+04  0.13528241122E+04  0.25500000000E-02 0. -1.
         -2   -1    0    0    0  501 -0.00000000000E+00 -0.00000000000E+00 -0.16758235979E+03  0.16758235981E+03  0.25500000000E-02 0.  1.
    8880022    1    1    2    0    0  0.24108810791E+03  0.58050689693E+02  0.11938921326E+04  0.12289277585E+04  0.15294330000E+03 0.  0.
    8880022    1    1    2    0    0 -0.24108810791E+03 -0.58050689693E+02 -0.86503801538E+01  0.29147871353E+03  0.15294330000E+03 0.  1.
<mgrwt>
<rscale>  0 0.29135032E+03</rscale>
<asrwt>0</asrwt>
<pdfrwt beam="1">  1        2 0.20812679E+00 0.29135032E+03</pdfrwt>
<pdfrwt beam="2">  1       -2 0.25781901E-01 0.29135032E+03</pdfrwt>
<totfact> 0.22187512E+02</totfact>
</mgrwt>
</event>
<event>
 4    1  0.2061941E-008  0.5629380E+03  0.7818608E-02  0.9985429E-01
          2   -1    0    0  501    0  0.00000000000E+00  0.00000000000E+00  0.15110846407E+04  0.15110846407E+04  0.25500000000E-02 0. -1.
         -2   -1    0    0    0  501 -0.00000000000E+00 -0.00000000000E+00 -0.51505411092E+03  0.51505411093E+03  0.25500000000E-02 0.  1.
    8880022    1    1    2    0    0 -0.53634473386E+03  0.76431957979E+02  0.12780303634E+04  0.13965173757E+04  0.15294330000E+03 0.  0.
    8880022    1    1    2    0    0  0.53634473386E+03 -0.76431957979E+02 -0.28199983371E+03  0.62962137588E+03  0.15294330000E+03 0.  0.
<mgrwt>
<rscale>  0 0.56293798E+03</rscale>
<asrwt>0</asrwt>
<pdfrwt beam="1">  1        2 0.23247456E+00 0.56293798E+03</pdfrwt>
<pdfrwt beam="2">  1       -2 0.79239094E-01 0.56293798E+03</pdfrwt>
<totfact> 0.18594648E+01</totfact>
</mgrwt>
</event>
<event>
 4    1  0.2061941E-008  0.9006302E+03  0.7818608E-02  0.9424794E-01
          2   -1    0    0  501    0  0.00000000000E+00  0.00000000000E+00  0.21319711343E+04  0.21319711343E+04  0.25500000000E-02 0. -1.
         -2   -1    0    0    0  501 -0.00000000000E+00 -0.00000000000E+00 -0.10851939539E+04  0.10851939539E+04  0.25500000000E-02 0.  1.
    8880022    1    1    2    0    0  0.70103799551E+03 -0.54432414345E+03 -0.77289955738E+03  0.11868059753E+04  0.15294330000E+03 0.  0.
    8880022    1    1    2    0    0 -0.70103799551E+03  0.54432414345E+03  0.18196767378E+04  0.20303591129E+04  0.15294330000E+03 0.  0.
<mgrwt>
<rscale>  0 0.90063017E+03</rscale>
<asrwt>0</asrwt>
<pdfrwt beam="1">  1        2 0.32799556E+00 0.90063017E+03</pdfrwt>
<pdfrwt beam="2">  1       -2 0.16695292E+00 0.90063017E+03</pdfrwt>
<totfact> 0.12826162E+00</totfact>
</mgrwt>
</event>
<event>
 4    1  0.2061941E-008  0.1508610E+04  0.7818608E-02  0.8878748E-01
         -2   -1    0    0    0  501 -0.00000000000E+00  0.00000000000E+00  0.93876809410E+03  0.93876809410E+03  0.25500000000E-02 0.  1.
          2   -1    0    0  501    0  0.00000000000E+00 -0.00000000000E+00 -0.26533907406E+04  0.26533907406E+04  0.25500000000E-02 0. -1.
    8880022    1    1    2    0    0  0.50111216392E+03  0.14147078409E+04 -0.13850031796E+04  0.20479592615E+04  0.15294330000E+03 0.  0.
    8880022    1    1    2    0    0 -0.50111216392E+03 -0.14147078409E+04 -0.32961946689E+03  0.15441995733E+04  0.15294330000E+03 0.  0.
<mgrwt>
<rscale>  0 0.15086097E+04</rscale>
<asrwt>0</asrwt>
<pdfrwt beam="1">  1        2 0.40821396E+00 0.15086097E+04</pdfrwt>
<pdfrwt beam="2">  1       -2 0.14442586E+00 0.15086097E+04</pdfrwt>
<totfact> 0.88603131E-01</totfact>
</mgrwt>
</event>
<event>
 4    1  0.2061941E-008  0.1214481E+04  0.7818608E-02  0.9100275E-01
         -2   -1    0    0    0  501 -0.00000000000E+00  0.00000000000E+00  0.14466009030E+04  0.14466009030E+04  0.25500000000E-02 0.  1.
          2   -1    0    0  501    0  0.00000000000E+00 -0.00000000000E+00 -0.14337165556E+04  0.14337165556E+04  0.25500000000E-02 0. -1.
    8880022    1    1    2    0    0  0.57968439148E+03 -0.10561903055E+04  0.78043444957E+03  0.14436209815E+04  0.15294330000E+03 0.  0.
    8880022    1    1    2    0    0 -0.57968439148E+03  0.10561903055E+04 -0.76755010221E+03  0.14366964772E+04  0.15294330000E+03 0.  0.
<mgrwt>
<rscale>  0 0.12144808E+04</rscale>
<asrwt>0</asrwt>
<pdfrwt beam="1">  1        2 0.22057178E+00 0.12144808E+04</pdfrwt>
<pdfrwt beam="2">  1       -2 0.22255398E+00 0.12144808E+04</pdfrwt>
<totfact> 0.12772064E+00</totfact>
</mgrwt>
</event>
<event>
 4    1  0.2061941E-008  0.1111733E+04  0.7818608E-02  0.9193831E-01
          2   -1    0    0  501    0  0.00000000000E+00  0.00000000000E+00  0.16372544220E+04  0.16372544220E+04  0.25500000000E-02 0. -1.
         -2   -1    0    0    0  501 -0.00000000000E+00 -0.00000000000E+00 -0.87047557457E+03  0.87047557458E+03  0.25500000000E-02 0.  1.
    8880022    1    1    2    0    0 -0.10932070830E+04 -0.13212386137E+03  0.84028898563E+03  0.13935694003E+04  0.15294330000E+03 0.  0.
    8880022    1    1    2    0    0  0.10932070830E+04  0.13212386137E+03 -0.73510138188E+02  0.11141605963E+04  0.15294330000E+03 0.  0.
<mgrwt>
<rscale>  0 0.11117329E+04</rscale>
<asrwt>0</asrwt>
<pdfrwt beam="1">  1        2 0.25188530E+00 0.11117329E+04</pdfrwt>
<pdfrwt beam="2">  1       -2 0.13391932E+00 0.11117329E+04</pdfrwt>
<totfact> 0.42040899E+00</totfact>
</mgrwt>
</event>
<event>
 4    1  0.2061941E-008  0.1683612E+03  0.7818608E-02  0.1179568E+00
          2   -1    0    0  501    0  0.00000000000E+00  0.00000000000E+00  0.54475776361E+03  0.54475776362E+03  0.25500000000E-02 0. -1.
         -2   -1    0    0    0  501 -0.00000000000E+00 -0.00000000000E+00 -0.26248651613E+03  0.26248651614E+03  0.25500000000E-02 0.  1.
    8880022    1    1    2    0    0 -0.51312194226E+02 -0.48175738456E+02  0.50254495026E+03  0.52999709726E+03  0.15294330000E+03 0.  0.
    8880022    1    1    2    0    0  0.51312194226E+02  0.48175738456E+02 -0.22027370278E+03  0.27724718250E+03  0.15294330000E+03 0.  1.
<mgrwt>
<rscale>  0 0.16836121E+03</rscale>
<asrwt>0</asrwt>
<pdfrwt beam="1">  1        2 0.83808886E-01 0.16836121E+03</pdfrwt>
<pdfrwt beam="2">  1       -2 0.40382541E-01 0.16836121E+03</pdfrwt>
<totfact> 0.33512715E+02</totfact>
</mgrwt>
</event>
<event>
 4    1  0.2061941E-008  0.1389955E+04  0.7818608E-02  0.8961122E-01
          2   -1    0    0  501    0  0.00000000000E+00  0.00000000000E+00  0.35966822199E+04  0.35966822199E+04  0.25500000000E-02 0. -1.
         -2   -1    0    0    0  501 -0.00000000000E+00 -0.00000000000E+00 -0.59906889295E+03  0.59906889295E+03  0.25500000000E-02 0.  1.
    8880022    1    1    2    0    0 -0.13814631342E+04  0.11963850614E+02  0.21732353550E+04  0.25797145358E+04  0.15294330000E+03 0.  0.
    8880022    1    1    2    0    0  0.13814631342E+04 -0.11963850614E+02  0.82437797193E+03  0.16160365771E+04  0.15294330000E+03 0.  0.
<mgrwt>
<rscale>  0 0.13899551E+04</rscale>
<asrwt>0</asrwt>
<pdfrwt beam="1">  1        2 0.55333572E+00 0.13899551E+04</pdfrwt>
<pdfrwt beam="2">  1       -2 0.92164447E-01 0.13899551E+04</pdfrwt>
<totfact> 0.67914581E-01</totfact>
</mgrwt>
</event>
<event>
 4    1  0.2061941E-008  0.8312809E+03  0.7818608E-02  0.9515811E-01
          2   -1    0    0  501    0  0.00000000000E+00  0.00000000000E+00  0.69860240407E+03  0.69860240408E+03  0.25500000000E-02 0. -1.
         -2   -1    0    0    0  501 -0.00000000000E+00 -0.00000000000E+00 -0.29816193549E+04  0.29816193549E+04  0.25500000000E-02 0.  1.
    8880022    1    1    2    0    0  0.67077546235E+03 -0.46657968748E+03 -0.26457337262E+04  0.27732534916E+04  0.15294330000E+03 0.  0.
    8880022    1    1    2    0    0 -0.67077546235E+03  0.46657968748E+03  0.36271677546E+03  0.90696826730E+03  0.15294330000E+03 0.  0.
<mgrwt>
<rscale>  0 0.83128093E+03</rscale>
<asrwt>0</asrwt>
<pdfrwt beam="1">  1        2 0.10747729E+00 0.83128093E+03</pdfrwt>
<pdfrwt beam="2">  1       -2 0.45871066E+00 0.83128093E+03</pdfrwt>
<totfact> 0.13109869E-01</totfact>
</mgrwt>
</event>
<event>
 4    1  0.2061941E-008  0.1480718E+04  0.7818608E-02  0.8897378E-01
          2   -1    0    0  501    0  0.00000000000E+00  0.00000000000E+00  0.16979223462E+04  0.16979223462E+04  0.25500000000E-02 0. -1.
         -2   -1    0    0    0  501 -0.00000000000E+00 -0.00000000000E+00 -0.20759196055E+04  0.20759196055E+04  0.25500000000E-02 0.  1.
    8880022    1    1    2    0    0 -0.84062996668E+03 -0.12093282625E+04 -0.13490529670E+04  0.20031148615E+04  0.15294330000E+03 0.  0.
    8880022    1    1    2    0    0  0.84062996668E+03  0.12093282625E+04  0.97105570767E+03  0.17707270902E+04  0.15294330000E+03 0.  0.
<mgrwt>
<rscale>  0 0.14807178E+04</rscale>
<asrwt>0</asrwt>
<pdfrwt beam="1">  1        2 0.26121882E+00 0.14807178E+04</pdfrwt>
<pdfrwt beam="2">  1       -2 0.31937225E+00 0.14807178E+04</pdfrwt>
<totfact> 0.22376870E-01</totfact>
</mgrwt>
</event>
<event>
 4    1  0.2061941E-008  0.7450919E+03  0.7818608E-02  0.9643082E-01
          2   -1    0    0  501    0  0.00000000000E+00  0.00000000000E+00  0.11327513884E+04  0.11327513884E+04  0.25500000000E-02 0. -1.
         -2   -1    0    0    0  501 -0.00000000000E+00 -0.00000000000E+00 -0.12699801339E+04  0.12699801339E+04  0.25500000000E-02 0.  1.
    8880022    1    1    2    0    0  0.12571378750E+02  0.72911746893E+03  0.87282116352E+03  0.11475969500E+04  0.15294330000E+03 0.  0.
    8880022    1    1    2    0    0 -0.12571378750E+02 -0.72911746893E+03 -0.10100499090E+04  0.12551345724E+04  0.15294330000E+03 0.  0.
<mgrwt>
<rscale>  0 0.74509192E+03</rscale>
<asrwt>0</asrwt>
<pdfrwt beam="1">  1        2 0.17426944E+00 0.74509192E+03</pdfrwt>
<pdfrwt beam="2">  1       -2 0.19538156E+00 0.74509192E+03</pdfrwt>
<totfact> 0.30451777E+00</totfact>
</mgrwt>
</event>
<event>
 4    1  0.2061941E-008  0.1908755E+04  0.7818608E-02  0.8650511E-01
         -2   -1    0    0    0  501 -0.00000000000E+00  0.00000000000E+00  0.14274863433E+04  0.14274863433E+04  0.25500000000E-02 0.  1.
          2   -1    0    0  501    0  0.00000000000E+00 -0.00000000000E+00 -0.27616181301E+04  0.27616181301E+04  0.25500000000E-02 0. -1.
    8880022    1    1    2    0    0  0.10833532432E+04 -0.15640649108E+04 -0.12437440191E+04  0.22782107306E+04  0.15294330000E+03 0.  0.
    8880022    1    1    2    0    0 -0.10833532432E+04  0.15640649108E+04 -0.90387767649E+02  0.19108937428E+04  0.15294330000E+03 0.  0.
<mgrwt>
<rscale>  0 0.19087548E+04</rscale>
<asrwt>0</asrwt>
<pdfrwt beam="1">  1        2 0.42486433E+00 0.19087548E+04</pdfrwt>
<pdfrwt beam="2">  1       -2 0.21961328E+00 0.19087548E+04</pdfrwt>
<totfact> 0.21806878E-01</totfact>
</mgrwt>
</event>
<event>
 4    1  0.2061941E-008  0.6548949E+03  0.7818608E-02  0.9797637E-01
          2   -1    0    0  501    0  0.00000000000E+00  0.00000000000E+00  0.25847695421E+04  0.25847695421E+04  0.25500000000E-02 0. -1.
         -2   -1    0    0    0  501 -0.00000000000E+00 -0.00000000000E+00 -0.80683538346E+03  0.80683538347E+03  0.25500000000E-02 0.  1.
    8880022    1    1    2    0    0  0.49101149840E+03 -0.40546685038E+03 -0.62243568490E+03  0.90350068798E+03  0.15294330000E+03 0.  0.
    8880022    1    1    2    0    0 -0.49101149840E+03  0.40546685038E+03  0.24003698436E+04  0.24881042376E+04  0.15294330000E+03 0.  0.
<mgrwt>
<rscale>  0 0.65489489E+03</rscale>
<asrwt>0</asrwt>
<pdfrwt beam="1">  1        2 0.39765685E+00 0.65489489E+03</pdfrwt>
<pdfrwt beam="2">  1       -2 0.12412852E+00 0.65489489E+03</pdfrwt>
<totfact> 0.16312265E+00</totfact>
</mgrwt>
</event>
<event>
 4    1  0.2061941E-008  0.1159176E+04  0.7818608E-02  0.9149360E-01
          2   -1    0    0  501    0  0.00000000000E+00  0.00000000000E+00  0.15871709467E+04  0.15871709467E+04  0.25500000000E-02 0. -1.
         -2   -1    0    0    0  501 -0.00000000000E+00 -0.00000000000E+00 -0.11401842907E+04  0.11401842907E+04  0.25500000000E-02 0.  1.
    8880022    1    1    2    0    0 -0.68210479188E+03  0.92467863872E+03  0.91547585923E+03  0.14770867388E+04  0.15294330000E+03 0.  0.
    8880022    1    1    2    0    0  0.68210479188E+03 -0.92467863872E+03 -0.46848920331E+03  0.12502684986E+04  0.15294330000E+03 0.  0.
<mgrwt>
<rscale>  0 0.11591761E+04</rscale>
<asrwt>0</asrwt>
<pdfrwt beam="1">  1        2 0.24418014E+00 0.11591761E+04</pdfrwt>
<pdfrwt beam="2">  1       -2 0.17541297E+00 0.11591761E+04</pdfrwt>
<totfact> 0.21571375E+00</totfact>
</mgrwt>
</event>
<event>
 4    1  0.2061941E-008  0.4448405E+03  0.7818608E-02  0.1029272E+00
          2   -1    0    0  501    0  0.00000000000E+00  0.00000000000E+00  0.27481950042E+04  0.27481950042E+04  0.25500000000E-02 0. -1.
         -2   -1    0    0    0  501 -0.00000000000E+00 -0.00000000000E+00 -0.13782204592E+03  0.13782204595E+03  0.25500000000E-02 0.  1.
    8880022    1    1    2    0    0 -0.39320956928E+03 -0.14098800199E+03  0.23023804392E+04  0.23449602815E+04  0.15294330000E+03 0.  0.
    8880022    1    1    2    0    0  0.39320956928E+03  0.14098800199E+03  0.30799251912E+03  0.54105676868E+03  0.15294330000E+03 0.  0.
<mgrwt>
<rscale>  0 0.44484046E+03</rscale>
<asrwt>0</asrwt>
<pdfrwt beam="1">  1        2 0.42279922E+00 0.44484046E+03</pdfrwt>
<pdfrwt beam="2">  1       -2 0.21203392E-01 0.44484046E+03</pdfrwt>
<totfact> 0.52944541E+01</totfact>
</mgrwt>
</event>
<event>
 4    1  0.2061941E-008  0.8352244E+03  0.7818608E-02  0.9510386E-01
         -2   -1    0    0    0  501 -0.00000000000E+00  0.00000000000E+00  0.33140869955E+03  0.33140869956E+03  0.25500000000E-02 0.  1.
          2   -1    0    0  501    0  0.00000000000E+00 -0.00000000000E+00 -0.24755015637E+04  0.24755015637E+04  0.25500000000E-02 0. -1.
    8880022    1    1    2    0    0 -0.75770565119E+03  0.31637055267E+03 -0.52905956493E+03  0.98868794708E+03  0.15294330000E+03 0.  0.
    8880022    1    1    2    0    0  0.75770565119E+03 -0.31637055267E+03 -0.16150332993E+04  0.18182223162E+04  0.15294330000E+03 0.  0.
<mgrwt>
<rscale>  0 0.83522442E+03</rscale>
<asrwt>0</asrwt>
<pdfrwt beam="1">  1        2 0.38084638E+00 0.83522442E+03</pdfrwt>
<pdfrwt beam="2">  1       -2 0.50985955E-01 0.83522442E+03</pdfrwt>
<totfact> 0.13515442E+01</totfact>
</mgrwt>
</event>
<event>
 4    1  0.2061941E-008  0.9289971E+03  0.7818608E-02  0.9390042E-01
         -2   -1    0    0    0  501 -0.00000000000E+00  0.00000000000E+00  0.11732807561E+04  0.11732807561E+04  0.25500000000E-02 0.  1.
          2   -1    0    0  501    0  0.00000000000E+00 -0.00000000000E+00 -0.10598181112E+04  0.10598181112E+04  0.25500000000E-02 0. -1.
    8880022    1    1    2    0    0  0.54477318653E+03  0.73679450322E+03 -0.56085529949E+03  0.10851701639E+04  0.15294330000E+03 0.  0.
    8880022    1    1    2    0    0 -0.54477318653E+03 -0.73679450322E+03  0.67431794441E+03  0.11479287033E+04  0.15294330000E+03 0.  0.
<mgrwt>
<rscale>  0 0.92899710E+03</rscale>
<asrwt>0</asrwt>
<pdfrwt beam="1">  1        2 0.16304894E+00 0.92899710E+03</pdfrwt>
<pdfrwt beam="2">  1       -2 0.18050473E+00 0.92899710E+03</pdfrwt>
<totfact> 0.41475576E+00</totfact>
</mgrwt>
</event>
<event>
 4    1  0.2061941E-008  0.1520964E+04  0.7818608E-02  0.8870630E-01
         -2   -1    0    0    0  501 -0.00000000000E+00  0.00000000000E+00  0.69409751880E+03  0.69409751881E+03  0.25500000000E-02 0.  1.
          2   -1    0    0  501    0  0.00000000000E+00 -0.00000000000E+00 -0.38413444438E+04  0.38413444438E+04  0.25500000000E-02 0. -1.
    8880022    1    1    2    0    0  0.18956548143E+03  0.15013347699E+04 -0.74856446010E+03  0.16951936665E+04  0.15294330000E+03 0.  0.
    8880022    1    1    2    0    0 -0.18956548143E+03 -0.15013347699E+04 -0.23986824649E+04  0.28402482961E+04  0.15294330000E+03 0.  0.
<mgrwt>
<rscale>  0 0.15209644E+04</rscale>
<asrwt>0</asrwt>
<pdfrwt beam="1">  1        2 0.59097606E+00 0.15209644E+04</pdfrwt>
<pdfrwt beam="2">  1       -2 0.10678424E+00 0.15209644E+04</pdfrwt>
<totfact> 0.31042713E-01</totfact>
</mgrwt>
</event>
<event>
 4    1  0.2061941E-008  0.1747293E+04  0.7818608E-02  0.8734842E-01
         -2   -1    0    0    0  501 -0.00000000000E+00  0.00000000000E+00  0.17879857209E+04  0.17879857209E+04  0.25500000000E-02 0.  1.
          2   -1    0    0  501    0  0.00000000000E+00 -0.00000000000E+00 -0.21672950273E+04  0.21672950273E+04  0.25500000000E-02 0. -1.
    8880022    1    1    2    0    0 -0.99265118493E+03 -0.14297852880E+04 -0.11005272956E+04  0.20649925729E+04  0.15294330000E+03 0.  0.
    8880022    1    1    2    0    0  0.99265118493E+03  0.14297852880E+04  0.72121798925E+03  0.18902881753E+04  0.15294330000E+03 0.  0.
<mgrwt>
<rscale>  0 0.17472933E+04</rscale>
<asrwt>0</asrwt>
<pdfrwt beam="1">  1        2 0.33343001E+00 0.17472933E+04</pdfrwt>
<pdfrwt beam="2">  1       -2 0.27507473E+00 0.17472933E+04</pdfrwt>
<totfact> 0.22178588E-01</totfact>
</mgrwt>
</event>
<event>
 4    1  0.2061941E-008  0.6644590E+03  0.7818608E-02  0.9780020E-01
          2   -1    0    0  501    0  0.00000000000E+00  0.00000000000E+00  0.27449112816E+04  0.27449112816E+04  0.25500000000E-02 0. -1.
         -2   -1    0    0    0  501 -0.00000000000E+00 -0.00000000000E+00 -0.18441899061E+03  0.18441899063E+03  0.25500000000E-02 0.  1.
    8880022    1    1    2    0    0  0.24997922616E+03  0.59634264055E+03  0.75658517070E+03  0.10069393884E+04  0.15294330000E+03 0.  0.
    8880022    1    1    2    0    0 -0.24997922616E+03 -0.59634264055E+03  0.18039071203E+04  0.19223908838E+04  0.15294330000E+03 0.  0.
<mgrwt>
<rscale>  0 0.66445904E+03</rscale>
<asrwt>0</asrwt>
<pdfrwt beam="1">  1        2 0.42229407E+00 0.66445904E+03</pdfrwt>
<pdfrwt beam="2">  1       -2 0.28372151E-01 0.66445904E+03</pdfrwt>
<totfact> 0.30209192E+01</totfact>
</mgrwt>
</event>
<event>
 4    1  0.2061941E-008  0.9255028E+03  0.7818608E-02  0.9394251E-01
         -2   -1    0    0    0  501 -0.00000000000E+00  0.00000000000E+00  0.71597810772E+03  0.71597810772E+03  0.25500000000E-02 0.  1.
          2   -1    0    0  501    0  0.00000000000E+00 -0.00000000000E+00 -0.15877652196E+04  0.15877652196E+04  0.25500000000E-02 0. -1.
    8880022    1    1    2    0    0 -0.84815667027E+03  0.33733377838E+03  0.13602427252E+03  0.93544538649E+03  0.15294330000E+03 0.  0.
    8880022    1    1    2    0    0  0.84815667027E+03 -0.33733377838E+03 -0.10078113844E+04  0.13682979408E+04  0.15294330000E+03 0.  0.
<mgrwt>
<rscale>  0 0.92550282E+03</rscale>
<asrwt>0</asrwt>
<pdfrwt beam="1">  1        2 0.24427157E+00 0.92550282E+03</pdfrwt>
<pdfrwt beam="2">  1       -2 0.11015048E+00 0.92550282E+03</pdfrwt>
<totfact> 0.74459935E+00</totfact>
</mgrwt>
</event>
<event>
 4    1  0.2061941E-008  0.3363090E+03  0.7818608E-02  0.1068379E+00
         -2   -1    0    0    0  501 -0.00000000000E+00  0.00000000000E+00  0.10585475422E+04  0.10585475423E+04  0.25500000000E-02 0.  1.
          2   -1    0    0  501    0  0.00000000000E+00 -0.00000000000E+00 -0.36483202927E+03  0.36483202928E+03  0.25500000000E-02 0. -1.
    8880022    1    1    2    0    0  0.29426760400E+03 -0.55845142937E+02 -0.25160979756E+03  0.42001338788E+03  0.15294330000E+03 0.  0.
    8880022    1    1    2    0    0 -0.29426760400E+03  0.55845142937E+02  0.94532531053E+03  0.10033661837E+04  0.15294330000E+03 0.  0.
<mgrwt>
<rscale>  0 0.33630902E+03</rscale>
<asrwt>0</asrwt>
<pdfrwt beam="1">  1        2 0.56128005E-01 0.33630902E+03</pdfrwt>
<pdfrwt beam="2">  1       -2 0.16285347E+00 0.33630902E+03</pdfrwt>
<totfact> 0.22516707E+01</totfact>
</mgrwt>
</event>
<event>
 4    1  0.2061941E-008  0.2575240E+03  0.7818608E-02  0.1108640E+00
          2   -1    0    0  501    0  0.00000000000E+00  0.00000000000E+00  0.97370714946E+03  0.97370714946E+03  0.25500000000E-02 0. -1.
         -2   -1    0    0    0  501 -0.00000000000E+00 -0.00000000000E+00 -0.17619434724E+03  0.17619434726E+03  0.25500000000E-02 0.  1.
    8880022    1    1    2    0    0 -0.19752876365E+03 -0.62524703315E+02 -0.51559494526E+02  0.26263469969E+03  0.15294330000E+03 0.  0.
    8880022    1    1    2    0    0  0.19752876365E+03  0.62524703315E+02  0.84907229675E+03  0.88726679703E+03  0.15294330000E+03 0.  0.
<mgrwt>
<rscale>  0 0.25752399E+03</rscale>
<asrwt>0</asrwt>
<pdfrwt beam="1">  1        2 0.14980110E+00 0.25752399E+03</pdfrwt>
<pdfrwt beam="2">  1       -2 0.27106823E-01 0.25752399E+03</pdfrwt>
<totfact> 0.33822864E+02</totfact>
</mgrwt>
</event>
<event>
 4    1  0.2061941E-008  0.1071154E+04  0.7818608E-02  0.9233773E-01
          2   -1    0    0  501    0  0.00000000000E+00  0.00000000000E+00  0.26465185710E+04  0.26465185710E+04  0.25500000000E-02 0. -1.
         -2   -1    0    0    0  501 -0.00000000000E+00 -0.00000000000E+00 -0.49993239094E+03  0.49993239095E+03  0.25500000000E-02 0.  1.
    8880022    1    1    2    0    0 -0.98403899465E+03  0.39451954155E+03  0.16466122574E+04  0.19643579081E+04  0.15294330000E+03 0.  0.
    8880022    1    1    2    0    0  0.98403899465E+03 -0.39451954155E+03  0.49997392260E+03  0.11820930538E+04  0.15294330000E+03 0.  0.
<mgrwt>
<rscale>  0 0.10711536E+04</rscale>
<asrwt>0</asrwt>
<pdfrwt beam="1">  1        2 0.40715671E+00 0.10711536E+04</pdfrwt>
<pdfrwt beam="2">  1       -2 0.76912675E-01 0.10711536E+04</pdfrwt>
<totfact> 0.43304277E+00</totfact>
</mgrwt>
</event>
<event>
 4    1  0.2061941E-008  0.8661330E+03  0.7818608E-02  0.9468936E-01
          2   -1    0    0  501    0  0.00000000000E+00  0.00000000000E+00  0.37714089810E+04  0.37714089810E+04  0.25500000000E-02 0. -1.
         -2   -1    0    0    0  501 -0.00000000000E+00 -0.00000000000E+00 -0.25042945114E+03  0.25042945116E+03  0.25500000000E-02 0.  1.
    8880022    1    1    2    0    0 -0.28865180404E+03  0.80216879866E+03  0.26725434343E+04  0.28093904511E+04  0.15294330000E+03 0.  0.
    8880022    1    1    2    0    0  0.28865180404E+03 -0.80216879866E+03  0.84843609556E+03  0.12124479811E+04  0.15294330000E+03 0.  0.
<mgrwt>
<rscale>  0 0.86613296E+03</rscale>
<asrwt>0</asrwt>
<pdfrwt beam="1">  1        2 0.58021679E+00 0.86613296E+03</pdfrwt>
<pdfrwt beam="2">  1       -2 0.38527607E-01 0.86613296E+03</pdfrwt>
<totfact> 0.35174518E+00</totfact>
</mgrwt>
</event>
<event>
 4    1  0.2061941E-008  0.1321239E+04  0.7818608E-02  0.9012890E-01
         -2   -1    0    0    0  501 -0.00000000000E+00  0.00000000000E+00  0.26132790342E+04  0.26132790342E+04  0.25500000000E-02 0.  1.
          2   -1    0    0  501    0  0.00000000000E+00 -0.00000000000E+00 -0.13303987443E+04  0.13303987443E+04  0.25500000000E-02 0. -1.
    8880022    1    1    2    0    0  0.29518400385E+03  0.12787288102E+04 -0.74992136723E+03  0.15192283160E+04  0.15294330000E+03 0.  0.
    8880022    1    1    2    0    0 -0.29518400385E+03 -0.12787288102E+04  0.20328016571E+04  0.24244494625E+04  0.15294330000E+03 0.  0.
<mgrwt>
<rscale>  0 0.13212390E+04</rscale>
<asrwt>0</asrwt>
<pdfrwt beam="1">  1        2 0.20467673E+00 0.13212390E+04</pdfrwt>
<pdfrwt beam="2">  1       -2 0.40204292E+00 0.13212390E+04</pdfrwt>
<totfact> 0.11041816E-01</totfact>
</mgrwt>
</event>
<event>
 4    1  0.2061941E-008  0.4492730E+03  0.7818608E-02  0.1027939E+00
          2   -1    0    0  501    0  0.00000000000E+00  0.00000000000E+00  0.13922538355E+04  0.13922538355E+04  0.25500000000E-02 0. -1.
         -2   -1    0    0    0  501 -0.00000000000E+00 -0.00000000000E+00 -0.19149714922E+03  0.19149714924E+03  0.25500000000E-02 0.  1.
    8880022    1    1    2    0    0  0.32361822548E+02  0.42119749008E+03  0.21008483567E+03  0.49596562825E+03  0.15294330000E+03 0.  0.
    8880022    1    1    2    0    0 -0.32361822548E+02 -0.42119749008E+03  0.99067185062E+03  0.10877853565E+04  0.15294330000E+03 0.  0.
<mgrwt>
<rscale>  0 0.44927304E+03</rscale>
<asrwt>0</asrwt>
<pdfrwt beam="1">  1        2 0.21419289E+00 0.44927304E+03</pdfrwt>
<pdfrwt beam="2">  1       -2 0.29461100E-01 0.44927304E+03</pdfrwt>
<totfact> 0.16198208E+02</totfact>
</mgrwt>
</event>
<event>
 4    1  0.2061941E-008  0.8700651E+03  0.7818608E-02  0.9463795E-01
         -2   -1    0    0    0  501 -0.00000000000E+00  0.00000000000E+00  0.23380871783E+03  0.23380871785E+03  0.25500000000E-02 0.  1.
          2   -1    0    0  501    0  0.00000000000E+00 -0.00000000000E+00 -0.40285539840E+04  0.40285539840E+04  0.25500000000E-02 0. -1.
    8880022    1    1    2    0    0 -0.76340379938E+03  0.38837644104E+03 -0.95313501775E+03  0.12905346318E+04  0.15294330000E+03 0.  0.
    8880022    1    1    2    0    0  0.76340379938E+03 -0.38837644104E+03 -0.28416102484E+04  0.29718280700E+04  0.15294330000E+03 0.  0.
<mgrwt>
<rscale>  0 0.87006510E+03</rscale>
<asrwt>0</asrwt>
<pdfrwt beam="1">  1        2 0.61977749E+00 0.87006510E+03</pdfrwt>
<pdfrwt beam="2">  1       -2 0.35970575E-01 0.87006510E+03</pdfrwt>
<totfact> 0.25481820E+00</totfact>
</mgrwt>
</event>
<event>
 4    1  0.2061941E-008  0.7871796E+03  0.7818608E-02  0.9578762E-01
         -2   -1    0    0    0  501 -0.00000000000E+00  0.00000000000E+00  0.51142888682E+03  0.51142888683E+03  0.25500000000E-02 0.  1.
          2   -1    0    0  501    0  0.00000000000E+00 -0.00000000000E+00 -0.22577034342E+04  0.22577034342E+04  0.25500000000E-02 0. -1.
    8880022    1    1    2    0    0  0.53986473669E+03  0.55209255647E+03  0.69328826781E+02  0.79022671688E+03  0.15294330000E+03 0.  0.
    8880022    1    1    2    0    0 -0.53986473669E+03 -0.55209255647E+03 -0.18156033741E+04  0.19789056041E+04  0.15294330000E+03 0.  0.
<mgrwt>
<rscale>  0 0.78717964E+03</rscale>
<asrwt>0</asrwt>
<pdfrwt beam="1">  1        2 0.34733898E+00 0.78717964E+03</pdfrwt>
<pdfrwt beam="2">  1       -2 0.78681369E-01 0.78717964E+03</pdfrwt>
<totfact> 0.71233067E+00</totfact>
</mgrwt>
</event>
<event>
 4    1  0.2061941E-008  0.7543374E+03  0.7818608E-02  0.9628570E-01
          2   -1    0    0  501    0  0.00000000000E+00  0.00000000000E+00  0.31876280071E+04  0.31876280071E+04  0.25500000000E-02 0. -1.
         -2   -1    0    0    0  501 -0.00000000000E+00 -0.00000000000E+00 -0.42547777464E+03  0.42547777464E+03  0.25500000000E-02 0.  1.
    8880022    1    1    2    0    0  0.63563110486E+03 -0.37630615946E+03  0.27574349757E+04  0.28587536665E+04  0.15294330000E+03 0.  0.
    8880022    1    1    2    0    0 -0.63563110486E+03  0.37630615946E+03  0.47152566926E+01  0.75435211524E+03  0.15294330000E+03 0.  0.
<mgrwt>
<rscale>  0 0.75433738E+03</rscale>
<asrwt>0</asrwt>
<pdfrwt beam="1">  1        2 0.49040429E+00 0.75433738E+03</pdfrwt>
<pdfrwt beam="2">  1       -2 0.65458122E-01 0.75433738E+03</pdfrwt>
<totfact> 0.30482443E+00</totfact>
</mgrwt>
</event>
<event>
 4    1  0.2061941E-008  0.7819762E+03  0.7818608E-02  0.9586479E-01
          2   -1    0    0  501    0  0.00000000000E+00  0.00000000000E+00  0.14937067884E+04  0.14937067884E+04  0.25500000000E-02 0. -1.
         -2   -1    0    0    0  501 -0.00000000000E+00 -0.00000000000E+00 -0.10343510416E+04  0.10343510416E+04  0.25500000000E-02 0.  1.
    8880022    1    1    2    0    0  0.72900317535E+03  0.23801154177E+03  0.12122277034E+04  0.14425611881E+04  0.15294330000E+03 0.  0.
    8880022    1    1    2    0    0 -0.72900317535E+03 -0.23801154177E+03 -0.75287195653E+03  0.10854966419E+04  0.15294330000E+03 0.  0.
<mgrwt>
<rscale>  0 0.78197620E+03</rscale>
<asrwt>0</asrwt>
<pdfrwt beam="1">  1        2 0.22980104E+00 0.78197620E+03</pdfrwt>
<pdfrwt beam="2">  1       -2 0.15913093E+00 0.78197620E+03</pdfrwt>
<totfact> 0.33442311E+00</totfact>
</mgrwt>
</event>
<event>
 4    1  0.2061941E-008  0.1858512E+04  0.7818608E-02  0.8675788E-01
         -2   -1    0    0    0  501 -0.00000000000E+00  0.00000000000E+00  0.12621097336E+04  0.12621097336E+04  0.25500000000E-02 0.  1.
          2   -1    0    0  501    0  0.00000000000E+00 -0.00000000000E+00 -0.36687906040E+04  0.36687906040E+04  0.25500000000E-02 0. -1.
    8880022    1    1    2    0    0  0.14053152658E+04 -0.12065499144E+04  0.39326288758E+02  0.18589276215E+04  0.15294330000E+03 0.  0.
    8880022    1    1    2    0    0 -0.14053152658E+04  0.12065499144E+04 -0.24460071592E+04  0.30719727161E+04  0.15294330000E+03 0.  0.
<mgrwt>
<rscale>  0 0.18585116E+04</rscale>
<asrwt>0</asrwt>
<pdfrwt beam="1">  1        2 0.56442932E+00 0.18585116E+04</pdfrwt>
<pdfrwt beam="2">  1       -2 0.19417073E+00 0.18585116E+04</pdfrwt>
<totfact> 0.81315009E-02</totfact>
</mgrwt>
</event>
<event>
 4    1  0.2061941E-008  0.4904662E+03  0.7818608E-02  0.1016298E+00
          2   -1    0    0  501    0  0.00000000000E+00  0.00000000000E+00  0.11464501365E+04  0.11464501365E+04  0.25500000000E-02 0. -1.
         -2   -1    0    0    0  501 -0.00000000000E+00 -0.00000000000E+00 -0.10724370721E+04  0.10724370721E+04  0.25500000000E-02 0.  1.
    8880022    1    1    2    0    0 -0.27782748350E+03  0.37413546844E+03 -0.95800103172E+03  0.10762541936E+04  0.15294330000E+03 0.  0.
    8880022    1    1    2    0    0  0.27782748350E+03 -0.37413546844E+03  0.10320140961E+04  0.11426330150E+04  0.15294330000E+03 0.  0.
<mgrwt>
<rscale>  0 0.49046622E+03</rscale>
<asrwt>0</asrwt>
<pdfrwt beam="1">  1        2 0.17637694E+00 0.49046622E+03</pdfrwt>
<pdfrwt beam="2">  1       -2 0.16499032E+00 0.49046622E+03</pdfrwt>
<totfact> 0.50520955E+00</totfact>
</mgrwt>
</event>
<event>
 4    1  0.2061941E-008  0.4828631E+03  0.7818608E-02  0.1018351E+00
          2   -1    0    0  501    0  0.00000000000E+00  0.00000000000E+00  0.14862253591E+04  0.14862253591E+04  0.25500000000E-02 0. -1.
         -2   -1    0    0    0  501 -0.00000000000E+00 -0.00000000000E+00 -0.10783284319E+04  0.10783284319E+04  0.25500000000E-02 0.  1.
    8880022    1    1    2    0    0  0.33038671644E+03  0.31719040037E+03 -0.98138941575E+03  0.10937467581E+04  0.15294330000E+03 0.  1.
    8880022    1    1    2    0    0 -0.33038671644E+03 -0.31719040037E+03  0.13892863429E+04  0.14708070329E+04  0.15294330000E+03 0.  0.
<mgrwt>
<rscale>  0 0.48286311E+03</rscale>
<asrwt>0</asrwt>
<pdfrwt beam="1">  1        2 0.22865006E+00 0.48286311E+03</pdfrwt>
<pdfrwt beam="2">  1       -2 0.16589668E+00 0.48286311E+03</pdfrwt>
<totfact> 0.31983879E+00</totfact>
</mgrwt>
</event>
<event>
 4    1  0.2061941E-008  0.1601622E+04  0.7818608E-02  0.8819552E-01
          2   -1    0    0  501    0  0.00000000000E+00  0.00000000000E+00  0.12766547196E+04  0.12766547196E+04  0.25500000000E-02 0. -1.
         -2   -1    0    0    0  501 -0.00000000000E+00 -0.00000000000E+00 -0.20585642050E+04  0.20585642050E+04  0.25500000000E-02 0.  1.
    8880022    1    1    2    0    0 -0.53411300949E+02  0.15934082647E+04 -0.64890530593E+03  0.17280834512E+04  0.15294330000E+03 0.  0.
    8880022    1    1    2    0    0  0.53411300949E+02 -0.15934082647E+04 -0.13300417948E+03  0.16071354734E+04  0.15294330000E+03 0.  0.
<mgrwt>
<rscale>  0 0.16016224E+04</rscale>
<asrwt>0</asrwt>
<pdfrwt beam="1">  1        2 0.19640842E+00 0.16016224E+04</pdfrwt>
<pdfrwt beam="2">  1       -2 0.31670219E+00 0.16016224E+04</pdfrwt>
<totfact> 0.39995888E-01</totfact>
</mgrwt>
</event>
<event>
 4    1  0.2061941E-008  0.4266620E+03  0.7818608E-02  0.1034920E+00
         -2   -1    0    0    0  501 -0.00000000000E+00  0.00000000000E+00  0.23781522696E+03  0.23781522697E+03  0.25500000000E-02 0.  1.
          2   -1    0    0  501    0  0.00000000000E+00 -0.00000000000E+00 -0.13217515321E+04  0.13217515321E+04  0.25500000000E-02 0. -1.
    8880022    1    1    2    0    0 -0.33030938780E+02  0.39693545816E+03 -0.10478467799E+04  0.11313811595E+04  0.15294330000E+03 0.  0.
    8880022    1    1    2    0    0  0.33030938780E+02 -0.39693545816E+03 -0.36089525240E+02  0.42818559960E+03  0.15294330000E+03 0.  0.
<mgrwt>
<rscale>  0 0.42666199E+03</rscale>
<asrwt>0</asrwt>
<pdfrwt beam="1">  1        2 0.20334639E+00 0.42666199E+03</pdfrwt>
<pdfrwt beam="2">  1       -2 0.36586959E-01 0.42666199E+03</pdfrwt>
<totfact> 0.11871779E+02</totfact>
</mgrwt>
</event>
<event>
 4    1  0.2061941E-008  0.7365800E+03  0.7818608E-02  0.9656643E-01
         -2   -1    0    0    0  501 -0.00000000000E+00  0.00000000000E+00  0.72756960794E+03  0.72756960795E+03  0.25500000000E-02 0.  1.
          2   -1    0    0  501    0  0.00000000000E+00 -0.00000000000E+00 -0.14644318753E+04  0.14644318753E+04  0.25500000000E-02 0. -1.
    8880022    1    1    2    0    0 -0.71704834164E+03  0.70711478001E+02  0.39938833355E+03  0.83789088273E+03  0.15294330000E+03 0.  0.
    8880022    1    1    2    0    0  0.71704834164E+03 -0.70711478001E+02 -0.11362506009E+04  0.13541106005E+04  0.15294330000E+03 0.  0.
<mgrwt>
<rscale>  0 0.73658000E+03</rscale>
<asrwt>0</asrwt>
<pdfrwt beam="1">  1        2 0.22529721E+00 0.73658000E+03</pdfrwt>
<pdfrwt beam="2">  1       -2 0.11193379E+00 0.73658000E+03</pdfrwt>
<totfact> 0.85928185E+00</totfact>
</mgrwt>
</event>
<event>
 4    1  0.2061941E-008  0.1171175E+04  0.7818608E-02  0.9138468E-01
          2   -1    0    0  501    0  0.00000000000E+00  0.00000000000E+00  0.24202146622E+04  0.24202146622E+04  0.25500000000E-02 0. -1.
         -2   -1    0    0    0  501 -0.00000000000E+00 -0.00000000000E+00 -0.68281061957E+03  0.68281061958E+03  0.25500000000E-02 0.  1.
    8880022    1    1    2    0    0  0.10724892620E+04 -0.44500029885E+03  0.22903690072E+03  0.11933599784E+04  0.15294330000E+03 0.  0.
    8880022    1    1    2    0    0 -0.10724892620E+04  0.44500029885E+03  0.15083671419E+04  0.19096653034E+04  0.15294330000E+03 0.  0.
<mgrwt>
<rscale>  0 0.11711747E+04</rscale>
<asrwt>0</asrwt>
<pdfrwt beam="1">  1        2 0.37234072E+00 0.11711747E+04</pdfrwt>
<pdfrwt beam="2">  1       -2 0.10504779E+00 0.11711747E+04</pdfrwt>
<totfact> 0.27997294E+00</totfact>
</mgrwt>
</event>
<event>
 4    1  0.2061941E-008  0.5295367E+03  0.7818608E-02  0.1006345E+00
          2   -1    0    0  501    0  0.00000000000E+00  0.00000000000E+00  0.15880511966E+04  0.15880511966E+04  0.25500000000E-02 0. -1.
         -2   -1    0    0    0  501 -0.00000000000E+00 -0.00000000000E+00 -0.12948293515E+04  0.12948293515E+04  0.25500000000E-02 0.  1.
    8880022    1    1    2    0    0  0.26568794926E+03 -0.43177234014E+03  0.14861667277E+04  0.15776883836E+04  0.15294330000E+03 0.  0.
    8880022    1    1    2    0    0 -0.26568794926E+03  0.43177234014E+03 -0.11929448827E+04  0.13051921645E+04  0.15294330000E+03 0.  0.
<mgrwt>
<rscale>  0 0.52953668E+03</rscale>
<asrwt>0</asrwt>
<pdfrwt beam="1">  1        2 0.24431557E+00 0.52953668E+03</pdfrwt>
<pdfrwt beam="2">  1       -2 0.19920452E+00 0.52953668E+03</pdfrwt>
<totfact> 0.16545794E+00</totfact>
</mgrwt>
</event>
<event>
 4    1  0.2061941E-008  0.1075386E+04  0.7818608E-02  0.9229520E-01
          2   -1    0    0  501    0  0.00000000000E+00  0.00000000000E+00  0.81472602330E+03  0.81472602330E+03  0.25500000000E-02 0. -1.
         -2   -1    0    0    0  501 -0.00000000000E+00 -0.00000000000E+00 -0.27862932774E+04  0.27862932774E+04  0.25500000000E-02 0.  1.
    8880022    1    1    2    0    0 -0.32503856277E+03 -0.10136136129E+04 -0.22468648898E+04  0.24909548590E+04  0.15294330000E+03 0.  0.
    8880022    1    1    2    0    0  0.32503856277E+03  0.10136136129E+04  0.27529763573E+03  0.11100644417E+04  0.15294330000E+03 0.  0.
<mgrwt>
<rscale>  0 0.10753856E+04</rscale>
<asrwt>0</asrwt>
<pdfrwt beam="1">  1        2 0.12534247E+00 0.10753856E+04</pdfrwt>
<pdfrwt beam="2">  1       -2 0.42866050E+00 0.10753856E+04</pdfrwt>
<totfact> 0.16258604E-01</totfact>
</mgrwt>
</event>
<event>
 4    1  0.2061941E-008  0.3592024E+03  0.7818608E-02  0.1058900E+00
         -2   -1    0    0    0  501 -0.00000000000E+00  0.00000000000E+00  0.80374082939E+02  0.80374082979E+02  0.25500000000E-02 0.  1.
          2   -1    0    0  501    0  0.00000000000E+00 -0.00000000000E+00 -0.20970529219E+04  0.20970529219E+04  0.25500000000E-02 0. -1.
    8880022    1    1    2    0    0  0.32448422868E+03  0.18565968039E+02 -0.15355355793E+04  0.15769894984E+04  0.15294330000E+03 0.  0.
    8880022    1    1    2    0    0 -0.32448422868E+03 -0.18565968039E+02 -0.48114325970E+03  0.60043750649E+03  0.15294330000E+03 0.  0.
<mgrwt>
<rscale>  0 0.35920240E+03</rscale>
<asrwt>0</asrwt>
<pdfrwt beam="1">  1        2 0.32262348E+00 0.35920240E+03</pdfrwt>
<pdfrwt beam="2">  1       -2 0.12365245E-01 0.35920240E+03</pdfrwt>
<totfact> 0.30661956E+02</totfact>
</mgrwt>
</event>
<event>
 4    1  0.2061941E-008  0.1241440E+04  0.7818608E-02  0.9077338E-01
          2   -1    0    0  501    0  0.00000000000E+00  0.00000000000E+00  0.13079991142E+04  0.13079991142E+04  0.25500000000E-02 0. -1.
         -2   -1    0    0    0  501 -0.00000000000E+00 -0.00000000000E+00 -0.13311028796E+04  0.13311028796E+04  0.25500000000E-02 0.  1.
    8880022    1    1    2    0    0 -0.52779237261E+03  0.11132014599E+04  0.43557536717E+03  0.13156366643E+04  0.15294330000E+03 0.  0.
    8880022    1    1    2    0    0  0.52779237261E+03 -0.11132014599E+04 -0.45867913252E+03  0.13234653295E+04  0.15294330000E+03 0.  0.
<mgrwt>
<rscale>  0 0.12414403E+04</rscale>
<asrwt>0</asrwt>
<pdfrwt beam="1">  1        2 0.20123063E+00 0.12414403E+04</pdfrwt>
<pdfrwt beam="2">  1       -2 0.20478506E+00 0.12414403E+04</pdfrwt>
<totfact> 0.19561204E+00</totfact>
</mgrwt>
</event>
<event>
 4    1  0.2061941E-008  0.9017296E+03  0.7818608E-02  0.9423422E-01
         -2   -1    0    0    0  501 -0.00000000000E+00  0.00000000000E+00  0.30235387758E+03  0.30235387759E+03  0.25500000000E-02 0.  1.
          2   -1    0    0  501    0  0.00000000000E+00 -0.00000000000E+00 -0.47065359779E+04  0.47065359779E+04  0.25500000000E-02 0. -1.
    8880022    1    1    2    0    0  0.46539974965E+03 -0.75705194731E+03 -0.56248093120E+03  0.10627798591E+04  0.15294330000E+03 0.  0.
    8880022    1    1    2    0    0 -0.46539974965E+03  0.75705194731E+03 -0.38417011691E+04  0.39461099964E+04  0.15294330000E+03 0.  0.
<mgrwt>
<rscale>  0 0.90172958E+03</rscale>
<asrwt>0</asrwt>
<pdfrwt beam="1">  1        2 0.72408241E+00 0.90172958E+03</pdfrwt>
<pdfrwt beam="2">  1       -2 0.46515984E-01 0.90172958E+03</pdfrwt>
<totfact> 0.36772416E-01</totfact>
</mgrwt>
</event>
<event>
 4    1  0.2061941E-008  0.5581112E+03  0.7818608E-02  0.9996337E-01
         -2   -1    0    0    0  501 -0.00000000000E+00  0.00000000000E+00  0.26779768527E+03  0.26779768529E+03  0.25500000000E-02 0.  1.
          2   -1    0    0  501    0  0.00000000000E+00 -0.00000000000E+00 -0.17369426378E+04  0.17369426378E+04  0.25500000000E-02 0. -1.
    8880022    1    1    2    0    0 -0.25619989793E+03  0.47165464840E+03 -0.15845120697E+03  0.58016802141E+03  0.15294330000E+03 0.  0.
    8880022    1    1    2    0    0  0.25619989793E+03 -0.47165464840E+03 -0.13106937456E+04  0.14245723017E+04  0.15294330000E+03 0.  0.
<mgrwt>
<rscale>  0 0.55811123E+03</rscale>
<asrwt>0</asrwt>
<pdfrwt beam="1">  1        2 0.26722194E+00 0.55811123E+03</pdfrwt>
<pdfrwt beam="2">  1       -2 0.41199645E-01 0.55811123E+03</pdfrwt>
<totfact> 0.54836979E+01</totfact>
</mgrwt>
</event>
<event>
 4    1  0.2061941E-008  0.7873990E+03  0.7818608E-02  0.9578438E-01
          2   -1    0    0  501    0  0.00000000000E+00  0.00000000000E+00  0.12787417849E+04  0.12787417849E+04  0.25500000000E-02 0. -1.
         -2   -1    0    0    0  501 -0.00000000000E+00 -0.00000000000E+00 -0.10412110152E+04  0.10412110152E+04  0.25500000000E-02 0.  1.
    8880022    1    1    2    0    0 -0.53456008933E+03 -0.55754020355E+03  0.96669215348E+03  0.12467922603E+04  0.15294330000E+03 0.  0.
    8880022    1    1    2    0    0  0.53456008933E+03  0.55754020355E+03 -0.72916138381E+03  0.10731605399E+04  0.15294330000E+03 0.  0.
<mgrwt>
<rscale>  0 0.78739902E+03</rscale>
<asrwt>0</asrwt>
<pdfrwt beam="1">  1        2 0.19672950E+00 0.78739902E+03</pdfrwt>
<pdfrwt beam="2">  1       -2 0.16018631E+00 0.78739902E+03</pdfrwt>
<totfact> 0.43481113E+00</totfact>
</mgrwt>
</event>
<event>
 4    1  0.2061941E-008  0.5631398E+03  0.7818608E-02  0.9984975E-01
          2   -1    0    0  501    0  0.00000000000E+00  0.00000000000E+00  0.69748544499E+03  0.69748544499E+03  0.25500000000E-02 0. -1.
         -2   -1    0    0    0  501 -0.00000000000E+00 -0.00000000000E+00 -0.18950600412E+04  0.18950600412E+04  0.25500000000E-02 0.  1.
    8880022    1    1    2    0    0 -0.21536346278E+03  0.49734626748E+03  0.53133335239E+03  0.77423608496E+03  0.15294330000E+03 0. -1.
    8880022    1    1    2    0    0  0.21536346278E+03 -0.49734626748E+03 -0.17289079486E+04  0.18183094013E+04  0.15294330000E+03 0.  0.
<mgrwt>
<rscale>  0 0.56313976E+03</rscale>
<asrwt>0</asrwt>
<pdfrwt beam="1">  1        2 0.10730545E+00 0.56313976E+03</pdfrwt>
<pdfrwt beam="2">  1       -2 0.29154770E+00 0.56313976E+03</pdfrwt>
<totfact> 0.15911443E+00</totfact>
</mgrwt>
</event>
<event>
 4    1  0.2061941E-008  0.1541258E+04  0.7818608E-02  0.8857471E-01
         -2   -1    0    0    0  501 -0.00000000000E+00  0.00000000000E+00  0.16440039393E+04  0.16440039393E+04  0.25500000000E-02 0.  1.
          2   -1    0    0  501    0  0.00000000000E+00 -0.00000000000E+00 -0.26272801355E+04  0.26272801355E+04  0.25500000000E-02 0. -1.
    8880022    1    1    2    0    0  0.63791077222E+02 -0.15323239265E+04  0.94103644838E+03  0.18058314339E+04  0.15294330000E+03 0.  0.
    8880022    1    1    2    0    0 -0.63791077222E+02  0.15323239265E+04 -0.19243126446E+04  0.24654526409E+04  0.15294330000E+03 0.  0.
<mgrwt>
<rscale>  0 0.15412584E+04</rscale>
<asrwt>0</asrwt>
<pdfrwt beam="1">  1        2 0.40419694E+00 0.15412584E+04</pdfrwt>
<pdfrwt beam="2">  1       -2 0.25292368E+00 0.15412584E+04</pdfrwt>
<totfact> 0.16878988E-01</totfact>
</mgrwt>
</event>
<event>
 4    1  0.2061941E-008  0.1899336E+04  0.7818608E-02  0.8655187E-01
         -2   -1    0    0    0  501 -0.00000000000E+00  0.00000000000E+00  0.13659571080E+04  0.13659571080E+04  0.25500000000E-02 0.  1.
          2   -1    0    0  501    0  0.00000000000E+00 -0.00000000000E+00 -0.32700906231E+04  0.32700906231E+04  0.25500000000E-02 0. -1.
    8880022    1    1    2    0    0  0.14977074265E+04  0.11579967108E+04 -0.19687810974E+04  0.27356122862E+04  0.15294330000E+03 0.  0.
    8880022    1    1    2    0    0 -0.14977074265E+04 -0.11579967108E+04  0.64647582347E+02  0.19004354450E+04  0.15294330000E+03 0.  0.
<mgrwt>
<rscale>  0 0.18993356E+04</rscale>
<asrwt>0</asrwt>
<pdfrwt beam="1">  1        2 0.50309086E+00 0.18993356E+04</pdfrwt>
<pdfrwt beam="2">  1       -2 0.21014725E+00 0.18993356E+04</pdfrwt>
<totfact> 0.12009658E-01</totfact>
</mgrwt>
</event>
<event>
 4    1  0.2061941E-008  0.4637681E+03  0.7818608E-02  0.1023694E+00
          2   -1    0    0  501    0  0.00000000000E+00  0.00000000000E+00  0.11845843687E+04  0.11845843687E+04  0.25500000000E-02 0. -1.
         -2   -1    0    0    0  501 -0.00000000000E+00 -0.00000000000E+00 -0.29482380213E+03  0.29482380215E+03  0.25500000000E-02 0.  1.
    8880022    1    1    2    0    0 -0.42321464713E+03 -0.11215435352E+03 -0.13588497875E+02  0.46396717216E+03  0.15294330000E+03 0.  0.
    8880022    1    1    2    0    0  0.42321464713E+03  0.11215435352E+03  0.90334906440E+03  0.10154409986E+04  0.15294330000E+03 0.  0.
<mgrwt>
<rscale>  0 0.46376814E+03</rscale>
<asrwt>0</asrwt>
<pdfrwt beam="1">  1        2 0.18224375E+00 0.46376814E+03</pdfrwt>
<pdfrwt beam="2">  1       -2 0.45357508E-01 0.46376814E+03</pdfrwt>
<totfact> 0.93272462E+01</totfact>
</mgrwt>
</event>
<event>
 4    1  0.2061941E-008  0.2027120E+04  0.7818608E-02  0.8594045E-01
         -2   -1    0    0    0  501 -0.00000000000E+00  0.00000000000E+00  0.24218523889E+04  0.24218523889E+04  0.25500000000E-02 0.  1.
          2   -1    0    0  501    0  0.00000000000E+00 -0.00000000000E+00 -0.22798011220E+04  0.22798011220E+04  0.25500000000E-02 0. -1.
    8880022    1    1    2    0    0 -0.35848041649E+03 -0.19893001451E+04  0.12598978180E+04  0.23867462037E+04  0.15294330000E+03 0.  0.
    8880022    1    1    2    0    0  0.35848041649E+03  0.19893001451E+04 -0.11178465511E+04  0.23149073072E+04  0.15294330000E+03 0.  0.
<mgrwt>
<rscale>  0 0.20271199E+04</rscale>
<asrwt>0</asrwt>
<pdfrwt beam="1">  1        2 0.35073863E+00 0.20271199E+04</pdfrwt>
<pdfrwt beam="2">  1       -2 0.37259268E+00 0.20271199E+04</pdfrwt>
<totfact> 0.45891469E-02</totfact>
</mgrwt>
</event>
<event>
 4    1  0.2061941E-008  0.9754393E+03  0.7818608E-02  0.9335900E-01
          2   -1    0    0  501    0  0.00000000000E+00  0.00000000000E+00  0.15541771077E+04  0.15541771077E+04  0.25500000000E-02 0. -1.
         -2   -1    0    0    0  501 -0.00000000000E+00 -0.00000000000E+00 -0.10843176829E+04  0.10843176829E+04  0.25500000000E-02 0.  1.
    8880022    1    1    2    0    0  0.64164340488E+03 -0.71859863926E+03  0.11054296835E+04  0.14742648003E+04  0.15294330000E+03 0.  0.
    8880022    1    1    2    0    0 -0.64164340488E+03  0.71859863926E+03 -0.63557025871E+03  0.11642299902E+04  0.15294330000E+03 0.  0.
<mgrwt>
<rscale>  0 0.97543935E+03</rscale>
<asrwt>0</asrwt>
<pdfrwt beam="1">  1        2 0.23910417E+00 0.97543935E+03</pdfrwt>
<pdfrwt beam="2">  1       -2 0.16681810E+00 0.97543935E+03</pdfrwt>
<totfact> 0.26470776E+00</totfact>
</mgrwt>
</event>
<event>
 4    1  0.2061941E-008  0.1051611E+04  0.7818608E-02  0.9253682E-01
          2   -1    0    0  501    0  0.00000000000E+00  0.00000000000E+00  0.69867565218E+03  0.69867565218E+03  0.25500000000E-02 0. -1.
         -2   -1    0    0    0  501 -0.00000000000E+00 -0.00000000000E+00 -0.18624001901E+04  0.18624001901E+04  0.25500000000E-02 0.  1.
    8880022    1    1    2    0    0 -0.15334532000E+03 -0.10290671635E+04 -0.85726672546E+02  0.10550993933E+04  0.15294330000E+03 0.  0.
    8880022    1    1    2    0    0  0.15334532000E+03  0.10290671635E+04 -0.10779978654E+04  0.15059764490E+04  0.15294330000E+03 0.  0.
<mgrwt>
<rscale>  0 0.10516110E+04</rscale>
<asrwt>0</asrwt>
<pdfrwt beam="1">  1        2 0.10748856E+00 0.10516110E+04</pdfrwt>
<pdfrwt beam="2">  1       -2 0.28652310E+00 0.10516110E+04</pdfrwt>
<totfact> 0.15732946E+00</totfact>
</mgrwt>
</event>
<event>
 4    1  0.2061941E-008  0.1716518E+03  0.7818608E-02  0.1176136E+00
         -2   -1    0    0    0  501 -0.00000000000E+00  0.00000000000E+00  0.84292187705E+02  0.84292187744E+02  0.25500000000E-02 0.  1.
          2   -1    0    0  501    0  0.00000000000E+00 -0.00000000000E+00 -0.94511464298E+03  0.94511464298E+03  0.25500000000E-02 0. -1.
    8880022    1    1    2    0    0 -0.70849555408E+02 -0.32450555490E+02 -0.83899318509E+03  0.85637253324E+03  0.15294330000E+03 0. -1.
    8880022    1    1    2    0    0  0.70849555408E+02  0.32450555490E+02 -0.21829270184E+02  0.17303429748E+03  0.15294330000E+03 0.  0.
<mgrwt>
<rscale>  0 0.17165183E+03</rscale>
<asrwt>0</asrwt>
<pdfrwt beam="1">  1        2 0.14540225E+00 0.17165183E+03</pdfrwt>
<pdfrwt beam="2">  1       -2 0.12968030E-01 0.17165183E+03</pdfrwt>
<totfact> 0.12393481E+03</totfact>
</mgrwt>
</event>
<event>
 4    1  0.2061941E-008  0.1026226E+04  0.7818608E-02  0.9280239E-01
          2   -1    0    0  501    0  0.00000000000E+00  0.00000000000E+00  0.29897844203E+04  0.29897844203E+04  0.25500000000E-02 0. -1.
         -2   -1    0    0    0  501 -0.00000000000E+00 -0.00000000000E+00 -0.69533505633E+03  0.69533505634E+03  0.25500000000E-02 0.  1.
    8880022    1    1    2    0    0  0.42869248483E+03 -0.91976659198E+03 -0.14705451991E+03  0.10367085005E+04  0.15294330000E+03 0.  0.
    8880022    1    1    2    0    0 -0.42869248483E+03  0.91976659198E+03  0.24415038839E+04  0.26484109761E+04  0.15294330000E+03 0.  0.
<mgrwt>
<rscale>  0 0.10262258E+04</rscale>
<asrwt>0</asrwt>
<pdfrwt beam="1">  1        2 0.45996684E+00 0.10262258E+04</pdfrwt>
<pdfrwt beam="2">  1       -2 0.10697462E+00 0.10262258E+04</pdfrwt>
<totfact> 0.12599178E+00</totfact>
</mgrwt>
</event>
<event>
 4    1  0.2214723E-008  0.1810375E+04  0.7818608E-02  0.8700801E-01
          2   -1    0    0  501    0  0.00000000000E+00  0.00000000000E+00  0.26446069145E+04  0.26446069145E+04  0.25500000000E-02 0. -1.
         -2   -1    0    0    0  501 -0.00000000000E+00 -0.00000000000E+00 -0.19440311255E+04  0.19440311255E+04  0.25500000000E-02 0.  1.
    8880022    1    1    2    0    0 -0.52361429589E+02  0.18031431718E+04  0.17316713082E+04  0.25052233813E+04  0.15294330000E+03 0.  0.
    8880022    1    1    2    0    0  0.52361429589E+02 -0.18031431718E+04 -0.10310955193E+04  0.20834146587E+04  0.15294330000E+03 0.  0.
<mgrwt>
<rscale>  0 0.18103753E+04</rscale>
<asrwt>0</asrwt>
<pdfrwt beam="1">  1        2 0.40686260E+00 0.18103753E+04</pdfrwt>
<pdfrwt beam="2">  1       -2 0.29908171E+00 0.18103753E+04</pdfrwt>
<totfact> 0.83342069E-02</totfact>
</mgrwt>
</event>
<event>
 4    1  0.2061941E-008  0.6245190E+03  0.7818608E-02  0.9855803E-01
         -2   -1    0    0    0  501 -0.00000000000E+00  0.00000000000E+00  0.54601153949E+03  0.54601153949E+03  0.25500000000E-02 0.  1.
          2   -1    0    0  501    0  0.00000000000E+00 -0.00000000000E+00 -0.19581841002E+04  0.19581841002E+04  0.25500000000E-02 0. -1.
    8880022    1    1    2    0    0  0.10333628351E+03  0.59661878695E+03  0.29184102947E+03  0.68934403887E+03  0.15294330000E+03 0.  0.
    8880022    1    1    2    0    0 -0.10333628351E+03 -0.59661878695E+03 -0.17040135902E+04  0.18148516008E+04  0.15294330000E+03 0. -1.
<mgrwt>
<rscale>  0 0.62451903E+03</rscale>
<asrwt>0</asrwt>
<pdfrwt beam="1">  1        2 0.30125909E+00 0.62451903E+03</pdfrwt>
<pdfrwt beam="2">  1       -2 0.84001776E-01 0.62451903E+03</pdfrwt>
<totfact> 0.92174041E+00</totfact>
</mgrwt>
</event>
<event>
 4    1  0.2061941E-008  0.4225422E+03  0.7818608E-02  0.1036242E+00
          2   -1    0    0  501    0  0.00000000000E+00  0.00000000000E+00  0.34429411117E+04  0.34429411117E+04  0.25500000000E-02 0. -1.
         -2   -1    0    0    0  501 -0.00000000000E+00 -0.00000000000E+00 -0.36193506698E+03  0.36193506699E+03  0.25500000000E-02 0.  1.
    8880022    1    1    2    0    0 -0.13940889265E+03  0.36839573632E+03  0.33013858488E+04  0.33283164564E+04  0.15294330000E+03 0. -1.
    8880022    1    1    2    0    0  0.13940889265E+03 -0.36839573632E+03 -0.22037980409E+03  0.47655972234E+03  0.15294330000E+03 0.  0.
<mgrwt>
<rscale>  0 0.42254220E+03</rscale>
<asrwt>0</asrwt>
<pdfrwt beam="1">  1        2 0.52968323E+00 0.42254220E+03</pdfrwt>
<pdfrwt beam="2">  1       -2 0.55682320E-01 0.42254220E+03</pdfrwt>
<totfact> 0.32161199E+00</totfact>
</mgrwt>
</event>
<event>
 4    1  0.2061941E-008  0.1083600E+04  0.7818608E-02  0.9221326E-01
         -2   -1    0    0    0  501 -0.00000000000E+00  0.00000000000E+00  0.59204724822E+03  0.59204724823E+03  0.25500000000E-02 0.  1.
          2   -1    0    0  501    0  0.00000000000E+00 -0.00000000000E+00 -0.24788904575E+04  0.24788904575E+04  0.25500000000E-02 0. -1.
    8880022    1    1    2    0    0  0.10195424598E+04  0.33366114084E+03 -0.25684670206E+03  0.11136240235E+04  0.15294330000E+03 0.  0.
    8880022    1    1    2    0    0 -0.10195424598E+04 -0.33366114084E+03 -0.16299965072E+04  0.19573136822E+04  0.15294330000E+03 0.  0.
<mgrwt>
<rscale>  0 0.10835997E+04</rscale>
<asrwt>0</asrwt>
<pdfrwt beam="1">  1        2 0.38136776E+00 0.10835997E+04</pdfrwt>
<pdfrwt beam="2">  1       -2 0.91084193E-01 0.10835997E+04</pdfrwt>
<totfact> 0.36732766E+00</totfact>
</mgrwt>
</event>
<event>
 4    1  0.2061941E-008  0.7281338E+03  0.7818608E-02  0.9670294E-01
          2   -1    0    0  501    0  0.00000000000E+00  0.00000000000E+00  0.18193261536E+04  0.18193261536E+04  0.25500000000E-02 0. -1.
         -2   -1    0    0    0  501 -0.00000000000E+00 -0.00000000000E+00 -0.11456721060E+04  0.11456721060E+04  0.25500000000E-02 0.  1.
    8880022    1    1    2    0    0  0.17997930262E+03  0.68876310775E+03  0.16169703394E+04  0.17733504729E+04  0.15294330000E+03 0.  0.
    8880022    1    1    2    0    0 -0.17997930262E+03 -0.68876310775E+03 -0.94331629185E+03  0.11916477867E+04  0.15294330000E+03 0.  0.
<mgrwt>
<rscale>  0 0.72813379E+03</rscale>
<asrwt>0</asrwt>
<pdfrwt beam="1">  1        2 0.27989633E+00 0.72813379E+03</pdfrwt>
<pdfrwt beam="2">  1       -2 0.17625725E+00 0.72813379E+03</pdfrwt>
<totfact> 0.16860599E+00</totfact>
</mgrwt>
</event>
<event>
 4    1  0.2061941E-008  0.3980579E+03  0.7818608E-02  0.1044454E+00
         -2   -1    0    0    0  501 -0.00000000000E+00  0.00000000000E+00  0.89603319925E+02  0.89603319961E+02  0.25500000000E-02 0.  1.
          2   -1    0    0  501    0  0.00000000000E+00 -0.00000000000E+00 -0.26043262066E+04  0.26043262066E+04  0.25500000000E-02 0. -1.
    8880022    1    1    2    0    0 -0.36721330326E+03 -0.14588676484E+02 -0.20205033864E+04  0.20593406778E+04  0.15294330000E+03 0.  0.
    8880022    1    1    2    0    0  0.36721330326E+03  0.14588676484E+02 -0.49421950030E+03  0.63458884883E+03  0.15294330000E+03 0. -1.
<mgrwt>
<rscale>  0 0.39805790E+03</rscale>
<asrwt>0</asrwt>
<pdfrwt beam="1">  1        2 0.40066551E+00 0.39805790E+03</pdfrwt>
<pdfrwt beam="2">  1       -2 0.13785128E-01 0.39805790E+03</pdfrwt>
<totfact> 0.13436899E+02</totfact>
</mgrwt>
</event>
<event>
 4    1  0.2061941E-008  0.7155509E+03  0.7818608E-02  0.9691002E-01
          2   -1    0    0  501    0  0.00000000000E+00  0.00000000000E+00  0.28812617010E+04  0.28812617010E+04  0.25500000000E-02 0. -1.
         -2   -1    0    0    0  501 -0.00000000000E+00 -0.00000000000E+00 -0.37150006775E+03  0.37150006776E+03  0.25500000000E-02 0.  1.
    8880022    1    1    2    0    0  0.44381578097E+03 -0.54004531499E+03  0.24295478542E+04  0.25327289272E+04  0.15294330000E+03 0.  0.
    8880022    1    1    2    0    0 -0.44381578097E+03  0.54004531499E+03  0.80213779110E+02  0.72003284165E+03  0.15294330000E+03 0.  0.
<mgrwt>
<rscale>  0 0.71555087E+03</rscale>
<asrwt>0</asrwt>
<pdfrwt beam="1">  1        2 0.44327104E+00 0.71555087E+03</pdfrwt>
<pdfrwt beam="2">  1       -2 0.57153855E-01 0.71555087E+03</pdfrwt>
<totfact> 0.63237756E+00</totfact>
</mgrwt>
</event>
<event>
 4    1  0.2061941E-008  0.1727337E+04  0.7818608E-02  0.8745925E-01
         -2   -1    0    0    0  501 -0.00000000000E+00  0.00000000000E+00  0.13299591106E+04  0.13299591106E+04  0.25500000000E-02 0.  1.
          2   -1    0    0  501    0  0.00000000000E+00 -0.00000000000E+00 -0.26023025882E+04  0.26023025882E+04  0.25500000000E-02 0. -1.
    8880022    1    1    2    0    0 -0.20004969338E+03 -0.17088827003E+04 -0.13662911678E+04  0.22023721691E+04  0.15294330000E+03 0.  0.
    8880022    1    1    2    0    0  0.20004969338E+03  0.17088827003E+04  0.93947690201E+02  0.17298895296E+04  0.15294330000E+03 0.  0.
<mgrwt>
<rscale>  0 0.17273366E+04</rscale>
<asrwt>0</asrwt>
<pdfrwt beam="1">  1        2 0.40035424E+00 0.17273366E+04</pdfrwt>
<pdfrwt beam="2">  1       -2 0.20460909E+00 0.17273366E+04</pdfrwt>
<totfact> 0.34530025E-01</totfact>
</mgrwt>
</event>
<event>
 4    1  0.2061941E-008  0.1641212E+04  0.7818608E-02  0.8795622E-01
         -2   -1    0    0    0  501 -0.00000000000E+00  0.00000000000E+00  0.14778249729E+04  0.14778249729E+04  0.25500000000E-02 0.  1.
          2   -1    0    0  501    0  0.00000000000E+00 -0.00000000000E+00 -0.30317006476E+04  0.30317006476E+04  0.25500000000E-02 0. -1.
    8880022    1    1    2    0    0  0.14649634851E+04 -0.72392491167E+03 -0.22008316783E+04  0.27454028884E+04  0.15294330000E+03 0.  0.
    8880022    1    1    2    0    0 -0.14649634851E+04  0.72392491167E+03  0.64695600362E+03  0.17641227321E+04  0.15294330000E+03 0.  0.
<mgrwt>
<rscale>  0 0.16412120E+04</rscale>
<asrwt>0</asrwt>
<pdfrwt beam="1">  1        2 0.46641548E+00 0.16412120E+04</pdfrwt>
<pdfrwt beam="2">  1       -2 0.22735769E+00 0.16412120E+04</pdfrwt>
<totfact> 0.13664684E-01</totfact>
</mgrwt>
</event>
<event>
 4    1  0.2061941E-008  0.7912122E+03  0.7818608E-02  0.9572825E-01
          2   -1    0    0  501    0  0.00000000000E+00  0.00000000000E+00  0.15907993723E+04  0.15907993723E+04  0.25500000000E-02 0. -1.
         -2   -1    0    0    0  501 -0.00000000000E+00 -0.00000000000E+00 -0.56480925077E+03  0.56480925077E+03  0.25500000000E-02 0.  1.
    8880022    1    1    2    0    0 -0.21954632121E+03 -0.74459690790E+03  0.11065347246E+04  0.13603072786E+04  0.15294330000E+03 0.  0.
    8880022    1    1    2    0    0  0.21954632121E+03  0.74459690790E+03 -0.80544603088E+02  0.79530134446E+03  0.15294330000E+03 0.  0.
<mgrwt>
<rscale>  0 0.79121223E+03</rscale>
<asrwt>0</asrwt>
<pdfrwt beam="1">  1        2 0.24473836E+00 0.79121223E+03</pdfrwt>
<pdfrwt beam="2">  1       -2 0.86893733E-01 0.79121223E+03</pdfrwt>
<totfact> 0.13197082E+01</totfact>
</mgrwt>
</event>
<event>
 4    1  0.2061941E-008  0.1046671E+04  0.7818608E-02  0.9258788E-01
          2   -1    0    0  501    0  0.00000000000E+00  0.00000000000E+00  0.16120951686E+04  0.16120951686E+04  0.25500000000E-02 0. -1.
         -2   -1    0    0    0  501 -0.00000000000E+00 -0.00000000000E+00 -0.77733955712E+03  0.77733955712E+03  0.25500000000E-02 0.  1.
    8880022    1    1    2    0    0  0.25820118777E+03  0.10027264819E+04 -0.63408731291E+01  0.10466900738E+04  0.15294330000E+03 0.  0.
    8880022    1    1    2    0    0 -0.25820118777E+03 -0.10027264819E+04  0.84109648464E+03  0.13427446520E+04  0.15294330000E+03 0.  0.
<mgrwt>
<rscale>  0 0.10466709E+04</rscale>
<asrwt>0</asrwt>
<pdfrwt beam="1">  1        2 0.24801464E+00 0.10466709E+04</pdfrwt>
<pdfrwt beam="2">  1       -2 0.11959070E+00 0.10466709E+04</pdfrwt>
<totfact> 0.58200263E+00</totfact>
</mgrwt>
</event>
<event>
 4    1  0.2061941E-008  0.4439562E+03  0.7818608E-02  0.1029540E+00
         -2   -1    0    0    0  501 -0.00000000000E+00  0.00000000000E+00  0.58867197091E+03  0.58867197091E+03  0.25500000000E-02 0.  1.
          2   -1    0    0  501    0  0.00000000000E+00 -0.00000000000E+00 -0.58273452068E+03  0.58273452068E+03  0.25500000000E-02 0. -1.
    8880022    1    1    2    0    0  0.31353486443E+03 -0.27459310865E+03 -0.37906018583E+03  0.58376687473E+03  0.15294330000E+03 0.  0.
    8880022    1    1    2    0    0 -0.31353486443E+03  0.27459310865E+03  0.38499763606E+03  0.58763961687E+03  0.15294330000E+03 0.  0.
<mgrwt>
<rscale>  0 0.44395624E+03</rscale>
<asrwt>0</asrwt>
<pdfrwt beam="1">  1        2 0.89651464E-01 0.44395624E+03</pdfrwt>
<pdfrwt beam="2">  1       -2 0.90564919E-01 0.44395624E+03</pdfrwt>
<totfact> 0.55631073E+01</totfact>
</mgrwt>
</event>
<event>
 4    1  0.2061941E-008  0.7250616E+03  0.7818608E-02  0.9675308E-01
         -2   -1    0    0    0  501 -0.00000000000E+00  0.00000000000E+00  0.18664074376E+04  0.18664074376E+04  0.25500000000E-02 0.  1.
          2   -1    0    0  501    0  0.00000000000E+00 -0.00000000000E+00 -0.10018475675E+04  0.10018475675E+04  0.25500000000E-02 0. -1.
    8880022    1    1    2    0    0  0.16897505239E+03  0.68830964464E+03  0.16482032474E+04  0.18006355359E+04  0.15294330000E+03 0.  0.
    8880022    1    1    2    0    0 -0.16897505239E+03 -0.68830964464E+03 -0.78364337733E+03  0.10676194692E+04  0.15294330000E+03 0.  0.
<mgrwt>
<rscale>  0 0.72506164E+03</rscale>
<asrwt>0</asrwt>
<pdfrwt beam="1">  1        2 0.15413039E+00 0.72506164E+03</pdfrwt>
<pdfrwt beam="2">  1       -2 0.28713961E+00 0.72506164E+03</pdfrwt>
<totfact> 0.10028692E+00</totfact>
</mgrwt>
</event>
<event>
 4    1  0.2061941E-008  0.7714110E+03  0.7818608E-02  0.9602346E-01
          2   -1    0    0  501    0  0.00000000000E+00  0.00000000000E+00  0.16329185131E+04  0.16329185131E+04  0.25500000000E-02 0. -1.
         -2   -1    0    0    0  501 -0.00000000000E+00 -0.00000000000E+00 -0.74106291549E+03  0.74106291549E+03  0.25500000000E-02 0.  1.
    8880022    1    1    2    0    0 -0.17042652466E+03  0.73663974626E+03  0.12921458400E+04  0.15048972858E+04  0.15294330000E+03 0.  0.
    8880022    1    1    2    0    0  0.17042652466E+03 -0.73663974626E+03 -0.40029024237E+03  0.86908414277E+03  0.15294330000E+03 0.  0.
<mgrwt>
<rscale>  0 0.77141102E+03</rscale>
<asrwt>0</asrwt>
<pdfrwt beam="1">  1        2 0.25121823E+00 0.77141102E+03</pdfrwt>
<pdfrwt beam="2">  1       -2 0.11400968E+00 0.77141102E+03</pdfrwt>
<totfact> 0.65946856E+00</totfact>
</mgrwt>
</event>
<event>
 4    1  0.2061941E-008  0.9602257E+03  0.7818608E-02  0.9353278E-01
          2   -1    0    0  501    0  0.00000000000E+00  0.00000000000E+00  0.22898486266E+04  0.22898486266E+04  0.25500000000E-02 0. -1.
         -2   -1    0    0    0  501 -0.00000000000E+00 -0.00000000000E+00 -0.43127595591E+03  0.43127595592E+03  0.25500000000E-02 0.  1.
    8880022    1    1    2    0    0 -0.34529432599E+02  0.94733807348E+03  0.57882889479E+03  0.11211941177E+04  0.15294330000E+03 0.  0.
    8880022    1    1    2    0    0  0.34529432599E+02 -0.94733807348E+03  0.12797437759E+04  0.15999304648E+04  0.15294330000E+03 0.  0.
<mgrwt>
<rscale>  0 0.96022568E+03</rscale>
<asrwt>0</asrwt>
<pdfrwt beam="1">  1        2 0.35228441E+00 0.96022568E+03</pdfrwt>
<pdfrwt beam="2">  1       -2 0.66350146E-01 0.96022568E+03</pdfrwt>
<totfact> 0.97141520E+00</totfact>
</mgrwt>
</event>
<event>
 4    1  0.2061941E-008  0.2184859E+04  0.7818608E-02  0.8524757E-01
         -2   -1    0    0    0  501 -0.00000000000E+00  0.00000000000E+00  0.18960784720E+04  0.18960784720E+04  0.25500000000E-02 0.  1.
          2   -1    0    0  501    0  0.00000000000E+00 -0.00000000000E+00 -0.26241816723E+04  0.26241816723E+04  0.25500000000E-02 0. -1.
    8880022    1    1    2    0    0  0.20951993985E+04  0.60029607831E+03 -0.81949492582E+03  0.23334908373E+04  0.15294330000E+03 0.  0.
    8880022    1    1    2    0    0 -0.20951993985E+04 -0.60029607831E+03  0.91391725542E+02  0.21867693070E+04  0.15294330000E+03 0.  0.
<mgrwt>
<rscale>  0 0.21848587E+04</rscale>
<asrwt>0</asrwt>
<pdfrwt beam="1">  1        2 0.40372026E+00 0.21848587E+04</pdfrwt>
<pdfrwt beam="2">  1       -2 0.29170438E+00 0.21848587E+04</pdfrwt>
<totfact> 0.91636581E-02</totfact>
</mgrwt>
</event>
<event>
 4    1  0.2061941E-008  0.6265471E+03  0.7818608E-02  0.9851810E-01
          2   -1    0    0  501    0  0.00000000000E+00  0.00000000000E+00  0.18712936297E+04  0.18712936297E+04  0.25500000000E-02 0. -1.
         -2   -1    0    0    0  501 -0.00000000000E+00 -0.00000000000E+00 -0.11404268842E+04  0.11404268842E+04  0.25500000000E-02 0.  1.
    8880022    1    1    2    0    0  0.58044728845E+03  0.17958430264E+03 -0.99489343222E+03  0.11757440924E+04  0.15294330000E+03 0.  1.
    8880022    1    1    2    0    0 -0.58044728845E+03 -0.17958430264E+03  0.17257601777E+04  0.18359764215E+04  0.15294330000E+03 0.  0.
<mgrwt>
<rscale>  0 0.62654707E+03</rscale>
<asrwt>0</asrwt>
<pdfrwt beam="1">  1        2 0.28789133E+00 0.62654707E+03</pdfrwt>
<pdfrwt beam="2">  1       -2 0.17545029E+00 0.62654707E+03</pdfrwt>
<totfact> 0.16349636E+00</totfact>
</mgrwt>
</event>
<event>
 4    1  0.2061941E-008  0.6892583E+03  0.7818608E-02  0.9735780E-01
         -2   -1    0    0    0  501 -0.00000000000E+00  0.00000000000E+00  0.12171667152E+04  0.12171667152E+04  0.25500000000E-02 0.  1.
          2   -1    0    0  501    0  0.00000000000E+00 -0.00000000000E+00 -0.17545868251E+04  0.17545868251E+04  0.25500000000E-02 0. -1.
    8880022    1    1    2    0    0 -0.13189334304E+03  0.65900643360E+03  0.10415153152E+04  0.12489319990E+04  0.15294330000E+03 0.  0.
    8880022    1    1    2    0    0  0.13189334304E+03 -0.65900643360E+03 -0.15789354251E+04  0.17228215413E+04  0.15294330000E+03 0.  0.
<mgrwt>
<rscale>  0 0.68925829E+03</rscale>
<asrwt>0</asrwt>
<pdfrwt beam="1">  1        2 0.26993644E+00 0.68925829E+03</pdfrwt>
<pdfrwt beam="2">  1       -2 0.18725642E+00 0.68925829E+03</pdfrwt>
<totfact> 0.15506316E+00</totfact>
</mgrwt>
</event>
<event>
 4    1  0.2061941E-008  0.1596140E+04  0.7818608E-02  0.8822923E-01
          2   -1    0    0  501    0  0.00000000000E+00  0.00000000000E+00  0.39285239515E+04  0.39285239515E+04  0.25500000000E-02 0. -1.
         -2   -1    0    0    0  501 -0.00000000000E+00 -0.00000000000E+00 -0.65106882557E+03  0.65106882557E+03  0.25500000000E-02 0.  1.
    8880022    1    1    2    0    0  0.92508520174E+03 -0.12916995838E+04  0.17824559226E+04  0.23926577721E+04  0.15294330000E+03 0.  0.
    8880022    1    1    2    0    0 -0.92508520174E+03  0.12916995838E+04  0.14949992033E+04  0.21869350050E+04  0.15294330000E+03 0.  0.
<mgrwt>
<rscale>  0 0.15961397E+04</rscale>
<asrwt>0</asrwt>
<pdfrwt beam="1">  1        2 0.60438829E+00 0.15961397E+04</pdfrwt>
<pdfrwt beam="2">  1       -2 0.10016444E+00 0.15961397E+04</pdfrwt>
<totfact> 0.30744153E-01</totfact>
</mgrwt>
</event>
<event>
 4    1  0.2061941E-008  0.8305235E+03  0.7818608E-02  0.9516857E-01
         -2   -1    0    0    0  501 -0.00000000000E+00  0.00000000000E+00  0.33125399346E+03  0.33125399347E+03  0.25500000000E-02 0.  1.
          2   -1    0    0  501    0  0.00000000000E+00 -0.00000000000E+00 -0.33404781829E+04  0.33404781829E+04  0.25500000000E-02 0. -1.
    8880022    1    1    2    0    0  0.71049962411E+03  0.40195506379E+03 -0.26313119773E+04  0.27592701869E+04  0.15294330000E+03 0.  0.
    8880022    1    1    2    0    0 -0.71049962411E+03 -0.40195506379E+03 -0.37791221209E+03  0.91246198947E+03  0.15294330000E+03 0.  0.
<mgrwt>
<rscale>  0 0.83052347E+03</rscale>
<asrwt>0</asrwt>
<pdfrwt beam="1">  1        2 0.51391970E+00 0.83052347E+03</pdfrwt>
<pdfrwt beam="2">  1       -2 0.50962155E-01 0.83052347E+03</pdfrwt>
<totfact> 0.40442348E+00</totfact>
</mgrwt>
</event>
<event>
 4    1  0.4864223E-008  0.1068597E+04  0.7818608E-02  0.9236352E-01
          2   -1    0    0  501    0  0.00000000000E+00  0.00000000000E+00  0.28402068412E+04  0.28402068412E+04  0.25500000000E-02 0. -1.
         -2   -1    0    0    0  501 -0.00000000000E+00 -0.00000000000E+00 -0.16298710894E+04  0.16298710894E+04  0.25500000000E-02 0.  1.
    8880022    1    1    2    0    0  0.32723914276E+03  0.10056950608E+04  0.25450545394E+04  0.27602902517E+04  0.15294330000E+03 0.  0.
    8880022    1    1    2    0    0 -0.32723914276E+03 -0.10056950608E+04 -0.13347187877E+04  0.17097876789E+04  0.15294330000E+03 0.  0.
<mgrwt>
<rscale>  0 0.10685971E+04</rscale>
<asrwt>0</asrwt>
<pdfrwt beam="1">  1        2 0.43695490E+00 0.10685971E+04</pdfrwt>
<pdfrwt beam="2">  1       -2 0.25074940E+00 0.10685971E+04</pdfrwt>
<totfact> 0.13969112E-01</totfact>
</mgrwt>
</event>
<event>
 4    1  0.2061941E-008  0.3932703E+03  0.7818608E-02  0.1046135E+00
         -2   -1    0    0    0  501 -0.00000000000E+00  0.00000000000E+00  0.10163579278E+04  0.10163579278E+04  0.25500000000E-02 0.  1.
          2   -1    0    0  501    0  0.00000000000E+00 -0.00000000000E+00 -0.33136425657E+04  0.33136425657E+04  0.25500000000E-02 0. -1.
    8880022    1    1    2    0    0  0.19038750392E+03 -0.30825718992E+03  0.96606208151E+03  0.10430424225E+04  0.15294330000E+03 0.  0.
    8880022    1    1    2    0    0 -0.19038750392E+03  0.30825718992E+03 -0.32633467194E+04  0.32869580711E+04  0.15294330000E+03 0.  0.
<mgrwt>
<rscale>  0 0.39327033E+03</rscale>
<asrwt>0</asrwt>
<pdfrwt beam="1">  1        2 0.50979116E+00 0.39327033E+03</pdfrwt>
<pdfrwt beam="2">  1       -2 0.15636276E+00 0.39327033E+03</pdfrwt>
<totfact> 0.36004638E-01</totfact>
</mgrwt>
</event>
<event>
 4    1  0.2061941E-008  0.4087340E+03  0.7818608E-02  0.1040797E+00
         -2   -1    0    0    0  501 -0.00000000000E+00  0.00000000000E+00  0.13563548452E+03  0.13563548455E+03  0.25500000000E-02 0.  1.
          2   -1    0    0  501    0  0.00000000000E+00 -0.00000000000E+00 -0.19769294743E+04  0.19769294743E+04  0.25500000000E-02 0. -1.
    8880022    1    1    2    0    0  0.26537732347E+03  0.27064134602E+03 -0.27212198188E+03  0.49103348972E+03  0.15294330000E+03 0.  1.
    8880022    1    1    2    0    0 -0.26537732347E+03 -0.27064134602E+03 -0.15691720079E+04  0.16215314691E+04  0.15294330000E+03 0.  0.
<mgrwt>
<rscale>  0 0.40873404E+03</rscale>
<asrwt>0</asrwt>
<pdfrwt beam="1">  1        2 0.30414298E+00 0.40873404E+03</pdfrwt>
<pdfrwt beam="2">  1       -2 0.20866999E-01 0.40873404E+03</pdfrwt>
<totfact> 0.14589967E+02</totfact>
</mgrwt>
</event>
<event>
 4    1  0.2061941E-008  0.4848763E+03  0.7818608E-02  0.1017804E+00
          2   -1    0    0  501    0  0.00000000000E+00  0.00000000000E+00  0.32320085086E+04  0.32320085086E+04  0.25500000000E-02 0. -1.
         -2   -1    0    0    0  501 -0.00000000000E+00 -0.00000000000E+00 -0.22933248096E+03  0.22933248097E+03  0.25500000000E-02 0.  1.
    8880022    1    1    2    0    0  0.44953608703E+03  0.98136127485E+02  0.71248229127E+02  0.49008300953E+03  0.15294330000E+03 0.  0.
    8880022    1    1    2    0    0 -0.44953608703E+03 -0.98136127485E+02  0.29314277985E+04  0.29712579801E+04  0.15294330000E+03 0.  0.
<mgrwt>
<rscale>  0 0.48487632E+03</rscale>
<asrwt>0</asrwt>
<pdfrwt beam="1">  1        2 0.49723203E+00 0.48487632E+03</pdfrwt>
<pdfrwt beam="2">  1       -2 0.35281924E-01 0.48487632E+03</pdfrwt>
<totfact> 0.10610232E+01</totfact>
</mgrwt>
</event>
<event>
 4    1  0.2061941E-008  0.5393630E+03  0.7818608E-02  0.1003986E+00
         -2   -1    0    0    0  501 -0.00000000000E+00  0.00000000000E+00  0.67689681439E+03  0.67689681439E+03  0.25500000000E-02 0.  1.
          2   -1    0    0  501    0  0.00000000000E+00 -0.00000000000E+00 -0.55463540920E+03  0.55463540920E+03  0.25500000000E-02 0. -1.
    8880022    1    1    2    0    0 -0.97667650722E+02  0.50791910819E+03  0.35329466000E+03  0.64477093627E+03  0.15294330000E+03 0.  0.
    8880022    1    1    2    0    0  0.97667650722E+02 -0.50791910819E+03 -0.23103325481E+03  0.58676128733E+03  0.15294330000E+03 0.  0.
<mgrwt>
<rscale>  0 0.53936300E+03</rscale>
<asrwt>0</asrwt>
<pdfrwt beam="1">  1        2 0.85328525E-01 0.53936300E+03</pdfrwt>
<pdfrwt beam="2">  1       -2 0.10413797E+00 0.53936300E+03</pdfrwt>
<totfact> 0.42113969E+01</totfact>
</mgrwt>
</event>
<event>
 4    1  0.2061941E-008  0.7964452E+03  0.7818608E-02  0.9565177E-01
          2   -1    0    0  501    0  0.00000000000E+00  0.00000000000E+00  0.14452175008E+04  0.14452175008E+04  0.25500000000E-02 0. -1.
         -2   -1    0    0    0  501 -0.00000000000E+00 -0.00000000000E+00 -0.82233577996E+03  0.82233577996E+03  0.25500000000E-02 0.  1.
    8880022    1    1    2    0    0 -0.63026445269E+03  0.46227705056E+03  0.10856205382E+04  0.13464386202E+04  0.15294330000E+03 0.  0.
    8880022    1    1    2    0    0  0.63026445269E+03 -0.46227705056E+03 -0.46273881741E+03  0.92111466059E+03  0.15294330000E+03 0.  0.
<mgrwt>
<rscale>  0 0.79644523E+03</rscale>
<asrwt>0</asrwt>
<pdfrwt beam="1">  1        2 0.22234115E+00 0.79644523E+03</pdfrwt>
<pdfrwt beam="2">  1       -2 0.12651320E+00 0.79644523E+03</pdfrwt>
<totfact> 0.64552301E+00</totfact>
</mgrwt>
</event>
<event>
 4    1  0.2061941E-008  0.1667633E+04  0.7818608E-02  0.8780043E-01
          2   -1    0    0  501    0  0.00000000000E+00  0.00000000000E+00  0.32807371734E+04  0.32807371734E+04  0.25500000000E-02 0. -1.
         -2   -1    0    0    0  501 -0.00000000000E+00 -0.00000000000E+00 -0.10592169695E+04  0.10592169695E+04  0.25500000000E-02 0.  1.
    8880022    1    1    2    0    0  0.13306712762E+04  0.99343992563E+03  0.20805115117E+04  0.26663699545E+04  0.15294330000E+03 0.  0.
    8880022    1    1    2    0    0 -0.13306712762E+04 -0.99343992563E+03  0.14100869221E+03  0.16735841883E+04  0.15294330000E+03 0.  0.
<mgrwt>
<rscale>  0 0.16676332E+04</rscale>
<asrwt>0</asrwt>
<pdfrwt beam="1">  1        2 0.50472880E+00 0.16676332E+04</pdfrwt>
<pdfrwt beam="2">  1       -2 0.16295646E+00 0.16676332E+04</pdfrwt>
<totfact> 0.25575627E-01</totfact>
</mgrwt>
</event>
<event>
 4    1  0.2061941E-008  0.8122986E+03  0.7818608E-02  0.9542384E-01
         -2   -1    0    0    0  501 -0.00000000000E+00  0.00000000000E+00  0.94093579333E+03  0.94093579333E+03  0.25500000000E-02 0.  1.
          2   -1    0    0  501    0  0.00000000000E+00 -0.00000000000E+00 -0.10486525390E+04  0.10486525390E+04  0.25500000000E-02 0. -1.
    8880022    1    1    2    0    0 -0.79727368395E+03  0.28142486066E+02 -0.62643736411E+03  0.10257937175E+04  0.15294330000E+03 0.  0.
    8880022    1    1    2    0    0  0.79727368395E+03 -0.28142486066E+02  0.51872061843E+03  0.96379461487E+03  0.15294330000E+03 0.  0.
<mgrwt>
<rscale>  0 0.81229858E+03</rscale>
<asrwt>0</asrwt>
<pdfrwt beam="1">  1        2 0.16133116E+00 0.81229858E+03</pdfrwt>
<pdfrwt beam="2">  1       -2 0.14475935E+00 0.81229858E+03</pdfrwt>
<totfact> 0.78043761E+00</totfact>
</mgrwt>
</event>
<event>
 4    1  0.2061941E-008  0.7048541E+03  0.7818608E-02  0.9708967E-01
         -2   -1    0    0    0  501 -0.00000000000E+00  0.00000000000E+00  0.26375286286E+03  0.26375286287E+03  0.25500000000E-02 0.  1.
          2   -1    0    0  501    0  0.00000000000E+00 -0.00000000000E+00 -0.34054855590E+04  0.34054855590E+04  0.25500000000E-02 0. -1.
    8880022    1    1    2    0    0 -0.75603551905E+02  0.68389450925E+03 -0.27972875400E+04  0.28847247410E+04  0.15294330000E+03 0.  0.
    8880022    1    1    2    0    0  0.75603551905E+02 -0.68389450925E+03 -0.34444515611E+03  0.78451368085E+03  0.15294330000E+03 0.  0.
<mgrwt>
<rscale>  0 0.70485406E+03</rscale>
<asrwt>0</asrwt>
<pdfrwt beam="1">  1        2 0.52392082E+00 0.70485406E+03</pdfrwt>
<pdfrwt beam="2">  1       -2 0.40577366E-01 0.70485406E+03</pdfrwt>
<totfact> 0.59221607E+00</totfact>
</mgrwt>
</event>
<event>
 4    1  0.2061941E-008  0.8407653E+03  0.7818608E-02  0.9502816E-01
         -2   -1    0    0    0  501 -0.00000000000E+00  0.00000000000E+00  0.85710792201E+03  0.85710792202E+03  0.25500000000E-02 0.  1.
          2   -1    0    0  501    0  0.00000000000E+00 -0.00000000000E+00 -0.90971692255E+03  0.90971692256E+03  0.25500000000E-02 0. -1.
    8880022    1    1    2    0    0 -0.77995843706E+03 -0.27415216456E+03  0.24370289355E+03  0.87537267847E+03  0.15294330000E+03 0.  0.
    8880022    1    1    2    0    0  0.77995843706E+03  0.27415216456E+03 -0.29631189409E+03  0.89145216611E+03  0.15294330000E+03 0.  0.
<mgrwt>
<rscale>  0 0.84076526E+03</rscale>
<asrwt>0</asrwt>
<pdfrwt beam="1">  1        2 0.13995645E+00 0.84076526E+03</pdfrwt>
<pdfrwt beam="2">  1       -2 0.13186276E+00 0.84076526E+03</pdfrwt>
<totfact> 0.12178375E+01</totfact>
</mgrwt>
</event>
<event>
 4    1  0.2061941E-008  0.1145152E+04  0.7818608E-02  0.9162268E-01
          2   -1    0    0  501    0  0.00000000000E+00  0.00000000000E+00  0.11418262194E+04  0.11418262194E+04  0.25500000000E-02 0. -1.
         -2   -1    0    0    0  501 -0.00000000000E+00 -0.00000000000E+00 -0.25126837319E+04  0.25126837319E+04  0.25500000000E-02 0.  1.
    8880022    1    1    2    0    0 -0.58425164144E+03  0.97294968500E+03 -0.20318120685E+04  0.23323020826E+04  0.15294330000E+03 0.  0.
    8880022    1    1    2    0    0  0.58425164144E+03 -0.97294968500E+03  0.66095455598E+03  0.13222078687E+04  0.15294330000E+03 0.  0.
<mgrwt>
<rscale>  0 0.11451518E+04</rscale>
<asrwt>0</asrwt>
<pdfrwt beam="1">  1        2 0.17566557E+00 0.11451518E+04</pdfrwt>
<pdfrwt beam="2">  1       -2 0.38656673E+00 0.11451518E+04</pdfrwt>
<totfact> 0.18499209E-01</totfact>
</mgrwt>
</event>
<event>
 4    1  0.2061941E-008  0.1868082E+04  0.7818608E-02  0.8670909E-01
          2   -1    0    0  501    0  0.00000000000E+00  0.00000000000E+00  0.20273781514E+04  0.20273781514E+04  0.25500000000E-02 0. -1.
         -2   -1    0    0    0  501 -0.00000000000E+00 -0.00000000000E+00 -0.21652195432E+04  0.21652195432E+04  0.25500000000E-02 0.  1.
    8880022    1    1    2    0    0 -0.25167607822E+03 -0.18447216983E+04 -0.10181108853E+04  0.21275056805E+04  0.15294330000E+03 0.  0.
    8880022    1    1    2    0    0  0.25167607822E+03  0.18447216983E+04  0.88026949346E+03  0.20650920141E+04  0.15294330000E+03 0.  0.
<mgrwt>
<rscale>  0 0.18680821E+04</rscale>
<asrwt>0</asrwt>
<pdfrwt beam="1">  1        2 0.31190433E+00 0.18680821E+04</pdfrwt>
<pdfrwt beam="2">  1       -2 0.33311070E+00 0.18680821E+04</pdfrwt>
<totfact> 0.11532094E-01</totfact>
</mgrwt>
</event>
<event>
 4    1  0.2061941E-008  0.1318703E+04  0.7818608E-02  0.9014863E-01
         -2   -1    0    0    0  501 -0.00000000000E+00  0.00000000000E+00  0.11074768173E+04  0.11074768173E+04  0.25500000000E-02 0.  1.
          2   -1    0    0  501    0  0.00000000000E+00 -0.00000000000E+00 -0.26579768289E+04  0.26579768289E+04  0.25500000000E-02 0. -1.
    8880022    1    1    2    0    0  0.13072482921E+04 -0.81785446175E+02  0.42917088517E+03  0.13867827004E+04  0.15294330000E+03 0.  0.
    8880022    1    1    2    0    0 -0.13072482921E+04  0.81785446175E+02 -0.19796708968E+04  0.23786709459E+04  0.15294330000E+03 0.  0.
<mgrwt>
<rscale>  0 0.13187034E+04</rscale>
<asrwt>0</asrwt>
<pdfrwt beam="1">  1        2 0.40891951E+00 0.13187034E+04</pdfrwt>
<pdfrwt beam="2">  1       -2 0.17038105E+00 0.13187034E+04</pdfrwt>
<totfact> 0.57385152E-01</totfact>
</mgrwt>
</event>
<event>
 4    1  0.2061941E-008  0.1154450E+04  0.7818608E-02  0.9153688E-01
          2   -1    0    0  501    0  0.00000000000E+00  0.00000000000E+00  0.29248430431E+04  0.29248430431E+04  0.25500000000E-02 0. -1.
         -2   -1    0    0    0  501 -0.00000000000E+00 -0.00000000000E+00 -0.63296208361E+03  0.63296208362E+03  0.25500000000E-02 0.  1.
    8880022    1    1    2    0    0  0.34966842688E+03  0.10895393382E+04  0.20446033140E+03  0.11724161627E+04  0.15294330000E+03 0.  0.
    8880022    1    1    2    0    0 -0.34966842688E+03 -0.10895393382E+04  0.20874206281E+04  0.23853889641E+04  0.15294330000E+03 0.  0.
<mgrwt>
<rscale>  0 0.11544504E+04</rscale>
<asrwt>0</asrwt>
<pdfrwt beam="1">  1        2 0.44997585E+00 0.11544504E+04</pdfrwt>
<pdfrwt beam="2">  1       -2 0.97378782E-01 0.11544504E+04</pdfrwt>
<totfact> 0.16981078E+00</totfact>
</mgrwt>
</event>
<event>
 4    1  0.2061941E-008  0.4172388E+03  0.7818608E-02  0.1037969E+00
         -2   -1    0    0    0  501 -0.00000000000E+00  0.00000000000E+00  0.14428334086E+03  0.14428334088E+03  0.25500000000E-02 0.  1.
          2   -1    0    0  501    0  0.00000000000E+00 -0.00000000000E+00 -0.32488963906E+04  0.32488963906E+04  0.25500000000E-02 0. -1.
    8880022    1    1    2    0    0 -0.11707754020E+03  0.37012083357E+03 -0.28974583425E+04  0.29273457400E+04  0.15294330000E+03 0.  0.
    8880022    1    1    2    0    0  0.11707754020E+03 -0.37012083357E+03 -0.20715470720E+03  0.46583399145E+03  0.15294330000E+03 0.  1.
<mgrwt>
<rscale>  0 0.41723882E+03</rscale>
<asrwt>0</asrwt>
<pdfrwt beam="1">  1        2 0.49983016E+00 0.41723882E+03</pdfrwt>
<pdfrwt beam="2">  1       -2 0.22197439E-01 0.41723882E+03</pdfrwt>
<totfact> 0.24574887E+01</totfact>
</mgrwt>
</event>
<event>
 4    1  0.2061941E-008  0.7826521E+03  0.7818608E-02  0.9585473E-01
         -2   -1    0    0    0  501 -0.00000000000E+00  0.00000000000E+00  0.10520827506E+04  0.10520827506E+04  0.25500000000E-02 0.  1.
          2   -1    0    0  501    0  0.00000000000E+00 -0.00000000000E+00 -0.13415021523E+04  0.13415021523E+04  0.25500000000E-02 0. -1.
    8880022    1    1    2    0    0 -0.46451961949E+03  0.61104354313E+03  0.75566763351E+03  0.10879236710E+04  0.15294330000E+03 0.  0.
    8880022    1    1    2    0    0  0.46451961949E+03 -0.61104354313E+03 -0.10450870352E+04  0.13056612319E+04  0.15294330000E+03 0.  0.
<mgrwt>
<rscale>  0 0.78265212E+03</rscale>
<asrwt>0</asrwt>
<pdfrwt beam="1">  1        2 0.20638495E+00 0.78265212E+03</pdfrwt>
<pdfrwt beam="2">  1       -2 0.16185888E+00 0.78265212E+03</pdfrwt>
<totfact> 0.38918267E+00</totfact>
</mgrwt>
</event>
<event>
 4    1  0.2061941E-008  0.2125950E+03  0.7818608E-02  0.1139527E+00
          2   -1    0    0  501    0  0.00000000000E+00  0.00000000000E+00  0.79573226931E+03  0.79573226932E+03  0.25500000000E-02 0. -1.
         -2   -1    0    0    0  501 -0.00000000000E+00 -0.00000000000E+00 -0.55800845029E+03  0.55800845030E+03  0.25500000000E-02 0.  1.
    8880022    1    1    2    0    0  0.13566069378E+03 -0.58319535506E+02 -0.52263536735E+03  0.56422014523E+03  0.15294330000E+03 0.  0.
    8880022    1    1    2    0    0 -0.13566069378E+03  0.58319535506E+02  0.76035918637E+03  0.78952057438E+03  0.15294330000E+03 0.  0.
<mgrwt>
<rscale>  0 0.21259503E+03</rscale>
<asrwt>0</asrwt>
<pdfrwt beam="1">  1        2 0.12242035E+00 0.21259503E+03</pdfrwt>
<pdfrwt beam="2">  1       -2 0.85847455E-01 0.21259503E+03</pdfrwt>
<totfact> 0.44751990E+01</totfact>
</mgrwt>
</event>
<event>
 4    1  0.2061941E-008  0.6378639E+03  0.7818608E-02  0.9829822E-01
          2   -1    0    0  501    0  0.00000000000E+00  0.00000000000E+00  0.10134239899E+04  0.10134239899E+04  0.25500000000E-02 0. -1.
         -2   -1    0    0    0  501 -0.00000000000E+00 -0.00000000000E+00 -0.10770277784E+04  0.10770277784E+04  0.25500000000E-02 0.  1.
    8880022    1    1    2    0    0 -0.56176299562E+02 -0.61670332061E+03  0.79599622806E+03  0.10200394161E+04  0.15294330000E+03 0.  0.
    8880022    1    1    2    0    0  0.56176299562E+02  0.61670332061E+03 -0.85960001658E+03  0.10704123522E+04  0.15294330000E+03 0.  0.
<mgrwt>
<rscale>  0 0.63786395E+03</rscale>
<asrwt>0</asrwt>
<pdfrwt beam="1">  1        2 0.15591138E+00 0.63786395E+03</pdfrwt>
<pdfrwt beam="2">  1       -2 0.16569658E+00 0.63786395E+03</pdfrwt>
<totfact> 0.58583863E+00</totfact>
</mgrwt>
</event>
<event>
 4    1  0.2061941E-008  0.8900912E+03  0.7818608E-02  0.9438053E-01
          2   -1    0    0  501    0  0.00000000000E+00  0.00000000000E+00  0.28233478020E+04  0.28233478020E+04  0.25500000000E-02 0. -1.
         -2   -1    0    0    0  501 -0.00000000000E+00 -0.00000000000E+00 -0.57657577126E+03  0.57657577126E+03  0.25500000000E-02 0.  1.
    8880022    1    1    2    0    0 -0.57251204165E+03  0.66415409569E+03 -0.94568303430E+02  0.89510084219E+03  0.15294330000E+03 0.  0.
    8880022    1    1    2    0    0  0.57251204165E+03 -0.66415409569E+03  0.23413403341E+04  0.25048227310E+04  0.15294330000E+03 0. -1.
<mgrwt>
<rscale>  0 0.89009121E+03</rscale>
<asrwt>0</asrwt>
<pdfrwt beam="1">  1        2 0.43436121E+00 0.89009121E+03</pdfrwt>
<pdfrwt beam="2">  1       -2 0.88703963E-01 0.89009121E+03</pdfrwt>
<totfact> 0.25290314E+00</totfact>
</mgrwt>
</event>
<event>
 4    1  0.2061941E-008  0.1063858E+04  0.7818608E-02  0.9241153E-01
         -2   -1    0    0    0  501 -0.00000000000E+00  0.00000000000E+00  0.74041240423E+03  0.74041240423E+03  0.25500000000E-02 0.  1.
          2   -1    0    0  501    0  0.00000000000E+00 -0.00000000000E+00 -0.18396873291E+04  0.18396873291E+04  0.25500000000E-02 0. -1.
    8880022    1    1    2    0    0 -0.17841534791E+03  0.10375785613E+04 -0.10801272273E+04  0.15160698491E+04  0.15294330000E+03 0.  0.
    8880022    1    1    2    0    0  0.17841534791E+03 -0.10375785613E+04 -0.19147697545E+02  0.10640298842E+04  0.15294330000E+03 0.  0.
<mgrwt>
<rscale>  0 0.10638576E+04</rscale>
<asrwt>0</asrwt>
<pdfrwt beam="1">  1        2 0.28302882E+00 0.10638576E+04</pdfrwt>
<pdfrwt beam="2">  1       -2 0.11390960E+00 0.10638576E+04</pdfrwt>
<totfact> 0.49015916E+00</totfact>
</mgrwt>
</event>
<event>
 4    1  0.2061941E-008  0.1170704E+04  0.7818608E-02  0.9138893E-01
         -2   -1    0    0    0  501 -0.00000000000E+00  0.00000000000E+00  0.69636523092E+03  0.69636523092E+03  0.25500000000E-02 0.  1.
          2   -1    0    0  501    0  0.00000000000E+00 -0.00000000000E+00 -0.26443218280E+04  0.26443218280E+04  0.25500000000E-02 0. -1.
    8880022    1    1    2    0    0  0.99736887193E+03 -0.59364272662E+03 -0.12932464207E+03  0.11778254835E+04  0.15294330000E+03 0.  0.
    8880022    1    1    2    0    0 -0.99736887193E+03  0.59364272662E+03 -0.18186319550E+04  0.21628615754E+04  0.15294330000E+03 0.  0.
<mgrwt>
<rscale>  0 0.11707041E+04</rscale>
<asrwt>0</asrwt>
<pdfrwt beam="1">  1        2 0.40681874E+00 0.11707041E+04</pdfrwt>
<pdfrwt beam="2">  1       -2 0.10713311E+00 0.11707041E+04</pdfrwt>
<totfact> 0.19823476E+00</totfact>
</mgrwt>
</event>
<event>
 4    1  0.2061941E-008  0.6679504E+03  0.7818608E-02  0.9773668E-01
         -2   -1    0    0    0  501 -0.00000000000E+00  0.00000000000E+00  0.44819403481E+03  0.44819403482E+03  0.25500000000E-02 0.  1.
          2   -1    0    0  501    0  0.00000000000E+00 -0.00000000000E+00 -0.12580140407E+04  0.12580140407E+04  0.25500000000E-02 0. -1.
    8880022    1    1    2    0    0  0.55765866694E+03  0.33433939979E+03 -0.15173143515E+02  0.66812266865E+03  0.15294330000E+03 0.  0.
    8880022    1    1    2    0    0 -0.55765866694E+03 -0.33433939979E+03 -0.79464686239E+03  0.10380854069E+04  0.15294330000E+03 0.  0.
<mgrwt>
<rscale>  0 0.66795035E+03</rscale>
<asrwt>0</asrwt>
<pdfrwt beam="1">  1        2 0.19354062E+00 0.66795035E+03</pdfrwt>
<pdfrwt beam="2">  1       -2 0.68952929E-01 0.66795035E+03</pdfrwt>
<totfact> 0.34570128E+01</totfact>
</mgrwt>
</event>
<event>
 4    1  0.2061941E-008  0.5283432E+03  0.7818608E-02  0.1006635E+00
          2   -1    0    0  501    0  0.00000000000E+00  0.00000000000E+00  0.44502813179E+03  0.44502813180E+03  0.25500000000E-02 0. -1.
         -2   -1    0    0    0  501 -0.00000000000E+00 -0.00000000000E+00 -0.10544901014E+04  0.10544901014E+04  0.25500000000E-02 0.  1.
    8880022    1    1    2    0    0 -0.20333899952E+03 -0.46304231115E+03 -0.78196724791E+03  0.94372631650E+03  0.15294330000E+03 0.  0.
    8880022    1    1    2    0    0  0.20333899952E+03  0.46304231115E+03  0.17250527829E+03  0.55579191672E+03  0.15294330000E+03 0.  0.
<mgrwt>
<rscale>  0 0.52834324E+03</rscale>
<asrwt>0</asrwt>
<pdfrwt beam="1">  1        2 0.68465866E-01 0.52834324E+03</pdfrwt>
<pdfrwt beam="2">  1       -2 0.16222925E+00 0.52834324E+03</pdfrwt>
<totfact> 0.17736398E+01</totfact>
</mgrwt>
</event>
<event>
 4    1  0.2061941E-008  0.6623066E+03  0.7818608E-02  0.9783957E-01
         -2   -1    0    0    0  501 -0.00000000000E+00  0.00000000000E+00  0.40568965405E+03  0.40568965406E+03  0.25500000000E-02 0.  1.
          2   -1    0    0  501    0  0.00000000000E+00 -0.00000000000E+00 -0.20293648170E+04  0.20293648170E+04  0.25500000000E-02 0. -1.
    8880022    1    1    2    0    0  0.60787120474E+03  0.21389491744E+03  0.20367056473E+02  0.66261973051E+03  0.15294330000E+03 0.  0.
    8880022    1    1    2    0    0 -0.60787120474E+03 -0.21389491744E+03 -0.16440422194E+04  0.17724347405E+04  0.15294330000E+03 0.  0.
<mgrwt>
<rscale>  0 0.66230664E+03</rscale>
<asrwt>0</asrwt>
<pdfrwt beam="1">  1        2 0.31220996E+00 0.66230664E+03</pdfrwt>
<pdfrwt beam="2">  1       -2 0.62413794E-01 0.66230664E+03</pdfrwt>
<totfact> 0.16080150E+01</totfact>
</mgrwt>
</event>
<event>
 4    1  0.2061941E-008  0.8359200E+03  0.7818608E-02  0.9509432E-01
         -2   -1    0    0    0  501 -0.00000000000E+00  0.00000000000E+00  0.87876475074E+03  0.87876475075E+03  0.25500000000E-02 0.  1.
          2   -1    0    0  501    0  0.00000000000E+00 -0.00000000000E+00 -0.17160859610E+04  0.17160859610E+04  0.25500000000E-02 0. -1.
    8880022    1    1    2    0    0 -0.66743361304E+03  0.47948197430E+03 -0.13690995783E+04  0.16041184183E+04  0.15294330000E+03 0.  0.
    8880022    1    1    2    0    0  0.66743361304E+03 -0.47948197430E+03  0.53177836808E+03  0.99073229345E+03  0.15294330000E+03 0.  0.
<mgrwt>
<rscale>  0 0.83592000E+03</rscale>
<asrwt>0</asrwt>
<pdfrwt beam="1">  1        2 0.26401322E+00 0.83592000E+03</pdfrwt>
<pdfrwt beam="2">  1       -2 0.13519458E+00 0.83592000E+03</pdfrwt>
<totfact> 0.38392410E+00</totfact>
</mgrwt>
</event>
<event>
 4    1  0.2061941E-008  0.1023659E+04  0.7818608E-02  0.9282970E-01
          2   -1    0    0  501    0  0.00000000000E+00  0.00000000000E+00  0.18499050178E+04  0.18499050178E+04  0.25500000000E-02 0. -1.
         -2   -1    0    0    0  501 -0.00000000000E+00 -0.00000000000E+00 -0.10899243915E+04  0.10899243915E+04  0.25500000000E-02 0.  1.
    8880022    1    1    2    0    0  0.10112776388E+04 -0.42469209885E+02  0.13986799345E+04  0.17332580041E+04  0.15294330000E+03 0.  0.
    8880022    1    1    2    0    0 -0.10112776388E+04  0.42469209885E+02 -0.63869930818E+03  0.12065714052E+04  0.15294330000E+03 0.  0.
<mgrwt>
<rscale>  0 0.10236590E+04</rscale>
<asrwt>0</asrwt>
<pdfrwt beam="1">  1        2 0.28460077E+00 0.10236590E+04</pdfrwt>
<pdfrwt beam="2">  1       -2 0.16768068E+00 0.10236590E+04</pdfrwt>
<totfact> 0.17792687E+00</totfact>
</mgrwt>
</event>
<event>
 4    1  0.2061941E-008  0.9807064E+03  0.7818608E-02  0.9329962E-01
          2   -1    0    0  501    0  0.00000000000E+00  0.00000000000E+00  0.24891032916E+04  0.24891032916E+04  0.25500000000E-02 0. -1.
         -2   -1    0    0    0  501 -0.00000000000E+00 -0.00000000000E+00 -0.11760287373E+04  0.11760287373E+04  0.25500000000E-02 0.  1.
    8880022    1    1    2    0    0 -0.54949050484E+03  0.79778045261E+03  0.21581661810E+04  0.23705413692E+04  0.15294330000E+03 0.  0.
    8880022    1    1    2    0    0  0.54949050484E+03 -0.79778045261E+03 -0.84509162668E+03  0.12945906596E+04  0.15294330000E+03 0.  0.
<mgrwt>
<rscale>  0 0.98070644E+03</rscale>
<asrwt>0</asrwt>
<pdfrwt beam="1">  1        2 0.38293897E+00 0.98070644E+03</pdfrwt>
<pdfrwt beam="2">  1       -2 0.18092750E+00 0.98070644E+03</pdfrwt>
<totfact> 0.63674627E-01</totfact>
</mgrwt>
</event>
<event>
 4    1  0.2061941E-008  0.6730818E+03  0.7818608E-02  0.9764406E-01
         -2   -1    0    0    0  501 -0.00000000000E+00  0.00000000000E+00  0.52072416280E+03  0.52072416281E+03  0.25500000000E-02 0.  1.
          2   -1    0    0  501    0  0.00000000000E+00 -0.00000000000E+00 -0.14973141471E+04  0.14973141471E+04  0.25500000000E-02 0. -1.
    8880022    1    1    2    0    0 -0.65214297591E+03  0.66007831706E+02  0.16480461265E+03  0.69296443504E+03  0.15294330000E+03 0.  0.
    8880022    1    1    2    0    0  0.65214297591E+03 -0.66007831706E+02 -0.11413945969E+04  0.13250738748E+04  0.15294330000E+03 0.  0.
<mgrwt>
<rscale>  0 0.67308183E+03</rscale>
<asrwt>0</asrwt>
<pdfrwt beam="1">  1        2 0.23035602E+00 0.67308183E+03</pdfrwt>
<pdfrwt beam="2">  1       -2 0.80111410E-01 0.67308183E+03</pdfrwt>
<totfact> 0.18157770E+01</totfact>
</mgrwt>
</event>
<event>
 4    1  0.2061941E-008  0.5913386E+03  0.7818608E-02  0.9923540E-01
          2   -1    0    0  501    0  0.00000000000E+00  0.00000000000E+00  0.15433876184E+04  0.15433876184E+04  0.25500000000E-02 0. -1.
         -2   -1    0    0    0  501 -0.00000000000E+00 -0.00000000000E+00 -0.32939408481E+03  0.32939408482E+03  0.25500000000E-02 0.  1.
    8880022    1    1    2    0    0 -0.11156224320E+03 -0.56021742661E+03  0.11301779756E+04  0.12755326764E+04  0.15294330000E+03 0.  0.
    8880022    1    1    2    0    0  0.11156224320E+03  0.56021742661E+03  0.83815557995E+02  0.59724902675E+03  0.15294330000E+03 0.  0.
<mgrwt>
<rscale>  0 0.59133861E+03</rscale>
<asrwt>0</asrwt>
<pdfrwt beam="1">  1        2 0.23744425E+00 0.59133861E+03</pdfrwt>
<pdfrwt beam="2">  1       -2 0.50676012E-01 0.59133861E+03</pdfrwt>
<totfact> 0.46058796E+01</totfact>
</mgrwt>
</event>
<event>
 4    1  0.2061941E-008  0.3177892E+03  0.7818608E-02  0.1076671E+00
          2   -1    0    0  501    0  0.00000000000E+00  0.00000000000E+00  0.10403933400E+04  0.10403933400E+04  0.25500000000E-02 0. -1.
         -2   -1    0    0    0  501 -0.00000000000E+00 -0.00000000000E+00 -0.18044040262E+03  0.18044040263E+03  0.25500000000E-02 0.  1.
    8880022    1    1    2    0    0  0.26353927979E+03  0.90251768481E+02  0.84490000888E+03  0.90268821402E+03  0.15294330000E+03 0.  0.
    8880022    1    1    2    0    0 -0.26353927979E+03 -0.90251768481E+02  0.15052928497E+02  0.31814552861E+03  0.15294330000E+03 0.  0.
<mgrwt>
<rscale>  0 0.31778922E+03</rscale>
<asrwt>0</asrwt>
<pdfrwt beam="1">  1        2 0.16006052E+00 0.31778922E+03</pdfrwt>
<pdfrwt beam="2">  1       -2 0.27760061E-01 0.31778922E+03</pdfrwt>
<totfact> 0.29281098E+02</totfact>
</mgrwt>
</event>
<event>
 4    1  0.2061941E-008  0.1169771E+04  0.7818608E-02  0.9139736E-01
         -2   -1    0    0    0  501 -0.00000000000E+00  0.00000000000E+00  0.15720438237E+04  0.15720438237E+04  0.25500000000E-02 0.  1.
          2   -1    0    0  501    0  0.00000000000E+00 -0.00000000000E+00 -0.18495074942E+04  0.18495074942E+04  0.25500000000E-02 0. -1.
    8880022    1    1    2    0    0  0.11395938927E+04 -0.21516822754E+03  0.11059898538E+04  0.16098375123E+04  0.15294330000E+03 0.  0.
    8880022    1    1    2    0    0 -0.11395938927E+04  0.21516822754E+03 -0.13834535243E+04  0.18117138056E+04  0.15294330000E+03 0.  0.
<mgrwt>
<rscale>  0 0.11697706E+04</rscale>
<asrwt>0</asrwt>
<pdfrwt beam="1">  1        2 0.28453962E+00 0.11697706E+04</pdfrwt>
<pdfrwt beam="2">  1       -2 0.24185289E+00 0.11697706E+04</pdfrwt>
<totfact> 0.57017774E-01</totfact>
</mgrwt>
</event>
<event>
 4    1  0.2061941E-008  0.4661941E+03  0.7818608E-02  0.1023000E+00
         -2   -1    0    0    0  501 -0.00000000000E+00  0.00000000000E+00  0.26636905585E+03  0.26636905586E+03  0.25500000000E-02 0.  1.
          2   -1    0    0  501    0  0.00000000000E+00 -0.00000000000E+00 -0.15594046507E+04  0.15594046507E+04  0.25500000000E-02 0. -1.
    8880022    1    1    2    0    0  0.43892233820E+03 -0.35951341103E+02 -0.16181518413E+02  0.46647487869E+03  0.15294330000E+03 0.  0.
    8880022    1    1    2    0    0 -0.43892233820E+03  0.35951341103E+02 -0.12768540765E+04  0.13592988279E+04  0.15294330000E+03 0.  0.
<mgrwt>
<rscale>  0 0.46619413E+03</rscale>
<asrwt>0</asrwt>
<pdfrwt beam="1">  1        2 0.23990840E+00 0.46619413E+03</pdfrwt>
<pdfrwt beam="2">  1       -2 0.40979856E-01 0.46619413E+03</pdfrwt>
<totfact> 0.70152625E+01</totfact>
</mgrwt>
</event>
<event>
 4    1  0.2061941E-008  0.7482474E+03  0.7818608E-02  0.9638104E-01
         -2   -1    0    0    0  501 -0.00000000000E+00  0.00000000000E+00  0.30664197569E+04  0.30664197569E+04  0.25500000000E-02 0.  1.
          2   -1    0    0  501    0  0.00000000000E+00 -0.00000000000E+00 -0.65476606628E+03  0.65476606629E+03  0.25500000000E-02 0. -1.
    8880022    1    1    2    0    0 -0.23065385570E+02 -0.73208640469E+03 -0.37419749251E+03  0.83659902722E+03  0.15294330000E+03 0.  0.
    8880022    1    1    2    0    0  0.23065385570E+02  0.73208640469E+03  0.27858511831E+04  0.28845867960E+04  0.15294330000E+03 0.  0.
<mgrwt>
<rscale>  0 0.74824740E+03</rscale>
<asrwt>0</asrwt>
<pdfrwt beam="1">  1        2 0.10073324E+00 0.74824740E+03</pdfrwt>
<pdfrwt beam="2">  1       -2 0.47175688E+00 0.74824740E+03</pdfrwt>
<totfact> 0.11864824E-01</totfact>
</mgrwt>
</event>
<event>
 4    1  0.2061941E-008  0.1033277E+04  0.7818608E-02  0.9272782E-01
         -2   -1    0    0    0  501 -0.00000000000E+00  0.00000000000E+00  0.69650545177E+03  0.69650545177E+03  0.25500000000E-02 0.  1.
          2   -1    0    0  501    0  0.00000000000E+00 -0.00000000000E+00 -0.20087093788E+04  0.20087093788E+04  0.25500000000E-02 0. -1.
    8880022    1    1    2    0    0 -0.65415353868E+03 -0.78508154539E+03  0.22185001939E+01  0.10332794684E+04  0.15294330000E+03 0.  0.
    8880022    1    1    2    0    0  0.65415353868E+03  0.78508154539E+03 -0.13144224273E+04  0.16719353622E+04  0.15294330000E+03 0.  0.
<mgrwt>
<rscale>  0 0.10332771E+04</rscale>
<asrwt>0</asrwt>
<pdfrwt beam="1">  1        2 0.30903221E+00 0.10332771E+04</pdfrwt>
<pdfrwt beam="2">  1       -2 0.10715469E+00 0.10332771E+04</pdfrwt>
<totfact> 0.46065917E+00</totfact>
</mgrwt>
</event>
<event>
 4    1  0.2061941E-008  0.4414518E+03  0.7818608E-02  0.1030302E+00
          2   -1    0    0  501    0  0.00000000000E+00  0.00000000000E+00  0.49467493777E+03  0.49467493778E+03  0.25500000000E-02 0. -1.
         -2   -1    0    0    0  501 -0.00000000000E+00 -0.00000000000E+00 -0.67640256132E+03  0.67640256132E+03  0.25500000000E-02 0.  1.
    8880022    1    1    2    0    0  0.19897884735E+03 -0.36317410881E+03 -0.46923837214E+03  0.64425485478E+03  0.15294330000E+03 0.  0.
    8880022    1    1    2    0    0 -0.19897884735E+03  0.36317410881E+03  0.28751074859E+03  0.52682264432E+03  0.15294330000E+03 0.  0.
<mgrwt>
<rscale>  0 0.44145177E+03</rscale>
<asrwt>0</asrwt>
<pdfrwt beam="1">  1        2 0.76103836E-01 0.44145177E+03</pdfrwt>
<pdfrwt beam="2">  1       -2 0.10406193E+00 0.44145177E+03</pdfrwt>
<totfact> 0.48658993E+01</totfact>
</mgrwt>
</event>
<event>
 4    1  0.2061941E-008  0.5423823E+03  0.7818608E-02  0.1003273E+00
          2   -1    0    0  501    0  0.00000000000E+00  0.00000000000E+00  0.82569734626E+03  0.82569734627E+03  0.25500000000E-02 0. -1.
         -2   -1    0    0    0  501 -0.00000000000E+00 -0.00000000000E+00 -0.54879028850E+03  0.54879028850E+03  0.25500000000E-02 0.  1.
    8880022    1    1    2    0    0  0.40737083718E+03 -0.32378375661E+03 -0.26858526613E+03  0.60524095881E+03  0.15294330000E+03 0.  0.
    8880022    1    1    2    0    0 -0.40737083718E+03  0.32378375661E+03  0.54549232389E+03  0.76924667596E+03  0.15294330000E+03 0.  0.
<mgrwt>
<rscale>  0 0.54238231E+03</rscale>
<asrwt>0</asrwt>
<pdfrwt beam="1">  1        2 0.12703036E+00 0.54238231E+03</pdfrwt>
<pdfrwt beam="2">  1       -2 0.84429276E-01 0.54238231E+03</pdfrwt>
<totfact> 0.41808205E+01</totfact>
</mgrwt>
</event>
<event>
 4    1  0.2061941E-008  0.5796186E+03  0.7818608E-02  0.9948617E-01
         -2   -1    0    0    0  501 -0.00000000000E+00  0.00000000000E+00  0.36212709570E+03  0.36212709570E+03  0.25500000000E-02 0.  1.
          2   -1    0    0  501    0  0.00000000000E+00 -0.00000000000E+00 -0.16456710369E+04  0.16456710369E+04  0.25500000000E-02 0. -1.
    8880022    1    1    2    0    0 -0.22601322480E+03  0.51135518798E+03  0.21301419532E+02  0.58000992194E+03  0.15294330000E+03 0.  0.
    8880022    1    1    2    0    0  0.22601322480E+03 -0.51135518798E+03 -0.13048453607E+04  0.14277882106E+04  0.15294330000E+03 0.  0.
<mgrwt>
<rscale>  0 0.57961863E+03</rscale>
<asrwt>0</asrwt>
<pdfrwt beam="1">  1        2 0.25318015E+00 0.57961863E+03</pdfrwt>
<pdfrwt beam="2">  1       -2 0.55711862E-01 0.57961863E+03</pdfrwt>
<totfact> 0.33393146E+01</totfact>
</mgrwt>
</event>
<event>
 4    1  0.2061941E-008  0.1892542E+03  0.7818608E-02  0.1159136E+00
          2   -1    0    0  501    0  0.00000000000E+00  0.00000000000E+00  0.22699156549E+04  0.22699156549E+04  0.25500000000E-02 0. -1.
         -2   -1    0    0    0  501 -0.00000000000E+00 -0.00000000000E+00 -0.35095246202E+02  0.35095246295E+02  0.25500000000E-02 0.  1.
    8880022    1    1    2    0    0  0.23963445314E+02  0.10886354246E+03  0.19724362776E+04  0.19814949003E+04  0.15294330000E+03 0. -1.
    8880022    1    1    2    0    0 -0.23963445314E+02 -0.10886354246E+03  0.26238413109E+03  0.32351600092E+03  0.15294330000E+03 0.  0.
<mgrwt>
<rscale>  0 0.18925425E+03</rscale>
<asrwt>0</asrwt>
<pdfrwt beam="1">  1        2 0.34921784E+00 0.18925425E+03</pdfrwt>
<pdfrwt beam="2">  1       -2 0.53992679E-02 0.18925425E+03</pdfrwt>
<totfact> 0.94297553E+02</totfact>
</mgrwt>
</event>
<event>
 4    1  0.2061941E-008  0.3914776E+03  0.7818608E-02  0.1046771E+00
          2   -1    0    0  501    0  0.00000000000E+00  0.00000000000E+00  0.31754493934E+03  0.31754493935E+03  0.25500000000E-02 0. -1.
         -2   -1    0    0    0  501 -0.00000000000E+00 -0.00000000000E+00 -0.54627744904E+03  0.54627744904E+03  0.25500000000E-02 0.  1.
    8880022    1    1    2    0    0  0.30050688140E+03  0.19889357740E+03 -0.26180106282E+03  0.47095062418E+03  0.15294330000E+03 0.  0.
    8880022    1    1    2    0    0 -0.30050688140E+03 -0.19889357740E+03  0.33068553127E+02  0.39287176422E+03  0.15294330000E+03 0.  0.
<mgrwt>
<rscale>  0 0.39147758E+03</rscale>
<asrwt>0</asrwt>
<pdfrwt beam="1">  1        2 0.48853068E-01 0.39147758E+03</pdfrwt>
<pdfrwt beam="2">  1       -2 0.84042684E-01 0.39147758E+03</pdfrwt>
<totfact> 0.13103120E+02</totfact>
</mgrwt>
</event>
<event>
 4    1  0.2061941E-008  0.6091590E+03  0.7818608E-02  0.9886584E-01
          2   -1    0    0  501    0  0.00000000000E+00  0.00000000000E+00  0.12950541901E+04  0.12950541901E+04  0.25500000000E-02 0. -1.
         -2   -1    0    0    0  501 -0.00000000000E+00 -0.00000000000E+00 -0.48917693179E+03  0.48917693180E+03  0.25500000000E-02 0.  1.
    8880022    1    1    2    0    0 -0.47465646779E+03  0.34983455714E+03 -0.17125169068E+03  0.63277308283E+03  0.15294330000E+03 0.  0.
    8880022    1    1    2    0    0  0.47465646779E+03 -0.34983455714E+03  0.97712894903E+03  0.11514580391E+04  0.15294330000E+03 0.  0.
<mgrwt>
<rscale>  0 0.60915896E+03</rscale>
<asrwt>0</asrwt>
<pdfrwt beam="1">  1        2 0.19923910E+00 0.60915896E+03</pdfrwt>
<pdfrwt beam="2">  1       -2 0.75257991E-01 0.60915896E+03</pdfrwt>
<totfact> 0.27368860E+01</totfact>
</mgrwt>
</event>
<event>
 4    1  0.2061941E-008  0.5486065E+03  0.7818608E-02  0.1001817E+00
          2   -1    0    0  501    0  0.00000000000E+00  0.00000000000E+00  0.90697288330E+03  0.90697288331E+03  0.25500000000E-02 0. -1.
         -2   -1    0    0    0  501 -0.00000000000E+00 -0.00000000000E+00 -0.11313682695E+04  0.11313682695E+04  0.25500000000E-02 0.  1.
    8880022    1    1    2    0    0  0.39608726467E+03 -0.34740799954E+03 -0.96896330768E+03  0.11134895527E+04  0.15294330000E+03 0.  1.
    8880022    1    1    2    0    0 -0.39608726467E+03  0.34740799954E+03  0.74456792151E+03  0.92485160006E+03  0.15294330000E+03 0.  0.
<mgrwt>
<rscale>  0 0.54860650E+03</rscale>
<asrwt>0</asrwt>
<pdfrwt beam="1">  1        2 0.13953429E+00 0.54860650E+03</pdfrwt>
<pdfrwt beam="2">  1       -2 0.17405666E+00 0.54860650E+03</pdfrwt>
<totfact> 0.60833643E+00</totfact>
</mgrwt>
</event>
<event>
 4    1  0.2061941E-008  0.1260046E+04  0.7818608E-02  0.9061863E-01
         -2   -1    0    0    0  501 -0.00000000000E+00  0.00000000000E+00  0.65609504615E+03  0.65609504616E+03  0.25500000000E-02 0.  1.
          2   -1    0    0  501    0  0.00000000000E+00 -0.00000000000E+00 -0.29979555115E+04  0.29979555115E+04  0.25500000000E-02 0. -1.
    8880022    1    1    2    0    0 -0.12412610542E+04 -0.15360935354E+03 -0.36870122022E+03  0.13128812136E+04  0.15294330000E+03 0.  0.
    8880022    1    1    2    0    0  0.12412610542E+04  0.15360935354E+03 -0.19731592451E+04  0.23411693441E+04  0.15294330000E+03 0.  0.
<mgrwt>
<rscale>  0 0.12600462E+04</rscale>
<asrwt>0</asrwt>
<pdfrwt beam="1">  1        2 0.46122392E+00 0.12600462E+04</pdfrwt>
<pdfrwt beam="2">  1       -2 0.10093770E+00 0.12600462E+04</pdfrwt>
<totfact> 0.13864168E+00</totfact>
</mgrwt>
</event>
<event>
 4    1  0.2061941E-008  0.7855349E+03  0.7818608E-02  0.9581194E-01
          2   -1    0    0  501    0  0.00000000000E+00  0.00000000000E+00  0.27179929688E+03  0.27179929689E+03  0.25500000000E-02 0. -1.
         -2   -1    0    0    0  501 -0.00000000000E+00 -0.00000000000E+00 -0.25598568267E+04  0.25598568267E+04  0.25500000000E-02 0.  1.
    8880022    1    1    2    0    0 -0.16979445543E+03 -0.75156050546E+03 -0.66784764027E+03  0.10310603639E+04  0.15294330000E+03 0.  0.
    8880022    1    1    2    0    0  0.16979445543E+03  0.75156050546E+03 -0.16202098896E+04  0.18005957597E+04  0.15294330000E+03 0.  0.
<mgrwt>
<rscale>  0 0.78553485E+03</rscale>
<asrwt>0</asrwt>
<pdfrwt beam="1">  1        2 0.41815278E-01 0.78553485E+03</pdfrwt>
<pdfrwt beam="2">  1       -2 0.39382411E+00 0.78553485E+03</pdfrwt>
<totfact> 0.10525394E+00</totfact>
</mgrwt>
</event>
<event>
 4    1  0.2061941E-008  0.8262845E+03  0.7818608E-02  0.9522732E-01
          2   -1    0    0  501    0  0.00000000000E+00  0.00000000000E+00  0.11404600565E+04  0.11404600565E+04  0.25500000000E-02 0. -1.
         -2   -1    0    0    0  501 -0.00000000000E+00 -0.00000000000E+00 -0.91676443414E+03  0.91676443414E+03  0.25500000000E-02 0.  1.
    8880022    1    1    2    0    0  0.62240939379E+03  0.52149876851E+03 -0.49406302294E+03  0.96272755372E+03  0.15294330000E+03 0.  0.
    8880022    1    1    2    0    0 -0.62240939379E+03 -0.52149876851E+03  0.71775864534E+03  0.10944969370E+04  0.15294330000E+03 0.  0.
<mgrwt>
<rscale>  0 0.82628450E+03</rscale>
<asrwt>0</asrwt>
<pdfrwt beam="1">  1        2 0.17545539E+00 0.82628450E+03</pdfrwt>
<pdfrwt beam="2">  1       -2 0.14104068E+00 0.82628450E+03</pdfrwt>
<totfact> 0.73225428E+00</totfact>
</mgrwt>
</event>
<event>
 4    1  0.2061941E-008  0.9788929E+03  0.7818608E-02  0.9332003E-01
          2   -1    0    0  501    0  0.00000000000E+00  0.00000000000E+00  0.21810976089E+04  0.21810976089E+04  0.25500000000E-02 0. -1.
         -2   -1    0    0    0  501 -0.00000000000E+00 -0.00000000000E+00 -0.68513857646E+03  0.68513857646E+03  0.25500000000E-02 0.  1.
    8880022    1    1    2    0    0  0.83514406743E+03 -0.48721040139E+03  0.16063749213E+04  0.18811357286E+04  0.15294330000E+03 0.  0.
    8880022    1    1    2    0    0 -0.83514406743E+03  0.48721040139E+03 -0.11041588877E+03  0.98510045685E+03  0.15294330000E+03 0.  0.
<mgrwt>
<rscale>  0 0.97889287E+03</rscale>
<asrwt>0</asrwt>
<pdfrwt beam="1">  1        2 0.33555348E+00 0.97889287E+03</pdfrwt>
<pdfrwt beam="2">  1       -2 0.10540593E+00 0.97889287E+03</pdfrwt>
<totfact> 0.38750861E+00</totfact>
</mgrwt>
</event>
<event>
 4    1  0.2061941E-008  0.7579364E+03  0.7818608E-02  0.9622981E-01
          2   -1    0    0  501    0  0.00000000000E+00  0.00000000000E+00  0.13567264933E+04  0.13567264933E+04  0.25500000000E-02 0. -1.
         -2   -1    0    0    0  501 -0.00000000000E+00 -0.00000000000E+00 -0.49882211225E+03  0.49882211226E+03  0.25500000000E-02 0.  1.
    8880022    1    1    2    0    0  0.42371254302E+03  0.60954373474E+03  0.78966049580E+03  0.10945461321E+04  0.15294330000E+03 0.  0.
    8880022    1    1    2    0    0 -0.42371254302E+03 -0.60954373474E+03  0.68243885228E+02  0.76100247343E+03  0.15294330000E+03 0.  0.
<mgrwt>
<rscale>  0 0.75793637E+03</rscale>
<asrwt>0</asrwt>
<pdfrwt beam="1">  1        2 0.20872715E+00 0.75793637E+03</pdfrwt>
<pdfrwt beam="2">  1       -2 0.76741864E-01 0.75793637E+03</pdfrwt>
<totfact> 0.23725388E+01</totfact>
</mgrwt>
</event>
<event>
 4    1  0.2061941E-008  0.5998583E+03  0.7818608E-02  0.9905700E-01
          2   -1    0    0  501    0  0.00000000000E+00  0.00000000000E+00  0.71710838320E+03  0.71710838320E+03  0.25500000000E-02 0. -1.
         -2   -1    0    0    0  501 -0.00000000000E+00 -0.00000000000E+00 -0.14475453291E+04  0.14475453291E+04  0.25500000000E-02 0.  1.
    8880022    1    1    2    0    0 -0.10138362295E+03  0.57110393031E+03 -0.12400697950E+04  0.13775351494E+04  0.15294330000E+03 0.  0.
    8880022    1    1    2    0    0  0.10138362295E+03 -0.57110393031E+03  0.50963284911E+03  0.78711856294E+03  0.15294330000E+03 0.  0.
<mgrwt>
<rscale>  0 0.59985831E+03</rscale>
<asrwt>0</asrwt>
<pdfrwt beam="1">  1        2 0.11032437E+00 0.59985831E+03</pdfrwt>
<pdfrwt beam="2">  1       -2 0.22269928E+00 0.59985831E+03</pdfrwt>
<totfact> 0.39616069E+00</totfact>
</mgrwt>
</event>
<event>
 4    1  0.2061941E-008  0.7954251E+03  0.7818608E-02  0.9566663E-01
         -2   -1    0    0    0  501 -0.00000000000E+00  0.00000000000E+00  0.36460292363E+03  0.36460292364E+03  0.25500000000E-02 0.  1.
          2   -1    0    0  501    0  0.00000000000E+00 -0.00000000000E+00 -0.36079749037E+04  0.36079749037E+04  0.25500000000E-02 0. -1.
    8880022    1    1    2    0    0 -0.48216998665E+03 -0.61385788224E+03 -0.30526874615E+04  0.31546159491E+04  0.15294330000E+03 0.  0.
    8880022    1    1    2    0    0  0.48216998665E+03  0.61385788224E+03 -0.19068451857E+03  0.81796187824E+03  0.15294330000E+03 0.  0.
<mgrwt>
<rscale>  0 0.79542507E+03</rscale>
<asrwt>0</asrwt>
<pdfrwt beam="1">  1        2 0.55507304E+00 0.79542507E+03</pdfrwt>
<pdfrwt beam="2">  1       -2 0.56092760E-01 0.79542507E+03</pdfrwt>
<totfact> 0.21977542E+00</totfact>
</mgrwt>
</event>
<event>
 4    1  0.2061941E-008  0.1649399E+04  0.7818608E-02  0.8790762E-01
         -2   -1    0    0    0  501 -0.00000000000E+00  0.00000000000E+00  0.10414077854E+04  0.10414077854E+04  0.25500000000E-02 0.  1.
          2   -1    0    0  501    0  0.00000000000E+00 -0.00000000000E+00 -0.33541573695E+04  0.33541573695E+04  0.25500000000E-02 0. -1.
    8880022    1    1    2    0    0  0.12436562577E+04  0.10725876567E+04 -0.12280470533E+03  0.16539642733E+04  0.15294330000E+03 0.  0.
    8880022    1    1    2    0    0 -0.12436562577E+04 -0.10725876567E+04 -0.21899448788E+04  0.27416008816E+04  0.15294330000E+03 0.  0.
<mgrwt>
<rscale>  0 0.16493989E+04</rscale>
<asrwt>0</asrwt>
<pdfrwt beam="1">  1        2 0.51602421E+00 0.16493989E+04</pdfrwt>
<pdfrwt beam="2">  1       -2 0.16021658E+00 0.16493989E+04</pdfrwt>
<totfact> 0.23992789E-01</totfact>
</mgrwt>
</event>
<event>
 4    1  0.2061941E-008  0.1517213E+04  0.7818608E-02  0.8873086E-01
          2   -1    0    0  501    0  0.00000000000E+00  0.00000000000E+00  0.35352088035E+04  0.35352088035E+04  0.25500000000E-02 0. -1.
         -2   -1    0    0    0  501 -0.00000000000E+00 -0.00000000000E+00 -0.12743800896E+04  0.12743800896E+04  0.25500000000E-02 0.  1.
    8880022    1    1    2    0    0  0.10554110927E+03 -0.15057905930E+04 -0.55130757582E+03  0.16142725705E+04  0.15294330000E+03 0.  0.
    8880022    1    1    2    0    0 -0.10554110927E+03  0.15057905930E+04  0.28121362898E+04  0.31953163225E+04  0.15294330000E+03 0.  0.
<mgrwt>
<rscale>  0 0.15172132E+04</rscale>
<asrwt>0</asrwt>
<pdfrwt beam="1">  1        2 0.54387826E+00 0.15172132E+04</pdfrwt>
<pdfrwt beam="2">  1       -2 0.19605848E+00 0.15172132E+04</pdfrwt>
<totfact> 0.10261920E-01</totfact>
</mgrwt>
</event>
<event>
 4    1  0.2061941E-008  0.1439735E+04  0.7818608E-02  0.8925548E-01
          2   -1    0    0  501    0  0.00000000000E+00  0.00000000000E+00  0.22374512631E+04  0.22374512631E+04  0.25500000000E-02 0. -1.
         -2   -1    0    0    0  501 -0.00000000000E+00 -0.00000000000E+00 -0.14286202368E+04  0.14286202368E+04  0.25500000000E-02 0.  1.
    8880022    1    1    2    0    0  0.92911561095E+03 -0.10891232625E+04  0.14912105320E+04  0.20728110872E+04  0.15294330000E+03 0.  0.
    8880022    1    1    2    0    0 -0.92911561095E+03  0.10891232625E+04 -0.68237950571E+03  0.15932604126E+04  0.15294330000E+03 0.  0.
<mgrwt>
<rscale>  0 0.14397350E+04</rscale>
<asrwt>0</asrwt>
<pdfrwt beam="1">  1        2 0.34422327E+00 0.14397350E+04</pdfrwt>
<pdfrwt beam="2">  1       -2 0.21978773E+00 0.14397350E+04</pdfrwt>
<totfact> 0.46057815E-01</totfact>
</mgrwt>
</event>
<event>
 4    1  0.2061941E-008  0.1340210E+04  0.7818608E-02  0.8998272E-01
          2   -1    0    0  501    0  0.00000000000E+00  0.00000000000E+00  0.92715969428E+03  0.92715969429E+03  0.25500000000E-02 0. -1.
         -2   -1    0    0    0  501 -0.00000000000E+00 -0.00000000000E+00 -0.21446074902E+04  0.21446074902E+04  0.25500000000E-02 0.  1.
    8880022    1    1    2    0    0 -0.13222042812E+04  0.15667912713E+03 -0.13117582725E+03  0.13466147411E+04  0.15294330000E+03 0.  0.
    8880022    1    1    2    0    0  0.13222042812E+04 -0.15667912713E+03 -0.10862719687E+04  0.17251524435E+04  0.15294330000E+03 0.  0.
<mgrwt>
<rscale>  0 0.13402105E+04</rscale>
<asrwt>0</asrwt>
<pdfrwt beam="1">  1        2 0.14263995E+00 0.13402105E+04</pdfrwt>
<pdfrwt beam="2">  1       -2 0.32993961E+00 0.13402105E+04</pdfrwt>
<totfact> 0.56423642E-01</totfact>
</mgrwt>
</event>
<event>
 4    1  0.2061941E-008  0.8061222E+03  0.7818608E-02  0.9551197E-01
          2   -1    0    0  501    0  0.00000000000E+00  0.00000000000E+00  0.12409860386E+04  0.12409860386E+04  0.25500000000E-02 0. -1.
         -2   -1    0    0    0  501 -0.00000000000E+00 -0.00000000000E+00 -0.67453007996E+03  0.67453007997E+03  0.25500000000E-02 0.  1.
    8880022    1    1    2    0    0  0.59846255704E+03 -0.51796136689E+03  0.73621093901E+03  0.10917140695E+04  0.15294330000E+03 0.  0.
    8880022    1    1    2    0    0 -0.59846255704E+03  0.51796136689E+03 -0.16975498034E+03  0.82380204912E+03  0.15294330000E+03 0.  0.
<mgrwt>
<rscale>  0 0.80612224E+03</rscale>
<asrwt>0</asrwt>
<pdfrwt beam="1">  1        2 0.19092093E+00 0.80612224E+03</pdfrwt>
<pdfrwt beam="2">  1       -2 0.10377386E+00 0.80612224E+03</pdfrwt>
<totfact> 0.13720749E+01</totfact>
</mgrwt>
</event>
<event>
 4    1  0.2061941E-008  0.1011893E+04  0.7818608E-02  0.9295596E-01
          2   -1    0    0  501    0  0.00000000000E+00  0.00000000000E+00  0.23391016737E+04  0.23391016737E+04  0.25500000000E-02 0. -1.
         -2   -1    0    0    0  501 -0.00000000000E+00 -0.00000000000E+00 -0.62538579588E+03  0.62538579589E+03  0.25500000000E-02 0.  1.
    8880022    1    1    2    0    0  0.99949921470E+03  0.39213790473E+02  0.16687723373E+04  0.19515965690E+04  0.15294330000E+03 0.  0.
    8880022    1    1    2    0    0 -0.99949921470E+03 -0.39213790473E+02  0.44943540515E+02  0.10128909005E+04  0.15294330000E+03 0.  0.
<mgrwt>
<rscale>  0 0.10118933E+04</rscale>
<asrwt>0</asrwt>
<pdfrwt beam="1">  1        2 0.35986180E+00 0.10118933E+04</pdfrwt>
<pdfrwt beam="2">  1       -2 0.96213198E-01 0.10118933E+04</pdfrwt>
<totfact> 0.39139964E+00</totfact>
</mgrwt>
</event>
<event>
 4    1  0.2061941E-008  0.1332801E+04  0.7818608E-02  0.9003951E-01
          2   -1    0    0  501    0  0.00000000000E+00  0.00000000000E+00  0.27485353999E+04  0.27485353999E+04  0.25500000000E-02 0. -1.
         -2   -1    0    0    0  501 -0.00000000000E+00 -0.00000000000E+00 -0.10230592158E+04  0.10230592158E+04  0.25500000000E-02 0.  1.
    8880022    1    1    2    0    0  0.10956008600E+04  0.74338729908E+03  0.20071462388E+04  0.24093554320E+04  0.15294330000E+03 0.  0.
    8880022    1    1    2    0    0 -0.10956008600E+04 -0.74338729908E+03 -0.28167005467E+03  0.13622391837E+04  0.15294330000E+03 0.  0.
<mgrwt>
<rscale>  0 0.13328007E+04</rscale>
<asrwt>0</asrwt>
<pdfrwt beam="1">  1        2 0.42285160E+00 0.13328007E+04</pdfrwt>
<pdfrwt beam="2">  1       -2 0.15739373E+00 0.13328007E+04</pdfrwt>
<totfact> 0.63035828E-01</totfact>
</mgrwt>
</event>
<event>
 4    1  0.2061941E-008  0.1225525E+04  0.7818608E-02  0.9090803E-01
          2   -1    0    0  501    0  0.00000000000E+00  0.00000000000E+00  0.11130641792E+04  0.11130641792E+04  0.25500000000E-02 0. -1.
         -2   -1    0    0    0  501 -0.00000000000E+00 -0.00000000000E+00 -0.16213154355E+04  0.16213154355E+04  0.25500000000E-02 0.  1.
    8880022    1    1    2    0    0  0.64264743793E+03 -0.10322427753E+04  0.30582837608E+03  0.12631086752E+04  0.15294330000E+03 0.  0.
    8880022    1    1    2    0    0 -0.64264743793E+03  0.10322427753E+04 -0.81407963239E+03  0.14712709395E+04  0.15294330000E+03 0.  0.
<mgrwt>
<rscale>  0 0.12255254E+04</rscale>
<asrwt>0</asrwt>
<pdfrwt beam="1">  1        2 0.17124064E+00 0.12255254E+04</pdfrwt>
<pdfrwt beam="2">  1       -2 0.24943314E+00 0.12255254E+04</pdfrwt>
<totfact> 0.13445747E+00</totfact>
</mgrwt>
</event>
<event>
 4    1  0.2061941E-008  0.1213774E+04  0.7818608E-02  0.9100885E-01
          2   -1    0    0  501    0  0.00000000000E+00  0.00000000000E+00  0.14369331811E+04  0.14369331811E+04  0.25500000000E-02 0. -1.
         -2   -1    0    0    0  501 -0.00000000000E+00 -0.00000000000E+00 -0.13077195028E+04  0.13077195028E+04  0.25500000000E-02 0.  1.
    8880022    1    1    2    0    0 -0.10672743030E+04 -0.55747732815E+03  0.70238424024E+03  0.14023518401E+04  0.15294330000E+03 0.  0.
    8880022    1    1    2    0    0  0.10672743030E+04  0.55747732815E+03 -0.57317056195E+03  0.13423008439E+04  0.15294330000E+03 0.  0.
<mgrwt>
<rscale>  0 0.12137739E+04</rscale>
<asrwt>0</asrwt>
<pdfrwt beam="1">  1        2 0.22106664E+00 0.12137739E+04</pdfrwt>
<pdfrwt beam="2">  1       -2 0.20118762E+00 0.12137739E+04</pdfrwt>
<totfact> 0.17444068E+00</totfact>
</mgrwt>
</event>
<event>
 4    1  0.2061941E-008  0.1021810E+04  0.7818608E-02  0.9284942E-01
          2   -1    0    0  501    0  0.00000000000E+00  0.00000000000E+00  0.24635956874E+04  0.24635956874E+04  0.25500000000E-02 0. -1.
         -2   -1    0    0    0  501 -0.00000000000E+00 -0.00000000000E+00 -0.89528572131E+03  0.89528572132E+03  0.25500000000E-02 0.  1.
    8880022    1    1    2    0    0 -0.71762013831E+03  0.71114365135E+03 -0.43459234646E+03  0.11103900740E+04  0.15294330000E+03 0.  0.
    8880022    1    1    2    0    0  0.71762013831E+03 -0.71114365135E+03  0.20029023126E+04  0.22484913348E+04  0.15294330000E+03 0.  0.
<mgrwt>
<rscale>  0 0.10218100E+04</rscale>
<asrwt>0</asrwt>
<pdfrwt beam="1">  1        2 0.37901472E+00 0.10218100E+04</pdfrwt>
<pdfrwt beam="2">  1       -2 0.13773626E+00 0.10218100E+04</pdfrwt>
<totfact> 0.13721761E+00</totfact>
</mgrwt>
</event>
<event>
 4    1  0.2061941E-008  0.3347258E+03  0.7818608E-02  0.1069065E+00
         -2   -1    0    0    0  501 -0.00000000000E+00  0.00000000000E+00  0.48612743784E+03  0.48612743785E+03  0.25500000000E-02 0.  1.
          2   -1    0    0  501    0  0.00000000000E+00 -0.00000000000E+00 -0.83290048733E+03  0.83290048734E+03  0.25500000000E-02 0. -1.
    8880022    1    1    2    0    0  0.21666061742E+03 -0.20422507552E+03 -0.73427725500E+03  0.80697239410E+03  0.15294330000E+03 0.  0.
    8880022    1    1    2    0    0 -0.21666061742E+03  0.20422507552E+03  0.38750420551E+03  0.51205553109E+03  0.15294330000E+03 0.  0.
<mgrwt>
<rscale>  0 0.33472579E+03</rscale>
<asrwt>0</asrwt>
<pdfrwt beam="1">  1        2 0.12813854E+00 0.33472579E+03</pdfrwt>
<pdfrwt beam="2">  1       -2 0.74788836E-01 0.33472579E+03</pdfrwt>
<totfact> 0.55746300E+01</totfact>
</mgrwt>
</event>
<event>
 4    1  0.2061941E-008  0.6136135E+03  0.7818608E-02  0.9877558E-01
          2   -1    0    0  501    0  0.00000000000E+00  0.00000000000E+00  0.87188701835E+03  0.87188701836E+03  0.25500000000E-02 0. -1.
         -2   -1    0    0    0  501 -0.00000000000E+00 -0.00000000000E+00 -0.12534336123E+04  0.12534336123E+04  0.25500000000E-02 0.  1.
    8880022    1    1    2    0    0 -0.52103048669E+03  0.28575703467E+03 -0.10511141755E+04  0.12171123670E+04  0.15294330000E+03 0.  0.
    8880022    1    1    2    0    0  0.52103048669E+03 -0.28575703467E+03  0.66956758156E+03  0.90820826368E+03  0.15294330000E+03 0.  0.
<mgrwt>
<rscale>  0 0.61361348E+03</rscale>
<asrwt>0</asrwt>
<pdfrwt beam="1">  1        2 0.13413646E+00 0.61361348E+03</pdfrwt>
<pdfrwt beam="2">  1       -2 0.19283594E+00 0.61361348E+03</pdfrwt>
<totfact> 0.47416189E+00</totfact>
</mgrwt>
</event>
<event>
 4    1  0.2061941E-008  0.9622532E+03  0.7818608E-02  0.9350942E-01
          2   -1    0    0  501    0  0.00000000000E+00  0.00000000000E+00  0.13864596914E+04  0.13864596914E+04  0.25500000000E-02 0. -1.
         -2   -1    0    0    0  501 -0.00000000000E+00 -0.00000000000E+00 -0.18406531676E+04  0.18406531676E+04  0.25500000000E-02 0.  1.
    8880022    1    1    2    0    0 -0.82142437249E+03  0.47728563336E+03  0.10608943624E+04  0.14322807255E+04  0.15294330000E+03 0.  0.
    8880022    1    1    2    0    0  0.82142437249E+03 -0.47728563336E+03 -0.15150878386E+04  0.17948321334E+04  0.15294330000E+03 0.  0.
<mgrwt>
<rscale>  0 0.96225320E+03</rscale>
<asrwt>0</asrwt>
<pdfrwt beam="1">  1        2 0.21330149E+00 0.96225320E+03</pdfrwt>
<pdfrwt beam="2">  1       -2 0.28317741E+00 0.96225320E+03</pdfrwt>
<totfact> 0.59814192E-01</totfact>
</mgrwt>
</event>
<event>
 4    1  0.2061941E-008  0.1830436E+04  0.7818608E-02  0.8690279E-01
          2   -1    0    0  501    0  0.00000000000E+00  0.00000000000E+00  0.32782722474E+04  0.32782722474E+04  0.25500000000E-02 0. -1.
         -2   -1    0    0    0  501 -0.00000000000E+00 -0.00000000000E+00 -0.16418893246E+04  0.16418893246E+04  0.25500000000E-02 0.  1.
    8880022    1    1    2    0    0 -0.42314581345E+03  0.17742748396E+04 -0.69336270689E+03  0.19573571677E+04  0.15294330000E+03 0.  0.
    8880022    1    1    2    0    0  0.42314581345E+03 -0.17742748396E+04  0.23297456297E+04  0.29628044043E+04  0.15294330000E+03 0.  0.
<mgrwt>
<rscale>  0 0.18304358E+04</rscale>
<asrwt>0</asrwt>
<pdfrwt beam="1">  1        2 0.50434958E+00 0.18304358E+04</pdfrwt>
<pdfrwt beam="2">  1       -2 0.25259836E+00 0.18304358E+04</pdfrwt>
<totfact> 0.64502844E-02</totfact>
</mgrwt>
</event>
<event>
 4    1  0.2061941E-008  0.1131111E+04  0.7818608E-02  0.9175388E-01
         -2   -1    0    0    0  501 -0.00000000000E+00  0.00000000000E+00  0.85739149132E+03  0.85739149133E+03  0.25500000000E-02 0.  1.
          2   -1    0    0  501    0  0.00000000000E+00 -0.00000000000E+00 -0.15792625125E+04  0.15792625125E+04  0.25500000000E-02 0. -1.
    8880022    1    1    2    0    0 -0.86201009661E+02 -0.11174032949E+04 -0.64696778874E+03  0.13030655049E+04  0.15294330000E+03 0.  0.
    8880022    1    1    2    0    0  0.86201009661E+02  0.11174032949E+04 -0.74903232398E+02  0.11335884989E+04  0.15294330000E+03 0.  0.
<mgrwt>
<rscale>  0 0.11311111E+04</rscale>
<asrwt>0</asrwt>
<pdfrwt beam="1">  1        2 0.24296346E+00 0.11311111E+04</pdfrwt>
<pdfrwt beam="2">  1       -2 0.13190638E+00 0.11311111E+04</pdfrwt>
<totfact> 0.46991066E+00</totfact>
</mgrwt>
</event>
<event>
 4    1  0.2061941E-008  0.6339589E+03  0.7818608E-02  0.9837354E-01
          2   -1    0    0  501    0  0.00000000000E+00  0.00000000000E+00  0.10279560941E+04  0.10279560941E+04  0.25500000000E-02 0. -1.
         -2   -1    0    0    0  501 -0.00000000000E+00 -0.00000000000E+00 -0.11800369428E+04  0.11800369428E+04  0.25500000000E-02 0.  1.
    8880022    1    1    2    0    0 -0.47439052671E+03 -0.39174723885E+03  0.82672678189E+03  0.10418162486E+04  0.15294330000E+03 0.  0.
    8880022    1    1    2    0    0  0.47439052671E+03  0.39174723885E+03 -0.97880763060E+03  0.11661767884E+04  0.15294330000E+03 0.  0.
<mgrwt>
<rscale>  0 0.63395893E+03</rscale>
<asrwt>0</asrwt>
<pdfrwt beam="1">  1        2 0.15814709E+00 0.63395893E+03</pdfrwt>
<pdfrwt beam="2">  1       -2 0.18154415E+00 0.63395893E+03</pdfrwt>
<totfact> 0.44496845E+00</totfact>
</mgrwt>
</event>
<event>
 4    1  0.2061941E-008  0.2070802E+04  0.7818608E-02  0.8574215E-01
          2   -1    0    0  501    0  0.00000000000E+00  0.00000000000E+00  0.44290611511E+04  0.44290611511E+04  0.25500000000E-02 0. -1.
         -2   -1    0    0    0  501 -0.00000000000E+00 -0.00000000000E+00 -0.10238554383E+04  0.10238554383E+04  0.25500000000E-02 0.  1.
    8880022    1    1    2    0    0 -0.20252956516E+04  0.40374207715E+03  0.10669366499E+04  0.23295011503E+04  0.15294330000E+03 0.  0.
    8880022    1    1    2    0    0  0.20252956516E+04 -0.40374207715E+03  0.23382690630E+04  0.31234154391E+04  0.15294330000E+03 0.  0.
<mgrwt>
<rscale>  0 0.20708022E+04</rscale>
<asrwt>0</asrwt>
<pdfrwt beam="1">  1        2 0.68139403E+00 0.20708022E+04</pdfrwt>
<pdfrwt beam="2">  1       -2 0.15751622E+00 0.20708022E+04</pdfrwt>
<totfact> 0.34068017E-02</totfact>
</mgrwt>
</event>
<event>
 4    1  0.2061941E-008  0.1490558E+04  0.7818608E-02  0.8890756E-01
          2   -1    0    0  501    0  0.00000000000E+00  0.00000000000E+00  0.19302422988E+04  0.19302422988E+04  0.25500000000E-02 0. -1.
         -2   -1    0    0    0  501 -0.00000000000E+00 -0.00000000000E+00 -0.13347151399E+04  0.13347151399E+04  0.25500000000E-02 0.  1.
    8880022    1    1    2    0    0  0.25629731758E+03 -0.14603711556E+04  0.90337217557E+03  0.17429415273E+04  0.15294330000E+03 0.  0.
    8880022    1    1    2    0    0 -0.25629731758E+03  0.14603711556E+04 -0.30784501669E+03  0.15220159113E+04  0.15294330000E+03 0.  0.
<mgrwt>
<rscale>  0 0.14905582E+04</rscale>
<asrwt>0</asrwt>
<pdfrwt beam="1">  1        2 0.29696035E+00 0.14905582E+04</pdfrwt>
<pdfrwt beam="2">  1       -2 0.20534079E+00 0.14905582E+04</pdfrwt>
<totfact> 0.84294118E-01</totfact>
</mgrwt>
</event>
<event>
 4    1  0.2061941E-008  0.1270570E+04  0.7818608E-02  0.9053234E-01
         -2   -1    0    0    0  501 -0.00000000000E+00  0.00000000000E+00  0.18651837174E+04  0.18651837174E+04  0.25500000000E-02 0.  1.
          2   -1    0    0  501    0  0.00000000000E+00 -0.00000000000E+00 -0.12017467460E+04  0.12017467460E+04  0.25500000000E-02 0. -1.
    8880022    1    1    2    0    0  0.12174443029E+04  0.32982852371E+03 -0.47940168766E+03  0.13580040931E+04  0.15294330000E+03 0.  0.
    8880022    1    1    2    0    0 -0.12174443029E+04 -0.32982852371E+03  0.11428386591E+04  0.17089263704E+04  0.15294330000E+03 0.  0.
<mgrwt>
<rscale>  0 0.12705704E+04</rscale>
<asrwt>0</asrwt>
<pdfrwt beam="1">  1        2 0.18488412E+00 0.12705704E+04</pdfrwt>
<pdfrwt beam="2">  1       -2 0.28695134E+00 0.12705704E+04</pdfrwt>
<totfact> 0.69805230E-01</totfact>
</mgrwt>
</event>
<event>
 4    1  0.2061941E-008  0.1258802E+04  0.7818608E-02  0.9062889E-01
          2   -1    0    0  501    0  0.00000000000E+00  0.00000000000E+00  0.11146111972E+04  0.11146111972E+04  0.25500000000E-02 0. -1.
         -2   -1    0    0    0  501 -0.00000000000E+00 -0.00000000000E+00 -0.25594968628E+04  0.25594968628E+04  0.25500000000E-02 0.  1.
    8880022    1    1    2    0    0  0.84834509030E+03 -0.91733435584E+03  0.50241916561E+03  0.13553628236E+04  0.15294330000E+03 0. -1.
    8880022    1    1    2    0    0 -0.84834509030E+03  0.91733435584E+03 -0.19473048312E+04  0.23187452364E+04  0.15294330000E+03 0.  0.
<mgrwt>
<rscale>  0 0.12588024E+04</rscale>
<asrwt>0</asrwt>
<pdfrwt beam="1">  1        2 0.17147865E+00 0.12588024E+04</pdfrwt>
<pdfrwt beam="2">  1       -2 0.39376875E+00 0.12588024E+04</pdfrwt>
<totfact> 0.16986226E-01</totfact>
</mgrwt>
</event>
<event>
 4    1  0.2061941E-008  0.1878964E+03  0.7818608E-02  0.1160372E+00
         -2   -1    0    0    0  501 -0.00000000000E+00  0.00000000000E+00  0.51261151485E+03  0.51261151486E+03  0.25500000000E-02 0.  1.
          2   -1    0    0  501    0  0.00000000000E+00 -0.00000000000E+00 -0.16282101639E+03  0.16282101641E+03  0.25500000000E-02 0. -1.
    8880022    1    1    2    0    0 -0.95895794258E+02  0.52128699904E+02  0.43142675686E+03  0.47056785298E+03  0.15294330000E+03 0.  0.
    8880022    1    1    2    0    0  0.95895794258E+02 -0.52128699904E+02 -0.81636258398E+02  0.20486467829E+03  0.15294330000E+03 0. -1.
<mgrwt>
<rscale>  0 0.18789640E+03</rscale>
<asrwt>0</asrwt>
<pdfrwt beam="1">  1        2 0.25049387E-01 0.18789640E+03</pdfrwt>
<pdfrwt beam="2">  1       -2 0.78863310E-01 0.18789640E+03</pdfrwt>
<totfact> 0.31681247E+02</totfact>
</mgrwt>
</event>
<event>
 4    1  0.2261532E-008  0.1466958E+04  0.7818608E-02  0.8906728E-01
          2   -1    0    0  501    0  0.00000000000E+00  0.00000000000E+00  0.23910137469E+04  0.23910137469E+04  0.25500000000E-02 0. -1.
         -2   -1    0    0    0  501 -0.00000000000E+00 -0.00000000000E+00 -0.27889368867E+04  0.27889368867E+04  0.25500000000E-02 0.  1.
    8880022    1    1    2    0    0 -0.14399520849E+04 -0.23476089303E+03  0.19325240703E+04  0.24262348647E+04  0.15294330000E+03 0.  0.
    8880022    1    1    2    0    0  0.14399520849E+04  0.23476089303E+03 -0.23304472101E+04  0.27537157688E+04  0.15294330000E+03 0.  0.
<mgrwt>
<rscale>  0 0.14669582E+04</rscale>
<asrwt>0</asrwt>
<pdfrwt beam="1">  1        2 0.36784827E+00 0.14669582E+04</pdfrwt>
<pdfrwt beam="2">  1       -2 0.42906722E+00 0.14669582E+04</pdfrwt>
<totfact> 0.18133707E-02</totfact>
</mgrwt>
</event>
<event>
 4    1  0.2061941E-008  0.4566881E+03  0.7818608E-02  0.1025746E+00
         -2   -1    0    0    0  501 -0.00000000000E+00  0.00000000000E+00  0.18237647048E+03  0.18237647050E+03  0.25500000000E-02 0.  1.
          2   -1    0    0  501    0  0.00000000000E+00 -0.00000000000E+00 -0.12020340083E+04  0.12020340083E+04  0.25500000000E-02 0. -1.
    8880022    1    1    2    0    0  0.30136645825E+03 -0.30716547590E+03 -0.66246025081E+03  0.80462264986E+03  0.15294330000E+03 0.  0.
    8880022    1    1    2    0    0 -0.30136645825E+03  0.30716547590E+03 -0.35719728705E+03  0.57978782898E+03  0.15294330000E+03 0.  0.
<mgrwt>
<rscale>  0 0.45668810E+03</rscale>
<asrwt>0</asrwt>
<pdfrwt beam="1">  1        2 0.18492830E+00 0.45668810E+03</pdfrwt>
<pdfrwt beam="2">  1       -2 0.28057919E-01 0.45668810E+03</pdfrwt>
<totfact> 0.22686499E+02</totfact>
</mgrwt>
</event>
<event>
 4    1  0.2061941E-008  0.1140898E+04  0.7818608E-02  0.9166222E-01
         -2   -1    0    0    0  501 -0.00000000000E+00  0.00000000000E+00  0.12117709313E+04  0.12117709313E+04  0.25500000000E-02 0.  1.
          2   -1    0    0  501    0  0.00000000000E+00 -0.00000000000E+00 -0.21598262510E+04  0.21598262510E+04  0.25500000000E-02 0. -1.
    8880022    1    1    2    0    0  0.33827023508E+03  0.10788095165E+04 -0.16692326069E+04  0.20218768196E+04  0.15294330000E+03 0.  0.
    8880022    1    1    2    0    0 -0.33827023508E+03 -0.10788095165E+04  0.72117728719E+03  0.13497203627E+04  0.15294330000E+03 0.  0.
<mgrwt>
<rscale>  0 0.11408981E+04</rscale>
<asrwt>0</asrwt>
<pdfrwt beam="1">  1        2 0.33228096E+00 0.11408981E+04</pdfrwt>
<pdfrwt beam="2">  1       -2 0.18642630E+00 0.11408981E+04</pdfrwt>
<totfact> 0.87361474E-01</totfact>
</mgrwt>
</event>
<event>
 4    1  0.2061941E-008  0.1087558E+04  0.7818608E-02  0.9217404E-01
          2   -1    0    0  501    0  0.00000000000E+00  0.00000000000E+00  0.21683679943E+04  0.21683679943E+04  0.25500000000E-02 0. -1.
         -2   -1    0    0    0  501 -0.00000000000E+00 -0.00000000000E+00 -0.14194262186E+04  0.14194262186E+04  0.25500000000E-02 0.  1.
    8880022    1    1    2    0    0 -0.17835792044E+03 -0.10618757032E+04 -0.10331495146E+04  0.15000603753E+04  0.15294330000E+03 0.  0.
    8880022    1    1    2    0    0  0.17835792044E+03  0.10618757032E+04  0.17820912903E+04  0.20877338377E+04  0.15294330000E+03 0. -1.
<mgrwt>
<rscale>  0 0.10875584E+04</rscale>
<asrwt>0</asrwt>
<pdfrwt beam="1">  1        2 0.33359508E+00 0.10875584E+04</pdfrwt>
<pdfrwt beam="2">  1       -2 0.21837326E+00 0.10875584E+04</pdfrwt>
<totfact> 0.53826873E-01</totfact>
</mgrwt>
</event>
<event>
 4    1  0.2061941E-008  0.6570275E+03  0.7818608E-02  0.9793681E-01
          2   -1    0    0  501    0  0.00000000000E+00  0.00000000000E+00  0.22599253007E+04  0.22599253007E+04  0.25500000000E-02 0. -1.
         -2   -1    0    0    0  501 -0.00000000000E+00 -0.00000000000E+00 -0.27390657719E+04  0.27390657719E+04  0.25500000000E-02 0.  1.
    8880022    1    1    2    0    0  0.63893325165E+03  0.75973481077E+01 -0.26503357403E+04  0.27305612260E+04  0.15294330000E+03 0.  0.
    8880022    1    1    2    0    0 -0.63893325165E+03 -0.75973481077E+01  0.21711952690E+04  0.22684298466E+04  0.15294330000E+03 0.  0.
<mgrwt>
<rscale>  0 0.65702745E+03</rscale>
<asrwt>0</asrwt>
<pdfrwt beam="1">  1        2 0.34768081E+00 0.65702745E+03</pdfrwt>
<pdfrwt beam="2">  1       -2 0.42139474E+00 0.65702745E+03</pdfrwt>
<totfact> 0.29080210E-02</totfact>
</mgrwt>
</event>
<event>
 4    1  0.2061941E-008  0.2184882E+04  0.7818608E-02  0.8524747E-01
         -2   -1    0    0    0  501 -0.00000000000E+00  0.00000000000E+00  0.27618469667E+04  0.27618469667E+04  0.25500000000E-02 0.  1.
          2   -1    0    0  501    0  0.00000000000E+00 -0.00000000000E+00 -0.23346510556E+04  0.23346510556E+04  0.25500000000E-02 0. -1.
    8880022    1    1    2    0    0  0.21794250862E+04  0.20626478735E+02  0.15120911666E+04  0.26570906095E+04  0.15294330000E+03 0.  0.
    8880022    1    1    2    0    0 -0.21794250862E+04 -0.20626478735E+02 -0.10848952554E+04  0.24394074129E+04  0.15294330000E+03 0.  0.
<mgrwt>
<rscale>  0 0.21848823E+04</rscale>
<asrwt>0</asrwt>
<pdfrwt beam="1">  1        2 0.35917709E+00 0.21848823E+04</pdfrwt>
<pdfrwt beam="2">  1       -2 0.42489953E+00 0.21848823E+04</pdfrwt>
<totfact> 0.19060580E-02</totfact>
</mgrwt>
</event>
<event>
 4    1  0.2061941E-008  0.8680607E+03  0.7818608E-02  0.9466412E-01
          2   -1    0    0  501    0  0.00000000000E+00  0.00000000000E+00  0.28672904337E+04  0.28672904337E+04  0.25500000000E-02 0. -1.
         -2   -1    0    0    0  501 -0.00000000000E+00 -0.00000000000E+00 -0.48651464203E+03  0.48651464204E+03  0.25500000000E-02 0.  1.
    8880022    1    1    2    0    0  0.20492380127E+02 -0.85423519656E+03  0.23275050965E+04  0.24841113776E+04  0.15294330000E+03 0.  0.
    8880022    1    1    2    0    0 -0.20492380127E+02  0.85423519656E+03  0.53270695136E+02  0.86969369818E+03  0.15294330000E+03 0.  0.
<mgrwt>
<rscale>  0 0.86806069E+03</rscale>
<asrwt>0</asrwt>
<pdfrwt beam="1">  1        2 0.44112160E+00 0.86806069E+03</pdfrwt>
<pdfrwt beam="2">  1       -2 0.74848408E-01 0.86806069E+03</pdfrwt>
<totfact> 0.35085733E+00</totfact>
</mgrwt>
</event>
<event>
 4    1  0.2061941E-008  0.5403345E+03  0.7818608E-02  0.1003756E+00
          2   -1    0    0  501    0  0.00000000000E+00  0.00000000000E+00  0.17175951540E+04  0.17175951540E+04  0.25500000000E-02 0. -1.
         -2   -1    0    0    0  501 -0.00000000000E+00 -0.00000000000E+00 -0.43264851000E+03  0.43264851000E+03  0.25500000000E-02 0.  1.
    8880022    1    1    2    0    0  0.49332105774E+03 -0.15875769463E+03 -0.19523323336E+03  0.57452357657E+03  0.15294330000E+03 0.  0.
    8880022    1    1    2    0    0 -0.49332105774E+03  0.15875769463E+03  0.14801798774E+04  0.15757200875E+04  0.15294330000E+03 0. -1.
<mgrwt>
<rscale>  0 0.54033446E+03</rscale>
<asrwt>0</asrwt>
<pdfrwt beam="1">  1        2 0.26424541E+00 0.54033446E+03</pdfrwt>
<pdfrwt beam="2">  1       -2 0.66561310E-01 0.54033446E+03</pdfrwt>
<totfact> 0.21108988E+01</totfact>
</mgrwt>
</event>
<event>
 4    1  0.2061941E-008  0.1081922E+04  0.7818608E-02  0.9222993E-01
          2   -1    0    0  501    0  0.00000000000E+00  0.00000000000E+00  0.30999043960E+04  0.30999043960E+04  0.25500000000E-02 0. -1.
         -2   -1    0    0    0  501 -0.00000000000E+00 -0.00000000000E+00 -0.10020970930E+04  0.10020970930E+04  0.25500000000E-02 0.  1.
    8880022    1    1    2    0    0 -0.10270823727E+04  0.30375355214E+03 -0.57019204507E+03  0.12229779401E+04  0.15294330000E+03 0.  0.
    8880022    1    1    2    0    0  0.10270823727E+04 -0.30375355214E+03  0.26679993481E+04  0.28790235489E+04  0.15294330000E+03 0.  0.
<mgrwt>
<rscale>  0 0.10819224E+04</rscale>
<asrwt>0</asrwt>
<pdfrwt beam="1">  1        2 0.47690837E+00 0.10819224E+04</pdfrwt>
<pdfrwt beam="2">  1       -2 0.15416878E+00 0.10819224E+04</pdfrwt>
<totfact> 0.42117357E-01</totfact>
</mgrwt>
</event>
<event>
 4    1  0.2979639E-008  0.1006394E+04  0.7818608E-02  0.9301560E-01
          2   -1    0    0  501    0  0.00000000000E+00  0.00000000000E+00  0.25893260122E+04  0.25893260122E+04  0.25500000000E-02 0. -1.
         -2   -1    0    0    0  501 -0.00000000000E+00 -0.00000000000E+00 -0.25790871695E+04  0.25790871695E+04  0.25500000000E-02 0.  1.
    8880022    1    1    2    0    0  0.80592433615E+03  0.58302923913E+03 -0.23750677450E+04  0.25794913405E+04  0.15294330000E+03 0.  0.
    8880022    1    1    2    0    0 -0.80592433615E+03 -0.58302923913E+03  0.23853065877E+04  0.25889218412E+04  0.15294330000E+03 0.  0.
<mgrwt>
<rscale>  0 0.10063939E+04</rscale>
<asrwt>0</asrwt>
<pdfrwt beam="1">  1        2 0.39835785E+00 0.10063939E+04</pdfrwt>
<pdfrwt beam="2">  1       -2 0.39678264E+00 0.10063939E+04</pdfrwt>
<totfact> 0.24818256E-02</totfact>
</mgrwt>
</event>
<event>
 4    1  0.2061941E-008  0.7571485E+03  0.7818608E-02  0.9624202E-01
          2   -1    0    0  501    0  0.00000000000E+00  0.00000000000E+00  0.21281014252E+04  0.21281014252E+04  0.25500000000E-02 0. -1.
         -2   -1    0    0    0  501 -0.00000000000E+00 -0.00000000000E+00 -0.45620494574E+03  0.45620494575E+03  0.25500000000E-02 0.  1.
    8880022    1    1    2    0    0  0.12965375193E+03 -0.73011782297E+03  0.16628392313E+04  0.18271037445E+04  0.15294330000E+03 0.  0.
    8880022    1    1    2    0    0 -0.12965375193E+03  0.73011782297E+03  0.90572481377E+01  0.75720262649E+03  0.15294330000E+03 0.  0.
<mgrwt>
<rscale>  0 0.75714846E+03</rscale>
<asrwt>0</asrwt>
<pdfrwt beam="1">  1        2 0.32740022E+00 0.75714846E+03</pdfrwt>
<pdfrwt beam="2">  1       -2 0.70185375E-01 0.75714846E+03</pdfrwt>
<totfact> 0.10864262E+01</totfact>
</mgrwt>
</event>
<event>
 4    1  0.2061941E-008  0.3147981E+03  0.7818608E-02  0.1078069E+00
         -2   -1    0    0    0  501 -0.00000000000E+00  0.00000000000E+00  0.12746061609E+03  0.12746061612E+03  0.25500000000E-02 0.  1.
          2   -1    0    0  501    0  0.00000000000E+00 -0.00000000000E+00 -0.30545089505E+04  0.30545089505E+04  0.25500000000E-02 0. -1.
    8880022    1    1    2    0    0  0.45320389304E+02  0.27138950802E+03 -0.89862533173E+02  0.32737307561E+03  0.15294330000E+03 0.  0.
    8880022    1    1    2    0    0 -0.45320389304E+02 -0.27138950802E+03 -0.28371858012E+04  0.28545964910E+04  0.15294330000E+03 0. -1.
<mgrwt>
<rscale>  0 0.31479812E+03</rscale>
<asrwt>0</asrwt>
<pdfrwt beam="1">  1        2 0.46992440E+00 0.31479812E+03</pdfrwt>
<pdfrwt beam="2">  1       -2 0.19609328E-01 0.31479812E+03</pdfrwt>
<totfact> 0.41605068E+01</totfact>
</mgrwt>
</event>
<event>
 4    1  0.2061941E-008  0.7276113E+03  0.7818608E-02  0.9671145E-01
          2   -1    0    0  501    0  0.00000000000E+00  0.00000000000E+00  0.23364526129E+04  0.23364526129E+04  0.25500000000E-02 0. -1.
         -2   -1    0    0    0  501 -0.00000000000E+00 -0.00000000000E+00 -0.29794991196E+03  0.29794991198E+03  0.25500000000E-02 0.  1.
    8880022    1    1    2    0    0 -0.87225108633E+02  0.70598745123E+03  0.16638744943E+04  0.18160111472E+04  0.15294330000E+03 0.  0.
    8880022    1    1    2    0    0  0.87225108633E+02 -0.70598745123E+03  0.37462820664E+03  0.81839137771E+03  0.15294330000E+03 0.  0.
<mgrwt>
<rscale>  0 0.72761127E+03</rscale>
<asrwt>0</asrwt>
<pdfrwt beam="1">  1        2 0.35945423E+00 0.72761127E+03</pdfrwt>
<pdfrwt beam="2">  1       -2 0.45838450E-01 0.72761127E+03</pdfrwt>
<totfact> 0.20386831E+01</totfact>
</mgrwt>
</event>
<event>
 4    1  0.2061941E-008  0.7512442E+03  0.7818608E-02  0.9633400E-01
         -2   -1    0    0    0  501 -0.00000000000E+00  0.00000000000E+00  0.79572540870E+03  0.79572540870E+03  0.25500000000E-02 0.  1.
          2   -1    0    0  501    0  0.00000000000E+00 -0.00000000000E+00 -0.16727174550E+04  0.16727174550E+04  0.25500000000E-02 0. -1.
    8880022    1    1    2    0    0 -0.30678706040E+03  0.66847432095E+03  0.49820376043E+03  0.90142934172E+03  0.15294330000E+03 0.  0.
    8880022    1    1    2    0    0  0.30678706040E+03 -0.66847432095E+03 -0.13751958068E+04  0.15670135220E+04  0.15294330000E+03 0.  0.
<mgrwt>
<rscale>  0 0.75124422E+03</rscale>
<asrwt>0</asrwt>
<pdfrwt beam="1">  1        2 0.25734115E+00 0.75124422E+03</pdfrwt>
<pdfrwt beam="2">  1       -2 0.12241929E+00 0.75124422E+03</pdfrwt>
<totfact> 0.52775324E+00</totfact>
</mgrwt>
</event>
<event>
 4    1  0.2061941E-008  0.8026870E+03  0.7818608E-02  0.9556136E-01
          2   -1    0    0  501    0  0.00000000000E+00  0.00000000000E+00  0.13261279293E+04  0.13261279293E+04  0.25500000000E-02 0. -1.
         -2   -1    0    0    0  501 -0.00000000000E+00 -0.00000000000E+00 -0.13600891212E+04  0.13600891212E+04  0.25500000000E-02 0.  1.
    8880022    1    1    2    0    0  0.41140687801E+03 -0.67205590694E+03 -0.10937958513E+04  0.13567224398E+04  0.15294330000E+03 0.  0.
    8880022    1    1    2    0    0 -0.41140687801E+03  0.67205590694E+03  0.10598346594E+04  0.13294946106E+04  0.15294330000E+03 0.  0.
<mgrwt>
<rscale>  0 0.80268700E+03</rscale>
<asrwt>0</asrwt>
<pdfrwt beam="1">  1        2 0.20401968E+00 0.80268700E+03</pdfrwt>
<pdfrwt beam="2">  1       -2 0.20924448E+00 0.80268700E+03</pdfrwt>
<totfact> 0.18885432E+00</totfact>
</mgrwt>
</event>
<event>
 4    1  0.2061941E-008  0.8421441E+03  0.7818608E-02  0.9500942E-01
          2   -1    0    0  501    0  0.00000000000E+00  0.00000000000E+00  0.24632840318E+04  0.24632840318E+04  0.25500000000E-02 0. -1.
         -2   -1    0    0    0  501 -0.00000000000E+00 -0.00000000000E+00 -0.12353432560E+04  0.12353432560E+04  0.25500000000E-02 0.  1.
    8880022    1    1    2    0    0  0.19983715430E+02 -0.82789835074E+03 -0.10055664179E+04  0.13116289498E+04  0.15294330000E+03 0.  0.
    8880022    1    1    2    0    0 -0.19983715430E+02  0.82789835074E+03  0.22335071938E+04  0.23869983380E+04  0.15294330000E+03 0.  0.
<mgrwt>
<rscale>  0 0.84214410E+03</rscale>
<asrwt>0</asrwt>
<pdfrwt beam="1">  1        2 0.37896677E+00 0.84214410E+03</pdfrwt>
<pdfrwt beam="2">  1       -2 0.19005281E+00 0.84214410E+03</pdfrwt>
<totfact> 0.58599663E-01</totfact>
</mgrwt>
</event>
<event>
 4    1  0.2061941E-008  0.1175514E+04  0.7818608E-02  0.9134563E-01
         -2   -1    0    0    0  501 -0.00000000000E+00  0.00000000000E+00  0.12034958026E+04  0.12034958026E+04  0.25500000000E-02 0.  1.
          2   -1    0    0  501    0  0.00000000000E+00 -0.00000000000E+00 -0.15883781718E+04  0.15883781718E+04  0.25500000000E-02 0. -1.
    8880022    1    1    2    0    0 -0.11650613985E+04  0.32760104479E+02 -0.92731317438E+03  0.14972450244E+04  0.15294330000E+03 0.  0.
    8880022    1    1    2    0    0  0.11650613985E+04 -0.32760104479E+02  0.54243080517E+03  0.12946289500E+04  0.15294330000E+03 0.  0.
<mgrwt>
<rscale>  0 0.11755139E+04</rscale>
<asrwt>0</asrwt>
<pdfrwt beam="1">  1        2 0.24436587E+00 0.11755139E+04</pdfrwt>
<pdfrwt beam="2">  1       -2 0.18515320E+00 0.11755139E+04</pdfrwt>
<totfact> 0.18408358E+00</totfact>
</mgrwt>
</event>
<event>
 4    1  0.2061941E-008  0.4713989E+03  0.7818608E-02  0.1021526E+00
         -2   -1    0    0    0  501 -0.00000000000E+00  0.00000000000E+00  0.78479283143E+03  0.78479283144E+03  0.25500000000E-02 0.  1.
          2   -1    0    0  501    0  0.00000000000E+00 -0.00000000000E+00 -0.12788640746E+04  0.12788640746E+04  0.25500000000E-02 0. -1.
    8880022    1    1    2    0    0  0.55016587481E+02 -0.44249121490E+03 -0.11574976402E+04  0.12498070812E+04  0.15294330000E+03 0.  0.
    8880022    1    1    2    0    0 -0.55016587481E+02  0.44249121490E+03  0.66342639700E+03  0.81384982486E+03  0.15294330000E+03 0.  0.
<mgrwt>
<rscale>  0 0.47139893E+03</rscale>
<asrwt>0</asrwt>
<pdfrwt beam="1">  1        2 0.19674832E+00 0.47139893E+03</pdfrwt>
<pdfrwt beam="2">  1       -2 0.12073736E+00 0.47139893E+03</pdfrwt>
<totfact> 0.95088752E+00</totfact>
</mgrwt>
</event>
<event>
 4    1  0.2061941E-008  0.3637694E+03  0.7818608E-02  0.1057101E+00
          2   -1    0    0  501    0  0.00000000000E+00  0.00000000000E+00  0.93766259538E+03  0.93766259538E+03  0.25500000000E-02 0. -1.
         -2   -1    0    0    0  501 -0.00000000000E+00 -0.00000000000E+00 -0.14915831852E+04  0.14915831852E+04  0.25500000000E-02 0.  1.
    8880022    1    1    2    0    0  0.32815212392E+03 -0.35394051777E+02 -0.14326951050E+04  0.14781554290E+04  0.15294330000E+03 0.  0.
    8880022    1    1    2    0    0 -0.32815212392E+03  0.35394051777E+02  0.87877451518E+03  0.95109035159E+03  0.15294330000E+03 0.  0.
<mgrwt>
<rscale>  0 0.36376944E+03</rscale>
<asrwt>0</asrwt>
<pdfrwt beam="1">  1        2 0.14425578E+00 0.36376944E+03</pdfrwt>
<pdfrwt beam="2">  1       -2 0.22947434E+00 0.36376944E+03</pdfrwt>
<totfact> 0.26742044E+00</totfact>
</mgrwt>
</event>
<event>
 4    1  0.2061941E-008  0.2378080E+03  0.7818608E-02  0.1121262E+00
          2   -1    0    0  501    0  0.00000000000E+00  0.00000000000E+00  0.15501157988E+04  0.15501157988E+04  0.25500000000E-02 0. -1.
         -2   -1    0    0    0  501 -0.00000000000E+00 -0.00000000000E+00 -0.13520954026E+03  0.13520954028E+03  0.25500000000E-02 0.  1.
    8880022    1    1    2    0    0  0.54677296008E+02  0.17369914986E+03  0.14275109279E+04  0.14471835072E+04  0.15294330000E+03 0.  0.
    8880022    1    1    2    0    0 -0.54677296008E+02 -0.17369914986E+03 -0.12604669369E+02  0.23814183183E+03  0.15294330000E+03 0.  0.
<mgrwt>
<rscale>  0 0.23780802E+03</rscale>
<asrwt>0</asrwt>
<pdfrwt beam="1">  1        2 0.23847937E+00 0.23780802E+03</pdfrwt>
<pdfrwt beam="2">  1       -2 0.20801467E-01 0.23780802E+03</pdfrwt>
<totfact> 0.25546690E+02</totfact>
</mgrwt>
</event>
<event>
 4    1  0.2061941E-008  0.4676652E+03  0.7818608E-02  0.1022581E+00
         -2   -1    0    0    0  501 -0.00000000000E+00  0.00000000000E+00  0.12300867887E+03  0.12300867889E+03  0.25500000000E-02 0.  1.
          2   -1    0    0  501    0  0.00000000000E+00 -0.00000000000E+00 -0.31343461713E+04  0.31343461713E+04  0.25500000000E-02 0. -1.
    8880022    1    1    2    0    0 -0.42877796191E+03 -0.10709108958E+03 -0.25770529139E+04  0.26191434509E+04  0.15294330000E+03 0.  0.
    8880022    1    1    2    0    0  0.42877796191E+03  0.10709108958E+03 -0.43428457853E+03  0.63821139934E+03  0.15294330000E+03 0.  0.
<mgrwt>
<rscale>  0 0.46766515E+03</rscale>
<asrwt>0</asrwt>
<pdfrwt beam="1">  1        2 0.48220704E+00 0.46766515E+03</pdfrwt>
<pdfrwt beam="2">  1       -2 0.18924415E-01 0.46766515E+03</pdfrwt>
<totfact> 0.37719056E+01</totfact>
</mgrwt>
</event>
<event>
 4    1  0.2061941E-008  0.1148692E+04  0.7818608E-02  0.9158991E-01
         -2   -1    0    0    0  501 -0.00000000000E+00  0.00000000000E+00  0.12775586549E+04  0.12775586549E+04  0.25500000000E-02 0.  1.
          2   -1    0    0  501    0  0.00000000000E+00 -0.00000000000E+00 -0.11649994787E+04  0.11649994787E+04  0.25500000000E-02 0. -1.
    8880022    1    1    2    0    0  0.10795182778E+04  0.36158278554E+03 -0.35508527217E+03  0.12023223471E+04  0.15294330000E+03 0.  0.
    8880022    1    1    2    0    0 -0.10795182778E+04 -0.36158278554E+03  0.46764444842E+03  0.12402357865E+04  0.15294330000E+03 0.  0.
<mgrwt>
<rscale>  0 0.11486921E+04</rscale>
<asrwt>0</asrwt>
<pdfrwt beam="1">  1        2 0.17923069E+00 0.11486921E+04</pdfrwt>
<pdfrwt beam="2">  1       -2 0.19654749E+00 0.11486921E+04</pdfrwt>
<totfact> 0.27204481E+00</totfact>
</mgrwt>
</event>
<event>
 4    1  0.2061941E-008  0.6667909E+03  0.7818608E-02  0.9775773E-01
         -2   -1    0    0    0  501 -0.00000000000E+00  0.00000000000E+00  0.39869424071E+03  0.39869424072E+03  0.25500000000E-02 0.  1.
          2   -1    0    0  501    0  0.00000000000E+00 -0.00000000000E+00 -0.18615066270E+04  0.18615066270E+04  0.25500000000E-02 0. -1.
    8880022    1    1    2    0    0 -0.53147933006E+03 -0.37248919388E+03 -0.14469782703E+04  0.15932219700E+04  0.15294330000E+03 0.  0.
    8880022    1    1    2    0    0  0.53147933006E+03  0.37248919388E+03 -0.15834116009E+02  0.66697889777E+03  0.15294330000E+03 0.  0.
<mgrwt>
<rscale>  0 0.66679092E+03</rscale>
<asrwt>0</asrwt>
<pdfrwt beam="1">  1        2 0.28638563E+00 0.66679092E+03</pdfrwt>
<pdfrwt beam="2">  1       -2 0.61337576E-01 0.66679092E+03</pdfrwt>
<totfact> 0.20567521E+01</totfact>
</mgrwt>
</event>
<event>
 4    1  0.2061941E-008  0.1876362E+03  0.7818608E-02  0.1160611E+00
          2   -1    0    0  501    0  0.00000000000E+00  0.00000000000E+00  0.21715176281E+03  0.21715176282E+03  0.25500000000E-02 0. -1.
         -2   -1    0    0    0  501 -0.00000000000E+00 -0.00000000000E+00 -0.20211819443E+04  0.20211819443E+04  0.25500000000E-02 0.  1.
    8880022    1    1    2    0    0 -0.17285659456E+02  0.10731673088E+03  0.17132566657E+03  0.25408622905E+03  0.15294330000E+03 0. -1.
    8880022    1    1    2    0    0  0.17285659456E+02 -0.10731673088E+03 -0.19753558480E+04  0.19842474780E+04  0.15294330000E+03 0.  0.
<mgrwt>
<rscale>  0 0.18763616E+03</rscale>
<asrwt>0</asrwt>
<pdfrwt beam="1">  1        2 0.33407965E-01 0.18763616E+03</pdfrwt>
<pdfrwt beam="2">  1       -2 0.31095106E+00 0.18763616E+03</pdfrwt>
<totfact> 0.51278400E+00</totfact>
</mgrwt>
</event>
<event>
 4    1  0.2061941E-008  0.1225121E+04  0.7818608E-02  0.9091148E-01
         -2   -1    0    0    0  501 -0.00000000000E+00  0.00000000000E+00  0.67602930509E+03  0.67602930509E+03  0.25500000000E-02 0.  1.
          2   -1    0    0  501    0  0.00000000000E+00 -0.00000000000E+00 -0.26721581041E+04  0.26721581041E+04  0.25500000000E-02 0. -1.
    8880022    1    1    2    0    0 -0.38640860464E+03 -0.11524839855E+04 -0.30957680958E+03  0.12636298512E+04  0.15294330000E+03 0.  0.
    8880022    1    1    2    0    0  0.38640860464E+03  0.11524839855E+04 -0.16865519894E+04  0.20845575580E+04  0.15294330000E+03 0.  0.
<mgrwt>
<rscale>  0 0.12251215E+04</rscale>
<asrwt>0</asrwt>
<pdfrwt beam="1">  1        2 0.41110124E+00 0.12251215E+04</pdfrwt>
<pdfrwt beam="2">  1       -2 0.10400451E+00 0.12251215E+04</pdfrwt>
<totfact> 0.20374693E+00</totfact>
</mgrwt>
</event>
<event>
 4    1  0.2061941E-008  0.1272516E+04  0.7818608E-02  0.9051648E-01
          2   -1    0    0  501    0  0.00000000000E+00  0.00000000000E+00  0.23184940540E+04  0.23184940540E+04  0.25500000000E-02 0. -1.
         -2   -1    0    0    0  501 -0.00000000000E+00 -0.00000000000E+00 -0.81176171103E+03  0.81176171103E+03  0.25500000000E-02 0.  1.
    8880022    1    1    2    0    0 -0.98859354762E+03 -0.78650412815E+03  0.16855178351E+03  0.12836305164E+04  0.15294330000E+03 0.  0.
    8880022    1    1    2    0    0  0.98859354762E+03  0.78650412815E+03  0.13381805594E+04  0.18466252486E+04  0.15294330000E+03 0.  0.
<mgrwt>
<rscale>  0 0.12725162E+04</rscale>
<asrwt>0</asrwt>
<pdfrwt beam="1">  1        2 0.35669139E+00 0.12725162E+04</pdfrwt>
<pdfrwt beam="2">  1       -2 0.12488642E+00 0.12725162E+04</pdfrwt>
<totfact> 0.20633393E+00</totfact>
</mgrwt>
</event>
<event>
 4    1  0.2061941E-008  0.6217919E+03  0.7818608E-02  0.9861198E-01
          2   -1    0    0  501    0  0.00000000000E+00  0.00000000000E+00  0.22118484177E+04  0.22118484177E+04  0.25500000000E-02 0. -1.
         -2   -1    0    0    0  501 -0.00000000000E+00 -0.00000000000E+00 -0.58107569358E+03  0.58107569359E+03  0.25500000000E-02 0.  1.
    8880022    1    1    2    0    0 -0.59318967174E+03 -0.10658130892E+03  0.19830684765E+04  0.20782650932E+04  0.15294330000E+03 0.  0.
    8880022    1    1    2    0    0  0.59318967174E+03  0.10658130892E+03 -0.35229575234E+03  0.71465901814E+03  0.15294330000E+03 0.  0.
<mgrwt>
<rscale>  0 0.62179194E+03</rscale>
<asrwt>0</asrwt>
<pdfrwt beam="1">  1        2 0.34028437E+00 0.62179194E+03</pdfrwt>
<pdfrwt beam="2">  1       -2 0.89396262E-01 0.62179194E+03</pdfrwt>
<totfact> 0.58215985E+00</totfact>
</mgrwt>
</event>
<event>
 4    1  0.2061941E-008  0.1247736E+04  0.7818608E-02  0.9072070E-01
          2   -1    0    0  501    0  0.00000000000E+00  0.00000000000E+00  0.13851044658E+04  0.13851044658E+04  0.25500000000E-02 0. -1.
         -2   -1    0    0    0  501 -0.00000000000E+00 -0.00000000000E+00 -0.15429670212E+04  0.15429670212E+04  0.25500000000E-02 0.  1.
    8880022    1    1    2    0    0  0.28117526499E+03  0.12059827565E+04 -0.84183143307E+03  0.15051663540E+04  0.15294330000E+03 0.  0.
    8880022    1    1    2    0    0 -0.28117526499E+03 -0.12059827565E+04  0.68396887774E+03  0.14229051329E+04  0.15294330000E+03 0.  0.
<mgrwt>
<rscale>  0 0.12477362E+04</rscale>
<asrwt>0</asrwt>
<pdfrwt beam="1">  1        2 0.21309299E+00 0.12477362E+04</pdfrwt>
<pdfrwt beam="2">  1       -2 0.23737954E+00 0.12477362E+04</pdfrwt>
<totfact> 0.10962808E+00</totfact>
</mgrwt>
</event>
<event>
 4    1  0.2061941E-008  0.9849081E+03  0.7818608E-02  0.9325254E-01
         -2   -1    0    0    0  501 -0.00000000000E+00  0.00000000000E+00  0.18336225927E+04  0.18336225927E+04  0.25500000000E-02 0.  1.
          2   -1    0    0  501    0  0.00000000000E+00 -0.00000000000E+00 -0.57022050629E+03  0.57022050630E+03  0.25500000000E-02 0. -1.
    8880022    1    1    2    0    0  0.96775440728E+03  0.10051712959E+03  0.30866881254E+03  0.10321435826E+04  0.15294330000E+03 0.  0.
    8880022    1    1    2    0    0 -0.96775440728E+03 -0.10051712959E+03  0.95473327385E+03  0.13716995164E+04  0.15294330000E+03 0.  0.
<mgrwt>
<rscale>  0 0.98490809E+03</rscale>
<asrwt>0</asrwt>
<pdfrwt beam="1">  1        2 0.87726232E-01 0.98490809E+03</pdfrwt>
<pdfrwt beam="2">  1       -2 0.28209578E+00 0.98490809E+03</pdfrwt>
<totfact> 0.21679648E+00</totfact>
</mgrwt>
</event>
<event>
 4    1  0.2061941E-008  0.1060899E+04  0.7818608E-02  0.9244164E-01
          2   -1    0    0  501    0  0.00000000000E+00  0.00000000000E+00  0.11329181349E+04  0.11329181349E+04  0.25500000000E-02 0. -1.
         -2   -1    0    0    0  501 -0.00000000000E+00 -0.00000000000E+00 -0.24968637837E+04  0.24968637837E+04  0.25500000000E-02 0.  1.
    8880022    1    1    2    0    0  0.77545991158E+03 -0.70765527083E+03  0.72631470013E+03  0.12857055469E+04  0.15294330000E+03 0.  0.
    8880022    1    1    2    0    0 -0.77545991158E+03  0.70765527083E+03 -0.20902603490E+04  0.23440763717E+04  0.15294330000E+03 0.  0.
<mgrwt>
<rscale>  0 0.10608985E+04</rscale>
<asrwt>0</asrwt>
<pdfrwt beam="1">  1        2 0.17429510E+00 0.10608985E+04</pdfrwt>
<pdfrwt beam="2">  1       -2 0.38413289E+00 0.10608985E+04</pdfrwt>
<totfact> 0.19678162E-01</totfact>
</mgrwt>
</event>
<event>
 4    1  0.2061941E-008  0.6787442E+03  0.7818608E-02  0.9754289E-01
         -2   -1    0    0    0  501 -0.00000000000E+00  0.00000000000E+00  0.10729178605E+04  0.10729178605E+04  0.25500000000E-02 0.  1.
          2   -1    0    0  501    0  0.00000000000E+00 -0.00000000000E+00 -0.94299113221E+03  0.94299113222E+03  0.25500000000E-02 0. -1.
    8880022    1    1    2    0    0 -0.65477759023E+03 -0.92565190161E+02 -0.67891629867E+03  0.96001093781E+03  0.15294330000E+03 0.  0.
    8880022    1    1    2    0    0  0.65477759023E+03  0.92565190161E+02  0.80884302698E+03  0.10558980549E+04  0.15294330000E+03 0.  0.
<mgrwt>
<rscale>  0 0.67874418E+03</rscale>
<asrwt>0</asrwt>
<pdfrwt beam="1">  1        2 0.14507556E+00 0.67874418E+03</pdfrwt>
<pdfrwt beam="2">  1       -2 0.16506429E+00 0.67874418E+03</pdfrwt>
<totfact> 0.65296547E+00</totfact>
</mgrwt>
</event>
<event>
 4    1  0.2061941E-008  0.9419125E+03  0.7818608E-02  0.9374654E-01
         -2   -1    0    0    0  501 -0.00000000000E+00  0.00000000000E+00  0.19706266037E+04  0.19706266037E+04  0.25500000000E-02 0.  1.
          2   -1    0    0  501    0  0.00000000000E+00 -0.00000000000E+00 -0.98876689702E+03  0.98876689702E+03  0.25500000000E-02 0. -1.
    8880022    1    1    2    0    0 -0.90219679899E+03  0.22326781845E+03  0.15829756577E+04  0.18420128036E+04  0.15294330000E+03 0.  0.
    8880022    1    1    2    0    0  0.90219679899E+03 -0.22326781845E+03 -0.60111595095E+03  0.11173806972E+04  0.15294330000E+03 0.  0.
<mgrwt>
<rscale>  0 0.94191254E+03</rscale>
<asrwt>0</asrwt>
<pdfrwt beam="1">  1        2 0.15211799E+00 0.94191254E+03</pdfrwt>
<pdfrwt beam="2">  1       -2 0.30317332E+00 0.94191254E+03</pdfrwt>
<totfact> 0.78859301E-01</totfact>
</mgrwt>
</event>
<event>
 4    1  0.2061941E-008  0.8280150E+03  0.7818608E-02  0.9520329E-01
         -2   -1    0    0    0  501 -0.00000000000E+00  0.00000000000E+00  0.22588130341E+04  0.22588130341E+04  0.25500000000E-02 0.  1.
          2   -1    0    0  501    0  0.00000000000E+00 -0.00000000000E+00 -0.13295874246E+04  0.13295874246E+04  0.25500000000E-02 0. -1.
    8880022    1    1    2    0    0 -0.76875758715E+03  0.26688767697E+03  0.20407684380E+04  0.22023498202E+04  0.15294330000E+03 0.  0.
    8880022    1    1    2    0    0  0.76875758715E+03 -0.26688767697E+03 -0.11115428285E+04  0.13860506385E+04  0.15294330000E+03 0. -1.
<mgrwt>
<rscale>  0 0.82801504E+03</rscale>
<asrwt>0</asrwt>
<pdfrwt beam="1">  1        2 0.20455192E+00 0.82801504E+03</pdfrwt>
<pdfrwt beam="2">  1       -2 0.34750969E+00 0.82801504E+03</pdfrwt>
<totfact> 0.26790488E-01</totfact>
</mgrwt>
</event>
<event>
 4    1  0.2061941E-008  0.6519060E+03  0.7818608E-02  0.9803209E-01
          2   -1    0    0  501    0  0.00000000000E+00  0.00000000000E+00  0.11854841236E+04  0.11854841236E+04  0.25500000000E-02 0. -1.
         -2   -1    0    0    0  501 -0.00000000000E+00 -0.00000000000E+00 -0.88831177918E+03  0.88831177918E+03  0.25500000000E-02 0.  1.
    8880022    1    1    2    0    0  0.57232709470E+03 -0.27208731648E+03  0.94937712212E+03  0.11516502873E+04  0.15294330000E+03 0.  0.
    8880022    1    1    2    0    0 -0.57232709470E+03  0.27208731648E+03 -0.65220477771E+03  0.92214561551E+03  0.15294330000E+03 0.  0.
<mgrwt>
<rscale>  0 0.65190602E+03</rscale>
<asrwt>0</asrwt>
<pdfrwt beam="1">  1        2 0.18238217E+00 0.65190602E+03</pdfrwt>
<pdfrwt beam="2">  1       -2 0.13666335E+00 0.65190602E+03</pdfrwt>
<totfact> 0.76433601E+00</totfact>
</mgrwt>
</event>
<event>
 4    1  0.2061941E-008  0.1527696E+04  0.7818608E-02  0.8866241E-01
          2   -1    0    0  501    0  0.00000000000E+00  0.00000000000E+00  0.13558073324E+04  0.13558073324E+04  0.25500000000E-02 0. -1.
         -2   -1    0    0    0  501 -0.00000000000E+00 -0.00000000000E+00 -0.20358701443E+04  0.20358701443E+04  0.25500000000E-02 0.  1.
    8880022    1    1    2    0    0 -0.15138061379E+04 -0.13731597125E+03  0.32649092125E+03  0.15621948258E+04  0.15294330000E+03 0.  0.
    8880022    1    1    2    0    0  0.15138061379E+04  0.13731597125E+03 -0.10065537332E+04  0.18294826509E+04  0.15294330000E+03 0.  0.
<mgrwt>
<rscale>  0 0.15276964E+04</rscale>
<asrwt>0</asrwt>
<pdfrwt beam="1">  1        2 0.20858574E+00 0.15276964E+04</pdfrwt>
<pdfrwt beam="2">  1       -2 0.31321079E+00 0.15276964E+04</pdfrwt>
<totfact> 0.38028862E-01</totfact>
</mgrwt>
</event>
<event>
 4    1  0.2061941E-008  0.8750668E+03  0.7818608E-02  0.9457297E-01
          2   -1    0    0  501    0  0.00000000000E+00  0.00000000000E+00  0.29273436671E+04  0.29273436671E+04  0.25500000000E-02 0. -1.
         -2   -1    0    0    0  501 -0.00000000000E+00 -0.00000000000E+00 -0.40634532843E+03  0.40634532844E+03  0.25500000000E-02 0.  1.
    8880022    1    1    2    0    0 -0.25719945984E+03  0.82231300273E+03  0.26560709175E+03  0.91448839075E+03  0.15294330000E+03 0.  0.
    8880022    1    1    2    0    0  0.25719945984E+03 -0.82231300273E+03  0.22553912469E+04  0.24192006048E+04  0.15294330000E+03 0.  0.
<mgrwt>
<rscale>  0 0.87506679E+03</rscale>
<asrwt>0</asrwt>
<pdfrwt beam="1">  1        2 0.45036056E+00 0.87506679E+03</pdfrwt>
<pdfrwt beam="2">  1       -2 0.62514667E-01 0.87506679E+03</pdfrwt>
<totfact> 0.47713804E+00</totfact>
</mgrwt>
</event>
<event>
 4    1  0.2061941E-008  0.1283915E+04  0.7818608E-02  0.9042419E-01
         -2   -1    0    0    0  501 -0.00000000000E+00  0.00000000000E+00  0.11865461059E+04  0.11865461059E+04  0.25500000000E-02 0.  1.
          2   -1    0    0  501    0  0.00000000000E+00 -0.00000000000E+00 -0.16168396144E+04  0.16168396144E+04  0.25500000000E-02 0. -1.
    8880022    1    1    2    0    0 -0.12342844772E+04 -0.31872884533E+03  0.31071612242E+03  0.13209778231E+04  0.15294330000E+03 0.  0.
    8880022    1    1    2    0    0  0.12342844772E+04  0.31872884533E+03 -0.74100963089E+03  0.14824078972E+04  0.15294330000E+03 0.  0.
<mgrwt>
<rscale>  0 0.12839151E+04</rscale>
<asrwt>0</asrwt>
<pdfrwt beam="1">  1        2 0.24874456E+00 0.12839151E+04</pdfrwt>
<pdfrwt beam="2">  1       -2 0.18254555E+00 0.12839151E+04</pdfrwt>
<totfact> 0.18278923E+00</totfact>
</mgrwt>
</event>
<event>
 4    1  0.2061941E-008  0.8114423E+03  0.7818608E-02  0.9543601E-01
         -2   -1    0    0    0  501 -0.00000000000E+00  0.00000000000E+00  0.10071687734E+04  0.10071687734E+04  0.25500000000E-02 0.  1.
          2   -1    0    0  501    0  0.00000000000E+00 -0.00000000000E+00 -0.19282640029E+04  0.19282640029E+04  0.25500000000E-02 0. -1.
    8880022    1    1    2    0    0 -0.20801450239E+03  0.76927037180E+03  0.73270079147E+03  0.10932927517E+04  0.15294330000E+03 0.  0.
    8880022    1    1    2    0    0  0.20801450239E+03 -0.76927037180E+03 -0.16537960210E+04  0.18421400246E+04  0.15294330000E+03 0.  0.
<mgrwt>
<rscale>  0 0.81144229E+03</rscale>
<asrwt>0</asrwt>
<pdfrwt beam="1">  1        2 0.29665600E+00 0.81144229E+03</pdfrwt>
<pdfrwt beam="2">  1       -2 0.15494904E+00 0.81144229E+03</pdfrwt>
<totfact> 0.20635480E+00</totfact>
</mgrwt>
</event>
<event>
 4    1  0.2061941E-008  0.2704920E+03  0.7818608E-02  0.1100998E+00
         -2   -1    0    0    0  501 -0.00000000000E+00  0.00000000000E+00  0.12459002736E+04  0.12459002736E+04  0.25500000000E-02 0.  1.
          2   -1    0    0  501    0  0.00000000000E+00 -0.00000000000E+00 -0.12712761697E+03  0.12712761700E+03  0.25500000000E-02 0. -1.
    8880022    1    1    2    0    0 -0.14944460005E+03  0.16565190629E+03  0.55810651640E+02  0.27618965294E+03  0.15294330000E+03 0.  0.
    8880022    1    1    2    0    0  0.14944460005E+03 -0.16565190629E+03  0.10629620050E+04  0.10968382376E+04  0.15294330000E+03 0.  0.
<mgrwt>
<rscale>  0 0.27049195E+03</rscale>
<asrwt>0</asrwt>
<pdfrwt beam="1">  1        2 0.19558095E-01 0.27049195E+03</pdfrwt>
<pdfrwt beam="2">  1       -2 0.19167697E+00 0.27049195E+03</pdfrwt>
<totfact> 0.46636500E+01</totfact>
</mgrwt>
</event>
<event>
 4    1  0.2061941E-008  0.1107295E+04  0.7818608E-02  0.9198111E-01
          2   -1    0    0  501    0  0.00000000000E+00  0.00000000000E+00  0.19326118123E+04  0.19326118123E+04  0.25500000000E-02 0. -1.
         -2   -1    0    0    0  501 -0.00000000000E+00 -0.00000000000E+00 -0.16418189457E+04  0.16418189457E+04  0.25500000000E-02 0.  1.
    8880022    1    1    2    0    0 -0.48645869631E+03  0.98288798537E+03  0.15453490709E+04  0.19011065880E+04  0.15294330000E+03 0.  0.
    8880022    1    1    2    0    0  0.48645869631E+03 -0.98288798537E+03 -0.12545562044E+04  0.16733241700E+04  0.15294330000E+03 0.  0.
<mgrwt>
<rscale>  0 0.11072951E+04</rscale>
<asrwt>0</asrwt>
<pdfrwt beam="1">  1        2 0.29732490E+00 0.11072951E+04</pdfrwt>
<pdfrwt beam="2">  1       -2 0.25258753E+00 0.11072951E+04</pdfrwt>
<totfact> 0.44481063E-01</totfact>
</mgrwt>
</event>
<event>
 4    1  0.2061941E-008  0.8034202E+03  0.7818608E-02  0.9555080E-01
          2   -1    0    0  501    0  0.00000000000E+00  0.00000000000E+00  0.16989226860E+04  0.16989226860E+04  0.25500000000E-02 0. -1.
         -2   -1    0    0    0  501 -0.00000000000E+00 -0.00000000000E+00 -0.46481339552E+03  0.46481339553E+03  0.25500000000E-02 0.  1.
    8880022    1    1    2    0    0 -0.78280391259E+03 -0.96490310454E+02  0.10793588254E+04  0.13455480194E+04  0.15294330000E+03 0.  0.
    8880022    1    1    2    0    0  0.78280391259E+03  0.96490310454E+02  0.15475046513E+03  0.81818806216E+03  0.15294330000E+03 0.  0.
<mgrwt>
<rscale>  0 0.80342019E+03</rscale>
<asrwt>0</asrwt>
<pdfrwt beam="1">  1        2 0.26137272E+00 0.80342019E+03</pdfrwt>
<pdfrwt beam="2">  1       -2 0.71509754E-01 0.80342019E+03</pdfrwt>
<totfact> 0.17787351E+01</totfact>
</mgrwt>
</event>
<event>
 4    1  0.2061941E-008  0.7346199E+03  0.7818608E-02  0.9659793E-01
         -2   -1    0    0    0  501 -0.00000000000E+00  0.00000000000E+00  0.25122953759E+04  0.25122953759E+04  0.25500000000E-02 0.  1.
          2   -1    0    0  501    0  0.00000000000E+00 -0.00000000000E+00 -0.13152473584E+04  0.13152473584E+04  0.25500000000E-02 0. -1.
    8880022    1    1    2    0    0 -0.40365699490E+03 -0.59442054158E+03  0.23490516712E+04  0.24612415885E+04  0.15294330000E+03 0.  0.
    8880022    1    1    2    0    0  0.40365699490E+03  0.59442054158E+03 -0.11520036537E+04  0.13663011458E+04  0.15294330000E+03 0.  0.
<mgrwt>
<rscale>  0 0.73461990E+03</rscale>
<asrwt>0</asrwt>
<pdfrwt beam="1">  1        2 0.20234575E+00 0.73461990E+03</pdfrwt>
<pdfrwt beam="2">  1       -2 0.38650698E+00 0.73461990E+03</pdfrwt>
<totfact> 0.15832866E-01</totfact>
</mgrwt>
</event>
<event>
 4    1  0.2061941E-008  0.3676623E+03  0.7818608E-02  0.1055590E+00
          2   -1    0    0  501    0  0.00000000000E+00  0.00000000000E+00  0.19461779084E+04  0.19461779084E+04  0.25500000000E-02 0. -1.
         -2   -1    0    0    0  501 -0.00000000000E+00 -0.00000000000E+00 -0.31404970672E+03  0.31404970673E+03  0.25500000000E-02 0.  1.
    8880022    1    1    2    0    0  0.14034889896E+02 -0.33404629955E+03 -0.18127946488E+03  0.40992414637E+03  0.15294330000E+03 0.  0.
    8880022    1    1    2    0    0 -0.14034889896E+02  0.33404629955E+03  0.18134076665E+04  0.18503034687E+04  0.15294330000E+03 0.  0.
<mgrwt>
<rscale>  0 0.36766229E+03</rscale>
<asrwt>0</asrwt>
<pdfrwt beam="1">  1        2 0.29941199E+00 0.36766229E+03</pdfrwt>
<pdfrwt beam="2">  1       -2 0.48315339E-01 0.36766229E+03</pdfrwt>
<totfact> 0.32122694E+01</totfact>
</mgrwt>
</event>
<event>
 4    1  0.2061941E-008  0.2096220E+03  0.7818608E-02  0.1141866E+00
         -2   -1    0    0    0  501 -0.00000000000E+00  0.00000000000E+00  0.21726819277E+04  0.21726819277E+04  0.25500000000E-02 0.  1.
          2   -1    0    0  501    0  0.00000000000E+00 -0.00000000000E+00 -0.18027173754E+04  0.18027173754E+04  0.25500000000E-02 0. -1.
    8880022    1    1    2    0    0  0.10561450566E+03 -0.96929366109E+02 -0.17915360347E+04  0.18037579501E+04  0.15294330000E+03 0.  0.
    8880022    1    1    2    0    0 -0.10561450566E+03  0.96929366109E+02  0.21615005870E+04  0.21716413531E+04  0.15294330000E+03 0.  1.
<mgrwt>
<rscale>  0 0.20962199E+03</rscale>
<asrwt>0</asrwt>
<pdfrwt beam="1">  1        2 0.27734114E+00 0.20962199E+03</pdfrwt>
<pdfrwt beam="2">  1       -2 0.33425876E+00 0.20962199E+03</pdfrwt>
<totfact> 0.23276407E-01</totfact>
</mgrwt>
</event>
<event>
 4    1  0.2541413E-008  0.7997650E+03  0.7818608E-02  0.9560357E-01
         -2   -1    0    0    0  501 -0.00000000000E+00  0.00000000000E+00  0.17910153030E+04  0.17910153030E+04  0.25500000000E-02 0.  1.
          2   -1    0    0  501    0  0.00000000000E+00 -0.00000000000E+00 -0.20112315770E+04  0.20112315770E+04  0.25500000000E-02 0. -1.
    8880022    1    1    2    0    0 -0.17208534771E+03  0.76591056379E+03  0.16139839515E+04  0.18012684995E+04  0.15294330000E+03 0.  0.
    8880022    1    1    2    0    0  0.17208534771E+03 -0.76591056379E+03 -0.18342002255E+04  0.20009783804E+04  0.15294330000E+03 0.  0.
<mgrwt>
<rscale>  0 0.79976497E+03</rscale>
<asrwt>0</asrwt>
<pdfrwt beam="1">  1        2 0.30942024E+00 0.79976497E+03</pdfrwt>
<pdfrwt beam="2">  1       -2 0.27554082E+00 0.79976497E+03</pdfrwt>
<totfact> 0.30949293E-01</totfact>
</mgrwt>
</event>
<event>
 4    1  0.2061941E-008  0.6723733E+03  0.7818608E-02  0.9765680E-01
          2   -1    0    0  501    0  0.00000000000E+00  0.00000000000E+00  0.19541751755E+04  0.19541751755E+04  0.25500000000E-02 0. -1.
         -2   -1    0    0    0  501 -0.00000000000E+00 -0.00000000000E+00 -0.62940564701E+03  0.62940564702E+03  0.25500000000E-02 0.  1.
    8880022    1    1    2    0    0  0.58332163048E+03 -0.29737195360E+03  0.16896962477E+04  0.18185596680E+04  0.15294330000E+03 0.  0.
    8880022    1    1    2    0    0 -0.58332163048E+03  0.29737195360E+03 -0.36492671928E+03  0.76502115450E+03  0.15294330000E+03 0.  0.
<mgrwt>
<rscale>  0 0.67237330E+03</rscale>
<asrwt>0</asrwt>
<pdfrwt beam="1">  1        2 0.30064233E+00 0.67237330E+03</pdfrwt>
<pdfrwt beam="2">  1       -2 0.96831641E-01 0.67237330E+03</pdfrwt>
<totfact> 0.66192285E+00</totfact>
</mgrwt>
</event>
<event>
 4    1  0.2061941E-008  0.1100826E+04  0.7818608E-02  0.9204387E-01
         -2   -1    0    0    0  501 -0.00000000000E+00  0.00000000000E+00  0.60421395407E+03  0.60421395407E+03  0.25500000000E-02 0.  1.
          2   -1    0    0  501    0  0.00000000000E+00 -0.00000000000E+00 -0.31345480146E+04  0.31345480146E+04  0.25500000000E-02 0. -1.
    8880022    1    1    2    0    0  0.86070437916E+03 -0.66904031123E+03 -0.14329049391E+03  0.11101129605E+04  0.15294330000E+03 0.  0.
    8880022    1    1    2    0    0 -0.86070437916E+03  0.66904031123E+03 -0.23870435667E+04  0.26286490082E+04  0.15294330000E+03 0.  0.
<mgrwt>
<rscale>  0 0.11008263E+04</rscale>
<asrwt>0</asrwt>
<pdfrwt beam="1">  1        2 0.48223815E+00 0.11008263E+04</pdfrwt>
<pdfrwt beam="2">  1       -2 0.92955995E-01 0.11008263E+04</pdfrwt>
<totfact> 0.14130507E+00</totfact>
</mgrwt>
</event>
<event>
 4    1  0.2061941E-008  0.6360667E+03  0.7818608E-02  0.9833281E-01
          2   -1    0    0  501    0  0.00000000000E+00  0.00000000000E+00  0.17588493801E+04  0.17588493801E+04  0.25500000000E-02 0. -1.
         -2   -1    0    0    0  501 -0.00000000000E+00 -0.00000000000E+00 -0.23559496110E+03  0.23559496111E+03  0.25500000000E-02 0.  1.
    8880022    1    1    2    0    0 -0.54899392887E+03  0.28247982856E+03  0.60830626177E+03  0.88012348486E+03  0.15294330000E+03 0.  0.
    8880022    1    1    2    0    0  0.54899392887E+03 -0.28247982856E+03  0.91494815723E+03  0.11143208564E+04  0.15294330000E+03 0.  0.
<mgrwt>
<rscale>  0 0.63606670E+03</rscale>
<asrwt>0</asrwt>
<pdfrwt beam="1">  1        2 0.27059219E+00 0.63606670E+03</pdfrwt>
<pdfrwt beam="2">  1       -2 0.36245382E-01 0.63606670E+03</pdfrwt>
<totfact> 0.67608238E+01</totfact>
</mgrwt>
</event>
<event>
 4    1  0.2061941E-008  0.1083941E+04  0.7818608E-02  0.9220987E-01
         -2   -1    0    0    0  501 -0.00000000000E+00  0.00000000000E+00  0.12468111336E+04  0.12468111336E+04  0.25500000000E-02 0.  1.
          2   -1    0    0  501    0  0.00000000000E+00 -0.00000000000E+00 -0.26793859581E+04  0.26793859581E+04  0.25500000000E-02 0. -1.
    8880022    1    1    2    0    0  0.29209246631E+02 -0.10726990538E+04 -0.22969140849E+04  0.25398311768E+04  0.15294330000E+03 0.  0.
    8880022    1    1    2    0    0 -0.29209246631E+02  0.10726990538E+04  0.86433926032E+03  0.13863659150E+04  0.15294330000E+03 0.  0.
<mgrwt>
<rscale>  0 0.10839410E+04</rscale>
<asrwt>0</asrwt>
<pdfrwt beam="1">  1        2 0.41221322E+00 0.10839410E+04</pdfrwt>
<pdfrwt beam="2">  1       -2 0.19181710E+00 0.10839410E+04</pdfrwt>
<totfact> 0.40989974E-01</totfact>
</mgrwt>
</event>
<event>
 4    1  0.2061941E-008  0.1186982E+04  0.7818608E-02  0.9124328E-01
         -2   -1    0    0    0  501 -0.00000000000E+00  0.00000000000E+00  0.15845871437E+04  0.15845871437E+04  0.25500000000E-02 0.  1.
          2   -1    0    0  501    0  0.00000000000E+00 -0.00000000000E+00 -0.25427485654E+04  0.25427485654E+04  0.25500000000E-02 0. -1.
    8880022    1    1    2    0    0  0.11515775482E+04 -0.24373059421E+03  0.11851128703E+04  0.16773251386E+04  0.15294330000E+03 0.  0.
    8880022    1    1    2    0    0 -0.11515775482E+04  0.24373059421E+03 -0.21432742920E+04  0.24500105705E+04  0.15294330000E+03 0.  0.
<mgrwt>
<rscale>  0 0.11869824E+04</rscale>
<asrwt>0</asrwt>
<pdfrwt beam="1">  1        2 0.39119209E+00 0.11869824E+04</pdfrwt>
<pdfrwt beam="2">  1       -2 0.24378264E+00 0.11869824E+04</pdfrwt>
<totfact> 0.22602704E-01</totfact>
</mgrwt>
</event>
<event>
 4    1  0.2061941E-008  0.4450030E+03  0.7818608E-02  0.1029223E+00
         -2   -1    0    0    0  501 -0.00000000000E+00  0.00000000000E+00  0.17216467259E+03  0.17216467261E+03  0.25500000000E-02 0.  1.
          2   -1    0    0  501    0  0.00000000000E+00 -0.00000000000E+00 -0.21944123042E+04  0.21944123042E+04  0.25500000000E-02 0. -1.
    8880022    1    1    2    0    0  0.40729523892E+03 -0.93523072998E+02 -0.19487735812E+03  0.48580326733E+03  0.15294330000E+03 0.  0.
    8880022    1    1    2    0    0 -0.40729523892E+03  0.93523072998E+02 -0.18273702735E+04  0.18807737095E+04  0.15294330000E+03 0.  0.
<mgrwt>
<rscale>  0 0.44500295E+03</rscale>
<asrwt>0</asrwt>
<pdfrwt beam="1">  1        2 0.33760187E+00 0.44500295E+03</pdfrwt>
<pdfrwt beam="2">  1       -2 0.26486874E-01 0.44500295E+03</pdfrwt>
<totfact> 0.72563613E+01</totfact>
</mgrwt>
</event>
<event>
 4    1  0.2061941E-008  0.7162548E+03  0.7818608E-02  0.9689831E-01
          2   -1    0    0  501    0  0.00000000000E+00  0.00000000000E+00  0.28590993800E+04  0.28590993800E+04  0.25500000000E-02 0. -1.
         -2   -1    0    0    0  501 -0.00000000000E+00 -0.00000000000E+00 -0.95327867241E+03  0.95327867241E+03  0.25500000000E-02 0.  1.
    8880022    1    1    2    0    0 -0.34014507137E+03  0.61149861005E+03  0.26703552194E+04  0.27647455345E+04  0.15294330000E+03 0.  0.
    8880022    1    1    2    0    0  0.34014507137E+03 -0.61149861005E+03 -0.76453451186E+03  0.10476325179E+04  0.15294330000E+03 0.  0.
<mgrwt>
<rscale>  0 0.71625475E+03</rscale>
<asrwt>0</asrwt>
<pdfrwt beam="1">  1        2 0.43986145E+00 0.71625475E+03</pdfrwt>
<pdfrwt beam="2">  1       -2 0.14665826E+00 0.71625475E+03</pdfrwt>
<totfact> 0.72620949E-01</totfact>
</mgrwt>
</event>
<event>
 4    1  0.2061941E-008  0.6852179E+03  0.7818608E-02  0.9742851E-01
         -2   -1    0    0    0  501 -0.00000000000E+00  0.00000000000E+00  0.84528620529E+03  0.84528620530E+03  0.25500000000E-02 0.  1.
          2   -1    0    0  501    0  0.00000000000E+00 -0.00000000000E+00 -0.11969558438E+04  0.11969558438E+04  0.25500000000E-02 0. -1.
    8880022    1    1    2    0    0 -0.55258729437E+03 -0.37520557080E+03 -0.92337529115E+03  0.11498458678E+04  0.15294330000E+03 0.  0.
    8880022    1    1    2    0    0  0.55258729437E+03  0.37520557080E+03  0.57170565263E+03  0.89239618137E+03  0.15294330000E+03 0.  0.
<mgrwt>
<rscale>  0 0.68521792E+03</rscale>
<asrwt>0</asrwt>
<pdfrwt beam="1">  1        2 0.18414705E+00 0.68521792E+03</pdfrwt>
<pdfrwt beam="2">  1       -2 0.13004403E+00 0.68521792E+03</pdfrwt>
<totfact> 0.84941205E+00</totfact>
</mgrwt>
</event>
<event>
 4    1  0.2061941E-008  0.5050800E+03  0.7818608E-02  0.1012461E+00
          2   -1    0    0  501    0  0.00000000000E+00  0.00000000000E+00  0.22312980811E+04  0.22312980811E+04  0.25500000000E-02 0. -1.
         -2   -1    0    0    0  501 -0.00000000000E+00 -0.00000000000E+00 -0.11744987571E+03  0.11744987573E+03  0.25500000000E-02 0.  1.
    8880022    1    1    2    0    0 -0.37071881950E+03  0.30705322669E+03  0.12483069053E+04  0.13466164673E+04  0.15294330000E+03 0. -1.
    8880022    1    1    2    0    0  0.37071881950E+03 -0.30705322669E+03  0.86554130014E+03  0.10021314896E+04  0.15294330000E+03 0.  1.
<mgrwt>
<rscale>  0 0.50507997E+03</rscale>
<asrwt>0</asrwt>
<pdfrwt beam="1">  1        2 0.34327659E+00 0.50507997E+03</pdfrwt>
<pdfrwt beam="2">  1       -2 0.18069214E-01 0.50507997E+03</pdfrwt>
<totfact> 0.13426876E+02</totfact>
</mgrwt>
</event>
<event>
 4    1  0.2061941E-008  0.8659004E+03  0.7818608E-02  0.9469241E-01
          2   -1    0    0  501    0  0.00000000000E+00  0.00000000000E+00  0.17042878908E+04  0.17042878908E+04  0.25500000000E-02 0. -1.
         -2   -1    0    0    0  501 -0.00000000000E+00 -0.00000000000E+00 -0.61203557240E+03  0.61203557240E+03  0.25500000000E-02 0.  1.
    8880022    1    1    2    0    0 -0.59902878792E+03 -0.60626433798E+03  0.11602646792E+04  0.14477560965E+04  0.15294330000E+03 0.  0.
    8880022    1    1    2    0    0  0.59902878792E+03  0.60626433798E+03 -0.68012360752E+02  0.86856736670E+03  0.15294330000E+03 0.  0.
<mgrwt>
<rscale>  0 0.86590045E+03</rscale>
<asrwt>0</asrwt>
<pdfrwt beam="1">  1        2 0.26219813E+00 0.86590045E+03</pdfrwt>
<pdfrwt beam="2">  1       -2 0.94159320E-01 0.86590045E+03</pdfrwt>
<totfact> 0.94013528E+00</totfact>
</mgrwt>
</event>
<event>
 4    1  0.2860807E-008  0.1717316E+04  0.7818608E-02  0.8751550E-01
          2   -1    0    0  501    0  0.00000000000E+00  0.00000000000E+00  0.29104717695E+04  0.29104717695E+04  0.25500000000E-02 0. -1.
         -2   -1    0    0    0  501 -0.00000000000E+00 -0.00000000000E+00 -0.21666056899E+04  0.21666056899E+04  0.25500000000E-02 0.  1.
    8880022    1    1    2    0    0  0.13952302005E+03 -0.17047921699E+04  0.22240417909E+04  0.28098997414E+04  0.15294330000E+03 0.  0.
    8880022    1    1    2    0    0 -0.13952302005E+03  0.17047921699E+04 -0.14801757113E+04  0.22671777180E+04  0.15294330000E+03 0.  0.
<mgrwt>
<rscale>  0 0.17173161E+04</rscale>
<asrwt>0</asrwt>
<pdfrwt beam="1">  1        2 0.44776488E+00 0.17173161E+04</pdfrwt>
<pdfrwt beam="2">  1       -2 0.33332396E+00 0.17173161E+04</pdfrwt>
<totfact> 0.35784829E-02</totfact>
</mgrwt>
</event>
<event>
 4    1  0.2061941E-008  0.2242581E+04  0.7818608E-02  0.8500911E-01
         -2   -1    0    0    0  501 -0.00000000000E+00  0.00000000000E+00  0.18221773278E+04  0.18221773279E+04  0.25500000000E-02 0.  1.
          2   -1    0    0  501    0  0.00000000000E+00 -0.00000000000E+00 -0.30639611218E+04  0.30639611218E+04  0.25500000000E-02 0. -1.
    8880022    1    1    2    0    0 -0.13803551543E+04  0.17607940143E+04  0.14862751070E+03  0.22475003232E+04  0.15294330000E+03 0.  0.
    8880022    1    1    2    0    0  0.13803551543E+04 -0.17607940143E+04 -0.13904113046E+04  0.26386381264E+04  0.15294330000E+03 0.  0.
<mgrwt>
<rscale>  0 0.22425806E+04</rscale>
<asrwt>0</asrwt>
<pdfrwt beam="1">  1        2 0.47137863E+00 0.22425806E+04</pdfrwt>
<pdfrwt beam="2">  1       -2 0.28033497E+00 0.22425806E+04</pdfrwt>
<totfact> 0.57502700E-02</totfact>
</mgrwt>
</event>
<event>
 4    1  0.2061941E-008  0.3964857E+03  0.7818608E-02  0.1045003E+00
          2   -1    0    0  501    0  0.00000000000E+00  0.00000000000E+00  0.18402744772E+04  0.18402744772E+04  0.25500000000E-02 0. -1.
         -2   -1    0    0    0  501 -0.00000000000E+00 -0.00000000000E+00 -0.16265643473E+03  0.16265643475E+03  0.25500000000E-02 0.  1.
    8880022    1    1    2    0    0 -0.36176761208E+03  0.54161318176E+02  0.15288968026E+04  0.15794702718E+04  0.15294330000E+03 0.  0.
    8880022    1    1    2    0    0  0.36176761208E+03 -0.54161318176E+02  0.14872123985E+03  0.42346064013E+03  0.15294330000E+03 0.  1.
<mgrwt>
<rscale>  0 0.39648570E+03</rscale>
<asrwt>0</asrwt>
<pdfrwt beam="1">  1        2 0.28311916E+00 0.39648570E+03</pdfrwt>
<pdfrwt beam="2">  1       -2 0.25024066E-01 0.39648570E+03</pdfrwt>
<totfact> 0.12556689E+02</totfact>
</mgrwt>
</event>
<event>
 4    1  0.2061941E-008  0.1392405E+04  0.7818608E-02  0.8959335E-01
         -2   -1    0    0    0  501 -0.00000000000E+00  0.00000000000E+00  0.76639793114E+03  0.76639793115E+03  0.25500000000E-02 0.  1.
          2   -1    0    0  501    0  0.00000000000E+00 -0.00000000000E+00 -0.45091976827E+04  0.45091976827E+04  0.25500000000E-02 0. -1.
    8880022    1    1    2    0    0 -0.79931772869E+03  0.11298188816E+04 -0.36190900652E+04  0.38777060344E+04  0.15294330000E+03 0.  0.
    8880022    1    1    2    0    0  0.79931772869E+03 -0.11298188816E+04 -0.12370968634E+03  0.13978895794E+04  0.15294330000E+03 0.  0.
<mgrwt>
<rscale>  0 0.13924048E+04</rscale>
<asrwt>0</asrwt>
<pdfrwt beam="1">  1        2 0.69372270E+00 0.13924048E+04</pdfrwt>
<pdfrwt beam="2">  1       -2 0.11790738E+00 0.13924048E+04</pdfrwt>
<totfact> 0.66437747E-02</totfact>
</mgrwt>
</event>
<event>
 4    1  0.2061941E-008  0.1390960E+04  0.7818608E-02  0.8960388E-01
         -2   -1    0    0    0  501 -0.00000000000E+00  0.00000000000E+00  0.14808350921E+04  0.14808350921E+04  0.25500000000E-02 0.  1.
          2   -1    0    0  501    0  0.00000000000E+00 -0.00000000000E+00 -0.15631660868E+04  0.15631660868E+04  0.25500000000E-02 0. -1.
    8880022    1    1    2    0    0 -0.12368834468E+04  0.61765431125E+03  0.57551938014E+03  0.15053211349E+04  0.15294330000E+03 0.  0.
    8880022    1    1    2    0    0  0.12368834468E+04 -0.61765431125E+03 -0.65785037491E+03  0.15386800440E+04  0.15294330000E+03 0.  0.
<mgrwt>
<rscale>  0 0.13909598E+04</rscale>
<asrwt>0</asrwt>
<pdfrwt beam="1">  1        2 0.24048709E+00 0.13909598E+04</pdfrwt>
<pdfrwt beam="2">  1       -2 0.22782078E+00 0.13909598E+04</pdfrwt>
<totfact> 0.98074886E-01</totfact>
</mgrwt>
</event>
<event>
 4    1  0.2061941E-008  0.9318330E+03  0.7818608E-02  0.9386641E-01
         -2   -1    0    0    0  501 -0.00000000000E+00  0.00000000000E+00  0.53804014785E+03  0.53804014785E+03  0.25500000000E-02 0.  1.
          2   -1    0    0  501    0  0.00000000000E+00 -0.00000000000E+00 -0.31407351196E+04  0.31407351196E+04  0.25500000000E-02 0. -1.
    8880022    1    1    2    0    0 -0.91554652192E+03 -0.81827179264E+02 -0.25838601595E+04  0.27467519178E+04  0.15294330000E+03 0.  0.
    8880022    1    1    2    0    0  0.91554652192E+03  0.81827179264E+02 -0.18834812215E+02  0.93202334962E+03  0.15294330000E+03 0.  0.
<mgrwt>
<rscale>  0 0.93183302E+03</rscale>
<asrwt>0</asrwt>
<pdfrwt beam="1">  1        2 0.48319001E+00 0.93183302E+03</pdfrwt>
<pdfrwt beam="2">  1       -2 0.82775409E-01 0.93183302E+03</pdfrwt>
<totfact> 0.18788802E+00</totfact>
</mgrwt>
</event>
<event>
 4    1  0.2061941E-008  0.7896082E+03  0.7818608E-02  0.9575182E-01
         -2   -1    0    0    0  501 -0.00000000000E+00  0.00000000000E+00  0.11655050023E+04  0.11655050024E+04  0.25500000000E-02 0.  1.
          2   -1    0    0  501    0  0.00000000000E+00 -0.00000000000E+00 -0.89634175730E+03  0.89634175730E+03  0.25500000000E-02 0. -1.
    8880022    1    1    2    0    0 -0.53629081292E+03 -0.55900059404E+03 -0.52002690570E+03  0.94546768101E+03  0.15294330000E+03 0.  0.
    8880022    1    1    2    0    0  0.53629081292E+03  0.55900059404E+03  0.78919015075E+03  0.11163790786E+04  0.15294330000E+03 0.  0.
<mgrwt>
<rscale>  0 0.78960823E+03</rscale>
<asrwt>0</asrwt>
<pdfrwt beam="1">  1        2 0.13789873E+00 0.78960823E+03</pdfrwt>
<pdfrwt beam="2">  1       -2 0.17930846E+00 0.78960823E+03</pdfrwt>
<totfact> 0.54869827E+00</totfact>
</mgrwt>
</event>
<event>
 4    1  0.2061941E-008  0.6467941E+03  0.7818608E-02  0.9812813E-01
         -2   -1    0    0    0  501 -0.00000000000E+00  0.00000000000E+00  0.32532971843E+03  0.32532971844E+03  0.25500000000E-02 0.  1.
          2   -1    0    0  501    0  0.00000000000E+00 -0.00000000000E+00 -0.14852861280E+04  0.14852861280E+04  0.25500000000E-02 0. -1.
    8880022    1    1    2    0    0  0.35186093359E+03  0.52071573445E+03 -0.24828632253E+03  0.69281219942E+03  0.15294330000E+03 0.  0.
    8880022    1    1    2    0    0 -0.35186093359E+03 -0.52071573445E+03 -0.91167008704E+03  0.11178036470E+04  0.15294330000E+03 0.  0.
<mgrwt>
<rscale>  0 0.64679413E+03</rscale>
<asrwt>0</asrwt>
<pdfrwt beam="1">  1        2 0.22850555E+00 0.64679413E+03</pdfrwt>
<pdfrwt beam="2">  1       -2 0.50050727E-01 0.64679413E+03</pdfrwt>
<totfact> 0.50496998E+01</totfact>
</mgrwt>
</event>
<event>
 4    1  0.2061941E-008  0.8533438E+03  0.7818608E-02  0.9485860E-01
         -2   -1    0    0    0  501 -0.00000000000E+00  0.00000000000E+00  0.78405433521E+03  0.78405433522E+03  0.25500000000E-02 0.  1.
          2   -1    0    0  501    0  0.00000000000E+00 -0.00000000000E+00 -0.12254075910E+04  0.12254075910E+04  0.25500000000E-02 0. -1.
    8880022    1    1    2    0    0 -0.83943837614E+03 -0.12129452660E+02  0.27367102269E+03  0.89615366575E+03  0.15294330000E+03 0.  0.
    8880022    1    1    2    0    0  0.83943837614E+03  0.12129452660E+02 -0.71502427843E+03  0.11133082604E+04  0.15294330000E+03 0.  0.
<mgrwt>
<rscale>  0 0.85334375E+03</rscale>
<asrwt>0</asrwt>
<pdfrwt beam="1">  1        2 0.18852424E+00 0.85334375E+03</pdfrwt>
<pdfrwt beam="2">  1       -2 0.12062374E+00 0.85334375E+03</pdfrwt>
<totfact> 0.96622798E+00</totfact>
</mgrwt>
</event>
<event>
 4    1  0.2061941E-008  0.4746260E+03  0.7818608E-02  0.1020623E+00
         -2   -1    0    0    0  501 -0.00000000000E+00  0.00000000000E+00  0.24322688355E+03  0.24322688357E+03  0.25500000000E-02 0.  1.
          2   -1    0    0  501    0  0.00000000000E+00 -0.00000000000E+00 -0.14614385051E+04  0.14614385051E+04  0.25500000000E-02 0. -1.
    8880022    1    1    2    0    0  0.10985849052E+03 -0.43567111254E+03 -0.93278864596E+02  0.48370528821E+03  0.15294330000E+03 0.  0.
    8880022    1    1    2    0    0 -0.10985849052E+03  0.43567111254E+03 -0.11249327569E+04  0.12209601004E+04  0.15294330000E+03 0.  0.
<mgrwt>
<rscale>  0 0.47462602E+03</rscale>
<asrwt>0</asrwt>
<pdfrwt beam="1">  1        2 0.22483669E+00 0.47462602E+03</pdfrwt>
<pdfrwt beam="2">  1       -2 0.37419521E-01 0.47462602E+03</pdfrwt>
<totfact> 0.94450942E+01</totfact>
</mgrwt>
</event>
<event>
 4    1  0.2061941E-008  0.7605638E+03  0.7818608E-02  0.9618922E-01
          2   -1    0    0  501    0  0.00000000000E+00  0.00000000000E+00  0.20207045676E+04  0.20207045676E+04  0.25500000000E-02 0. -1.
         -2   -1    0    0    0  501 -0.00000000000E+00 -0.00000000000E+00 -0.92451745518E+03  0.92451745519E+03  0.25500000000E-02 0.  1.
    8880022    1    1    2    0    0  0.61279357230E+03  0.42373305596E+03 -0.67547040924E+03  0.10172106919E+04  0.15294330000E+03 0.  0.
    8880022    1    1    2    0    0 -0.61279357230E+03 -0.42373305596E+03  0.17716575217E+04  0.19280113309E+04  0.15294330000E+03 0. -1.
<mgrwt>
<rscale>  0 0.76056382E+03</rscale>
<asrwt>0</asrwt>
<pdfrwt beam="1">  1        2 0.31087762E+00 0.76056382E+03</pdfrwt>
<pdfrwt beam="2">  1       -2 0.14223346E+00 0.76056382E+03</pdfrwt>
<totfact> 0.23230772E+00</totfact>
</mgrwt>
</event>
<event>
 4    1  0.2061941E-008  0.8780344E+03  0.7818608E-02  0.9453464E-01
          2   -1    0    0  501    0  0.00000000000E+00  0.00000000000E+00  0.18185136158E+04  0.18185136158E+04  0.25500000000E-02 0. -1.
         -2   -1    0    0    0  501 -0.00000000000E+00 -0.00000000000E+00 -0.16229959941E+04  0.16229959941E+04  0.25500000000E-02 0.  1.
    8880022    1    1    2    0    0 -0.84861134997E+03  0.16556410092E+03 -0.13812802108E+04  0.16367282513E+04  0.15294330000E+03 0.  0.
    8880022    1    1    2    0    0  0.84861134997E+03 -0.16556410092E+03  0.15767978325E+04  0.18047813586E+04  0.15294330000E+03 0.  0.
<mgrwt>
<rscale>  0 0.87803437E+03</rscale>
<asrwt>0</asrwt>
<pdfrwt beam="1">  1        2 0.27977133E+00 0.87803437E+03</pdfrwt>
<pdfrwt beam="2">  1       -2 0.24969169E+00 0.87803437E+03</pdfrwt>
<totfact> 0.55608568E-01</totfact>
</mgrwt>
</event>
<event>
 4    1  0.2061941E-008  0.1432848E+04  0.7818608E-02  0.8930379E-01
         -2   -1    0    0    0  501 -0.00000000000E+00  0.00000000000E+00  0.79977937648E+03  0.79977937649E+03  0.25500000000E-02 0.  1.
          2   -1    0    0  501    0  0.00000000000E+00 -0.00000000000E+00 -0.29396532346E+04  0.29396532346E+04  0.25500000000E-02 0. -1.
    8880022    1    1    2    0    0  0.50478169202E+03  0.13322373647E+04 -0.40425570572E+03  0.14887831545E+04  0.15294330000E+03 0.  0.
    8880022    1    1    2    0    0 -0.50478169202E+03 -0.13322373647E+04 -0.17356181524E+04  0.22506494566E+04  0.15294330000E+03 0. -1.
<mgrwt>
<rscale>  0 0.14328477E+04</rscale>
<asrwt>0</asrwt>
<pdfrwt beam="1">  1        2 0.45225434E+00 0.14328477E+04</pdfrwt>
<pdfrwt beam="2">  1       -2 0.12304298E+00 0.14328477E+04</pdfrwt>
<totfact> 0.90806358E-01</totfact>
</mgrwt>
</event>
<event>
 4    1  0.2061941E-008  0.9228383E+03  0.7818608E-02  0.9397474E-01
         -2   -1    0    0    0  501 -0.00000000000E+00  0.00000000000E+00  0.10533701072E+04  0.10533701072E+04  0.25500000000E-02 0.  1.
          2   -1    0    0  501    0  0.00000000000E+00 -0.00000000000E+00 -0.15590318666E+04  0.15590318666E+04  0.25500000000E-02 0. -1.
    8880022    1    1    2    0    0  0.18003760138E+03 -0.89209040944E+03 -0.11591316827E+04  0.14816263859E+04  0.15294330000E+03 0.  0.
    8880022    1    1    2    0    0 -0.18003760138E+03  0.89209040944E+03  0.65346992335E+03  0.11307755879E+04  0.15294330000E+03 0.  0.
<mgrwt>
<rscale>  0 0.92283828E+03</rscale>
<asrwt>0</asrwt>
<pdfrwt beam="1">  1        2 0.23985106E+00 0.92283828E+03</pdfrwt>
<pdfrwt beam="2">  1       -2 0.16205694E+00 0.92283828E+03</pdfrwt>
<totfact> 0.28681621E+00</totfact>
</mgrwt>
</event>
<event>
 4    1  0.2061941E-008  0.4717722E+03  0.7818608E-02  0.1021421E+00
         -2   -1    0    0    0  501 -0.00000000000E+00  0.00000000000E+00  0.44389162571E+03  0.44389162572E+03  0.25500000000E-02 0.  1.
          2   -1    0    0  501    0  0.00000000000E+00 -0.00000000000E+00 -0.57629275485E+03  0.57629275485E+03  0.25500000000E-02 0. -1.
    8880022    1    1    2    0    0  0.44627825229E+03  0.36127360431E+01 -0.25008109504E+03  0.53395649396E+03  0.15294330000E+03 0.  0.
    8880022    1    1    2    0    0 -0.44627825229E+03 -0.36127360431E+01  0.11767996591E+03  0.48622788661E+03  0.15294330000E+03 0.  0.
<mgrwt>
<rscale>  0 0.47177217E+03</rscale>
<asrwt>0</asrwt>
<pdfrwt beam="1">  1        2 0.88660424E-01 0.47177217E+03</pdfrwt>
<pdfrwt beam="2">  1       -2 0.68291019E-01 0.47177217E+03</pdfrwt>
<totfact> 0.10529786E+02</totfact>
</mgrwt>
</event>
<event>
 4    1  0.2061941E-008  0.7089840E+03  0.7818608E-02  0.9701991E-01
         -2   -1    0    0    0  501 -0.00000000000E+00  0.00000000000E+00  0.20935130451E+04  0.20935130451E+04  0.25500000000E-02 0.  1.
          2   -1    0    0  501    0  0.00000000000E+00 -0.00000000000E+00 -0.14910617367E+04  0.14910617368E+04  0.25500000000E-02 0. -1.
    8880022    1    1    2    0    0 -0.48233296350E+03 -0.49661009720E+03  0.19428786551E+04  0.20681962667E+04  0.15294330000E+03 0.  0.
    8880022    1    1    2    0    0  0.48233296350E+03  0.49661009720E+03 -0.13404273467E+04  0.15163785151E+04  0.15294330000E+03 0.  0.
<mgrwt>
<rscale>  0 0.70898401E+03</rscale>
<asrwt>0</asrwt>
<pdfrwt beam="1">  1        2 0.22939411E+00 0.70898401E+03</pdfrwt>
<pdfrwt beam="2">  1       -2 0.32207893E+00 0.70898401E+03</pdfrwt>
<totfact> 0.31968303E-01</totfact>
</mgrwt>
</event>
<event>
 4    1  0.2061941E-008  0.4123652E+03  0.7818608E-02  0.1039580E+00
          2   -1    0    0  501    0  0.00000000000E+00  0.00000000000E+00  0.20791520146E+04  0.20791520146E+04  0.25500000000E-02 0. -1.
         -2   -1    0    0    0  501 -0.00000000000E+00 -0.00000000000E+00 -0.32004473037E+03  0.32004473038E+03  0.25500000000E-02 0.  1.
    8880022    1    1    2    0    0 -0.29664361541E+03 -0.24218996606E+03  0.19145888915E+04  0.19584932195E+04  0.15294330000E+03 0.  0.
    8880022    1    1    2    0    0  0.29664361541E+03  0.24218996606E+03 -0.15548160725E+03  0.44070352555E+03  0.15294330000E+03 0.  0.
<mgrwt>
<rscale>  0 0.41236521E+03</rscale>
<asrwt>0</asrwt>
<pdfrwt beam="1">  1        2 0.31986954E+00 0.41236521E+03</pdfrwt>
<pdfrwt beam="2">  1       -2 0.49237650E-01 0.41236521E+03</pdfrwt>
<totfact> 0.25956028E+01</totfact>
</mgrwt>
</event>
<event>
 4    1  0.2061941E-008  0.1965038E+04  0.7818608E-02  0.8623143E-01
          2   -1    0    0  501    0  0.00000000000E+00  0.00000000000E+00  0.34638814701E+04  0.34638814701E+04  0.25500000000E-02 0. -1.
         -2   -1    0    0    0  501 -0.00000000000E+00 -0.00000000000E+00 -0.37434488210E+04  0.37434488210E+04  0.25500000000E-02 0.  1.
    8880022    1    1    2    0    0  0.89366278484E+03 -0.17433731836E+04  0.28800191291E+04  0.34865290860E+04  0.15294330000E+03 0.  0.
    8880022    1    1    2    0    0 -0.89366278484E+03  0.17433731836E+04 -0.31595864800E+04  0.37208012051E+04  0.15294330000E+03 0.  0.
<mgrwt>
<rscale>  0 0.19650381E+04</rscale>
<asrwt>0</asrwt>
<pdfrwt beam="1">  1        2 0.53290484E+00 0.19650381E+04</pdfrwt>
<pdfrwt beam="2">  1       -2 0.57591520E+00 0.19650381E+04</pdfrwt>
<totfact> 0.47392941E-04</totfact>
</mgrwt>
</event>
<event>
 4    1  0.2061941E-008  0.7103505E+03  0.7818608E-02  0.9699693E-01
         -2   -1    0    0    0  501 -0.00000000000E+00  0.00000000000E+00  0.48418572282E+03  0.48418572282E+03  0.25500000000E-02 0.  1.
          2   -1    0    0  501    0  0.00000000000E+00 -0.00000000000E+00 -0.19517699083E+04  0.19517699083E+04  0.25500000000E-02 0. -1.
    8880022    1    1    2    0    0  0.51279015283E+03  0.46717502398E+03  0.97690574849E+02  0.71703650207E+03  0.15294330000E+03 0.  0.
    8880022    1    1    2    0    0 -0.51279015283E+03 -0.46717502398E+03 -0.15652747603E+04  0.17189191290E+04  0.15294330000E+03 0. -1.
<mgrwt>
<rscale>  0 0.71035055E+03</rscale>
<asrwt>0</asrwt>
<pdfrwt beam="1">  1        2 0.30027229E+00 0.71035055E+03</pdfrwt>
<pdfrwt beam="2">  1       -2 0.74490112E-01 0.71035055E+03</pdfrwt>
<totfact> 0.11984606E+01</totfact>
</mgrwt>
</event>
<event>
 4    1  0.2061941E-008  0.6160638E+03  0.7818608E-02  0.9872628E-01
          2   -1    0    0  501    0  0.00000000000E+00  0.00000000000E+00  0.22983972634E+04  0.22983972634E+04  0.25500000000E-02 0. -1.
         -2   -1    0    0    0  501 -0.00000000000E+00 -0.00000000000E+00 -0.31953398955E+03  0.31953398956E+03  0.25500000000E-02 0.  1.
    8880022    1    1    2    0    0  0.34808491697E+03 -0.48474725428E+03  0.79520936218E+02  0.62117488863E+03  0.15294330000E+03 0.  0.
    8880022    1    1    2    0    0 -0.34808491697E+03  0.48474725428E+03  0.18993423377E+04  0.19967563644E+04  0.15294330000E+03 0.  0.
<mgrwt>
<rscale>  0 0.61606385E+03</rscale>
<asrwt>0</asrwt>
<pdfrwt beam="1">  1        2 0.35359958E+00 0.61606385E+03</pdfrwt>
<pdfrwt beam="2">  1       -2 0.49159075E-01 0.61606385E+03</pdfrwt>
<totfact> 0.18942662E+01</totfact>
</mgrwt>
</event>
<event>
 4    1  0.2061941E-008  0.5625547E+03  0.7818608E-02  0.9986291E-01
          2   -1    0    0  501    0  0.00000000000E+00  0.00000000000E+00  0.10105871038E+04  0.10105871038E+04  0.25500000000E-02 0. -1.
         -2   -1    0    0    0  501 -0.00000000000E+00 -0.00000000000E+00 -0.12449294565E+04  0.12449294565E+04  0.25500000000E-02 0.  1.
    8880022    1    1    2    0    0 -0.50385689882E+03 -0.19800105759E+03 -0.10928337441E+04  0.12291271043E+04  0.15294330000E+03 0.  1.
    8880022    1    1    2    0    0  0.50385689882E+03  0.19800105759E+03  0.85849139137E+03  0.10263894560E+04  0.15294330000E+03 0.  0.
<mgrwt>
<rscale>  0 0.56255475E+03</rscale>
<asrwt>0</asrwt>
<pdfrwt beam="1">  1        2 0.15547494E+00 0.56255475E+03</pdfrwt>
<pdfrwt beam="2">  1       -2 0.19152761E+00 0.56255475E+03</pdfrwt>
<totfact> 0.39631181E+00</totfact>
</mgrwt>
</event>
<event>
 4    1  0.2061941E-008  0.1167812E+04  0.7818608E-02  0.9141507E-01
          2   -1    0    0  501    0  0.00000000000E+00  0.00000000000E+00  0.12436367990E+04  0.12436367990E+04  0.25500000000E-02 0. -1.
         -2   -1    0    0    0  501 -0.00000000000E+00 -0.00000000000E+00 -0.14880398075E+04  0.14880398075E+04  0.25500000000E-02 0.  1.
    8880022    1    1    2    0    0  0.11036192475E+04  0.34988145598E+03  0.57831625165E+03  0.13031630046E+04  0.15294330000E+03 0.  0.
    8880022    1    1    2    0    0 -0.11036192475E+04 -0.34988145598E+03 -0.82271926018E+03  0.14285136019E+04  0.15294330000E+03 0.  0.
<mgrwt>
<rscale>  0 0.11678117E+04</rscale>
<asrwt>0</asrwt>
<pdfrwt beam="1">  1        2 0.19132874E+00 0.11678117E+04</pdfrwt>
<pdfrwt beam="2">  1       -2 0.22892920E+00 0.11678117E+04</pdfrwt>
<totfact> 0.15101929E+00</totfact>
</mgrwt>
</event>
<event>
 4    1  0.2061941E-008  0.2721703E+03  0.7818608E-02  0.1100044E+00
          2   -1    0    0  501    0  0.00000000000E+00  0.00000000000E+00  0.79753434747E+03  0.79753434747E+03  0.25500000000E-02 0. -1.
         -2   -1    0    0    0  501 -0.00000000000E+00 -0.00000000000E+00 -0.11641078748E+03  0.11641078750E+03  0.25500000000E-02 0.  1.
    8880022    1    1    2    0    0 -0.21034376627E+03 -0.80252940062E+02  0.13511842073E+03  0.30386456692E+03  0.15294330000E+03 0. -1.
    8880022    1    1    2    0    0  0.21034376627E+03  0.80252940062E+02  0.54600513926E+03  0.61008056805E+03  0.15294330000E+03 0.  0.
<mgrwt>
<rscale>  0 0.27217033E+03</rscale>
<asrwt>0</asrwt>
<pdfrwt beam="1">  1        2 0.12269759E+00 0.27217033E+03</pdfrwt>
<pdfrwt beam="2">  1       -2 0.17909352E-01 0.27217033E+03</pdfrwt>
<totfact> 0.90676163E+02</totfact>
</mgrwt>
</event>
<event>
 4    1  0.2061941E-008  0.6600905E+03  0.7818608E-02  0.9788027E-01
         -2   -1    0    0    0  501 -0.00000000000E+00  0.00000000000E+00  0.27023795923E+03  0.27023795924E+03  0.25500000000E-02 0.  1.
          2   -1    0    0  501    0  0.00000000000E+00 -0.00000000000E+00 -0.18360931823E+04  0.18360931823E+04  0.25500000000E-02 0. -1.
    8880022    1    1    2    0    0  0.55945017918E+03 -0.31518769842E+03 -0.41529024472E+03  0.77986244209E+03  0.15294330000E+03 0.  1.
    8880022    1    1    2    0    0 -0.55945017918E+03  0.31518769842E+03 -0.11505649784E+04  0.13264686995E+04  0.15294330000E+03 0.  0.
<mgrwt>
<rscale>  0 0.66009048E+03</rscale>
<asrwt>0</asrwt>
<pdfrwt beam="1">  1        2 0.28247587E+00 0.66009048E+03</pdfrwt>
<pdfrwt beam="2">  1       -2 0.41575072E-01 0.66009048E+03</pdfrwt>
<totfact> 0.46926284E+01</totfact>
</mgrwt>
</event>
<event>
 4    1  0.2061941E-008  0.9881229E+03  0.7818608E-02  0.9321668E-01
         -2   -1    0    0    0  501 -0.00000000000E+00  0.00000000000E+00  0.49694616109E+03  0.49694616110E+03  0.25500000000E-02 0.  1.
          2   -1    0    0  501    0  0.00000000000E+00 -0.00000000000E+00 -0.34226340496E+04  0.34226340496E+04  0.25500000000E-02 0. -1.
    8880022    1    1    2    0    0 -0.66568498731E+03  0.71404396413E+03 -0.18379479707E+03  0.10050708758E+04  0.15294330000E+03 0.  0.
    8880022    1    1    2    0    0  0.66568498731E+03 -0.71404396413E+03 -0.27418930914E+04  0.29145093348E+04  0.15294330000E+03 0.  0.
<mgrwt>
<rscale>  0 0.98812294E+03</rscale>
<asrwt>0</asrwt>
<pdfrwt beam="1">  1        2 0.52655907E+00 0.98812294E+03</pdfrwt>
<pdfrwt beam="2">  1       -2 0.76453258E-01 0.98812294E+03</pdfrwt>
<totfact> 0.14571767E+00</totfact>
</mgrwt>
</event>
<event>
 4    1  0.2061941E-008  0.8322224E+03  0.7818608E-02  0.9514513E-01
          2   -1    0    0  501    0  0.00000000000E+00  0.00000000000E+00  0.15889011121E+04  0.15889011121E+04  0.25500000000E-02 0. -1.
         -2   -1    0    0    0  501 -0.00000000000E+00 -0.00000000000E+00 -0.78306794717E+03  0.78306794718E+03  0.25500000000E-02 0.  1.
    8880022    1    1    2    0    0 -0.41934062538E+03  0.70239298688E+03 -0.38676536581E+03  0.91770451090E+03  0.15294330000E+03 0.  0.
    8880022    1    1    2    0    0  0.41934062538E+03 -0.70239298688E+03  0.11925985307E+04  0.14542645483E+04  0.15294330000E+03 0.  0.
<mgrwt>
<rscale>  0 0.83222240E+03</rscale>
<asrwt>0</asrwt>
<pdfrwt beam="1">  1        2 0.24444632E+00 0.83222240E+03</pdfrwt>
<pdfrwt beam="2">  1       -2 0.12047199E+00 0.83222240E+03</pdfrwt>
<totfact> 0.60382540E+00</totfact>
</mgrwt>
</event>
<event>
 4    1  0.2061941E-008  0.1426937E+04  0.7818608E-02  0.8934548E-01
          2   -1    0    0  501    0  0.00000000000E+00  0.00000000000E+00  0.32758539800E+04  0.32758539800E+04  0.25500000000E-02 0. -1.
         -2   -1    0    0    0  501 -0.00000000000E+00 -0.00000000000E+00 -0.16110151432E+04  0.16110151432E+04  0.25500000000E-02 0.  1.
    8880022    1    1    2    0    0 -0.10552446551E+04  0.94826950091E+03  0.27473295997E+04  0.30957984286E+04  0.15294330000E+03 0.  0.
    8880022    1    1    2    0    0  0.10552446551E+04 -0.94826950091E+03 -0.10824907628E+04  0.17910706946E+04  0.15294330000E+03 0.  0.
<mgrwt>
<rscale>  0 0.14269366E+04</rscale>
<asrwt>0</asrwt>
<pdfrwt beam="1">  1        2 0.50397754E+00 0.14269366E+04</pdfrwt>
<pdfrwt beam="2">  1       -2 0.24784848E+00 0.14269366E+04</pdfrwt>
<totfact> 0.73018041E-02</totfact>
</mgrwt>
</event>
<event>
 4    1  0.2061941E-008  0.6175906E+03  0.7818608E-02  0.9869568E-01
          2   -1    0    0  501    0  0.00000000000E+00  0.00000000000E+00  0.28422596142E+04  0.28422596142E+04  0.25500000000E-02 0. -1.
         -2   -1    0    0    0  501 -0.00000000000E+00 -0.00000000000E+00 -0.18761430328E+03  0.18761430329E+03  0.25500000000E-02 0.  1.
    8880022    1    1    2    0    0  0.20862461382E+03 -0.56080505745E+03  0.21356905014E+04  0.22231941240E+04  0.15294330000E+03 0.  0.
    8880022    1    1    2    0    0 -0.20862461382E+03  0.56080505745E+03  0.51895480948E+03  0.80667979351E+03  0.15294330000E+03 0.  0.
<mgrwt>
<rscale>  0 0.61759064E+03</rscale>
<asrwt>0</asrwt>
<pdfrwt beam="1">  1        2 0.43727071E+00 0.61759064E+03</pdfrwt>
<pdfrwt beam="2">  1       -2 0.28863739E-01 0.61759064E+03</pdfrwt>
<totfact> 0.25874950E+01</totfact>
</mgrwt>
</event>
<event>
 4    1  0.2061941E-008  0.8022603E+03  0.7818608E-02  0.9556751E-01
         -2   -1    0    0    0  501 -0.00000000000E+00  0.00000000000E+00  0.60305186395E+03  0.60305186396E+03  0.25500000000E-02 0.  1.
          2   -1    0    0  501    0  0.00000000000E+00 -0.00000000000E+00 -0.42340671105E+04  0.42340671105E+04  0.25500000000E-02 0. -1.
    8880022    1    1    2    0    0 -0.33532207525E+03 -0.71259318018E+03  0.27613628199E+03  0.84845320073E+03  0.15294330000E+03 0.  0.
    8880022    1    1    2    0    0  0.33532207525E+03  0.71259318018E+03 -0.39071515285E+04  0.39886657737E+04  0.15294330000E+03 0.  0.
<mgrwt>
<rscale>  0 0.80226030E+03</rscale>
<asrwt>0</asrwt>
<pdfrwt beam="1">  1        2 0.65139492E+00 0.80226030E+03</pdfrwt>
<pdfrwt beam="2">  1       -2 0.92777212E-01 0.80226030E+03</pdfrwt>
<totfact> 0.23776154E-01</totfact>
</mgrwt>
</event>
<event>
 4    1  0.2061941E-008  0.1515316E+04  0.7818608E-02  0.8874331E-01
         -2   -1    0    0    0  501 -0.00000000000E+00  0.00000000000E+00  0.16357934582E+04  0.16357934582E+04  0.25500000000E-02 0.  1.
          2   -1    0    0  501    0  0.00000000000E+00 -0.00000000000E+00 -0.20625800936E+04  0.20625800936E+04  0.25500000000E-02 0. -1.
    8880022    1    1    2    0    0  0.14318035243E+04  0.47194250122E+03 -0.12585337427E+04  0.19697943779E+04  0.15294330000E+03 0.  0.
    8880022    1    1    2    0    0 -0.14318035243E+04 -0.47194250122E+03  0.83174710738E+03  0.17285791739E+04  0.15294330000E+03 0.  0.
<mgrwt>
<rscale>  0 0.15153160E+04</rscale>
<asrwt>0</asrwt>
<pdfrwt beam="1">  1        2 0.31732001E+00 0.15153160E+04</pdfrwt>
<pdfrwt beam="2">  1       -2 0.25166053E+00 0.15153160E+04</pdfrwt>
<totfact> 0.36215519E-01</totfact>
</mgrwt>
</event>
<event>
 4    1  0.2061941E-008  0.4660692E+03  0.7818608E-02  0.1023036E+00
         -2   -1    0    0    0  501 -0.00000000000E+00  0.00000000000E+00  0.14109190574E+03  0.14109190576E+03  0.25500000000E-02 0.  1.
          2   -1    0    0  501    0  0.00000000000E+00 -0.00000000000E+00 -0.28104654081E+04  0.28104654081E+04  0.25500000000E-02 0. -1.
    8880022    1    1    2    0    0  0.32629861476E+03  0.29556402901E+03 -0.34228525750E+03  0.57825576673E+03  0.15294330000E+03 0.  0.
    8880022    1    1    2    0    0 -0.32629861476E+03 -0.29556402901E+03 -0.23270882449E+04  0.23733015471E+04  0.15294330000E+03 0.  0.
<mgrwt>
<rscale>  0 0.46606924E+03</rscale>
<asrwt>0</asrwt>
<pdfrwt beam="1">  1        2 0.43237925E+00 0.46606924E+03</pdfrwt>
<pdfrwt beam="2">  1       -2 0.21706449E-01 0.46606924E+03</pdfrwt>
<totfact> 0.46523604E+01</totfact>
</mgrwt>
</event>
<event>
 4    1  0.2824428E-008  0.1762579E+04  0.7818608E-02  0.8726457E-01
         -2   -1    0    0    0  501 -0.00000000000E+00  0.00000000000E+00  0.16475688072E+04  0.16475688072E+04  0.25500000000E-02 0.  1.
          2   -1    0    0  501    0  0.00000000000E+00 -0.00000000000E+00 -0.31356670310E+04  0.31356670310E+04  0.25500000000E-02 0. -1.
    8880022    1    1    2    0    0  0.17276250783E+04 -0.31401412742E+03 -0.22540958917E+04  0.28614040653E+04  0.15294330000E+03 0. -1.
    8880022    1    1    2    0    0 -0.17276250783E+04  0.31401412742E+03  0.76599766785E+03  0.19218317729E+04  0.15294330000E+03 0.  0.
<mgrwt>
<rscale>  0 0.17625791E+04</rscale>
<asrwt>0</asrwt>
<pdfrwt beam="1">  1        2 0.48241031E+00 0.17625791E+04</pdfrwt>
<pdfrwt beam="2">  1       -2 0.25347212E+00 0.17625791E+04</pdfrwt>
<totfact> 0.79559813E-02</totfact>
</mgrwt>
</event>
<event>
 4    1  0.2061941E-008  0.1625021E+04  0.7818608E-02  0.8805322E-01
          2   -1    0    0  501    0  0.00000000000E+00  0.00000000000E+00  0.26344454540E+04  0.26344454540E+04  0.25500000000E-02 0. -1.
         -2   -1    0    0    0  501 -0.00000000000E+00 -0.00000000000E+00 -0.10929944488E+04  0.10929944488E+04  0.25500000000E-02 0.  1.
    8880022    1    1    2    0    0 -0.44966698506E+03  0.15540599413E+04  0.23407742313E+03  0.16417937117E+04  0.15294330000E+03 0.  1.
    8880022    1    1    2    0    0  0.44966698506E+03 -0.15540599413E+04  0.13073735821E+04  0.20856461912E+04  0.15294330000E+03 0.  0.
<mgrwt>
<rscale>  0 0.16250213E+04</rscale>
<asrwt>0</asrwt>
<pdfrwt beam="1">  1        2 0.40529930E+00 0.16250213E+04</pdfrwt>
<pdfrwt beam="2">  1       -2 0.16815299E+00 0.16250213E+04</pdfrwt>
<totfact> 0.59406187E-01</totfact>
</mgrwt>
</event>
<event>
 4    1  0.2061941E-008  0.1027401E+04  0.7818608E-02  0.9278993E-01
          2   -1    0    0  501    0  0.00000000000E+00  0.00000000000E+00  0.39053207822E+04  0.39053207822E+04  0.25500000000E-02 0. -1.
         -2   -1    0    0    0  501 -0.00000000000E+00 -0.00000000000E+00 -0.81759343146E+03  0.81759343147E+03  0.25500000000E-02 0.  1.
    8880022    1    1    2    0    0  0.68871274362E+03 -0.74688345604E+03 -0.38822570749E+03  0.10983036889E+04  0.15294330000E+03 0.  0.
    8880022    1    1    2    0    0 -0.68871274362E+03  0.74688345604E+03  0.34759530582E+04  0.36246105247E+04  0.15294330000E+03 0.  0.
<mgrwt>
<rscale>  0 0.10274005E+04</rscale>
<asrwt>0</asrwt>
<pdfrwt beam="1">  1        2 0.60081859E+00 0.10274005E+04</pdfrwt>
<pdfrwt beam="2">  1       -2 0.12578360E+00 0.10274005E+04</pdfrwt>
<totfact> 0.19980697E-01</totfact>
</mgrwt>
</event>
<event>
 4    1  0.2061941E-008  0.7149261E+03  0.7818608E-02  0.9692042E-01
         -2   -1    0    0    0  501 -0.00000000000E+00  0.00000000000E+00  0.11504660087E+04  0.11504660088E+04  0.25500000000E-02 0.  1.
          2   -1    0    0  501    0  0.00000000000E+00 -0.00000000000E+00 -0.24646658694E+04  0.24646658694E+04  0.25500000000E-02 0. -1.
    8880022    1    1    2    0    0 -0.57091713693E+03  0.40222049003E+03  0.97946480815E+03  0.12126296480E+04  0.15294330000E+03 0.  0.
    8880022    1    1    2    0    0  0.57091713693E+03 -0.40222049003E+03 -0.22936646688E+04  0.24025022302E+04  0.15294330000E+03 0.  0.
<mgrwt>
<rscale>  0 0.71492612E+03</rscale>
<asrwt>0</asrwt>
<pdfrwt beam="1">  1        2 0.37917936E+00 0.71492612E+03</pdfrwt>
<pdfrwt beam="2">  1       -2 0.17699477E+00 0.71492612E+03</pdfrwt>
<totfact> 0.73750277E-01</totfact>
</mgrwt>
</event>
<event>
 4    1  0.2061941E-008  0.7362786E+03  0.7818608E-02  0.9657126E-01
         -2   -1    0    0    0  501 -0.00000000000E+00  0.00000000000E+00  0.85330125247E+03  0.85330125247E+03  0.25500000000E-02 0.  1.
          2   -1    0    0  501    0  0.00000000000E+00 -0.00000000000E+00 -0.98142635563E+03  0.98142635563E+03  0.25500000000E-02 0. -1.
    8880022    1    1    2    0    0  0.50787616788E+03  0.51066263942E+03 -0.60885014564E+03  0.95540812539E+03  0.15294330000E+03 0.  0.
    8880022    1    1    2    0    0 -0.50787616788E+03 -0.51066263942E+03  0.48072504248E+03  0.87931948271E+03  0.15294330000E+03 0.  0.
<mgrwt>
<rscale>  0 0.73627861E+03</rscale>
<asrwt>0</asrwt>
<pdfrwt beam="1">  1        2 0.15098867E+00 0.73627861E+03</pdfrwt>
<pdfrwt beam="2">  1       -2 0.13127712E+00 0.73627861E+03</pdfrwt>
<totfact> 0.11176416E+01</totfact>
</mgrwt>
</event>
<event>
 4    1  0.2061941E-008  0.5888656E+03  0.7818608E-02  0.9928779E-01
          2   -1    0    0  501    0  0.00000000000E+00  0.00000000000E+00  0.63435551309E+03  0.63435551309E+03  0.25500000000E-02 0. -1.
         -2   -1    0    0    0  501 -0.00000000000E+00 -0.00000000000E+00 -0.96774770378E+03  0.96774770378E+03  0.25500000000E-02 0.  1.
    8880022    1    1    2    0    0 -0.55963113298E+03  0.10091619393E+03  0.36172131942E+03  0.69108975476E+03  0.15294330000E+03 0.  0.
    8880022    1    1    2    0    0  0.55963113298E+03 -0.10091619393E+03 -0.69511351011E+03  0.91101346211E+03  0.15294330000E+03 0.  0.
<mgrwt>
<rscale>  0 0.58886564E+03</rscale>
<asrwt>0</asrwt>
<pdfrwt beam="1">  1        2 0.97593156E-01 0.58886564E+03</pdfrwt>
<pdfrwt beam="2">  1       -2 0.14888426E+00 0.58886564E+03</pdfrwt>
<totfact> 0.14628642E+01</totfact>
</mgrwt>
</event>
<event>
 4    1  0.2061941E-008  0.7498848E+03  0.7818608E-02  0.9635531E-01
          2   -1    0    0  501    0  0.00000000000E+00  0.00000000000E+00  0.15641584020E+04  0.15641584020E+04  0.25500000000E-02 0. -1.
         -2   -1    0    0    0  501 -0.00000000000E+00 -0.00000000000E+00 -0.59510811641E+03  0.59510811642E+03  0.25500000000E-02 0.  1.
    8880022    1    1    2    0    0 -0.12735413028E+03 -0.72299133476E+03  0.11638323502E+04  0.13844973590E+04  0.15294330000E+03 0.  0.
    8880022    1    1    2    0    0  0.12735413028E+03  0.72299133476E+03 -0.19478206465E+03  0.77476915941E+03  0.15294330000E+03 0.  0.
<mgrwt>
<rscale>  0 0.74988479E+03</rscale>
<asrwt>0</asrwt>
<pdfrwt beam="1">  1        2 0.24063975E+00 0.74988479E+03</pdfrwt>
<pdfrwt beam="2">  1       -2 0.91555097E-01 0.74988479E+03</pdfrwt>
<totfact> 0.12168964E+01</totfact>
</mgrwt>
</event>
<event>
 4    1  0.2061941E-008  0.6729210E+03  0.7818608E-02  0.9764695E-01
          2   -1    0    0  501    0  0.00000000000E+00  0.00000000000E+00  0.14803121973E+04  0.14803121974E+04  0.25500000000E-02 0. -1.
         -2   -1    0    0    0  501 -0.00000000000E+00 -0.00000000000E+00 -0.78542822185E+03  0.78542822185E+03  0.25500000000E-02 0.  1.
    8880022    1    1    2    0    0  0.63603930970E+03  0.15774970670E+03 -0.53774594057E+03  0.86139034303E+03  0.15294330000E+03 0.  0.
    8880022    1    1    2    0    0 -0.63603930970E+03 -0.15774970670E+03  0.12326299161E+04  0.14043500762E+04  0.15294330000E+03 0.  0.
<mgrwt>
<rscale>  0 0.67292097E+03</rscale>
<asrwt>0</asrwt>
<pdfrwt beam="1">  1        2 0.22774034E+00 0.67292097E+03</pdfrwt>
<pdfrwt beam="2">  1       -2 0.12083511E+00 0.67292097E+03</pdfrwt>
<totfact> 0.70468501E+00</totfact>
</mgrwt>
</event>
<event>
 4    1  0.2061941E-008  0.3754342E+03  0.7818608E-02  0.1052634E+00
          2   -1    0    0  501    0  0.00000000000E+00  0.00000000000E+00  0.14199990698E+04  0.14199990698E+04  0.25500000000E-02 0. -1.
         -2   -1    0    0    0  501 -0.00000000000E+00 -0.00000000000E+00 -0.48669828674E+03  0.48669828675E+03  0.25500000000E-02 0.  1.
    8880022    1    1    2    0    0 -0.21728423560E+03 -0.26522965724E+03  0.13172446267E+04  0.13697022559E+04  0.15294330000E+03 0.  0.
    8880022    1    1    2    0    0  0.21728423560E+03  0.26522965724E+03 -0.38394384362E+03  0.53699510072E+03  0.15294330000E+03 0.  0.
<mgrwt>
<rscale>  0 0.37543423E+03</rscale>
<asrwt>0</asrwt>
<pdfrwt beam="1">  1        2 0.21846139E+00 0.37543423E+03</pdfrwt>
<pdfrwt beam="2">  1       -2 0.74876661E-01 0.37543423E+03</pdfrwt>
<totfact> 0.24551081E+01</totfact>
</mgrwt>
</event>
<event>
 4    1  0.2061941E-008  0.1358054E+04  0.7818608E-02  0.8984754E-01
          2   -1    0    0  501    0  0.00000000000E+00  0.00000000000E+00  0.31435682411E+04  0.31435682411E+04  0.25500000000E-02 0. -1.
         -2   -1    0    0    0  501 -0.00000000000E+00 -0.00000000000E+00 -0.89648001170E+03  0.89648001170E+03  0.25500000000E-02 0.  1.
    8880022    1    1    2    0    0  0.61674066092E+03 -0.12002293025E+04 -0.63911810129E+02  0.13595572051E+04  0.15294330000E+03 0.  0.
    8880022    1    1    2    0    0 -0.61674066092E+03  0.12002293025E+04  0.23110000395E+04  0.26804910477E+04  0.15294330000E+03 0.  0.
<mgrwt>
<rscale>  0 0.13580542E+04</rscale>
<asrwt>0</asrwt>
<pdfrwt beam="1">  1        2 0.48362589E+00 0.13580542E+04</pdfrwt>
<pdfrwt beam="2">  1       -2 0.13792000E+00 0.13580542E+04</pdfrwt>
<totfact> 0.50965813E-01</totfact>
</mgrwt>
</event>
<event>
 4    1  0.2061941E-008  0.2458311E+03  0.7818608E-02  0.1115968E+00
         -2   -1    0    0    0  501 -0.00000000000E+00  0.00000000000E+00  0.18853949831E+03  0.18853949832E+03  0.25500000000E-02 0.  1.
          2   -1    0    0  501    0  0.00000000000E+00 -0.00000000000E+00 -0.23546525246E+04  0.23546525246E+04  0.25500000000E-02 0. -1.
    8880022    1    1    2    0    0 -0.72488747997E+02 -0.17828819170E+03  0.98825380870E+02  0.26495170655E+03  0.15294330000E+03 0.  0.
    8880022    1    1    2    0    0  0.72488747997E+02  0.17828819170E+03 -0.22649384071E+04  0.22782403163E+04  0.15294330000E+03 0.  0.
<mgrwt>
<rscale>  0 0.24583114E+03</rscale>
<asrwt>0</asrwt>
<pdfrwt beam="1">  1        2 0.36225421E+00 0.24583114E+03</pdfrwt>
<pdfrwt beam="2">  1       -2 0.29006078E-01 0.24583114E+03</pdfrwt>
<totfact> 0.53403803E+01</totfact>
</mgrwt>
</event>
<event>
 4    1  0.2061941E-008  0.1349746E+04  0.7818608E-02  0.8991020E-01
          2   -1    0    0  501    0  0.00000000000E+00  0.00000000000E+00  0.17794873726E+04  0.17794873726E+04  0.25500000000E-02 0. -1.
         -2   -1    0    0    0  501 -0.00000000000E+00 -0.00000000000E+00 -0.14669348828E+04  0.14669348828E+04  0.25500000000E-02 0.  1.
    8880022    1    1    2    0    0 -0.58032797189E+03 -0.12089841302E+04 -0.73588687015E+03  0.15373172479E+04  0.15294330000E+03 0.  0.
    8880022    1    1    2    0    0  0.58032797189E+03  0.12089841302E+04  0.10484393599E+04  0.17091050075E+04  0.15294330000E+03 0.  0.
<mgrwt>
<rscale>  0 0.13497462E+04</rscale>
<asrwt>0</asrwt>
<pdfrwt beam="1">  1        2 0.27376729E+00 0.13497462E+04</pdfrwt>
<pdfrwt beam="2">  1       -2 0.22568229E+00 0.13497462E+04</pdfrwt>
<totfact> 0.76890184E-01</totfact>
</mgrwt>
</event>
<event>
 4    1  0.2061941E-008  0.3193129E+03  0.7818608E-02  0.1075966E+00
          2   -1    0    0  501    0  0.00000000000E+00  0.00000000000E+00  0.14169507316E+04  0.14169507316E+04  0.25500000000E-02 0. -1.
         -2   -1    0    0    0  501 -0.00000000000E+00 -0.00000000000E+00 -0.25700665025E+03  0.25700665026E+03  0.25500000000E-02 0.  1.
    8880022    1    1    2    0    0 -0.87558144980E+02 -0.26627546751E+03  0.12901797390E+04  0.13291066418E+04  0.15294330000E+03 0.  0.
    8880022    1    1    2    0    0  0.87558144980E+02  0.26627546751E+03 -0.13023565769E+03  0.34485074003E+03  0.15294330000E+03 0.  0.
<mgrwt>
<rscale>  0 0.31931287E+03</rscale>
<asrwt>0</asrwt>
<pdfrwt beam="1">  1        2 0.21799242E+00 0.31931287E+03</pdfrwt>
<pdfrwt beam="2">  1       -2 0.39539484E-01 0.31931287E+03</pdfrwt>
<totfact> 0.92353405E+01</totfact>
</mgrwt>
</event>
<event>
 4    1  0.2061941E-008  0.1925117E+04  0.7818608E-02  0.8642454E-01
          2   -1    0    0  501    0  0.00000000000E+00  0.00000000000E+00  0.20755086328E+04  0.20755086328E+04  0.25500000000E-02 0. -1.
         -2   -1    0    0    0  501 -0.00000000000E+00 -0.00000000000E+00 -0.24237296522E+04  0.24237296522E+04  0.25500000000E-02 0.  1.
    8880022    1    1    2    0    0  0.12495345430E+03 -0.19149596107E+04  0.98017607656E+03  0.21602824979E+04  0.15294330000E+03 0.  0.
    8880022    1    1    2    0    0 -0.12495345430E+03  0.19149596107E+04 -0.13283970960E+04  0.23389557871E+04  0.15294330000E+03 0.  0.
<mgrwt>
<rscale>  0 0.19251170E+04</rscale>
<asrwt>0</asrwt>
<pdfrwt beam="1">  1        2 0.31930902E+00 0.19251170E+04</pdfrwt>
<pdfrwt beam="2">  1       -2 0.37288148E+00 0.19251170E+04</pdfrwt>
<totfact> 0.60283211E-02</totfact>
</mgrwt>
</event>
<event>
 4    1  0.2061941E-008  0.5941043E+03  0.7818608E-02  0.9917714E-01
         -2   -1    0    0    0  501 -0.00000000000E+00  0.00000000000E+00  0.48867320244E+03  0.48867320245E+03  0.25500000000E-02 0.  1.
          2   -1    0    0  501    0  0.00000000000E+00 -0.00000000000E+00 -0.21985213326E+04  0.21985213326E+04  0.25500000000E-02 0. -1.
    8880022    1    1    2    0    0 -0.33115926680E+03 -0.46893684186E+03  0.24606283377E+03  0.64304493841E+03  0.15294330000E+03 0.  1.
    8880022    1    1    2    0    0  0.33115926680E+03  0.46893684186E+03 -0.19559109640E+04  0.20441495967E+04  0.15294330000E+03 0.  0.
<mgrwt>
<rscale>  0 0.59410426E+03</rscale>
<asrwt>0</asrwt>
<pdfrwt beam="1">  1        2 0.33823404E+00 0.59410426E+03</pdfrwt>
<pdfrwt beam="2">  1       -2 0.75180494E-01 0.59410426E+03</pdfrwt>
<totfact> 0.87958768E+00</totfact>
</mgrwt>
</event>
<event>
 4    1  0.2061941E-008  0.1033350E+04  0.7818608E-02  0.9272705E-01
          2   -1    0    0  501    0  0.00000000000E+00  0.00000000000E+00  0.12000862546E+04  0.12000862546E+04  0.25500000000E-02 0. -1.
         -2   -1    0    0    0  501 -0.00000000000E+00 -0.00000000000E+00 -0.12415149747E+04  0.12415149747E+04  0.25500000000E-02 0.  1.
    8880022    1    1    2    0    0  0.10033106492E+04  0.19439381888E+03 -0.67050952160E+03  0.12318262406E+04  0.15294330000E+03 0.  0.
    8880022    1    1    2    0    0 -0.10033106492E+04 -0.19439381888E+03  0.62908080150E+03  0.12097749887E+04  0.15294330000E+03 0.  0.
<mgrwt>
<rscale>  0 0.10333503E+04</rscale>
<asrwt>0</asrwt>
<pdfrwt beam="1">  1        2 0.18462865E+00 0.10333503E+04</pdfrwt>
<pdfrwt beam="2">  1       -2 0.19100230E+00 0.10333503E+04</pdfrwt>
<totfact> 0.28557976E+00</totfact>
</mgrwt>
</event>
<event>
 4    1  0.3088265E-008  0.1234475E+04  0.7818608E-02  0.9083205E-01
          2   -1    0    0  501    0  0.00000000000E+00  0.00000000000E+00  0.26788125769E+04  0.26788125769E+04  0.25500000000E-02 0. -1.
         -2   -1    0    0    0  501 -0.00000000000E+00 -0.00000000000E+00 -0.14119940121E+04  0.14119940121E+04  0.25500000000E-02 0.  1.
    8880022    1    1    2    0    0  0.91208031797E+03 -0.81770773715E+03 -0.94712957290E+03  0.15559506839E+04  0.15294330000E+03 0.  0.
    8880022    1    1    2    0    0 -0.91208031797E+03  0.81770773715E+03  0.22139481378E+04  0.25348559051E+04  0.15294330000E+03 0.  0.
<mgrwt>
<rscale>  0 0.12344748E+04</rscale>
<asrwt>0</asrwt>
<pdfrwt beam="1">  1        2 0.41212500E+00 0.12344748E+04</pdfrwt>
<pdfrwt beam="2">  1       -2 0.21722985E+00 0.12344748E+04</pdfrwt>
<totfact> 0.27381366E-01</totfact>
</mgrwt>
</event>
<event>
 4    1  0.2061941E-008  0.1103458E+04  0.7818608E-02  0.9201828E-01
         -2   -1    0    0    0  501 -0.00000000000E+00  0.00000000000E+00  0.57485823522E+03  0.57485823522E+03  0.25500000000E-02 0.  1.
          2   -1    0    0  501    0  0.00000000000E+00 -0.00000000000E+00 -0.31604196704E+04  0.31604196704E+04  0.25500000000E-02 0. -1.
    8880022    1    1    2    0    0 -0.20696600027E+03 -0.10730294889E+04 -0.22023257351E+03  0.11252205334E+04  0.15294330000E+03 0.  1.
    8880022    1    1    2    0    0  0.20696600027E+03  0.10730294889E+04 -0.23653288617E+04  0.26100573722E+04  0.15294330000E+03 0.  0.
<mgrwt>
<rscale>  0 0.11034577E+04</rscale>
<asrwt>0</asrwt>
<pdfrwt beam="1">  1        2 0.48621840E+00 0.11034577E+04</pdfrwt>
<pdfrwt beam="2">  1       -2 0.88439730E-01 0.11034577E+04</pdfrwt>
<totfact> 0.15268787E+00</totfact>
</mgrwt>
</event>
<event>
 4    1  0.2061941E-008  0.1567864E+03  0.7818608E-02  0.1192373E+00
          2   -1    0    0  501    0  0.00000000000E+00  0.00000000000E+00  0.21717867222E+03  0.21717867223E+03  0.25500000000E-02 0. -1.
         -2   -1    0    0    0  501 -0.00000000000E+00 -0.00000000000E+00 -0.45509120934E+03  0.45509120935E+03  0.25500000000E-02 0.  1.
    8880022    1    1    2    0    0  0.34160817724E+02  0.48317133155E+01  0.17239452068E+03  0.23302753205E+03  0.15294330000E+03 0.  0.
    8880022    1    1    2    0    0 -0.34160817724E+02 -0.48317133155E+01 -0.41030705780E+03  0.43924234953E+03  0.15294330000E+03 0.  1.
<mgrwt>
<rscale>  0 0.15678635E+03</rscale>
<asrwt>0</asrwt>
<pdfrwt beam="1">  1        2 0.33412104E-01 0.15678635E+03</pdfrwt>
<pdfrwt beam="2">  1       -2 0.70014032E-01 0.15678635E+03</pdfrwt>
<totfact> 0.29884626E+02</totfact>
</mgrwt>
</event>
<event>
 4    1  0.2061941E-008  0.4638459E+03  0.7818608E-02  0.1023672E+00
         -2   -1    0    0    0  501 -0.00000000000E+00  0.00000000000E+00  0.99319061900E+02  0.99319061933E+02  0.25500000000E-02 0.  1.
          2   -1    0    0  501    0  0.00000000000E+00 -0.00000000000E+00 -0.37905713370E+04  0.37905713370E+04  0.25500000000E-02 0. -1.
    8880022    1    1    2    0    0  0.28337415733E+03 -0.33385690867E+03 -0.57245479105E+03  0.73678863273E+03  0.15294330000E+03 0.  0.
    8880022    1    1    2    0    0 -0.28337415733E+03  0.33385690867E+03 -0.31187974841E+04  0.31531017662E+04  0.15294330000E+03 0.  0.
<mgrwt>
<rscale>  0 0.46384588E+03</rscale>
<asrwt>0</asrwt>
<pdfrwt beam="1">  1        2 0.58316471E+00 0.46384588E+03</pdfrwt>
<pdfrwt beam="2">  1       -2 0.15279859E-01 0.46384588E+03</pdfrwt>
<totfact> 0.19762222E+01</totfact>
</mgrwt>
</event>
<event>
 4    1  0.2061941E-008  0.1232277E+04  0.7818608E-02  0.9085064E-01
          2   -1    0    0  501    0  0.00000000000E+00  0.00000000000E+00  0.26882384558E+04  0.26882384558E+04  0.25500000000E-02 0. -1.
         -2   -1    0    0    0  501 -0.00000000000E+00 -0.00000000000E+00 -0.92860896585E+03  0.92860896585E+03  0.25500000000E-02 0.  1.
    8880022    1    1    2    0    0 -0.70286921788E+03  0.10005451518E+04 -0.25200742376E+03  0.12577818304E+04  0.15294330000E+03 0.  0.
    8880022    1    1    2    0    0  0.70286921788E+03 -0.10005451518E+04  0.20116369137E+04  0.23590655913E+04  0.15294330000E+03 0.  0.
<mgrwt>
<rscale>  0 0.12322773E+04</rscale>
<asrwt>0</asrwt>
<pdfrwt beam="1">  1        2 0.41357515E+00 0.12322773E+04</pdfrwt>
<pdfrwt beam="2">  1       -2 0.14286292E+00 0.12322773E+04</pdfrwt>
<totfact> 0.89787076E-01</totfact>
</mgrwt>
</event>
<event>
 4    1  0.2061941E-008  0.5749682E+03  0.7818608E-02  0.9958744E-01
          2   -1    0    0  501    0  0.00000000000E+00  0.00000000000E+00  0.29672345493E+04  0.29672345493E+04  0.25500000000E-02 0. -1.
         -2   -1    0    0    0  501 -0.00000000000E+00 -0.00000000000E+00 -0.20842592913E+03  0.20842592914E+03  0.25500000000E-02 0.  1.
    8880022    1    1    2    0    0 -0.29872234637E+03 -0.46686377748E+03  0.29611858206E+03  0.64674159801E+03  0.15294330000E+03 0.  0.
    8880022    1    1    2    0    0  0.29872234637E+03  0.46686377748E+03  0.24626900381E+04  0.25289188805E+04  0.15294330000E+03 0.  0.
<mgrwt>
<rscale>  0 0.57496824E+03</rscale>
<asrwt>0</asrwt>
<pdfrwt beam="1">  1        2 0.45649760E+00 0.57496824E+03</pdfrwt>
<pdfrwt beam="2">  1       -2 0.32065529E-01 0.57496824E+03</pdfrwt>
<totfact> 0.18086313E+01</totfact>
</mgrwt>
</event>
<event>
 4    1  0.2061941E-008  0.7760267E+03  0.7818608E-02  0.9595381E-01
          2   -1    0    0  501    0  0.00000000000E+00  0.00000000000E+00  0.13422428256E+04  0.13422428256E+04  0.25500000000E-02 0. -1.
         -2   -1    0    0    0  501 -0.00000000000E+00 -0.00000000000E+00 -0.82135293441E+03  0.82135293442E+03  0.25500000000E-02 0.  1.
    8880022    1    1    2    0    0 -0.64467217877E+03  0.40400930161E+03  0.98915352349E+03  0.12572358887E+04  0.15294330000E+03 0.  0.
    8880022    1    1    2    0    0  0.64467217877E+03 -0.40400930161E+03 -0.46826363233E+03  0.90635987126E+03  0.15294330000E+03 0.  0.
<mgrwt>
<rscale>  0 0.77602667E+03</rscale>
<asrwt>0</asrwt>
<pdfrwt beam="1">  1        2 0.20649890E+00 0.77602667E+03</pdfrwt>
<pdfrwt beam="2">  1       -2 0.12636199E+00 0.77602667E+03</pdfrwt>
<totfact> 0.74265014E+00</totfact>
</mgrwt>
</event>
<event>
 4    1  0.2061941E-008  0.7030693E+03  0.7818608E-02  0.9711998E-01
         -2   -1    0    0    0  501 -0.00000000000E+00  0.00000000000E+00  0.99373253675E+03  0.99373253675E+03  0.25500000000E-02 0.  1.
          2   -1    0    0  501    0  0.00000000000E+00 -0.00000000000E+00 -0.10503990713E+04  0.10503990713E+04  0.25500000000E-02 0. -1.
    8880022    1    1    2    0    0 -0.60881073637E+03  0.31664537875E+03 -0.76990719260E+03  0.10426233965E+04  0.15294330000E+03 0.  0.
    8880022    1    1    2    0    0  0.60881073637E+03 -0.31664537875E+03  0.71324065804E+03  0.10015082116E+04  0.15294330000E+03 0.  0.
<mgrwt>
<rscale>  0 0.70306931E+03</rscale>
<asrwt>0</asrwt>
<pdfrwt beam="1">  1        2 0.16159986E+00 0.70306931E+03</pdfrwt>
<pdfrwt beam="2">  1       -2 0.15288193E+00 0.70306931E+03</pdfrwt>
<totfact> 0.68351041E+00</totfact>
</mgrwt>
</event>
<event>
 4    1  0.2061941E-008  0.5308802E+03  0.7818608E-02  0.1006019E+00
         -2   -1    0    0    0  501 -0.00000000000E+00  0.00000000000E+00  0.21612249706E+04  0.21612249706E+04  0.25500000000E-02 0.  1.
          2   -1    0    0  501    0  0.00000000000E+00 -0.00000000000E+00 -0.43871575546E+03  0.43871575546E+03  0.25500000000E-02 0. -1.
    8880022    1    1    2    0    0  0.44750814163E+03 -0.24120237171E+03  0.19510285611E+04  0.20219659296E+04  0.15294330000E+03 0.  0.
    8880022    1    1    2    0    0 -0.44750814163E+03  0.24120237171E+03 -0.22851934596E+03  0.57797479654E+03  0.15294330000E+03 0.  0.
<mgrwt>
<rscale>  0 0.53088019E+03</rscale>
<asrwt>0</asrwt>
<pdfrwt beam="1">  1        2 0.67494733E-01 0.53088019E+03</pdfrwt>
<pdfrwt beam="2">  1       -2 0.33249614E+00 0.53088019E+03</pdfrwt>
<totfact> 0.15713587E+00</totfact>
</mgrwt>
</event>
<event>
 4    1  0.2061941E-008  0.8299783E+03  0.7818608E-02  0.9517611E-01
         -2   -1    0    0    0  501 -0.00000000000E+00  0.00000000000E+00  0.10340591585E+04  0.10340591585E+04  0.25500000000E-02 0.  1.
          2   -1    0    0  501    0  0.00000000000E+00 -0.00000000000E+00 -0.17208232479E+04  0.17208232479E+04  0.25500000000E-02 0. -1.
    8880022    1    1    2    0    0 -0.52741238736E+03  0.62234113703E+03 -0.14217297857E+04  0.16462622980E+04  0.15294330000E+03 0.  0.
    8880022    1    1    2    0    0  0.52741238736E+03 -0.62234113703E+03  0.73496569626E+03  0.11086201085E+04  0.15294330000E+03 0.  0.
<mgrwt>
<rscale>  0 0.82997830E+03</rscale>
<asrwt>0</asrwt>
<pdfrwt beam="1">  1        2 0.26474204E+00 0.82997830E+03</pdfrwt>
<pdfrwt beam="2">  1       -2 0.15908602E+00 0.82997830E+03</pdfrwt>
<totfact> 0.24882940E+00</totfact>
</mgrwt>
</event>
<event>
 4    1  0.2061941E-008  0.9122512E+03  0.7818608E-02  0.9410395E-01
          2   -1    0    0  501    0  0.00000000000E+00  0.00000000000E+00  0.15800019968E+04  0.15800019968E+04  0.25500000000E-02 0. -1.
         -2   -1    0    0    0  501 -0.00000000000E+00 -0.00000000000E+00 -0.97279211662E+03  0.97279211662E+03  0.25500000000E-02 0.  1.
    8880022    1    1    2    0    0 -0.36678066253E+03  0.82114707961E+03  0.11679424679E+04  0.14819891505E+04  0.15294330000E+03 0.  0.
    8880022    1    1    2    0    0  0.36678066253E+03 -0.82114707961E+03 -0.56073258772E+03  0.10708049630E+04  0.15294330000E+03 0.  0.
<mgrwt>
<rscale>  0 0.91225119E+03</rscale>
<asrwt>0</asrwt>
<pdfrwt beam="1">  1        2 0.24307723E+00 0.91225119E+03</pdfrwt>
<pdfrwt beam="2">  1       -2 0.14966033E+00 0.91225119E+03</pdfrwt>
<totfact> 0.34640354E+00</totfact>
</mgrwt>
</event>
<event>
 4    1  0.2061941E-008  0.7961579E+03  0.7818608E-02  0.9565595E-01
         -2   -1    0    0    0  501 -0.00000000000E+00  0.00000000000E+00  0.69597795810E+03  0.69597795810E+03  0.25500000000E-02 0.  1.
          2   -1    0    0  501    0  0.00000000000E+00 -0.00000000000E+00 -0.29994032167E+04  0.29994032167E+04  0.25500000000E-02 0. -1.
    8880022    1    1    2    0    0  0.67740423763E+03 -0.38935743246E+03 -0.26935699143E+04  0.28087695255E+04  0.15294330000E+03 0.  0.
    8880022    1    1    2    0    0 -0.67740423763E+03  0.38935743246E+03  0.39014465564E+03  0.88661164932E+03  0.15294330000E+03 0.  0.
<mgrwt>
<rscale>  0 0.79615788E+03</rscale>
<asrwt>0</asrwt>
<pdfrwt beam="1">  1        2 0.46144664E+00 0.79615788E+03</pdfrwt>
<pdfrwt beam="2">  1       -2 0.10707353E+00 0.79615788E+03</pdfrwt>
<totfact> 0.12924380E+00</totfact>
</mgrwt>
</event>
<event>
 4    1  0.2061941E-008  0.5875880E+03  0.7818608E-02  0.9931497E-01
          2   -1    0    0  501    0  0.00000000000E+00  0.00000000000E+00  0.17049694233E+04  0.17049694233E+04  0.25500000000E-02 0. -1.
         -2   -1    0    0    0  501 -0.00000000000E+00 -0.00000000000E+00 -0.35884067584E+03  0.35884067585E+03  0.25500000000E-02 0.  1.
    8880022    1    1    2    0    0 -0.15786352081E+03 -0.54492858184E+03 -0.80532712622E+01  0.58764322399E+03  0.15294330000E+03 0.  0.
    8880022    1    1    2    0    0  0.15786352081E+03  0.54492858184E+03  0.13541820188E+04  0.14761668752E+04  0.15294330000E+03 0.  0.
<mgrwt>
<rscale>  0 0.58758804E+03</rscale>
<asrwt>0</asrwt>
<pdfrwt beam="1">  1        2 0.26230299E+00 0.58758804E+03</pdfrwt>
<pdfrwt beam="2">  1       -2 0.55206257E-01 0.58758804E+03</pdfrwt>
<totfact> 0.31556875E+01</totfact>
</mgrwt>
</event>
<event>
 4    1  0.2061941E-008  0.2710499E+03  0.7818608E-02  0.1100680E+00
          2   -1    0    0  501    0  0.00000000000E+00  0.00000000000E+00  0.39094220264E+03  0.39094220265E+03  0.25500000000E-02 0. -1.
         -2   -1    0    0    0  501 -0.00000000000E+00 -0.00000000000E+00 -0.48901479889E+03  0.48901479890E+03  0.25500000000E-02 0.  1.
    8880022    1    1    2    0    0 -0.14360595653E+03  0.17162092408E+03 -0.39427383583E+03  0.47845576908E+03  0.15294330000E+03 0.  0.
    8880022    1    1    2    0    0  0.14360595653E+03 -0.17162092408E+03  0.29620123958E+03  0.40150123247E+03  0.15294330000E+03 0.  0.
<mgrwt>
<rscale>  0 0.27104993E+03</rscale>
<asrwt>0</asrwt>
<pdfrwt beam="1">  1        2 0.60144954E-01 0.27104993E+03</pdfrwt>
<pdfrwt beam="2">  1       -2 0.75233046E-01 0.27104993E+03</pdfrwt>
<totfact> 0.13477936E+02</totfact>
</mgrwt>
</event>
<event>
 4    1  0.2061941E-008  0.6528548E+03  0.7818608E-02  0.9801437E-01
          2   -1    0    0  501    0  0.00000000000E+00  0.00000000000E+00  0.13154208152E+04  0.13154208152E+04  0.25500000000E-02 0. -1.
         -2   -1    0    0    0  501 -0.00000000000E+00 -0.00000000000E+00 -0.13167515826E+04  0.13167515826E+04  0.25500000000E-02 0.  1.
    8880022    1    1    2    0    0  0.15476509596E+02  0.63449838703E+03  0.11420784176E+04  0.13155084532E+04  0.15294330000E+03 0.  0.
    8880022    1    1    2    0    0 -0.15476509596E+02 -0.63449838703E+03 -0.11434091850E+04  0.13166639445E+04  0.15294330000E+03 0.  0.
<mgrwt>
<rscale>  0 0.65285479E+03</rscale>
<asrwt>0</asrwt>
<pdfrwt beam="1">  1        2 0.20237244E+00 0.65285479E+03</pdfrwt>
<pdfrwt beam="2">  1       -2 0.20257716E+00 0.65285479E+03</pdfrwt>
<totfact> 0.21703674E+00</totfact>
</mgrwt>
</event>
<event>
 4    1  0.2061941E-008  0.7599134E+03  0.7818608E-02  0.9619925E-01
         -2   -1    0    0    0  501 -0.00000000000E+00  0.00000000000E+00  0.95697991278E+03  0.95697991278E+03  0.25500000000E-02 0.  1.
          2   -1    0    0  501    0  0.00000000000E+00 -0.00000000000E+00 -0.29859039733E+04  0.29859039733E+04  0.25500000000E-02 0. -1.
    8880022    1    1    2    0    0 -0.51434051841E+03 -0.53808046725E+03 -0.27754660389E+04  0.28776170948E+04  0.15294330000E+03 0.  0.
    8880022    1    1    2    0    0  0.51434051841E+03  0.53808046725E+03  0.74654197838E+03  0.10652667913E+04  0.15294330000E+03 0.  1.
<mgrwt>
<rscale>  0 0.75991342E+03</rscale>
<asrwt>0</asrwt>
<pdfrwt beam="1">  1        2 0.45936984E+00 0.75991342E+03</pdfrwt>
<pdfrwt beam="2">  1       -2 0.14722768E+00 0.75991342E+03</pdfrwt>
<totfact> 0.59663624E-01</totfact>
</mgrwt>
</event>
<event>
 4    1  0.2061941E-008  0.6629090E+03  0.7818608E-02  0.9782853E-01
          2   -1    0    0  501    0  0.00000000000E+00  0.00000000000E+00  0.13835973045E+04  0.13835973045E+04  0.25500000000E-02 0. -1.
         -2   -1    0    0    0  501 -0.00000000000E+00 -0.00000000000E+00 -0.24841100240E+04  0.24841100240E+04  0.25500000000E-02 0.  1.
    8880022    1    1    2    0    0 -0.90302408162E+02  0.63867220683E+03  0.12557415839E+04  0.14199772150E+04  0.15294330000E+03 0.  0.
    8880022    1    1    2    0    0  0.90302408162E+02 -0.63867220683E+03 -0.23562543034E+04  0.24477301134E+04  0.15294330000E+03 0.  0.
<mgrwt>
<rscale>  0 0.66290902E+03</rscale>
<asrwt>0</asrwt>
<pdfrwt beam="1">  1        2 0.21286112E+00 0.66290902E+03</pdfrwt>
<pdfrwt beam="2">  1       -2 0.38217077E+00 0.66290902E+03</pdfrwt>
<totfact> 0.15733550E-01</totfact>
</mgrwt>
</event>
<event>
 4    1  0.2061941E-008  0.6218345E+03  0.7818608E-02  0.9861114E-01
         -2   -1    0    0    0  501 -0.00000000000E+00  0.00000000000E+00  0.42387136442E+03  0.42387136442E+03  0.25500000000E-02 0.  1.
          2   -1    0    0  501    0  0.00000000000E+00 -0.00000000000E+00 -0.13713548263E+04  0.13713548264E+04  0.25500000000E-02 0. -1.
    8880022    1    1    2    0    0 -0.49131111977E+03  0.34914160277E+03  0.45618321961E+02  0.62350554088E+03  0.15294330000E+03 0.  0.
    8880022    1    1    2    0    0  0.49131111977E+03 -0.34914160277E+03 -0.99310178390E+03  0.11717206499E+04  0.15294330000E+03 0.  0.
<mgrwt>
<rscale>  0 0.62183449E+03</rscale>
<asrwt>0</asrwt>
<pdfrwt beam="1">  1        2 0.21097766E+00 0.62183449E+03</pdfrwt>
<pdfrwt beam="2">  1       -2 0.65210980E-01 0.62183449E+03</pdfrwt>
<totfact> 0.33777845E+01</totfact>
</mgrwt>
</event>
<event>
 4    1  0.2061941E-008  0.5939253E+03  0.7818608E-02  0.9918090E-01
          2   -1    0    0  501    0  0.00000000000E+00  0.00000000000E+00  0.29081389922E+04  0.29081389922E+04  0.25500000000E-02 0. -1.
         -2   -1    0    0    0  501 -0.00000000000E+00 -0.00000000000E+00 -0.13776654518E+03  0.13776654520E+03  0.25500000000E-02 0.  1.
    8880022    1    1    2    0    0 -0.30735607729E+03 -0.48465230561E+03  0.85861017999E+03  0.10440108763E+04  0.15294330000E+03 0.  0.
    8880022    1    1    2    0    0  0.30735607729E+03  0.48465230561E+03  0.19117622670E+04  0.20018946611E+04  0.15294330000E+03 0.  0.
<mgrwt>
<rscale>  0 0.59392531E+03</rscale>
<asrwt>0</asrwt>
<pdfrwt beam="1">  1        2 0.44740603E+00 0.59392531E+03</pdfrwt>
<pdfrwt beam="2">  1       -2 0.21194852E-01 0.59392531E+03</pdfrwt>
<totfact> 0.41352995E+01</totfact>
</mgrwt>
</event>
<event>
 4    1  0.2061941E-008  0.1730078E+04  0.7818608E-02  0.8744393E-01
         -2   -1    0    0    0  501 -0.00000000000E+00  0.00000000000E+00  0.35424951918E+04  0.35424951918E+04  0.25500000000E-02 0.  1.
          2   -1    0    0  501    0  0.00000000000E+00 -0.00000000000E+00 -0.12479891107E+04  0.12479891107E+04  0.25500000000E-02 0. -1.
    8880022    1    1    2    0    0 -0.16188664555E+04  0.59080465487E+03  0.25084685494E+04  0.30472257641E+04  0.15294330000E+03 0.  0.
    8880022    1    1    2    0    0  0.16188664555E+04 -0.59080465487E+03 -0.21396246832E+03  0.17432585384E+04  0.15294330000E+03 0.  0.
<mgrwt>
<rscale>  0 0.17300781E+04</rscale>
<asrwt>0</asrwt>
<pdfrwt beam="1">  1        2 0.19199833E+00 0.17300781E+04</pdfrwt>
<pdfrwt beam="2">  1       -2 0.54499925E+00 0.17300781E+04</pdfrwt>
<totfact> 0.14509085E-02</totfact>
</mgrwt>
</event>
<event>
 4    1  0.2061941E-008  0.1042079E+04  0.7818608E-02  0.9263560E-01
          2   -1    0    0  501    0  0.00000000000E+00  0.00000000000E+00  0.15010926987E+04  0.15010926987E+04  0.25500000000E-02 0. -1.
         -2   -1    0    0    0  501 -0.00000000000E+00 -0.00000000000E+00 -0.13648743720E+04  0.13648743720E+04  0.25500000000E-02 0.  1.
    8880022    1    1    2    0    0 -0.90434499867E+03 -0.49466917631E+03  0.10504807582E+04  0.14796752843E+04  0.15294330000E+03 0.  0.
    8880022    1    1    2    0    0  0.90434499867E+03  0.49466917631E+03 -0.91426243142E+03  0.13862917864E+04  0.15294330000E+03 0.  0.
<mgrwt>
<rscale>  0 0.10420792E+04</rscale>
<asrwt>0</asrwt>
<pdfrwt beam="1">  1        2 0.23093734E+00 0.10420792E+04</pdfrwt>
<pdfrwt beam="2">  1       -2 0.20998067E+00 0.10420792E+04</pdfrwt>
<totfact> 0.14354954E+00</totfact>
</mgrwt>
</event>
<event>
 4    1  0.2061941E-008  0.9376913E+03  0.7818608E-02  0.9379654E-01
         -2   -1    0    0    0  501 -0.00000000000E+00  0.00000000000E+00  0.44333947809E+03  0.44333947810E+03  0.25500000000E-02 0.  1.
          2   -1    0    0  501    0  0.00000000000E+00 -0.00000000000E+00 -0.31122146678E+04  0.31122146678E+04  0.25500000000E-02 0. -1.
    8880022    1    1    2    0    0 -0.76337883441E+03 -0.52261473915E+03 -0.24051614498E+04  0.25814853598E+04  0.15294330000E+03 0.  0.
    8880022    1    1    2    0    0  0.76337883441E+03  0.52261473915E+03 -0.26371373993E+03  0.97406878609E+03  0.15294330000E+03 0.  0.
<mgrwt>
<rscale>  0 0.93769135E+03</rscale>
<asrwt>0</asrwt>
<pdfrwt beam="1">  1        2 0.47880224E+00 0.93769135E+03</pdfrwt>
<pdfrwt beam="2">  1       -2 0.68206076E-01 0.93769135E+03</pdfrwt>
<totfact> 0.30096307E+00</totfact>
</mgrwt>
</event>
<event>
 4    1  0.2061941E-008  0.3324639E+03  0.7818608E-02  0.1070052E+00
          2   -1    0    0  501    0  0.00000000000E+00  0.00000000000E+00  0.28863074832E+04  0.28863074832E+04  0.25500000000E-02 0. -1.
         -2   -1    0    0    0  501 -0.00000000000E+00 -0.00000000000E+00 -0.39970758145E+03  0.39970758146E+03  0.25500000000E-02 0.  1.
    8880022    1    1    2    0    0 -0.29383384855E+03 -0.28323804052E+02 -0.31901925273E+03  0.46076621519E+03  0.15294330000E+03 0.  1.
    8880022    1    1    2    0    0  0.29383384855E+03  0.28323804052E+02  0.28056191545E+04  0.28252488495E+04  0.15294330000E+03 0.  0.
<mgrwt>
<rscale>  0 0.33246386E+03</rscale>
<asrwt>0</asrwt>
<pdfrwt beam="1">  1        2 0.44404730E+00 0.33246386E+03</pdfrwt>
<pdfrwt beam="2">  1       -2 0.61493474E-01 0.33246386E+03</pdfrwt>
<totfact> 0.60193660E+00</totfact>
</mgrwt>
</event>
<event>
 4    1  0.3001107E-008  0.1205458E+04  0.7818608E-02  0.9108093E-01
         -2   -1    0    0    0  501 -0.00000000000E+00  0.00000000000E+00  0.13616871780E+04  0.13616871780E+04  0.25500000000E-02 0.  1.
          2   -1    0    0  501    0  0.00000000000E+00 -0.00000000000E+00 -0.27085002180E+04  0.27085002181E+04  0.25500000000E-02 0. -1.
    8880022    1    1    2    0    0 -0.36473596264E+03  0.11387294077E+04  0.91083063913E+03  0.15108742809E+04  0.15294330000E+03 0.  0.
    8880022    1    1    2    0    0  0.36473596264E+03 -0.11387294077E+04 -0.22576436792E+04  0.25593131152E+04  0.15294330000E+03 0.  0.
<mgrwt>
<rscale>  0 0.12054579E+04</rscale>
<asrwt>0</asrwt>
<pdfrwt beam="1">  1        2 0.41669234E+00 0.12054579E+04</pdfrwt>
<pdfrwt beam="2">  1       -2 0.20949034E+00 0.12054579E+04</pdfrwt>
<totfact> 0.29607568E-01</totfact>
</mgrwt>
</event>
<event>
 4    1  0.2061941E-008  0.6687104E+03  0.7818608E-02  0.9772290E-01
          2   -1    0    0  501    0  0.00000000000E+00  0.00000000000E+00  0.31175747950E+04  0.31175747950E+04  0.25500000000E-02 0. -1.
         -2   -1    0    0    0  501 -0.00000000000E+00 -0.00000000000E+00 -0.66864683779E+03  0.66864683779E+03  0.25500000000E-02 0.  1.
    8880022    1    1    2    0    0  0.41969067403E+03 -0.49763603897E+03 -0.45335203532E+03  0.80789950495E+03  0.15294330000E+03 0.  0.
    8880022    1    1    2    0    0 -0.41969067403E+03  0.49763603897E+03  0.29022799925E+04  0.29783221279E+04  0.15294330000E+03 0.  0.
<mgrwt>
<rscale>  0 0.66871036E+03</rscale>
<asrwt>0</asrwt>
<pdfrwt beam="1">  1        2 0.47962689E+00 0.66871036E+03</pdfrwt>
<pdfrwt beam="2">  1       -2 0.10286874E+00 0.66871036E+03</pdfrwt>
<totfact> 0.12380111E+00</totfact>
</mgrwt>
</event>
<event>
 4    1  0.2061941E-008  0.1293493E+04  0.7818608E-02  0.9034741E-01
          2   -1    0    0  501    0  0.00000000000E+00  0.00000000000E+00  0.22965889725E+04  0.22965889725E+04  0.25500000000E-02 0. -1.
         -2   -1    0    0    0  501 -0.00000000000E+00 -0.00000000000E+00 -0.14268730571E+04  0.14268730571E+04  0.25500000000E-02 0.  1.
    8880022    1    1    2    0    0 -0.69052748881E+02 -0.12825616093E+04 -0.86758884715E+03  0.15575091089E+04  0.15294330000E+03 0.  0.
    8880022    1    1    2    0    0  0.69052748881E+02  0.12825616093E+04  0.17373047625E+04  0.21659529207E+04  0.15294330000E+03 0.  0.
<mgrwt>
<rscale>  0 0.12934930E+04</rscale>
<asrwt>0</asrwt>
<pdfrwt beam="1">  1        2 0.35332138E+00 0.12934930E+04</pdfrwt>
<pdfrwt beam="2">  1       -2 0.21951893E+00 0.12934930E+04</pdfrwt>
<totfact> 0.43586958E-01</totfact>
</mgrwt>
</event>
<event>
 4    1  0.2061941E-008  0.6043078E+03  0.7818608E-02  0.9896509E-01
         -2   -1    0    0    0  501 -0.00000000000E+00  0.00000000000E+00  0.23947051712E+03  0.23947051713E+03  0.25500000000E-02 0.  1.
          2   -1    0    0  501    0  0.00000000000E+00 -0.00000000000E+00 -0.16649158403E+04  0.16649158403E+04  0.25500000000E-02 0. -1.
    8880022    1    1    2    0    0  0.51639917631E+03 -0.27409519308E+03 -0.98877547984E+03  0.11588204722E+04  0.15294330000E+03 0.  0.
    8880022    1    1    2    0    0 -0.51639917631E+03  0.27409519308E+03 -0.43666984333E+03  0.74556588526E+03  0.15294330000E+03 0.  0.
<mgrwt>
<rscale>  0 0.60430782E+03</rscale>
<asrwt>0</asrwt>
<pdfrwt beam="1">  1        2 0.25614089E+00 0.60430782E+03</pdfrwt>
<pdfrwt beam="2">  1       -2 0.36841619E-01 0.60430782E+03</pdfrwt>
<totfact> 0.74001676E+01</totfact>
</mgrwt>
</event>
<event>
 4    1  0.2061941E-008  0.1008949E+04  0.7818608E-02  0.9298784E-01
         -2   -1    0    0    0  501 -0.00000000000E+00  0.00000000000E+00  0.10653655435E+04  0.10653655435E+04  0.25500000000E-02 0.  1.
          2   -1    0    0  501    0  0.00000000000E+00 -0.00000000000E+00 -0.14451815187E+04  0.14451815188E+04  0.25500000000E-02 0. -1.
    8880022    1    1    2    0    0  0.14586514170E+03  0.98656470719E+03  0.54076845437E+03  0.11447308571E+04  0.15294330000E+03 0.  0.
    8880022    1    1    2    0    0 -0.14586514170E+03 -0.98656470719E+03 -0.92058442963E+03  0.13658162051E+04  0.15294330000E+03 0.  0.
<mgrwt>
<rscale>  0 0.10089491E+04</rscale>
<asrwt>0</asrwt>
<pdfrwt beam="1">  1        2 0.22233562E+00 0.10089491E+04</pdfrwt>
<pdfrwt beam="2">  1       -2 0.16390239E+00 0.10089491E+04</pdfrwt>
<totfact> 0.31871146E+00</totfact>
</mgrwt>
</event>
<event>
 4    1  0.2061941E-008  0.1643029E+04  0.7818608E-02  0.8794541E-01
         -2   -1    0    0    0  501 -0.00000000000E+00  0.00000000000E+00  0.17691542994E+04  0.17691542994E+04  0.25500000000E-02 0.  1.
          2   -1    0    0  501    0  0.00000000000E+00 -0.00000000000E+00 -0.39474506046E+04  0.39474506046E+04  0.25500000000E-02 0. -1.
    8880022    1    1    2    0    0  0.11846744701E+04  0.11281400297E+04 -0.33278537116E+04  0.37113549420E+04  0.15294330000E+03 0.  0.
    8880022    1    1    2    0    0 -0.11846744701E+04 -0.11281400297E+04  0.11495574064E+04  0.20052499621E+04  0.15294330000E+03 0.  0.
<mgrwt>
<rscale>  0 0.16430293E+04</rscale>
<asrwt>0</asrwt>
<pdfrwt beam="1">  1        2 0.60730009E+00 0.16430293E+04</pdfrwt>
<pdfrwt beam="2">  1       -2 0.27217759E+00 0.16430293E+04</pdfrwt>
<totfact> 0.16517708E-02</totfact>
</mgrwt>
</event>
<event>
 4    1  0.2061941E-008  0.1219603E+04  0.7818608E-02  0.9095869E-01
         -2   -1    0    0    0  501 -0.00000000000E+00  0.00000000000E+00  0.29231830810E+04  0.29231830810E+04  0.25500000000E-02 0.  1.
          2   -1    0    0  501    0  0.00000000000E+00 -0.00000000000E+00 -0.14514631171E+04  0.14514631171E+04  0.25500000000E-02 0. -1.
    8880022    1    1    2    0    0 -0.11391120358E+04 -0.40799834840E+03 -0.10268429762E+04  0.15943139695E+04  0.15294330000E+03 0.  0.
    8880022    1    1    2    0    0  0.11391120358E+04  0.40799834840E+03  0.24985629401E+04  0.27803322286E+04  0.15294330000E+03 0.  0.
<mgrwt>
<rscale>  0 0.12196026E+04</rscale>
<asrwt>0</asrwt>
<pdfrwt beam="1">  1        2 0.22330202E+00 0.12196026E+04</pdfrwt>
<pdfrwt beam="2">  1       -2 0.44972047E+00 0.12196026E+04</pdfrwt>
<totfact> 0.46180097E-02</totfact>
</mgrwt>
</event>
<event>
 4    1  0.2061941E-008  0.4025938E+03  0.7818608E-02  0.1042885E+00
         -2   -1    0    0    0  501 -0.00000000000E+00  0.00000000000E+00  0.58757864758E+03  0.58757864758E+03  0.25500000000E-02 0.  1.
          2   -1    0    0  501    0  0.00000000000E+00 -0.00000000000E+00 -0.11797296907E+04  0.11797296907E+04  0.25500000000E-02 0. -1.
    8880022    1    1    2    0    0  0.22862608709E+03 -0.29397320044E+03 -0.10695520167E+04  0.11428137643E+04  0.15294330000E+03 0.  0.
    8880022    1    1    2    0    0 -0.22862608709E+03  0.29397320044E+03  0.47740097365E+03  0.62449457398E+03  0.15294330000E+03 0.  1.
<mgrwt>
<rscale>  0 0.40259382E+03</rscale>
<asrwt>0</asrwt>
<pdfrwt beam="1">  1        2 0.18149687E+00 0.40259382E+03</pdfrwt>
<pdfrwt beam="2">  1       -2 0.90396715E-01 0.40259382E+03</pdfrwt>
<totfact> 0.21864791E+01</totfact>
</mgrwt>
</event>
<event>
 4    1  0.2061941E-008  0.5089263E+03  0.7818608E-02  0.1011475E+00
          2   -1    0    0  501    0  0.00000000000E+00  0.00000000000E+00  0.53797980003E+03  0.53797980003E+03  0.25500000000E-02 0. -1.
         -2   -1    0    0    0  501 -0.00000000000E+00 -0.00000000000E+00 -0.10043584551E+04  0.10043584551E+04  0.25500000000E-02 0.  1.
    8880022    1    1    2    0    0  0.21741530665E+03 -0.43398718746E+03  0.32325473730E+03  0.60290925739E+03  0.15294330000E+03 0.  0.
    8880022    1    1    2    0    0 -0.21741530665E+03  0.43398718746E+03 -0.78963339235E+03  0.93942899773E+03  0.15294330000E+03 0.  0.
<mgrwt>
<rscale>  0 0.50892627E+03</rscale>
<asrwt>0</asrwt>
<pdfrwt beam="1">  1        2 0.82766123E-01 0.50892627E+03</pdfrwt>
<pdfrwt beam="2">  1       -2 0.15451668E+00 0.50892627E+03</pdfrwt>
<totfact> 0.16305721E+01</totfact>
</mgrwt>
</event>
<event>
 4    1  0.2061941E-008  0.5483209E+03  0.7818608E-02  0.1001883E+00
          2   -1    0    0  501    0  0.00000000000E+00  0.00000000000E+00  0.38560973879E+04  0.38560973879E+04  0.25500000000E-02 0. -1.
         -2   -1    0    0    0  501 -0.00000000000E+00 -0.00000000000E+00 -0.59295359248E+03  0.59295359248E+03  0.25500000000E-02 0.  1.
    8880022    1    1    2    0    0  0.51584032143E+03  0.10570227029E+03  0.37046906199E+04  0.37450485243E+04  0.15294330000E+03 0. -1.
    8880022    1    1    2    0    0 -0.51584032143E+03 -0.10570227029E+03 -0.44154682439E+03  0.70400245617E+03  0.15294330000E+03 0.  0.
<mgrwt>
<rscale>  0 0.54832095E+03</rscale>
<asrwt>0</asrwt>
<pdfrwt beam="1">  1        2 0.59324573E+00 0.54832095E+03</pdfrwt>
<pdfrwt beam="2">  1       -2 0.91223633E-01 0.54832095E+03</pdfrwt>
<totfact> 0.53618660E-01</totfact>
</mgrwt>
</event>
<event>
 4    1  0.2061941E-008  0.5513275E+03  0.7818608E-02  0.1001187E+00
          2   -1    0    0  501    0  0.00000000000E+00  0.00000000000E+00  0.21700071803E+04  0.21700071803E+04  0.25500000000E-02 0. -1.
         -2   -1    0    0    0  501 -0.00000000000E+00 -0.00000000000E+00 -0.32491812660E+03  0.32491812661E+03  0.25500000000E-02 0.  1.
    8880022    1    1    2    0    0  0.47852213412E+03  0.22712758658E+03  0.18634438833E+04  0.19432923436E+04  0.15294330000E+03 0.  0.
    8880022    1    1    2    0    0 -0.47852213412E+03 -0.22712758658E+03 -0.18354829598E+02  0.55163296332E+03  0.15294330000E+03 0.  0.
<mgrwt>
<rscale>  0 0.55132751E+03</rscale>
<asrwt>0</asrwt>
<pdfrwt beam="1">  1        2 0.33384725E+00 0.55132751E+03</pdfrwt>
<pdfrwt beam="2">  1       -2 0.49987406E-01 0.55132751E+03</pdfrwt>
<totfact> 0.21800165E+01</totfact>
</mgrwt>
</event>
<event>
 4    1  0.2061941E-008  0.7446637E+03  0.7818608E-02  0.9643760E-01
         -2   -1    0    0    0  501 -0.00000000000E+00  0.00000000000E+00  0.54488692255E+03  0.54488692256E+03  0.25500000000E-02 0.  1.
          2   -1    0    0  501    0  0.00000000000E+00 -0.00000000000E+00 -0.12178086922E+04  0.12178086923E+04  0.25500000000E-02 0. -1.
    8880022    1    1    2    0    0 -0.53346646064E+03 -0.49653389101E+03  0.20816481411E+02  0.74495459490E+03  0.15294330000E+03 0.  0.
    8880022    1    1    2    0    0  0.53346646064E+03  0.49653389101E+03 -0.69373825111E+03  0.10177410199E+04  0.15294330000E+03 0.  0.
<mgrwt>
<rscale>  0 0.74466370E+03</rscale>
<asrwt>0</asrwt>
<pdfrwt beam="1">  1        2 0.18735518E+00 0.74466370E+03</pdfrwt>
<pdfrwt beam="2">  1       -2 0.83828758E-01 0.74466370E+03</pdfrwt>
<totfact> 0.23439634E+01</totfact>
</mgrwt>
</event>
<event>
 4    1  0.2061941E-008  0.7951028E+03  0.7818608E-02  0.9567133E-01
          2   -1    0    0  501    0  0.00000000000E+00  0.00000000000E+00  0.16976024954E+04  0.16976024954E+04  0.25500000000E-02 0. -1.
         -2   -1    0    0    0  501 -0.00000000000E+00 -0.00000000000E+00 -0.15940781224E+04  0.15940781224E+04  0.25500000000E-02 0.  1.
    8880022    1    1    2    0    0 -0.35761484863E+03 -0.69347556755E+03 -0.13890625760E+04  0.16005259247E+04  0.15294330000E+03 0.  0.
    8880022    1    1    2    0    0  0.35761484863E+03  0.69347556755E+03  0.14925869489E+04  0.16911546931E+04  0.15294330000E+03 0.  0.
<mgrwt>
<rscale>  0 0.79510276E+03</rscale>
<asrwt>0</asrwt>
<pdfrwt beam="1">  1        2 0.26116962E+00 0.79510276E+03</pdfrwt>
<pdfrwt beam="2">  1       -2 0.24524279E+00 0.79510276E+03</pdfrwt>
<totfact> 0.70053201E-01</totfact>
</mgrwt>
</event>
<event>
 4    1  0.2061941E-008  0.1269649E+04  0.7818608E-02  0.9053986E-01
          2   -1    0    0  501    0  0.00000000000E+00  0.00000000000E+00  0.80453225272E+03  0.80453225272E+03  0.25500000000E-02 0. -1.
         -2   -1    0    0    0  501 -0.00000000000E+00 -0.00000000000E+00 -0.22704470078E+04  0.22704470078E+04  0.25500000000E-02 0.  1.
    8880022    1    1    2    0    0  0.15898905363E+03 -0.12503359851E+04 -0.12599914491E+04  0.17887391368E+04  0.15294330000E+03 0.  0.
    8880022    1    1    2    0    0 -0.15898905363E+03  0.12503359851E+04 -0.20592330605E+03  0.12862401237E+04  0.15294330000E+03 0.  0.
<mgrwt>
<rscale>  0 0.12696493E+04</rscale>
<asrwt>0</asrwt>
<pdfrwt beam="1">  1        2 0.12377419E+00 0.12696493E+04</pdfrwt>
<pdfrwt beam="2">  1       -2 0.34929954E+00 0.12696493E+04</pdfrwt>
<totfact> 0.52492047E-01</totfact>
</mgrwt>
</event>
<event>
 4    1  0.2061941E-008  0.3671323E+03  0.7818608E-02  0.1055795E+00
         -2   -1    0    0    0  501 -0.00000000000E+00  0.00000000000E+00  0.63079353915E+02  0.63079353966E+02  0.25500000000E-02 0.  1.
          2   -1    0    0  501    0  0.00000000000E+00 -0.00000000000E+00 -0.32508862036E+04  0.32508862036E+04  0.25500000000E-02 0. -1.
    8880022    1    1    2    0    0  0.23057728486E+03  0.24130592999E+03 -0.25639270252E+04  0.25900787401E+04  0.15294330000E+03 0.  0.
    8880022    1    1    2    0    0 -0.23057728486E+03 -0.24130592999E+03 -0.62387982446E+03  0.72388681748E+03  0.15294330000E+03 0. -1.
<mgrwt>
<rscale>  0 0.36713225E+03</rscale>
<asrwt>0</asrwt>
<pdfrwt beam="1">  1        2 0.50013621E+00 0.36713225E+03</pdfrwt>
<pdfrwt beam="2">  1       -2 0.97045185E-02 0.36713225E+03</pdfrwt>
<totfact> 0.99161323E+01</totfact>
</mgrwt>
</event>
<event>
 4    1  0.2061941E-008  0.1334394E+04  0.7818608E-02  0.9002727E-01
         -2   -1    0    0    0  501 -0.00000000000E+00  0.00000000000E+00  0.11937673537E+04  0.11937673537E+04  0.25500000000E-02 0.  1.
          2   -1    0    0  501    0  0.00000000000E+00 -0.00000000000E+00 -0.21851410578E+04  0.21851410578E+04  0.25500000000E-02 0. -1.
    8880022    1    1    2    0    0 -0.98864612567E+03 -0.88305914152E+03 -0.14474902804E+04  0.19687138883E+04  0.15294330000E+03 0.  0.
    8880022    1    1    2    0    0  0.98864612567E+03  0.88305914152E+03  0.45611657631E+03  0.14101945233E+04  0.15294330000E+03 0.  0.
<mgrwt>
<rscale>  0 0.13343936E+04</rscale>
<asrwt>0</asrwt>
<pdfrwt beam="1">  1        2 0.33617555E+00 0.13343936E+04</pdfrwt>
<pdfrwt beam="2">  1       -2 0.18365652E+00 0.13343936E+04</pdfrwt>
<totfact> 0.86237587E-01</totfact>
</mgrwt>
</event>
<event>
 4    1  0.2061941E-008  0.6859018E+03  0.7818608E-02  0.9741650E-01
         -2   -1    0    0    0  501 -0.00000000000E+00  0.00000000000E+00  0.51501307777E+03  0.51501307778E+03  0.25500000000E-02 0.  1.
          2   -1    0    0  501    0  0.00000000000E+00 -0.00000000000E+00 -0.30407607824E+04  0.30407607824E+04  0.25500000000E-02 0. -1.
    8880022    1    1    2    0    0  0.55532170033E+03  0.37240760744E+03  0.22417078802E+03  0.72160502503E+03  0.15294330000E+03 0.  1.
    8880022    1    1    2    0    0 -0.55532170033E+03 -0.37240760744E+03 -0.27499184926E+04  0.28341688351E+04  0.15294330000E+03 0.  0.
<mgrwt>
<rscale>  0 0.68590179E+03</rscale>
<asrwt>0</asrwt>
<pdfrwt beam="1">  1        2 0.46780934E+00 0.68590179E+03</pdfrwt>
<pdfrwt beam="2">  1       -2 0.79232783E-01 0.68590179E+03</pdfrwt>
<totfact> 0.25127968E+00</totfact>
</mgrwt>
</event>
<event>
 4    1  0.2061941E-008  0.7584746E+03  0.7818608E-02  0.9622148E-01
          2   -1    0    0  501    0  0.00000000000E+00  0.00000000000E+00  0.29506040714E+04  0.29506040714E+04  0.25500000000E-02 0. -1.
         -2   -1    0    0    0  501 -0.00000000000E+00 -0.00000000000E+00 -0.35334444717E+03  0.35334444718E+03  0.25500000000E-02 0.  1.
    8880022    1    1    2    0    0 -0.19533539956E+03  0.71675385214E+03  0.24046031597E+04  0.25213885086E+04  0.15294330000E+03 0.  0.
    8880022    1    1    2    0    0  0.19533539956E+03 -0.71675385214E+03  0.19265646459E+03  0.78256000999E+03  0.15294330000E+03 0.  0.
<mgrwt>
<rscale>  0 0.75847456E+03</rscale>
<asrwt>0</asrwt>
<pdfrwt beam="1">  1        2 0.45393910E+00 0.75847456E+03</pdfrwt>
<pdfrwt beam="2">  1       -2 0.54360683E-01 0.75847456E+03</pdfrwt>
<totfact> 0.63236176E+00</totfact>
</mgrwt>
</event>
<event>
 4    1  0.2061941E-008  0.1767453E+04  0.7818608E-02  0.8723801E-01
          2   -1    0    0  501    0  0.00000000000E+00  0.00000000000E+00  0.20892412380E+04  0.20892412380E+04  0.25500000000E-02 0. -1.
         -2   -1    0    0    0  501 -0.00000000000E+00 -0.00000000000E+00 -0.18440498619E+04  0.18440498619E+04  0.25500000000E-02 0.  1.
    8880022    1    1    2    0    0  0.17040197712E+04  0.44363955431E+03  0.97794179460E+03  0.20199656535E+04  0.15294330000E+03 0.  0.
    8880022    1    1    2    0    0 -0.17040197712E+04 -0.44363955431E+03 -0.73275041850E+03  0.19133254463E+04  0.15294330000E+03 0.  0.
<mgrwt>
<rscale>  0 0.17674533E+04</rscale>
<asrwt>0</asrwt>
<pdfrwt beam="1">  1        2 0.32142173E+00 0.17674533E+04</pdfrwt>
<pdfrwt beam="2">  1       -2 0.28369998E+00 0.17674533E+04</pdfrwt>
<totfact> 0.21689455E-01</totfact>
</mgrwt>
</event>
<event>
 4    1  0.2061941E-008  0.4097000E+03  0.7818608E-02  0.1040472E+00
         -2   -1    0    0    0  501 -0.00000000000E+00  0.00000000000E+00  0.17150811214E+03  0.17150811216E+03  0.25500000000E-02 0.  1.
          2   -1    0    0  501    0  0.00000000000E+00 -0.00000000000E+00 -0.17643251264E+04  0.17643251264E+04  0.25500000000E-02 0. -1.
    8880022    1    1    2    0    0  0.52241257504E+02 -0.37647477061E+03 -0.15051960015E+03  0.43647474719E+03  0.15294330000E+03 0.  0.
    8880022    1    1    2    0    0 -0.52241257504E+02  0.37647477061E+03 -0.14422974141E+04  0.14993584913E+04  0.15294330000E+03 0.  0.
<mgrwt>
<rscale>  0 0.40969996E+03</rscale>
<asrwt>0</asrwt>
<pdfrwt beam="1">  1        2 0.27143462E+00 0.40969996E+03</pdfrwt>
<pdfrwt beam="2">  1       -2 0.26385865E-01 0.40969996E+03</pdfrwt>
<totfact> 0.12506574E+02</totfact>
</mgrwt>
</event>
<event>
 4    1  0.2061941E-008  0.8872059E+03  0.7818608E-02  0.9441717E-01
          2   -1    0    0  501    0  0.00000000000E+00  0.00000000000E+00  0.16110758599E+04  0.16110758599E+04  0.25500000000E-02 0. -1.
         -2   -1    0    0    0  501 -0.00000000000E+00 -0.00000000000E+00 -0.85604941206E+03  0.85604941206E+03  0.25500000000E-02 0.  1.
    8880022    1    1    2    0    0 -0.27047032980E+03  0.83101654769E+03  0.11857232868E+04  0.14809031257E+04  0.15294330000E+03 0.  0.
    8880022    1    1    2    0    0  0.27047032980E+03 -0.83101654769E+03 -0.43069683889E+03  0.98622214632E+03  0.15294330000E+03 0.  0.
<mgrwt>
<rscale>  0 0.88720593E+03</rscale>
<asrwt>0</asrwt>
<pdfrwt beam="1">  1        2 0.24785782E+00 0.88720593E+03</pdfrwt>
<pdfrwt beam="2">  1       -2 0.13169991E+00 0.88720593E+03</pdfrwt>
<totfact> 0.46565522E+00</totfact>
</mgrwt>
</event>
<event>
 4    1  0.2061941E-008  0.5202508E+03  0.7818608E-02  0.1008624E+00
          2   -1    0    0  501    0  0.00000000000E+00  0.00000000000E+00  0.36571057403E+04  0.36571057403E+04  0.25500000000E-02 0. -1.
         -2   -1    0    0    0  501 -0.00000000000E+00 -0.00000000000E+00 -0.32044679234E+03  0.32044679235E+03  0.25500000000E-02 0.  1.
    8880022    1    1    2    0    0 -0.43428564193E+03 -0.24220912245E+03 -0.75729197524E+02  0.52573362282E+03  0.15294330000E+03 0.  1.
    8880022    1    1    2    0    0  0.43428564193E+03  0.24220912245E+03  0.34123881455E+04  0.34518189098E+04  0.15294330000E+03 0.  0.
<mgrwt>
<rscale>  0 0.52025083E+03</rscale>
<asrwt>0</asrwt>
<pdfrwt beam="1">  1        2 0.56263165E+00 0.52025083E+03</pdfrwt>
<pdfrwt beam="2">  1       -2 0.49299507E-01 0.52025083E+03</pdfrwt>
<totfact> 0.28428525E+00</totfact>
</mgrwt>
</event>
<event>
 4    1  0.2061941E-008  0.4330523E+03  0.7818608E-02  0.1032900E+00
         -2   -1    0    0    0  501 -0.00000000000E+00  0.00000000000E+00  0.19350609085E+03  0.19350609087E+03  0.25500000000E-02 0.  1.
          2   -1    0    0  501    0  0.00000000000E+00 -0.00000000000E+00 -0.13532641266E+04  0.13532641266E+04  0.25500000000E-02 0. -1.
    8880022    1    1    2    0    0 -0.30424353795E+03  0.26754166470E+03 -0.99192036855E+03  0.10823309768E+04  0.15294330000E+03 0.  0.
    8880022    1    1    2    0    0  0.30424353795E+03 -0.26754166470E+03 -0.16783766718E+03  0.46443924067E+03  0.15294330000E+03 0.  1.
<mgrwt>
<rscale>  0 0.43305234E+03</rscale>
<asrwt>0</asrwt>
<pdfrwt beam="1">  1        2 0.20819448E+00 0.43305234E+03</pdfrwt>
<pdfrwt beam="2">  1       -2 0.29770169E-01 0.43305234E+03</pdfrwt>
<totfact> 0.16740948E+02</totfact>
</mgrwt>
</event>
<event>
 4    1  0.2061941E-008  0.5979685E+03  0.7818608E-02  0.9909630E-01
         -2   -1    0    0    0  501 -0.00000000000E+00  0.00000000000E+00  0.41379563971E+03  0.41379563972E+03  0.25500000000E-02 0.  1.
          2   -1    0    0  501    0  0.00000000000E+00 -0.00000000000E+00 -0.12031613080E+04  0.12031613080E+04  0.25500000000E-02 0. -1.
    8880022    1    1    2    0    0 -0.11356609517E+03 -0.56681341968E+03  0.34494775770E+02  0.59896264765E+03  0.15294330000E+03 0.  0.
    8880022    1    1    2    0    0  0.11356609517E+03  0.56681341968E+03 -0.82386044409E+03  0.10179943001E+04  0.15294330000E+03 0.  0.
<mgrwt>
<rscale>  0 0.59796853E+03</rscale>
<asrwt>0</asrwt>
<pdfrwt beam="1">  1        2 0.18510174E+00 0.59796853E+03</pdfrwt>
<pdfrwt beam="2">  1       -2 0.63660868E-01 0.59796853E+03</pdfrwt>
<totfact> 0.44559112E+01</totfact>
</mgrwt>
</event>
<event>
 4    1  0.2061941E-008  0.1331563E+04  0.7818608E-02  0.9004903E-01
         -2   -1    0    0    0  501 -0.00000000000E+00  0.00000000000E+00  0.19906558424E+04  0.19906558424E+04  0.25500000000E-02 0.  1.
          2   -1    0    0  501    0  0.00000000000E+00 -0.00000000000E+00 -0.13092601100E+04  0.13092601100E+04  0.25500000000E-02 0. -1.
    8880022    1    1    2    0    0  0.12904236962E+04  0.29064755791E+03  0.12736149621E+04  0.18425949212E+04  0.15294330000E+03 0.  0.
    8880022    1    1    2    0    0 -0.12904236962E+04 -0.29064755791E+03 -0.59221922976E+03  0.14573210312E+04  0.15294330000E+03 0.  0.
<mgrwt>
<rscale>  0 0.13315634E+04</rscale>
<asrwt>0</asrwt>
<pdfrwt beam="1">  1        2 0.20142463E+00 0.13315634E+04</pdfrwt>
<pdfrwt beam="2">  1       -2 0.30625475E+00 0.13315634E+04</pdfrwt>
<totfact> 0.45647800E-01</totfact>
</mgrwt>
</event>
<event>
 4    1  0.2061941E-008  0.1683374E+04  0.7818608E-02  0.8770904E-01
         -2   -1    0    0    0  501 -0.00000000000E+00  0.00000000000E+00  0.20394694947E+04  0.20394694947E+04  0.25500000000E-02 0.  1.
          2   -1    0    0  501    0  0.00000000000E+00 -0.00000000000E+00 -0.18074903461E+04  0.18074903461E+04  0.25500000000E-02 0. -1.
    8880022    1    1    2    0    0  0.29794156168E+02  0.16761472395E+04  0.10410214950E+04  0.19792611415E+04  0.15294330000E+03 0.  1.
    8880022    1    1    2    0    0 -0.29794156168E+02 -0.16761472395E+04 -0.80904234635E+03  0.18676986993E+04  0.15294330000E+03 0.  0.
<mgrwt>
<rscale>  0 0.16833743E+04</rscale>
<asrwt>0</asrwt>
<pdfrwt beam="1">  1        2 0.27807544E+00 0.16833743E+04</pdfrwt>
<pdfrwt beam="2">  1       -2 0.31376454E+00 0.16833743E+04</pdfrwt>
<totfact> 0.20574396E-01</totfact>
</mgrwt>
</event>
<event>
 4    1  0.2061941E-008  0.5358328E+03  0.7818608E-02  0.1004827E+00
         -2   -1    0    0    0  501 -0.00000000000E+00  0.00000000000E+00  0.45015545189E+03  0.45015545190E+03  0.25500000000E-02 0.  1.
          2   -1    0    0  501    0  0.00000000000E+00 -0.00000000000E+00 -0.15976096047E+04  0.15976096047E+04  0.25500000000E-02 0. -1.
    8880022    1    1    2    0    0  0.37283937142E+03  0.35315137109E+03  0.21987634251E+03  0.57919111422E+03  0.15294330000E+03 0.  0.
    8880022    1    1    2    0    0 -0.37283937142E+03 -0.35315137109E+03 -0.13673304954E+04  0.14685739424E+04  0.15294330000E+03 0.  0.
<mgrwt>
<rscale>  0 0.53583275E+03</rscale>
<asrwt>0</asrwt>
<pdfrwt beam="1">  1        2 0.24578609E+00 0.53583275E+03</pdfrwt>
<pdfrwt beam="2">  1       -2 0.69254686E-01 0.53583275E+03</pdfrwt>
<totfact> 0.22528803E+01</totfact>
</mgrwt>
</event>
<event>
 4    1  0.2061941E-008  0.1639834E+04  0.7818608E-02  0.8796443E-01
         -2   -1    0    0    0  501 -0.00000000000E+00  0.00000000000E+00  0.12904804556E+04  0.12904804556E+04  0.25500000000E-02 0.  1.
          2   -1    0    0  501    0  0.00000000000E+00 -0.00000000000E+00 -0.28486053791E+04  0.28486053791E+04  0.25500000000E-02 0. -1.
    8880022    1    1    2    0    0 -0.15702945187E+04 -0.44703487795E+03 -0.18514307957E+04  0.24732271837E+04  0.15294330000E+03 0.  0.
    8880022    1    1    2    0    0  0.15702945187E+04  0.44703487795E+03  0.29330587223E+03  0.16658586510E+04  0.15294330000E+03 0.  0.
<mgrwt>
<rscale>  0 0.16398344E+04</rscale>
<asrwt>0</asrwt>
<pdfrwt beam="1">  1        2 0.43824698E+00 0.16398344E+04</pdfrwt>
<pdfrwt beam="2">  1       -2 0.19853546E+00 0.16398344E+04</pdfrwt>
<totfact> 0.27221742E-01</totfact>
</mgrwt>
</event>
<event>
 4    1  0.2061941E-008  0.7733668E+03  0.7818608E-02  0.9599388E-01
         -2   -1    0    0    0  501 -0.00000000000E+00  0.00000000000E+00  0.54605117546E+03  0.54605117546E+03  0.25500000000E-02 0.  1.
          2   -1    0    0  501    0  0.00000000000E+00 -0.00000000000E+00 -0.31976714377E+04  0.31976714377E+04  0.25500000000E-02 0. -1.
    8880022    1    1    2    0    0  0.25994182085E+03  0.71213395110E+03 -0.28435952047E+04  0.29468847714E+04  0.15294330000E+03 0.  0.
    8880022    1    1    2    0    0 -0.25994182085E+03 -0.71213395110E+03  0.19197494247E+03  0.79683784178E+03  0.15294330000E+03 0.  0.
<mgrwt>
<rscale>  0 0.77336677E+03</rscale>
<asrwt>0</asrwt>
<pdfrwt beam="1">  1        2 0.49194944E+00 0.77336677E+03</pdfrwt>
<pdfrwt beam="2">  1       -2 0.84007875E-01 0.77336677E+03</pdfrwt>
<totfact> 0.17229326E+00</totfact>
</mgrwt>
</event>
<event>
 4    1  0.2061941E-008  0.9268513E+03  0.7818608E-02  0.9392625E-01
          2   -1    0    0  501    0  0.00000000000E+00  0.00000000000E+00  0.47736853781E+03  0.47736853781E+03  0.25500000000E-02 0. -1.
         -2   -1    0    0    0  501 -0.00000000000E+00 -0.00000000000E+00 -0.25382244976E+04  0.25382244976E+04  0.25500000000E-02 0.  1.
    8880022    1    1    2    0    0  0.67398102374E+03 -0.61758506762E+03 -0.21703336211E+03  0.95192272239E+03  0.15294330000E+03 0.  0.
    8880022    1    1    2    0    0 -0.67398102374E+03  0.61758506762E+03 -0.18438225976E+04  0.20636703130E+04  0.15294330000E+03 0.  0.
<mgrwt>
<rscale>  0 0.92685133E+03</rscale>
<asrwt>0</asrwt>
<pdfrwt beam="1">  1        2 0.73441315E-01 0.92685133E+03</pdfrwt>
<pdfrwt beam="2">  1       -2 0.39049607E+00 0.92685133E+03</pdfrwt>
<totfact> 0.57337500E-01</totfact>
</mgrwt>
</event>
<event>
 4    1  0.2061941E-008  0.3813960E+03  0.7818608E-02  0.1050419E+00
         -2   -1    0    0    0  501 -0.00000000000E+00  0.00000000000E+00  0.11646279187E+04  0.11646279187E+04  0.25500000000E-02 0.  1.
          2   -1    0    0  501    0  0.00000000000E+00 -0.00000000000E+00 -0.17089407218E+04  0.17089407218E+04  0.25500000000E-02 0. -1.
    8880022    1    1    2    0    0 -0.21915644042E+03 -0.27210607536E+03  0.11111269407E+04  0.11747621006E+04  0.15294330000E+03 0.  0.
    8880022    1    1    2    0    0  0.21915644042E+03  0.27210607536E+03 -0.16554397438E+04  0.16988065399E+04  0.15294330000E+03 0. -1.
<mgrwt>
<rscale>  0 0.38139601E+03</rscale>
<asrwt>0</asrwt>
<pdfrwt beam="1">  1        2 0.26291396E+00 0.38139601E+03</pdfrwt>
<pdfrwt beam="2">  1       -2 0.17917353E+00 0.38139601E+03</pdfrwt>
<totfact> 0.20226052E+00</totfact>
</mgrwt>
</event>
<event>
 4    1  0.2061941E-008  0.1002623E+04  0.7818608E-02  0.9305673E-01
          2   -1    0    0  501    0  0.00000000000E+00  0.00000000000E+00  0.21726031102E+04  0.21726031102E+04  0.25500000000E-02 0. -1.
         -2   -1    0    0    0  501 -0.00000000000E+00 -0.00000000000E+00 -0.67828163113E+03  0.67828163113E+03  0.25500000000E-02 0.  1.
    8880022    1    1    2    0    0  0.76409117059E+03 -0.63089271702E+03  0.15507896492E+04  0.18466729885E+04  0.15294330000E+03 0.  0.
    8880022    1    1    2    0    0 -0.76409117059E+03  0.63089271702E+03 -0.56468170091E+02  0.10042117529E+04  0.15294330000E+03 0.  0.
<mgrwt>
<rscale>  0 0.10026229E+04</rscale>
<asrwt>0</asrwt>
<pdfrwt beam="1">  1        2 0.33424663E+00 0.10026229E+04</pdfrwt>
<pdfrwt beam="2">  1       -2 0.10435102E+00 0.10026229E+04</pdfrwt>
<totfact> 0.40010710E+00</totfact>
</mgrwt>
</event>
<event>
 4    1  0.2061941E-008  0.9006936E+03  0.7818608E-02  0.9424715E-01
         -2   -1    0    0    0  501 -0.00000000000E+00  0.00000000000E+00  0.11824314101E+04  0.11824314101E+04  0.25500000000E-02 0.  1.
          2   -1    0    0  501    0  0.00000000000E+00 -0.00000000000E+00 -0.22415860575E+04  0.22415860575E+04  0.25500000000E-02 0. -1.
    8880022    1    1    2    0    0 -0.88604897767E+03  0.52673039318E+02 -0.19557212973E+04  0.21531592337E+04  0.15294330000E+03 0.  0.
    8880022    1    1    2    0    0  0.88604897767E+03 -0.52673039318E+02  0.89656664993E+03  0.12708582339E+04  0.15294330000E+03 0.  0.
<mgrwt>
<rscale>  0 0.90069356E+03</rscale>
<asrwt>0</asrwt>
<pdfrwt beam="1">  1        2 0.34485939E+00 0.90069356E+03</pdfrwt>
<pdfrwt beam="2">  1       -2 0.18191252E+00 0.90069356E+03</pdfrwt>
<totfact> 0.87600335E-01</totfact>
</mgrwt>
</event>
<event>
 4    1  0.2061941E-008  0.1856655E+04  0.7818608E-02  0.8676738E-01
         -2   -1    0    0    0  501 -0.00000000000E+00  0.00000000000E+00  0.18716358127E+04  0.18716358127E+04  0.25500000000E-02 0.  1.
          2   -1    0    0  501    0  0.00000000000E+00 -0.00000000000E+00 -0.21834938694E+04  0.21834938694E+04  0.25500000000E-02 0. -1.
    8880022    1    1    2    0    0 -0.18417265017E+04  0.17837544467E+03 -0.95801649513E+03  0.20892490431E+04  0.15294330000E+03 0.  0.
    8880022    1    1    2    0    0  0.18417265017E+04 -0.17837544467E+03  0.64615843843E+03  0.19658806390E+04  0.15294330000E+03 0.  0.
<mgrwt>
<rscale>  0 0.18566545E+04</rscale>
<asrwt>0</asrwt>
<pdfrwt beam="1">  1        2 0.33592213E+00 0.18566545E+04</pdfrwt>
<pdfrwt beam="2">  1       -2 0.28794397E+00 0.18566545E+04</pdfrwt>
<totfact> 0.17916221E-01</totfact>
</mgrwt>
</event>
<event>
 4    1  0.2061941E-008  0.2528184E+03  0.7818608E-02  0.1111536E+00
          2   -1    0    0  501    0  0.00000000000E+00  0.00000000000E+00  0.71350413443E+03  0.71350413444E+03  0.25500000000E-02 0. -1.
         -2   -1    0    0    0  501 -0.00000000000E+00 -0.00000000000E+00 -0.70847637497E+03  0.70847637497E+03  0.25500000000E-02 0.  1.
    8880022    1    1    2    0    0  0.19897690861E+03 -0.30556536189E+02 -0.66200788676E+03  0.70864067567E+03  0.15294330000E+03 0.  0.
    8880022    1    1    2    0    0 -0.19897690861E+03  0.30556536189E+02  0.66703564622E+03  0.71333983375E+03  0.15294330000E+03 0. -1.
<mgrwt>
<rscale>  0 0.25281844E+03</rscale>
<asrwt>0</asrwt>
<pdfrwt beam="1">  1        2 0.10976987E+00 0.25281844E+03</pdfrwt>
<pdfrwt beam="2">  1       -2 0.10899637E+00 0.25281844E+03</pdfrwt>
<totfact> 0.29234307E+01</totfact>
</mgrwt>
</event>
<event>
 4    1  0.2061941E-008  0.7759377E+03  0.7818608E-02  0.9595515E-01
         -2   -1    0    0    0  501 -0.00000000000E+00  0.00000000000E+00  0.33641842840E+03  0.33641842841E+03  0.25500000000E-02 0.  1.
          2   -1    0    0  501    0  0.00000000000E+00 -0.00000000000E+00 -0.33899960275E+04  0.33899960275E+04  0.25500000000E-02 0. -1.
    8880022    1    1    2    0    0 -0.18708025243E+03 -0.73735245904E+03 -0.24662584954E+03  0.81418894145E+03  0.15294330000E+03 0.  0.
    8880022    1    1    2    0    0  0.18708025243E+03  0.73735245904E+03 -0.28069517496E+04  0.29122255145E+04  0.15294330000E+03 0.  0.
<mgrwt>
<rscale>  0 0.77593771E+03</rscale>
<asrwt>0</asrwt>
<pdfrwt beam="1">  1        2 0.52153783E+00 0.77593771E+03</pdfrwt>
<pdfrwt beam="2">  1       -2 0.51756684E-01 0.77593771E+03</pdfrwt>
<totfact> 0.36720636E+00</totfact>
</mgrwt>
</event>
<event>
 4    1  0.2061941E-008  0.6485664E+03  0.7818608E-02  0.9809473E-01
         -2   -1    0    0    0  501 -0.00000000000E+00  0.00000000000E+00  0.25358555318E+03  0.25358555319E+03  0.25500000000E-02 0.  1.
          2   -1    0    0  501    0  0.00000000000E+00 -0.00000000000E+00 -0.20798191067E+04  0.20798191067E+04  0.25500000000E-02 0. -1.
    8880022    1    1    2    0    0 -0.43520920766E+03  0.45589440744E+03 -0.14380657556E+04  0.15775523876E+04  0.15294330000E+03 0.  0.
    8880022    1    1    2    0    0  0.43520920766E+03 -0.45589440744E+03 -0.38816779792E+03  0.75585227229E+03  0.15294330000E+03 0.  0.
<mgrwt>
<rscale>  0 0.64856643E+03</rscale>
<asrwt>0</asrwt>
<pdfrwt beam="1">  1        2 0.31997216E+00 0.64856643E+03</pdfrwt>
<pdfrwt beam="2">  1       -2 0.39013163E-01 0.64856643E+03</pdfrwt>
<totfact> 0.39225243E+01</totfact>
</mgrwt>
</event>
<event>
 4    1  0.2061941E-008  0.6875563E+03  0.7818608E-02  0.9738752E-01
          2   -1    0    0  501    0  0.00000000000E+00  0.00000000000E+00  0.35723491417E+04  0.35723491417E+04  0.25500000000E-02 0. -1.
         -2   -1    0    0    0  501 -0.00000000000E+00 -0.00000000000E+00 -0.22752268403E+03  0.22752268404E+03  0.25500000000E-02 0.  1.
    8880022    1    1    2    0    0 -0.52782458619E+03 -0.41321088030E+03  0.29013382175E+04  0.29816936681E+04  0.15294330000E+03 0. -1.
    8880022    1    1    2    0    0  0.52782458619E+03  0.41321088030E+03  0.44348824020E+03  0.81817815761E+03  0.15294330000E+03 0.  0.
<mgrwt>
<rscale>  0 0.68755631E+03</rscale>
<asrwt>0</asrwt>
<pdfrwt beam="1">  1        2 0.54959215E+00 0.68755631E+03</pdfrwt>
<pdfrwt beam="2">  1       -2 0.35003491E-01 0.68755631E+03</pdfrwt>
<totfact> 0.60883126E+00</totfact>
</mgrwt>
</event>
<event>
 4    1  0.2061941E-008  0.5654465E+03  0.7818608E-02  0.9979806E-01
         -2   -1    0    0    0  501 -0.00000000000E+00  0.00000000000E+00  0.54011918707E+03  0.54011918707E+03  0.25500000000E-02 0.  1.
          2   -1    0    0  501    0  0.00000000000E+00 -0.00000000000E+00 -0.22585843464E+04  0.22585843464E+04  0.25500000000E-02 0. -1.
    8880022    1    1    2    0    0  0.54410562652E+03  0.16946499242E+02 -0.20612960725E+04  0.21374450328E+04  0.15294330000E+03 0.  0.
    8880022    1    1    2    0    0 -0.54410562652E+03 -0.16946499242E+02  0.34283091319E+03  0.66125850066E+03  0.15294330000E+03 0.  0.
<mgrwt>
<rscale>  0 0.56544652E+03</rscale>
<asrwt>0</asrwt>
<pdfrwt beam="1">  1        2 0.34747451E+00 0.56544652E+03</pdfrwt>
<pdfrwt beam="2">  1       -2 0.83095261E-01 0.56544652E+03</pdfrwt>
<totfact> 0.65609001E+00</totfact>
</mgrwt>
</event>
<event>
 4    1  0.2061941E-008  0.9520716E+03  0.7818608E-02  0.9362732E-01
          2   -1    0    0  501    0  0.00000000000E+00  0.00000000000E+00  0.85776285747E+03  0.85776285748E+03  0.25500000000E-02 0. -1.
         -2   -1    0    0    0  501 -0.00000000000E+00 -0.00000000000E+00 -0.13458903234E+04  0.13458903234E+04  0.25500000000E-02 0.  1.
    8880022    1    1    2    0    0  0.29997465719E+03 -0.89054131092E+03  0.26663325014E+03  0.98870297082E+03  0.15294330000E+03 0.  0.
    8880022    1    1    2    0    0 -0.29997465719E+03  0.89054131092E+03 -0.75476071607E+03  0.12149502101E+04  0.15294330000E+03 0.  0.
<mgrwt>
<rscale>  0 0.95207157E+03</rscale>
<asrwt>0</asrwt>
<pdfrwt beam="1">  1        2 0.13196352E+00 0.95207157E+03</pdfrwt>
<pdfrwt beam="2">  1       -2 0.20706005E+00 0.95207157E+03</pdfrwt>
<totfact> 0.37428430E+00</totfact>
</mgrwt>
</event>
<event>
 4    1  0.2061941E-008  0.5598853E+03  0.7818608E-02  0.9992314E-01
          2   -1    0    0  501    0  0.00000000000E+00  0.00000000000E+00  0.13704381583E+04  0.13704381583E+04  0.25500000000E-02 0. -1.
         -2   -1    0    0    0  501 -0.00000000000E+00 -0.00000000000E+00 -0.73696406634E+03  0.73696406635E+03  0.25500000000E-02 0.  1.
    8880022    1    1    2    0    0 -0.49225610305E+03  0.21854926731E+03  0.11917665176E+04  0.13167303971E+04  0.15294330000E+03 0.  0.
    8880022    1    1    2    0    0  0.49225610305E+03 -0.21854926731E+03 -0.55829242566E+03  0.79067182750E+03  0.15294330000E+03 0.  0.
<mgrwt>
<rscale>  0 0.55988526E+03</rscale>
<asrwt>0</asrwt>
<pdfrwt beam="1">  1        2 0.21083664E+00 0.55988526E+03</pdfrwt>
<pdfrwt beam="2">  1       -2 0.11337909E+00 0.55988526E+03</pdfrwt>
<totfact> 0.96715112E+00</totfact>
</mgrwt>
</event>
<event>
 4    1  0.2061941E-008  0.6939161E+03  0.7818608E-02  0.9727693E-01
         -2   -1    0    0    0  501 -0.00000000000E+00  0.00000000000E+00  0.20631038597E+04  0.20631038597E+04  0.25500000000E-02 0.  1.
          2   -1    0    0  501    0  0.00000000000E+00 -0.00000000000E+00 -0.15939920595E+04  0.15939920595E+04  0.25500000000E-02 0. -1.
    8880022    1    1    2    0    0  0.66037315509E+03 -0.14844258415E+03 -0.14548263700E+04  0.16118434554E+04  0.15294330000E+03 0.  0.
    8880022    1    1    2    0    0 -0.66037315509E+03  0.14844258415E+03  0.19239381703E+04  0.20452524638E+04  0.15294330000E+03 0.  0.
<mgrwt>
<rscale>  0 0.69391610E+03</rscale>
<asrwt>0</asrwt>
<pdfrwt beam="1">  1        2 0.24522955E+00 0.69391610E+03</pdfrwt>
<pdfrwt beam="2">  1       -2 0.31740059E+00 0.69391610E+03</pdfrwt>
<totfact> 0.30049831E-01</totfact>
</mgrwt>
</event>
<event>
 4    1  0.2061941E-008  0.8999977E+03  0.7818608E-02  0.9425584E-01
          2   -1    0    0  501    0  0.00000000000E+00  0.00000000000E+00  0.21764270485E+04  0.21764270485E+04  0.25500000000E-02 0. -1.
         -2   -1    0    0    0  501 -0.00000000000E+00 -0.00000000000E+00 -0.77221609672E+03  0.77221609673E+03  0.25500000000E-02 0.  1.
    8880022    1    1    2    0    0 -0.33718448375E+03 -0.82031140019E+03 -0.35905012071E+03  0.96897513464E+03  0.15294330000E+03 0.  0.
    8880022    1    1    2    0    0  0.33718448375E+03  0.82031140019E+03  0.17632610725E+04  0.19796680106E+04  0.15294330000E+03 0.  0.
<mgrwt>
<rscale>  0 0.89999768E+03</rscale>
<asrwt>0</asrwt>
<pdfrwt beam="1">  1        2 0.33483493E+00 0.89999768E+03</pdfrwt>
<pdfrwt beam="2">  1       -2 0.11880248E+00 0.89999768E+03</pdfrwt>
<totfact> 0.29442328E+00</totfact>
</mgrwt>
</event>
<event>
 4    1  0.2061941E-008  0.3172130E+03  0.7818608E-02  0.1076939E+00
          2   -1    0    0  501    0  0.00000000000E+00  0.00000000000E+00  0.15842214884E+04  0.15842214884E+04  0.25500000000E-02 0. -1.
         -2   -1    0    0    0  501 -0.00000000000E+00 -0.00000000000E+00 -0.21045846186E+04  0.21045846186E+04  0.25500000000E-02 0.  1.
    8880022    1    1    2    0    0  0.15943437513E+03 -0.22762493393E+03  0.15561761969E+04  0.15881777103E+04  0.15294330000E+03 0. -1.
    8880022    1    1    2    0    0 -0.15943437513E+03  0.22762493393E+03 -0.20765393272E+04  0.21006283967E+04  0.15294330000E+03 0.  0.
<mgrwt>
<rscale>  0 0.31721299E+03</rscale>
<asrwt>0</asrwt>
<pdfrwt beam="1">  1        2 0.24372638E+00 0.31721299E+03</pdfrwt>
<pdfrwt beam="2">  1       -2 0.32378225E+00 0.31721299E+03</pdfrwt>
<totfact> 0.32207114E-01</totfact>
</mgrwt>
</event>
<event>
 4    1  0.2061941E-008  0.9001566E+03  0.7818608E-02  0.9425386E-01
         -2   -1    0    0    0  501 -0.00000000000E+00  0.00000000000E+00  0.11958098355E+04  0.11958098355E+04  0.25500000000E-02 0.  1.
          2   -1    0    0  501    0  0.00000000000E+00 -0.00000000000E+00 -0.11308731542E+04  0.11308731542E+04  0.25500000000E-02 0. -1.
    8880022    1    1    2    0    0  0.34591484009E+02  0.88639363557E+03 -0.70404362605E+03  0.11427857753E+04  0.15294330000E+03 0.  0.
    8880022    1    1    2    0    0 -0.34591484009E+02 -0.88639363557E+03  0.76898030741E+03  0.11838972143E+04  0.15294330000E+03 0.  0.
<mgrwt>
<rscale>  0 0.90015660E+03</rscale>
<asrwt>0</asrwt>
<pdfrwt beam="1">  1        2 0.17398048E+00 0.90015660E+03</pdfrwt>
<pdfrwt beam="2">  1       -2 0.18397074E+00 0.90015660E+03</pdfrwt>
<totfact> 0.35620944E+00</totfact>
</mgrwt>
</event>
<event>
 4    1  0.2061941E-008  0.9537631E+03  0.7818608E-02  0.9360763E-01
         -2   -1    0    0    0  501 -0.00000000000E+00  0.00000000000E+00  0.19968232822E+04  0.19968232822E+04  0.25500000000E-02 0.  1.
          2   -1    0    0  501    0  0.00000000000E+00 -0.00000000000E+00 -0.13612413727E+04  0.13612413727E+04  0.25500000000E-02 0. -1.
    8880022    1    1    2    0    0  0.76387562669E+03  0.55024218221E+03  0.16873484018E+04  0.19382488783E+04  0.15294330000E+03 0.  0.
    8880022    1    1    2    0    0 -0.76387562669E+03 -0.55024218221E+03 -0.10517664923E+04  0.14198157766E+04  0.15294330000E+03 0.  0.
<mgrwt>
<rscale>  0 0.95376312E+03</rscale>
<asrwt>0</asrwt>
<pdfrwt beam="1">  1        2 0.20942175E+00 0.95376312E+03</pdfrwt>
<pdfrwt beam="2">  1       -2 0.30720358E+00 0.95376312E+03</pdfrwt>
<totfact> 0.44316899E-01</totfact>
</mgrwt>
</event>
<event>
 4    1  0.2061941E-008  0.5887016E+03  0.7818608E-02  0.9929128E-01
          2   -1    0    0  501    0  0.00000000000E+00  0.00000000000E+00  0.51380488147E+03  0.51380488148E+03  0.25500000000E-02 0. -1.
         -2   -1    0    0    0  501 -0.00000000000E+00 -0.00000000000E+00 -0.20397210250E+04  0.20397210250E+04  0.25500000000E-02 0.  1.
    8880022    1    1    2    0    0  0.47477524426E+03 -0.31267612909E+03  0.28157897052E+03  0.65257663452E+03  0.15294330000E+03 0. -1.
    8880022    1    1    2    0    0 -0.47477524426E+03  0.31267612909E+03 -0.18074951141E+04  0.19009492720E+04  0.15294330000E+03 0.  0.
<mgrwt>
<rscale>  0 0.58870158E+03</rscale>
<asrwt>0</asrwt>
<pdfrwt beam="1">  1        2 0.79046905E-01 0.58870158E+03</pdfrwt>
<pdfrwt beam="2">  1       -2 0.31380323E+00 0.58870158E+03</pdfrwt>
<totfact> 0.16797678E+00</totfact>
</mgrwt>
</event>
<event>
 4    1  0.2061941E-008  0.5586083E+03  0.7818608E-02  0.9995209E-01
          2   -1    0    0  501    0  0.00000000000E+00  0.00000000000E+00  0.27123971461E+03  0.27123971462E+03  0.25500000000E-02 0. -1.
         -2   -1    0    0    0  501 -0.00000000000E+00 -0.00000000000E+00 -0.20325726804E+04  0.20325726804E+04  0.25500000000E-02 0.  1.
    8880022    1    1    2    0    0  0.36186174269E+03  0.39712424336E+03 -0.16395281981E+04  0.17320785060E+04  0.15294330000E+03 0.  0.
    8880022    1    1    2    0    0 -0.36186174269E+03 -0.39712424336E+03 -0.12180476775E+03  0.57173388910E+03  0.15294330000E+03 0.  0.
<mgrwt>
<rscale>  0 0.55860831E+03</rscale>
<asrwt>0</asrwt>
<pdfrwt beam="1">  1        2 0.41729188E-01 0.55860831E+03</pdfrwt>
<pdfrwt beam="2">  1       -2 0.31270348E+00 0.55860831E+03</pdfrwt>
<totfact> 0.35077519E+00</totfact>
</mgrwt>
</event>
<event>
 4    1  0.2061941E-008  0.8106127E+03  0.7818608E-02  0.9544781E-01
          2   -1    0    0  501    0  0.00000000000E+00  0.00000000000E+00  0.26042561208E+04  0.26042561208E+04  0.25500000000E-02 0. -1.
         -2   -1    0    0    0  501 -0.00000000000E+00 -0.00000000000E+00 -0.44020405354E+03  0.44020405354E+03  0.25500000000E-02 0.  1.
    8880022    1    1    2    0    0 -0.41344580425E+03 -0.68026753577E+03  0.87527910962E+02  0.81532456205E+03  0.15294330000E+03 0.  0.
    8880022    1    1    2    0    0  0.41344580425E+03  0.68026753577E+03  0.20765241563E+04  0.22291356123E+04  0.15294330000E+03 0.  0.
<mgrwt>
<rscale>  0 0.81061274E+03</rscale>
<asrwt>0</asrwt>
<pdfrwt beam="1">  1        2 0.40065479E+00 0.81061274E+03</pdfrwt>
<pdfrwt beam="2">  1       -2 0.67723700E-01 0.81061274E+03</pdfrwt>
<totfact> 0.62976272E+00</totfact>
</mgrwt>
</event>
<event>
 4    1  0.2061941E-008  0.1210413E+04  0.7818608E-02  0.9103791E-01
         -2   -1    0    0    0  501 -0.00000000000E+00  0.00000000000E+00  0.19510691068E+04  0.19510691068E+04  0.25500000000E-02 0.  1.
          2   -1    0    0  501    0  0.00000000000E+00 -0.00000000000E+00 -0.17256712397E+04  0.17256712397E+04  0.25500000000E-02 0. -1.
    8880022    1    1    2    0    0 -0.51468982281E+03  0.10848052649E+04  0.14943567547E+04  0.19230709399E+04  0.15294330000E+03 0.  0.
    8880022    1    1    2    0    0  0.51468982281E+03 -0.10848052649E+04 -0.12689588876E+04  0.17536694067E+04  0.15294330000E+03 0.  0.
<mgrwt>
<rscale>  0 0.12104130E+04</rscale>
<asrwt>0</asrwt>
<pdfrwt beam="1">  1        2 0.26548788E+00 0.12104130E+04</pdfrwt>
<pdfrwt beam="2">  1       -2 0.30016448E+00 0.12104130E+04</pdfrwt>
<totfact> 0.29319622E-01</totfact>
</mgrwt>
</event>
<event>
 4    1  0.2061941E-008  0.6513059E+03  0.7818608E-02  0.9804332E-01
          2   -1    0    0  501    0  0.00000000000E+00  0.00000000000E+00  0.14798263784E+04  0.14798263784E+04  0.25500000000E-02 0. -1.
         -2   -1    0    0    0  501 -0.00000000000E+00 -0.00000000000E+00 -0.34880574877E+03  0.34880574878E+03  0.25500000000E-02 0.  1.
    8880022    1    1    2    0    0  0.15769494370E+03  0.61313947771E+03  0.95145790779E+03  0.11530271106E+04  0.15294330000E+03 0.  0.
    8880022    1    1    2    0    0 -0.15769494370E+03 -0.61313947771E+03  0.17956272184E+03  0.67560501662E+03  0.15294330000E+03 0.  0.
<mgrwt>
<rscale>  0 0.65130589E+03</rscale>
<asrwt>0</asrwt>
<pdfrwt beam="1">  1        2 0.22766560E+00 0.65130589E+03</pdfrwt>
<pdfrwt beam="2">  1       -2 0.53662423E-01 0.65130589E+03</pdfrwt>
<totfact> 0.44070961E+01</totfact>
</mgrwt>
</event>
<event>
 4    1  0.2061941E-008  0.1024412E+04  0.7818608E-02  0.9282168E-01
         -2   -1    0    0    0  501 -0.00000000000E+00  0.00000000000E+00  0.16429871641E+04  0.16429871641E+04  0.25500000000E-02 0.  1.
          2   -1    0    0  501    0  0.00000000000E+00 -0.00000000000E+00 -0.19113974724E+04  0.19113974724E+04  0.25500000000E-02 0. -1.
    8880022    1    1    2    0    0 -0.18340648700E+03  0.99618805577E+03  0.13159581476E+04  0.16676828479E+04  0.15294330000E+03 0.  0.
    8880022    1    1    2    0    0  0.18340648700E+03 -0.99618805577E+03 -0.15843684559E+04  0.18867017885E+04  0.15294330000E+03 0.  0.
<mgrwt>
<rscale>  0 0.10244121E+04</rscale>
<asrwt>0</asrwt>
<pdfrwt beam="1">  1        2 0.29406115E+00 0.10244121E+04</pdfrwt>
<pdfrwt beam="2">  1       -2 0.25276726E+00 0.10244121E+04</pdfrwt>
<totfact> 0.46171718E-01</totfact>
</mgrwt>
</event>
<event>
 4    1  0.2061941E-008  0.3661749E+03  0.7818608E-02  0.1056165E+00
         -2   -1    0    0    0  501 -0.00000000000E+00  0.00000000000E+00  0.76343158829E+03  0.76343158829E+03  0.25500000000E-02 0.  1.
          2   -1    0    0  501    0  0.00000000000E+00 -0.00000000000E+00 -0.25766606373E+03  0.25766606374E+03  0.25500000000E-02 0. -1.
    8880022    1    1    2    0    0  0.29898237420E+03  0.14595194841E+03  0.54095544794E+03  0.65323570095E+03  0.15294330000E+03 0.  0.
    8880022    1    1    2    0    0 -0.29898237420E+03 -0.14595194841E+03 -0.35189923385E+02  0.36786195108E+03  0.15294330000E+03 0. -1.
<mgrwt>
<rscale>  0 0.36617494E+03</rscale>
<asrwt>0</asrwt>
<pdfrwt beam="1">  1        2 0.39640933E-01 0.36617494E+03</pdfrwt>
<pdfrwt beam="2">  1       -2 0.11745101E+00 0.36617494E+03</pdfrwt>
<totfact> 0.75411708E+01</totfact>
</mgrwt>
</event>
<event>
 4    1  0.2061941E-008  0.2982864E+03  0.7818608E-02  0.1086100E+00
         -2   -1    0    0    0  501 -0.00000000000E+00  0.00000000000E+00  0.84519205289E+03  0.84519205290E+03  0.25500000000E-02 0.  1.
          2   -1    0    0  501    0  0.00000000000E+00 -0.00000000000E+00 -0.66840777141E+03  0.66840777142E+03  0.25500000000E-02 0. -1.
    8880022    1    1    2    0    0  0.59982132887E+02  0.24896844965E+03 -0.60625940073E+03  0.67566652957E+03  0.15294330000E+03 0.  0.
    8880022    1    1    2    0    0 -0.59982132887E+02 -0.24896844965E+03  0.78304368221E+03  0.83793329475E+03  0.15294330000E+03 0.  0.
<mgrwt>
<rscale>  0 0.29828644E+03</rscale>
<asrwt>0</asrwt>
<pdfrwt beam="1">  1        2 0.10283196E+00 0.29828644E+03</pdfrwt>
<pdfrwt beam="2">  1       -2 0.13002955E+00 0.29828644E+03</pdfrwt>
<totfact> 0.20385761E+01</totfact>
</mgrwt>
</event>
<event>
 4    1  0.2061941E-008  0.6378425E+03  0.7818608E-02  0.9829863E-01
          2   -1    0    0  501    0  0.00000000000E+00  0.00000000000E+00  0.22541268436E+04  0.22541268436E+04  0.25500000000E-02 0. -1.
         -2   -1    0    0    0  501 -0.00000000000E+00 -0.00000000000E+00 -0.10996969514E+04  0.10996969514E+04  0.25500000000E-02 0.  1.
    8880022    1    1    2    0    0 -0.54052342470E+03 -0.30213536737E+03  0.21103515095E+04  0.22046374985E+04  0.15294330000E+03 0.  0.
    8880022    1    1    2    0    0  0.54052342470E+03  0.30213536737E+03 -0.95592161728E+03  0.11491862966E+04  0.15294330000E+03 0.  0.
<mgrwt>
<rscale>  0 0.63784246E+03</rscale>
<asrwt>0</asrwt>
<pdfrwt beam="1">  1        2 0.34678874E+00 0.63784246E+03</pdfrwt>
<pdfrwt beam="2">  1       -2 0.16918415E+00 0.63784246E+03</pdfrwt>
<totfact> 0.11160886E+00</totfact>
</mgrwt>
</event>
<event>
 4    1  0.2874524E-008  0.1421821E+04  0.7818608E-02  0.8938173E-01
          2   -1    0    0  501    0  0.00000000000E+00  0.00000000000E+00  0.25834031613E+04  0.25834031613E+04  0.25500000000E-02 0. -1.
         -2   -1    0    0    0  501 -0.00000000000E+00 -0.00000000000E+00 -0.19990802537E+04  0.19990802537E+04  0.25500000000E-02 0.  1.
    8880022    1    1    2    0    0  0.30405440212E+03  0.13804837210E+04  0.20795617105E+04  0.25191571892E+04  0.15294330000E+03 0.  0.
    8880022    1    1    2    0    0 -0.30405440212E+03 -0.13804837210E+04 -0.14952388029E+04  0.20633262258E+04  0.15294330000E+03 0.  0.
<mgrwt>
<rscale>  0 0.14218214E+04</rscale>
<asrwt>0</asrwt>
<pdfrwt beam="1">  1        2 0.39744664E+00 0.14218214E+04</pdfrwt>
<pdfrwt beam="2">  1       -2 0.30755081E+00 0.14218214E+04</pdfrwt>
<totfact> 0.84396606E-02</totfact>
</mgrwt>
</event>
<event>
 4    1  0.2061941E-008  0.8206263E+03  0.7818608E-02  0.9530632E-01
         -2   -1    0    0    0  501 -0.00000000000E+00  0.00000000000E+00  0.64789926643E+03  0.64789926643E+03  0.25500000000E-02 0.  1.
          2   -1    0    0  501    0  0.00000000000E+00 -0.00000000000E+00 -0.23006996650E+04  0.23006996650E+04  0.25500000000E-02 0. -1.
    8880022    1    1    2    0    0  0.80615000017E+03  0.12573205166E+02 -0.19180028989E+04  0.20861837602E+04  0.15294330000E+03 0.  0.
    8880022    1    1    2    0    0 -0.80615000017E+03 -0.12573205166E+02  0.26520250036E+03  0.86241517117E+03  0.15294330000E+03 0.  0.
<mgrwt>
<rscale>  0 0.82062632E+03</rscale>
<asrwt>0</asrwt>
<pdfrwt beam="1">  1        2 0.35395379E+00 0.82062632E+03</pdfrwt>
<pdfrwt beam="2">  1       -2 0.99676811E-01 0.82062632E+03</pdfrwt>
<totfact> 0.38899326E+00</totfact>
</mgrwt>
</event>
<event>
 4    1  0.2061941E-008  0.7749677E+03  0.7818608E-02  0.9596974E-01
          2   -1    0    0  501    0  0.00000000000E+00  0.00000000000E+00  0.24558012098E+04  0.24558012098E+04  0.25500000000E-02 0. -1.
         -2   -1    0    0    0  501 -0.00000000000E+00 -0.00000000000E+00 -0.26310816808E+03  0.26310816809E+03  0.25500000000E-02 0.  1.
    8880022    1    1    2    0    0  0.45571093321E+03  0.60787403196E+03  0.73533307353E+03  0.10683116003E+04  0.15294330000E+03 0.  0.
    8880022    1    1    2    0    0 -0.45571093321E+03 -0.60787403196E+03  0.14573599682E+04  0.16505977776E+04  0.15294330000E+03 0. -1.
<mgrwt>
<rscale>  0 0.77496771E+03</rscale>
<asrwt>0</asrwt>
<pdfrwt beam="1">  1        2 0.37781558E+00 0.77496771E+03</pdfrwt>
<pdfrwt beam="2">  1       -2 0.40478179E-01 0.77496771E+03</pdfrwt>
<totfact> 0.22193235E+01</totfact>
</mgrwt>
</event>
<event>
 4    1  0.2061941E-008  0.3944842E+03  0.7818608E-02  0.1045706E+00
         -2   -1    0    0    0  501 -0.00000000000E+00  0.00000000000E+00  0.18556117008E+03  0.18556117009E+03  0.25500000000E-02 0.  1.
          2   -1    0    0  501    0  0.00000000000E+00 -0.00000000000E+00 -0.19240698590E+04  0.19240698590E+04  0.25500000000E-02 0. -1.
    8880022    1    1    2    0    0  0.19051450993E+03 -0.30972630373E+03 -0.16615153340E+04  0.17077034344E+04  0.15294330000E+03 0. -1.
    8880022    1    1    2    0    0 -0.19051450993E+03  0.30972630373E+03 -0.76993354998E+02  0.40192759478E+03  0.15294330000E+03 0.  0.
<mgrwt>
<rscale>  0 0.39448424E+03</rscale>
<asrwt>0</asrwt>
<pdfrwt beam="1">  1        2 0.29601073E+00 0.39448424E+03</pdfrwt>
<pdfrwt beam="2">  1       -2 0.28547874E-01 0.39448424E+03</pdfrwt>
<totfact> 0.89381468E+01</totfact>
</mgrwt>
</event>
<event>
 4    1  0.2061941E-008  0.4985192E+03  0.7818608E-02  0.1014166E+00
         -2   -1    0    0    0  501 -0.00000000000E+00  0.00000000000E+00  0.54967983829E+03  0.54967983829E+03  0.25500000000E-02 0.  1.
          2   -1    0    0  501    0  0.00000000000E+00 -0.00000000000E+00 -0.19916974238E+04  0.19916974238E+04  0.25500000000E-02 0. -1.
    8880022    1    1    2    0    0 -0.30239560920E+03 -0.36563188419E+03 -0.18382017348E+04  0.19046015462E+04  0.15294330000E+03 0.  0.
    8880022    1    1    2    0    0  0.30239560920E+03  0.36563188419E+03  0.39618414924E+03  0.63677571587E+03  0.15294330000E+03 0.  1.
<mgrwt>
<rscale>  0 0.49851924E+03</rscale>
<asrwt>0</asrwt>
<pdfrwt beam="1">  1        2 0.30641499E+00 0.49851924E+03</pdfrwt>
<pdfrwt beam="2">  1       -2 0.84566130E-01 0.49851924E+03</pdfrwt>
<totfact> 0.89399294E+00</totfact>
</mgrwt>
</event>
<event>
 4    1  0.2061941E-008  0.4712579E+03  0.7818608E-02  0.1021566E+00
         -2   -1    0    0    0  501 -0.00000000000E+00  0.00000000000E+00  0.15914952766E+04  0.15914952766E+04  0.25500000000E-02 0.  1.
          2   -1    0    0  501    0  0.00000000000E+00 -0.00000000000E+00 -0.87411046829E+03  0.87411046829E+03  0.25500000000E-02 0. -1.
    8880022    1    1    2    0    0  0.39264328702E+03 -0.21100607558E+03  0.14888160493E+04  0.15616200551E+04  0.15294330000E+03 0.  0.
    8880022    1    1    2    0    0 -0.39264328702E+03  0.21100607558E+03 -0.77143124100E+03  0.90398568981E+03  0.15294330000E+03 0.  0.
<mgrwt>
<rscale>  0 0.47125786E+03</rscale>
<asrwt>0</asrwt>
<pdfrwt beam="1">  1        2 0.13447853E+00 0.47125786E+03</pdfrwt>
<pdfrwt beam="2">  1       -2 0.24484543E+00 0.47125786E+03</pdfrwt>
<totfact> 0.23040822E+00</totfact>
</mgrwt>
</event>
<event>
 4    1  0.2061941E-008  0.3836453E+03  0.7818608E-02  0.1049595E+00
         -2   -1    0    0    0  501 -0.00000000000E+00  0.00000000000E+00  0.65990721473E+03  0.65990721474E+03  0.25500000000E-02 0.  1.
          2   -1    0    0  501    0  0.00000000000E+00 -0.00000000000E+00 -0.17332682475E+04  0.17332682475E+04  0.25500000000E-02 0. -1.
    8880022    1    1    2    0    0  0.29106673404E+03 -0.19766702142E+03  0.58026856701E+03  0.69562587495E+03  0.15294330000E+03 0.  1.
    8880022    1    1    2    0    0 -0.29106673404E+03  0.19766702142E+03 -0.16536295997E+04  0.16975495872E+04  0.15294330000E+03 0.  0.
<mgrwt>
<rscale>  0 0.38364534E+03</rscale>
<asrwt>0</asrwt>
<pdfrwt beam="1">  1        2 0.26665665E+00 0.38364534E+03</pdfrwt>
<pdfrwt beam="2">  1       -2 0.10152419E+00 0.38364534E+03</pdfrwt>
<totfact> 0.83162771E+00</totfact>
</mgrwt>
</event>
<event>
 4    1  0.2061941E-008  0.5585853E+03  0.7818608E-02  0.9995261E-01
          2   -1    0    0  501    0  0.00000000000E+00  0.00000000000E+00  0.89897091372E+03  0.89897091372E+03  0.25500000000E-02 0. -1.
         -2   -1    0    0    0  501 -0.00000000000E+00 -0.00000000000E+00 -0.83294022275E+03  0.83294022276E+03  0.25500000000E-02 0.  1.
    8880022    1    1    2    0    0  0.53723231239E+03 -0.26966437946E+01  0.69438313997E+03  0.89117081834E+03  0.15294330000E+03 0.  0.
    8880022    1    1    2    0    0 -0.53723231239E+03  0.26966437946E+01 -0.62835244901E+03  0.84074031814E+03  0.15294330000E+03 0.  0.
<mgrwt>
<rscale>  0 0.55858525E+03</rscale>
<asrwt>0</asrwt>
<pdfrwt beam="1">  1        2 0.13830322E+00 0.55858525E+03</pdfrwt>
<pdfrwt beam="2">  1       -2 0.12814465E+00 0.55858525E+03</pdfrwt>
<totfact> 0.13769342E+01</totfact>
</mgrwt>
</event>
<event>
 4    1  0.2061941E-008  0.7131378E+03  0.7818608E-02  0.9695025E-01
         -2   -1    0    0    0  501 -0.00000000000E+00  0.00000000000E+00  0.25124323831E+03  0.25124323832E+03  0.25500000000E-02 0.  1.
          2   -1    0    0  501    0  0.00000000000E+00 -0.00000000000E+00 -0.24051955161E+04  0.24051955161E+04  0.25500000000E-02 0. -1.
    8880022    1    1    2    0    0  0.68726261278E+03  0.11333105294E+03 -0.54833980529E+03  0.89957880231E+03  0.15294330000E+03 0.  0.
    8880022    1    1    2    0    0 -0.68726261278E+03 -0.11333105294E+03 -0.16056124725E+04  0.17568599521E+04  0.15294330000E+03 0.  0.
<mgrwt>
<rscale>  0 0.71313777E+03</rscale>
<asrwt>0</asrwt>
<pdfrwt beam="1">  1        2 0.37003006E+00 0.71313777E+03</pdfrwt>
<pdfrwt beam="2">  1       -2 0.38652808E-01 0.71313777E+03</pdfrwt>
<totfact> 0.26159960E+01</totfact>
</mgrwt>
</event>
<event>
 4    1  0.2061941E-008  0.9231589E+03  0.7818608E-02  0.9397086E-01
         -2   -1    0    0    0  501 -0.00000000000E+00  0.00000000000E+00  0.31488950447E+03  0.31488950448E+03  0.25500000000E-02 0.  1.
          2   -1    0    0  501    0  0.00000000000E+00 -0.00000000000E+00 -0.36815847183E+04  0.36815847183E+04  0.25500000000E-02 0. -1.
    8880022    1    1    2    0    0 -0.91039684001E+03  0.28737796258E+01 -0.65493054738E+03  0.11318817694E+04  0.15294330000E+03 0.  0.
    8880022    1    1    2    0    0  0.91039684001E+03 -0.28737796258E+01 -0.27117646665E+04  0.28645924534E+04  0.15294330000E+03 0.  0.
<mgrwt>
<rscale>  0 0.92315888E+03</rscale>
<asrwt>0</asrwt>
<pdfrwt beam="1">  1        2 0.56639762E+00 0.92315888E+03</pdfrwt>
<pdfrwt beam="2">  1       -2 0.48444542E-01 0.92315888E+03</pdfrwt>
<totfact> 0.25690818E+00</totfact>
</mgrwt>
</event>
<event>
 4    1  0.2061941E-008  0.9667192E+03  0.7818608E-02  0.9345819E-01
          2   -1    0    0  501    0  0.00000000000E+00  0.00000000000E+00  0.54499111860E+03  0.54499111861E+03  0.25500000000E-02 0. -1.
         -2   -1    0    0    0  501 -0.00000000000E+00 -0.00000000000E+00 -0.18754387043E+04  0.18754387043E+04  0.25500000000E-02 0.  1.
    8880022    1    1    2    0    0  0.32591900249E+03  0.89717953660E+03 -0.31102419452E+03  0.10155205659E+04  0.15294330000E+03 0.  0.
    8880022    1    1    2    0    0 -0.32591900249E+03 -0.89717953660E+03 -0.10194233912E+04  0.14049092571E+04  0.15294330000E+03 0.  0.
<mgrwt>
<rscale>  0 0.96671918E+03</rscale>
<asrwt>0</asrwt>
<pdfrwt beam="1">  1        2 0.83844789E-01 0.96671918E+03</pdfrwt>
<pdfrwt beam="2">  1       -2 0.28852903E+00 0.96671918E+03</pdfrwt>
<totfact> 0.20972037E+00</totfact>
</mgrwt>
</event>
<event>
 4    1  0.2061941E-008  0.1111538E+04  0.7818608E-02  0.9194019E-01
         -2   -1    0    0    0  501 -0.00000000000E+00  0.00000000000E+00  0.12288663004E+04  0.12288663004E+04  0.25500000000E-02 0.  1.
          2   -1    0    0  501    0  0.00000000000E+00 -0.00000000000E+00 -0.16334976041E+04  0.16334976041E+04  0.25500000000E-02 0. -1.
    8880022    1    1    2    0    0 -0.10988627988E+04  0.68004478326E+02 -0.10897686497E+04  0.15566346464E+04  0.15294330000E+03 0.  0.
    8880022    1    1    2    0    0  0.10988627988E+04 -0.68004478326E+02  0.68513734590E+03  0.13057292581E+04  0.15294330000E+03 0.  0.
<mgrwt>
<rscale>  0 0.11115375E+04</rscale>
<asrwt>0</asrwt>
<pdfrwt beam="1">  1        2 0.25130733E+00 0.11115375E+04</pdfrwt>
<pdfrwt beam="2">  1       -2 0.18905635E+00 0.11115375E+04</pdfrwt>
<totfact> 0.16465741E+00</totfact>
</mgrwt>
</event>
<event>
 4    1  0.2061941E-008  0.1122530E+04  0.7818608E-02  0.9183507E-01
          2   -1    0    0  501    0  0.00000000000E+00  0.00000000000E+00  0.25885551905E+04  0.25885551905E+04  0.25500000000E-02 0. -1.
         -2   -1    0    0    0  501 -0.00000000000E+00 -0.00000000000E+00 -0.60010176291E+03  0.60010176291E+03  0.25500000000E-02 0.  1.
    8880022    1    1    2    0    0 -0.10752384962E+04 -0.28380330646E+03  0.30142412181E+03  0.11622952700E+04  0.15294330000E+03 0.  0.
    8880022    1    1    2    0    0  0.10752384962E+04  0.28380330646E+03  0.16870293058E+04  0.20263616834E+04  0.15294330000E+03 0.  0.
<mgrwt>
<rscale>  0 0.11225301E+04</rscale>
<asrwt>0</asrwt>
<pdfrwt beam="1">  1        2 0.39823926E+00 0.11225301E+04</pdfrwt>
<pdfrwt beam="2">  1       -2 0.92323349E-01 0.11225301E+04</pdfrwt>
<totfact> 0.30628813E+00</totfact>
</mgrwt>
</event>
<event>
 4    1  0.2061941E-008  0.8920951E+03  0.7818608E-02  0.9435517E-01
         -2   -1    0    0    0  501 -0.00000000000E+00  0.00000000000E+00  0.40484129473E+03  0.40484129474E+03  0.25500000000E-02 0.  1.
          2   -1    0    0  501    0  0.00000000000E+00 -0.00000000000E+00 -0.22695427972E+04  0.22695427972E+04  0.25500000000E-02 0. -1.
    8880022    1    1    2    0    0  0.31534372931E+03 -0.82036595714E+03 -0.14215475222E+04  0.16782821522E+04  0.15294330000E+03 0.  0.
    8880022    1    1    2    0    0 -0.31534372931E+03  0.82036595714E+03 -0.44315398023E+03  0.99610193979E+03  0.15294330000E+03 0.  0.
<mgrwt>
<rscale>  0 0.89209508E+03</rscale>
<asrwt>0</asrwt>
<pdfrwt beam="1">  1        2 0.34916042E+00 0.89209508E+03</pdfrwt>
<pdfrwt beam="2">  1       -2 0.62283278E-01 0.89209508E+03</pdfrwt>
<totfact> 0.11522083E+01</totfact>
</mgrwt>
</event>
<event>
 4    1  0.2061941E-008  0.1358109E+04  0.7818608E-02  0.8984712E-01
          2   -1    0    0  501    0  0.00000000000E+00  0.00000000000E+00  0.26354746984E+04  0.26354746984E+04  0.25500000000E-02 0. -1.
         -2   -1    0    0    0  501 -0.00000000000E+00 -0.00000000000E+00 -0.13078106395E+04  0.13078106395E+04  0.25500000000E-02 0.  1.
    8880022    1    1    2    0    0  0.10187024064E+04 -0.88505054742E+03 -0.68044967531E+03  0.15190366941E+04  0.15294330000E+03 0.  0.
    8880022    1    1    2    0    0 -0.10187024064E+04  0.88505054742E+03  0.20081137343E+04  0.24242486438E+04  0.15294330000E+03 0.  0.
<mgrwt>
<rscale>  0 0.13581092E+04</rscale>
<asrwt>0</asrwt>
<pdfrwt beam="1">  1        2 0.40545764E+00 0.13581092E+04</pdfrwt>
<pdfrwt beam="2">  1       -2 0.20120164E+00 0.13581092E+04</pdfrwt>
<totfact> 0.36233368E-01</totfact>
</mgrwt>
</event>
<event>
 4    1  0.2061941E-008  0.7305629E+03  0.7818608E-02  0.9666347E-01
         -2   -1    0    0    0  501 -0.00000000000E+00  0.00000000000E+00  0.12090122474E+04  0.12090122474E+04  0.25500000000E-02 0.  1.
          2   -1    0    0  501    0  0.00000000000E+00 -0.00000000000E+00 -0.17943146768E+04  0.17943146768E+04  0.25500000000E-02 0. -1.
    8880022    1    1    2    0    0  0.54596231556E+03  0.46071205294E+03  0.10112659557E+04  0.12475499717E+04  0.15294330000E+03 0.  0.
    8880022    1    1    2    0    0 -0.54596231556E+03 -0.46071205294E+03 -0.15965683851E+04  0.17557769526E+04  0.15294330000E+03 0.  0.
<mgrwt>
<rscale>  0 0.73056286E+03</rscale>
<asrwt>0</asrwt>
<pdfrwt beam="1">  1        2 0.27604841E+00 0.73056286E+03</pdfrwt>
<pdfrwt beam="2">  1       -2 0.18600189E+00 0.73056286E+03</pdfrwt>
<totfact> 0.14917378E+00</totfact>
</mgrwt>
</event>
<event>
 4    1  0.2061941E-008  0.9234673E+03  0.7818608E-02  0.9396712E-01
         -2   -1    0    0    0  501 -0.00000000000E+00  0.00000000000E+00  0.63884869848E+03  0.63884869848E+03  0.25500000000E-02 0.  1.
          2   -1    0    0  501    0  0.00000000000E+00 -0.00000000000E+00 -0.20898131349E+04  0.20898131349E+04  0.25500000000E-02 0. -1.
    8880022    1    1    2    0    0 -0.68813507986E+03  0.59654865331E+03 -0.15454896095E+04  0.18003693982E+04  0.15294330000E+03 0.  0.
    8880022    1    1    2    0    0  0.68813507986E+03 -0.59654865331E+03  0.94525173055E+02  0.92829243520E+03  0.15294330000E+03 0.  0.
<mgrwt>
<rscale>  0 0.92346729E+03</rscale>
<asrwt>0</asrwt>
<pdfrwt beam="1">  1        2 0.32150971E+00 0.92346729E+03</pdfrwt>
<pdfrwt beam="2">  1       -2 0.98284416E-01 0.92346729E+03</pdfrwt>
<totfact> 0.51832561E+00</totfact>
</mgrwt>
</event>
<event>
 4    1  0.2061941E-008  0.9873279E+03  0.7818608E-02  0.9322554E-01
          2   -1    0    0  501    0  0.00000000000E+00  0.00000000000E+00  0.23826750798E+04  0.23826750798E+04  0.25500000000E-02 0. -1.
         -2   -1    0    0    0  501 -0.00000000000E+00 -0.00000000000E+00 -0.71262251661E+03  0.71262251662E+03  0.25500000000E-02 0.  1.
    8880022    1    1    2    0    0 -0.19907523952E+03  0.95487894298E+03 -0.17496791147E+03  0.10027114090E+04  0.15294330000E+03 0.  0.
    8880022    1    1    2    0    0  0.19907523952E+03 -0.95487894298E+03  0.18450204746E+04  0.20925861874E+04  0.15294330000E+03 0.  0.
<mgrwt>
<rscale>  0 0.98732791E+03</rscale>
<asrwt>0</asrwt>
<pdfrwt beam="1">  1        2 0.36656539E+00 0.98732791E+03</pdfrwt>
<pdfrwt beam="2">  1       -2 0.10963424E+00 0.98732791E+03</pdfrwt>
<totfact> 0.27142260E+00</totfact>
</mgrwt>
</event>
<event>
 4    1  0.2061941E-008  0.5886194E+03  0.7818608E-02  0.9929302E-01
         -2   -1    0    0    0  501 -0.00000000000E+00  0.00000000000E+00  0.14011309612E+04  0.14011309612E+04  0.25500000000E-02 0.  1.
          2   -1    0    0  501    0  0.00000000000E+00 -0.00000000000E+00 -0.17608356909E+04  0.17608356909E+04  0.25500000000E-02 0. -1.
    8880022    1    1    2    0    0 -0.16674387986E+02  0.56815768301E+03 -0.16456261681E+04  0.17477294773E+04  0.15294330000E+03 0.  0.
    8880022    1    1    2    0    0  0.16674387986E+02 -0.56815768301E+03  0.12859214383E+04  0.14142371748E+04  0.15294330000E+03 0.  0.
<mgrwt>
<rscale>  0 0.58861944E+03</rscale>
<asrwt>0</asrwt>
<pdfrwt beam="1">  1        2 0.27089780E+00 0.58861944E+03</pdfrwt>
<pdfrwt beam="2">  1       -2 0.21555861E+00 0.58861944E+03</pdfrwt>
<totfact> 0.10330920E+00</totfact>
</mgrwt>
</event>
<event>
 4    1  0.2061941E-008  0.4603768E+03  0.7818608E-02  0.1024672E+00
          2   -1    0    0  501    0  0.00000000000E+00  0.00000000000E+00  0.30949122675E+04  0.30949122675E+04  0.25500000000E-02 0. -1.
         -2   -1    0    0    0  501 -0.00000000000E+00 -0.00000000000E+00 -0.16463117667E+04  0.16463117667E+04  0.25500000000E-02 0.  1.
    8880022    1    1    2    0    0  0.28756616748E+02 -0.43327615924E+03  0.30450828870E+04  0.30796877463E+04  0.15294330000E+03 0.  0.
    8880022    1    1    2    0    0 -0.28756616748E+02  0.43327615924E+03 -0.15964823863E+04  0.16615362879E+04  0.15294330000E+03 0.  1.
<mgrwt>
<rscale>  0 0.46037683E+03</rscale>
<asrwt>0</asrwt>
<pdfrwt beam="1">  1        2 0.47614034E+00 0.46037683E+03</pdfrwt>
<pdfrwt beam="2">  1       -2 0.25327874E+00 0.46037683E+03</pdfrwt>
<totfact> 0.11307687E-01</totfact>
</mgrwt>
</event>
<event>
 4    1  0.2061941E-008  0.5770066E+03  0.7818608E-02  0.9954293E-01
          2   -1    0    0  501    0  0.00000000000E+00  0.00000000000E+00  0.20245228756E+04  0.20245228756E+04  0.25500000000E-02 0. -1.
         -2   -1    0    0    0  501 -0.00000000000E+00 -0.00000000000E+00 -0.24714273770E+03  0.24714273772E+03  0.25500000000E-02 0.  1.
    8880022    1    1    2    0    0 -0.29957637388E+03  0.46882727099E+03  0.15456957643E+04  0.16498824390E+04  0.15294330000E+03 0.  0.
    8880022    1    1    2    0    0  0.29957637388E+03 -0.46882727099E+03  0.23168437354E+03  0.62178317424E+03  0.15294330000E+03 0.  0.
<mgrwt>
<rscale>  0 0.57700664E+03</rscale>
<asrwt>0</asrwt>
<pdfrwt beam="1">  1        2 0.31146506E+00 0.57700664E+03</pdfrwt>
<pdfrwt beam="2">  1       -2 0.38021959E-01 0.57700664E+03</pdfrwt>
<totfact> 0.44665919E+01</totfact>
</mgrwt>
</event>
<event>
 4    1  0.2061941E-008  0.1022456E+04  0.7818608E-02  0.9284253E-01
          2   -1    0    0  501    0  0.00000000000E+00  0.00000000000E+00  0.24871028170E+04  0.24871028170E+04  0.25500000000E-02 0. -1.
         -2   -1    0    0    0  501 -0.00000000000E+00 -0.00000000000E+00 -0.65668003125E+03  0.65668003125E+03  0.25500000000E-02 0.  1.
    8880022    1    1    2    0    0  0.96136273162E+03  0.31273963568E+03 -0.27804471363E+02  0.10228338688E+04  0.15294330000E+03 0.  0.
    8880022    1    1    2    0    0 -0.96136273162E+03 -0.31273963568E+03  0.18582272571E+04  0.21209489795E+04  0.15294330000E+03 0.  0.
<mgrwt>
<rscale>  0 0.10224559E+04</rscale>
<asrwt>0</asrwt>
<pdfrwt beam="1">  1        2 0.38263121E+00 0.10224559E+04</pdfrwt>
<pdfrwt beam="2">  1       -2 0.10102770E+00 0.10224559E+04</pdfrwt>
<totfact> 0.28697182E+00</totfact>
</mgrwt>
</event>
<event>
 4    1  0.2061941E-008  0.2693691E+03  0.7818608E-02  0.1101641E+00
         -2   -1    0    0    0  501 -0.00000000000E+00  0.00000000000E+00  0.85479111680E+03  0.85479111680E+03  0.25500000000E-02 0.  1.
          2   -1    0    0  501    0  0.00000000000E+00 -0.00000000000E+00 -0.98296243045E+03  0.98296243046E+03  0.25500000000E-02 0. -1.
    8880022    1    1    2    0    0 -0.11702155711E+03  0.18834544735E+03  0.81421961650E+03  0.85762071411E+03  0.15294330000E+03 0.  1.
    8880022    1    1    2    0    0  0.11702155711E+03 -0.18834544735E+03 -0.94239093015E+03  0.98013283315E+03  0.15294330000E+03 0.  0.
<mgrwt>
<rscale>  0 0.26936909E+03</rscale>
<asrwt>0</asrwt>
<pdfrwt beam="1">  1        2 0.15122499E+00 0.26936909E+03</pdfrwt>
<pdfrwt beam="2">  1       -2 0.13150633E+00 0.26936909E+03</pdfrwt>
<totfact> 0.12133212E+01</totfact>
</mgrwt>
</event>
<event>
 4    1  0.2061941E-008  0.1065776E+04  0.7818608E-02  0.9239206E-01
         -2   -1    0    0    0  501 -0.00000000000E+00  0.00000000000E+00  0.60631560989E+03  0.60631560990E+03  0.25500000000E-02 0.  1.
          2   -1    0    0  501    0  0.00000000000E+00 -0.00000000000E+00 -0.31960809408E+04  0.31960809408E+04  0.25500000000E-02 0. -1.
    8880022    1    1    2    0    0  0.20276493094E+03  0.10350720446E+04 -0.25179320064E+04  0.27342020767E+04  0.15294330000E+03 0.  0.
    8880022    1    1    2    0    0 -0.20276493094E+03 -0.10350720446E+04 -0.71833324529E+02  0.10681944740E+04  0.15294330000E+03 0.  0.
<mgrwt>
<rscale>  0 0.10657764E+04</rscale>
<asrwt>0</asrwt>
<pdfrwt beam="1">  1        2 0.49170475E+00 0.10657764E+04</pdfrwt>
<pdfrwt beam="2">  1       -2 0.93279326E-01 0.10657764E+04</pdfrwt>
<totfact> 0.12870877E+00</totfact>
</mgrwt>
</event>
<event>
 4    1  0.2061941E-008  0.5244049E+03  0.7818608E-02  0.1007598E+00
          2   -1    0    0  501    0  0.00000000000E+00  0.00000000000E+00  0.19466544688E+04  0.19466544688E+04  0.25500000000E-02 0. -1.
         -2   -1    0    0    0  501 -0.00000000000E+00 -0.00000000000E+00 -0.18730149681E+04  0.18730149681E+04  0.25500000000E-02 0.  1.
    8880022    1    1    2    0    0  0.41412007951E+03 -0.28304302817E+03 -0.17995805198E+04  0.18744307126E+04  0.15294330000E+03 0.  0.
    8880022    1    1    2    0    0 -0.41412007951E+03  0.28304302817E+03  0.18732200205E+04  0.19452387242E+04  0.15294330000E+03 0.  0.
<mgrwt>
<rscale>  0 0.52440485E+03</rscale>
<asrwt>0</asrwt>
<pdfrwt beam="1">  1        2 0.29948530E+00 0.52440485E+03</pdfrwt>
<pdfrwt beam="2">  1       -2 0.28815615E+00 0.52440485E+03</pdfrwt>
<totfact> 0.30491777E-01</totfact>
</mgrwt>
</event>
<event>
 4    1  0.2061941E-008  0.5434428E+03  0.7818608E-02  0.1003023E+00
         -2   -1    0    0    0  501 -0.00000000000E+00  0.00000000000E+00  0.34692018714E+03  0.34692018715E+03  0.25500000000E-02 0.  1.
          2   -1    0    0  501    0  0.00000000000E+00 -0.00000000000E+00 -0.12485463421E+04  0.12485463421E+04  0.25500000000E-02 0. -1.
    8880022    1    1    2    0    0  0.21429912137E+03 -0.47540958987E+03 -0.83617314885E+00  0.54344341357E+03  0.15294330000E+03 0.  0.
    8880022    1    1    2    0    0 -0.21429912137E+03  0.47540958987E+03 -0.90078998178E+03  0.10520231156E+04  0.15294330000E+03 0.  0.
<mgrwt>
<rscale>  0 0.54344277E+03</rscale>
<asrwt>0</asrwt>
<pdfrwt beam="1">  1        2 0.19208405E+00 0.54344277E+03</pdfrwt>
<pdfrwt beam="2">  1       -2 0.53372337E-01 0.54344277E+03</pdfrwt>
<totfact> 0.61036053E+01</totfact>
</mgrwt>
</event>
<event>
 4    1  0.2061941E-008  0.6917993E+03  0.7818608E-02  0.9731360E-01
         -2   -1    0    0    0  501 -0.00000000000E+00  0.00000000000E+00  0.82261978375E+03  0.82261978376E+03  0.25500000000E-02 0.  1.
          2   -1    0    0  501    0  0.00000000000E+00 -0.00000000000E+00 -0.91679760175E+03  0.91679760176E+03  0.25500000000E-02 0. -1.
    8880022    1    1    2    0    0 -0.59810719714E+03  0.31218957468E+03 -0.57282639855E+03  0.89817386162E+03  0.15294330000E+03 0.  0.
    8880022    1    1    2    0    0  0.59810719714E+03 -0.31218957468E+03  0.47864858056E+03  0.84124352389E+03  0.15294330000E+03 0.  0.
<mgrwt>
<rscale>  0 0.69179925E+03</rscale>
<asrwt>0</asrwt>
<pdfrwt beam="1">  1        2 0.14104578E+00 0.69179925E+03</pdfrwt>
<pdfrwt beam="2">  1       -2 0.12655689E+00 0.69179925E+03</pdfrwt>
<totfact> 0.13582076E+01</totfact>
</mgrwt>
</event>
<event>
 4    1  0.2061941E-008  0.9736990E+03  0.7818608E-02  0.9337871E-01
          2   -1    0    0  501    0  0.00000000000E+00  0.00000000000E+00  0.27708382979E+04  0.27708382979E+04  0.25500000000E-02 0. -1.
         -2   -1    0    0    0  501 -0.00000000000E+00 -0.00000000000E+00 -0.98852375967E+03  0.98852375968E+03  0.25500000000E-02 0.  1.
    8880022    1    1    2    0    0 -0.29368886570E+03  0.91566642562E+03  0.24110981768E+04  0.26002854121E+04  0.15294330000E+03 0. -1.
    8880022    1    1    2    0    0  0.29368886570E+03 -0.91566642562E+03 -0.62878363864E+03  0.11590766455E+04  0.15294330000E+03 0.  0.
<mgrwt>
<rscale>  0 0.97369903E+03</rscale>
<asrwt>0</asrwt>
<pdfrwt beam="1">  1        2 0.42628281E+00 0.97369903E+03</pdfrwt>
<pdfrwt beam="2">  1       -2 0.15208058E+00 0.97369903E+03</pdfrwt>
<totfact> 0.70661072E-01</totfact>
</mgrwt>
</event>
<event>
 4    1  0.2061941E-008  0.1109863E+04  0.7818608E-02  0.9195631E-01
          2   -1    0    0  501    0  0.00000000000E+00  0.00000000000E+00  0.29215483133E+04  0.29215483133E+04  0.25500000000E-02 0. -1.
         -2   -1    0    0    0  501 -0.00000000000E+00 -0.00000000000E+00 -0.56163620969E+03  0.56163620970E+03  0.25500000000E-02 0.  1.
    8880022    1    1    2    0    0 -0.80621926088E+03  0.74727207694E+03  0.31039330674E+03  0.11524498737E+04  0.15294330000E+03 0.  0.
    8880022    1    1    2    0    0  0.80621926088E+03 -0.74727207694E+03  0.20495187969E+04  0.23307346493E+04  0.15294330000E+03 0. -1.
<mgrwt>
<rscale>  0 0.11098634E+04</rscale>
<asrwt>0</asrwt>
<pdfrwt beam="1">  1        2 0.44946897E+00 0.11098634E+04</pdfrwt>
<pdfrwt beam="2">  1       -2 0.86405570E-01 0.11098634E+04</pdfrwt>
<totfact> 0.22679937E+00</totfact>
</mgrwt>
</event>
<event>
 4    1  0.2061941E-008  0.5283142E+03  0.7818608E-02  0.1006642E+00
         -2   -1    0    0    0  501 -0.00000000000E+00  0.00000000000E+00  0.28275911713E+03  0.28275911714E+03  0.25500000000E-02 0.  1.
          2   -1    0    0  501    0  0.00000000000E+00 -0.00000000000E+00 -0.16165269623E+04  0.16165269623E+04  0.25500000000E-02 0. -1.
    8880022    1    1    2    0    0  0.45610044969E+03  0.21839545789E+03 -0.12594493478E+04  0.13657702987E+04  0.15294330000E+03 0.  0.
    8880022    1    1    2    0    0 -0.45610044969E+03 -0.21839545789E+03 -0.74318497422E+02  0.53351578075E+03  0.15294330000E+03 0.  0.
<mgrwt>
<rscale>  0 0.52831416E+03</rscale>
<asrwt>0</asrwt>
<pdfrwt beam="1">  1        2 0.24869645E+00 0.52831416E+03</pdfrwt>
<pdfrwt beam="2">  1       -2 0.43501404E-01 0.52831416E+03</pdfrwt>
<totfact> 0.57543666E+01</totfact>
</mgrwt>
</event>
<event>
 4    1  0.2061941E-008  0.5957716E+03  0.7818608E-02  0.9914218E-01
          2   -1    0    0  501    0  0.00000000000E+00  0.00000000000E+00  0.24942886678E+04  0.24942886678E+04  0.25500000000E-02 0. -1.
         -2   -1    0    0    0  501 -0.00000000000E+00 -0.00000000000E+00 -0.73465247730E+03  0.73465247730E+03  0.25500000000E-02 0.  1.
    8880022    1    1    2    0    0  0.28784646970E+03 -0.49869488052E+03  0.23295186385E+04  0.24044959793E+04  0.15294330000E+03 0.  0.
    8880022    1    1    2    0    0 -0.28784646970E+03  0.49869488052E+03 -0.56988244801E+03  0.82444516587E+03  0.15294330000E+03 0.  0.
<mgrwt>
<rscale>  0 0.59577162E+03</rscale>
<asrwt>0</asrwt>
<pdfrwt beam="1">  1        2 0.38373672E+00 0.59577162E+03</pdfrwt>
<pdfrwt beam="2">  1       -2 0.11302346E+00 0.59577162E+03</pdfrwt>
<totfact> 0.23447777E+00</totfact>
</mgrwt>
</event>
<event>
 4    1  0.2061941E-008  0.1166608E+04  0.7818608E-02  0.9142597E-01
          2   -1    0    0  501    0  0.00000000000E+00  0.00000000000E+00  0.21767964787E+04  0.21767964787E+04  0.25500000000E-02 0. -1.
         -2   -1    0    0    0  501 -0.00000000000E+00 -0.00000000000E+00 -0.77903736700E+03  0.77903736701E+03  0.25500000000E-02 0.  1.
    8880022    1    1    2    0    0 -0.81749812536E+03  0.81809493363E+03  0.13555919435E+04  0.17884640549E+04  0.15294330000E+03 0.  0.
    8880022    1    1    2    0    0  0.81749812536E+03 -0.81809493363E+03  0.42167168223E+02  0.11673697908E+04  0.15294330000E+03 0.  0.
<mgrwt>
<rscale>  0 0.11666080E+04</rscale>
<asrwt>0</asrwt>
<pdfrwt beam="1">  1        2 0.33489177E+00 0.11666080E+04</pdfrwt>
<pdfrwt beam="2">  1       -2 0.11985190E+00 0.11666080E+04</pdfrwt>
<totfact> 0.27811693E+00</totfact>
</mgrwt>
</event>
<event>
 4    1  0.2061941E-008  0.3137970E+03  0.7818608E-02  0.1078540E+00
          2   -1    0    0  501    0  0.00000000000E+00  0.00000000000E+00  0.15325287811E+03  0.15325287813E+03  0.25500000000E-02 0. -1.
         -2   -1    0    0    0  501 -0.00000000000E+00 -0.00000000000E+00 -0.21749564593E+04  0.21749564593E+04  0.25500000000E-02 0.  1.
    8880022    1    1    2    0    0 -0.22345247314E+03  0.15857458266E+03 -0.33710186401E+02  0.31560249635E+03  0.15294330000E+03 0.  0.
    8880022    1    1    2    0    0  0.22345247314E+03 -0.15857458266E+03 -0.19879933948E+04  0.20126068410E+04  0.15294330000E+03 0.  1.
<mgrwt>
<rscale>  0 0.31379700E+03</rscale>
<asrwt>0</asrwt>
<pdfrwt beam="1">  1        2 0.23577368E-01 0.31379700E+03</pdfrwt>
<pdfrwt beam="2">  1       -2 0.33460866E+00 0.31379700E+03</pdfrwt>
<totfact> 0.51962070E+00</totfact>
</mgrwt>
</event>
<event>
 4    1  0.2061941E-008  0.5478687E+03  0.7818608E-02  0.1001988E+00
          2   -1    0    0  501    0  0.00000000000E+00  0.00000000000E+00  0.11817127941E+04  0.11817127941E+04  0.25500000000E-02 0. -1.
         -2   -1    0    0    0  501 -0.00000000000E+00 -0.00000000000E+00 -0.65546202931E+03  0.65546202931E+03  0.25500000000E-02 0.  1.
    8880022    1    1    2    0    0  0.24885554019E+03  0.46350769527E+03  0.98202232904E+03  0.11245123259E+04  0.15294330000E+03 0.  0.
    8880022    1    1    2    0    0 -0.24885554019E+03 -0.46350769527E+03 -0.45577156427E+03  0.71266249744E+03  0.15294330000E+03 0.  0.
<mgrwt>
<rscale>  0 0.54786870E+03</rscale>
<asrwt>0</asrwt>
<pdfrwt beam="1">  1        2 0.18180197E+00 0.54786870E+03</pdfrwt>
<pdfrwt beam="2">  1       -2 0.10084031E+00 0.54786870E+03</pdfrwt>
<totfact> 0.16473429E+01</totfact>
</mgrwt>
</event>
<event>
 4    1  0.2061941E-008  0.2901484E+03  0.7818608E-02  0.1090272E+00
         -2   -1    0    0    0  501 -0.00000000000E+00  0.00000000000E+00  0.13193582180E+04  0.13193582180E+04  0.25500000000E-02 0.  1.
          2   -1    0    0  501    0  0.00000000000E+00 -0.00000000000E+00 -0.63713131242E+03  0.63713131242E+03  0.25500000000E-02 0. -1.
    8880022    1    1    2    0    0 -0.22939333746E+03  0.90405378692E+02 -0.58685395018E+03  0.65466300310E+03  0.15294330000E+03 0. -1.
    8880022    1    1    2    0    0  0.22939333746E+03 -0.90405378692E+02  0.12690808558E+04  0.13018265274E+04  0.15294330000E+03 0.  0.
<mgrwt>
<rscale>  0 0.29014839E+03</rscale>
<asrwt>0</asrwt>
<pdfrwt beam="1">  1        2 0.98020203E-01 0.29014839E+03</pdfrwt>
<pdfrwt beam="2">  1       -2 0.20297819E+00 0.29014839E+03</pdfrwt>
<totfact> 0.65387147E+00</totfact>
</mgrwt>
</event>
<event>
 4    1  0.2061941E-008  0.1180418E+04  0.7818608E-02  0.9130171E-01
          2   -1    0    0  501    0  0.00000000000E+00  0.00000000000E+00  0.60720496442E+03  0.60720496443E+03  0.25500000000E-02 0. -1.
         -2   -1    0    0    0  501 -0.00000000000E+00 -0.00000000000E+00 -0.25709075449E+04  0.25709075449E+04  0.25500000000E-02 0.  1.
    8880022    1    1    2    0    0  0.53868323091E+03 -0.10391420820E+04 -0.46105320007E+03  0.12672638226E+04  0.15294330000E+03 0.  0.
    8880022    1    1    2    0    0 -0.53868323091E+03  0.10391420820E+04 -0.15026493804E+04  0.19108486866E+04  0.15294330000E+03 0.  0.
<mgrwt>
<rscale>  0 0.11804184E+04</rscale>
<asrwt>0</asrwt>
<pdfrwt beam="1">  1        2 0.93416149E-01 0.11804184E+04</pdfrwt>
<pdfrwt beam="2">  1       -2 0.39552423E+00 0.11804184E+04</pdfrwt>
<totfact> 0.38575231E-01</totfact>
</mgrwt>
</event>
<event>
 4    1  0.2061941E-008  0.1783845E+03  0.7818608E-02  0.1169376E+00
          2   -1    0    0  501    0  0.00000000000E+00  0.00000000000E+00  0.15561156090E+04  0.15561156090E+04  0.25500000000E-02 0. -1.
         -2   -1    0    0    0  501 -0.00000000000E+00 -0.00000000000E+00 -0.12268892025E+03  0.12268892028E+03  0.25500000000E-02 0.  1.
    8880022    1    1    2    0    0  0.56875249180E+02 -0.72073459389E+02  0.14829760430E+04  0.14936662862E+04  0.15294330000E+03 0.  0.
    8880022    1    1    2    0    0 -0.56875249180E+02  0.72073459389E+02 -0.49549354251E+02  0.18513824305E+03  0.15294330000E+03 0.  0.
<mgrwt>
<rscale>  0 0.17838450E+03</rscale>
<asrwt>0</asrwt>
<pdfrwt beam="1">  1        2 0.23940239E+00 0.17838450E+03</pdfrwt>
<pdfrwt beam="2">  1       -2 0.18875219E-01 0.17838450E+03</pdfrwt>
<totfact> 0.30358281E+02</totfact>
</mgrwt>
</event>
<event>
 4    1  0.2061941E-008  0.6816294E+03  0.7818608E-02  0.9749174E-01
         -2   -1    0    0    0  501 -0.00000000000E+00  0.00000000000E+00  0.11826082576E+04  0.11826082576E+04  0.25500000000E-02 0.  1.
          2   -1    0    0  501    0  0.00000000000E+00 -0.00000000000E+00 -0.77491389580E+03  0.77491389581E+03  0.25500000000E-02 0. -1.
    8880022    1    1    2    0    0  0.63214829422E+03  0.20399889618E+03 -0.48338432228E+03  0.83563094220E+03  0.15294330000E+03 0.  0.
    8880022    1    1    2    0    0 -0.63214829422E+03 -0.20399889618E+03  0.89107868404E+03  0.11218912112E+04  0.15294330000E+03 0.  0.
<mgrwt>
<rscale>  0 0.68162942E+03</rscale>
<asrwt>0</asrwt>
<pdfrwt beam="1">  1        2 0.11921752E+00 0.68162942E+03</pdfrwt>
<pdfrwt beam="2">  1       -2 0.18193973E+00 0.68162942E+03</pdfrwt>
<totfact> 0.64960877E+00</totfact>
</mgrwt>
</event>
<event>
 4    1  0.2061941E-008  0.6367382E+03  0.7818608E-02  0.9831987E-01
         -2   -1    0    0    0  501 -0.00000000000E+00  0.00000000000E+00  0.60814819680E+03  0.60814819680E+03  0.25500000000E-02 0.  1.
          2   -1    0    0  501    0  0.00000000000E+00 -0.00000000000E+00 -0.31994033533E+04  0.31994033533E+04  0.25500000000E-02 0. -1.
    8880022    1    1    2    0    0 -0.52758988605E+03  0.32201369919E+03  0.39822588003E+03  0.75101226013E+03  0.15294330000E+03 0.  0.
    8880022    1    1    2    0    0  0.52758988605E+03 -0.32201369919E+03 -0.29894810365E+04  0.30565392899E+04  0.15294330000E+03 0.  0.
<mgrwt>
<rscale>  0 0.63673822E+03</rscale>
<asrwt>0</asrwt>
<pdfrwt beam="1">  1        2 0.49221589E+00 0.63673822E+03</pdfrwt>
<pdfrwt beam="2">  1       -2 0.93561263E-01 0.63673822E+03</pdfrwt>
<totfact> 0.13861358E+00</totfact>
</mgrwt>
</event>
<event>
 4    1  0.2061941E-008  0.2912189E+03  0.7818608E-02  0.1089714E+00
         -2   -1    0    0    0  501 -0.00000000000E+00  0.00000000000E+00  0.35725325087E+03  0.35725325088E+03  0.25500000000E-02 0.  1.
          2   -1    0    0  501    0  0.00000000000E+00 -0.00000000000E+00 -0.48843310943E+03  0.48843310944E+03  0.25500000000E-02 0. -1.
    8880022    1    1    2    0    0  0.10519138366E+03 -0.22439149253E+03 -0.36873517309E+03  0.46986599154E+03  0.15294330000E+03 0. -1.
    8880022    1    1    2    0    0 -0.10519138366E+03  0.22439149253E+03  0.23755531452E+03  0.37582036878E+03  0.15294330000E+03 0.  0.
<mgrwt>
<rscale>  0 0.29121886E+03</rscale>
<asrwt>0</asrwt>
<pdfrwt beam="1">  1        2 0.75143556E-01 0.29121886E+03</pdfrwt>
<pdfrwt beam="2">  1       -2 0.54962038E-01 0.29121886E+03</pdfrwt>
<totfact> 0.20409705E+02</totfact>
</mgrwt>
</event>
<event>
 4    1  0.2061941E-008  0.5262778E+03  0.7818608E-02  0.1007139E+00
         -2   -1    0    0    0  501 -0.00000000000E+00  0.00000000000E+00  0.85550934205E+03  0.85550934205E+03  0.25500000000E-02 0.  1.
          2   -1    0    0  501    0  0.00000000000E+00 -0.00000000000E+00 -0.40300354428E+03  0.40300354428E+03  0.25500000000E-02 0. -1.
    8880022    1    1    2    0    0  0.46327156545E+03  0.19737304193E+03  0.50530909228E+03  0.72959275818E+03  0.15294330000E+03 0.  0.
    8880022    1    1    2    0    0 -0.46327156545E+03 -0.19737304193E+03 -0.52803294511E+02  0.52892012815E+03  0.15294330000E+03 0.  0.
<mgrwt>
<rscale>  0 0.52627779E+03</rscale>
<asrwt>0</asrwt>
<pdfrwt beam="1">  1        2 0.62000545E-01 0.52627779E+03</pdfrwt>
<pdfrwt beam="2">  1       -2 0.13161682E+00 0.52627779E+03</pdfrwt>
<totfact> 0.34217872E+01</totfact>
</mgrwt>
</event>
<event>
 4    1  0.2061941E-008  0.2487256E+03  0.7818608E-02  0.1114113E+00
          2   -1    0    0  501    0  0.00000000000E+00  0.00000000000E+00  0.33078906894E+04  0.33078906894E+04  0.25500000000E-02 0. -1.
         -2   -1    0    0    0  501 -0.00000000000E+00 -0.00000000000E+00 -0.28740702839E+03  0.28740702840E+03  0.25500000000E-02 0.  1.
    8880022    1    1    2    0    0  0.52339890128E+02 -0.18903252498E+03  0.32484188715E+04  0.32579271903E+04  0.15294330000E+03 0.  0.
    8880022    1    1    2    0    0 -0.52339890128E+02  0.18903252498E+03 -0.22793521052E+03  0.33737052747E+03  0.15294330000E+03 0.  0.
<mgrwt>
<rscale>  0 0.24872558E+03</rscale>
<asrwt>0</asrwt>
<pdfrwt beam="1">  1        2 0.50890623E+00 0.24872558E+03</pdfrwt>
<pdfrwt beam="2">  1       -2 0.44216469E-01 0.24872558E+03</pdfrwt>
<totfact> 0.68115623E+00</totfact>
</mgrwt>
</event>
<event>
 4    1  0.2061941E-008  0.2679375E+03  0.7818608E-02  0.1102466E+00
         -2   -1    0    0    0  501 -0.00000000000E+00  0.00000000000E+00  0.10269810362E+03  0.10269810365E+03  0.25500000000E-02 0.  1.
          2   -1    0    0  501    0  0.00000000000E+00 -0.00000000000E+00 -0.20936102681E+04  0.20936102681E+04  0.25500000000E-02 0. -1.
    8880022    1    1    2    0    0 -0.16304074188E+03 -0.14770436185E+03 -0.18917180059E+04  0.19105987357E+04  0.15294330000E+03 0.  0.
    8880022    1    1    2    0    0  0.16304074188E+03  0.14770436185E+03 -0.99194158589E+02  0.28570963605E+03  0.15294330000E+03 0.  0.
<mgrwt>
<rscale>  0 0.26793752E+03</rscale>
<asrwt>0</asrwt>
<pdfrwt beam="1">  1        2 0.32209385E+00 0.26793752E+03</pdfrwt>
<pdfrwt beam="2">  1       -2 0.15799710E-01 0.26793752E+03</pdfrwt>
<totfact> 0.20930980E+02</totfact>
</mgrwt>
</event>
<event>
 4    1  0.2061941E-008  0.3237831E+03  0.7818608E-02  0.1073921E+00
          2   -1    0    0  501    0  0.00000000000E+00  0.00000000000E+00  0.19867125859E+04  0.19867125859E+04  0.25500000000E-02 0. -1.
         -2   -1    0    0    0  501 -0.00000000000E+00 -0.00000000000E+00 -0.11395298693E+03  0.11395298696E+03  0.25500000000E-02 0.  1.
    8880022    1    1    2    0    0  0.23404234917E+03  0.16330354560E+03  0.17060156690E+04  0.17364691143E+04  0.15294330000E+03 0.  0.
    8880022    1    1    2    0    0 -0.23404234917E+03 -0.16330354560E+03  0.16674393001E+03  0.36419645855E+03  0.15294330000E+03 0.  0.
<mgrwt>
<rscale>  0 0.32378314E+03</rscale>
<asrwt>0</asrwt>
<pdfrwt beam="1">  1        2 0.30564806E+00 0.32378314E+03</pdfrwt>
<pdfrwt beam="2">  1       -2 0.17531230E-01 0.32378314E+03</pdfrwt>
<totfact> 0.19763165E+02</totfact>
</mgrwt>
</event>
<event>
 4    1  0.2061941E-008  0.2273003E+03  0.7818608E-02  0.1128554E+00
          2   -1    0    0  501    0  0.00000000000E+00  0.00000000000E+00  0.33261134913E+04  0.33261134913E+04  0.25500000000E-02 0. -1.
         -2   -1    0    0    0  501 -0.00000000000E+00 -0.00000000000E+00 -0.50688053855E+02  0.50688053920E+02  0.25500000000E-02 0.  1.
    8880022    1    1    2    0    0 -0.13961573886E+03 -0.93708111772E+02  0.30438086512E+04  0.30522838209E+04  0.15294330000E+03 0. -1.
    8880022    1    1    2    0    0  0.13961573886E+03  0.93708111772E+02  0.23161678619E+03  0.32451772434E+03  0.15294330000E+03 0.  0.
<mgrwt>
<rscale>  0 0.22730028E+03</rscale>
<asrwt>0</asrwt>
<pdfrwt beam="1">  1        2 0.51170978E+00 0.22730028E+03</pdfrwt>
<pdfrwt beam="2">  1       -2 0.77981620E-02 0.22730028E+03</pdfrwt>
<totfact> 0.13190689E+02</totfact>
</mgrwt>
</event>
<event>
 4    1  0.2061941E-008  0.1164027E+04  0.7818608E-02  0.9144940E-01
         -2   -1    0    0    0  501 -0.00000000000E+00  0.00000000000E+00  0.10095076602E+04  0.10095076602E+04  0.25500000000E-02 0.  1.
          2   -1    0    0  501    0  0.00000000000E+00 -0.00000000000E+00 -0.19685387058E+04  0.19685387058E+04  0.25500000000E-02 0. -1.
    8880022    1    1    2    0    0 -0.50438623011E+02  0.11528321985E+04 -0.13194303959E+04  0.17595040083E+04  0.15294330000E+03 0.  0.
    8880022    1    1    2    0    0  0.50438623011E+02 -0.11528321985E+04  0.36039935031E+03  0.12185423577E+04  0.15294330000E+03 0.  0.
<mgrwt>
<rscale>  0 0.11640265E+04</rscale>
<asrwt>0</asrwt>
<pdfrwt beam="1">  1        2 0.30285211E+00 0.11640265E+04</pdfrwt>
<pdfrwt beam="2">  1       -2 0.15530887E+00 0.11640265E+04</pdfrwt>
<totfact> 0.18553327E+00</totfact>
</mgrwt>
</event>
<event>
 4    1  0.2061941E-008  0.3292992E+03  0.7818608E-02  0.1071447E+00
          2   -1    0    0  501    0  0.00000000000E+00  0.00000000000E+00  0.15508735642E+04  0.15508735642E+04  0.25500000000E-02 0. -1.
         -2   -1    0    0    0  501 -0.00000000000E+00 -0.00000000000E+00 -0.52113600857E+03  0.52113600857E+03  0.25500000000E-02 0.  1.
    8880022    1    1    2    0    0 -0.19380991123E+03 -0.21790830796E+03 -0.44913380073E+03  0.55691932660E+03  0.15294330000E+03 0.  0.
    8880022    1    1    2    0    0  0.19380991123E+03  0.21790830796E+03  0.14788713564E+04  0.15150902462E+04  0.15294330000E+03 0. -1.
<mgrwt>
<rscale>  0 0.32929920E+03</rscale>
<asrwt>0</asrwt>
<pdfrwt beam="1">  1        2 0.23859594E+00 0.32929920E+03</pdfrwt>
<pdfrwt beam="2">  1       -2 0.80174769E-01 0.32929920E+03</pdfrwt>
<totfact> 0.18145733E+01</totfact>
</mgrwt>
</event>
<event>
 4    1  0.2061941E-008  0.1581572E+03  0.7818608E-02  0.1190793E+00
         -2   -1    0    0    0  501 -0.00000000000E+00  0.00000000000E+00  0.31059428840E+02  0.31059428945E+02  0.25500000000E-02 0.  1.
          2   -1    0    0  501    0  0.00000000000E+00 -0.00000000000E+00 -0.24715366641E+04  0.24715366641E+04  0.25500000000E-02 0. -1.
    8880022    1    1    2    0    0 -0.32634271562E+02 -0.23601668793E+02 -0.19283955790E+03  0.24940084714E+03  0.15294330000E+03 0.  0.
    8880022    1    1    2    0    0  0.32634271562E+02  0.23601668793E+02 -0.22476376774E+04  0.22531952459E+04  0.15294330000E+03 0. -1.
<mgrwt>
<rscale>  0 0.15815716E+03</rscale>
<asrwt>0</asrwt>
<pdfrwt beam="1">  1        2 0.38023626E+00 0.15815716E+03</pdfrwt>
<pdfrwt beam="2">  1       -2 0.47783756E-02 0.15815716E+03</pdfrwt>
<totfact> 0.89246099E+02</totfact>
</mgrwt>
</event>
<event>
 4    1  0.2061941E-008  0.1185370E+04  0.7818608E-02  0.9125759E-01
          2   -1    0    0  501    0  0.00000000000E+00  0.00000000000E+00  0.16134416893E+04  0.16134416893E+04  0.25500000000E-02 0. -1.
         -2   -1    0    0    0  501 -0.00000000000E+00 -0.00000000000E+00 -0.14963326207E+04  0.14963326207E+04  0.25500000000E-02 0.  1.
    8880022    1    1    2    0    0 -0.35165935253E+03  0.11216268688E+04  0.10638285253E+04  0.15927441468E+04  0.15294330000E+03 0.  0.
    8880022    1    1    2    0    0  0.35165935253E+03 -0.11216268688E+04 -0.94671945668E+03  0.15170301631E+04  0.15294330000E+03 0.  0.
<mgrwt>
<rscale>  0 0.11853703E+04</rscale>
<asrwt>0</asrwt>
<pdfrwt beam="1">  1        2 0.24822180E+00 0.11853703E+04</pdfrwt>
<pdfrwt beam="2">  1       -2 0.23020502E+00 0.11853703E+04</pdfrwt>
<totfact> 0.90856503E-01</totfact>
</mgrwt>
</event>
<event>
 4    1  0.2061941E-008  0.8395555E+03  0.7818608E-02  0.9504463E-01
          2   -1    0    0  501    0  0.00000000000E+00  0.00000000000E+00  0.18078774146E+04  0.18078774146E+04  0.25500000000E-02 0. -1.
         -2   -1    0    0    0  501 -0.00000000000E+00 -0.00000000000E+00 -0.10926259762E+04  0.10926259762E+04  0.25500000000E-02 0.  1.
    8880022    1    1    2    0    0 -0.59277472284E+03  0.57452574392E+03 -0.80544769378E+03  0.11634428834E+04  0.15294330000E+03 0.  0.
    8880022    1    1    2    0    0  0.59277472284E+03 -0.57452574392E+03  0.15206991322E+04  0.17370605073E+04  0.15294330000E+03 0.  0.
<mgrwt>
<rscale>  0 0.83955545E+03</rscale>
<asrwt>0</asrwt>
<pdfrwt beam="1">  1        2 0.27813498E+00 0.83955545E+03</pdfrwt>
<pdfrwt beam="2">  1       -2 0.16809631E+00 0.83955545E+03</pdfrwt>
<totfact> 0.19144070E+00</totfact>
</mgrwt>
</event>
<event>
 4    1  0.2061941E-008  0.8464896E+03  0.7818608E-02  0.9495061E-01
          2   -1    0    0  501    0  0.00000000000E+00  0.00000000000E+00  0.30022649879E+04  0.30022649879E+04  0.25500000000E-02 0. -1.
         -2   -1    0    0    0  501 -0.00000000000E+00 -0.00000000000E+00 -0.35082859931E+03  0.35082859932E+03  0.25500000000E-02 0.  1.
    8880022    1    1    2    0    0 -0.73450296225E+03  0.39199278666E+03  0.37776186012E+03  0.92695664533E+03  0.15294330000E+03 0.  0.
    8880022    1    1    2    0    0  0.73450296225E+03 -0.39199278666E+03  0.22736745284E+04  0.24261369419E+04  0.15294330000E+03 0.  0.
<mgrwt>
<rscale>  0 0.84648957E+03</rscale>
<asrwt>0</asrwt>
<pdfrwt beam="1">  1        2 0.46188694E+00 0.84648957E+03</pdfrwt>
<pdfrwt beam="2">  1       -2 0.53973628E-01 0.84648957E+03</pdfrwt>
<totfact> 0.58765276E+00</totfact>
</mgrwt>
</event>
<event>
 4    1  0.2061941E-008  0.9703461E+03  0.7818608E-02  0.9341680E-01
         -2   -1    0    0    0  501 -0.00000000000E+00  0.00000000000E+00  0.85375841092E+03  0.85375841092E+03  0.25500000000E-02 0.  1.
          2   -1    0    0  501    0  0.00000000000E+00 -0.00000000000E+00 -0.11852348800E+04  0.11852348801E+04  0.25500000000E-02 0. -1.
    8880022    1    1    2    0    0  0.48857799781E+03 -0.82430053668E+03 -0.43451697965E+03  0.10631916541E+04  0.15294330000E+03 0.  0.
    8880022    1    1    2    0    0 -0.48857799781E+03  0.82430053668E+03  0.10304051052E+03  0.97580163688E+03  0.15294330000E+03 0.  0.
<mgrwt>
<rscale>  0 0.97034607E+03</rscale>
<asrwt>0</asrwt>
<pdfrwt beam="1">  1        2 0.18234383E+00 0.97034607E+03</pdfrwt>
<pdfrwt beam="2">  1       -2 0.13134745E+00 0.97034607E+03</pdfrwt>
<totfact> 0.81370397E+00</totfact>
</mgrwt>
</event>
<event>
 4    1  0.2061941E-008  0.8745671E+03  0.7818608E-02  0.9457944E-01
         -2   -1    0    0    0  501 -0.00000000000E+00  0.00000000000E+00  0.70219905807E+03  0.70219905808E+03  0.25500000000E-02 0.  1.
          2   -1    0    0  501    0  0.00000000000E+00 -0.00000000000E+00 -0.17388607815E+04  0.17388607815E+04  0.25500000000E-02 0. -1.
    8880022    1    1    2    0    0  0.84979057473E+03 -0.13903953614E+03  0.22767785332E+03  0.90371725192E+03  0.15294330000E+03 0.  0.
    8880022    1    1    2    0    0 -0.84979057473E+03  0.13903953614E+03 -0.12643395768E+04  0.15373425877E+04  0.15294330000E+03 0.  0.
<mgrwt>
<rscale>  0 0.87456713E+03</rscale>
<asrwt>0</asrwt>
<pdfrwt beam="1">  1        2 0.26751704E+00 0.87456713E+03</pdfrwt>
<pdfrwt beam="2">  1       -2 0.10803063E+00 0.87456713E+03</pdfrwt>
<totfact> 0.64813032E+00</totfact>
</mgrwt>
</event>
<event>
 4    1  0.2061941E-008  0.7866819E+03  0.7818608E-02  0.9579497E-01
         -2   -1    0    0    0  501 -0.00000000000E+00  0.00000000000E+00  0.18973590704E+04  0.18973590704E+04  0.25500000000E-02 0.  1.
          2   -1    0    0  501    0  0.00000000000E+00 -0.00000000000E+00 -0.68583389243E+03  0.68583389243E+03  0.25500000000E-02 0. -1.
    8880022    1    1    2    0    0  0.70149227456E+03 -0.32153584114E+03  0.15410899797E+04  0.17302678079E+04  0.15294330000E+03 0.  0.
    8880022    1    1    2    0    0 -0.70149227456E+03  0.32153584114E+03 -0.32956480173E+03  0.85292515496E+03  0.15294330000E+03 0. -1.
<mgrwt>
<rscale>  0 0.78668187E+03</rscale>
<asrwt>0</asrwt>
<pdfrwt beam="1">  1        2 0.10551291E+00 0.78668187E+03</pdfrwt>
<pdfrwt beam="2">  1       -2 0.29190139E+00 0.78668187E+03</pdfrwt>
<totfact> 0.15498244E+00</totfact>
</mgrwt>
</event>
<event>
 4    1  0.2061941E-008  0.2242422E+03  0.7818608E-02  0.1130759E+00
          2   -1    0    0  501    0  0.00000000000E+00  0.00000000000E+00  0.41260360735E+03  0.41260360736E+03  0.25500000000E-02 0. -1.
         -2   -1    0    0    0  501 -0.00000000000E+00 -0.00000000000E+00 -0.40827301683E+03  0.40827301684E+03  0.25500000000E-02 0.  1.
    8880022    1    1    2    0    0 -0.21630604915E+02 -0.16255783533E+03 -0.34159861004E+03  0.40862476221E+03  0.15294330000E+03 0.  1.
    8880022    1    1    2    0    0  0.21630604915E+02  0.16255783533E+03  0.34592920056E+03  0.41225186199E+03  0.15294330000E+03 0.  0.
<mgrwt>
<rscale>  0 0.22424225E+03</rscale>
<asrwt>0</asrwt>
<pdfrwt beam="1">  1        2 0.63477478E-01 0.22424225E+03</pdfrwt>
<pdfrwt beam="2">  1       -2 0.62811233E-01 0.22424225E+03</pdfrwt>
<totfact> 0.18775542E+02</totfact>
</mgrwt>
</event>
<event>
 4    1  0.2061941E-008  0.1819557E+04  0.7818608E-02  0.8695968E-01
         -2   -1    0    0    0  501 -0.00000000000E+00  0.00000000000E+00  0.16506723246E+04  0.16506723246E+04  0.25500000000E-02 0.  1.
          2   -1    0    0  501    0  0.00000000000E+00 -0.00000000000E+00 -0.40131626099E+04  0.40131626099E+04  0.25500000000E-02 0. -1.
    8880022    1    1    2    0    0 -0.53024322978E+03  0.17338506708E+04  0.82165226630E+03  0.19964719209E+04  0.15294330000E+03 0.  0.
    8880022    1    1    2    0    0  0.53024322978E+03 -0.17338506708E+04 -0.31841425516E+04  0.36673630136E+04  0.15294330000E+03 0.  0.
<mgrwt>
<rscale>  0 0.18195570E+04</rscale>
<asrwt>0</asrwt>
<pdfrwt beam="1">  1        2 0.61740963E+00 0.18195570E+04</pdfrwt>
<pdfrwt beam="2">  1       -2 0.25394959E+00 0.18195570E+04</pdfrwt>
<totfact> 0.18469480E-02</totfact>
</mgrwt>
</event>
<event>
 4    1  0.2061941E-008  0.4393014E+03  0.7818608E-02  0.1030961E+00
         -2   -1    0    0    0  501 -0.00000000000E+00  0.00000000000E+00  0.24111387232E+03  0.24111387234E+03  0.25500000000E-02 0.  1.
          2   -1    0    0  501    0  0.00000000000E+00 -0.00000000000E+00 -0.21190083498E+04  0.21190083498E+04  0.25500000000E-02 0. -1.
    8880022    1    1    2    0    0  0.41129520456E+03  0.20744194811E+02 -0.80594773250E+01  0.43937532373E+03  0.15294330000E+03 0.  0.
    8880022    1    1    2    0    0 -0.41129520456E+03 -0.20744194811E+02 -0.18698350001E+04  0.19207468984E+04  0.15294330000E+03 0.  0.
<mgrwt>
<rscale>  0 0.43930140E+03</rscale>
<asrwt>0</asrwt>
<pdfrwt beam="1">  1        2 0.32600127E+00 0.43930140E+03</pdfrwt>
<pdfrwt beam="2">  1       -2 0.37094443E-01 0.43930140E+03</pdfrwt>
<totfact> 0.42735761E+01</totfact>
</mgrwt>
</event>
<event>
 4    1  0.2061941E-008  0.2662080E+03  0.7818608E-02  0.1103470E+00
         -2   -1    0    0    0  501 -0.00000000000E+00  0.00000000000E+00  0.37763855324E+03  0.37763855325E+03  0.25500000000E-02 0.  1.
          2   -1    0    0  501    0  0.00000000000E+00 -0.00000000000E+00 -0.23374205084E+04  0.23374205084E+04  0.25500000000E-02 0. -1.
    8880022    1    1    2    0    0  0.18320149355E+03 -0.11795023452E+03  0.32200461202E+03  0.41779620420E+03  0.15294330000E+03 0.  1.
    8880022    1    1    2    0    0 -0.18320149355E+03  0.11795023452E+03 -0.22817865672E+04  0.22972628574E+04  0.15294330000E+03 0.  0.
<mgrwt>
<rscale>  0 0.26620800E+03</rscale>
<asrwt>0</asrwt>
<pdfrwt beam="1">  1        2 0.35960315E+00 0.26620800E+03</pdfrwt>
<pdfrwt beam="2">  1       -2 0.58098240E-01 0.26620800E+03</pdfrwt>
<totfact> 0.14157662E+01</totfact>
</mgrwt>
</event>
<event>
 4    1  0.2061941E-008  0.5217749E+03  0.7818608E-02  0.1008247E+00
          2   -1    0    0  501    0  0.00000000000E+00  0.00000000000E+00  0.36909589254E+04  0.36909589254E+04  0.25500000000E-02 0. -1.
         -2   -1    0    0    0  501 -0.00000000000E+00 -0.00000000000E+00 -0.34006152648E+03  0.34006152649E+03  0.25500000000E-02 0.  1.
    8880022    1    1    2    0    0  0.34323633830E+03 -0.36200306071E+03 -0.10812975445E+03  0.53286123588E+03  0.15294330000E+03 0.  0.
    8880022    1    1    2    0    0 -0.34323633830E+03  0.36200306071E+03  0.34590271534E+04  0.34981592160E+04  0.15294330000E+03 0.  0.
<mgrwt>
<rscale>  0 0.52177491E+03</rscale>
<asrwt>0</asrwt>
<pdfrwt beam="1">  1        2 0.56783984E+00 0.52177491E+03</pdfrwt>
<pdfrwt beam="2">  1       -2 0.52317158E-01 0.52177491E+03</pdfrwt>
<totfact> 0.23834195E+00</totfact>
</mgrwt>
</event>
<event>
 4    1  0.2061941E-008  0.3915644E+03  0.7818608E-02  0.1046740E+00
          2   -1    0    0  501    0  0.00000000000E+00  0.00000000000E+00  0.10269788779E+04  0.10269788779E+04  0.25500000000E-02 0. -1.
         -2   -1    0    0    0  501 -0.00000000000E+00 -0.00000000000E+00 -0.63665091327E+03  0.63665091327E+03  0.25500000000E-02 0.  1.
    8880022    1    1    2    0    0 -0.30343157590E+03 -0.19457719476E+03 -0.53261447506E+03  0.66106038910E+03  0.15294330000E+03 0.  0.
    8880022    1    1    2    0    0  0.30343157590E+03  0.19457719476E+03  0.92294243964E+03  0.10025694020E+04  0.15294330000E+03 0.  0.
<mgrwt>
<rscale>  0 0.39156437E+03</rscale>
<asrwt>0</asrwt>
<pdfrwt beam="1">  1        2 0.15799675E+00 0.39156437E+03</pdfrwt>
<pdfrwt beam="2">  1       -2 0.97946295E-01 0.39156437E+03</pdfrwt>
<totfact> 0.22471274E+01</totfact>
</mgrwt>
</event>
<event>
 4    1  0.2061941E-008  0.6618897E+03  0.7818608E-02  0.9784721E-01
          2   -1    0    0  501    0  0.00000000000E+00  0.00000000000E+00  0.92981621572E+03  0.92981621572E+03  0.25500000000E-02 0. -1.
         -2   -1    0    0    0  501 -0.00000000000E+00 -0.00000000000E+00 -0.65347237931E+03  0.65347237931E+03  0.25500000000E-02 0.  1.
    8880022    1    1    2    0    0  0.60073800415E+03  0.23199170217E+03 -0.27996372609E+03  0.71866378818E+03  0.15294330000E+03 0.  0.
    8880022    1    1    2    0    0 -0.60073800415E+03 -0.23199170217E+03  0.55630756250E+03  0.86462480685E+03  0.15294330000E+03 0.  0.
<mgrwt>
<rscale>  0 0.66188968E+03</rscale>
<asrwt>0</asrwt>
<pdfrwt beam="1">  1        2 0.14304865E+00 0.66188968E+03</pdfrwt>
<pdfrwt beam="2">  1       -2 0.10053421E+00 0.66188968E+03</pdfrwt>
<totfact> 0.23409988E+01</totfact>
</mgrwt>
</event>
<event>
 4    1  0.2061941E-008  0.5718065E+03  0.7818608E-02  0.9965689E-01
          2   -1    0    0  501    0  0.00000000000E+00  0.00000000000E+00  0.13666979729E+04  0.13666979730E+04  0.25500000000E-02 0. -1.
         -2   -1    0    0    0  501 -0.00000000000E+00 -0.00000000000E+00 -0.25518058868E+04  0.25518058868E+04  0.25500000000E-02 0.  1.
    8880022    1    1    2    0    0  0.54757663761E+03 -0.61080916789E+02 -0.24577047254E+04  0.25233460371E+04  0.15294330000E+03 0.  0.
    8880022    1    1    2    0    0 -0.54757663761E+03  0.61080916789E+02  0.12725968116E+04  0.13951578227E+04  0.15294330000E+03 0.  0.
<mgrwt>
<rscale>  0 0.57180653E+03</rscale>
<asrwt>0</asrwt>
<pdfrwt beam="1">  1        2 0.21026123E+00 0.57180653E+03</pdfrwt>
<pdfrwt beam="2">  1       -2 0.39258552E+00 0.57180653E+03</pdfrwt>
<totfact> 0.14193537E-01</totfact>
</mgrwt>
</event>
<event>
 4    1  0.2061941E-008  0.6097663E+03  0.7818608E-02  0.9885349E-01
         -2   -1    0    0    0  501 -0.00000000000E+00  0.00000000000E+00  0.14239147801E+04  0.14239147801E+04  0.25500000000E-02 0.  1.
          2   -1    0    0  501    0  0.00000000000E+00 -0.00000000000E+00 -0.10989084136E+04  0.10989084136E+04  0.25500000000E-02 0. -1.
    8880022    1    1    2    0    0 -0.22908595864E+02 -0.58982924401E+03 -0.93889109077E+03  0.11195228779E+04  0.15294330000E+03 0. -1.
    8880022    1    1    2    0    0  0.22908595864E+02  0.58982924401E+03  0.12638974572E+04  0.14033003158E+04  0.15294330000E+03 0.  0.
<mgrwt>
<rscale>  0 0.60976634E+03</rscale>
<asrwt>0</asrwt>
<pdfrwt beam="1">  1        2 0.16906283E+00 0.60976634E+03</pdfrwt>
<pdfrwt beam="2">  1       -2 0.21906381E+00 0.60976634E+03</pdfrwt>
<totfact> 0.23073386E+00</totfact>
</mgrwt>
</event>
<event>
 4    1  0.2061941E-008  0.9313988E+03  0.7818608E-02  0.9387161E-01
          2   -1    0    0  501    0  0.00000000000E+00  0.00000000000E+00  0.11021496224E+04  0.11021496224E+04  0.25500000000E-02 0. -1.
         -2   -1    0    0    0  501 -0.00000000000E+00 -0.00000000000E+00 -0.11255234730E+04  0.11255234730E+04  0.25500000000E-02 0.  1.
    8880022    1    1    2    0    0  0.56632891549E+03  0.72345254436E+03  0.59907707279E+03  0.11074281090E+04  0.15294330000E+03 0.  0.
    8880022    1    1    2    0    0 -0.56632891549E+03 -0.72345254436E+03 -0.62245092344E+03  0.11202449864E+04  0.15294330000E+03 0.  1.
<mgrwt>
<rscale>  0 0.93139877E+03</rscale>
<asrwt>0</asrwt>
<pdfrwt beam="1">  1        2 0.16956148E+00 0.93139877E+03</pdfrwt>
<pdfrwt beam="2">  1       -2 0.17315746E+00 0.93139877E+03</pdfrwt>
<totfact> 0.43909981E+00</totfact>
</mgrwt>
</event>
<event>
 4    1  0.2061941E-008  0.1274687E+04  0.7818608E-02  0.9049883E-01
         -2   -1    0    0    0  501 -0.00000000000E+00  0.00000000000E+00  0.12656480054E+04  0.12656480054E+04  0.25500000000E-02 0.  1.
          2   -1    0    0  501    0  0.00000000000E+00 -0.00000000000E+00 -0.13673062402E+04  0.13673062402E+04  0.25500000000E-02 0. -1.
    8880022    1    1    2    0    0  0.16086078943E+03  0.12552132078E+04 -0.37618765460E+03  0.13290392000E+04  0.15294330000E+03 0.  0.
    8880022    1    1    2    0    0 -0.16086078943E+03 -0.12552132078E+04  0.27452941980E+03  0.13039150455E+04  0.15294330000E+03 0.  0.
<mgrwt>
<rscale>  0 0.12746874E+04</rscale>
<asrwt>0</asrwt>
<pdfrwt beam="1">  1        2 0.21035481E+00 0.12746874E+04</pdfrwt>
<pdfrwt beam="2">  1       -2 0.19471508E+00 0.12746874E+04</pdfrwt>
<totfact> 0.20977925E+00</totfact>
</mgrwt>
</event>
<event>
 4    1  0.2061941E-008  0.7386440E+03  0.7818608E-02  0.9653336E-01
          2   -1    0    0  501    0  0.00000000000E+00  0.00000000000E+00  0.14521743485E+04  0.14521743485E+04  0.25500000000E-02 0. -1.
         -2   -1    0    0    0  501 -0.00000000000E+00 -0.00000000000E+00 -0.59200451255E+03  0.59200451256E+03  0.25500000000E-02 0.  1.
    8880022    1    1    2    0    0 -0.33633969995E+03 -0.63959277192E+03  0.10478881150E+04  0.12820547812E+04  0.15294330000E+03 0.  0.
    8880022    1    1    2    0    0  0.33633969995E+03  0.63959277192E+03 -0.18771827906E+03  0.76212407976E+03  0.15294330000E+03 0.  0.
<mgrwt>
<rscale>  0 0.73864400E+03</rscale>
<asrwt>0</asrwt>
<pdfrwt beam="1">  1        2 0.22341144E+00 0.73864400E+03</pdfrwt>
<pdfrwt beam="2">  1       -2 0.91077618E-01 0.73864400E+03</pdfrwt>
<totfact> 0.14238263E+01</totfact>
</mgrwt>
</event>
<event>
 4    1  0.2061941E-008  0.1251652E+04  0.7818608E-02  0.9068809E-01
          2   -1    0    0  501    0  0.00000000000E+00  0.00000000000E+00  0.37126043481E+04  0.37126043481E+04  0.25500000000E-02 0. -1.
         -2   -1    0    0    0  501 -0.00000000000E+00 -0.00000000000E+00 -0.44837180558E+03  0.44837180559E+03  0.25500000000E-02 0.  1.
    8880022    1    1    2    0    0  0.28125160665E+03  0.12100160668E+04  0.21369016229E+04  0.24764857252E+04  0.15294330000E+03 0.  0.
    8880022    1    1    2    0    0 -0.28125160665E+03 -0.12100160668E+04  0.11273309196E+04  0.16844904284E+04  0.15294330000E+03 0.  0.
<mgrwt>
<rscale>  0 0.12516521E+04</rscale>
<asrwt>0</asrwt>
<pdfrwt beam="1">  1        2 0.57116990E+00 0.12516521E+04</pdfrwt>
<pdfrwt beam="2">  1       -2 0.68980278E-01 0.12516521E+04</pdfrwt>
<totfact> 0.10997231E+00</totfact>
</mgrwt>
</event>
<event>
 4    1  0.2061941E-008  0.7176094E+03  0.7818608E-02  0.9687583E-01
          2   -1    0    0  501    0  0.00000000000E+00  0.00000000000E+00  0.14755451445E+04  0.14755451445E+04  0.25500000000E-02 0. -1.
         -2   -1    0    0    0  501 -0.00000000000E+00 -0.00000000000E+00 -0.45518844178E+03  0.45518844179E+03  0.25500000000E-02 0.  1.
    8880022    1    1    2    0    0 -0.38781112009E+03 -0.58410108234E+03  0.97644915920E+03  0.12117822217E+04  0.15294330000E+03 0.  0.
    8880022    1    1    2    0    0  0.38781112009E+03  0.58410108234E+03  0.43907543484E+02  0.71895136459E+03  0.15294330000E+03 0.  0.
<mgrwt>
<rscale>  0 0.71760936E+03</rscale>
<asrwt>0</asrwt>
<pdfrwt beam="1">  1        2 0.22700695E+00 0.71760936E+03</pdfrwt>
<pdfrwt beam="2">  1       -2 0.70028990E-01 0.71760936E+03</pdfrwt>
<totfact> 0.25000536E+01</totfact>
</mgrwt>
</event>
<event>
 4    1  0.2061941E-008  0.7364642E+03  0.7818608E-02  0.9656829E-01
          2   -1    0    0  501    0  0.00000000000E+00  0.00000000000E+00  0.10199954098E+04  0.10199954098E+04  0.25500000000E-02 0. -1.
         -2   -1    0    0    0  501 -0.00000000000E+00 -0.00000000000E+00 -0.65145232528E+03  0.65145232529E+03  0.25500000000E-02 0.  1.
    8880022    1    1    2    0    0  0.71803084370E+03  0.58476750499E+02  0.54251499602E+03  0.91471416124E+03  0.15294330000E+03 0.  0.
    8880022    1    1    2    0    0 -0.71803084370E+03 -0.58476750499E+02 -0.17397191146E+03  0.75673357389E+03  0.15294330000E+03 0.  0.
<mgrwt>
<rscale>  0 0.73646417E+03</rscale>
<asrwt>0</asrwt>
<pdfrwt beam="1">  1        2 0.15692237E+00 0.73646417E+03</pdfrwt>
<pdfrwt beam="2">  1       -2 0.10022343E+00 0.73646417E+03</pdfrwt>
<totfact> 0.20459660E+01</totfact>
</mgrwt>
</event>
<event>
 4    1  0.2061941E-008  0.1387769E+04  0.7818608E-02  0.8962720E-01
         -2   -1    0    0    0  501 -0.00000000000E+00  0.00000000000E+00  0.37249102703E+04  0.37249102703E+04  0.25500000000E-02 0.  1.
          2   -1    0    0  501    0  0.00000000000E+00 -0.00000000000E+00 -0.91633217898E+03  0.91633217899E+03  0.25500000000E-02 0. -1.
    8880022    1    1    2    0    0 -0.12125142153E+04 -0.65751154705E+03  0.29361758213E+04  0.32476194764E+04  0.15294330000E+03 0.  0.
    8880022    1    1    2    0    0  0.12125142153E+04  0.65751154705E+03 -0.12759772997E+03  0.13936229729E+04  0.15294330000E+03 0.  0.
<mgrwt>
<rscale>  0 0.13877694E+04</rscale>
<asrwt>0</asrwt>
<pdfrwt beam="1">  1        2 0.14097418E+00 0.13877694E+04</pdfrwt>
<pdfrwt beam="2">  1       -2 0.57306312E+00 0.13877694E+04</pdfrwt>
<totfact> 0.17637007E-02</totfact>
</mgrwt>
</event>
<event>
 4    1  0.2061941E-008  0.6911928E+03  0.7818608E-02  0.9732413E-01
         -2   -1    0    0    0  501 -0.00000000000E+00  0.00000000000E+00  0.62435136732E+03  0.62435136733E+03  0.25500000000E-02 0.  1.
          2   -1    0    0  501    0  0.00000000000E+00 -0.00000000000E+00 -0.15267654250E+04  0.15267654250E+04  0.25500000000E-02 0. -1.
    8880022    1    1    2    0    0 -0.42058130123E+03 -0.52675155910E+03 -0.12108408056E+04  0.13942320271E+04  0.15294330000E+03 0.  0.
    8880022    1    1    2    0    0  0.42058130123E+03  0.52675155910E+03  0.30842674791E+03  0.75688476521E+03  0.15294330000E+03 0.  0.
<mgrwt>
<rscale>  0 0.69119280E+03</rscale>
<asrwt>0</asrwt>
<pdfrwt beam="1">  1        2 0.23488699E+00 0.69119280E+03</pdfrwt>
<pdfrwt beam="2">  1       -2 0.96054057E-01 0.69119280E+03</pdfrwt>
<totfact> 0.11507861E+01</totfact>
</mgrwt>
</event>
<event>
 4    1  0.2061941E-008  0.9274789E+03  0.7818608E-02  0.9391869E-01
         -2   -1    0    0    0  501 -0.00000000000E+00  0.00000000000E+00  0.97127830316E+03  0.97127830316E+03  0.25500000000E-02 0.  1.
          2   -1    0    0  501    0  0.00000000000E+00 -0.00000000000E+00 -0.18993750135E+04  0.18993750135E+04  0.25500000000E-02 0. -1.
    8880022    1    1    2    0    0  0.23325517625E+03 -0.88454363456E+03  0.58453870101E+03  0.10963131691E+04  0.15294330000E+03 0.  0.
    8880022    1    1    2    0    0 -0.23325517625E+03  0.88454363456E+03 -0.15126354114E+04  0.17743401476E+04  0.15294330000E+03 0.  0.
<mgrwt>
<rscale>  0 0.92747888E+03</rscale>
<asrwt>0</asrwt>
<pdfrwt beam="1">  1        2 0.29221154E+00 0.92747888E+03</pdfrwt>
<pdfrwt beam="2">  1       -2 0.14942743E+00 0.92747888E+03</pdfrwt>
<totfact> 0.23150623E+00</totfact>
</mgrwt>
</event>
<event>
 4    1  0.2061941E-008  0.7333518E+03  0.7818608E-02  0.9661837E-01
          2   -1    0    0  501    0  0.00000000000E+00  0.00000000000E+00  0.22284846738E+04  0.22284846738E+04  0.25500000000E-02 0. -1.
         -2   -1    0    0    0  501 -0.00000000000E+00 -0.00000000000E+00 -0.61156702659E+03  0.61156702660E+03  0.25500000000E-02 0.  1.
    8880022    1    1    2    0    0 -0.41218065137E+03  0.58695851240E+03  0.19133332597E+04  0.20490605165E+04  0.15294330000E+03 0.  0.
    8880022    1    1    2    0    0  0.41218065137E+03 -0.58695851240E+03 -0.29641561250E+03  0.79099118388E+03  0.15294330000E+03 0.  0.
<mgrwt>
<rscale>  0 0.73335178E+03</rscale>
<asrwt>0</asrwt>
<pdfrwt beam="1">  1        2 0.34284380E+00 0.73335178E+03</pdfrwt>
<pdfrwt beam="2">  1       -2 0.94087234E-01 0.73335178E+03</pdfrwt>
<totfact> 0.49574560E+00</totfact>
</mgrwt>
</event>
<event>
 4    1  0.2061941E-008  0.1048030E+04  0.7818608E-02  0.9257380E-01
          2   -1    0    0  501    0  0.00000000000E+00  0.00000000000E+00  0.15938798473E+04  0.15938798473E+04  0.25500000000E-02 0. -1.
         -2   -1    0    0    0  501 -0.00000000000E+00 -0.00000000000E+00 -0.76250801532E+03  0.76250801533E+03  0.25500000000E-02 0.  1.
    8880022    1    1    2    0    0  0.58917343812E+03 -0.85314146379E+03  0.50158141749E+02  0.10492298078E+04  0.15294330000E+03 0.  0.
    8880022    1    1    2    0    0 -0.58917343812E+03  0.85314146379E+03  0.78121369021E+03  0.13071580548E+04  0.15294330000E+03 0.  0.
<mgrwt>
<rscale>  0 0.10480302E+04</rscale>
<asrwt>0</asrwt>
<pdfrwt beam="1">  1        2 0.24521228E+00 0.10480302E+04</pdfrwt>
<pdfrwt beam="2">  1       -2 0.11730893E+00 0.10480302E+04</pdfrwt>
<totfact> 0.62482590E+00</totfact>
</mgrwt>
</event>
<event>
 4    1  0.2061941E-008  0.7987213E+03  0.7818608E-02  0.9561870E-01
         -2   -1    0    0    0  501 -0.00000000000E+00  0.00000000000E+00  0.10413220889E+04  0.10413220889E+04  0.25500000000E-02 0.  1.
          2   -1    0    0  501    0  0.00000000000E+00 -0.00000000000E+00 -0.14009059311E+04  0.14009059311E+04  0.25500000000E-02 0. -1.
    8880022    1    1    2    0    0  0.61393456292E+03  0.48749192328E+03 -0.10957763182E+04  0.13559798727E+04  0.15294330000E+03 0.  0.
    8880022    1    1    2    0    0 -0.61393456292E+03 -0.48749192328E+03  0.73619247591E+03  0.10862481473E+04  0.15294330000E+03 0.  0.
<mgrwt>
<rscale>  0 0.79872128E+03</rscale>
<asrwt>0</asrwt>
<pdfrwt beam="1">  1        2 0.21552399E+00 0.79872128E+03</pdfrwt>
<pdfrwt beam="2">  1       -2 0.16020340E+00 0.79872128E+03</pdfrwt>
<totfact> 0.36937160E+00</totfact>
</mgrwt>
</event>
<event>
 4    1  0.2061941E-008  0.1140955E+04  0.7818608E-02  0.9166169E-01
          2   -1    0    0  501    0  0.00000000000E+00  0.00000000000E+00  0.25469110254E+04  0.25469110254E+04  0.25500000000E-02 0. -1.
         -2   -1    0    0    0  501 -0.00000000000E+00 -0.00000000000E+00 -0.91477153808E+03  0.91477153808E+03  0.25500000000E-02 0.  1.
    8880022    1    1    2    0    0 -0.11246193644E+04 -0.11669305224E+03  0.19658216253E+04  0.22729347326E+04  0.15294330000E+03 0.  0.
    8880022    1    1    2    0    0  0.11246193644E+04  0.11669305224E+03 -0.33368213801E+03  0.11887478309E+04  0.15294330000E+03 0.  0.
<mgrwt>
<rscale>  0 0.11409547E+04</rscale>
<asrwt>0</asrwt>
<pdfrwt beam="1">  1        2 0.39183247E+00 0.11409547E+04</pdfrwt>
<pdfrwt beam="2">  1       -2 0.14073408E+00 0.11409547E+04</pdfrwt>
<totfact> 0.11428781E+00</totfact>
</mgrwt>
</event>
<event>
 4    1  0.2061941E-008  0.7803697E+03  0.7818608E-02  0.9588874E-01
         -2   -1    0    0    0  501 -0.00000000000E+00  0.00000000000E+00  0.88914580953E+03  0.88914580953E+03  0.25500000000E-02 0.  1.
          2   -1    0    0  501    0  0.00000000000E+00 -0.00000000000E+00 -0.78139787038E+03  0.78139787039E+03  0.25500000000E-02 0. -1.
    8880022    1    1    2    0    0 -0.47373942623E+03 -0.60096270336E+03  0.34740113989E+03  0.85420396850E+03  0.15294330000E+03 0.  0.
    8880022    1    1    2    0    0  0.47373942623E+03  0.60096270336E+03 -0.23965320074E+03  0.81633971141E+03  0.15294330000E+03 0.  0.
<mgrwt>
<rscale>  0 0.78036970E+03</rscale>
<asrwt>0</asrwt>
<pdfrwt beam="1">  1        2 0.12021506E+00 0.78036970E+03</pdfrwt>
<pdfrwt beam="2">  1       -2 0.13679166E+00 0.78036970E+03</pdfrwt>
<totfact> 0.13717342E+01</totfact>
</mgrwt>
</event>
<event>
 4    1  0.2061941E-008  0.6062281E+03  0.7818608E-02  0.9892568E-01
         -2   -1    0    0    0  501 -0.00000000000E+00  0.00000000000E+00  0.84847905240E+03  0.84847905241E+03  0.25500000000E-02 0.  1.
          2   -1    0    0  501    0  0.00000000000E+00 -0.00000000000E+00 -0.82160670490E+03  0.82160670491E+03  0.25500000000E-02 0. -1.
    8880022    1    1    2    0    0  0.31163809738E+03  0.49699347839E+03 -0.56074930230E+03  0.82580400480E+03  0.15294330000E+03 0. -1.
    8880022    1    1    2    0    0 -0.31163809738E+03 -0.49699347839E+03  0.58762164980E+03  0.84428175251E+03  0.15294330000E+03 0.  0.
<mgrwt>
<rscale>  0 0.60622807E+03</rscale>
<asrwt>0</asrwt>
<pdfrwt beam="1">  1        2 0.12640103E+00 0.60622807E+03</pdfrwt>
<pdfrwt beam="2">  1       -2 0.13053524E+00 0.60622807E+03</pdfrwt>
<totfact> 0.14749506E+01</totfact>
</mgrwt>
</event>
<event>
 4    1  0.2061941E-008  0.9540697E+03  0.7818608E-02  0.9360406E-01
          2   -1    0    0  501    0  0.00000000000E+00  0.00000000000E+00  0.25512540457E+04  0.25512540457E+04  0.25500000000E-02 0. -1.
         -2   -1    0    0    0  501 -0.00000000000E+00 -0.00000000000E+00 -0.51488999805E+03  0.51488999806E+03  0.25500000000E-02 0.  1.
    8880022    1    1    2    0    0 -0.10184557067E+03  0.93620772115E+03  0.16865306857E+03  0.96886166606E+03  0.15294330000E+03 0.  0.
    8880022    1    1    2    0    0  0.10184557067E+03 -0.93620772115E+03  0.18677109790E+04  0.20972823777E+04  0.15294330000E+03 0.  0.
<mgrwt>
<rscale>  0 0.95406974E+03</rscale>
<asrwt>0</asrwt>
<pdfrwt beam="1">  1        2 0.39250062E+00 0.95406974E+03</pdfrwt>
<pdfrwt beam="2">  1       -2 0.79213847E-01 0.95406974E+03</pdfrwt>
<totfact> 0.46749941E+00</totfact>
</mgrwt>
</event>
<event>
 4    1  0.2061941E-008  0.1051999E+04  0.7818608E-02  0.9253283E-01
          2   -1    0    0  501    0  0.00000000000E+00  0.00000000000E+00  0.27035895308E+04  0.27035895308E+04  0.25500000000E-02 0. -1.
         -2   -1    0    0    0  501 -0.00000000000E+00 -0.00000000000E+00 -0.74770462094E+03  0.74770462095E+03  0.25500000000E-02 0.  1.
    8880022    1    1    2    0    0  0.78643144266E+03 -0.68178830780E+03  0.21387924183E+04  0.23835130317E+04  0.15294330000E+03 0.  0.
    8880022    1    1    2    0    0 -0.78643144266E+03  0.68178830780E+03 -0.18290750845E+03  0.10677811200E+04  0.15294330000E+03 0.  0.
<mgrwt>
<rscale>  0 0.10519987E+04</rscale>
<asrwt>0</asrwt>
<pdfrwt beam="1">  1        2 0.41593685E+00 0.10519987E+04</pdfrwt>
<pdfrwt beam="2">  1       -2 0.11503148E+00 0.10519987E+04</pdfrwt>
<totfact> 0.15628771E+00</totfact>
</mgrwt>
</event>
<event>
 4    1  0.2061941E-008  0.1231134E+04  0.7818608E-02  0.9086033E-01
         -2   -1    0    0    0  501 -0.00000000000E+00  0.00000000000E+00  0.72528217969E+03  0.72528217969E+03  0.25500000000E-02 0.  1.
          2   -1    0    0  501    0  0.00000000000E+00 -0.00000000000E+00 -0.29492160550E+04  0.29492160551E+04  0.25500000000E-02 0. -1.
    8880022    1    1    2    0    0  0.11857182094E+04  0.29388986807E+03 -0.12018106199E+03  0.12369858800E+04  0.15294330000E+03 0.  0.
    8880022    1    1    2    0    0 -0.11857182094E+04 -0.29388986807E+03 -0.21037528134E+04  0.24375123547E+04  0.15294330000E+03 0.  0.
<mgrwt>
<rscale>  0 0.12311339E+04</rscale>
<asrwt>0</asrwt>
<pdfrwt beam="1">  1        2 0.45372554E+00 0.12311339E+04</pdfrwt>
<pdfrwt beam="2">  1       -2 0.11158188E+00 0.12311339E+04</pdfrwt>
<totfact> 0.11697829E+00</totfact>
</mgrwt>
</event>
<event>
 4    1  0.2061941E-008  0.1752540E+04  0.7818608E-02  0.8731954E-01
          2   -1    0    0  501    0  0.00000000000E+00  0.00000000000E+00  0.41117876845E+04  0.41117876845E+04  0.25500000000E-02 0. -1.
         -2   -1    0    0    0  501 -0.00000000000E+00 -0.00000000000E+00 -0.82537204394E+03  0.82537204394E+03  0.25500000000E-02 0.  1.
    8880022    1    1    2    0    0  0.17448461411E+04 -0.59291248809E+02  0.24040194859E+04  0.29750134202E+04  0.15294330000E+03 0.  0.
    8880022    1    1    2    0    0 -0.17448461411E+04  0.59291248809E+02  0.88239615468E+03  0.19621463083E+04  0.15294330000E+03 0.  0.
<mgrwt>
<rscale>  0 0.17525396E+04</rscale>
<asrwt>0</asrwt>
<pdfrwt beam="1">  1        2 0.63258270E+00 0.17525396E+04</pdfrwt>
<pdfrwt beam="2">  1       -2 0.12698032E+00 0.17525396E+04</pdfrwt>
<totfact> 0.11936594E-01</totfact>
</mgrwt>
</event>
<event>
 4    1  0.2061941E-008  0.7924459E+03  0.7818608E-02  0.9571016E-01
         -2   -1    0    0    0  501 -0.00000000000E+00  0.00000000000E+00  0.96169971395E+03  0.96169971395E+03  0.25500000000E-02 0.  1.
          2   -1    0    0  501    0  0.00000000000E+00 -0.00000000000E+00 -0.19536472191E+04  0.19536472191E+04  0.25500000000E-02 0. -1.
    8880022    1    1    2    0    0  0.10127523660E+03  0.77092298196E+03 -0.16853528261E+04  0.18623599864E+04  0.15294330000E+03 0.  0.
    8880022    1    1    2    0    0 -0.10127523660E+03 -0.77092298196E+03  0.69340532093E+03  0.10529869466E+04  0.15294330000E+03 0.  0.
<mgrwt>
<rscale>  0 0.79244594E+03</rscale>
<asrwt>0</asrwt>
<pdfrwt beam="1">  1        2 0.30056111E+00 0.79244594E+03</pdfrwt>
<pdfrwt beam="2">  1       -2 0.14795380E+00 0.79244594E+03</pdfrwt>
<totfact> 0.22667354E+00</totfact>
</mgrwt>
</event>
<event>
 4    1  0.2061941E-008  0.7612600E+03  0.7818608E-02  0.9617849E-01
          2   -1    0    0  501    0  0.00000000000E+00  0.00000000000E+00  0.58415199801E+03  0.58415199802E+03  0.25500000000E-02 0. -1.
         -2   -1    0    0    0  501 -0.00000000000E+00 -0.00000000000E+00 -0.13411976548E+04  0.13411976548E+04  0.25500000000E-02 0.  1.
    8880022    1    1    2    0    0 -0.54339166976E+03  0.51073539159E+03  0.11264329697E+03  0.76954877192E+03  0.15294330000E+03 0.  0.
    8880022    1    1    2    0    0  0.54339166976E+03 -0.51073539159E+03 -0.86968895373E+03  0.11558008809E+04  0.15294330000E+03 0.  0.
<mgrwt>
<rscale>  0 0.76126001E+03</rscale>
<asrwt>0</asrwt>
<pdfrwt beam="1">  1        2 0.89869539E-01 0.76126001E+03</pdfrwt>
<pdfrwt beam="2">  1       -2 0.20633810E+00 0.76126001E+03</pdfrwt>
<totfact> 0.63160770E+00</totfact>
</mgrwt>
</event>
<event>
 4    1  0.2061941E-008  0.5015258E+03  0.7818608E-02  0.1013381E+00
         -2   -1    0    0    0  501 -0.00000000000E+00  0.00000000000E+00  0.22869356366E+03  0.22869356367E+03  0.25500000000E-02 0.  1.
          2   -1    0    0  501    0  0.00000000000E+00 -0.00000000000E+00 -0.27453475580E+04  0.27453475580E+04  0.25500000000E-02 0. -1.
    8880022    1    1    2    0    0  0.47470286324E+03  0.52855546024E+02 -0.10708351322E+03  0.51283042903E+03  0.15294330000E+03 0.  0.
    8880022    1    1    2    0    0 -0.47470286324E+03 -0.52855546024E+02 -0.24095704811E+04  0.24612106926E+04  0.15294330000E+03 0.  0.
<mgrwt>
<rscale>  0 0.50152584E+03</rscale>
<asrwt>0</asrwt>
<pdfrwt beam="1">  1        2 0.42236114E+00 0.50152584E+03</pdfrwt>
<pdfrwt beam="2">  1       -2 0.35183627E-01 0.50152584E+03</pdfrwt>
<totfact> 0.20892997E+01</totfact>
</mgrwt>
</event>
<event>
 4    1  0.2061941E-008  0.8171577E+03  0.7818608E-02  0.9535509E-01
         -2   -1    0    0    0  501 -0.00000000000E+00  0.00000000000E+00  0.87564952162E+03  0.87564952162E+03  0.25500000000E-02 0.  1.
          2   -1    0    0  501    0  0.00000000000E+00 -0.00000000000E+00 -0.16038667786E+04  0.16038667786E+04  0.25500000000E-02 0. -1.
    8880022    1    1    2    0    0 -0.41552659563E+03 -0.68679891342E+03 -0.12620058844E+04  0.15034645338E+04  0.15294330000E+03 0.  0.
    8880022    1    1    2    0    0  0.41552659563E+03  0.68679891342E+03  0.53378862734E+03  0.97605176648E+03  0.15294330000E+03 0.  0.
<mgrwt>
<rscale>  0 0.81715773E+03</rscale>
<asrwt>0</asrwt>
<pdfrwt beam="1">  1        2 0.24674873E+00 0.81715773E+03</pdfrwt>
<pdfrwt beam="2">  1       -2 0.13471531E+00 0.81715773E+03</pdfrwt>
<totfact> 0.44786323E+00</totfact>
</mgrwt>
</event>
<event>
 4    1  0.2061941E-008  0.7225313E+03  0.7818608E-02  0.9679458E-01
         -2   -1    0    0    0  501 -0.00000000000E+00  0.00000000000E+00  0.17979964069E+04  0.17979964069E+04  0.25500000000E-02 0.  1.
          2   -1    0    0  501    0  0.00000000000E+00 -0.00000000000E+00 -0.69705277855E+03  0.69705277855E+03  0.25500000000E-02 0. -1.
    8880022    1    1    2    0    0 -0.48918346634E+03  0.50927332789E+03 -0.40244262794E+03  0.82704988243E+03  0.15294330000E+03 0.  0.
    8880022    1    1    2    0    0  0.48918346634E+03 -0.50927332789E+03  0.15033862563E+04  0.16679993030E+04  0.15294330000E+03 0.  0.
<mgrwt>
<rscale>  0 0.72253127E+03</rscale>
<asrwt>0</asrwt>
<pdfrwt beam="1">  1        2 0.10723889E+00 0.72253127E+03</pdfrwt>
<pdfrwt beam="2">  1       -2 0.27661483E+00 0.72253127E+03</pdfrwt>
<totfact> 0.18953182E+00</totfact>
</mgrwt>
</event>
<event>
 4    1  0.2061941E-008  0.1903979E+04  0.7818608E-02  0.8652878E-01
         -2   -1    0    0    0  501 -0.00000000000E+00  0.00000000000E+00  0.13908361485E+04  0.13908361485E+04  0.25500000000E-02 0.  1.
          2   -1    0    0  501    0  0.00000000000E+00 -0.00000000000E+00 -0.29507700774E+04  0.29507700774E+04  0.25500000000E-02 0. -1.
    8880022    1    1    2    0    0  0.10773393007E+04  0.15623974300E+04 -0.38422260847E+02  0.19043669871E+04  0.15294330000E+03 0.  0.
    8880022    1    1    2    0    0 -0.10773393007E+04 -0.15623974300E+04 -0.15215116681E+04  0.24372392389E+04  0.15294330000E+03 0.  0.
<mgrwt>
<rscale>  0 0.19039793E+04</rscale>
<asrwt>0</asrwt>
<pdfrwt beam="1">  1        2 0.45396463E+00 0.19039793E+04</pdfrwt>
<pdfrwt beam="2">  1       -2 0.21397479E+00 0.19039793E+04</pdfrwt>
<totfact> 0.18165121E-01</totfact>
</mgrwt>
</event>
<event>
 4    1  0.2061941E-008  0.7746929E+03  0.7818608E-02  0.9597388E-01
         -2   -1    0    0    0  501 -0.00000000000E+00  0.00000000000E+00  0.15961939745E+04  0.15961939745E+04  0.25500000000E-02 0.  1.
          2   -1    0    0  501    0  0.00000000000E+00 -0.00000000000E+00 -0.14607828631E+04  0.14607828632E+04  0.25500000000E-02 0. -1.
    8880022    1    1    2    0    0 -0.14179371279E+03  0.74609111797E+03  0.13848797674E+04  0.15868336512E+04  0.15294330000E+03 0.  0.
    8880022    1    1    2    0    0  0.14179371279E+03 -0.74609111797E+03 -0.12494686560E+04  0.14701431865E+04  0.15294330000E+03 0.  0.
<mgrwt>
<rscale>  0 0.77469289E+03</rscale>
<asrwt>0</asrwt>
<pdfrwt beam="1">  1        2 0.22473583E+00 0.77469289E+03</pdfrwt>
<pdfrwt beam="2">  1       -2 0.24556830E+00 0.77469289E+03</pdfrwt>
<totfact> 0.94679256E-01</totfact>
</mgrwt>
</event>
<event>
 4    1  0.2061941E-008  0.5260400E+03  0.7818608E-02  0.1007197E+00
          2   -1    0    0  501    0  0.00000000000E+00  0.00000000000E+00  0.32760155223E+03  0.32760155224E+03  0.25500000000E-02 0. -1.
         -2   -1    0    0    0  501 -0.00000000000E+00 -0.00000000000E+00 -0.11347627393E+04  0.11347627393E+04  0.25500000000E-02 0.  1.
    8880022    1    1    2    0    0 -0.12415541197E+03 -0.48776214948E+03 -0.77326810320E+03  0.93523349663E+03  0.15294330000E+03 0.  0.
    8880022    1    1    2    0    0  0.12415541197E+03  0.48776214948E+03 -0.33893083865E+02  0.52713079491E+03  0.15294330000E+03 0.  0.
<mgrwt>
<rscale>  0 0.52604005E+03</rscale>
<asrwt>0</asrwt>
<pdfrwt beam="1">  1        2 0.50400239E-01 0.52604005E+03</pdfrwt>
<pdfrwt beam="2">  1       -2 0.17457888E+00 0.52604005E+03</pdfrwt>
<totfact> 0.20408283E+01</totfact>
</mgrwt>
</event>
<event>
 4    1  0.2061941E-008  0.8159009E+03  0.7818608E-02  0.9537282E-01
         -2   -1    0    0    0  501 -0.00000000000E+00  0.00000000000E+00  0.63754013904E+03  0.63754013904E+03  0.25500000000E-02 0.  1.
          2   -1    0    0  501    0  0.00000000000E+00 -0.00000000000E+00 -0.21301652279E+04  0.21301652279E+04  0.25500000000E-02 0. -1.
    8880022    1    1    2    0    0  0.78904765132E+03  0.14037963631E+03 -0.17344083450E+04  0.19167333144E+04  0.15294330000E+03 0.  0.
    8880022    1    1    2    0    0 -0.78904765132E+03 -0.14037963631E+03  0.24178325608E+03  0.85097205259E+03  0.15294330000E+03 0.  0.
<mgrwt>
<rscale>  0 0.81590091E+03</rscale>
<asrwt>0</asrwt>
<pdfrwt beam="1">  1        2 0.32771772E+00 0.81590091E+03</pdfrwt>
<pdfrwt beam="2">  1       -2 0.98083099E-01 0.81590091E+03</pdfrwt>
<totfact> 0.50256623E+00</totfact>
</mgrwt>
</event>
<event>
 4    1  0.3887208E-008  0.1043481E+04  0.7818608E-02  0.9262100E-01
          2   -1    0    0  501    0  0.00000000000E+00  0.00000000000E+00  0.29230095722E+04  0.29230095723E+04  0.25500000000E-02 0. -1.
         -2   -1    0    0    0  501 -0.00000000000E+00 -0.00000000000E+00 -0.12591326922E+04  0.12591326922E+04  0.25500000000E-02 0.  1.
    8880022    1    1    2    0    0 -0.10178721111E+04 -0.17145895002E+03 -0.92275887932E+03  0.13929599450E+04  0.15294330000E+03 0.  0.
    8880022    1    1    2    0    0  0.10178721111E+04  0.17145895002E+03  0.25866357594E+04  0.27891823194E+04  0.15294330000E+03 0.  0.
<mgrwt>
<rscale>  0 0.10434814E+04</rscale>
<asrwt>0</asrwt>
<pdfrwt beam="1">  1        2 0.44969377E+00 0.10434814E+04</pdfrwt>
<pdfrwt beam="2">  1       -2 0.19371273E+00 0.10434814E+04</pdfrwt>
<totfact> 0.28670690E-01</totfact>
</mgrwt>
</event>
<event>
 4    1  0.2061941E-008  0.1934338E+04  0.7818608E-02  0.8637950E-01
         -2   -1    0    0    0  501 -0.00000000000E+00  0.00000000000E+00  0.11057462501E+04  0.11057462501E+04  0.25500000000E-02 0.  1.
          2   -1    0    0  501    0  0.00000000000E+00 -0.00000000000E+00 -0.37034108036E+04  0.37034108036E+04  0.25500000000E-02 0. -1.
    8880022    1    1    2    0    0  0.67353660386E+03  0.18068264004E+04 -0.59247610732E+03  0.20230404812E+04  0.15294330000E+03 0.  0.
    8880022    1    1    2    0    0 -0.67353660386E+03 -0.18068264004E+04 -0.20051884462E+04  0.27861165725E+04  0.15294330000E+03 0.  0.
<mgrwt>
<rscale>  0 0.19343383E+04</rscale>
<asrwt>0</asrwt>
<pdfrwt beam="1">  1        2 0.56975550E+00 0.19343383E+04</pdfrwt>
<pdfrwt beam="2">  1       -2 0.17011481E+00 0.19343383E+04</pdfrwt>
<totfact> 0.11180912E-01</totfact>
</mgrwt>
</event>
<event>
 4    1  0.2061941E-008  0.4674871E+03  0.7818608E-02  0.1022632E+00
          2   -1    0    0  501    0  0.00000000000E+00  0.00000000000E+00  0.86499561932E+03  0.86499561933E+03  0.25500000000E-02 0. -1.
         -2   -1    0    0    0  501 -0.00000000000E+00 -0.00000000000E+00 -0.26340187805E+03  0.26340187806E+03  0.25500000000E-02 0.  1.
    8880022    1    1    2    0    0 -0.21800766636E+03 -0.38422029884E+03  0.18682631070E+03  0.50343649452E+03  0.15294330000E+03 0.  0.
    8880022    1    1    2    0    0  0.21800766636E+03  0.38422029884E+03  0.41476743057E+03  0.62496100287E+03  0.15294330000E+03 0.  0.
<mgrwt>
<rscale>  0 0.46748715E+03</rscale>
<asrwt>0</asrwt>
<pdfrwt beam="1">  1        2 0.13307625E+00 0.46748715E+03</pdfrwt>
<pdfrwt beam="2">  1       -2 0.40523367E-01 0.46748715E+03</pdfrwt>
<totfact> 0.18404401E+02</totfact>
</mgrwt>
</event>
<event>
 4    1  0.2061941E-008  0.6562685E+03  0.7818608E-02  0.9795087E-01
         -2   -1    0    0    0  501 -0.00000000000E+00  0.00000000000E+00  0.45057095709E+03  0.45057095709E+03  0.25500000000E-02 0.  1.
          2   -1    0    0  501    0  0.00000000000E+00 -0.00000000000E+00 -0.20642839849E+04  0.20642839849E+04  0.25500000000E-02 0. -1.
    8880022    1    1    2    0    0 -0.63288775128E+03 -0.82157218746E+02  0.11454461435E+03  0.66618978978E+03  0.15294330000E+03 0.  0.
    8880022    1    1    2    0    0  0.63288775128E+03  0.82157218746E+02 -0.17282576421E+04  0.18486651522E+04  0.15294330000E+03 0.  0.
<mgrwt>
<rscale>  0 0.65626852E+03</rscale>
<asrwt>0</asrwt>
<pdfrwt beam="1">  1        2 0.31758215E+00 0.65626852E+03</pdfrwt>
<pdfrwt beam="2">  1       -2 0.69318610E-01 0.65626852E+03</pdfrwt>
<totfact> 0.12295929E+01</totfact>
</mgrwt>
</event>
<event>
 4    1  0.2061941E-008  0.1521455E+04  0.7818608E-02  0.8870310E-01
         -2   -1    0    0    0  501 -0.00000000000E+00  0.00000000000E+00  0.11952986917E+04  0.11952986917E+04  0.25500000000E-02 0.  1.
          2   -1    0    0  501    0  0.00000000000E+00 -0.00000000000E+00 -0.20089765151E+04  0.20089765151E+04  0.25500000000E-02 0. -1.
    8880022    1    1    2    0    0 -0.14420942830E+04  0.46021491366E+03 -0.71091787840E+03  0.16793539146E+04  0.15294330000E+03 0.  0.
    8880022    1    1    2    0    0  0.14420942830E+04 -0.46021491366E+03 -0.10275994503E+03  0.15249212921E+04  0.15294330000E+03 0.  0.
<mgrwt>
<rscale>  0 0.15214550E+04</rscale>
<asrwt>0</asrwt>
<pdfrwt beam="1">  1        2 0.30907331E+00 0.15214550E+04</pdfrwt>
<pdfrwt beam="2">  1       -2 0.18389211E+00 0.15214550E+04</pdfrwt>
<totfact> 0.10570671E+00</totfact>
</mgrwt>
</event>
<event>
 4    1  0.2061941E-008  0.1527900E+04  0.7818608E-02  0.8866109E-01
         -2   -1    0    0    0  501 -0.00000000000E+00  0.00000000000E+00  0.80260750948E+03  0.80260750948E+03  0.25500000000E-02 0.  1.
          2   -1    0    0  501    0  0.00000000000E+00 -0.00000000000E+00 -0.32836664261E+04  0.32836664261E+04  0.25500000000E-02 0. -1.
    8880022    1    1    2    0    0 -0.14515121145E+04  0.45188473949E+03 -0.19310259334E+04  0.24623850318E+04  0.15294330000E+03 0.  0.
    8880022    1    1    2    0    0  0.14515121145E+04 -0.45188473949E+03 -0.55003298324E+03  0.16238889038E+04  0.15294330000E+03 0.  0.
<mgrwt>
<rscale>  0 0.15279002E+04</rscale>
<asrwt>0</asrwt>
<pdfrwt beam="1">  1        2 0.50517944E+00 0.15279002E+04</pdfrwt>
<pdfrwt beam="2">  1       -2 0.12347808E+00 0.15279002E+04</pdfrwt>
<totfact> 0.53742395E-01</totfact>
</mgrwt>
</event>
<event>
 4    1  0.2061941E-008  0.8531104E+03  0.7818608E-02  0.9486172E-01
          2   -1    0    0  501    0  0.00000000000E+00  0.00000000000E+00  0.94468566224E+03  0.94468566225E+03  0.25500000000E-02 0. -1.
         -2   -1    0    0    0  501 -0.00000000000E+00 -0.00000000000E+00 -0.83985035980E+03  0.83985035981E+03  0.25500000000E-02 0.  1.
    8880022    1    1    2    0    0  0.54573771036E+03 -0.63763317347E+03  0.30898031045E+03  0.90734017749E+03  0.15294330000E+03 0.  0.
    8880022    1    1    2    0    0 -0.54573771036E+03  0.63763317347E+03 -0.20414500801E+03  0.87719584457E+03  0.15294330000E+03 0.  0.
<mgrwt>
<rscale>  0 0.85311041E+03</rscale>
<asrwt>0</asrwt>
<pdfrwt beam="1">  1        2 0.14533626E+00 0.85311041E+03</pdfrwt>
<pdfrwt beam="2">  1       -2 0.12920775E+00 0.85311041E+03</pdfrwt>
<totfact> 0.12139584E+01</totfact>
</mgrwt>
</event>
<event>
 4    1  0.2061941E-008  0.6344171E+03  0.7818608E-02  0.9836467E-01
         -2   -1    0    0    0  501 -0.00000000000E+00  0.00000000000E+00  0.13513198941E+04  0.13513198941E+04  0.25500000000E-02 0.  1.
          2   -1    0    0  501    0  0.00000000000E+00 -0.00000000000E+00 -0.17463521470E+04  0.17463521470E+04  0.25500000000E-02 0. -1.
    8880022    1    1    2    0    0 -0.18920804285E+02  0.61541485309E+03  0.12130703478E+04  0.13689502401E+04  0.15294330000E+03 0.  0.
    8880022    1    1    2    0    0  0.18920804285E+02 -0.61541485309E+03 -0.16081026006E+04  0.17287218010E+04  0.15294330000E+03 0.  0.
<mgrwt>
<rscale>  0 0.63441713E+03</rscale>
<asrwt>0</asrwt>
<pdfrwt beam="1">  1        2 0.26866956E+00 0.63441713E+03</pdfrwt>
<pdfrwt beam="2">  1       -2 0.20789537E+00 0.63441713E+03</pdfrwt>
<totfact> 0.11628760E+00</totfact>
</mgrwt>
</event>
<event>
 4    1  0.2061941E-008  0.1035966E+04  0.7818608E-02  0.9269955E-01
         -2   -1    0    0    0  501 -0.00000000000E+00  0.00000000000E+00  0.66204155285E+03  0.66204155286E+03  0.25500000000E-02 0.  1.
          2   -1    0    0  501    0  0.00000000000E+00 -0.00000000000E+00 -0.31289176004E+04  0.31289176004E+04  0.25500000000E-02 0. -1.
    8880022    1    1    2    0    0 -0.60196423550E+03 -0.82913954459E+03  0.82388851942E+02  0.10392366916E+04  0.15294330000E+03 0.  0.
    8880022    1    1    2    0    0  0.60196423550E+03  0.82913954459E+03 -0.25492648995E+04  0.27517224617E+04  0.15294330000E+03 0.  0.
<mgrwt>
<rscale>  0 0.10359657E+04</rscale>
<asrwt>0</asrwt>
<pdfrwt beam="1">  1        2 0.48137193E+00 0.10359657E+04</pdfrwt>
<pdfrwt beam="2">  1       -2 0.10185255E+00 0.10359657E+04</pdfrwt>
<totfact> 0.11591154E+00</totfact>
</mgrwt>
</event>
<event>
 4    1  0.2061941E-008  0.6750784E+03  0.7818608E-02  0.9760827E-01
         -2   -1    0    0    0  501 -0.00000000000E+00  0.00000000000E+00  0.11770157178E+04  0.11770157178E+04  0.25500000000E-02 0.  1.
          2   -1    0    0  501    0  0.00000000000E+00 -0.00000000000E+00 -0.11510157259E+04  0.11510157259E+04  0.25500000000E-02 0. -1.
    8880022    1    1    2    0    0 -0.54711488143E+03 -0.36469774523E+03 -0.93523254875E+03  0.11534256422E+04  0.15294330000E+03 0.  0.
    8880022    1    1    2    0    0  0.54711488143E+03  0.36469774523E+03  0.96123254056E+03  0.11746058015E+04  0.15294330000E+03 0.  0.
<mgrwt>
<rscale>  0 0.67507836E+03</rscale>
<asrwt>0</asrwt>
<pdfrwt beam="1">  1        2 0.17707934E+00 0.67507836E+03</pdfrwt>
<pdfrwt beam="2">  1       -2 0.18107934E+00 0.67507836E+03</pdfrwt>
<totfact> 0.37429290E+00</totfact>
</mgrwt>
</event>
<event>
 4    1  0.2061941E-008  0.6878436E+03  0.7818608E-02  0.9738250E-01
          2   -1    0    0  501    0  0.00000000000E+00  0.00000000000E+00  0.14576055026E+04  0.14576055026E+04  0.25500000000E-02 0. -1.
         -2   -1    0    0    0  501 -0.00000000000E+00 -0.00000000000E+00 -0.58351420539E+03  0.58351420539E+03  0.25500000000E-02 0.  1.
    8880022    1    1    2    0    0  0.42131888124E+03 -0.52175432310E+03 -0.24277822342E+03  0.72943134848E+03  0.15294330000E+03 0.  0.
    8880022    1    1    2    0    0 -0.42131888124E+03  0.52175432310E+03  0.11168695207E+04  0.13116883595E+04  0.15294330000E+03 0.  0.
<mgrwt>
<rscale>  0 0.68784361E+03</rscale>
<asrwt>0</asrwt>
<pdfrwt beam="1">  1        2 0.22424700E+00 0.68784361E+03</pdfrwt>
<pdfrwt beam="2">  1       -2 0.89771417E-01 0.68784361E+03</pdfrwt>
<totfact> 0.14718347E+01</totfact>
</mgrwt>
</event>
<event>
 4    1  0.2979619E-008  0.1375545E+04  0.7818608E-02  0.8971713E-01
         -2   -1    0    0    0  501 -0.00000000000E+00  0.00000000000E+00  0.19424770345E+04  0.19424770345E+04  0.25500000000E-02 0.  1.
          2   -1    0    0  501    0  0.00000000000E+00 -0.00000000000E+00 -0.24116357597E+04  0.24116357597E+04  0.25500000000E-02 0. -1.
    8880022    1    1    2    0    0  0.98059694410E+03  0.95245080262E+03  0.14462608987E+04  0.19959446732E+04  0.15294330000E+03 0.  0.
    8880022    1    1    2    0    0 -0.98059694410E+03 -0.95245080262E+03 -0.19154196239E+04  0.23581681210E+04  0.15294330000E+03 0.  0.
<mgrwt>
<rscale>  0 0.13755452E+04</rscale>
<asrwt>0</asrwt>
<pdfrwt beam="1">  1        2 0.37102088E+00 0.13755452E+04</pdfrwt>
<pdfrwt beam="2">  1       -2 0.29884262E+00 0.13755452E+04</pdfrwt>
<totfact> 0.12067684E-01</totfact>
</mgrwt>
</event>
<event>
 4    1  0.2061941E-008  0.1290251E+04  0.7818608E-02  0.9037332E-01
          2   -1    0    0  501    0  0.00000000000E+00  0.00000000000E+00  0.41483108507E+04  0.41483108507E+04  0.25500000000E-02 0. -1.
         -2   -1    0    0    0  501 -0.00000000000E+00 -0.00000000000E+00 -0.51190922549E+03  0.51190922549E+03  0.25500000000E-02 0.  1.
    8880022    1    1    2    0    0 -0.85232639746E+03 -0.95650192956E+03  0.73511945376E+03  0.14849742400E+04  0.15294330000E+03 0.  0.
    8880022    1    1    2    0    0  0.85232639746E+03  0.95650192956E+03  0.29012821715E+04  0.31752458362E+04  0.15294330000E+03 0.  0.
<mgrwt>
<rscale>  0 0.12902511E+04</rscale>
<asrwt>0</asrwt>
<pdfrwt beam="1">  1        2 0.63820167E+00 0.12902511E+04</pdfrwt>
<pdfrwt beam="2">  1       -2 0.78755265E-01 0.12902511E+04</pdfrwt>
<totfact> 0.37134526E-01</totfact>
</mgrwt>
</event>
<event>
 4    1  0.2061941E-008  0.7160313E+03  0.7818608E-02  0.9690203E-01
          2   -1    0    0  501    0  0.00000000000E+00  0.00000000000E+00  0.83843835923E+03  0.83843835923E+03  0.25500000000E-02 0. -1.
         -2   -1    0    0    0  501 -0.00000000000E+00 -0.00000000000E+00 -0.14540782902E+04  0.14540782902E+04  0.25500000000E-02 0.  1.
    8880022    1    1    2    0    0  0.51089462294E+01  0.69948771484E+03 -0.11803794490E+04  0.13805783068E+04  0.15294330000E+03 0.  0.
    8880022    1    1    2    0    0 -0.51089462294E+01 -0.69948771484E+03  0.56473951803E+03  0.91193834265E+03  0.15294330000E+03 0.  0.
<mgrwt>
<rscale>  0 0.71603130E+03</rscale>
<asrwt>0</asrwt>
<pdfrwt beam="1">  1        2 0.12899052E+00 0.71603130E+03</pdfrwt>
<pdfrwt beam="2">  1       -2 0.22370435E+00 0.71603130E+03</pdfrwt>
<totfact> 0.31245006E+00</totfact>
</mgrwt>
</event>
<event>
 4    1  0.2061941E-008  0.6830734E+03  0.7818608E-02  0.9746625E-01
          2   -1    0    0  501    0  0.00000000000E+00  0.00000000000E+00  0.18281944176E+04  0.18281944176E+04  0.25500000000E-02 0. -1.
         -2   -1    0    0    0  501 -0.00000000000E+00 -0.00000000000E+00 -0.34617191753E+03  0.34617191754E+03  0.25500000000E-02 0.  1.
    8880022    1    1    2    0    0 -0.65844985474E+03  0.98190837661E+02  0.18374086477E+03  0.70735423248E+03  0.15294330000E+03 0.  0.
    8880022    1    1    2    0    0  0.65844985474E+03 -0.98190837661E+02  0.12982816353E+04  0.14670121027E+04  0.15294330000E+03 0.  0.
<mgrwt>
<rscale>  0 0.68307343E+03</rscale>
<asrwt>0</asrwt>
<pdfrwt beam="1">  1        2 0.28126068E+00 0.68307343E+03</pdfrwt>
<pdfrwt beam="2">  1       -2 0.53257219E-01 0.68307343E+03</pdfrwt>
<totfact> 0.28730527E+01</totfact>
</mgrwt>
</event>
<event>
 4    1  0.2061941E-008  0.1194480E+04  0.7818608E-02  0.9117702E-01
          2   -1    0    0  501    0  0.00000000000E+00  0.00000000000E+00  0.17260587206E+04  0.17260587206E+04  0.25500000000E-02 0. -1.
         -2   -1    0    0    0  501 -0.00000000000E+00 -0.00000000000E+00 -0.10369869815E+04  0.10369869815E+04  0.25500000000E-02 0.  1.
    8880022    1    1    2    0    0 -0.10210558649E+04 -0.60069677672E+03 -0.27771709136E+03  0.12263401374E+04  0.15294330000E+03 0.  0.
    8880022    1    1    2    0    0  0.10210558649E+04  0.60069677672E+03  0.96678883047E+03  0.15367055647E+04  0.15294330000E+03 0.  0.
<mgrwt>
<rscale>  0 0.11944804E+04</rscale>
<asrwt>0</asrwt>
<pdfrwt beam="1">  1        2 0.26554750E+00 0.11944804E+04</pdfrwt>
<pdfrwt beam="2">  1       -2 0.15953646E+00 0.11944804E+04</pdfrwt>
<totfact> 0.23409765E+00</totfact>
</mgrwt>
</event>
<event>
 4    1  0.2061941E-008  0.4006099E+03  0.7818608E-02  0.1043569E+00
          2   -1    0    0  501    0  0.00000000000E+00  0.00000000000E+00  0.29063597691E+04  0.29063597691E+04  0.25500000000E-02 0. -1.
         -2   -1    0    0    0  501 -0.00000000000E+00 -0.00000000000E+00 -0.39444890036E+03  0.39444890037E+03  0.25500000000E-02 0.  1.
    8880022    1    1    2    0    0 -0.21398397648E+03 -0.30217126353E+03  0.27864845842E+04  0.28151349179E+04  0.15294330000E+03 0.  0.
    8880022    1    1    2    0    0  0.21398397648E+03  0.30217126353E+03 -0.27457371551E+03  0.48567375156E+03  0.15294330000E+03 0.  1.
<mgrwt>
<rscale>  0 0.40060987E+03</rscale>
<asrwt>0</asrwt>
<pdfrwt beam="1">  1        2 0.44713228E+00 0.40060987E+03</pdfrwt>
<pdfrwt beam="2">  1       -2 0.60684445E-01 0.40060987E+03</pdfrwt>
<totfact> 0.58587823E+00</totfact>
</mgrwt>
</event>
<event>
 4    1  0.2061941E-008  0.4798686E+03  0.7818608E-02  0.1019171E+00
         -2   -1    0    0    0  501 -0.00000000000E+00  0.00000000000E+00  0.64702672257E+03  0.64702672258E+03  0.25500000000E-02 0.  1.
          2   -1    0    0  501    0  0.00000000000E+00 -0.00000000000E+00 -0.20330558912E+04  0.20330558912E+04  0.25500000000E-02 0. -1.
    8880022    1    1    2    0    0  0.59933256149E+02 -0.45087713891E+03 -0.19101274034E+04  0.19694823025E+04  0.15294330000E+03 0.  0.
    8880022    1    1    2    0    0 -0.59933256149E+02  0.45087713891E+03  0.52409823482E+03  0.71060031125E+03  0.15294330000E+03 0.  0.
<mgrwt>
<rscale>  0 0.47986857E+03</rscale>
<asrwt>0</asrwt>
<pdfrwt beam="1">  1        2 0.31277783E+00 0.47986857E+03</pdfrwt>
<pdfrwt beam="2">  1       -2 0.99542573E-01 0.47986857E+03</pdfrwt>
<totfact> 0.58613189E+00</totfact>
</mgrwt>
</event>
<event>
 4    1  0.2061941E-008  0.6390888E+03  0.7818608E-02  0.9827471E-01
         -2   -1    0    0    0  501 -0.00000000000E+00  0.00000000000E+00  0.18468036395E+03  0.18468036397E+03  0.25500000000E-02 0.  1.
          2   -1    0    0  501    0  0.00000000000E+00 -0.00000000000E+00 -0.31191020924E+04  0.31191020924E+04  0.25500000000E-02 0. -1.
    8880022    1    1    2    0    0 -0.40644066181E+02 -0.61918568809E+03 -0.57617249029E+03  0.86047036441E+03  0.15294330000E+03 0.  0.
    8880022    1    1    2    0    0  0.40644066181E+02  0.61918568809E+03 -0.23582492381E+04  0.24433120919E+04  0.15294330000E+03 0.  0.
<mgrwt>
<rscale>  0 0.63908881E+03</rscale>
<asrwt>0</asrwt>
<pdfrwt beam="1">  1        2 0.47986182E+00 0.63908881E+03</pdfrwt>
<pdfrwt beam="2">  1       -2 0.28412366E-01 0.63908881E+03</pdfrwt>
<totfact> 0.18015437E+01</totfact>
</mgrwt>
</event>
<event>
 4    1  0.2061941E-008  0.7173929E+03  0.7818608E-02  0.9687942E-01
          2   -1    0    0  501    0  0.00000000000E+00  0.00000000000E+00  0.78980776303E+03  0.78980776304E+03  0.25500000000E-02 0. -1.
         -2   -1    0    0    0  501 -0.00000000000E+00 -0.00000000000E+00 -0.91533137426E+03  0.91533137426E+03  0.25500000000E-02 0.  1.
    8880022    1    1    2    0    0  0.56086021410E+03  0.42035315296E+03 -0.52038401582E+03  0.88625737227E+03  0.15294330000E+03 0.  0.
    8880022    1    1    2    0    0 -0.56086021410E+03 -0.42035315296E+03  0.39486040459E+03  0.81888176503E+03  0.15294330000E+03 0. -1.
<mgrwt>
<rscale>  0 0.71739292E+03</rscale>
<asrwt>0</asrwt>
<pdfrwt beam="1">  1        2 0.12150889E+00 0.71739292E+03</pdfrwt>
<pdfrwt beam="2">  1       -2 0.14082021E+00 0.71739292E+03</pdfrwt>
<totfact> 0.12631358E+01</totfact>
</mgrwt>
</event>
<event>
 4    1  0.2061941E-008  0.7204015E+03  0.7818608E-02  0.9682965E-01
         -2   -1    0    0    0  501 -0.00000000000E+00  0.00000000000E+00  0.10779396068E+04  0.10779396068E+04  0.25500000000E-02 0.  1.
          2   -1    0    0  501    0  0.00000000000E+00 -0.00000000000E+00 -0.24230751476E+04  0.24230751476E+04  0.25500000000E-02 0. -1.
    8880022    1    1    2    0    0  0.70357328521E+03  0.23902252898E+02 -0.22395452331E+04  0.23525605602E+04  0.15294330000E+03 0.  0.
    8880022    1    1    2    0    0 -0.70357328521E+03 -0.23902252898E+02  0.89440969230E+03  0.11484541941E+04  0.15294330000E+03 0.  0.
<mgrwt>
<rscale>  0 0.72040151E+03</rscale>
<asrwt>0</asrwt>
<pdfrwt beam="1">  1        2 0.37278079E+00 0.72040151E+03</pdfrwt>
<pdfrwt beam="2">  1       -2 0.16583686E+00 0.72040151E+03</pdfrwt>
<totfact> 0.93155990E-01</totfact>
</mgrwt>
</event>
<event>
 4    1  0.2061941E-008  0.6389365E+03  0.7818608E-02  0.9827763E-01
         -2   -1    0    0    0  501 -0.00000000000E+00  0.00000000000E+00  0.11314373075E+04  0.11314373075E+04  0.25500000000E-02 0.  1.
          2   -1    0    0  501    0  0.00000000000E+00 -0.00000000000E+00 -0.63897698383E+03  0.63897698383E+03  0.25500000000E-02 0. -1.
    8880022    1    1    2    0    0 -0.53119385925E+03  0.32043912491E+03 -0.33782117014E+03  0.72274680552E+03  0.15294330000E+03 0.  0.
    8880022    1    1    2    0    0  0.53119385925E+03 -0.32043912491E+03  0.83028149386E+03  0.10476674859E+04  0.15294330000E+03 0.  1.
<mgrwt>
<rscale>  0 0.63893646E+03</rscale>
<asrwt>0</asrwt>
<pdfrwt beam="1">  1        2 0.98304152E-01 0.63893646E+03</pdfrwt>
<pdfrwt beam="2">  1       -2 0.17406728E+00 0.63893646E+03</pdfrwt>
<totfact> 0.94404946E+00</totfact>
</mgrwt>
</event>
<event>
 4    1  0.2061941E-008  0.9950939E+03  0.7818608E-02  0.9313942E-01
          2   -1    0    0  501    0  0.00000000000E+00  0.00000000000E+00  0.16165748621E+04  0.16165748621E+04  0.25500000000E-02 0. -1.
         -2   -1    0    0    0  501 -0.00000000000E+00 -0.00000000000E+00 -0.67842463434E+03  0.67842463435E+03  0.25500000000E-02 0.  1.
    8880022    1    1    2    0    0 -0.79005615367E+03 -0.58534728736E+03  0.82668040515E+03  0.12936816912E+04  0.15294330000E+03 0.  0.
    8880022    1    1    2    0    0  0.79005615367E+03  0.58534728736E+03  0.11146982257E+03  0.10013178053E+04  0.15294330000E+03 0.  0.
<mgrwt>
<rscale>  0 0.99509388E+03</rscale>
<asrwt>0</asrwt>
<pdfrwt beam="1">  1        2 0.24870382E+00 0.99509388E+03</pdfrwt>
<pdfrwt beam="2">  1       -2 0.10437302E+00 0.99509388E+03</pdfrwt>
<totfact> 0.81124690E+00</totfact>
</mgrwt>
</event>
<event>
 4    1  0.2061941E-008  0.1467857E+04  0.7818608E-02  0.8906114E-01
         -2   -1    0    0    0  501 -0.00000000000E+00  0.00000000000E+00  0.95019090734E+03  0.95019090734E+03  0.25500000000E-02 0.  1.
          2   -1    0    0  501    0  0.00000000000E+00 -0.00000000000E+00 -0.24929722221E+04  0.24929722221E+04  0.25500000000E-02 0. -1.
    8880022    1    1    2    0    0  0.96148061617E+03  0.10985290597E+04 -0.25370044714E+03  0.14896196294E+04  0.15294330000E+03 0.  0.
    8880022    1    1    2    0    0 -0.96148061617E+03 -0.10985290597E+04 -0.12890808676E+04  0.19535435000E+04  0.15294330000E+03 0.  0.
<mgrwt>
<rscale>  0 0.14678565E+04</rscale>
<asrwt>0</asrwt>
<pdfrwt beam="1">  1        2 0.38353419E+00 0.14678565E+04</pdfrwt>
<pdfrwt beam="2">  1       -2 0.14618322E+00 0.14678565E+04</pdfrwt>
<totfact> 0.10690558E+00</totfact>
</mgrwt>
</event>
<event>
 4    1  0.2061941E-008  0.9162529E+03  0.7818608E-02  0.9405489E-01
          2   -1    0    0  501    0  0.00000000000E+00  0.00000000000E+00  0.23748847287E+04  0.23748847287E+04  0.25500000000E-02 0. -1.
         -2   -1    0    0    0  501 -0.00000000000E+00 -0.00000000000E+00 -0.55370537120E+03  0.55370537120E+03  0.25500000000E-02 0.  1.
    8880022    1    1    2    0    0  0.69117853800E+03  0.58172159714E+03  0.17910872121E+04  0.20118431456E+04  0.15294330000E+03 0.  0.
    8880022    1    1    2    0    0 -0.69117853800E+03 -0.58172159714E+03  0.30092145341E+02  0.91674695429E+03  0.15294330000E+03 0.  0.
<mgrwt>
<rscale>  0 0.91625294E+03</rscale>
<asrwt>0</asrwt>
<pdfrwt beam="1">  1        2 0.36536688E+00 0.91625294E+03</pdfrwt>
<pdfrwt beam="2">  1       -2 0.85185443E-01 0.91625294E+03</pdfrwt>
<totfact> 0.50207016E+00</totfact>
</mgrwt>
</event>
<event>
 4    1  0.2061941E-008  0.7075792E+03  0.7818608E-02  0.9704358E-01
          2   -1    0    0  501    0  0.00000000000E+00  0.00000000000E+00  0.25617890757E+04  0.25617890757E+04  0.25500000000E-02 0. -1.
         -2   -1    0    0    0  501 -0.00000000000E+00 -0.00000000000E+00 -0.27713025482E+03  0.27713025483E+03  0.25500000000E-02 0.  1.
    8880022    1    1    2    0    0  0.11494913297E+03  0.68122193705E+03  0.19130097441E+04  0.20396751125E+04  0.15294330000E+03 0.  0.
    8880022    1    1    2    0    0 -0.11494913297E+03 -0.68122193705E+03  0.37164907678E+03  0.79924421798E+03  0.15294330000E+03 0.  0.
<mgrwt>
<rscale>  0 0.70757917E+03</rscale>
<asrwt>0</asrwt>
<pdfrwt beam="1">  1        2 0.39412139E+00 0.70757917E+03</pdfrwt>
<pdfrwt beam="2">  1       -2 0.42635425E-01 0.70757917E+03</pdfrwt>
<totfact> 0.17632788E+01</totfact>
</mgrwt>
</event>
<event>
 4    1  0.2061941E-008  0.9728929E+03  0.7818608E-02  0.9338785E-01
         -2   -1    0    0    0  501 -0.00000000000E+00  0.00000000000E+00  0.22814151394E+04  0.22814151394E+04  0.25500000000E-02 0.  1.
          2   -1    0    0  501    0  0.00000000000E+00 -0.00000000000E+00 -0.11028613866E+04  0.11028613866E+04  0.25500000000E-02 0. -1.
    8880022    1    1    2    0    0 -0.90372186644E+03  0.32621415052E+03  0.19257577647E+04  0.21575596180E+04  0.15294330000E+03 0.  0.
    8880022    1    1    2    0    0  0.90372186644E+03 -0.32621415052E+03 -0.74720401197E+03  0.12267169080E+04  0.15294330000E+03 0.  0.
<mgrwt>
<rscale>  0 0.97289287E+03</rscale>
<asrwt>0</asrwt>
<pdfrwt beam="1">  1        2 0.16967098E+00 0.97289287E+03</pdfrwt>
<pdfrwt beam="2">  1       -2 0.35098695E+00 0.97289287E+03</pdfrwt>
<totfact> 0.33811603E-01</totfact>
</mgrwt>
</event>
<event>
 4    1  0.2061941E-008  0.6568944E+03  0.7818608E-02  0.9793928E-01
          2   -1    0    0  501    0  0.00000000000E+00  0.00000000000E+00  0.16094350063E+04  0.16094350063E+04  0.25500000000E-02 0. -1.
         -2   -1    0    0    0  501 -0.00000000000E+00 -0.00000000000E+00 -0.14015382455E+04  0.14015382455E+04  0.25500000000E-02 0.  1.
    8880022    1    1    2    0    0 -0.44398668919E+03  0.45934127892E+03  0.14577994432E+04  0.15989651217E+04  0.15294330000E+03 0.  0.
    8880022    1    1    2    0    0  0.44398668919E+03 -0.45934127892E+03 -0.12499026824E+04  0.14120081300E+04  0.15294330000E+03 0.  0.
<mgrwt>
<rscale>  0 0.65689439E+03</rscale>
<asrwt>0</asrwt>
<pdfrwt beam="1">  1        2 0.24760539E+00 0.65689439E+03</pdfrwt>
<pdfrwt beam="2">  1       -2 0.21562127E+00 0.65689439E+03</pdfrwt>
<totfact> 0.12277281E+00</totfact>
</mgrwt>
</event>
<event>
 4    1  0.2061941E-008  0.1317078E+04  0.7818608E-02  0.9016131E-01
         -2   -1    0    0    0  501 -0.00000000000E+00  0.00000000000E+00  0.81048633884E+03  0.81048633885E+03  0.25500000000E-02 0.  1.
          2   -1    0    0  501    0  0.00000000000E+00 -0.00000000000E+00 -0.21728645099E+04  0.21728645099E+04  0.25500000000E-02 0. -1.
    8880022    1    1    2    0    0  0.13074913067E+04  0.42064243099E+02 -0.49861355710E+03  0.14083004118E+04  0.15294330000E+03 0.  0.
    8880022    1    1    2    0    0 -0.13074913067E+04 -0.42064243099E+02 -0.86376461398E+03  0.15750504370E+04  0.15294330000E+03 0.  0.
<mgrwt>
<rscale>  0 0.13170780E+04</rscale>
<asrwt>0</asrwt>
<pdfrwt beam="1">  1        2 0.33428685E+00 0.13170780E+04</pdfrwt>
<pdfrwt beam="2">  1       -2 0.12469021E+00 0.13170780E+04</pdfrwt>
<totfact> 0.24899683E+00</totfact>
</mgrwt>
</event>
<event>
 4    1  0.2061941E-008  0.6745178E+03  0.7818608E-02  0.9761831E-01
          2   -1    0    0  501    0  0.00000000000E+00  0.00000000000E+00  0.10819382348E+04  0.10819382348E+04  0.25500000000E-02 0. -1.
         -2   -1    0    0    0  501 -0.00000000000E+00 -0.00000000000E+00 -0.18245687872E+04  0.18245687872E+04  0.25500000000E-02 0.  1.
    8880022    1    1    2    0    0 -0.63699121750E+03  0.16070077934E+03 -0.16461465577E+04  0.17789808021E+04  0.15294330000E+03 0.  1.
    8880022    1    1    2    0    0  0.63699121750E+03 -0.16070077934E+03  0.90351600529E+03  0.11275262199E+04  0.15294330000E+03 0.  0.
<mgrwt>
<rscale>  0 0.67451776E+03</rscale>
<asrwt>0</asrwt>
<pdfrwt beam="1">  1        2 0.16645204E+00 0.67451776E+03</pdfrwt>
<pdfrwt beam="2">  1       -2 0.28070289E+00 0.67451776E+03</pdfrwt>
<totfact> 0.98681653E-01</totfact>
</mgrwt>
</event>
<event>
 4    1  0.2061941E-008  0.1611158E+04  0.7818608E-02  0.8813722E-01
         -2   -1    0    0    0  501 -0.00000000000E+00  0.00000000000E+00  0.28755438345E+04  0.28755438345E+04  0.25500000000E-02 0.  1.
          2   -1    0    0  501    0  0.00000000000E+00 -0.00000000000E+00 -0.11652091727E+04  0.11652091727E+04  0.25500000000E-02 0. -1.
    8880022    1    1    2    0    0  0.13516899478E+04  0.86334948276E+03  0.18140835397E+04  0.24262581863E+04  0.15294330000E+03 0.  0.
    8880022    1    1    2    0    0 -0.13516899478E+04 -0.86334948276E+03 -0.10374887786E+03  0.16144948210E+04  0.15294330000E+03 0.  0.
<mgrwt>
<rscale>  0 0.16111579E+04</rscale>
<asrwt>0</asrwt>
<pdfrwt beam="1">  1        2 0.17926295E+00 0.16111579E+04</pdfrwt>
<pdfrwt beam="2">  1       -2 0.44239135E+00 0.16111579E+04</pdfrwt>
<totfact> 0.72310478E-02</totfact>
</mgrwt>
</event>
<event>
 4    1  0.2061941E-008  0.1324208E+04  0.7818608E-02  0.9010585E-01
         -2   -1    0    0    0  501 -0.00000000000E+00  0.00000000000E+00  0.12766766881E+04  0.12766766881E+04  0.25500000000E-02 0.  1.
          2   -1    0    0  501    0  0.00000000000E+00 -0.00000000000E+00 -0.16518941779E+04  0.16518941779E+04  0.25500000000E-02 0. -1.
    8880022    1    1    2    0    0  0.88666797936E+03  0.97157382706E+03  0.41350596490E+03  0.13872687710E+04  0.15294330000E+03 0.  0.
    8880022    1    1    2    0    0 -0.88666797936E+03 -0.97157382706E+03 -0.78872345473E+03  0.15413020950E+04  0.15294330000E+03 0.  0.
<mgrwt>
<rscale>  0 0.13242082E+04</rscale>
<asrwt>0</asrwt>
<pdfrwt beam="1">  1        2 0.25413757E+00 0.13242082E+04</pdfrwt>
<pdfrwt beam="2">  1       -2 0.19641180E+00 0.13242082E+04</pdfrwt>
<totfact> 0.14025189E+00</totfact>
</mgrwt>
</event>
<event>
 4    1  0.2061941E-008  0.3407197E+03  0.7818608E-02  0.1066490E+00
          2   -1    0    0  501    0  0.00000000000E+00  0.00000000000E+00  0.18476690080E+04  0.18476690080E+04  0.25500000000E-02 0. -1.
         -2   -1    0    0    0  501 -0.00000000000E+00 -0.00000000000E+00 -0.76236286312E+03  0.76236286312E+03  0.25500000000E-02 0.  1.
    8880022    1    1    2    0    0 -0.13906628651E+03  0.27084830099E+03 -0.70742998141E+03  0.78520511066E+03  0.15294330000E+03 0.  0.
    8880022    1    1    2    0    0  0.13906628651E+03 -0.27084830099E+03  0.17927361263E+04  0.18248267604E+04  0.15294330000E+03 0.  0.
<mgrwt>
<rscale>  0 0.34071966E+03</rscale>
<asrwt>0</asrwt>
<pdfrwt beam="1">  1        2 0.28425676E+00 0.34071966E+03</pdfrwt>
<pdfrwt beam="2">  1       -2 0.11728660E+00 0.34071966E+03</pdfrwt>
<totfact> 0.51942095E+00</totfact>
</mgrwt>
</event>
<event>
 4    1  0.2061941E-008  0.6202757E+03  0.7818608E-02  0.9864211E-01
          2   -1    0    0  501    0  0.00000000000E+00  0.00000000000E+00  0.27112438294E+04  0.27112438294E+04  0.25500000000E-02 0. -1.
         -2   -1    0    0    0  501 -0.00000000000E+00 -0.00000000000E+00 -0.31754243598E+03  0.31754243599E+03  0.25500000000E-02 0.  1.
    8880022    1    1    2    0    0 -0.55474803625E+03  0.23152721569E+03  0.70574260316E+02  0.62427767425E+03  0.15294330000E+03 0.  0.
    8880022    1    1    2    0    0  0.55474803625E+03 -0.23152721569E+03  0.23231271331E+04  0.24045085912E+04  0.15294330000E+03 0.  0.
<mgrwt>
<rscale>  0 0.62027566E+03</rscale>
<asrwt>0</asrwt>
<pdfrwt beam="1">  1        2 0.41711441E+00 0.62027566E+03</pdfrwt>
<pdfrwt beam="2">  1       -2 0.48852685E-01 0.62027566E+03</pdfrwt>
<totfact> 0.11207358E+01</totfact>
</mgrwt>
</event>
<event>
 4    1  0.2061941E-008  0.1343589E+04  0.7818608E-02  0.8995695E-01
         -2   -1    0    0    0  501 -0.00000000000E+00  0.00000000000E+00  0.14701754895E+04  0.14701754895E+04  0.25500000000E-02 0.  1.
          2   -1    0    0  501    0  0.00000000000E+00 -0.00000000000E+00 -0.20040906258E+04  0.20040906258E+04  0.25500000000E-02 0. -1.
    8880022    1    1    2    0    0  0.13066614392E+04  0.27290419081E+03 -0.13480375990E+04  0.19032703001E+04  0.15294330000E+03 0.  0.
    8880022    1    1    2    0    0 -0.13066614392E+04 -0.27290419081E+03  0.81412246262E+03  0.15709958152E+04  0.15294330000E+03 0.  0.
<mgrwt>
<rscale>  0 0.13435894E+04</rscale>
<asrwt>0</asrwt>
<pdfrwt beam="1">  1        2 0.30832164E+00 0.13435894E+04</pdfrwt>
<pdfrwt beam="2">  1       -2 0.22618084E+00 0.13435894E+04</pdfrwt>
<totfact> 0.57318072E-01</totfact>
</mgrwt>
</event>
<event>
 4    1  0.2061941E-008  0.1467548E+04  0.7818608E-02  0.8906324E-01
         -2   -1    0    0    0  501 -0.00000000000E+00  0.00000000000E+00  0.78398589812E+03  0.78398589812E+03  0.25500000000E-02 0.  1.
          2   -1    0    0  501    0  0.00000000000E+00 -0.00000000000E+00 -0.45392231297E+04  0.45392231297E+04  0.25500000000E-02 0. -1.
    8880022    1    1    2    0    0  0.14093316347E+04  0.37959303727E+03 -0.20523827053E+03  0.14818302640E+04  0.15294330000E+03 0.  0.
    8880022    1    1    2    0    0 -0.14093316347E+04 -0.37959303727E+03 -0.35499989611E+04  0.38413787639E+04  0.15294330000E+03 0.  0.
<mgrwt>
<rscale>  0 0.14675484E+04</rscale>
<asrwt>0</asrwt>
<pdfrwt beam="1">  1        2 0.69834201E+00 0.14675484E+04</pdfrwt>
<pdfrwt beam="2">  1       -2 0.12061322E+00 0.14675484E+04</pdfrwt>
<totfact> 0.57969199E-02</totfact>
</mgrwt>
</event>
<event>
 4    1  0.2061941E-008  0.7047321E+03  0.7818608E-02  0.9709174E-01
         -2   -1    0    0    0  501 -0.00000000000E+00  0.00000000000E+00  0.81214616074E+03  0.81214616075E+03  0.25500000000E-02 0.  1.
          2   -1    0    0  501    0  0.00000000000E+00 -0.00000000000E+00 -0.27422725423E+04  0.27422725423E+04  0.25500000000E-02 0. -1.
    8880022    1    1    2    0    0 -0.68790753065E+03  0.62414318435E+01  0.60150505128E+03  0.92652884787E+03  0.15294330000E+03 0.  0.
    8880022    1    1    2    0    0  0.68790753065E+03 -0.62414318435E+01 -0.25316314329E+04  0.26278898552E+04  0.15294330000E+03 0.  0.
<mgrwt>
<rscale>  0 0.70473213E+03</rscale>
<asrwt>0</asrwt>
<pdfrwt beam="1">  1        2 0.42188808E+00 0.70473213E+03</pdfrwt>
<pdfrwt beam="2">  1       -2 0.12494556E+00 0.70473213E+03</pdfrwt>
<totfact> 0.12863911E+00</totfact>
</mgrwt>
</event>
<event>
 4    1  0.2061941E-008  0.9467307E+03  0.7818608E-02  0.9368980E-01
          2   -1    0    0  501    0  0.00000000000E+00  0.00000000000E+00  0.17091021432E+04  0.17091021432E+04  0.25500000000E-02 0. -1.
         -2   -1    0    0    0  501 -0.00000000000E+00 -0.00000000000E+00 -0.22897234351E+04  0.22897234351E+04  0.25500000000E-02 0.  1.
    8880022    1    1    2    0    0  0.87480862216E+03 -0.32805058576E+03 -0.20458873047E+04  0.22543189279E+04  0.15294330000E+03 0.  0.
    8880022    1    1    2    0    0 -0.87480862216E+03  0.32805058576E+03  0.14652660127E+04  0.17445066504E+04  0.15294330000E+03 0.  0.
<mgrwt>
<rscale>  0 0.94673067E+03</rscale>
<asrwt>0</asrwt>
<pdfrwt beam="1">  1        2 0.26293879E+00 0.94673067E+03</pdfrwt>
<pdfrwt beam="2">  1       -2 0.35226514E+00 0.94673067E+03</pdfrwt>
<totfact> 0.14965333E-01</totfact>
</mgrwt>
</event>
<event>
 4    1  0.2061941E-008  0.7094816E+03  0.7818608E-02  0.9701153E-01
         -2   -1    0    0    0  501 -0.00000000000E+00  0.00000000000E+00  0.21637263359E+03  0.21637263361E+03  0.25500000000E-02 0.  1.
          2   -1    0    0  501    0  0.00000000000E+00 -0.00000000000E+00 -0.43867849826E+04  0.43867849826E+04  0.25500000000E-02 0. -1.
    8880022    1    1    2    0    0 -0.62103134015E+02  0.69001138220E+03 -0.36625608780E+04  0.37306455667E+04  0.15294330000E+03 0.  0.
    8880022    1    1    2    0    0  0.62103134015E+02 -0.69001138220E+03 -0.50785147105E+03  0.87251204947E+03  0.15294330000E+03 0.  0.
<mgrwt>
<rscale>  0 0.70948161E+03</rscale>
<asrwt>0</asrwt>
<pdfrwt beam="1">  1        2 0.67488993E+00 0.70948161E+03</pdfrwt>
<pdfrwt beam="2">  1       -2 0.33288101E-01 0.70948161E+03</pdfrwt>
<totfact> 0.15199187E+00</totfact>
</mgrwt>
</event>
<event>
 4    1  0.2061941E-008  0.5571317E+03  0.7818608E-02  0.9998566E-01
         -2   -1    0    0    0  501 -0.00000000000E+00  0.00000000000E+00  0.27858325892E+03  0.27858325893E+03  0.25500000000E-02 0.  1.
          2   -1    0    0  501    0  0.00000000000E+00 -0.00000000000E+00 -0.12122487462E+04  0.12122487462E+04  0.25500000000E-02 0. -1.
    8880022    1    1    2    0    0 -0.51913326288E+03 -0.13230564328E+03 -0.67883342992E+03  0.87818597487E+03  0.15294330000E+03 0.  0.
    8880022    1    1    2    0    0  0.51913326288E+03  0.13230564328E+03 -0.25483205732E+03  0.61264603021E+03  0.15294330000E+03 0.  0.
<mgrwt>
<rscale>  0 0.55713174E+03</rscale>
<asrwt>0</asrwt>
<pdfrwt beam="1">  1        2 0.18649980E+00 0.55713174E+03</pdfrwt>
<pdfrwt beam="2">  1       -2 0.42858964E-01 0.55713174E+03</pdfrwt>
<totfact> 0.99384694E+01</totfact>
</mgrwt>
</event>
<event>
 4    1  0.2061941E-008  0.7961694E+03  0.7818608E-02  0.9565578E-01
         -2   -1    0    0    0  501 -0.00000000000E+00  0.00000000000E+00  0.45820225577E+03  0.45820225578E+03  0.25500000000E-02 0.  1.
          2   -1    0    0  501    0  0.00000000000E+00 -0.00000000000E+00 -0.19125074125E+04  0.19125074125E+04  0.25500000000E-02 0. -1.
    8880022    1    1    2    0    0  0.58220844326E+03 -0.52108291558E+03 -0.13506159104E+04  0.15678166560E+04  0.15294330000E+03 0.  0.
    8880022    1    1    2    0    0 -0.58220844326E+03  0.52108291558E+03 -0.10368924627E+03  0.80289301225E+03  0.15294330000E+03 0.  1.
<mgrwt>
<rscale>  0 0.79616941E+03</rscale>
<asrwt>0</asrwt>
<pdfrwt beam="1">  1        2 0.29423190E+00 0.79616941E+03</pdfrwt>
<pdfrwt beam="2">  1       -2 0.70492656E-01 0.79616941E+03</pdfrwt>
<totfact> 0.14040120E+01</totfact>
</mgrwt>
</event>
<event>
 4    1  0.2061941E-008  0.7023493E+03  0.7818608E-02  0.9713223E-01
         -2   -1    0    0    0  501 -0.00000000000E+00  0.00000000000E+00  0.51422067123E+03  0.51422067124E+03  0.25500000000E-02 0.  1.
          2   -1    0    0  501    0  0.00000000000E+00 -0.00000000000E+00 -0.18515504628E+04  0.18515504628E+04  0.25500000000E-02 0. -1.
    8880022    1    1    2    0    0 -0.45659299900E+03  0.51129803242E+03 -0.14898047156E+04  0.16470618046E+04  0.15294330000E+03 0.  0.
    8880022    1    1    2    0    0  0.45659299900E+03 -0.51129803242E+03  0.15247492403E+03  0.71870932940E+03  0.15294330000E+03 0.  0.
<mgrwt>
<rscale>  0 0.70234927E+03</rscale>
<asrwt>0</asrwt>
<pdfrwt beam="1">  1        2 0.28485391E+00 0.70234927E+03</pdfrwt>
<pdfrwt beam="2">  1       -2 0.79110874E-01 0.70234927E+03</pdfrwt>
<totfact> 0.11898452E+01</totfact>
</mgrwt>
</event>
<event>
 4    1  0.2061941E-008  0.5400118E+03  0.7818608E-02  0.1003833E+00
          2   -1    0    0  501    0  0.00000000000E+00  0.00000000000E+00  0.45417285656E+04  0.45417285656E+04  0.25500000000E-02 0. -1.
         -2   -1    0    0    0  501 -0.00000000000E+00 -0.00000000000E+00 -0.10561650543E+03  0.10561650546E+03  0.25500000000E-02 0.  1.
    8880022    1    1    2    0    0 -0.19056579057E+01 -0.51789712596E+03  0.36730352694E+04  0.37125194690E+04  0.15294330000E+03 0.  0.
    8880022    1    1    2    0    0  0.19056579057E+01  0.51789712596E+03  0.76307679077E+03  0.93482560204E+03  0.15294330000E+03 0.  0.
<mgrwt>
<rscale>  0 0.54001178E+03</rscale>
<asrwt>0</asrwt>
<pdfrwt beam="1">  1        2 0.69872749E+00 0.54001178E+03</pdfrwt>
<pdfrwt beam="2">  1       -2 0.16248693E-01 0.54001178E+03</pdfrwt>
<totfact> 0.41186609E+00</totfact>
</mgrwt>
</event>
<event>
 4    1  0.2061941E-008  0.5113249E+03  0.7818608E-02  0.1010864E+00
         -2   -1    0    0    0  501 -0.00000000000E+00  0.00000000000E+00  0.20121639692E+04  0.20121639692E+04  0.25500000000E-02 0.  1.
          2   -1    0    0  501    0  0.00000000000E+00 -0.00000000000E+00 -0.41329324717E+03  0.41329324718E+03  0.25500000000E-02 0. -1.
    8880022    1    1    2    0    0 -0.27219651339E+03 -0.40493282030E+03 -0.20472109348E+03  0.55078481278E+03  0.15294330000E+03 0.  0.
    8880022    1    1    2    0    0  0.27219651339E+03  0.40493282030E+03  0.18035918155E+04  0.18746724036E+04  0.15294330000E+03 0.  0.
<mgrwt>
<rscale>  0 0.51132493E+03</rscale>
<asrwt>0</asrwt>
<pdfrwt beam="1">  1        2 0.63583576E-01 0.51132493E+03</pdfrwt>
<pdfrwt beam="2">  1       -2 0.30956369E+00 0.51132493E+03</pdfrwt>
<totfact> 0.23204250E+00</totfact>
</mgrwt>
</event>
<event>
 4    1  0.2061941E-008  0.9218892E+03  0.7818608E-02  0.9398625E-01
          2   -1    0    0  501    0  0.00000000000E+00  0.00000000000E+00  0.42959038286E+04  0.42959038286E+04  0.25500000000E-02 0. -1.
         -2   -1    0    0    0  501 -0.00000000000E+00 -0.00000000000E+00 -0.30276062383E+03  0.30276062385E+03  0.25500000000E-02 0.  1.
    8880022    1    1    2    0    0  0.76789401751E+03 -0.48664864824E+03  0.33501798131E+04  0.34747063994E+04  0.15294330000E+03 0.  0.
    8880022    1    1    2    0    0 -0.76789401751E+03  0.48664864824E+03  0.64296339167E+03  0.11239580530E+04  0.15294330000E+03 0.  0.
<mgrwt>
<rscale>  0 0.92188925E+03</rscale>
<asrwt>0</asrwt>
<pdfrwt beam="1">  1        2 0.66090829E+00 0.92188925E+03</pdfrwt>
<pdfrwt beam="2">  1       -2 0.46578557E-01 0.92188925E+03</pdfrwt>
<totfact> 0.90600831E-01</totfact>
</mgrwt>
</event>
<event>
 4    1  0.2061941E-008  0.1359836E+04  0.7818608E-02  0.8983415E-01
          2   -1    0    0  501    0  0.00000000000E+00  0.00000000000E+00  0.24789649366E+04  0.24789649366E+04  0.25500000000E-02 0. -1.
         -2   -1    0    0    0  501 -0.00000000000E+00 -0.00000000000E+00 -0.13137680781E+04  0.13137680781E+04  0.25500000000E-02 0.  1.
    8880022    1    1    2    0    0 -0.92770600373E+03  0.98240744428E+03 -0.66413059721E+03  0.15133485782E+04  0.15294330000E+03 0.  0.
    8880022    1    1    2    0    0  0.92770600373E+03 -0.98240744428E+03  0.18293274557E+04  0.22793844365E+04  0.15294330000E+03 0.  0.
<mgrwt>
<rscale>  0 0.13598362E+04</rscale>
<asrwt>0</asrwt>
<pdfrwt beam="1">  1        2 0.38137922E+00 0.13598362E+04</pdfrwt>
<pdfrwt beam="2">  1       -2 0.20211817E+00 0.13598362E+04</pdfrwt>
<totfact> 0.44049000E-01</totfact>
</mgrwt>
</event>
<event>
 4    1  0.2061941E-008  0.1242231E+04  0.7818608E-02  0.9076674E-01
         -2   -1    0    0    0  501 -0.00000000000E+00  0.00000000000E+00  0.73908193137E+03  0.73908193138E+03  0.25500000000E-02 0.  1.
          2   -1    0    0  501    0  0.00000000000E+00 -0.00000000000E+00 -0.21365276329E+04  0.21365276329E+04  0.25500000000E-02 0. -1.
    8880022    1    1    2    0    0 -0.74264739328E+03 -0.98398253500E+03 -0.91560870361E+03  0.15432037231E+04  0.15294330000E+03 0.  0.
    8880022    1    1    2    0    0  0.74264739328E+03  0.98398253500E+03 -0.48183699791E+03  0.13324058411E+04  0.15294330000E+03 0.  0.
<mgrwt>
<rscale>  0 0.12422312E+04</rscale>
<asrwt>0</asrwt>
<pdfrwt beam="1">  1        2 0.32869656E+00 0.12422312E+04</pdfrwt>
<pdfrwt beam="2">  1       -2 0.11370491E+00 0.12422312E+04</pdfrwt>
<totfact> 0.33084392E+00</totfact>
</mgrwt>
</event>
<event>
 4    1  0.2061941E-008  0.1045856E+04  0.7818608E-02  0.9259633E-01
         -2   -1    0    0    0  501 -0.00000000000E+00  0.00000000000E+00  0.64871926309E+03  0.64871926309E+03  0.25500000000E-02 0.  1.
          2   -1    0    0  501    0  0.00000000000E+00 -0.00000000000E+00 -0.24374786261E+04  0.24374786261E+04  0.25500000000E-02 0. -1.
    8880022    1    1    2    0    0 -0.37808537789E+03 -0.96305492626E+03 -0.17511187579E+04  0.20396646542E+04  0.15294330000E+03 0.  0.
    8880022    1    1    2    0    0  0.37808537789E+03  0.96305492626E+03 -0.37640605104E+02  0.10465332351E+04  0.15294330000E+03 0.  0.
<mgrwt>
<rscale>  0 0.10458561E+04</rscale>
<asrwt>0</asrwt>
<pdfrwt beam="1">  1        2 0.37499671E+00 0.10458561E+04</pdfrwt>
<pdfrwt beam="2">  1       -2 0.99802965E-01 0.10458561E+04</pdfrwt>
<totfact> 0.31433907E+00</totfact>
</mgrwt>
</event>
<event>
 4    1  0.2061941E-008  0.3890594E+03  0.7818608E-02  0.1047635E+00
          2   -1    0    0  501    0  0.00000000000E+00  0.00000000000E+00  0.15270971974E+04  0.15270971974E+04  0.25500000000E-02 0. -1.
         -2   -1    0    0    0  501 -0.00000000000E+00 -0.00000000000E+00 -0.69161481940E+03  0.69161481940E+03  0.25500000000E-02 0.  1.
    8880022    1    1    2    0    0 -0.72998948875E+02 -0.35020958416E+03  0.14445290900E+04  0.14960051953E+04  0.15294330000E+03 0.  0.
    8880022    1    1    2    0    0  0.72998948875E+02  0.35020958416E+03 -0.60904671204E+03  0.72270682150E+03  0.15294330000E+03 0.  0.
<mgrwt>
<rscale>  0 0.38905945E+03</rscale>
<asrwt>0</asrwt>
<pdfrwt beam="1">  1        2 0.23493803E+00 0.38905945E+03</pdfrwt>
<pdfrwt beam="2">  1       -2 0.10640228E+00 0.38905945E+03</pdfrwt>
<totfact> 0.95878342E+00</totfact>
</mgrwt>
</event>
<event>
 4    1  0.2061941E-008  0.5125488E+03  0.7818608E-02  0.1010554E+00
          2   -1    0    0  501    0  0.00000000000E+00  0.00000000000E+00  0.19348424281E+04  0.19348424282E+04  0.25500000000E-02 0. -1.
         -2   -1    0    0    0  501 -0.00000000000E+00 -0.00000000000E+00 -0.33991516892E+03  0.33991516893E+03  0.25500000000E-02 0.  1.
    8880022    1    1    2    0    0 -0.45278241223E+03  0.18520999342E+03  0.16788826113E+04  0.17553783439E+04  0.15294330000E+03 0.  0.
    8880022    1    1    2    0    0  0.45278241223E+03 -0.18520999342E+03 -0.83955352120E+02  0.51937925320E+03  0.15294330000E+03 0.  0.
<mgrwt>
<rscale>  0 0.51254883E+03</rscale>
<asrwt>0</asrwt>
<pdfrwt beam="1">  1        2 0.29766807E+00 0.51254883E+03</pdfrwt>
<pdfrwt beam="2">  1       -2 0.52294641E-01 0.51254883E+03</pdfrwt>
<totfact> 0.26857945E+01</totfact>
</mgrwt>
</event>
<event>
 4    1  0.2061941E-008  0.1314043E+04  0.7818608E-02  0.9018502E-01
          2   -1    0    0  501    0  0.00000000000E+00  0.00000000000E+00  0.15889647408E+04  0.15889647408E+04  0.25500000000E-02 0. -1.
         -2   -1    0    0    0  501 -0.00000000000E+00 -0.00000000000E+00 -0.13146249046E+04  0.13146249046E+04  0.25500000000E-02 0.  1.
    8880022    1    1    2    0    0  0.44131316427E+03 -0.12282347187E+04 -0.46735094954E+03  0.13946778826E+04  0.15294330000E+03 0.  1.
    8880022    1    1    2    0    0 -0.44131316427E+03  0.12282347187E+04  0.74169078581E+03  0.15089117628E+04  0.15294330000E+03 0.  0.
<mgrwt>
<rscale>  0 0.13140432E+04</rscale>
<asrwt>0</asrwt>
<pdfrwt beam="1">  1        2 0.24445611E+00 0.13140432E+04</pdfrwt>
<pdfrwt beam="2">  1       -2 0.20224999E+00 0.13140432E+04</pdfrwt>
<totfact> 0.13935136E+00</totfact>
</mgrwt>
</event>
